Protein in INSANE! Membrane UpperLeaflet>POPC=1.0 LowerLeaflet>POPC=1.0
248096
   14AUC    AUC    1  15.211   5.666   7.501
   15AUC    AUC    2  15.456   5.666   7.349
   16AUC    AUC    3  15.456   5.666   7.652
   17AUC    AUC    4  14.965   5.666   7.349
   18AUC    AUC    5  14.965   5.666   7.652
   19AUC    AUC    6  15.059   5.911   7.501
   20AUC    AUC    7  15.362   5.911   7.501
   21AUC    AUC    8  15.059   5.420   7.501
   22AUC    AUC    9  15.362   5.420   7.501
   23AUC    AUC   10  15.211   5.514   7.746
   24AUC    AUC   11  15.211   5.817   7.746
   25AUC    AUC   12  15.211   5.514   7.255
   26AUC    AUC   13  15.211   5.817   7.255
   27AUC    AUC   14  15.702   5.666   7.197
   28AUC    AUC   15  15.702   5.666   7.501
   29AUC    AUC   16  15.702   5.666   7.804
   30AUC    AUC   17  14.720   5.666   7.197
   31AUC    AUC   18  14.720   5.666   7.501
   32AUC    AUC   19  14.720   5.666   7.804
   33AUC    AUC   20  14.907   6.156   7.501
   34AUC    AUC   21  15.211   6.156   7.501
   35AUC    AUC   22  15.514   6.156   7.501
   36AUC    AUC   23  14.907   5.175   7.501
   37AUC    AUC   24  15.211   5.175   7.501
   38AUC    AUC   25  15.514   5.175   7.501
   39AUC    AUC   26  15.211   5.362   7.991
   40AUC    AUC   27  15.211   5.666   7.991
   41AUC    AUC   28  15.211   5.969   7.991
   42AUC    AUC   29  15.211   5.362   7.010
   43AUC    AUC   30  15.211   5.666   7.010
   44AUC    AUC   31  15.211   5.969   7.010
   45AUC    AUC   32  15.456   5.514   7.898
   46AUC    AUC   33  15.456   5.817   7.898
   47AUC    AUC   34  15.456   5.514   7.103
   48AUC    AUC   35  15.456   5.817   7.103
   49AUC    AUC   36  14.965   5.514   7.898
   50AUC    AUC   37  14.965   5.817   7.898
   51AUC    AUC   38  14.965   5.514   7.103
   52AUC    AUC   39  14.965   5.817   7.103
   53AUC    AUC   40  15.608   5.911   7.349
   54AUC    AUC   41  15.608   5.911   7.652
   55AUC    AUC   42  14.814   5.911   7.349
   56AUC    AUC   43  14.814   5.911   7.652
   57AUC    AUC   44  15.608   5.420   7.349
   58AUC    AUC   45  15.608   5.420   7.652
   59AUC    AUC   46  14.814   5.420   7.349
   60AUC    AUC   47  14.814   5.420   7.652
   61AUC    AUC   48  15.059   6.063   7.746
   62AUC    AUC   49  15.362   6.063   7.746
   63AUC    AUC   50  15.059   5.269   7.746
   64AUC    AUC   51  15.362   5.269   7.746
   65AUC    AUC   52  15.059   6.063   7.255
   66AUC    AUC   53  15.362   6.063   7.255
   67AUC    AUC   54  15.059   5.269   7.255
   68AUC    AUC   55  15.362   5.269   7.255
   69AUSL   AUS   56  15.620   5.666   8.081
   70AUSL   AUS   57  15.476   5.249   8.011
   71AUL    AUL   58  15.702   5.362   8.295
   72THSLK    S   59  15.603   5.061   8.163
   73ETHY    C1   60  15.761   4.740   8.456
   74ETHY    C1   61  16.009   4.427   8.845
   75THSLK    S   62  15.725   5.626   8.333
   76ETHY    C1   63  15.968   5.559   8.720
   77ETHY    C1   64  16.261   5.578   9.194
   78AUSL   AUS   65  15.374   5.514   8.174
   79AUSL   AUS   66  15.047   5.817   8.174
   80AUL    AUL   67  15.211   5.666   8.482
   81THSLK    S   68  15.461   5.468   8.426
   82ETHY    C1   69  15.574   5.327   8.852
   83ETHY    C1   70  15.723   5.256   9.385
   84THSLK    S   71  14.959   5.786   8.439
   85ETHY    C1   72  14.854   5.797   8.889
   86ETHY    C1   73  14.704   5.905   9.415
   87AUSL   AUS   74  15.374   5.817   8.174
   88AUSL   AUS   75  15.721   5.930   7.917
   89AUL    AUL   76  15.702   5.969   8.295
   90THSLK    S   77  15.462   5.863   8.426
   91ETHY    C1   78  15.568   6.003   8.854
   92ETHY    C1   79  15.718   6.075   9.386
   93THSLK    S   80  15.901   6.046   8.082
   94ETHY    C1   81  16.246   6.181   8.358
   95ETHY    C1   82  16.621   6.435   8.683
   96AUSL   AUS   83  15.620   5.666   6.921
   97AUSL   AUS   84  15.476   6.082   6.990
   98AUL    AUL   85  15.702   5.969   6.706
   99THSLK    S   86  15.726   5.626   6.668
  100ETHY    C1   87  15.963   5.559   6.278
  101ETHY    C1   88  16.256   5.578   5.804
  102THSLK    S   89  15.651   6.210   6.816
  103ETHY    C1   90  15.882   6.428   6.480
  104ETHY    C1   91  16.108   6.770   6.102
  105AUSL   AUS   92  15.374   5.514   6.827
  106AUSL   AUS   93  15.721   5.401   7.084
  107AUL    AUL   94  15.702   5.362   6.706
  108THSLK    S   95  15.867   5.214   6.932
  109ETHY    C1   96  16.151   4.960   6.670
  110ETHY    C1   97  16.543   4.740   6.340
  111THSLK    S   98  15.462   5.468   6.575
  112ETHY    C1   99  15.568   5.328   6.147
  113ETHY    C1  100  15.718   5.256   5.615
  114AUSL   AUS  101  15.374   5.817   6.827
  115AUSL   AUS  102  15.047   5.514   6.827
  116AUL    AUL  103  15.211   5.666   6.519
  117THSLK    S  104  14.947   5.468   6.579
  118ETHY    C1  105  14.813   5.330   6.158
  119ETHY    C1  106  14.670   5.258   5.624
  120THSLK    S  107  15.475   5.785   6.566
  121ETHY    C1  108  15.602   5.794   6.121
  122ETHY    C1  109  15.746   5.903   5.594
  123AUSL   AUS  110  14.802   5.666   8.081
  124AUSL   AUS  111  14.946   6.082   8.011
  125AUL    AUL  112  14.720   5.969   8.295
  126THSLK    S  113  14.696   5.626   8.333
  127ETHY    C1  114  14.459   5.559   8.723
  128ETHY    C1  115  14.165   5.578   9.197
  129THSLK    S  116  14.818   6.224   8.202
  130ETHY    C1  117  14.665   6.469   8.563
  131ETHY    C1  118  14.417   6.804   8.933
  132AUSL   AUS  119  15.047   5.514   8.174
  133AUSL   AUS  120  14.701   5.401   7.917
  134AUL    AUL  121  14.720   5.362   8.295
  135THSLK    S  122  14.520   5.233   8.043
  136ETHY    C1  123  14.179   5.007   8.259
  137ETHY    C1  124  13.803   4.779   8.602
  138THSLK    S  125  14.947   5.468   8.422
  139ETHY    C1  126  14.819   5.329   8.844
  140ETHY    C1  127  14.675   5.257   9.378
  141AUSL   AUS  128  14.802   5.666   6.921
  142AUSL   AUS  129  14.946   5.249   6.990
  143AUL    AUL  130  14.720   5.362   6.706
  144THSLK    S  131  14.697   5.626   6.668
  145ETHY    C1  132  14.453   5.559   6.281
  146ETHY    C1  133  14.161   5.578   5.807
  147THSLK    S  134  14.772   5.075   6.855
  148ETHY    C1  135  14.535   4.782   6.587
  149ETHY    C1  136  14.310   4.461   6.190
  150AUSL   AUS  137  15.047   5.817   6.827
  151AUSL   AUS  138  14.701   5.930   7.084
  152AUL    AUL  139  14.720   5.969   6.706
  153THSLK    S  140  14.555   6.065   6.894
  154ETHY    C1  141  14.266   6.229   6.572
  155ETHY    C1  142  13.875   6.474   6.259
  156THSLK    S  143  14.960   5.786   6.562
  157ETHY    C1  144  14.847   5.796   6.114
  158ETHY    C1  145  14.699   5.904   5.587
  159AUSL   AUS  146  15.791   6.075   7.501
  160AUSL   AUS  147  15.721   5.930   7.084
  161AUL    AUL  148  16.005   6.156   7.197
  162THSLK    S  149  15.901   6.047   6.920
  163ETHY    C1  150  16.242   6.180   6.638
  164ETHY    C1  151  16.618   6.434   6.314
  165THSLK    S  152  16.064   6.146   7.501
  166ETHY    C1  153  16.488   6.330   7.497
  167ETHY    C1  154  16.952   6.639   7.498
  168AUSL   AUS  155  15.885   5.829   7.349
  169AUSL   AUS  156  15.885   5.502   7.652
  170AUL    AUL  157  16.192   5.666   7.501
  171THSLK    S  158  16.152   5.884   7.341
  172ETHY    C1  159  16.604   5.940   7.262
  173ETHY    C1  160  17.129   6.105   7.172
  174THSLK    S  161  16.131   5.370   7.659
  175ETHY    C1  162  16.548   5.185   7.728
  176ETHY    C1  163  17.084   5.057   7.820
  177AUSL   AUS  164  15.885   5.829   7.652
  178AUSL   AUS  165  15.627   6.176   7.765
  179AUL    AUL  166  16.005   6.156   7.804
  180THSLK    S  167  15.813   6.311   7.925
  181ETHY    C1  168  16.129   6.579   8.128
  182ETHY    C1  169  16.444   6.976   8.362
  183THSLK    S  170  16.152   5.884   7.661
  184ETHY    C1  171  16.604   5.940   7.733
  185ETHY    C1  172  17.130   6.105   7.824
  186AUSL   AUS  173  14.631   6.075   7.501
  187AUSL   AUS  174  14.701   5.930   7.917
  188AUL    AUL  175  14.417   6.156   7.804
  189THSLK    S  176  14.554   6.065   8.107
  190ETHY    C1  177  14.270   6.234   8.430
  191ETHY    C1  178  13.878   6.479   8.743
  192THSLK    S  179  14.400   6.213   7.501
  193ETHY    C1  180  14.046   6.511   7.497
  194ETHY    C1  181  13.562   6.788   7.498
  195AUSL   AUS  182  14.537   5.829   7.349
  196AUSL   AUS  183  14.794   6.176   7.236
  197AUL    AUL  184  14.417   6.156   7.197
  198THSLK    S  185  14.291   5.939   7.307
  199ETHY    C1  186  13.873   6.084   7.173
  200ETHY    C1  187  13.338   6.224   7.099
  201THSLK    S  188  14.663   6.345   7.056
  202ETHY    C1  189  14.439   6.667   6.812
  203ETHY    C1  190  14.099   7.049   6.589
  204AUSL   AUS  191  14.537   5.829   7.652
  205AUSL   AUS  192  14.537   5.502   7.349
  206AUL    AUL  193  14.229   5.666   7.501
  207THSLK    S  194  14.270   5.424   7.377
  208ETHY    C1  195  13.817   5.335   7.359
  209ETHY    C1  196  13.292   5.180   7.252
  210THSLK    S  197  14.291   5.939   7.694
  211ETHY    C1  198  13.874   6.090   7.825
  212ETHY    C1  199  13.339   6.228   7.900
  213AUSL   AUS  200  15.791   5.257   7.501
  214AUSL   AUS  201  15.721   5.401   7.917
  215AUL    AUL  202  16.005   5.175   7.804
  216THSLK    S  203  16.022   5.118   7.501
  217ETHY    C1  204  16.376   4.820   7.497
  218ETHY    C1  205  16.860   4.543   7.498
  219THSLK    S  206  15.867   5.214   8.070
  220ETHY    C1  207  16.155   4.959   8.326
  221ETHY    C1  208  16.547   4.739   8.657
  222AUSL   AUS  209  15.885   5.502   7.349
  223AUSL   AUS  210  15.627   5.155   7.236
  224AUL    AUL  211  16.005   5.175   7.197
  225THSLK    S  212  16.131   5.370   7.343
  226ETHY    C1  213  16.547   5.185   7.266
  227ETHY    C1  214  17.083   5.057   7.176
  228THSLK    S  215  15.759   4.964   7.092
  229ETHY    C1  216  15.980   4.603   6.907
  230ETHY    C1  217  16.321   4.233   6.667
  231AUSL   AUS  218  14.631   5.257   7.501
  232AUSL   AUS  219  14.701   5.401   7.084
  233AUL    AUL  220  14.417   5.175   7.197
  234THSLK    S  221  14.521   5.233   6.958
  235ETHY    C1  222  14.175   5.013   6.743
  236ETHY    C1  223  13.800   4.783   6.400
  237THSLK    S  224  14.358   5.185   7.501
  238ETHY    C1  225  13.934   5.002   7.497
  239ETHY    C1  226  13.470   4.692   7.498
  240AUSL   AUS  227  14.537   5.502   7.652
  241AUSL   AUS  228  14.794   5.155   7.765
  242AUL    AUL  229  14.417   5.175   7.804
  243THSLK    S  230  14.608   4.998   7.889
  244ETHY    C1  231  14.295   4.692   8.033
  245ETHY    C1  232  13.980   4.305   8.284
  246THSLK    S  233  14.270   5.425   7.625
  247ETHY    C1  234  13.818   5.329   7.639
  248ETHY    C1  235  13.293   5.176   7.746
  249AUSL   AUS  236  15.211   6.246   7.910
  250AUSL   AUS  237  14.794   6.176   7.765
  251AUL    AUL  238  14.907   6.460   7.991
  252THSLK    S  239  14.663   6.344   7.945
  253ETHY    C1  240  14.442   6.672   8.185
  254ETHY    C1  241  14.101   7.052   8.409
  255THSLK    S  242  15.245   6.487   8.033
  256ETHY    C1  243  15.303   6.859   8.301
  257ETHY    C1  244  15.287   7.338   8.586
  258AUSL   AUS  245  15.059   6.339   7.664
  259AUSL   AUS  246  15.362   6.339   7.337
  260AUL    AUL  247  15.211   6.647   7.501
  261THSLK    S  248  15.090   6.599   7.770
  262ETHY    C1  249  15.080   7.040   7.907
  263ETHY    C1  250  14.971   7.569   8.048
  264THSLK    S  251  15.407   6.588   7.235
  265ETHY    C1  252  15.545   7.006   7.097
  266ETHY    C1  253  15.617   7.541   6.955
  267AUSL   AUS  254  15.362   6.339   7.664
  268AUSL   AUS  255  15.476   6.082   8.011
  269AUL    AUL  256  15.514   6.460   7.991
  270THSLK    S  257  15.650   6.210   8.185
  271ETHY    C1  258  15.886   6.429   8.517
  272ETHY    C1  259  16.112   6.771   8.895
  273THSLK    S  260  15.407   6.587   7.767
  274ETHY    C1  261  15.546   7.008   7.898
  275ETHY    C1  262  15.619   7.542   8.041
  276AUSL   AUS  263  15.211   5.086   7.910
  277AUSL   AUS  264  15.627   5.155   7.765
  278AUL    AUL  265  15.514   4.871   7.991
  279THSLK    S  266  15.177   4.822   7.997
  280ETHY    C1  267  15.122   4.413   8.205
  281ETHY    C1  268  15.137   3.945   8.507
  282THSLK    S  269  15.759   4.964   7.910
  283ETHY    C1  270  15.982   4.602   8.089
  284ETHY    C1  271  16.323   4.232   8.330
  285AUSL   AUS  272  15.059   4.992   7.664
  286AUSL   AUS  273  14.946   5.249   8.011
  287AUL    AUL  274  14.907   4.871   7.991
  288THSLK    S  275  15.014   4.739   7.746
  289ETHY    C1  276  14.877   4.308   7.843
  290ETHY    C1  277  14.804   3.776   7.996
  291THSLK    S  278  14.771   5.075   8.146
  292ETHY    C1  279  14.540   4.777   8.413
  293ETHY    C1  280  14.313   4.457   8.810
  294AUSL   AUS  281  15.362   4.992   7.664
  295AUSL   AUS  282  15.059   4.992   7.337
  296AUL    AUL  283  15.211   4.684   7.501
  297THSLK    S  284  15.014   4.739   7.255
  298ETHY    C1  285  14.875   4.310   7.152
  299ETHY    C1  286  14.803   3.778   7.001
  300THSLK    S  287  15.331   4.727   7.750
  301ETHY    C1  288  15.344   4.276   7.852
  302ETHY    C1  289  15.452   3.750   8.003
  303AUSL   AUS  290  15.211   6.246   7.092
  304AUSL   AUS  291  15.627   6.176   7.236
  305AUL    AUL  292  15.514   6.460   7.010
  306THSLK    S  293  15.245   6.487   6.969
  307ETHY    C1  294  15.300   6.856   6.696
  308ETHY    C1  295  15.284   7.335   6.412
  309THSLK    S  296  15.814   6.311   7.077
  310ETHY    C1  297  16.127   6.578   6.868
  311ETHY    C1  298  16.442   6.975   6.634
  312AUSL   AUS  299  15.059   6.339   7.337
  313AUSL   AUS  300  14.946   6.082   6.990
  314AUL    AUL  301  14.907   6.460   7.010
  315THSLK    S  302  15.090   6.600   7.232
  316ETHY    C1  303  15.078   7.038   7.088
  317ETHY    C1  304  14.970   7.567   6.948
  318THSLK    S  305  14.819   6.225   6.799
  319ETHY    C1  306  14.661   6.465   6.437
  320ETHY    C1  307  14.413   6.800   6.067
  321AUSL   AUS  308  15.211   5.086   7.092
  322AUSL   AUS  309  14.794   5.155   7.236
  323AUL    AUL  310  14.907   4.871   7.010
  324THSLK    S  311  14.608   4.998   7.113
  325ETHY    C1  312  14.292   4.696   6.964
  326ETHY    C1  313  13.978   4.309   6.714
  327THSLK    S  314  15.177   4.822   7.004
  328ETHY    C1  315  15.118   4.417   6.791
  329ETHY    C1  316  15.135   3.947   6.490
  330AUSL   AUS  317  15.362   4.992   7.337
  331AUSL   AUS  318  15.476   5.249   6.990
  332AUL    AUL  319  15.514   4.871   7.010
  333THSLK    S  320  15.332   4.726   7.252
  334ETHY    C1  321  15.342   4.278   7.143
  335ETHY    C1  322  15.450   3.751   6.993
  336THSLK    S  323  15.604   5.060   6.839
  337ETHY    C1  324  15.756   4.742   6.541
  338ETHY    C1  325  16.005   4.428   6.152
  339AUC    AUC  326  46.605  21.069   7.501
  340AUC    AUC  327  46.850  21.069   7.349
  341AUC    AUC  328  46.850  21.069   7.652
  342AUC    AUC  329  46.359  21.069   7.349
  343AUC    AUC  330  46.359  21.069   7.652
  344AUC    AUC  331  46.453  21.314   7.501
  345AUC    AUC  332  46.756  21.314   7.501
  346AUC    AUC  333  46.453  20.823   7.501
  347AUC    AUC  334  46.756  20.823   7.501
  348AUC    AUC  335  46.605  20.917   7.746
  349AUC    AUC  336  46.605  21.220   7.746
  350AUC    AUC  337  46.605  20.917   7.255
  351AUC    AUC  338  46.605  21.220   7.255
  352AUC    AUC  339  47.096  21.069   7.197
  353AUC    AUC  340  47.096  21.069   7.501
  354AUC    AUC  341  47.096  21.069   7.804
  355AUC    AUC  342  46.114  21.069   7.197
  356AUC    AUC  343  46.114  21.069   7.501
  357AUC    AUC  344  46.114  21.069   7.804
  358AUC    AUC  345  46.301  21.559   7.501
  359AUC    AUC  346  46.605  21.559   7.501
  360AUC    AUC  347  46.908  21.559   7.501
  361AUC    AUC  348  46.301  20.578   7.501
  362AUC    AUC  349  46.605  20.578   7.501
  363AUC    AUC  350  46.908  20.578   7.501
  364AUC    AUC  351  46.605  20.765   7.991
  365AUC    AUC  352  46.605  21.069   7.991
  366AUC    AUC  353  46.605  21.372   7.991
  367AUC    AUC  354  46.605  20.765   7.010
  368AUC    AUC  355  46.605  21.069   7.010
  369AUC    AUC  356  46.605  21.372   7.010
  370AUC    AUC  357  46.850  20.917   7.898
  371AUC    AUC  358  46.850  21.220   7.898
  372AUC    AUC  359  46.850  20.917   7.103
  373AUC    AUC  360  46.850  21.220   7.103
  374AUC    AUC  361  46.359  20.917   7.898
  375AUC    AUC  362  46.359  21.220   7.898
  376AUC    AUC  363  46.359  20.917   7.103
  377AUC    AUC  364  46.359  21.220   7.103
  378AUC    AUC  365  47.002  21.314   7.349
  379AUC    AUC  366  47.002  21.314   7.652
  380AUC    AUC  367  46.208  21.314   7.349
  381AUC    AUC  368  46.208  21.314   7.652
  382AUC    AUC  369  47.002  20.823   7.349
  383AUC    AUC  370  47.002  20.823   7.652
  384AUC    AUC  371  46.208  20.823   7.349
  385AUC    AUC  372  46.208  20.823   7.652
  386AUC    AUC  373  46.453  21.466   7.746
  387AUC    AUC  374  46.756  21.466   7.746
  388AUC    AUC  375  46.453  20.672   7.746
  389AUC    AUC  376  46.756  20.672   7.746
  390AUC    AUC  377  46.453  21.466   7.255
  391AUC    AUC  378  46.756  21.466   7.255
  392AUC    AUC  379  46.453  20.672   7.255
  393AUC    AUC  380  46.756  20.672   7.255
  394AUSL   AUS  381  47.014  21.069   8.081
  395AUSL   AUS  382  46.870  20.652   8.011
  396AUL    AUL  383  47.096  20.765   8.295
  397THSLK    S  384  46.997  20.464   8.163
  398ETHY    C1  385  47.155  20.143   8.456
  399ETHY    C1  386  47.403  19.830   8.845
  400THSLK    S  387  47.119  21.029   8.333
  401ETHY    C1  388  47.362  20.962   8.720
  402ETHY    C1  389  47.655  20.981   9.194
  403AUSL   AUS  390  46.768  20.917   8.174
  404AUSL   AUS  391  46.441  21.220   8.174
  405AUL    AUL  392  46.605  21.069   8.482
  406THSLK    S  393  46.855  20.871   8.426
  407ETHY    C1  394  46.968  20.730   8.852
  408ETHY    C1  395  47.117  20.659   9.385
  409THSLK    S  396  46.353  21.189   8.439
  410ETHY    C1  397  46.248  21.200   8.889
  411ETHY    C1  398  46.098  21.308   9.415
  412AUSL   AUS  399  46.768  21.220   8.174
  413AUSL   AUS  400  47.115  21.333   7.917
  414AUL    AUL  401  47.096  21.372   8.295
  415THSLK    S  402  46.856  21.266   8.426
  416ETHY    C1  403  46.962  21.406   8.854
  417ETHY    C1  404  47.112  21.478   9.386
  418THSLK    S  405  47.295  21.449   8.082
  419ETHY    C1  406  47.640  21.584   8.358
  420ETHY    C1  407  48.015  21.838   8.683
  421AUSL   AUS  408  47.014  21.069   6.921
  422AUSL   AUS  409  46.870  21.485   6.990
  423AUL    AUL  410  47.096  21.372   6.706
  424THSLK    S  411  47.120  21.029   6.668
  425ETHY    C1  412  47.357  20.962   6.278
  426ETHY    C1  413  47.650  20.981   5.804
  427THSLK    S  414  47.045  21.613   6.816
  428ETHY    C1  415  47.276  21.831   6.480
  429ETHY    C1  416  47.502  22.173   6.102
  430AUSL   AUS  417  46.768  20.917   6.827
  431AUSL   AUS  418  47.115  20.804   7.084
  432AUL    AUL  419  47.096  20.765   6.706
  433THSLK    S  420  47.261  20.617   6.932
  434ETHY    C1  421  47.545  20.363   6.670
  435ETHY    C1  422  47.937  20.143   6.340
  436THSLK    S  423  46.856  20.871   6.575
  437ETHY    C1  424  46.962  20.731   6.147
  438ETHY    C1  425  47.112  20.659   5.615
  439AUSL   AUS  426  46.768  21.220   6.827
  440AUSL   AUS  427  46.441  20.917   6.827
  441AUL    AUL  428  46.605  21.069   6.519
  442THSLK    S  429  46.341  20.871   6.579
  443ETHY    C1  430  46.207  20.733   6.158
  444ETHY    C1  431  46.064  20.661   5.624
  445THSLK    S  432  46.869  21.188   6.566
  446ETHY    C1  433  46.996  21.197   6.121
  447ETHY    C1  434  47.140  21.306   5.594
  448AUSL   AUS  435  46.196  21.069   8.081
  449AUSL   AUS  436  46.340  21.485   8.011
  450AUL    AUL  437  46.114  21.372   8.295
  451THSLK    S  438  46.090  21.029   8.333
  452ETHY    C1  439  45.853  20.962   8.723
  453ETHY    C1  440  45.559  20.981   9.197
  454THSLK    S  441  46.212  21.627   8.202
  455ETHY    C1  442  46.059  21.872   8.563
  456ETHY    C1  443  45.811  22.207   8.933
  457AUSL   AUS  444  46.441  20.917   8.174
  458AUSL   AUS  445  46.095  20.804   7.917
  459AUL    AUL  446  46.114  20.765   8.295
  460THSLK    S  447  45.914  20.636   8.043
  461ETHY    C1  448  45.573  20.410   8.259
  462ETHY    C1  449  45.197  20.182   8.602
  463THSLK    S  450  46.341  20.871   8.422
  464ETHY    C1  451  46.213  20.732   8.844
  465ETHY    C1  452  46.069  20.660   9.378
  466AUSL   AUS  453  46.196  21.069   6.921
  467AUSL   AUS  454  46.340  20.652   6.990
  468AUL    AUL  455  46.114  20.765   6.706
  469THSLK    S  456  46.091  21.029   6.668
  470ETHY    C1  457  45.847  20.962   6.281
  471ETHY    C1  458  45.555  20.981   5.807
  472THSLK    S  459  46.166  20.478   6.855
  473ETHY    C1  460  45.929  20.185   6.587
  474ETHY    C1  461  45.704  19.864   6.190
  475AUSL   AUS  462  46.441  21.220   6.827
  476AUSL   AUS  463  46.095  21.333   7.084
  477AUL    AUL  464  46.114  21.372   6.706
  478THSLK    S  465  45.949  21.468   6.894
  479ETHY    C1  466  45.660  21.632   6.572
  480ETHY    C1  467  45.269  21.877   6.259
  481THSLK    S  468  46.354  21.189   6.562
  482ETHY    C1  469  46.241  21.199   6.114
  483ETHY    C1  470  46.093  21.307   5.587
  484AUSL   AUS  471  47.185  21.478   7.501
  485AUSL   AUS  472  47.115  21.333   7.084
  486AUL    AUL  473  47.399  21.559   7.197
  487THSLK    S  474  47.295  21.450   6.920
  488ETHY    C1  475  47.636  21.583   6.638
  489ETHY    C1  476  48.012  21.837   6.314
  490THSLK    S  477  47.458  21.549   7.501
  491ETHY    C1  478  47.882  21.733   7.497
  492ETHY    C1  479  48.346  22.042   7.498
  493AUSL   AUS  480  47.279  21.232   7.349
  494AUSL   AUS  481  47.279  20.905   7.652
  495AUL    AUL  482  47.586  21.069   7.501
  496THSLK    S  483  47.546  21.287   7.341
  497ETHY    C1  484  47.998  21.343   7.262
  498ETHY    C1  485  48.523  21.508   7.172
  499THSLK    S  486  47.525  20.773   7.659
  500ETHY    C1  487  47.942  20.588   7.728
  501ETHY    C1  488  48.478  20.460   7.820
  502AUSL   AUS  489  47.279  21.232   7.652
  503AUSL   AUS  490  47.021  21.579   7.765
  504AUL    AUL  491  47.399  21.559   7.804
  505THSLK    S  492  47.207  21.714   7.925
  506ETHY    C1  493  47.523  21.982   8.128
  507ETHY    C1  494  47.838  22.379   8.362
  508THSLK    S  495  47.546  21.287   7.661
  509ETHY    C1  496  47.998  21.343   7.733
  510ETHY    C1  497  48.524  21.508   7.824
  511AUSL   AUS  498  46.025  21.478   7.501
  512AUSL   AUS  499  46.095  21.333   7.917
  513AUL    AUL  500  45.811  21.559   7.804
  514THSLK    S  501  45.948  21.468   8.107
  515ETHY    C1  502  45.664  21.637   8.430
  516ETHY    C1  503  45.272  21.882   8.743
  517THSLK    S  504  45.794  21.616   7.501
  518ETHY    C1  505  45.440  21.914   7.497
  519ETHY    C1  506  44.956  22.191   7.498
  520AUSL   AUS  507  45.931  21.232   7.349
  521AUSL   AUS  508  46.188  21.579   7.236
  522AUL    AUL  509  45.811  21.559   7.197
  523THSLK    S  510  45.685  21.342   7.307
  524ETHY    C1  511  45.267  21.487   7.173
  525ETHY    C1  512  44.732  21.627   7.099
  526THSLK    S  513  46.057  21.748   7.056
  527ETHY    C1  514  45.833  22.070   6.812
  528ETHY    C1  515  45.493  22.452   6.589
  529AUSL   AUS  516  45.931  21.232   7.652
  530AUSL   AUS  517  45.931  20.905   7.349
  531AUL    AUL  518  45.623  21.069   7.501
  532THSLK    S  519  45.664  20.827   7.377
  533ETHY    C1  520  45.211  20.738   7.359
  534ETHY    C1  521  44.686  20.583   7.252
  535THSLK    S  522  45.685  21.342   7.694
  536ETHY    C1  523  45.268  21.493   7.825
  537ETHY    C1  524  44.733  21.631   7.900
  538AUSL   AUS  525  47.185  20.660   7.501
  539AUSL   AUS  526  47.115  20.804   7.917
  540AUL    AUL  527  47.399  20.578   7.804
  541THSLK    S  528  47.416  20.521   7.501
  542ETHY    C1  529  47.770  20.223   7.497
  543ETHY    C1  530  48.254  19.946   7.498
  544THSLK    S  531  47.261  20.617   8.070
  545ETHY    C1  532  47.549  20.362   8.326
  546ETHY    C1  533  47.941  20.142   8.657
  547AUSL   AUS  534  47.279  20.905   7.349
  548AUSL   AUS  535  47.021  20.558   7.236
  549AUL    AUL  536  47.399  20.578   7.197
  550THSLK    S  537  47.525  20.773   7.343
  551ETHY    C1  538  47.941  20.588   7.266
  552ETHY    C1  539  48.477  20.460   7.176
  553THSLK    S  540  47.153  20.367   7.092
  554ETHY    C1  541  47.374  20.006   6.907
  555ETHY    C1  542  47.715  19.636   6.667
  556AUSL   AUS  543  46.025  20.660   7.501
  557AUSL   AUS  544  46.095  20.804   7.084
  558AUL    AUL  545  45.811  20.578   7.197
  559THSLK    S  546  45.915  20.636   6.958
  560ETHY    C1  547  45.569  20.416   6.743
  561ETHY    C1  548  45.194  20.186   6.400
  562THSLK    S  549  45.752  20.588   7.501
  563ETHY    C1  550  45.328  20.405   7.497
  564ETHY    C1  551  44.864  20.095   7.498
  565AUSL   AUS  552  45.931  20.905   7.652
  566AUSL   AUS  553  46.188  20.558   7.765
  567AUL    AUL  554  45.811  20.578   7.804
  568THSLK    S  555  46.002  20.401   7.889
  569ETHY    C1  556  45.689  20.095   8.033
  570ETHY    C1  557  45.374  19.708   8.284
  571THSLK    S  558  45.664  20.828   7.625
  572ETHY    C1  559  45.212  20.732   7.639
  573ETHY    C1  560  44.687  20.579   7.746
  574AUSL   AUS  561  46.605  21.649   7.910
  575AUSL   AUS  562  46.188  21.579   7.765
  576AUL    AUL  563  46.301  21.863   7.991
  577THSLK    S  564  46.057  21.747   7.945
  578ETHY    C1  565  45.836  22.075   8.185
  579ETHY    C1  566  45.495  22.455   8.409
  580THSLK    S  567  46.639  21.890   8.033
  581ETHY    C1  568  46.697  22.262   8.301
  582ETHY    C1  569  46.681  22.741   8.586
  583AUSL   AUS  570  46.453  21.742   7.664
  584AUSL   AUS  571  46.756  21.742   7.337
  585AUL    AUL  572  46.605  22.050   7.501
  586THSLK    S  573  46.484  22.002   7.770
  587ETHY    C1  574  46.474  22.443   7.907
  588ETHY    C1  575  46.365  22.972   8.048
  589THSLK    S  576  46.801  21.991   7.235
  590ETHY    C1  577  46.939  22.409   7.097
  591ETHY    C1  578  47.011  22.944   6.955
  592AUSL   AUS  579  46.756  21.742   7.664
  593AUSL   AUS  580  46.870  21.485   8.011
  594AUL    AUL  581  46.908  21.863   7.991
  595THSLK    S  582  47.044  21.613   8.185
  596ETHY    C1  583  47.280  21.832   8.517
  597ETHY    C1  584  47.506  22.174   8.895
  598THSLK    S  585  46.801  21.990   7.767
  599ETHY    C1  586  46.940  22.411   7.898
  600ETHY    C1  587  47.013  22.945   8.041
  601AUSL   AUS  588  46.605  20.489   7.910
  602AUSL   AUS  589  47.021  20.558   7.765
  603AUL    AUL  590  46.908  20.274   7.991
  604THSLK    S  591  46.571  20.225   7.997
  605ETHY    C1  592  46.516  19.816   8.205
  606ETHY    C1  593  46.531  19.348   8.507
  607THSLK    S  594  47.153  20.367   7.910
  608ETHY    C1  595  47.376  20.005   8.089
  609ETHY    C1  596  47.717  19.635   8.330
  610AUSL   AUS  597  46.453  20.395   7.664
  611AUSL   AUS  598  46.340  20.652   8.011
  612AUL    AUL  599  46.301  20.274   7.991
  613THSLK    S  600  46.408  20.142   7.746
  614ETHY    C1  601  46.271  19.711   7.843
  615ETHY    C1  602  46.198  19.179   7.996
  616THSLK    S  603  46.165  20.478   8.146
  617ETHY    C1  604  45.934  20.180   8.413
  618ETHY    C1  605  45.707  19.860   8.810
  619AUSL   AUS  606  46.756  20.395   7.664
  620AUSL   AUS  607  46.453  20.395   7.337
  621AUL    AUL  608  46.605  20.087   7.501
  622THSLK    S  609  46.408  20.142   7.255
  623ETHY    C1  610  46.269  19.713   7.152
  624ETHY    C1  611  46.197  19.181   7.001
  625THSLK    S  612  46.725  20.130   7.750
  626ETHY    C1  613  46.738  19.679   7.852
  627ETHY    C1  614  46.846  19.153   8.003
  628AUSL   AUS  615  46.605  21.649   7.092
  629AUSL   AUS  616  47.021  21.579   7.236
  630AUL    AUL  617  46.908  21.863   7.010
  631THSLK    S  618  46.639  21.890   6.969
  632ETHY    C1  619  46.694  22.259   6.696
  633ETHY    C1  620  46.678  22.738   6.412
  634THSLK    S  621  47.208  21.714   7.077
  635ETHY    C1  622  47.521  21.981   6.868
  636ETHY    C1  623  47.836  22.378   6.634
  637AUSL   AUS  624  46.453  21.742   7.337
  638AUSL   AUS  625  46.340  21.485   6.990
  639AUL    AUL  626  46.301  21.863   7.010
  640THSLK    S  627  46.484  22.003   7.232
  641ETHY    C1  628  46.472  22.441   7.088
  642ETHY    C1  629  46.364  22.970   6.948
  643THSLK    S  630  46.213  21.628   6.799
  644ETHY    C1  631  46.055  21.868   6.437
  645ETHY    C1  632  45.807  22.203   6.067
  646AUSL   AUS  633  46.605  20.489   7.092
  647AUSL   AUS  634  46.188  20.558   7.236
  648AUL    AUL  635  46.301  20.274   7.010
  649THSLK    S  636  46.002  20.401   7.113
  650ETHY    C1  637  45.686  20.099   6.964
  651ETHY    C1  638  45.372  19.712   6.714
  652THSLK    S  639  46.571  20.225   7.004
  653ETHY    C1  640  46.512  19.820   6.791
  654ETHY    C1  641  46.529  19.350   6.490
  655AUSL   AUS  642  46.756  20.395   7.337
  656AUSL   AUS  643  46.870  20.652   6.990
  657AUL    AUL  644  46.908  20.274   7.010
  658THSLK    S  645  46.726  20.129   7.252
  659ETHY    C1  646  46.736  19.681   7.143
  660ETHY    C1  647  46.844  19.154   6.993
  661THSLK    S  648  46.998  20.463   6.839
  662ETHY    C1  649  47.150  20.145   6.541
  663ETHY    C1  650  47.399  19.831   6.152
  664AUC    AUC  651  42.610  39.948   7.501
  665AUC    AUC  652  42.855  39.948   7.349
  666AUC    AUC  653  42.855  39.948   7.652
  667AUC    AUC  654  42.364  39.948   7.349
  668AUC    AUC  655  42.364  39.948   7.652
  669AUC    AUC  656  42.458  40.193   7.501
  670AUC    AUC  657  42.761  40.193   7.501
  671AUC    AUC  658  42.458  39.702   7.501
  672AUC    AUC  659  42.761  39.702   7.501
  673AUC    AUC  660  42.610  39.796   7.746
  674AUC    AUC  661  42.610  40.099   7.746
  675AUC    AUC  662  42.610  39.796   7.255
  676AUC    AUC  663  42.610  40.099   7.255
  677AUC    AUC  664  43.101  39.948   7.197
  678AUC    AUC  665  43.101  39.948   7.501
  679AUC    AUC  666  43.101  39.948   7.804
  680AUC    AUC  667  42.119  39.948   7.197
  681AUC    AUC  668  42.119  39.948   7.501
  682AUC    AUC  669  42.119  39.948   7.804
  683AUC    AUC  670  42.306  40.438   7.501
  684AUC    AUC  671  42.610  40.438   7.501
  685AUC    AUC  672  42.913  40.438   7.501
  686AUC    AUC  673  42.306  39.457   7.501
  687AUC    AUC  674  42.610  39.457   7.501
  688AUC    AUC  675  42.913  39.457   7.501
  689AUC    AUC  676  42.610  39.644   7.991
  690AUC    AUC  677  42.610  39.948   7.991
  691AUC    AUC  678  42.610  40.251   7.991
  692AUC    AUC  679  42.610  39.644   7.010
  693AUC    AUC  680  42.610  39.948   7.010
  694AUC    AUC  681  42.610  40.251   7.010
  695AUC    AUC  682  42.855  39.796   7.898
  696AUC    AUC  683  42.855  40.099   7.898
  697AUC    AUC  684  42.855  39.796   7.103
  698AUC    AUC  685  42.855  40.099   7.103
  699AUC    AUC  686  42.364  39.796   7.898
  700AUC    AUC  687  42.364  40.099   7.898
  701AUC    AUC  688  42.364  39.796   7.103
  702AUC    AUC  689  42.364  40.099   7.103
  703AUC    AUC  690  43.007  40.193   7.349
  704AUC    AUC  691  43.007  40.193   7.652
  705AUC    AUC  692  42.213  40.193   7.349
  706AUC    AUC  693  42.213  40.193   7.652
  707AUC    AUC  694  43.007  39.702   7.349
  708AUC    AUC  695  43.007  39.702   7.652
  709AUC    AUC  696  42.213  39.702   7.349
  710AUC    AUC  697  42.213  39.702   7.652
  711AUC    AUC  698  42.458  40.345   7.746
  712AUC    AUC  699  42.761  40.345   7.746
  713AUC    AUC  700  42.458  39.551   7.746
  714AUC    AUC  701  42.761  39.551   7.746
  715AUC    AUC  702  42.458  40.345   7.255
  716AUC    AUC  703  42.761  40.345   7.255
  717AUC    AUC  704  42.458  39.551   7.255
  718AUC    AUC  705  42.761  39.551   7.255
  719AUSL   AUS  706  43.019  39.948   8.081
  720AUSL   AUS  707  42.875  39.531   8.011
  721AUL    AUL  708  43.101  39.644   8.295
  722THSLK    S  709  43.002  39.343   8.163
  723ETHY    C1  710  43.160  39.022   8.456
  724ETHY    C1  711  43.408  38.709   8.845
  725THSLK    S  712  43.124  39.908   8.333
  726ETHY    C1  713  43.367  39.841   8.720
  727ETHY    C1  714  43.660  39.860   9.194
  728AUSL   AUS  715  42.773  39.796   8.174
  729AUSL   AUS  716  42.446  40.099   8.174
  730AUL    AUL  717  42.610  39.948   8.482
  731THSLK    S  718  42.860  39.750   8.426
  732ETHY    C1  719  42.973  39.609   8.852
  733ETHY    C1  720  43.122  39.538   9.385
  734THSLK    S  721  42.358  40.068   8.439
  735ETHY    C1  722  42.253  40.079   8.889
  736ETHY    C1  723  42.103  40.187   9.415
  737AUSL   AUS  724  42.773  40.099   8.174
  738AUSL   AUS  725  43.120  40.212   7.917
  739AUL    AUL  726  43.101  40.251   8.295
  740THSLK    S  727  42.861  40.145   8.426
  741ETHY    C1  728  42.967  40.285   8.854
  742ETHY    C1  729  43.117  40.357   9.386
  743THSLK    S  730  43.300  40.328   8.082
  744ETHY    C1  731  43.645  40.463   8.358
  745ETHY    C1  732  44.020  40.717   8.683
  746AUSL   AUS  733  43.019  39.948   6.921
  747AUSL   AUS  734  42.875  40.364   6.990
  748AUL    AUL  735  43.101  40.251   6.706
  749THSLK    S  736  43.125  39.908   6.668
  750ETHY    C1  737  43.362  39.841   6.278
  751ETHY    C1  738  43.655  39.860   5.804
  752THSLK    S  739  43.050  40.492   6.816
  753ETHY    C1  740  43.281  40.710   6.480
  754ETHY    C1  741  43.507  41.052   6.102
  755AUSL   AUS  742  42.773  39.796   6.827
  756AUSL   AUS  743  43.120  39.683   7.084
  757AUL    AUL  744  43.101  39.644   6.706
  758THSLK    S  745  43.266  39.496   6.932
  759ETHY    C1  746  43.550  39.242   6.670
  760ETHY    C1  747  43.942  39.022   6.340
  761THSLK    S  748  42.861  39.750   6.575
  762ETHY    C1  749  42.967  39.610   6.147
  763ETHY    C1  750  43.117  39.538   5.615
  764AUSL   AUS  751  42.773  40.099   6.827
  765AUSL   AUS  752  42.446  39.796   6.827
  766AUL    AUL  753  42.610  39.948   6.519
  767THSLK    S  754  42.346  39.750   6.579
  768ETHY    C1  755  42.212  39.612   6.158
  769ETHY    C1  756  42.069  39.540   5.624
  770THSLK    S  757  42.874  40.067   6.566
  771ETHY    C1  758  43.001  40.076   6.121
  772ETHY    C1  759  43.145  40.185   5.594
  773AUSL   AUS  760  42.201  39.948   8.081
  774AUSL   AUS  761  42.345  40.364   8.011
  775AUL    AUL  762  42.119  40.251   8.295
  776THSLK    S  763  42.095  39.908   8.333
  777ETHY    C1  764  41.858  39.841   8.723
  778ETHY    C1  765  41.564  39.860   9.197
  779THSLK    S  766  42.217  40.506   8.202
  780ETHY    C1  767  42.064  40.751   8.563
  781ETHY    C1  768  41.816  41.086   8.933
  782AUSL   AUS  769  42.446  39.796   8.174
  783AUSL   AUS  770  42.100  39.683   7.917
  784AUL    AUL  771  42.119  39.644   8.295
  785THSLK    S  772  41.919  39.515   8.043
  786ETHY    C1  773  41.578  39.289   8.259
  787ETHY    C1  774  41.202  39.061   8.602
  788THSLK    S  775  42.346  39.750   8.422
  789ETHY    C1  776  42.218  39.611   8.844
  790ETHY    C1  777  42.074  39.539   9.378
  791AUSL   AUS  778  42.201  39.948   6.921
  792AUSL   AUS  779  42.345  39.531   6.990
  793AUL    AUL  780  42.119  39.644   6.706
  794THSLK    S  781  42.096  39.908   6.668
  795ETHY    C1  782  41.852  39.841   6.281
  796ETHY    C1  783  41.560  39.860   5.807
  797THSLK    S  784  42.171  39.357   6.855
  798ETHY    C1  785  41.934  39.064   6.587
  799ETHY    C1  786  41.709  38.743   6.190
  800AUSL   AUS  787  42.446  40.099   6.827
  801AUSL   AUS  788  42.100  40.212   7.084
  802AUL    AUL  789  42.119  40.251   6.706
  803THSLK    S  790  41.954  40.347   6.894
  804ETHY    C1  791  41.665  40.511   6.572
  805ETHY    C1  792  41.274  40.756   6.259
  806THSLK    S  793  42.359  40.068   6.562
  807ETHY    C1  794  42.246  40.078   6.114
  808ETHY    C1  795  42.098  40.186   5.587
  809AUSL   AUS  796  43.190  40.357   7.501
  810AUSL   AUS  797  43.120  40.212   7.084
  811AUL    AUL  798  43.404  40.438   7.197
  812THSLK    S  799  43.300  40.329   6.920
  813ETHY    C1  800  43.641  40.462   6.638
  814ETHY    C1  801  44.017  40.716   6.314
  815THSLK    S  802  43.463  40.428   7.501
  816ETHY    C1  803  43.887  40.612   7.497
  817ETHY    C1  804  44.351  40.921   7.498
  818AUSL   AUS  805  43.284  40.111   7.349
  819AUSL   AUS  806  43.284  39.784   7.652
  820AUL    AUL  807  43.591  39.948   7.501
  821THSLK    S  808  43.551  40.166   7.341
  822ETHY    C1  809  44.003  40.222   7.262
  823ETHY    C1  810  44.528  40.387   7.172
  824THSLK    S  811  43.530  39.652   7.659
  825ETHY    C1  812  43.947  39.467   7.728
  826ETHY    C1  813  44.483  39.339   7.820
  827AUSL   AUS  814  43.284  40.111   7.652
  828AUSL   AUS  815  43.026  40.458   7.765
  829AUL    AUL  816  43.404  40.438   7.804
  830THSLK    S  817  43.212  40.593   7.925
  831ETHY    C1  818  43.528  40.861   8.128
  832ETHY    C1  819  43.843  41.258   8.362
  833THSLK    S  820  43.551  40.166   7.661
  834ETHY    C1  821  44.003  40.222   7.733
  835ETHY    C1  822  44.529  40.387   7.824
  836AUSL   AUS  823  42.030  40.357   7.501
  837AUSL   AUS  824  42.100  40.212   7.917
  838AUL    AUL  825  41.816  40.438   7.804
  839THSLK    S  826  41.953  40.347   8.107
  840ETHY    C1  827  41.669  40.516   8.430
  841ETHY    C1  828  41.277  40.761   8.743
  842THSLK    S  829  41.799  40.495   7.501
  843ETHY    C1  830  41.445  40.793   7.497
  844ETHY    C1  831  40.961  41.070   7.498
  845AUSL   AUS  832  41.936  40.111   7.349
  846AUSL   AUS  833  42.193  40.458   7.236
  847AUL    AUL  834  41.816  40.438   7.197
  848THSLK    S  835  41.690  40.221   7.307
  849ETHY    C1  836  41.272  40.366   7.173
  850ETHY    C1  837  40.737  40.506   7.099
  851THSLK    S  838  42.062  40.627   7.056
  852ETHY    C1  839  41.838  40.949   6.812
  853ETHY    C1  840  41.498  41.331   6.589
  854AUSL   AUS  841  41.936  40.111   7.652
  855AUSL   AUS  842  41.936  39.784   7.349
  856AUL    AUL  843  41.628  39.948   7.501
  857THSLK    S  844  41.669  39.706   7.377
  858ETHY    C1  845  41.216  39.617   7.359
  859ETHY    C1  846  40.691  39.462   7.252
  860THSLK    S  847  41.690  40.221   7.694
  861ETHY    C1  848  41.273  40.372   7.825
  862ETHY    C1  849  40.738  40.510   7.900
  863AUSL   AUS  850  43.190  39.539   7.501
  864AUSL   AUS  851  43.120  39.683   7.917
  865AUL    AUL  852  43.404  39.457   7.804
  866THSLK    S  853  43.421  39.400   7.501
  867ETHY    C1  854  43.775  39.102   7.497
  868ETHY    C1  855  44.259  38.825   7.498
  869THSLK    S  856  43.266  39.496   8.070
  870ETHY    C1  857  43.554  39.241   8.326
  871ETHY    C1  858  43.946  39.021   8.657
  872AUSL   AUS  859  43.284  39.784   7.349
  873AUSL   AUS  860  43.026  39.437   7.236
  874AUL    AUL  861  43.404  39.457   7.197
  875THSLK    S  862  43.530  39.652   7.343
  876ETHY    C1  863  43.946  39.467   7.266
  877ETHY    C1  864  44.482  39.339   7.176
  878THSLK    S  865  43.158  39.246   7.092
  879ETHY    C1  866  43.379  38.885   6.907
  880ETHY    C1  867  43.720  38.515   6.667
  881AUSL   AUS  868  42.030  39.539   7.501
  882AUSL   AUS  869  42.100  39.683   7.084
  883AUL    AUL  870  41.816  39.457   7.197
  884THSLK    S  871  41.920  39.515   6.958
  885ETHY    C1  872  41.574  39.295   6.743
  886ETHY    C1  873  41.199  39.065   6.400
  887THSLK    S  874  41.757  39.467   7.501
  888ETHY    C1  875  41.333  39.284   7.497
  889ETHY    C1  876  40.869  38.974   7.498
  890AUSL   AUS  877  41.936  39.784   7.652
  891AUSL   AUS  878  42.193  39.437   7.765
  892AUL    AUL  879  41.816  39.457   7.804
  893THSLK    S  880  42.007  39.280   7.889
  894ETHY    C1  881  41.694  38.974   8.033
  895ETHY    C1  882  41.379  38.587   8.284
  896THSLK    S  883  41.669  39.707   7.625
  897ETHY    C1  884  41.217  39.611   7.639
  898ETHY    C1  885  40.692  39.458   7.746
  899AUSL   AUS  886  42.610  40.528   7.910
  900AUSL   AUS  887  42.193  40.458   7.765
  901AUL    AUL  888  42.306  40.742   7.991
  902THSLK    S  889  42.062  40.626   7.945
  903ETHY    C1  890  41.841  40.954   8.185
  904ETHY    C1  891  41.500  41.334   8.409
  905THSLK    S  892  42.644  40.769   8.033
  906ETHY    C1  893  42.702  41.141   8.301
  907ETHY    C1  894  42.686  41.620   8.586
  908AUSL   AUS  895  42.458  40.621   7.664
  909AUSL   AUS  896  42.761  40.621   7.337
  910AUL    AUL  897  42.610  40.929   7.501
  911THSLK    S  898  42.489  40.881   7.770
  912ETHY    C1  899  42.479  41.322   7.907
  913ETHY    C1  900  42.370  41.851   8.048
  914THSLK    S  901  42.806  40.870   7.235
  915ETHY    C1  902  42.944  41.288   7.097
  916ETHY    C1  903  43.016  41.823   6.955
  917AUSL   AUS  904  42.761  40.621   7.664
  918AUSL   AUS  905  42.875  40.364   8.011
  919AUL    AUL  906  42.913  40.742   7.991
  920THSLK    S  907  43.049  40.492   8.185
  921ETHY    C1  908  43.285  40.711   8.517
  922ETHY    C1  909  43.511  41.053   8.895
  923THSLK    S  910  42.806  40.869   7.767
  924ETHY    C1  911  42.945  41.290   7.898
  925ETHY    C1  912  43.018  41.824   8.041
  926AUSL   AUS  913  42.610  39.368   7.910
  927AUSL   AUS  914  43.026  39.437   7.765
  928AUL    AUL  915  42.913  39.153   7.991
  929THSLK    S  916  42.576  39.104   7.997
  930ETHY    C1  917  42.521  38.695   8.205
  931ETHY    C1  918  42.536  38.227   8.507
  932THSLK    S  919  43.158  39.246   7.910
  933ETHY    C1  920  43.381  38.884   8.089
  934ETHY    C1  921  43.722  38.514   8.330
  935AUSL   AUS  922  42.458  39.274   7.664
  936AUSL   AUS  923  42.345  39.531   8.011
  937AUL    AUL  924  42.306  39.153   7.991
  938THSLK    S  925  42.413  39.021   7.746
  939ETHY    C1  926  42.276  38.590   7.843
  940ETHY    C1  927  42.203  38.058   7.996
  941THSLK    S  928  42.170  39.357   8.146
  942ETHY    C1  929  41.939  39.059   8.413
  943ETHY    C1  930  41.712  38.739   8.810
  944AUSL   AUS  931  42.761  39.274   7.664
  945AUSL   AUS  932  42.458  39.274   7.337
  946AUL    AUL  933  42.610  38.966   7.501
  947THSLK    S  934  42.413  39.021   7.255
  948ETHY    C1  935  42.274  38.592   7.152
  949ETHY    C1  936  42.202  38.060   7.001
  950THSLK    S  937  42.730  39.009   7.750
  951ETHY    C1  938  42.743  38.558   7.852
  952ETHY    C1  939  42.851  38.032   8.003
  953AUSL   AUS  940  42.610  40.528   7.092
  954AUSL   AUS  941  43.026  40.458   7.236
  955AUL    AUL  942  42.913  40.742   7.010
  956THSLK    S  943  42.644  40.769   6.969
  957ETHY    C1  944  42.699  41.138   6.696
  958ETHY    C1  945  42.683  41.617   6.412
  959THSLK    S  946  43.213  40.593   7.077
  960ETHY    C1  947  43.526  40.860   6.868
  961ETHY    C1  948  43.841  41.257   6.634
  962AUSL   AUS  949  42.458  40.621   7.337
  963AUSL   AUS  950  42.345  40.364   6.990
  964AUL    AUL  951  42.306  40.742   7.010
  965THSLK    S  952  42.489  40.882   7.232
  966ETHY    C1  953  42.477  41.320   7.088
  967ETHY    C1  954  42.369  41.849   6.948
  968THSLK    S  955  42.218  40.507   6.799
  969ETHY    C1  956  42.060  40.747   6.437
  970ETHY    C1  957  41.812  41.082   6.067
  971AUSL   AUS  958  42.610  39.368   7.092
  972AUSL   AUS  959  42.193  39.437   7.236
  973AUL    AUL  960  42.306  39.153   7.010
  974THSLK    S  961  42.007  39.280   7.113
  975ETHY    C1  962  41.691  38.978   6.964
  976ETHY    C1  963  41.377  38.591   6.714
  977THSLK    S  964  42.576  39.104   7.004
  978ETHY    C1  965  42.517  38.699   6.791
  979ETHY    C1  966  42.534  38.229   6.490
  980AUSL   AUS  967  42.761  39.274   7.337
  981AUSL   AUS  968  42.875  39.531   6.990
  982AUL    AUL  969  42.913  39.153   7.010
  983THSLK    S  970  42.731  39.008   7.252
  984ETHY    C1  971  42.741  38.560   7.143
  985ETHY    C1  972  42.849  38.033   6.993
  986THSLK    S  973  43.003  39.342   6.839
  987ETHY    C1  974  43.155  39.024   6.541
  988ETHY    C1  975  43.404  38.710   6.152
  989AUC    AUC  976  35.888  38.121   7.501
  990AUC    AUC  977  36.133  38.121   7.349
  991AUC    AUC  978  36.133  38.121   7.652
  992AUC    AUC  979  35.642  38.121   7.349
  993AUC    AUC  980  35.642  38.121   7.652
  994AUC    AUC  981  35.736  38.366   7.501
  995AUC    AUC  982  36.039  38.366   7.501
  996AUC    AUC  983  35.736  37.875   7.501
  997AUC    AUC  984  36.039  37.875   7.501
  998AUC    AUC  985  35.888  37.969   7.746
  999AUC    AUC  986  35.888  38.272   7.746
 1000AUC    AUC  987  35.888  37.969   7.255
 1001AUC    AUC  988  35.888  38.272   7.255
 1002AUC    AUC  989  36.379  38.121   7.197
 1003AUC    AUC  990  36.379  38.121   7.501
 1004AUC    AUC  991  36.379  38.121   7.804
 1005AUC    AUC  992  35.397  38.121   7.197
 1006AUC    AUC  993  35.397  38.121   7.501
 1007AUC    AUC  994  35.397  38.121   7.804
 1008AUC    AUC  995  35.584  38.611   7.501
 1009AUC    AUC  996  35.888  38.611   7.501
 1010AUC    AUC  997  36.191  38.611   7.501
 1011AUC    AUC  998  35.584  37.630   7.501
 1012AUC    AUC  999  35.888  37.630   7.501
 1013AUC    AUC 1000  36.191  37.630   7.501
 1014AUC    AUC 1001  35.888  37.817   7.991
 1015AUC    AUC 1002  35.888  38.121   7.991
 1016AUC    AUC 1003  35.888  38.424   7.991
 1017AUC    AUC 1004  35.888  37.817   7.010
 1018AUC    AUC 1005  35.888  38.121   7.010
 1019AUC    AUC 1006  35.888  38.424   7.010
 1020AUC    AUC 1007  36.133  37.969   7.898
 1021AUC    AUC 1008  36.133  38.272   7.898
 1022AUC    AUC 1009  36.133  37.969   7.103
 1023AUC    AUC 1010  36.133  38.272   7.103
 1024AUC    AUC 1011  35.642  37.969   7.898
 1025AUC    AUC 1012  35.642  38.272   7.898
 1026AUC    AUC 1013  35.642  37.969   7.103
 1027AUC    AUC 1014  35.642  38.272   7.103
 1028AUC    AUC 1015  36.285  38.366   7.349
 1029AUC    AUC 1016  36.285  38.366   7.652
 1030AUC    AUC 1017  35.491  38.366   7.349
 1031AUC    AUC 1018  35.491  38.366   7.652
 1032AUC    AUC 1019  36.285  37.875   7.349
 1033AUC    AUC 1020  36.285  37.875   7.652
 1034AUC    AUC 1021  35.491  37.875   7.349
 1035AUC    AUC 1022  35.491  37.875   7.652
 1036AUC    AUC 1023  35.736  38.518   7.746
 1037AUC    AUC 1024  36.039  38.518   7.746
 1038AUC    AUC 1025  35.736  37.724   7.746
 1039AUC    AUC 1026  36.039  37.724   7.746
 1040AUC    AUC 1027  35.736  38.518   7.255
 1041AUC    AUC 1028  36.039  38.518   7.255
 1042AUC    AUC 1029  35.736  37.724   7.255
 1043AUC    AUC 1030  36.039  37.724   7.255
 1044AUSL   AUS 1031  36.297  38.121   8.081
 1045AUSL   AUS 1032  36.153  37.704   8.011
 1046AUL    AUL 1033  36.379  37.817   8.295
 1047THSLK    S 1034  36.280  37.516   8.163
 1048ETHY    C1 1035  36.438  37.195   8.456
 1049ETHY    C1 1036  36.686  36.882   8.845
 1050THSLK    S 1037  36.402  38.081   8.333
 1051ETHY    C1 1038  36.645  38.014   8.720
 1052ETHY    C1 1039  36.938  38.033   9.194
 1053AUSL   AUS 1040  36.051  37.969   8.174
 1054AUSL   AUS 1041  35.724  38.272   8.174
 1055AUL    AUL 1042  35.888  38.121   8.482
 1056THSLK    S 1043  36.138  37.923   8.426
 1057ETHY    C1 1044  36.251  37.782   8.852
 1058ETHY    C1 1045  36.400  37.711   9.385
 1059THSLK    S 1046  35.636  38.241   8.439
 1060ETHY    C1 1047  35.531  38.252   8.889
 1061ETHY    C1 1048  35.381  38.360   9.415
 1062AUSL   AUS 1049  36.051  38.272   8.174
 1063AUSL   AUS 1050  36.398  38.385   7.917
 1064AUL    AUL 1051  36.379  38.424   8.295
 1065THSLK    S 1052  36.139  38.318   8.426
 1066ETHY    C1 1053  36.245  38.458   8.854
 1067ETHY    C1 1054  36.395  38.530   9.386
 1068THSLK    S 1055  36.578  38.501   8.082
 1069ETHY    C1 1056  36.923  38.636   8.358
 1070ETHY    C1 1057  37.298  38.890   8.683
 1071AUSL   AUS 1058  36.297  38.121   6.921
 1072AUSL   AUS 1059  36.153  38.537   6.990
 1073AUL    AUL 1060  36.379  38.424   6.706
 1074THSLK    S 1061  36.403  38.081   6.668
 1075ETHY    C1 1062  36.640  38.014   6.278
 1076ETHY    C1 1063  36.933  38.033   5.804
 1077THSLK    S 1064  36.328  38.665   6.816
 1078ETHY    C1 1065  36.559  38.883   6.480
 1079ETHY    C1 1066  36.785  39.225   6.102
 1080AUSL   AUS 1067  36.051  37.969   6.827
 1081AUSL   AUS 1068  36.398  37.856   7.084
 1082AUL    AUL 1069  36.379  37.817   6.706
 1083THSLK    S 1070  36.544  37.669   6.932
 1084ETHY    C1 1071  36.828  37.415   6.670
 1085ETHY    C1 1072  37.220  37.195   6.340
 1086THSLK    S 1073  36.139  37.923   6.575
 1087ETHY    C1 1074  36.245  37.783   6.147
 1088ETHY    C1 1075  36.395  37.711   5.615
 1089AUSL   AUS 1076  36.051  38.272   6.827
 1090AUSL   AUS 1077  35.724  37.969   6.827
 1091AUL    AUL 1078  35.888  38.121   6.519
 1092THSLK    S 1079  35.624  37.923   6.579
 1093ETHY    C1 1080  35.490  37.785   6.158
 1094ETHY    C1 1081  35.347  37.713   5.624
 1095THSLK    S 1082  36.152  38.240   6.566
 1096ETHY    C1 1083  36.279  38.249   6.121
 1097ETHY    C1 1084  36.423  38.358   5.594
 1098AUSL   AUS 1085  35.479  38.121   8.081
 1099AUSL   AUS 1086  35.623  38.537   8.011
 1100AUL    AUL 1087  35.397  38.424   8.295
 1101THSLK    S 1088  35.373  38.081   8.333
 1102ETHY    C1 1089  35.136  38.014   8.723
 1103ETHY    C1 1090  34.842  38.033   9.197
 1104THSLK    S 1091  35.495  38.679   8.202
 1105ETHY    C1 1092  35.342  38.924   8.563
 1106ETHY    C1 1093  35.094  39.259   8.933
 1107AUSL   AUS 1094  35.724  37.969   8.174
 1108AUSL   AUS 1095  35.378  37.856   7.917
 1109AUL    AUL 1096  35.397  37.817   8.295
 1110THSLK    S 1097  35.197  37.688   8.043
 1111ETHY    C1 1098  34.856  37.462   8.259
 1112ETHY    C1 1099  34.480  37.234   8.602
 1113THSLK    S 1100  35.624  37.923   8.422
 1114ETHY    C1 1101  35.496  37.784   8.844
 1115ETHY    C1 1102  35.352  37.712   9.378
 1116AUSL   AUS 1103  35.479  38.121   6.921
 1117AUSL   AUS 1104  35.623  37.704   6.990
 1118AUL    AUL 1105  35.397  37.817   6.706
 1119THSLK    S 1106  35.374  38.081   6.668
 1120ETHY    C1 1107  35.130  38.014   6.281
 1121ETHY    C1 1108  34.838  38.033   5.807
 1122THSLK    S 1109  35.449  37.530   6.855
 1123ETHY    C1 1110  35.212  37.237   6.587
 1124ETHY    C1 1111  34.987  36.916   6.190
 1125AUSL   AUS 1112  35.724  38.272   6.827
 1126AUSL   AUS 1113  35.378  38.385   7.084
 1127AUL    AUL 1114  35.397  38.424   6.706
 1128THSLK    S 1115  35.232  38.520   6.894
 1129ETHY    C1 1116  34.943  38.684   6.572
 1130ETHY    C1 1117  34.552  38.929   6.259
 1131THSLK    S 1118  35.637  38.241   6.562
 1132ETHY    C1 1119  35.524  38.251   6.114
 1133ETHY    C1 1120  35.376  38.359   5.587
 1134AUSL   AUS 1121  36.468  38.530   7.501
 1135AUSL   AUS 1122  36.398  38.385   7.084
 1136AUL    AUL 1123  36.682  38.611   7.197
 1137THSLK    S 1124  36.578  38.502   6.920
 1138ETHY    C1 1125  36.919  38.635   6.638
 1139ETHY    C1 1126  37.295  38.889   6.314
 1140THSLK    S 1127  36.741  38.601   7.501
 1141ETHY    C1 1128  37.165  38.785   7.497
 1142ETHY    C1 1129  37.629  39.094   7.498
 1143AUSL   AUS 1130  36.562  38.284   7.349
 1144AUSL   AUS 1131  36.562  37.957   7.652
 1145AUL    AUL 1132  36.869  38.121   7.501
 1146THSLK    S 1133  36.829  38.339   7.341
 1147ETHY    C1 1134  37.281  38.395   7.262
 1148ETHY    C1 1135  37.806  38.560   7.172
 1149THSLK    S 1136  36.808  37.825   7.659
 1150ETHY    C1 1137  37.225  37.640   7.728
 1151ETHY    C1 1138  37.761  37.512   7.820
 1152AUSL   AUS 1139  36.562  38.284   7.652
 1153AUSL   AUS 1140  36.304  38.631   7.765
 1154AUL    AUL 1141  36.682  38.611   7.804
 1155THSLK    S 1142  36.490  38.766   7.925
 1156ETHY    C1 1143  36.806  39.034   8.128
 1157ETHY    C1 1144  37.121  39.431   8.362
 1158THSLK    S 1145  36.829  38.339   7.661
 1159ETHY    C1 1146  37.281  38.395   7.733
 1160ETHY    C1 1147  37.807  38.560   7.824
 1161AUSL   AUS 1148  35.308  38.530   7.501
 1162AUSL   AUS 1149  35.378  38.385   7.917
 1163AUL    AUL 1150  35.094  38.611   7.804
 1164THSLK    S 1151  35.231  38.520   8.107
 1165ETHY    C1 1152  34.947  38.689   8.430
 1166ETHY    C1 1153  34.555  38.934   8.743
 1167THSLK    S 1154  35.077  38.668   7.501
 1168ETHY    C1 1155  34.723  38.966   7.497
 1169ETHY    C1 1156  34.239  39.243   7.498
 1170AUSL   AUS 1157  35.214  38.284   7.349
 1171AUSL   AUS 1158  35.471  38.631   7.236
 1172AUL    AUL 1159  35.094  38.611   7.197
 1173THSLK    S 1160  34.968  38.394   7.307
 1174ETHY    C1 1161  34.550  38.539   7.173
 1175ETHY    C1 1162  34.015  38.679   7.099
 1176THSLK    S 1163  35.340  38.800   7.056
 1177ETHY    C1 1164  35.116  39.122   6.812
 1178ETHY    C1 1165  34.776  39.504   6.589
 1179AUSL   AUS 1166  35.214  38.284   7.652
 1180AUSL   AUS 1167  35.214  37.957   7.349
 1181AUL    AUL 1168  34.906  38.121   7.501
 1182THSLK    S 1169  34.947  37.879   7.377
 1183ETHY    C1 1170  34.494  37.790   7.359
 1184ETHY    C1 1171  33.969  37.635   7.252
 1185THSLK    S 1172  34.968  38.394   7.694
 1186ETHY    C1 1173  34.551  38.545   7.825
 1187ETHY    C1 1174  34.016  38.683   7.900
 1188AUSL   AUS 1175  36.468  37.712   7.501
 1189AUSL   AUS 1176  36.398  37.856   7.917
 1190AUL    AUL 1177  36.682  37.630   7.804
 1191THSLK    S 1178  36.699  37.573   7.501
 1192ETHY    C1 1179  37.053  37.275   7.497
 1193ETHY    C1 1180  37.537  36.998   7.498
 1194THSLK    S 1181  36.544  37.669   8.070
 1195ETHY    C1 1182  36.832  37.414   8.326
 1196ETHY    C1 1183  37.224  37.194   8.657
 1197AUSL   AUS 1184  36.562  37.957   7.349
 1198AUSL   AUS 1185  36.304  37.610   7.236
 1199AUL    AUL 1186  36.682  37.630   7.197
 1200THSLK    S 1187  36.808  37.825   7.343
 1201ETHY    C1 1188  37.224  37.640   7.266
 1202ETHY    C1 1189  37.760  37.512   7.176
 1203THSLK    S 1190  36.436  37.419   7.092
 1204ETHY    C1 1191  36.657  37.058   6.907
 1205ETHY    C1 1192  36.998  36.688   6.667
 1206AUSL   AUS 1193  35.308  37.712   7.501
 1207AUSL   AUS 1194  35.378  37.856   7.084
 1208AUL    AUL 1195  35.094  37.630   7.197
 1209THSLK    S 1196  35.198  37.688   6.958
 1210ETHY    C1 1197  34.852  37.468   6.743
 1211ETHY    C1 1198  34.477  37.238   6.400
 1212THSLK    S 1199  35.035  37.640   7.501
 1213ETHY    C1 1200  34.611  37.457   7.497
 1214ETHY    C1 1201  34.147  37.147   7.498
 1215AUSL   AUS 1202  35.214  37.957   7.652
 1216AUSL   AUS 1203  35.471  37.610   7.765
 1217AUL    AUL 1204  35.094  37.630   7.804
 1218THSLK    S 1205  35.285  37.453   7.889
 1219ETHY    C1 1206  34.972  37.147   8.033
 1220ETHY    C1 1207  34.657  36.760   8.284
 1221THSLK    S 1208  34.947  37.880   7.625
 1222ETHY    C1 1209  34.495  37.784   7.639
 1223ETHY    C1 1210  33.970  37.631   7.746
 1224AUSL   AUS 1211  35.888  38.701   7.910
 1225AUSL   AUS 1212  35.471  38.631   7.765
 1226AUL    AUL 1213  35.584  38.915   7.991
 1227THSLK    S 1214  35.340  38.799   7.945
 1228ETHY    C1 1215  35.119  39.127   8.185
 1229ETHY    C1 1216  34.778  39.507   8.409
 1230THSLK    S 1217  35.922  38.942   8.033
 1231ETHY    C1 1218  35.980  39.314   8.301
 1232ETHY    C1 1219  35.964  39.793   8.586
 1233AUSL   AUS 1220  35.736  38.794   7.664
 1234AUSL   AUS 1221  36.039  38.794   7.337
 1235AUL    AUL 1222  35.888  39.102   7.501
 1236THSLK    S 1223  35.767  39.054   7.770
 1237ETHY    C1 1224  35.757  39.495   7.907
 1238ETHY    C1 1225  35.648  40.024   8.048
 1239THSLK    S 1226  36.084  39.043   7.235
 1240ETHY    C1 1227  36.222  39.461   7.097
 1241ETHY    C1 1228  36.294  39.996   6.955
 1242AUSL   AUS 1229  36.039  38.794   7.664
 1243AUSL   AUS 1230  36.153  38.537   8.011
 1244AUL    AUL 1231  36.191  38.915   7.991
 1245THSLK    S 1232  36.327  38.665   8.185
 1246ETHY    C1 1233  36.563  38.884   8.517
 1247ETHY    C1 1234  36.789  39.226   8.895
 1248THSLK    S 1235  36.084  39.042   7.767
 1249ETHY    C1 1236  36.223  39.463   7.898
 1250ETHY    C1 1237  36.296  39.997   8.041
 1251AUSL   AUS 1238  35.888  37.541   7.910
 1252AUSL   AUS 1239  36.304  37.610   7.765
 1253AUL    AUL 1240  36.191  37.326   7.991
 1254THSLK    S 1241  35.854  37.277   7.997
 1255ETHY    C1 1242  35.799  36.868   8.205
 1256ETHY    C1 1243  35.814  36.400   8.507
 1257THSLK    S 1244  36.436  37.419   7.910
 1258ETHY    C1 1245  36.659  37.057   8.089
 1259ETHY    C1 1246  37.000  36.687   8.330
 1260AUSL   AUS 1247  35.736  37.447   7.664
 1261AUSL   AUS 1248  35.623  37.704   8.011
 1262AUL    AUL 1249  35.584  37.326   7.991
 1263THSLK    S 1250  35.691  37.194   7.746
 1264ETHY    C1 1251  35.554  36.763   7.843
 1265ETHY    C1 1252  35.481  36.231   7.996
 1266THSLK    S 1253  35.448  37.530   8.146
 1267ETHY    C1 1254  35.217  37.232   8.413
 1268ETHY    C1 1255  34.990  36.912   8.810
 1269AUSL   AUS 1256  36.039  37.447   7.664
 1270AUSL   AUS 1257  35.736  37.447   7.337
 1271AUL    AUL 1258  35.888  37.139   7.501
 1272THSLK    S 1259  35.691  37.194   7.255
 1273ETHY    C1 1260  35.552  36.765   7.152
 1274ETHY    C1 1261  35.480  36.233   7.001
 1275THSLK    S 1262  36.008  37.182   7.750
 1276ETHY    C1 1263  36.021  36.731   7.852
 1277ETHY    C1 1264  36.129  36.205   8.003
 1278AUSL   AUS 1265  35.888  38.701   7.092
 1279AUSL   AUS 1266  36.304  38.631   7.236
 1280AUL    AUL 1267  36.191  38.915   7.010
 1281THSLK    S 1268  35.922  38.942   6.969
 1282ETHY    C1 1269  35.977  39.311   6.696
 1283ETHY    C1 1270  35.961  39.790   6.412
 1284THSLK    S 1271  36.491  38.766   7.077
 1285ETHY    C1 1272  36.804  39.033   6.868
 1286ETHY    C1 1273  37.119  39.430   6.634
 1287AUSL   AUS 1274  35.736  38.794   7.337
 1288AUSL   AUS 1275  35.623  38.537   6.990
 1289AUL    AUL 1276  35.584  38.915   7.010
 1290THSLK    S 1277  35.767  39.055   7.232
 1291ETHY    C1 1278  35.755  39.493   7.088
 1292ETHY    C1 1279  35.647  40.022   6.948
 1293THSLK    S 1280  35.496  38.680   6.799
 1294ETHY    C1 1281  35.338  38.920   6.437
 1295ETHY    C1 1282  35.090  39.255   6.067
 1296AUSL   AUS 1283  35.888  37.541   7.092
 1297AUSL   AUS 1284  35.471  37.610   7.236
 1298AUL    AUL 1285  35.584  37.326   7.010
 1299THSLK    S 1286  35.285  37.453   7.113
 1300ETHY    C1 1287  34.969  37.151   6.964
 1301ETHY    C1 1288  34.655  36.764   6.714
 1302THSLK    S 1289  35.854  37.277   7.004
 1303ETHY    C1 1290  35.795  36.872   6.791
 1304ETHY    C1 1291  35.812  36.402   6.490
 1305AUSL   AUS 1292  36.039  37.447   7.337
 1306AUSL   AUS 1293  36.153  37.704   6.990
 1307AUL    AUL 1294  36.191  37.326   7.010
 1308THSLK    S 1295  36.009  37.181   7.252
 1309ETHY    C1 1296  36.019  36.733   7.143
 1310ETHY    C1 1297  36.127  36.206   6.993
 1311THSLK    S 1298  36.281  37.515   6.839
 1312ETHY    C1 1299  36.433  37.197   6.541
 1313ETHY    C1 1300  36.682  36.883   6.152
 1314AUC    AUC 1301  -2.348  12.785   7.501
 1315AUC    AUC 1302  -2.103  12.785   7.349
 1316AUC    AUC 1303  -2.103  12.785   7.652
 1317AUC    AUC 1304  -2.594  12.785   7.349
 1318AUC    AUC 1305  -2.594  12.785   7.652
 1319AUC    AUC 1306  -2.500  13.030   7.501
 1320AUC    AUC 1307  -2.197  13.030   7.501
 1321AUC    AUC 1308  -2.500  12.539   7.501
 1322AUC    AUC 1309  -2.197  12.539   7.501
 1323AUC    AUC 1310  -2.348  12.633   7.746
 1324AUC    AUC 1311  -2.348  12.936   7.746
 1325AUC    AUC 1312  -2.348  12.633   7.255
 1326AUC    AUC 1313  -2.348  12.936   7.255
 1327AUC    AUC 1314  -1.857  12.785   7.197
 1328AUC    AUC 1315  -1.857  12.785   7.501
 1329AUC    AUC 1316  -1.857  12.785   7.804
 1330AUC    AUC 1317  -2.839  12.785   7.197
 1331AUC    AUC 1318  -2.839  12.785   7.501
 1332AUC    AUC 1319  -2.839  12.785   7.804
 1333AUC    AUC 1320  -2.652  13.275   7.501
 1334AUC    AUC 1321  -2.348  13.275   7.501
 1335AUC    AUC 1322  -2.045  13.275   7.501
 1336AUC    AUC 1323  -2.652  12.294   7.501
 1337AUC    AUC 1324  -2.348  12.294   7.501
 1338AUC    AUC 1325  -2.045  12.294   7.501
 1339AUC    AUC 1326  -2.348  12.481   7.991
 1340AUC    AUC 1327  -2.348  12.785   7.991
 1341AUC    AUC 1328  -2.348  13.088   7.991
 1342AUC    AUC 1329  -2.348  12.481   7.010
 1343AUC    AUC 1330  -2.348  12.785   7.010
 1344AUC    AUC 1331  -2.348  13.088   7.010
 1345AUC    AUC 1332  -2.103  12.633   7.898
 1346AUC    AUC 1333  -2.103  12.936   7.898
 1347AUC    AUC 1334  -2.103  12.633   7.103
 1348AUC    AUC 1335  -2.103  12.936   7.103
 1349AUC    AUC 1336  -2.594  12.633   7.898
 1350AUC    AUC 1337  -2.594  12.936   7.898
 1351AUC    AUC 1338  -2.594  12.633   7.103
 1352AUC    AUC 1339  -2.594  12.936   7.103
 1353AUC    AUC 1340  -1.951  13.030   7.349
 1354AUC    AUC 1341  -1.951  13.030   7.652
 1355AUC    AUC 1342  -2.745  13.030   7.349
 1356AUC    AUC 1343  -2.745  13.030   7.652
 1357AUC    AUC 1344  -1.951  12.539   7.349
 1358AUC    AUC 1345  -1.951  12.539   7.652
 1359AUC    AUC 1346  -2.745  12.539   7.349
 1360AUC    AUC 1347  -2.745  12.539   7.652
 1361AUC    AUC 1348  -2.500  13.182   7.746
 1362AUC    AUC 1349  -2.197  13.182   7.746
 1363AUC    AUC 1350  -2.500  12.388   7.746
 1364AUC    AUC 1351  -2.197  12.388   7.746
 1365AUC    AUC 1352  -2.500  13.182   7.255
 1366AUC    AUC 1353  -2.197  13.182   7.255
 1367AUC    AUC 1354  -2.500  12.388   7.255
 1368AUC    AUC 1355  -2.197  12.388   7.255
 1369AUSL   AUS 1356  -1.939  12.785   8.081
 1370AUSL   AUS 1357  -2.083  12.368   8.011
 1371AUL    AUL 1358  -1.857  12.481   8.295
 1372THSLK    S 1359  -1.956  12.180   8.163
 1373ETHY    C1 1360  -1.798  11.859   8.456
 1374ETHY    C1 1361  -1.550  11.546   8.845
 1375THSLK    S 1362  -1.834  12.745   8.333
 1376ETHY    C1 1363  -1.591  12.678   8.720
 1377ETHY    C1 1364  -1.298  12.697   9.194
 1378AUSL   AUS 1365  -2.185  12.633   8.174
 1379AUSL   AUS 1366  -2.512  12.936   8.174
 1380AUL    AUL 1367  -2.348  12.785   8.482
 1381THSLK    S 1368  -2.098  12.587   8.426
 1382ETHY    C1 1369  -1.985  12.446   8.852
 1383ETHY    C1 1370  -1.836  12.375   9.385
 1384THSLK    S 1371  -2.600  12.905   8.439
 1385ETHY    C1 1372  -2.705  12.916   8.889
 1386ETHY    C1 1373  -2.855  13.024   9.415
 1387AUSL   AUS 1374  -2.185  12.936   8.174
 1388AUSL   AUS 1375  -1.838  13.049   7.917
 1389AUL    AUL 1376  -1.857  13.088   8.295
 1390THSLK    S 1377  -2.097  12.982   8.426
 1391ETHY    C1 1378  -1.991  13.122   8.854
 1392ETHY    C1 1379  -1.841  13.194   9.386
 1393THSLK    S 1380  -1.658  13.165   8.082
 1394ETHY    C1 1381  -1.313  13.300   8.358
 1395ETHY    C1 1382  -0.938  13.554   8.683
 1396AUSL   AUS 1383  -1.939  12.785   6.921
 1397AUSL   AUS 1384  -2.083  13.201   6.990
 1398AUL    AUL 1385  -1.857  13.088   6.706
 1399THSLK    S 1386  -1.833  12.745   6.668
 1400ETHY    C1 1387  -1.596  12.678   6.278
 1401ETHY    C1 1388  -1.303  12.697   5.804
 1402THSLK    S 1389  -1.908  13.329   6.816
 1403ETHY    C1 1390  -1.677  13.547   6.480
 1404ETHY    C1 1391  -1.451  13.889   6.102
 1405AUSL   AUS 1392  -2.185  12.633   6.827
 1406AUSL   AUS 1393  -1.838  12.520   7.084
 1407AUL    AUL 1394  -1.857  12.481   6.706
 1408THSLK    S 1395  -1.692  12.333   6.932
 1409ETHY    C1 1396  -1.408  12.079   6.670
 1410ETHY    C1 1397  -1.016  11.859   6.340
 1411THSLK    S 1398  -2.097  12.587   6.575
 1412ETHY    C1 1399  -1.991  12.447   6.147
 1413ETHY    C1 1400  -1.841  12.375   5.615
 1414AUSL   AUS 1401  -2.185  12.936   6.827
 1415AUSL   AUS 1402  -2.512  12.633   6.827
 1416AUL    AUL 1403  -2.348  12.785   6.519
 1417THSLK    S 1404  -2.612  12.587   6.579
 1418ETHY    C1 1405  -2.746  12.449   6.158
 1419ETHY    C1 1406  -2.889  12.377   5.624
 1420THSLK    S 1407  -2.084  12.904   6.566
 1421ETHY    C1 1408  -1.957  12.913   6.121
 1422ETHY    C1 1409  -1.813  13.022   5.594
 1423AUSL   AUS 1410  -2.757  12.785   8.081
 1424AUSL   AUS 1411  -2.613  13.201   8.011
 1425AUL    AUL 1412  -2.839  13.088   8.295
 1426THSLK    S 1413  -2.863  12.745   8.333
 1427ETHY    C1 1414  -3.100  12.678   8.723
 1428ETHY    C1 1415  -3.394  12.697   9.197
 1429THSLK    S 1416  -2.741  13.343   8.202
 1430ETHY    C1 1417  -2.894  13.588   8.563
 1431ETHY    C1 1418  -3.142  13.923   8.933
 1432AUSL   AUS 1419  -2.512  12.633   8.174
 1433AUSL   AUS 1420  -2.858  12.520   7.917
 1434AUL    AUL 1421  -2.839  12.481   8.295
 1435THSLK    S 1422  -3.039  12.352   8.043
 1436ETHY    C1 1423  -3.380  12.126   8.259
 1437ETHY    C1 1424  -3.756  11.898   8.602
 1438THSLK    S 1425  -2.612  12.587   8.422
 1439ETHY    C1 1426  -2.740  12.448   8.844
 1440ETHY    C1 1427  -2.884  12.376   9.378
 1441AUSL   AUS 1428  -2.757  12.785   6.921
 1442AUSL   AUS 1429  -2.613  12.368   6.990
 1443AUL    AUL 1430  -2.839  12.481   6.706
 1444THSLK    S 1431  -2.862  12.745   6.668
 1445ETHY    C1 1432  -3.106  12.678   6.281
 1446ETHY    C1 1433  -3.398  12.697   5.807
 1447THSLK    S 1434  -2.787  12.194   6.855
 1448ETHY    C1 1435  -3.024  11.901   6.587
 1449ETHY    C1 1436  -3.249  11.580   6.190
 1450AUSL   AUS 1437  -2.512  12.936   6.827
 1451AUSL   AUS 1438  -2.858  13.049   7.084
 1452AUL    AUL 1439  -2.839  13.088   6.706
 1453THSLK    S 1440  -3.004  13.184   6.894
 1454ETHY    C1 1441  -3.293  13.348   6.572
 1455ETHY    C1 1442  -3.684  13.593   6.259
 1456THSLK    S 1443  -2.599  12.905   6.562
 1457ETHY    C1 1444  -2.712  12.915   6.114
 1458ETHY    C1 1445  -2.860  13.023   5.587
 1459AUSL   AUS 1446  -1.768  13.194   7.501
 1460AUSL   AUS 1447  -1.838  13.049   7.084
 1461AUL    AUL 1448  -1.554  13.275   7.197
 1462THSLK    S 1449  -1.658  13.166   6.920
 1463ETHY    C1 1450  -1.317  13.299   6.638
 1464ETHY    C1 1451  -0.941  13.553   6.314
 1465THSLK    S 1452  -1.495  13.265   7.501
 1466ETHY    C1 1453  -1.071  13.449   7.497
 1467ETHY    C1 1454  -0.607  13.758   7.498
 1468AUSL   AUS 1455  -1.674  12.948   7.349
 1469AUSL   AUS 1456  -1.674  12.621   7.652
 1470AUL    AUL 1457  -1.367  12.785   7.501
 1471THSLK    S 1458  -1.407  13.003   7.341
 1472ETHY    C1 1459  -0.955  13.059   7.262
 1473ETHY    C1 1460  -0.430  13.224   7.172
 1474THSLK    S 1461  -1.428  12.489   7.659
 1475ETHY    C1 1462  -1.011  12.304   7.728
 1476ETHY    C1 1463  -0.475  12.176   7.820
 1477AUSL   AUS 1464  -1.674  12.948   7.652
 1478AUSL   AUS 1465  -1.932  13.295   7.765
 1479AUL    AUL 1466  -1.554  13.275   7.804
 1480THSLK    S 1467  -1.746  13.430   7.925
 1481ETHY    C1 1468  -1.430  13.698   8.128
 1482ETHY    C1 1469  -1.115  14.095   8.362
 1483THSLK    S 1470  -1.407  13.003   7.661
 1484ETHY    C1 1471  -0.955  13.059   7.733
 1485ETHY    C1 1472  -0.429  13.224   7.824
 1486AUSL   AUS 1473  -2.928  13.194   7.501
 1487AUSL   AUS 1474  -2.858  13.049   7.917
 1488AUL    AUL 1475  -3.142  13.275   7.804
 1489THSLK    S 1476  -3.005  13.184   8.107
 1490ETHY    C1 1477  -3.289  13.353   8.430
 1491ETHY    C1 1478  -3.681  13.598   8.743
 1492THSLK    S 1479  -3.159  13.332   7.501
 1493ETHY    C1 1480  -3.513  13.630   7.497
 1494ETHY    C1 1481  -3.997  13.907   7.498
 1495AUSL   AUS 1482  -3.022  12.948   7.349
 1496AUSL   AUS 1483  -2.765  13.295   7.236
 1497AUL    AUL 1484  -3.142  13.275   7.197
 1498THSLK    S 1485  -3.268  13.058   7.307
 1499ETHY    C1 1486  -3.686  13.203   7.173
 1500ETHY    C1 1487  -4.221  13.343   7.099
 1501THSLK    S 1488  -2.896  13.464   7.056
 1502ETHY    C1 1489  -3.120  13.786   6.812
 1503ETHY    C1 1490  -3.460  14.168   6.589
 1504AUSL   AUS 1491  -3.022  12.948   7.652
 1505AUSL   AUS 1492  -3.022  12.621   7.349
 1506AUL    AUL 1493  -3.330  12.785   7.501
 1507THSLK    S 1494  -3.289  12.543   7.377
 1508ETHY    C1 1495  -3.742  12.454   7.359
 1509ETHY    C1 1496  -4.267  12.299   7.252
 1510THSLK    S 1497  -3.268  13.058   7.694
 1511ETHY    C1 1498  -3.685  13.209   7.825
 1512ETHY    C1 1499  -4.220  13.347   7.900
 1513AUSL   AUS 1500  -1.768  12.376   7.501
 1514AUSL   AUS 1501  -1.838  12.520   7.917
 1515AUL    AUL 1502  -1.554  12.294   7.804
 1516THSLK    S 1503  -1.537  12.237   7.501
 1517ETHY    C1 1504  -1.183  11.939   7.497
 1518ETHY    C1 1505  -0.699  11.662   7.498
 1519THSLK    S 1506  -1.692  12.333   8.070
 1520ETHY    C1 1507  -1.404  12.078   8.326
 1521ETHY    C1 1508  -1.012  11.858   8.657
 1522AUSL   AUS 1509  -1.674  12.621   7.349
 1523AUSL   AUS 1510  -1.932  12.274   7.236
 1524AUL    AUL 1511  -1.554  12.294   7.197
 1525THSLK    S 1512  -1.428  12.489   7.343
 1526ETHY    C1 1513  -1.012  12.304   7.266
 1527ETHY    C1 1514  -0.476  12.176   7.176
 1528THSLK    S 1515  -1.800  12.083   7.092
 1529ETHY    C1 1516  -1.579  11.722   6.907
 1530ETHY    C1 1517  -1.238  11.352   6.667
 1531AUSL   AUS 1518  -2.928  12.376   7.501
 1532AUSL   AUS 1519  -2.858  12.520   7.084
 1533AUL    AUL 1520  -3.142  12.294   7.197
 1534THSLK    S 1521  -3.038  12.352   6.958
 1535ETHY    C1 1522  -3.384  12.132   6.743
 1536ETHY    C1 1523  -3.759  11.902   6.400
 1537THSLK    S 1524  -3.201  12.304   7.501
 1538ETHY    C1 1525  -3.625  12.121   7.497
 1539ETHY    C1 1526  -4.089  11.811   7.498
 1540AUSL   AUS 1527  -3.022  12.621   7.652
 1541AUSL   AUS 1528  -2.765  12.274   7.765
 1542AUL    AUL 1529  -3.142  12.294   7.804
 1543THSLK    S 1530  -2.951  12.117   7.889
 1544ETHY    C1 1531  -3.264  11.811   8.033
 1545ETHY    C1 1532  -3.579  11.424   8.284
 1546THSLK    S 1533  -3.289  12.544   7.625
 1547ETHY    C1 1534  -3.741  12.448   7.639
 1548ETHY    C1 1535  -4.266  12.295   7.746
 1549AUSL   AUS 1536  -2.348  13.365   7.910
 1550AUSL   AUS 1537  -2.765  13.295   7.765
 1551AUL    AUL 1538  -2.652  13.579   7.991
 1552THSLK    S 1539  -2.896  13.463   7.945
 1553ETHY    C1 1540  -3.117  13.791   8.185
 1554ETHY    C1 1541  -3.458  14.171   8.409
 1555THSLK    S 1542  -2.314  13.606   8.033
 1556ETHY    C1 1543  -2.256  13.978   8.301
 1557ETHY    C1 1544  -2.272  14.457   8.586
 1558AUSL   AUS 1545  -2.500  13.458   7.664
 1559AUSL   AUS 1546  -2.197  13.458   7.337
 1560AUL    AUL 1547  -2.348  13.766   7.501
 1561THSLK    S 1548  -2.469  13.718   7.770
 1562ETHY    C1 1549  -2.479  14.159   7.907
 1563ETHY    C1 1550  -2.588  14.688   8.048
 1564THSLK    S 1551  -2.152  13.707   7.235
 1565ETHY    C1 1552  -2.014  14.125   7.097
 1566ETHY    C1 1553  -1.942  14.660   6.955
 1567AUSL   AUS 1554  -2.197  13.458   7.664
 1568AUSL   AUS 1555  -2.083  13.201   8.011
 1569AUL    AUL 1556  -2.045  13.579   7.991
 1570THSLK    S 1557  -1.909  13.329   8.185
 1571ETHY    C1 1558  -1.673  13.548   8.517
 1572ETHY    C1 1559  -1.447  13.890   8.895
 1573THSLK    S 1560  -2.152  13.706   7.767
 1574ETHY    C1 1561  -2.013  14.127   7.898
 1575ETHY    C1 1562  -1.940  14.661   8.041
 1576AUSL   AUS 1563  -2.348  12.205   7.910
 1577AUSL   AUS 1564  -1.932  12.274   7.765
 1578AUL    AUL 1565  -2.045  11.990   7.991
 1579THSLK    S 1566  -2.382  11.941   7.997
 1580ETHY    C1 1567  -2.437  11.532   8.205
 1581ETHY    C1 1568  -2.422  11.064   8.507
 1582THSLK    S 1569  -1.800  12.083   7.910
 1583ETHY    C1 1570  -1.577  11.721   8.089
 1584ETHY    C1 1571  -1.236  11.351   8.330
 1585AUSL   AUS 1572  -2.500  12.111   7.664
 1586AUSL   AUS 1573  -2.613  12.368   8.011
 1587AUL    AUL 1574  -2.652  11.990   7.991
 1588THSLK    S 1575  -2.545  11.858   7.746
 1589ETHY    C1 1576  -2.682  11.427   7.843
 1590ETHY    C1 1577  -2.755  10.895   7.996
 1591THSLK    S 1578  -2.788  12.194   8.146
 1592ETHY    C1 1579  -3.019  11.896   8.413
 1593ETHY    C1 1580  -3.246  11.576   8.810
 1594AUSL   AUS 1581  -2.197  12.111   7.664
 1595AUSL   AUS 1582  -2.500  12.111   7.337
 1596AUL    AUL 1583  -2.348  11.803   7.501
 1597THSLK    S 1584  -2.545  11.858   7.255
 1598ETHY    C1 1585  -2.684  11.429   7.152
 1599ETHY    C1 1586  -2.756  10.897   7.001
 1600THSLK    S 1587  -2.228  11.846   7.750
 1601ETHY    C1 1588  -2.215  11.395   7.852
 1602ETHY    C1 1589  -2.107  10.869   8.003
 1603AUSL   AUS 1590  -2.348  13.365   7.092
 1604AUSL   AUS 1591  -1.932  13.295   7.236
 1605AUL    AUL 1592  -2.045  13.579   7.010
 1606THSLK    S 1593  -2.314  13.606   6.969
 1607ETHY    C1 1594  -2.259  13.975   6.696
 1608ETHY    C1 1595  -2.275  14.454   6.412
 1609THSLK    S 1596  -1.745  13.430   7.077
 1610ETHY    C1 1597  -1.432  13.697   6.868
 1611ETHY    C1 1598  -1.117  14.094   6.634
 1612AUSL   AUS 1599  -2.500  13.458   7.337
 1613AUSL   AUS 1600  -2.613  13.201   6.990
 1614AUL    AUL 1601  -2.652  13.579   7.010
 1615THSLK    S 1602  -2.469  13.719   7.232
 1616ETHY    C1 1603  -2.481  14.157   7.088
 1617ETHY    C1 1604  -2.589  14.686   6.948
 1618THSLK    S 1605  -2.740  13.344   6.799
 1619ETHY    C1 1606  -2.898  13.584   6.437
 1620ETHY    C1 1607  -3.146  13.919   6.067
 1621AUSL   AUS 1608  -2.348  12.205   7.092
 1622AUSL   AUS 1609  -2.765  12.274   7.236
 1623AUL    AUL 1610  -2.652  11.990   7.010
 1624THSLK    S 1611  -2.951  12.117   7.113
 1625ETHY    C1 1612  -3.267  11.815   6.964
 1626ETHY    C1 1613  -3.581  11.428   6.714
 1627THSLK    S 1614  -2.382  11.941   7.004
 1628ETHY    C1 1615  -2.441  11.536   6.791
 1629ETHY    C1 1616  -2.424  11.066   6.490
 1630AUSL   AUS 1617  -2.197  12.111   7.337
 1631AUSL   AUS 1618  -2.083  12.368   6.990
 1632AUL    AUL 1619  -2.045  11.990   7.010
 1633THSLK    S 1620  -2.227  11.845   7.252
 1634ETHY    C1 1621  -2.217  11.397   7.143
 1635ETHY    C1 1622  -2.109  10.870   6.993
 1636THSLK    S 1623  -1.955  12.179   6.839
 1637ETHY    C1 1624  -1.803  11.861   6.541
 1638ETHY    C1 1625  -1.554  11.547   6.152
 1639AUC    AUC 1626  27.692   8.082   7.501
 1640AUC    AUC 1627  27.937   8.082   7.349
 1641AUC    AUC 1628  27.937   8.082   7.652
 1642AUC    AUC 1629  27.446   8.082   7.349
 1643AUC    AUC 1630  27.446   8.082   7.652
 1644AUC    AUC 1631  27.540   8.327   7.501
 1645AUC    AUC 1632  27.843   8.327   7.501
 1646AUC    AUC 1633  27.540   7.836   7.501
 1647AUC    AUC 1634  27.843   7.836   7.501
 1648AUC    AUC 1635  27.692   7.930   7.746
 1649AUC    AUC 1636  27.692   8.233   7.746
 1650AUC    AUC 1637  27.692   7.930   7.255
 1651AUC    AUC 1638  27.692   8.233   7.255
 1652AUC    AUC 1639  28.183   8.082   7.197
 1653AUC    AUC 1640  28.183   8.082   7.501
 1654AUC    AUC 1641  28.183   8.082   7.804
 1655AUC    AUC 1642  27.201   8.082   7.197
 1656AUC    AUC 1643  27.201   8.082   7.501
 1657AUC    AUC 1644  27.201   8.082   7.804
 1658AUC    AUC 1645  27.388   8.572   7.501
 1659AUC    AUC 1646  27.692   8.572   7.501
 1660AUC    AUC 1647  27.995   8.572   7.501
 1661AUC    AUC 1648  27.388   7.591   7.501
 1662AUC    AUC 1649  27.692   7.591   7.501
 1663AUC    AUC 1650  27.995   7.591   7.501
 1664AUC    AUC 1651  27.692   7.778   7.991
 1665AUC    AUC 1652  27.692   8.082   7.991
 1666AUC    AUC 1653  27.692   8.385   7.991
 1667AUC    AUC 1654  27.692   7.778   7.010
 1668AUC    AUC 1655  27.692   8.082   7.010
 1669AUC    AUC 1656  27.692   8.385   7.010
 1670AUC    AUC 1657  27.937   7.930   7.898
 1671AUC    AUC 1658  27.937   8.233   7.898
 1672AUC    AUC 1659  27.937   7.930   7.103
 1673AUC    AUC 1660  27.937   8.233   7.103
 1674AUC    AUC 1661  27.446   7.930   7.898
 1675AUC    AUC 1662  27.446   8.233   7.898
 1676AUC    AUC 1663  27.446   7.930   7.103
 1677AUC    AUC 1664  27.446   8.233   7.103
 1678AUC    AUC 1665  28.089   8.327   7.349
 1679AUC    AUC 1666  28.089   8.327   7.652
 1680AUC    AUC 1667  27.295   8.327   7.349
 1681AUC    AUC 1668  27.295   8.327   7.652
 1682AUC    AUC 1669  28.089   7.836   7.349
 1683AUC    AUC 1670  28.089   7.836   7.652
 1684AUC    AUC 1671  27.295   7.836   7.349
 1685AUC    AUC 1672  27.295   7.836   7.652
 1686AUC    AUC 1673  27.540   8.479   7.746
 1687AUC    AUC 1674  27.843   8.479   7.746
 1688AUC    AUC 1675  27.540   7.685   7.746
 1689AUC    AUC 1676  27.843   7.685   7.746
 1690AUC    AUC 1677  27.540   8.479   7.255
 1691AUC    AUC 1678  27.843   8.479   7.255
 1692AUC    AUC 1679  27.540   7.685   7.255
 1693AUC    AUC 1680  27.843   7.685   7.255
 1694AUSL   AUS 1681  28.101   8.082   8.081
 1695AUSL   AUS 1682  27.957   7.665   8.011
 1696AUL    AUL 1683  28.183   7.778   8.295
 1697THSLK    S 1684  28.084   7.477   8.163
 1698ETHY    C1 1685  28.242   7.156   8.456
 1699ETHY    C1 1686  28.490   6.843   8.845
 1700THSLK    S 1687  28.206   8.042   8.333
 1701ETHY    C1 1688  28.449   7.975   8.720
 1702ETHY    C1 1689  28.742   7.994   9.194
 1703AUSL   AUS 1690  27.855   7.930   8.174
 1704AUSL   AUS 1691  27.528   8.233   8.174
 1705AUL    AUL 1692  27.692   8.082   8.482
 1706THSLK    S 1693  27.942   7.884   8.426
 1707ETHY    C1 1694  28.055   7.743   8.852
 1708ETHY    C1 1695  28.204   7.672   9.385
 1709THSLK    S 1696  27.440   8.202   8.439
 1710ETHY    C1 1697  27.335   8.213   8.889
 1711ETHY    C1 1698  27.185   8.321   9.415
 1712AUSL   AUS 1699  27.855   8.233   8.174
 1713AUSL   AUS 1700  28.202   8.346   7.917
 1714AUL    AUL 1701  28.183   8.385   8.295
 1715THSLK    S 1702  27.943   8.279   8.426
 1716ETHY    C1 1703  28.049   8.419   8.854
 1717ETHY    C1 1704  28.199   8.491   9.386
 1718THSLK    S 1705  28.382   8.462   8.082
 1719ETHY    C1 1706  28.727   8.597   8.358
 1720ETHY    C1 1707  29.102   8.851   8.683
 1721AUSL   AUS 1708  28.101   8.082   6.921
 1722AUSL   AUS 1709  27.957   8.498   6.990
 1723AUL    AUL 1710  28.183   8.385   6.706
 1724THSLK    S 1711  28.207   8.042   6.668
 1725ETHY    C1 1712  28.444   7.975   6.278
 1726ETHY    C1 1713  28.737   7.994   5.804
 1727THSLK    S 1714  28.132   8.626   6.816
 1728ETHY    C1 1715  28.363   8.844   6.480
 1729ETHY    C1 1716  28.589   9.186   6.102
 1730AUSL   AUS 1717  27.855   7.930   6.827
 1731AUSL   AUS 1718  28.202   7.817   7.084
 1732AUL    AUL 1719  28.183   7.778   6.706
 1733THSLK    S 1720  28.348   7.630   6.932
 1734ETHY    C1 1721  28.632   7.376   6.670
 1735ETHY    C1 1722  29.024   7.156   6.340
 1736THSLK    S 1723  27.943   7.884   6.575
 1737ETHY    C1 1724  28.049   7.744   6.147
 1738ETHY    C1 1725  28.199   7.672   5.615
 1739AUSL   AUS 1726  27.855   8.233   6.827
 1740AUSL   AUS 1727  27.528   7.930   6.827
 1741AUL    AUL 1728  27.692   8.082   6.519
 1742THSLK    S 1729  27.428   7.884   6.579
 1743ETHY    C1 1730  27.294   7.746   6.158
 1744ETHY    C1 1731  27.151   7.674   5.624
 1745THSLK    S 1732  27.956   8.201   6.566
 1746ETHY    C1 1733  28.083   8.210   6.121
 1747ETHY    C1 1734  28.227   8.319   5.594
 1748AUSL   AUS 1735  27.283   8.082   8.081
 1749AUSL   AUS 1736  27.427   8.498   8.011
 1750AUL    AUL 1737  27.201   8.385   8.295
 1751THSLK    S 1738  27.177   8.042   8.333
 1752ETHY    C1 1739  26.940   7.975   8.723
 1753ETHY    C1 1740  26.646   7.994   9.197
 1754THSLK    S 1741  27.299   8.640   8.202
 1755ETHY    C1 1742  27.146   8.885   8.563
 1756ETHY    C1 1743  26.898   9.220   8.933
 1757AUSL   AUS 1744  27.528   7.930   8.174
 1758AUSL   AUS 1745  27.182   7.817   7.917
 1759AUL    AUL 1746  27.201   7.778   8.295
 1760THSLK    S 1747  27.001   7.649   8.043
 1761ETHY    C1 1748  26.660   7.423   8.259
 1762ETHY    C1 1749  26.284   7.195   8.602
 1763THSLK    S 1750  27.428   7.884   8.422
 1764ETHY    C1 1751  27.300   7.745   8.844
 1765ETHY    C1 1752  27.156   7.673   9.378
 1766AUSL   AUS 1753  27.283   8.082   6.921
 1767AUSL   AUS 1754  27.427   7.665   6.990
 1768AUL    AUL 1755  27.201   7.778   6.706
 1769THSLK    S 1756  27.178   8.042   6.668
 1770ETHY    C1 1757  26.934   7.975   6.281
 1771ETHY    C1 1758  26.642   7.994   5.807
 1772THSLK    S 1759  27.253   7.491   6.855
 1773ETHY    C1 1760  27.016   7.198   6.587
 1774ETHY    C1 1761  26.791   6.877   6.190
 1775AUSL   AUS 1762  27.528   8.233   6.827
 1776AUSL   AUS 1763  27.182   8.346   7.084
 1777AUL    AUL 1764  27.201   8.385   6.706
 1778THSLK    S 1765  27.036   8.481   6.894
 1779ETHY    C1 1766  26.747   8.645   6.572
 1780ETHY    C1 1767  26.356   8.890   6.259
 1781THSLK    S 1768  27.441   8.202   6.562
 1782ETHY    C1 1769  27.328   8.212   6.114
 1783ETHY    C1 1770  27.180   8.320   5.587
 1784AUSL   AUS 1771  28.272   8.491   7.501
 1785AUSL   AUS 1772  28.202   8.346   7.084
 1786AUL    AUL 1773  28.486   8.572   7.197
 1787THSLK    S 1774  28.382   8.463   6.920
 1788ETHY    C1 1775  28.723   8.596   6.638
 1789ETHY    C1 1776  29.099   8.850   6.314
 1790THSLK    S 1777  28.545   8.562   7.501
 1791ETHY    C1 1778  28.969   8.746   7.497
 1792ETHY    C1 1779  29.433   9.055   7.498
 1793AUSL   AUS 1780  28.366   8.245   7.349
 1794AUSL   AUS 1781  28.366   7.918   7.652
 1795AUL    AUL 1782  28.673   8.082   7.501
 1796THSLK    S 1783  28.633   8.300   7.341
 1797ETHY    C1 1784  29.085   8.356   7.262
 1798ETHY    C1 1785  29.610   8.521   7.172
 1799THSLK    S 1786  28.612   7.786   7.659
 1800ETHY    C1 1787  29.029   7.601   7.728
 1801ETHY    C1 1788  29.565   7.473   7.820
 1802AUSL   AUS 1789  28.366   8.245   7.652
 1803AUSL   AUS 1790  28.108   8.592   7.765
 1804AUL    AUL 1791  28.486   8.572   7.804
 1805THSLK    S 1792  28.294   8.727   7.925
 1806ETHY    C1 1793  28.610   8.995   8.128
 1807ETHY    C1 1794  28.925   9.392   8.362
 1808THSLK    S 1795  28.633   8.300   7.661
 1809ETHY    C1 1796  29.085   8.356   7.733
 1810ETHY    C1 1797  29.611   8.521   7.824
 1811AUSL   AUS 1798  27.112   8.491   7.501
 1812AUSL   AUS 1799  27.182   8.346   7.917
 1813AUL    AUL 1800  26.898   8.572   7.804
 1814THSLK    S 1801  27.035   8.481   8.107
 1815ETHY    C1 1802  26.751   8.650   8.430
 1816ETHY    C1 1803  26.359   8.895   8.743
 1817THSLK    S 1804  26.881   8.629   7.501
 1818ETHY    C1 1805  26.527   8.927   7.497
 1819ETHY    C1 1806  26.043   9.204   7.498
 1820AUSL   AUS 1807  27.018   8.245   7.349
 1821AUSL   AUS 1808  27.275   8.592   7.236
 1822AUL    AUL 1809  26.898   8.572   7.197
 1823THSLK    S 1810  26.772   8.355   7.307
 1824ETHY    C1 1811  26.354   8.500   7.173
 1825ETHY    C1 1812  25.819   8.640   7.099
 1826THSLK    S 1813  27.144   8.761   7.056
 1827ETHY    C1 1814  26.920   9.083   6.812
 1828ETHY    C1 1815  26.580   9.465   6.589
 1829AUSL   AUS 1816  27.018   8.245   7.652
 1830AUSL   AUS 1817  27.018   7.918   7.349
 1831AUL    AUL 1818  26.710   8.082   7.501
 1832THSLK    S 1819  26.751   7.840   7.377
 1833ETHY    C1 1820  26.298   7.751   7.359
 1834ETHY    C1 1821  25.773   7.596   7.252
 1835THSLK    S 1822  26.772   8.355   7.694
 1836ETHY    C1 1823  26.355   8.506   7.825
 1837ETHY    C1 1824  25.820   8.644   7.900
 1838AUSL   AUS 1825  28.272   7.673   7.501
 1839AUSL   AUS 1826  28.202   7.817   7.917
 1840AUL    AUL 1827  28.486   7.591   7.804
 1841THSLK    S 1828  28.503   7.534   7.501
 1842ETHY    C1 1829  28.857   7.236   7.497
 1843ETHY    C1 1830  29.341   6.959   7.498
 1844THSLK    S 1831  28.348   7.630   8.070
 1845ETHY    C1 1832  28.636   7.375   8.326
 1846ETHY    C1 1833  29.028   7.155   8.657
 1847AUSL   AUS 1834  28.366   7.918   7.349
 1848AUSL   AUS 1835  28.108   7.571   7.236
 1849AUL    AUL 1836  28.486   7.591   7.197
 1850THSLK    S 1837  28.612   7.786   7.343
 1851ETHY    C1 1838  29.028   7.601   7.266
 1852ETHY    C1 1839  29.564   7.473   7.176
 1853THSLK    S 1840  28.240   7.380   7.092
 1854ETHY    C1 1841  28.461   7.019   6.907
 1855ETHY    C1 1842  28.802   6.649   6.667
 1856AUSL   AUS 1843  27.112   7.673   7.501
 1857AUSL   AUS 1844  27.182   7.817   7.084
 1858AUL    AUL 1845  26.898   7.591   7.197
 1859THSLK    S 1846  27.002   7.649   6.958
 1860ETHY    C1 1847  26.656   7.429   6.743
 1861ETHY    C1 1848  26.281   7.199   6.400
 1862THSLK    S 1849  26.839   7.601   7.501
 1863ETHY    C1 1850  26.415   7.418   7.497
 1864ETHY    C1 1851  25.951   7.108   7.498
 1865AUSL   AUS 1852  27.018   7.918   7.652
 1866AUSL   AUS 1853  27.275   7.571   7.765
 1867AUL    AUL 1854  26.898   7.591   7.804
 1868THSLK    S 1855  27.089   7.414   7.889
 1869ETHY    C1 1856  26.776   7.108   8.033
 1870ETHY    C1 1857  26.461   6.721   8.284
 1871THSLK    S 1858  26.751   7.841   7.625
 1872ETHY    C1 1859  26.299   7.745   7.639
 1873ETHY    C1 1860  25.774   7.592   7.746
 1874AUSL   AUS 1861  27.692   8.662   7.910
 1875AUSL   AUS 1862  27.275   8.592   7.765
 1876AUL    AUL 1863  27.388   8.876   7.991
 1877THSLK    S 1864  27.144   8.760   7.945
 1878ETHY    C1 1865  26.923   9.088   8.185
 1879ETHY    C1 1866  26.582   9.468   8.409
 1880THSLK    S 1867  27.726   8.903   8.033
 1881ETHY    C1 1868  27.784   9.275   8.301
 1882ETHY    C1 1869  27.768   9.754   8.586
 1883AUSL   AUS 1870  27.540   8.755   7.664
 1884AUSL   AUS 1871  27.843   8.755   7.337
 1885AUL    AUL 1872  27.692   9.063   7.501
 1886THSLK    S 1873  27.571   9.015   7.770
 1887ETHY    C1 1874  27.561   9.456   7.907
 1888ETHY    C1 1875  27.452   9.985   8.048
 1889THSLK    S 1876  27.888   9.004   7.235
 1890ETHY    C1 1877  28.026   9.422   7.097
 1891ETHY    C1 1878  28.098   9.957   6.955
 1892AUSL   AUS 1879  27.843   8.755   7.664
 1893AUSL   AUS 1880  27.957   8.498   8.011
 1894AUL    AUL 1881  27.995   8.876   7.991
 1895THSLK    S 1882  28.131   8.626   8.185
 1896ETHY    C1 1883  28.367   8.845   8.517
 1897ETHY    C1 1884  28.593   9.187   8.895
 1898THSLK    S 1885  27.888   9.003   7.767
 1899ETHY    C1 1886  28.027   9.424   7.898
 1900ETHY    C1 1887  28.100   9.958   8.041
 1901AUSL   AUS 1888  27.692   7.502   7.910
 1902AUSL   AUS 1889  28.108   7.571   7.765
 1903AUL    AUL 1890  27.995   7.287   7.991
 1904THSLK    S 1891  27.658   7.238   7.997
 1905ETHY    C1 1892  27.603   6.829   8.205
 1906ETHY    C1 1893  27.618   6.361   8.507
 1907THSLK    S 1894  28.240   7.380   7.910
 1908ETHY    C1 1895  28.463   7.018   8.089
 1909ETHY    C1 1896  28.804   6.648   8.330
 1910AUSL   AUS 1897  27.540   7.408   7.664
 1911AUSL   AUS 1898  27.427   7.665   8.011
 1912AUL    AUL 1899  27.388   7.287   7.991
 1913THSLK    S 1900  27.495   7.155   7.746
 1914ETHY    C1 1901  27.358   6.724   7.843
 1915ETHY    C1 1902  27.285   6.192   7.996
 1916THSLK    S 1903  27.252   7.491   8.146
 1917ETHY    C1 1904  27.021   7.193   8.413
 1918ETHY    C1 1905  26.794   6.873   8.810
 1919AUSL   AUS 1906  27.843   7.408   7.664
 1920AUSL   AUS 1907  27.540   7.408   7.337
 1921AUL    AUL 1908  27.692   7.100   7.501
 1922THSLK    S 1909  27.495   7.155   7.255
 1923ETHY    C1 1910  27.356   6.726   7.152
 1924ETHY    C1 1911  27.284   6.194   7.001
 1925THSLK    S 1912  27.812   7.143   7.750
 1926ETHY    C1 1913  27.825   6.692   7.852
 1927ETHY    C1 1914  27.933   6.166   8.003
 1928AUSL   AUS 1915  27.692   8.662   7.092
 1929AUSL   AUS 1916  28.108   8.592   7.236
 1930AUL    AUL 1917  27.995   8.876   7.010
 1931THSLK    S 1918  27.726   8.903   6.969
 1932ETHY    C1 1919  27.781   9.272   6.696
 1933ETHY    C1 1920  27.765   9.751   6.412
 1934THSLK    S 1921  28.295   8.727   7.077
 1935ETHY    C1 1922  28.608   8.994   6.868
 1936ETHY    C1 1923  28.923   9.391   6.634
 1937AUSL   AUS 1924  27.540   8.755   7.337
 1938AUSL   AUS 1925  27.427   8.498   6.990
 1939AUL    AUL 1926  27.388   8.876   7.010
 1940THSLK    S 1927  27.571   9.016   7.232
 1941ETHY    C1 1928  27.559   9.454   7.088
 1942ETHY    C1 1929  27.451   9.983   6.948
 1943THSLK    S 1930  27.300   8.641   6.799
 1944ETHY    C1 1931  27.142   8.881   6.437
 1945ETHY    C1 1932  26.894   9.216   6.067
 1946AUSL   AUS 1933  27.692   7.502   7.092
 1947AUSL   AUS 1934  27.275   7.571   7.236
 1948AUL    AUL 1935  27.388   7.287   7.010
 1949THSLK    S 1936  27.089   7.414   7.113
 1950ETHY    C1 1937  26.773   7.112   6.964
 1951ETHY    C1 1938  26.459   6.725   6.714
 1952THSLK    S 1939  27.658   7.238   7.004
 1953ETHY    C1 1940  27.599   6.833   6.791
 1954ETHY    C1 1941  27.616   6.363   6.490
 1955AUSL   AUS 1942  27.843   7.408   7.337
 1956AUSL   AUS 1943  27.957   7.665   6.990
 1957AUL    AUL 1944  27.995   7.287   7.010
 1958THSLK    S 1945  27.813   7.142   7.252
 1959ETHY    C1 1946  27.823   6.694   7.143
 1960ETHY    C1 1947  27.931   6.167   6.993
 1961THSLK    S 1948  28.085   7.476   6.839
 1962ETHY    C1 1949  28.237   7.158   6.541
 1963ETHY    C1 1950  28.486   6.844   6.152
 1964AUC    AUC 1951  22.430  39.314   7.501
 1965AUC    AUC 1952  22.675  39.314   7.349
 1966AUC    AUC 1953  22.675  39.314   7.652
 1967AUC    AUC 1954  22.184  39.314   7.349
 1968AUC    AUC 1955  22.184  39.314   7.652
 1969AUC    AUC 1956  22.278  39.559   7.501
 1970AUC    AUC 1957  22.581  39.559   7.501
 1971AUC    AUC 1958  22.278  39.068   7.501
 1972AUC    AUC 1959  22.581  39.068   7.501
 1973AUC    AUC 1960  22.430  39.162   7.746
 1974AUC    AUC 1961  22.430  39.465   7.746
 1975AUC    AUC 1962  22.430  39.162   7.255
 1976AUC    AUC 1963  22.430  39.465   7.255
 1977AUC    AUC 1964  22.921  39.314   7.197
 1978AUC    AUC 1965  22.921  39.314   7.501
 1979AUC    AUC 1966  22.921  39.314   7.804
 1980AUC    AUC 1967  21.939  39.314   7.197
 1981AUC    AUC 1968  21.939  39.314   7.501
 1982AUC    AUC 1969  21.939  39.314   7.804
 1983AUC    AUC 1970  22.126  39.804   7.501
 1984AUC    AUC 1971  22.430  39.804   7.501
 1985AUC    AUC 1972  22.733  39.804   7.501
 1986AUC    AUC 1973  22.126  38.823   7.501
 1987AUC    AUC 1974  22.430  38.823   7.501
 1988AUC    AUC 1975  22.733  38.823   7.501
 1989AUC    AUC 1976  22.430  39.010   7.991
 1990AUC    AUC 1977  22.430  39.314   7.991
 1991AUC    AUC 1978  22.430  39.617   7.991
 1992AUC    AUC 1979  22.430  39.010   7.010
 1993AUC    AUC 1980  22.430  39.314   7.010
 1994AUC    AUC 1981  22.430  39.617   7.010
 1995AUC    AUC 1982  22.675  39.162   7.898
 1996AUC    AUC 1983  22.675  39.465   7.898
 1997AUC    AUC 1984  22.675  39.162   7.103
 1998AUC    AUC 1985  22.675  39.465   7.103
 1999AUC    AUC 1986  22.184  39.162   7.898
 2000AUC    AUC 1987  22.184  39.465   7.898
 2001AUC    AUC 1988  22.184  39.162   7.103
 2002AUC    AUC 1989  22.184  39.465   7.103
 2003AUC    AUC 1990  22.827  39.559   7.349
 2004AUC    AUC 1991  22.827  39.559   7.652
 2005AUC    AUC 1992  22.033  39.559   7.349
 2006AUC    AUC 1993  22.033  39.559   7.652
 2007AUC    AUC 1994  22.827  39.068   7.349
 2008AUC    AUC 1995  22.827  39.068   7.652
 2009AUC    AUC 1996  22.033  39.068   7.349
 2010AUC    AUC 1997  22.033  39.068   7.652
 2011AUC    AUC 1998  22.278  39.711   7.746
 2012AUC    AUC 1999  22.581  39.711   7.746
 2013AUC    AUC 2000  22.278  38.917   7.746
 2014AUC    AUC 2001  22.581  38.917   7.746
 2015AUC    AUC 2002  22.278  39.711   7.255
 2016AUC    AUC 2003  22.581  39.711   7.255
 2017AUC    AUC 2004  22.278  38.917   7.255
 2018AUC    AUC 2005  22.581  38.917   7.255
 2019AUSL   AUS 2006  22.839  39.314   8.081
 2020AUSL   AUS 2007  22.695  38.897   8.011
 2021AUL    AUL 2008  22.921  39.010   8.295
 2022THSLK    S 2009  22.822  38.709   8.163
 2023ETHY    C1 2010  22.980  38.388   8.456
 2024ETHY    C1 2011  23.228  38.075   8.845
 2025THSLK    S 2012  22.944  39.274   8.333
 2026ETHY    C1 2013  23.187  39.207   8.720
 2027ETHY    C1 2014  23.480  39.226   9.194
 2028AUSL   AUS 2015  22.593  39.162   8.174
 2029AUSL   AUS 2016  22.266  39.465   8.174
 2030AUL    AUL 2017  22.430  39.314   8.482
 2031THSLK    S 2018  22.680  39.116   8.426
 2032ETHY    C1 2019  22.793  38.975   8.852
 2033ETHY    C1 2020  22.942  38.904   9.385
 2034THSLK    S 2021  22.178  39.434   8.439
 2035ETHY    C1 2022  22.073  39.445   8.889
 2036ETHY    C1 2023  21.923  39.553   9.415
 2037AUSL   AUS 2024  22.593  39.465   8.174
 2038AUSL   AUS 2025  22.940  39.578   7.917
 2039AUL    AUL 2026  22.921  39.617   8.295
 2040THSLK    S 2027  22.681  39.511   8.426
 2041ETHY    C1 2028  22.787  39.651   8.854
 2042ETHY    C1 2029  22.937  39.723   9.386
 2043THSLK    S 2030  23.120  39.694   8.082
 2044ETHY    C1 2031  23.465  39.829   8.358
 2045ETHY    C1 2032  23.840  40.083   8.683
 2046AUSL   AUS 2033  22.839  39.314   6.921
 2047AUSL   AUS 2034  22.695  39.730   6.990
 2048AUL    AUL 2035  22.921  39.617   6.706
 2049THSLK    S 2036  22.945  39.274   6.668
 2050ETHY    C1 2037  23.182  39.207   6.278
 2051ETHY    C1 2038  23.475  39.226   5.804
 2052THSLK    S 2039  22.870  39.858   6.816
 2053ETHY    C1 2040  23.101  40.076   6.480
 2054ETHY    C1 2041  23.327  40.418   6.102
 2055AUSL   AUS 2042  22.593  39.162   6.827
 2056AUSL   AUS 2043  22.940  39.049   7.084
 2057AUL    AUL 2044  22.921  39.010   6.706
 2058THSLK    S 2045  23.086  38.862   6.932
 2059ETHY    C1 2046  23.370  38.608   6.670
 2060ETHY    C1 2047  23.762  38.388   6.340
 2061THSLK    S 2048  22.681  39.116   6.575
 2062ETHY    C1 2049  22.787  38.976   6.147
 2063ETHY    C1 2050  22.937  38.904   5.615
 2064AUSL   AUS 2051  22.593  39.465   6.827
 2065AUSL   AUS 2052  22.266  39.162   6.827
 2066AUL    AUL 2053  22.430  39.314   6.519
 2067THSLK    S 2054  22.166  39.116   6.579
 2068ETHY    C1 2055  22.032  38.978   6.158
 2069ETHY    C1 2056  21.889  38.906   5.624
 2070THSLK    S 2057  22.694  39.433   6.566
 2071ETHY    C1 2058  22.821  39.442   6.121
 2072ETHY    C1 2059  22.965  39.551   5.594
 2073AUSL   AUS 2060  22.021  39.314   8.081
 2074AUSL   AUS 2061  22.165  39.730   8.011
 2075AUL    AUL 2062  21.939  39.617   8.295
 2076THSLK    S 2063  21.915  39.274   8.333
 2077ETHY    C1 2064  21.678  39.207   8.723
 2078ETHY    C1 2065  21.384  39.226   9.197
 2079THSLK    S 2066  22.037  39.872   8.202
 2080ETHY    C1 2067  21.884  40.117   8.563
 2081ETHY    C1 2068  21.636  40.452   8.933
 2082AUSL   AUS 2069  22.266  39.162   8.174
 2083AUSL   AUS 2070  21.920  39.049   7.917
 2084AUL    AUL 2071  21.939  39.010   8.295
 2085THSLK    S 2072  21.739  38.881   8.043
 2086ETHY    C1 2073  21.398  38.655   8.259
 2087ETHY    C1 2074  21.022  38.427   8.602
 2088THSLK    S 2075  22.166  39.116   8.422
 2089ETHY    C1 2076  22.038  38.977   8.844
 2090ETHY    C1 2077  21.894  38.905   9.378
 2091AUSL   AUS 2078  22.021  39.314   6.921
 2092AUSL   AUS 2079  22.165  38.897   6.990
 2093AUL    AUL 2080  21.939  39.010   6.706
 2094THSLK    S 2081  21.916  39.274   6.668
 2095ETHY    C1 2082  21.672  39.207   6.281
 2096ETHY    C1 2083  21.380  39.226   5.807
 2097THSLK    S 2084  21.991  38.723   6.855
 2098ETHY    C1 2085  21.754  38.430   6.587
 2099ETHY    C1 2086  21.529  38.109   6.190
 2100AUSL   AUS 2087  22.266  39.465   6.827
 2101AUSL   AUS 2088  21.920  39.578   7.084
 2102AUL    AUL 2089  21.939  39.617   6.706
 2103THSLK    S 2090  21.774  39.713   6.894
 2104ETHY    C1 2091  21.485  39.877   6.572
 2105ETHY    C1 2092  21.094  40.122   6.259
 2106THSLK    S 2093  22.179  39.434   6.562
 2107ETHY    C1 2094  22.066  39.444   6.114
 2108ETHY    C1 2095  21.918  39.552   5.587
 2109AUSL   AUS 2096  23.010  39.723   7.501
 2110AUSL   AUS 2097  22.940  39.578   7.084
 2111AUL    AUL 2098  23.224  39.804   7.197
 2112THSLK    S 2099  23.120  39.695   6.920
 2113ETHY    C1 2100  23.461  39.828   6.638
 2114ETHY    C1 2101  23.837  40.082   6.314
 2115THSLK    S 2102  23.283  39.794   7.501
 2116ETHY    C1 2103  23.707  39.978   7.497
 2117ETHY    C1 2104  24.171  40.287   7.498
 2118AUSL   AUS 2105  23.104  39.477   7.349
 2119AUSL   AUS 2106  23.104  39.150   7.652
 2120AUL    AUL 2107  23.411  39.314   7.501
 2121THSLK    S 2108  23.371  39.532   7.341
 2122ETHY    C1 2109  23.823  39.588   7.262
 2123ETHY    C1 2110  24.348  39.753   7.172
 2124THSLK    S 2111  23.350  39.018   7.659
 2125ETHY    C1 2112  23.767  38.833   7.728
 2126ETHY    C1 2113  24.303  38.705   7.820
 2127AUSL   AUS 2114  23.104  39.477   7.652
 2128AUSL   AUS 2115  22.846  39.824   7.765
 2129AUL    AUL 2116  23.224  39.804   7.804
 2130THSLK    S 2117  23.032  39.959   7.925
 2131ETHY    C1 2118  23.348  40.227   8.128
 2132ETHY    C1 2119  23.663  40.624   8.362
 2133THSLK    S 2120  23.371  39.532   7.661
 2134ETHY    C1 2121  23.823  39.588   7.733
 2135ETHY    C1 2122  24.349  39.753   7.824
 2136AUSL   AUS 2123  21.850  39.723   7.501
 2137AUSL   AUS 2124  21.920  39.578   7.917
 2138AUL    AUL 2125  21.636  39.804   7.804
 2139THSLK    S 2126  21.773  39.713   8.107
 2140ETHY    C1 2127  21.489  39.882   8.430
 2141ETHY    C1 2128  21.097  40.127   8.743
 2142THSLK    S 2129  21.619  39.861   7.501
 2143ETHY    C1 2130  21.265  40.159   7.497
 2144ETHY    C1 2131  20.781  40.436   7.498
 2145AUSL   AUS 2132  21.756  39.477   7.349
 2146AUSL   AUS 2133  22.013  39.824   7.236
 2147AUL    AUL 2134  21.636  39.804   7.197
 2148THSLK    S 2135  21.510  39.587   7.307
 2149ETHY    C1 2136  21.092  39.732   7.173
 2150ETHY    C1 2137  20.557  39.872   7.099
 2151THSLK    S 2138  21.882  39.993   7.056
 2152ETHY    C1 2139  21.658  40.315   6.812
 2153ETHY    C1 2140  21.318  40.697   6.589
 2154AUSL   AUS 2141  21.756  39.477   7.652
 2155AUSL   AUS 2142  21.756  39.150   7.349
 2156AUL    AUL 2143  21.448  39.314   7.501
 2157THSLK    S 2144  21.489  39.072   7.377
 2158ETHY    C1 2145  21.036  38.983   7.359
 2159ETHY    C1 2146  20.511  38.828   7.252
 2160THSLK    S 2147  21.510  39.587   7.694
 2161ETHY    C1 2148  21.093  39.738   7.825
 2162ETHY    C1 2149  20.558  39.876   7.900
 2163AUSL   AUS 2150  23.010  38.905   7.501
 2164AUSL   AUS 2151  22.940  39.049   7.917
 2165AUL    AUL 2152  23.224  38.823   7.804
 2166THSLK    S 2153  23.241  38.766   7.501
 2167ETHY    C1 2154  23.595  38.468   7.497
 2168ETHY    C1 2155  24.079  38.191   7.498
 2169THSLK    S 2156  23.086  38.862   8.070
 2170ETHY    C1 2157  23.374  38.607   8.326
 2171ETHY    C1 2158  23.766  38.387   8.657
 2172AUSL   AUS 2159  23.104  39.150   7.349
 2173AUSL   AUS 2160  22.846  38.803   7.236
 2174AUL    AUL 2161  23.224  38.823   7.197
 2175THSLK    S 2162  23.350  39.018   7.343
 2176ETHY    C1 2163  23.766  38.833   7.266
 2177ETHY    C1 2164  24.302  38.705   7.176
 2178THSLK    S 2165  22.978  38.612   7.092
 2179ETHY    C1 2166  23.199  38.251   6.907
 2180ETHY    C1 2167  23.540  37.881   6.667
 2181AUSL   AUS 2168  21.850  38.905   7.501
 2182AUSL   AUS 2169  21.920  39.049   7.084
 2183AUL    AUL 2170  21.636  38.823   7.197
 2184THSLK    S 2171  21.740  38.881   6.958
 2185ETHY    C1 2172  21.394  38.661   6.743
 2186ETHY    C1 2173  21.019  38.431   6.400
 2187THSLK    S 2174  21.577  38.833   7.501
 2188ETHY    C1 2175  21.153  38.650   7.497
 2189ETHY    C1 2176  20.689  38.340   7.498
 2190AUSL   AUS 2177  21.756  39.150   7.652
 2191AUSL   AUS 2178  22.013  38.803   7.765
 2192AUL    AUL 2179  21.636  38.823   7.804
 2193THSLK    S 2180  21.827  38.646   7.889
 2194ETHY    C1 2181  21.514  38.340   8.033
 2195ETHY    C1 2182  21.199  37.953   8.284
 2196THSLK    S 2183  21.489  39.073   7.625
 2197ETHY    C1 2184  21.037  38.977   7.639
 2198ETHY    C1 2185  20.512  38.824   7.746
 2199AUSL   AUS 2186  22.430  39.894   7.910
 2200AUSL   AUS 2187  22.013  39.824   7.765
 2201AUL    AUL 2188  22.126  40.108   7.991
 2202THSLK    S 2189  21.882  39.992   7.945
 2203ETHY    C1 2190  21.661  40.320   8.185
 2204ETHY    C1 2191  21.320  40.700   8.409
 2205THSLK    S 2192  22.464  40.135   8.033
 2206ETHY    C1 2193  22.522  40.507   8.301
 2207ETHY    C1 2194  22.506  40.986   8.586
 2208AUSL   AUS 2195  22.278  39.987   7.664
 2209AUSL   AUS 2196  22.581  39.987   7.337
 2210AUL    AUL 2197  22.430  40.295   7.501
 2211THSLK    S 2198  22.309  40.247   7.770
 2212ETHY    C1 2199  22.299  40.688   7.907
 2213ETHY    C1 2200  22.190  41.217   8.048
 2214THSLK    S 2201  22.626  40.236   7.235
 2215ETHY    C1 2202  22.764  40.654   7.097
 2216ETHY    C1 2203  22.836  41.189   6.955
 2217AUSL   AUS 2204  22.581  39.987   7.664
 2218AUSL   AUS 2205  22.695  39.730   8.011
 2219AUL    AUL 2206  22.733  40.108   7.991
 2220THSLK    S 2207  22.869  39.858   8.185
 2221ETHY    C1 2208  23.105  40.077   8.517
 2222ETHY    C1 2209  23.331  40.419   8.895
 2223THSLK    S 2210  22.626  40.235   7.767
 2224ETHY    C1 2211  22.765  40.656   7.898
 2225ETHY    C1 2212  22.838  41.190   8.041
 2226AUSL   AUS 2213  22.430  38.734   7.910
 2227AUSL   AUS 2214  22.846  38.803   7.765
 2228AUL    AUL 2215  22.733  38.519   7.991
 2229THSLK    S 2216  22.396  38.470   7.997
 2230ETHY    C1 2217  22.341  38.061   8.205
 2231ETHY    C1 2218  22.356  37.593   8.507
 2232THSLK    S 2219  22.978  38.612   7.910
 2233ETHY    C1 2220  23.201  38.250   8.089
 2234ETHY    C1 2221  23.542  37.880   8.330
 2235AUSL   AUS 2222  22.278  38.640   7.664
 2236AUSL   AUS 2223  22.165  38.897   8.011
 2237AUL    AUL 2224  22.126  38.519   7.991
 2238THSLK    S 2225  22.233  38.387   7.746
 2239ETHY    C1 2226  22.096  37.956   7.843
 2240ETHY    C1 2227  22.023  37.424   7.996
 2241THSLK    S 2228  21.990  38.723   8.146
 2242ETHY    C1 2229  21.759  38.425   8.413
 2243ETHY    C1 2230  21.532  38.105   8.810
 2244AUSL   AUS 2231  22.581  38.640   7.664
 2245AUSL   AUS 2232  22.278  38.640   7.337
 2246AUL    AUL 2233  22.430  38.332   7.501
 2247THSLK    S 2234  22.233  38.387   7.255
 2248ETHY    C1 2235  22.094  37.958   7.152
 2249ETHY    C1 2236  22.022  37.426   7.001
 2250THSLK    S 2237  22.550  38.375   7.750
 2251ETHY    C1 2238  22.563  37.924   7.852
 2252ETHY    C1 2239  22.671  37.398   8.003
 2253AUSL   AUS 2240  22.430  39.894   7.092
 2254AUSL   AUS 2241  22.846  39.824   7.236
 2255AUL    AUL 2242  22.733  40.108   7.010
 2256THSLK    S 2243  22.464  40.135   6.969
 2257ETHY    C1 2244  22.519  40.504   6.696
 2258ETHY    C1 2245  22.503  40.983   6.412
 2259THSLK    S 2246  23.033  39.959   7.077
 2260ETHY    C1 2247  23.346  40.226   6.868
 2261ETHY    C1 2248  23.661  40.623   6.634
 2262AUSL   AUS 2249  22.278  39.987   7.337
 2263AUSL   AUS 2250  22.165  39.730   6.990
 2264AUL    AUL 2251  22.126  40.108   7.010
 2265THSLK    S 2252  22.309  40.248   7.232
 2266ETHY    C1 2253  22.297  40.686   7.088
 2267ETHY    C1 2254  22.189  41.215   6.948
 2268THSLK    S 2255  22.038  39.873   6.799
 2269ETHY    C1 2256  21.880  40.113   6.437
 2270ETHY    C1 2257  21.632  40.448   6.067
 2271AUSL   AUS 2258  22.430  38.734   7.092
 2272AUSL   AUS 2259  22.013  38.803   7.236
 2273AUL    AUL 2260  22.126  38.519   7.010
 2274THSLK    S 2261  21.827  38.646   7.113
 2275ETHY    C1 2262  21.511  38.344   6.964
 2276ETHY    C1 2263  21.197  37.957   6.714
 2277THSLK    S 2264  22.396  38.470   7.004
 2278ETHY    C1 2265  22.337  38.065   6.791
 2279ETHY    C1 2266  22.354  37.595   6.490
 2280AUSL   AUS 2267  22.581  38.640   7.337
 2281AUSL   AUS 2268  22.695  38.897   6.990
 2282AUL    AUL 2269  22.733  38.519   7.010
 2283THSLK    S 2270  22.551  38.374   7.252
 2284ETHY    C1 2271  22.561  37.926   7.143
 2285ETHY    C1 2272  22.669  37.399   6.993
 2286THSLK    S 2273  22.823  38.708   6.839
 2287ETHY    C1 2274  22.975  38.390   6.541
 2288ETHY    C1 2275  23.224  38.076   6.152
 2289AUC    AUC 2276  20.280  24.698   7.501
 2290AUC    AUC 2277  20.525  24.698   7.349
 2291AUC    AUC 2278  20.525  24.698   7.652
 2292AUC    AUC 2279  20.034  24.698   7.349
 2293AUC    AUC 2280  20.034  24.698   7.652
 2294AUC    AUC 2281  20.128  24.943   7.501
 2295AUC    AUC 2282  20.431  24.943   7.501
 2296AUC    AUC 2283  20.128  24.452   7.501
 2297AUC    AUC 2284  20.431  24.452   7.501
 2298AUC    AUC 2285  20.280  24.546   7.746
 2299AUC    AUC 2286  20.280  24.849   7.746
 2300AUC    AUC 2287  20.280  24.546   7.255
 2301AUC    AUC 2288  20.280  24.849   7.255
 2302AUC    AUC 2289  20.771  24.698   7.197
 2303AUC    AUC 2290  20.771  24.698   7.501
 2304AUC    AUC 2291  20.771  24.698   7.804
 2305AUC    AUC 2292  19.789  24.698   7.197
 2306AUC    AUC 2293  19.789  24.698   7.501
 2307AUC    AUC 2294  19.789  24.698   7.804
 2308AUC    AUC 2295  19.976  25.188   7.501
 2309AUC    AUC 2296  20.280  25.188   7.501
 2310AUC    AUC 2297  20.583  25.188   7.501
 2311AUC    AUC 2298  19.976  24.207   7.501
 2312AUC    AUC 2299  20.280  24.207   7.501
 2313AUC    AUC 2300  20.583  24.207   7.501
 2314AUC    AUC 2301  20.280  24.394   7.991
 2315AUC    AUC 2302  20.280  24.698   7.991
 2316AUC    AUC 2303  20.280  25.001   7.991
 2317AUC    AUC 2304  20.280  24.394   7.010
 2318AUC    AUC 2305  20.280  24.698   7.010
 2319AUC    AUC 2306  20.280  25.001   7.010
 2320AUC    AUC 2307  20.525  24.546   7.898
 2321AUC    AUC 2308  20.525  24.849   7.898
 2322AUC    AUC 2309  20.525  24.546   7.103
 2323AUC    AUC 2310  20.525  24.849   7.103
 2324AUC    AUC 2311  20.034  24.546   7.898
 2325AUC    AUC 2312  20.034  24.849   7.898
 2326AUC    AUC 2313  20.034  24.546   7.103
 2327AUC    AUC 2314  20.034  24.849   7.103
 2328AUC    AUC 2315  20.677  24.943   7.349
 2329AUC    AUC 2316  20.677  24.943   7.652
 2330AUC    AUC 2317  19.883  24.943   7.349
 2331AUC    AUC 2318  19.883  24.943   7.652
 2332AUC    AUC 2319  20.677  24.452   7.349
 2333AUC    AUC 2320  20.677  24.452   7.652
 2334AUC    AUC 2321  19.883  24.452   7.349
 2335AUC    AUC 2322  19.883  24.452   7.652
 2336AUC    AUC 2323  20.128  25.095   7.746
 2337AUC    AUC 2324  20.431  25.095   7.746
 2338AUC    AUC 2325  20.128  24.301   7.746
 2339AUC    AUC 2326  20.431  24.301   7.746
 2340AUC    AUC 2327  20.128  25.095   7.255
 2341AUC    AUC 2328  20.431  25.095   7.255
 2342AUC    AUC 2329  20.128  24.301   7.255
 2343AUC    AUC 2330  20.431  24.301   7.255
 2344AUSL   AUS 2331  20.689  24.698   8.081
 2345AUSL   AUS 2332  20.545  24.281   8.011
 2346AUL    AUL 2333  20.771  24.394   8.295
 2347THSLK    S 2334  20.672  24.093   8.163
 2348ETHY    C1 2335  20.830  23.772   8.456
 2349ETHY    C1 2336  21.078  23.459   8.845
 2350THSLK    S 2337  20.794  24.658   8.333
 2351ETHY    C1 2338  21.037  24.591   8.720
 2352ETHY    C1 2339  21.330  24.610   9.194
 2353AUSL   AUS 2340  20.443  24.546   8.174
 2354AUSL   AUS 2341  20.116  24.849   8.174
 2355AUL    AUL 2342  20.280  24.698   8.482
 2356THSLK    S 2343  20.530  24.500   8.426
 2357ETHY    C1 2344  20.643  24.359   8.852
 2358ETHY    C1 2345  20.792  24.288   9.385
 2359THSLK    S 2346  20.028  24.818   8.439
 2360ETHY    C1 2347  19.923  24.829   8.889
 2361ETHY    C1 2348  19.773  24.937   9.415
 2362AUSL   AUS 2349  20.443  24.849   8.174
 2363AUSL   AUS 2350  20.790  24.962   7.917
 2364AUL    AUL 2351  20.771  25.001   8.295
 2365THSLK    S 2352  20.531  24.895   8.426
 2366ETHY    C1 2353  20.637  25.035   8.854
 2367ETHY    C1 2354  20.787  25.107   9.386
 2368THSLK    S 2355  20.970  25.078   8.082
 2369ETHY    C1 2356  21.315  25.213   8.358
 2370ETHY    C1 2357  21.690  25.467   8.683
 2371AUSL   AUS 2358  20.689  24.698   6.921
 2372AUSL   AUS 2359  20.545  25.114   6.990
 2373AUL    AUL 2360  20.771  25.001   6.706
 2374THSLK    S 2361  20.795  24.658   6.668
 2375ETHY    C1 2362  21.032  24.591   6.278
 2376ETHY    C1 2363  21.325  24.610   5.804
 2377THSLK    S 2364  20.720  25.242   6.816
 2378ETHY    C1 2365  20.951  25.460   6.480
 2379ETHY    C1 2366  21.177  25.802   6.102
 2380AUSL   AUS 2367  20.443  24.546   6.827
 2381AUSL   AUS 2368  20.790  24.433   7.084
 2382AUL    AUL 2369  20.771  24.394   6.706
 2383THSLK    S 2370  20.936  24.246   6.932
 2384ETHY    C1 2371  21.220  23.992   6.670
 2385ETHY    C1 2372  21.612  23.772   6.340
 2386THSLK    S 2373  20.531  24.500   6.575
 2387ETHY    C1 2374  20.637  24.360   6.147
 2388ETHY    C1 2375  20.787  24.288   5.615
 2389AUSL   AUS 2376  20.443  24.849   6.827
 2390AUSL   AUS 2377  20.116  24.546   6.827
 2391AUL    AUL 2378  20.280  24.698   6.519
 2392THSLK    S 2379  20.016  24.500   6.579
 2393ETHY    C1 2380  19.882  24.362   6.158
 2394ETHY    C1 2381  19.739  24.290   5.624
 2395THSLK    S 2382  20.544  24.817   6.566
 2396ETHY    C1 2383  20.671  24.826   6.121
 2397ETHY    C1 2384  20.815  24.935   5.594
 2398AUSL   AUS 2385  19.871  24.698   8.081
 2399AUSL   AUS 2386  20.015  25.114   8.011
 2400AUL    AUL 2387  19.789  25.001   8.295
 2401THSLK    S 2388  19.765  24.658   8.333
 2402ETHY    C1 2389  19.528  24.591   8.723
 2403ETHY    C1 2390  19.234  24.610   9.197
 2404THSLK    S 2391  19.887  25.256   8.202
 2405ETHY    C1 2392  19.734  25.501   8.563
 2406ETHY    C1 2393  19.486  25.836   8.933
 2407AUSL   AUS 2394  20.116  24.546   8.174
 2408AUSL   AUS 2395  19.770  24.433   7.917
 2409AUL    AUL 2396  19.789  24.394   8.295
 2410THSLK    S 2397  19.589  24.265   8.043
 2411ETHY    C1 2398  19.248  24.039   8.259
 2412ETHY    C1 2399  18.872  23.811   8.602
 2413THSLK    S 2400  20.016  24.500   8.422
 2414ETHY    C1 2401  19.888  24.361   8.844
 2415ETHY    C1 2402  19.744  24.289   9.378
 2416AUSL   AUS 2403  19.871  24.698   6.921
 2417AUSL   AUS 2404  20.015  24.281   6.990
 2418AUL    AUL 2405  19.789  24.394   6.706
 2419THSLK    S 2406  19.766  24.658   6.668
 2420ETHY    C1 2407  19.522  24.591   6.281
 2421ETHY    C1 2408  19.230  24.610   5.807
 2422THSLK    S 2409  19.841  24.107   6.855
 2423ETHY    C1 2410  19.604  23.814   6.587
 2424ETHY    C1 2411  19.379  23.493   6.190
 2425AUSL   AUS 2412  20.116  24.849   6.827
 2426AUSL   AUS 2413  19.770  24.962   7.084
 2427AUL    AUL 2414  19.789  25.001   6.706
 2428THSLK    S 2415  19.624  25.097   6.894
 2429ETHY    C1 2416  19.335  25.261   6.572
 2430ETHY    C1 2417  18.944  25.506   6.259
 2431THSLK    S 2418  20.029  24.818   6.562
 2432ETHY    C1 2419  19.916  24.828   6.114
 2433ETHY    C1 2420  19.768  24.936   5.587
 2434AUSL   AUS 2421  20.860  25.107   7.501
 2435AUSL   AUS 2422  20.790  24.962   7.084
 2436AUL    AUL 2423  21.074  25.188   7.197
 2437THSLK    S 2424  20.970  25.079   6.920
 2438ETHY    C1 2425  21.311  25.212   6.638
 2439ETHY    C1 2426  21.687  25.466   6.314
 2440THSLK    S 2427  21.133  25.178   7.501
 2441ETHY    C1 2428  21.557  25.362   7.497
 2442ETHY    C1 2429  22.021  25.671   7.498
 2443AUSL   AUS 2430  20.954  24.861   7.349
 2444AUSL   AUS 2431  20.954  24.534   7.652
 2445AUL    AUL 2432  21.261  24.698   7.501
 2446THSLK    S 2433  21.221  24.916   7.341
 2447ETHY    C1 2434  21.673  24.972   7.262
 2448ETHY    C1 2435  22.198  25.137   7.172
 2449THSLK    S 2436  21.200  24.402   7.659
 2450ETHY    C1 2437  21.617  24.217   7.728
 2451ETHY    C1 2438  22.153  24.089   7.820
 2452AUSL   AUS 2439  20.954  24.861   7.652
 2453AUSL   AUS 2440  20.696  25.208   7.765
 2454AUL    AUL 2441  21.074  25.188   7.804
 2455THSLK    S 2442  20.882  25.343   7.925
 2456ETHY    C1 2443  21.198  25.611   8.128
 2457ETHY    C1 2444  21.513  26.008   8.362
 2458THSLK    S 2445  21.221  24.916   7.661
 2459ETHY    C1 2446  21.673  24.972   7.733
 2460ETHY    C1 2447  22.199  25.137   7.824
 2461AUSL   AUS 2448  19.700  25.107   7.501
 2462AUSL   AUS 2449  19.770  24.962   7.917
 2463AUL    AUL 2450  19.486  25.188   7.804
 2464THSLK    S 2451  19.623  25.097   8.107
 2465ETHY    C1 2452  19.339  25.266   8.430
 2466ETHY    C1 2453  18.947  25.511   8.743
 2467THSLK    S 2454  19.469  25.245   7.501
 2468ETHY    C1 2455  19.115  25.543   7.497
 2469ETHY    C1 2456  18.631  25.820   7.498
 2470AUSL   AUS 2457  19.606  24.861   7.349
 2471AUSL   AUS 2458  19.863  25.208   7.236
 2472AUL    AUL 2459  19.486  25.188   7.197
 2473THSLK    S 2460  19.360  24.971   7.307
 2474ETHY    C1 2461  18.942  25.116   7.173
 2475ETHY    C1 2462  18.407  25.256   7.099
 2476THSLK    S 2463  19.732  25.377   7.056
 2477ETHY    C1 2464  19.508  25.699   6.812
 2478ETHY    C1 2465  19.168  26.081   6.589
 2479AUSL   AUS 2466  19.606  24.861   7.652
 2480AUSL   AUS 2467  19.606  24.534   7.349
 2481AUL    AUL 2468  19.298  24.698   7.501
 2482THSLK    S 2469  19.339  24.456   7.377
 2483ETHY    C1 2470  18.886  24.367   7.359
 2484ETHY    C1 2471  18.361  24.212   7.252
 2485THSLK    S 2472  19.360  24.971   7.694
 2486ETHY    C1 2473  18.943  25.122   7.825
 2487ETHY    C1 2474  18.408  25.260   7.900
 2488AUSL   AUS 2475  20.860  24.289   7.501
 2489AUSL   AUS 2476  20.790  24.433   7.917
 2490AUL    AUL 2477  21.074  24.207   7.804
 2491THSLK    S 2478  21.091  24.150   7.501
 2492ETHY    C1 2479  21.445  23.852   7.497
 2493ETHY    C1 2480  21.929  23.575   7.498
 2494THSLK    S 2481  20.936  24.246   8.070
 2495ETHY    C1 2482  21.224  23.991   8.326
 2496ETHY    C1 2483  21.616  23.771   8.657
 2497AUSL   AUS 2484  20.954  24.534   7.349
 2498AUSL   AUS 2485  20.696  24.187   7.236
 2499AUL    AUL 2486  21.074  24.207   7.197
 2500THSLK    S 2487  21.200  24.402   7.343
 2501ETHY    C1 2488  21.616  24.217   7.266
 2502ETHY    C1 2489  22.152  24.089   7.176
 2503THSLK    S 2490  20.828  23.996   7.092
 2504ETHY    C1 2491  21.049  23.635   6.907
 2505ETHY    C1 2492  21.390  23.265   6.667
 2506AUSL   AUS 2493  19.700  24.289   7.501
 2507AUSL   AUS 2494  19.770  24.433   7.084
 2508AUL    AUL 2495  19.486  24.207   7.197
 2509THSLK    S 2496  19.590  24.265   6.958
 2510ETHY    C1 2497  19.244  24.045   6.743
 2511ETHY    C1 2498  18.869  23.815   6.400
 2512THSLK    S 2499  19.427  24.217   7.501
 2513ETHY    C1 2500  19.003  24.034   7.497
 2514ETHY    C1 2501  18.539  23.724   7.498
 2515AUSL   AUS 2502  19.606  24.534   7.652
 2516AUSL   AUS 2503  19.863  24.187   7.765
 2517AUL    AUL 2504  19.486  24.207   7.804
 2518THSLK    S 2505  19.677  24.030   7.889
 2519ETHY    C1 2506  19.364  23.724   8.033
 2520ETHY    C1 2507  19.049  23.337   8.284
 2521THSLK    S 2508  19.339  24.457   7.625
 2522ETHY    C1 2509  18.887  24.361   7.639
 2523ETHY    C1 2510  18.362  24.208   7.746
 2524AUSL   AUS 2511  20.280  25.278   7.910
 2525AUSL   AUS 2512  19.863  25.208   7.765
 2526AUL    AUL 2513  19.976  25.492   7.991
 2527THSLK    S 2514  19.732  25.376   7.945
 2528ETHY    C1 2515  19.511  25.704   8.185
 2529ETHY    C1 2516  19.170  26.084   8.409
 2530THSLK    S 2517  20.314  25.519   8.033
 2531ETHY    C1 2518  20.372  25.891   8.301
 2532ETHY    C1 2519  20.356  26.370   8.586
 2533AUSL   AUS 2520  20.128  25.371   7.664
 2534AUSL   AUS 2521  20.431  25.371   7.337
 2535AUL    AUL 2522  20.280  25.679   7.501
 2536THSLK    S 2523  20.159  25.631   7.770
 2537ETHY    C1 2524  20.149  26.072   7.907
 2538ETHY    C1 2525  20.040  26.601   8.048
 2539THSLK    S 2526  20.476  25.620   7.235
 2540ETHY    C1 2527  20.614  26.038   7.097
 2541ETHY    C1 2528  20.686  26.573   6.955
 2542AUSL   AUS 2529  20.431  25.371   7.664
 2543AUSL   AUS 2530  20.545  25.114   8.011
 2544AUL    AUL 2531  20.583  25.492   7.991
 2545THSLK    S 2532  20.719  25.242   8.185
 2546ETHY    C1 2533  20.955  25.461   8.517
 2547ETHY    C1 2534  21.181  25.803   8.895
 2548THSLK    S 2535  20.476  25.619   7.767
 2549ETHY    C1 2536  20.615  26.040   7.898
 2550ETHY    C1 2537  20.688  26.574   8.041
 2551AUSL   AUS 2538  20.280  24.118   7.910
 2552AUSL   AUS 2539  20.696  24.187   7.765
 2553AUL    AUL 2540  20.583  23.903   7.991
 2554THSLK    S 2541  20.246  23.854   7.997
 2555ETHY    C1 2542  20.191  23.445   8.205
 2556ETHY    C1 2543  20.206  22.977   8.507
 2557THSLK    S 2544  20.828  23.996   7.910
 2558ETHY    C1 2545  21.051  23.634   8.089
 2559ETHY    C1 2546  21.392  23.264   8.330
 2560AUSL   AUS 2547  20.128  24.024   7.664
 2561AUSL   AUS 2548  20.015  24.281   8.011
 2562AUL    AUL 2549  19.976  23.903   7.991
 2563THSLK    S 2550  20.083  23.771   7.746
 2564ETHY    C1 2551  19.946  23.340   7.843
 2565ETHY    C1 2552  19.873  22.808   7.996
 2566THSLK    S 2553  19.840  24.107   8.146
 2567ETHY    C1 2554  19.609  23.809   8.413
 2568ETHY    C1 2555  19.382  23.489   8.810
 2569AUSL   AUS 2556  20.431  24.024   7.664
 2570AUSL   AUS 2557  20.128  24.024   7.337
 2571AUL    AUL 2558  20.280  23.716   7.501
 2572THSLK    S 2559  20.083  23.771   7.255
 2573ETHY    C1 2560  19.944  23.342   7.152
 2574ETHY    C1 2561  19.872  22.810   7.001
 2575THSLK    S 2562  20.400  23.759   7.750
 2576ETHY    C1 2563  20.413  23.308   7.852
 2577ETHY    C1 2564  20.521  22.782   8.003
 2578AUSL   AUS 2565  20.280  25.278   7.092
 2579AUSL   AUS 2566  20.696  25.208   7.236
 2580AUL    AUL 2567  20.583  25.492   7.010
 2581THSLK    S 2568  20.314  25.519   6.969
 2582ETHY    C1 2569  20.369  25.888   6.696
 2583ETHY    C1 2570  20.353  26.367   6.412
 2584THSLK    S 2571  20.883  25.343   7.077
 2585ETHY    C1 2572  21.196  25.610   6.868
 2586ETHY    C1 2573  21.511  26.007   6.634
 2587AUSL   AUS 2574  20.128  25.371   7.337
 2588AUSL   AUS 2575  20.015  25.114   6.990
 2589AUL    AUL 2576  19.976  25.492   7.010
 2590THSLK    S 2577  20.159  25.632   7.232
 2591ETHY    C1 2578  20.147  26.070   7.088
 2592ETHY    C1 2579  20.039  26.599   6.948
 2593THSLK    S 2580  19.888  25.257   6.799
 2594ETHY    C1 2581  19.730  25.497   6.437
 2595ETHY    C1 2582  19.482  25.832   6.067
 2596AUSL   AUS 2583  20.280  24.118   7.092
 2597AUSL   AUS 2584  19.863  24.187   7.236
 2598AUL    AUL 2585  19.976  23.903   7.010
 2599THSLK    S 2586  19.677  24.030   7.113
 2600ETHY    C1 2587  19.361  23.728   6.964
 2601ETHY    C1 2588  19.047  23.341   6.714
 2602THSLK    S 2589  20.246  23.854   7.004
 2603ETHY    C1 2590  20.187  23.449   6.791
 2604ETHY    C1 2591  20.204  22.979   6.490
 2605AUSL   AUS 2592  20.431  24.024   7.337
 2606AUSL   AUS 2593  20.545  24.281   6.990
 2607AUL    AUL 2594  20.583  23.903   7.010
 2608THSLK    S 2595  20.401  23.758   7.252
 2609ETHY    C1 2596  20.411  23.310   7.143
 2610ETHY    C1 2597  20.519  22.783   6.993
 2611THSLK    S 2598  20.673  24.092   6.839
 2612ETHY    C1 2599  20.825  23.774   6.541
 2613ETHY    C1 2600  21.074  23.460   6.152
 2614AUC    AUC 2601  18.924  13.040   7.501
 2615AUC    AUC 2602  19.169  13.040   7.349
 2616AUC    AUC 2603  19.169  13.040   7.652
 2617AUC    AUC 2604  18.678  13.040   7.349
 2618AUC    AUC 2605  18.678  13.040   7.652
 2619AUC    AUC 2606  18.772  13.285   7.501
 2620AUC    AUC 2607  19.075  13.285   7.501
 2621AUC    AUC 2608  18.772  12.794   7.501
 2622AUC    AUC 2609  19.075  12.794   7.501
 2623AUC    AUC 2610  18.924  12.888   7.746
 2624AUC    AUC 2611  18.924  13.191   7.746
 2625AUC    AUC 2612  18.924  12.888   7.255
 2626AUC    AUC 2613  18.924  13.191   7.255
 2627AUC    AUC 2614  19.415  13.040   7.197
 2628AUC    AUC 2615  19.415  13.040   7.501
 2629AUC    AUC 2616  19.415  13.040   7.804
 2630AUC    AUC 2617  18.433  13.040   7.197
 2631AUC    AUC 2618  18.433  13.040   7.501
 2632AUC    AUC 2619  18.433  13.040   7.804
 2633AUC    AUC 2620  18.620  13.530   7.501
 2634AUC    AUC 2621  18.924  13.530   7.501
 2635AUC    AUC 2622  19.227  13.530   7.501
 2636AUC    AUC 2623  18.620  12.549   7.501
 2637AUC    AUC 2624  18.924  12.549   7.501
 2638AUC    AUC 2625  19.227  12.549   7.501
 2639AUC    AUC 2626  18.924  12.736   7.991
 2640AUC    AUC 2627  18.924  13.040   7.991
 2641AUC    AUC 2628  18.924  13.343   7.991
 2642AUC    AUC 2629  18.924  12.736   7.010
 2643AUC    AUC 2630  18.924  13.040   7.010
 2644AUC    AUC 2631  18.924  13.343   7.010
 2645AUC    AUC 2632  19.169  12.888   7.898
 2646AUC    AUC 2633  19.169  13.191   7.898
 2647AUC    AUC 2634  19.169  12.888   7.103
 2648AUC    AUC 2635  19.169  13.191   7.103
 2649AUC    AUC 2636  18.678  12.888   7.898
 2650AUC    AUC 2637  18.678  13.191   7.898
 2651AUC    AUC 2638  18.678  12.888   7.103
 2652AUC    AUC 2639  18.678  13.191   7.103
 2653AUC    AUC 2640  19.321  13.285   7.349
 2654AUC    AUC 2641  19.321  13.285   7.652
 2655AUC    AUC 2642  18.527  13.285   7.349
 2656AUC    AUC 2643  18.527  13.285   7.652
 2657AUC    AUC 2644  19.321  12.794   7.349
 2658AUC    AUC 2645  19.321  12.794   7.652
 2659AUC    AUC 2646  18.527  12.794   7.349
 2660AUC    AUC 2647  18.527  12.794   7.652
 2661AUC    AUC 2648  18.772  13.437   7.746
 2662AUC    AUC 2649  19.075  13.437   7.746
 2663AUC    AUC 2650  18.772  12.643   7.746
 2664AUC    AUC 2651  19.075  12.643   7.746
 2665AUC    AUC 2652  18.772  13.437   7.255
 2666AUC    AUC 2653  19.075  13.437   7.255
 2667AUC    AUC 2654  18.772  12.643   7.255
 2668AUC    AUC 2655  19.075  12.643   7.255
 2669AUSL   AUS 2656  19.333  13.040   8.081
 2670AUSL   AUS 2657  19.189  12.623   8.011
 2671AUL    AUL 2658  19.415  12.736   8.295
 2672THSLK    S 2659  19.316  12.435   8.163
 2673ETHY    C1 2660  19.474  12.114   8.456
 2674ETHY    C1 2661  19.722  11.801   8.845
 2675THSLK    S 2662  19.438  13.000   8.333
 2676ETHY    C1 2663  19.681  12.933   8.720
 2677ETHY    C1 2664  19.974  12.952   9.194
 2678AUSL   AUS 2665  19.087  12.888   8.174
 2679AUSL   AUS 2666  18.760  13.191   8.174
 2680AUL    AUL 2667  18.924  13.040   8.482
 2681THSLK    S 2668  19.174  12.842   8.426
 2682ETHY    C1 2669  19.287  12.701   8.852
 2683ETHY    C1 2670  19.436  12.630   9.385
 2684THSLK    S 2671  18.672  13.160   8.439
 2685ETHY    C1 2672  18.567  13.171   8.889
 2686ETHY    C1 2673  18.417  13.279   9.415
 2687AUSL   AUS 2674  19.087  13.191   8.174
 2688AUSL   AUS 2675  19.434  13.304   7.917
 2689AUL    AUL 2676  19.415  13.343   8.295
 2690THSLK    S 2677  19.175  13.237   8.426
 2691ETHY    C1 2678  19.281  13.377   8.854
 2692ETHY    C1 2679  19.431  13.449   9.386
 2693THSLK    S 2680  19.614  13.420   8.082
 2694ETHY    C1 2681  19.959  13.555   8.358
 2695ETHY    C1 2682  20.334  13.809   8.683
 2696AUSL   AUS 2683  19.333  13.040   6.921
 2697AUSL   AUS 2684  19.189  13.456   6.990
 2698AUL    AUL 2685  19.415  13.343   6.706
 2699THSLK    S 2686  19.439  13.000   6.668
 2700ETHY    C1 2687  19.676  12.933   6.278
 2701ETHY    C1 2688  19.969  12.952   5.804
 2702THSLK    S 2689  19.364  13.584   6.816
 2703ETHY    C1 2690  19.595  13.802   6.480
 2704ETHY    C1 2691  19.821  14.144   6.102
 2705AUSL   AUS 2692  19.087  12.888   6.827
 2706AUSL   AUS 2693  19.434  12.775   7.084
 2707AUL    AUL 2694  19.415  12.736   6.706
 2708THSLK    S 2695  19.580  12.588   6.932
 2709ETHY    C1 2696  19.864  12.334   6.670
 2710ETHY    C1 2697  20.256  12.114   6.340
 2711THSLK    S 2698  19.175  12.842   6.575
 2712ETHY    C1 2699  19.281  12.702   6.147
 2713ETHY    C1 2700  19.431  12.630   5.615
 2714AUSL   AUS 2701  19.087  13.191   6.827
 2715AUSL   AUS 2702  18.760  12.888   6.827
 2716AUL    AUL 2703  18.924  13.040   6.519
 2717THSLK    S 2704  18.660  12.842   6.579
 2718ETHY    C1 2705  18.526  12.704   6.158
 2719ETHY    C1 2706  18.383  12.632   5.624
 2720THSLK    S 2707  19.188  13.159   6.566
 2721ETHY    C1 2708  19.315  13.168   6.121
 2722ETHY    C1 2709  19.459  13.277   5.594
 2723AUSL   AUS 2710  18.515  13.040   8.081
 2724AUSL   AUS 2711  18.659  13.456   8.011
 2725AUL    AUL 2712  18.433  13.343   8.295
 2726THSLK    S 2713  18.409  13.000   8.333
 2727ETHY    C1 2714  18.172  12.933   8.723
 2728ETHY    C1 2715  17.878  12.952   9.197
 2729THSLK    S 2716  18.531  13.598   8.202
 2730ETHY    C1 2717  18.378  13.843   8.563
 2731ETHY    C1 2718  18.130  14.178   8.933
 2732AUSL   AUS 2719  18.760  12.888   8.174
 2733AUSL   AUS 2720  18.414  12.775   7.917
 2734AUL    AUL 2721  18.433  12.736   8.295
 2735THSLK    S 2722  18.233  12.607   8.043
 2736ETHY    C1 2723  17.892  12.381   8.259
 2737ETHY    C1 2724  17.516  12.153   8.602
 2738THSLK    S 2725  18.660  12.842   8.422
 2739ETHY    C1 2726  18.532  12.703   8.844
 2740ETHY    C1 2727  18.388  12.631   9.378
 2741AUSL   AUS 2728  18.515  13.040   6.921
 2742AUSL   AUS 2729  18.659  12.623   6.990
 2743AUL    AUL 2730  18.433  12.736   6.706
 2744THSLK    S 2731  18.410  13.000   6.668
 2745ETHY    C1 2732  18.166  12.933   6.281
 2746ETHY    C1 2733  17.874  12.952   5.807
 2747THSLK    S 2734  18.485  12.449   6.855
 2748ETHY    C1 2735  18.248  12.156   6.587
 2749ETHY    C1 2736  18.023  11.835   6.190
 2750AUSL   AUS 2737  18.760  13.191   6.827
 2751AUSL   AUS 2738  18.414  13.304   7.084
 2752AUL    AUL 2739  18.433  13.343   6.706
 2753THSLK    S 2740  18.268  13.439   6.894
 2754ETHY    C1 2741  17.979  13.603   6.572
 2755ETHY    C1 2742  17.588  13.848   6.259
 2756THSLK    S 2743  18.673  13.160   6.562
 2757ETHY    C1 2744  18.560  13.170   6.114
 2758ETHY    C1 2745  18.412  13.278   5.587
 2759AUSL   AUS 2746  19.504  13.449   7.501
 2760AUSL   AUS 2747  19.434  13.304   7.084
 2761AUL    AUL 2748  19.718  13.530   7.197
 2762THSLK    S 2749  19.614  13.421   6.920
 2763ETHY    C1 2750  19.955  13.554   6.638
 2764ETHY    C1 2751  20.331  13.808   6.314
 2765THSLK    S 2752  19.777  13.520   7.501
 2766ETHY    C1 2753  20.201  13.704   7.497
 2767ETHY    C1 2754  20.665  14.013   7.498
 2768AUSL   AUS 2755  19.598  13.203   7.349
 2769AUSL   AUS 2756  19.598  12.876   7.652
 2770AUL    AUL 2757  19.905  13.040   7.501
 2771THSLK    S 2758  19.865  13.258   7.341
 2772ETHY    C1 2759  20.317  13.314   7.262
 2773ETHY    C1 2760  20.842  13.479   7.172
 2774THSLK    S 2761  19.844  12.744   7.659
 2775ETHY    C1 2762  20.261  12.559   7.728
 2776ETHY    C1 2763  20.797  12.431   7.820
 2777AUSL   AUS 2764  19.598  13.203   7.652
 2778AUSL   AUS 2765  19.340  13.550   7.765
 2779AUL    AUL 2766  19.718  13.530   7.804
 2780THSLK    S 2767  19.526  13.685   7.925
 2781ETHY    C1 2768  19.842  13.953   8.128
 2782ETHY    C1 2769  20.157  14.350   8.362
 2783THSLK    S 2770  19.865  13.258   7.661
 2784ETHY    C1 2771  20.317  13.314   7.733
 2785ETHY    C1 2772  20.843  13.479   7.824
 2786AUSL   AUS 2773  18.344  13.449   7.501
 2787AUSL   AUS 2774  18.414  13.304   7.917
 2788AUL    AUL 2775  18.130  13.530   7.804
 2789THSLK    S 2776  18.267  13.439   8.107
 2790ETHY    C1 2777  17.983  13.608   8.430
 2791ETHY    C1 2778  17.591  13.853   8.743
 2792THSLK    S 2779  18.113  13.587   7.501
 2793ETHY    C1 2780  17.759  13.885   7.497
 2794ETHY    C1 2781  17.275  14.162   7.498
 2795AUSL   AUS 2782  18.250  13.203   7.349
 2796AUSL   AUS 2783  18.507  13.550   7.236
 2797AUL    AUL 2784  18.130  13.530   7.197
 2798THSLK    S 2785  18.004  13.313   7.307
 2799ETHY    C1 2786  17.586  13.458   7.173
 2800ETHY    C1 2787  17.051  13.598   7.099
 2801THSLK    S 2788  18.376  13.719   7.056
 2802ETHY    C1 2789  18.152  14.041   6.812
 2803ETHY    C1 2790  17.812  14.423   6.589
 2804AUSL   AUS 2791  18.250  13.203   7.652
 2805AUSL   AUS 2792  18.250  12.876   7.349
 2806AUL    AUL 2793  17.942  13.040   7.501
 2807THSLK    S 2794  17.983  12.798   7.377
 2808ETHY    C1 2795  17.530  12.709   7.359
 2809ETHY    C1 2796  17.005  12.554   7.252
 2810THSLK    S 2797  18.004  13.313   7.694
 2811ETHY    C1 2798  17.587  13.464   7.825
 2812ETHY    C1 2799  17.052  13.602   7.900
 2813AUSL   AUS 2800  19.504  12.631   7.501
 2814AUSL   AUS 2801  19.434  12.775   7.917
 2815AUL    AUL 2802  19.718  12.549   7.804
 2816THSLK    S 2803  19.735  12.492   7.501
 2817ETHY    C1 2804  20.089  12.194   7.497
 2818ETHY    C1 2805  20.573  11.917   7.498
 2819THSLK    S 2806  19.580  12.588   8.070
 2820ETHY    C1 2807  19.868  12.333   8.326
 2821ETHY    C1 2808  20.260  12.113   8.657
 2822AUSL   AUS 2809  19.598  12.876   7.349
 2823AUSL   AUS 2810  19.340  12.529   7.236
 2824AUL    AUL 2811  19.718  12.549   7.197
 2825THSLK    S 2812  19.844  12.744   7.343
 2826ETHY    C1 2813  20.260  12.559   7.266
 2827ETHY    C1 2814  20.796  12.431   7.176
 2828THSLK    S 2815  19.472  12.338   7.092
 2829ETHY    C1 2816  19.693  11.977   6.907
 2830ETHY    C1 2817  20.034  11.607   6.667
 2831AUSL   AUS 2818  18.344  12.631   7.501
 2832AUSL   AUS 2819  18.414  12.775   7.084
 2833AUL    AUL 2820  18.130  12.549   7.197
 2834THSLK    S 2821  18.234  12.607   6.958
 2835ETHY    C1 2822  17.888  12.387   6.743
 2836ETHY    C1 2823  17.513  12.157   6.400
 2837THSLK    S 2824  18.071  12.559   7.501
 2838ETHY    C1 2825  17.647  12.376   7.497
 2839ETHY    C1 2826  17.183  12.066   7.498
 2840AUSL   AUS 2827  18.250  12.876   7.652
 2841AUSL   AUS 2828  18.507  12.529   7.765
 2842AUL    AUL 2829  18.130  12.549   7.804
 2843THSLK    S 2830  18.321  12.372   7.889
 2844ETHY    C1 2831  18.008  12.066   8.033
 2845ETHY    C1 2832  17.693  11.679   8.284
 2846THSLK    S 2833  17.983  12.799   7.625
 2847ETHY    C1 2834  17.531  12.703   7.639
 2848ETHY    C1 2835  17.006  12.550   7.746
 2849AUSL   AUS 2836  18.924  13.620   7.910
 2850AUSL   AUS 2837  18.507  13.550   7.765
 2851AUL    AUL 2838  18.620  13.834   7.991
 2852THSLK    S 2839  18.376  13.718   7.945
 2853ETHY    C1 2840  18.155  14.046   8.185
 2854ETHY    C1 2841  17.814  14.426   8.409
 2855THSLK    S 2842  18.958  13.861   8.033
 2856ETHY    C1 2843  19.016  14.233   8.301
 2857ETHY    C1 2844  19.000  14.712   8.586
 2858AUSL   AUS 2845  18.772  13.713   7.664
 2859AUSL   AUS 2846  19.075  13.713   7.337
 2860AUL    AUL 2847  18.924  14.021   7.501
 2861THSLK    S 2848  18.803  13.973   7.770
 2862ETHY    C1 2849  18.793  14.414   7.907
 2863ETHY    C1 2850  18.684  14.943   8.048
 2864THSLK    S 2851  19.120  13.962   7.235
 2865ETHY    C1 2852  19.258  14.380   7.097
 2866ETHY    C1 2853  19.330  14.915   6.955
 2867AUSL   AUS 2854  19.075  13.713   7.664
 2868AUSL   AUS 2855  19.189  13.456   8.011
 2869AUL    AUL 2856  19.227  13.834   7.991
 2870THSLK    S 2857  19.363  13.584   8.185
 2871ETHY    C1 2858  19.599  13.803   8.517
 2872ETHY    C1 2859  19.825  14.145   8.895
 2873THSLK    S 2860  19.120  13.961   7.767
 2874ETHY    C1 2861  19.259  14.382   7.898
 2875ETHY    C1 2862  19.332  14.916   8.041
 2876AUSL   AUS 2863  18.924  12.460   7.910
 2877AUSL   AUS 2864  19.340  12.529   7.765
 2878AUL    AUL 2865  19.227  12.245   7.991
 2879THSLK    S 2866  18.890  12.196   7.997
 2880ETHY    C1 2867  18.835  11.787   8.205
 2881ETHY    C1 2868  18.850  11.319   8.507
 2882THSLK    S 2869  19.472  12.338   7.910
 2883ETHY    C1 2870  19.695  11.976   8.089
 2884ETHY    C1 2871  20.036  11.606   8.330
 2885AUSL   AUS 2872  18.772  12.366   7.664
 2886AUSL   AUS 2873  18.659  12.623   8.011
 2887AUL    AUL 2874  18.620  12.245   7.991
 2888THSLK    S 2875  18.727  12.113   7.746
 2889ETHY    C1 2876  18.590  11.682   7.843
 2890ETHY    C1 2877  18.517  11.150   7.996
 2891THSLK    S 2878  18.484  12.449   8.146
 2892ETHY    C1 2879  18.253  12.151   8.413
 2893ETHY    C1 2880  18.026  11.831   8.810
 2894AUSL   AUS 2881  19.075  12.366   7.664
 2895AUSL   AUS 2882  18.772  12.366   7.337
 2896AUL    AUL 2883  18.924  12.058   7.501
 2897THSLK    S 2884  18.727  12.113   7.255
 2898ETHY    C1 2885  18.588  11.684   7.152
 2899ETHY    C1 2886  18.516  11.152   7.001
 2900THSLK    S 2887  19.044  12.101   7.750
 2901ETHY    C1 2888  19.057  11.650   7.852
 2902ETHY    C1 2889  19.165  11.124   8.003
 2903AUSL   AUS 2890  18.924  13.620   7.092
 2904AUSL   AUS 2891  19.340  13.550   7.236
 2905AUL    AUL 2892  19.227  13.834   7.010
 2906THSLK    S 2893  18.958  13.861   6.969
 2907ETHY    C1 2894  19.013  14.230   6.696
 2908ETHY    C1 2895  18.997  14.709   6.412
 2909THSLK    S 2896  19.527  13.685   7.077
 2910ETHY    C1 2897  19.840  13.952   6.868
 2911ETHY    C1 2898  20.155  14.349   6.634
 2912AUSL   AUS 2899  18.772  13.713   7.337
 2913AUSL   AUS 2900  18.659  13.456   6.990
 2914AUL    AUL 2901  18.620  13.834   7.010
 2915THSLK    S 2902  18.803  13.974   7.232
 2916ETHY    C1 2903  18.791  14.412   7.088
 2917ETHY    C1 2904  18.683  14.941   6.948
 2918THSLK    S 2905  18.532  13.599   6.799
 2919ETHY    C1 2906  18.374  13.839   6.437
 2920ETHY    C1 2907  18.126  14.174   6.067
 2921AUSL   AUS 2908  18.924  12.460   7.092
 2922AUSL   AUS 2909  18.507  12.529   7.236
 2923AUL    AUL 2910  18.620  12.245   7.010
 2924THSLK    S 2911  18.321  12.372   7.113
 2925ETHY    C1 2912  18.005  12.070   6.964
 2926ETHY    C1 2913  17.691  11.683   6.714
 2927THSLK    S 2914  18.890  12.196   7.004
 2928ETHY    C1 2915  18.831  11.791   6.791
 2929ETHY    C1 2916  18.848  11.321   6.490
 2930AUSL   AUS 2917  19.075  12.366   7.337
 2931AUSL   AUS 2918  19.189  12.623   6.990
 2932AUL    AUL 2919  19.227  12.245   7.010
 2933THSLK    S 2920  19.045  12.100   7.252
 2934ETHY    C1 2921  19.055  11.652   7.143
 2935ETHY    C1 2922  19.163  11.125   6.993
 2936THSLK    S 2923  19.317  12.434   6.839
 2937ETHY    C1 2924  19.469  12.116   6.541
 2938ETHY    C1 2925  19.718  11.802   6.152
 2939AUC    AUC 2926  -2.289  22.462   7.501
 2940AUC    AUC 2927  -2.044  22.462   7.349
 2941AUC    AUC 2928  -2.044  22.462   7.652
 2942AUC    AUC 2929  -2.535  22.462   7.349
 2943AUC    AUC 2930  -2.535  22.462   7.652
 2944AUC    AUC 2931  -2.441  22.707   7.501
 2945AUC    AUC 2932  -2.138  22.707   7.501
 2946AUC    AUC 2933  -2.441  22.216   7.501
 2947AUC    AUC 2934  -2.138  22.216   7.501
 2948AUC    AUC 2935  -2.289  22.310   7.746
 2949AUC    AUC 2936  -2.289  22.613   7.746
 2950AUC    AUC 2937  -2.289  22.310   7.255
 2951AUC    AUC 2938  -2.289  22.613   7.255
 2952AUC    AUC 2939  -1.798  22.462   7.197
 2953AUC    AUC 2940  -1.798  22.462   7.501
 2954AUC    AUC 2941  -1.798  22.462   7.804
 2955AUC    AUC 2942  -2.780  22.462   7.197
 2956AUC    AUC 2943  -2.780  22.462   7.501
 2957AUC    AUC 2944  -2.780  22.462   7.804
 2958AUC    AUC 2945  -2.593  22.952   7.501
 2959AUC    AUC 2946  -2.289  22.952   7.501
 2960AUC    AUC 2947  -1.986  22.952   7.501
 2961AUC    AUC 2948  -2.593  21.971   7.501
 2962AUC    AUC 2949  -2.289  21.971   7.501
 2963AUC    AUC 2950  -1.986  21.971   7.501
 2964AUC    AUC 2951  -2.289  22.158   7.991
 2965AUC    AUC 2952  -2.289  22.462   7.991
 2966AUC    AUC 2953  -2.289  22.765   7.991
 2967AUC    AUC 2954  -2.289  22.158   7.010
 2968AUC    AUC 2955  -2.289  22.462   7.010
 2969AUC    AUC 2956  -2.289  22.765   7.010
 2970AUC    AUC 2957  -2.044  22.310   7.898
 2971AUC    AUC 2958  -2.044  22.613   7.898
 2972AUC    AUC 2959  -2.044  22.310   7.103
 2973AUC    AUC 2960  -2.044  22.613   7.103
 2974AUC    AUC 2961  -2.535  22.310   7.898
 2975AUC    AUC 2962  -2.535  22.613   7.898
 2976AUC    AUC 2963  -2.535  22.310   7.103
 2977AUC    AUC 2964  -2.535  22.613   7.103
 2978AUC    AUC 2965  -1.892  22.707   7.349
 2979AUC    AUC 2966  -1.892  22.707   7.652
 2980AUC    AUC 2967  -2.686  22.707   7.349
 2981AUC    AUC 2968  -2.686  22.707   7.652
 2982AUC    AUC 2969  -1.892  22.216   7.349
 2983AUC    AUC 2970  -1.892  22.216   7.652
 2984AUC    AUC 2971  -2.686  22.216   7.349
 2985AUC    AUC 2972  -2.686  22.216   7.652
 2986AUC    AUC 2973  -2.441  22.859   7.746
 2987AUC    AUC 2974  -2.138  22.859   7.746
 2988AUC    AUC 2975  -2.441  22.065   7.746
 2989AUC    AUC 2976  -2.138  22.065   7.746
 2990AUC    AUC 2977  -2.441  22.859   7.255
 2991AUC    AUC 2978  -2.138  22.859   7.255
 2992AUC    AUC 2979  -2.441  22.065   7.255
 2993AUC    AUC 2980  -2.138  22.065   7.255
 2994AUSL   AUS 2981  -1.880  22.462   8.081
 2995AUSL   AUS 2982  -2.024  22.045   8.011
 2996AUL    AUL 2983  -1.798  22.158   8.295
 2997THSLK    S 2984  -1.897  21.857   8.163
 2998ETHY    C1 2985  -1.739  21.536   8.456
 2999ETHY    C1 2986  -1.491  21.223   8.845
 3000THSLK    S 2987  -1.775  22.422   8.333
 3001ETHY    C1 2988  -1.532  22.355   8.720
 3002ETHY    C1 2989  -1.239  22.374   9.194
 3003AUSL   AUS 2990  -2.126  22.310   8.174
 3004AUSL   AUS 2991  -2.453  22.613   8.174
 3005AUL    AUL 2992  -2.289  22.462   8.482
 3006THSLK    S 2993  -2.039  22.264   8.426
 3007ETHY    C1 2994  -1.926  22.123   8.852
 3008ETHY    C1 2995  -1.777  22.052   9.385
 3009THSLK    S 2996  -2.541  22.582   8.439
 3010ETHY    C1 2997  -2.646  22.593   8.889
 3011ETHY    C1 2998  -2.796  22.701   9.415
 3012AUSL   AUS 2999  -2.126  22.613   8.174
 3013AUSL   AUS 3000  -1.779  22.726   7.917
 3014AUL    AUL 3001  -1.798  22.765   8.295
 3015THSLK    S 3002  -2.038  22.659   8.426
 3016ETHY    C1 3003  -1.932  22.799   8.854
 3017ETHY    C1 3004  -1.782  22.871   9.386
 3018THSLK    S 3005  -1.599  22.842   8.082
 3019ETHY    C1 3006  -1.254  22.977   8.358
 3020ETHY    C1 3007  -0.879  23.231   8.683
 3021AUSL   AUS 3008  -1.880  22.462   6.921
 3022AUSL   AUS 3009  -2.024  22.878   6.990
 3023AUL    AUL 3010  -1.798  22.765   6.706
 3024THSLK    S 3011  -1.774  22.422   6.668
 3025ETHY    C1 3012  -1.537  22.355   6.278
 3026ETHY    C1 3013  -1.244  22.374   5.804
 3027THSLK    S 3014  -1.849  23.006   6.816
 3028ETHY    C1 3015  -1.618  23.224   6.480
 3029ETHY    C1 3016  -1.392  23.566   6.102
 3030AUSL   AUS 3017  -2.126  22.310   6.827
 3031AUSL   AUS 3018  -1.779  22.197   7.084
 3032AUL    AUL 3019  -1.798  22.158   6.706
 3033THSLK    S 3020  -1.633  22.010   6.932
 3034ETHY    C1 3021  -1.349  21.756   6.670
 3035ETHY    C1 3022  -0.957  21.536   6.340
 3036THSLK    S 3023  -2.038  22.264   6.575
 3037ETHY    C1 3024  -1.932  22.124   6.147
 3038ETHY    C1 3025  -1.782  22.052   5.615
 3039AUSL   AUS 3026  -2.126  22.613   6.827
 3040AUSL   AUS 3027  -2.453  22.310   6.827
 3041AUL    AUL 3028  -2.289  22.462   6.519
 3042THSLK    S 3029  -2.553  22.264   6.579
 3043ETHY    C1 3030  -2.687  22.126   6.158
 3044ETHY    C1 3031  -2.830  22.054   5.624
 3045THSLK    S 3032  -2.025  22.581   6.566
 3046ETHY    C1 3033  -1.898  22.590   6.121
 3047ETHY    C1 3034  -1.754  22.699   5.594
 3048AUSL   AUS 3035  -2.698  22.462   8.081
 3049AUSL   AUS 3036  -2.554  22.878   8.011
 3050AUL    AUL 3037  -2.780  22.765   8.295
 3051THSLK    S 3038  -2.804  22.422   8.333
 3052ETHY    C1 3039  -3.041  22.355   8.723
 3053ETHY    C1 3040  -3.335  22.374   9.197
 3054THSLK    S 3041  -2.682  23.020   8.202
 3055ETHY    C1 3042  -2.835  23.265   8.563
 3056ETHY    C1 3043  -3.083  23.600   8.933
 3057AUSL   AUS 3044  -2.453  22.310   8.174
 3058AUSL   AUS 3045  -2.799  22.197   7.917
 3059AUL    AUL 3046  -2.780  22.158   8.295
 3060THSLK    S 3047  -2.980  22.029   8.043
 3061ETHY    C1 3048  -3.321  21.803   8.259
 3062ETHY    C1 3049  -3.697  21.575   8.602
 3063THSLK    S 3050  -2.553  22.264   8.422
 3064ETHY    C1 3051  -2.681  22.125   8.844
 3065ETHY    C1 3052  -2.825  22.053   9.378
 3066AUSL   AUS 3053  -2.698  22.462   6.921
 3067AUSL   AUS 3054  -2.554  22.045   6.990
 3068AUL    AUL 3055  -2.780  22.158   6.706
 3069THSLK    S 3056  -2.803  22.422   6.668
 3070ETHY    C1 3057  -3.047  22.355   6.281
 3071ETHY    C1 3058  -3.339  22.374   5.807
 3072THSLK    S 3059  -2.728  21.871   6.855
 3073ETHY    C1 3060  -2.965  21.578   6.587
 3074ETHY    C1 3061  -3.190  21.257   6.190
 3075AUSL   AUS 3062  -2.453  22.613   6.827
 3076AUSL   AUS 3063  -2.799  22.726   7.084
 3077AUL    AUL 3064  -2.780  22.765   6.706
 3078THSLK    S 3065  -2.945  22.861   6.894
 3079ETHY    C1 3066  -3.234  23.025   6.572
 3080ETHY    C1 3067  -3.625  23.270   6.259
 3081THSLK    S 3068  -2.540  22.582   6.562
 3082ETHY    C1 3069  -2.653  22.592   6.114
 3083ETHY    C1 3070  -2.801  22.700   5.587
 3084AUSL   AUS 3071  -1.709  22.871   7.501
 3085AUSL   AUS 3072  -1.779  22.726   7.084
 3086AUL    AUL 3073  -1.495  22.952   7.197
 3087THSLK    S 3074  -1.599  22.843   6.920
 3088ETHY    C1 3075  -1.258  22.976   6.638
 3089ETHY    C1 3076  -0.882  23.230   6.314
 3090THSLK    S 3077  -1.436  22.942   7.501
 3091ETHY    C1 3078  -1.012  23.126   7.497
 3092ETHY    C1 3079  -0.548  23.435   7.498
 3093AUSL   AUS 3080  -1.615  22.625   7.349
 3094AUSL   AUS 3081  -1.615  22.298   7.652
 3095AUL    AUL 3082  -1.308  22.462   7.501
 3096THSLK    S 3083  -1.348  22.680   7.341
 3097ETHY    C1 3084  -0.896  22.736   7.262
 3098ETHY    C1 3085  -0.371  22.901   7.172
 3099THSLK    S 3086  -1.369  22.166   7.659
 3100ETHY    C1 3087  -0.952  21.981   7.728
 3101ETHY    C1 3088  -0.416  21.853   7.820
 3102AUSL   AUS 3089  -1.615  22.625   7.652
 3103AUSL   AUS 3090  -1.873  22.972   7.765
 3104AUL    AUL 3091  -1.495  22.952   7.804
 3105THSLK    S 3092  -1.687  23.107   7.925
 3106ETHY    C1 3093  -1.371  23.375   8.128
 3107ETHY    C1 3094  -1.056  23.772   8.362
 3108THSLK    S 3095  -1.348  22.680   7.661
 3109ETHY    C1 3096  -0.896  22.736   7.733
 3110ETHY    C1 3097  -0.370  22.901   7.824
 3111AUSL   AUS 3098  -2.869  22.871   7.501
 3112AUSL   AUS 3099  -2.799  22.726   7.917
 3113AUL    AUL 3100  -3.083  22.952   7.804
 3114THSLK    S 3101  -2.946  22.861   8.107
 3115ETHY    C1 3102  -3.230  23.030   8.430
 3116ETHY    C1 3103  -3.622  23.275   8.743
 3117THSLK    S 3104  -3.100  23.009   7.501
 3118ETHY    C1 3105  -3.454  23.307   7.497
 3119ETHY    C1 3106  -3.938  23.584   7.498
 3120AUSL   AUS 3107  -2.963  22.625   7.349
 3121AUSL   AUS 3108  -2.706  22.972   7.236
 3122AUL    AUL 3109  -3.083  22.952   7.197
 3123THSLK    S 3110  -3.209  22.735   7.307
 3124ETHY    C1 3111  -3.627  22.880   7.173
 3125ETHY    C1 3112  -4.162  23.020   7.099
 3126THSLK    S 3113  -2.837  23.141   7.056
 3127ETHY    C1 3114  -3.061  23.463   6.812
 3128ETHY    C1 3115  -3.401  23.845   6.589
 3129AUSL   AUS 3116  -2.963  22.625   7.652
 3130AUSL   AUS 3117  -2.963  22.298   7.349
 3131AUL    AUL 3118  -3.271  22.462   7.501
 3132THSLK    S 3119  -3.230  22.220   7.377
 3133ETHY    C1 3120  -3.683  22.131   7.359
 3134ETHY    C1 3121  -4.208  21.976   7.252
 3135THSLK    S 3122  -3.209  22.735   7.694
 3136ETHY    C1 3123  -3.626  22.886   7.825
 3137ETHY    C1 3124  -4.161  23.024   7.900
 3138AUSL   AUS 3125  -1.709  22.053   7.501
 3139AUSL   AUS 3126  -1.779  22.197   7.917
 3140AUL    AUL 3127  -1.495  21.971   7.804
 3141THSLK    S 3128  -1.478  21.914   7.501
 3142ETHY    C1 3129  -1.124  21.616   7.497
 3143ETHY    C1 3130  -0.640  21.339   7.498
 3144THSLK    S 3131  -1.633  22.010   8.070
 3145ETHY    C1 3132  -1.345  21.755   8.326
 3146ETHY    C1 3133  -0.953  21.535   8.657
 3147AUSL   AUS 3134  -1.615  22.298   7.349
 3148AUSL   AUS 3135  -1.873  21.951   7.236
 3149AUL    AUL 3136  -1.495  21.971   7.197
 3150THSLK    S 3137  -1.369  22.166   7.343
 3151ETHY    C1 3138  -0.953  21.981   7.266
 3152ETHY    C1 3139  -0.417  21.853   7.176
 3153THSLK    S 3140  -1.741  21.760   7.092
 3154ETHY    C1 3141  -1.520  21.399   6.907
 3155ETHY    C1 3142  -1.179  21.029   6.667
 3156AUSL   AUS 3143  -2.869  22.053   7.501
 3157AUSL   AUS 3144  -2.799  22.197   7.084
 3158AUL    AUL 3145  -3.083  21.971   7.197
 3159THSLK    S 3146  -2.979  22.029   6.958
 3160ETHY    C1 3147  -3.325  21.809   6.743
 3161ETHY    C1 3148  -3.700  21.579   6.400
 3162THSLK    S 3149  -3.142  21.981   7.501
 3163ETHY    C1 3150  -3.566  21.798   7.497
 3164ETHY    C1 3151  -4.030  21.488   7.498
 3165AUSL   AUS 3152  -2.963  22.298   7.652
 3166AUSL   AUS 3153  -2.706  21.951   7.765
 3167AUL    AUL 3154  -3.083  21.971   7.804
 3168THSLK    S 3155  -2.892  21.794   7.889
 3169ETHY    C1 3156  -3.205  21.488   8.033
 3170ETHY    C1 3157  -3.520  21.101   8.284
 3171THSLK    S 3158  -3.230  22.221   7.625
 3172ETHY    C1 3159  -3.682  22.125   7.639
 3173ETHY    C1 3160  -4.207  21.972   7.746
 3174AUSL   AUS 3161  -2.289  23.042   7.910
 3175AUSL   AUS 3162  -2.706  22.972   7.765
 3176AUL    AUL 3163  -2.593  23.256   7.991
 3177THSLK    S 3164  -2.837  23.140   7.945
 3178ETHY    C1 3165  -3.058  23.468   8.185
 3179ETHY    C1 3166  -3.399  23.848   8.409
 3180THSLK    S 3167  -2.255  23.283   8.033
 3181ETHY    C1 3168  -2.197  23.655   8.301
 3182ETHY    C1 3169  -2.213  24.134   8.586
 3183AUSL   AUS 3170  -2.441  23.135   7.664
 3184AUSL   AUS 3171  -2.138  23.135   7.337
 3185AUL    AUL 3172  -2.289  23.443   7.501
 3186THSLK    S 3173  -2.410  23.395   7.770
 3187ETHY    C1 3174  -2.420  23.836   7.907
 3188ETHY    C1 3175  -2.529  24.365   8.048
 3189THSLK    S 3176  -2.093  23.384   7.235
 3190ETHY    C1 3177  -1.955  23.802   7.097
 3191ETHY    C1 3178  -1.883  24.337   6.955
 3192AUSL   AUS 3179  -2.138  23.135   7.664
 3193AUSL   AUS 3180  -2.024  22.878   8.011
 3194AUL    AUL 3181  -1.986  23.256   7.991
 3195THSLK    S 3182  -1.850  23.006   8.185
 3196ETHY    C1 3183  -1.614  23.225   8.517
 3197ETHY    C1 3184  -1.388  23.567   8.895
 3198THSLK    S 3185  -2.093  23.383   7.767
 3199ETHY    C1 3186  -1.954  23.804   7.898
 3200ETHY    C1 3187  -1.881  24.338   8.041
 3201AUSL   AUS 3188  -2.289  21.882   7.910
 3202AUSL   AUS 3189  -1.873  21.951   7.765
 3203AUL    AUL 3190  -1.986  21.667   7.991
 3204THSLK    S 3191  -2.323  21.618   7.997
 3205ETHY    C1 3192  -2.378  21.209   8.205
 3206ETHY    C1 3193  -2.363  20.741   8.507
 3207THSLK    S 3194  -1.741  21.760   7.910
 3208ETHY    C1 3195  -1.518  21.398   8.089
 3209ETHY    C1 3196  -1.177  21.028   8.330
 3210AUSL   AUS 3197  -2.441  21.788   7.664
 3211AUSL   AUS 3198  -2.554  22.045   8.011
 3212AUL    AUL 3199  -2.593  21.667   7.991
 3213THSLK    S 3200  -2.486  21.535   7.746
 3214ETHY    C1 3201  -2.623  21.104   7.843
 3215ETHY    C1 3202  -2.696  20.572   7.996
 3216THSLK    S 3203  -2.729  21.871   8.146
 3217ETHY    C1 3204  -2.960  21.573   8.413
 3218ETHY    C1 3205  -3.187  21.253   8.810
 3219AUSL   AUS 3206  -2.138  21.788   7.664
 3220AUSL   AUS 3207  -2.441  21.788   7.337
 3221AUL    AUL 3208  -2.289  21.480   7.501
 3222THSLK    S 3209  -2.486  21.535   7.255
 3223ETHY    C1 3210  -2.625  21.106   7.152
 3224ETHY    C1 3211  -2.697  20.574   7.001
 3225THSLK    S 3212  -2.169  21.523   7.750
 3226ETHY    C1 3213  -2.156  21.072   7.852
 3227ETHY    C1 3214  -2.048  20.546   8.003
 3228AUSL   AUS 3215  -2.289  23.042   7.092
 3229AUSL   AUS 3216  -1.873  22.972   7.236
 3230AUL    AUL 3217  -1.986  23.256   7.010
 3231THSLK    S 3218  -2.255  23.283   6.969
 3232ETHY    C1 3219  -2.200  23.652   6.696
 3233ETHY    C1 3220  -2.216  24.131   6.412
 3234THSLK    S 3221  -1.686  23.107   7.077
 3235ETHY    C1 3222  -1.373  23.374   6.868
 3236ETHY    C1 3223  -1.058  23.771   6.634
 3237AUSL   AUS 3224  -2.441  23.135   7.337
 3238AUSL   AUS 3225  -2.554  22.878   6.990
 3239AUL    AUL 3226  -2.593  23.256   7.010
 3240THSLK    S 3227  -2.410  23.396   7.232
 3241ETHY    C1 3228  -2.422  23.834   7.088
 3242ETHY    C1 3229  -2.530  24.363   6.948
 3243THSLK    S 3230  -2.681  23.021   6.799
 3244ETHY    C1 3231  -2.839  23.261   6.437
 3245ETHY    C1 3232  -3.087  23.596   6.067
 3246AUSL   AUS 3233  -2.289  21.882   7.092
 3247AUSL   AUS 3234  -2.706  21.951   7.236
 3248AUL    AUL 3235  -2.593  21.667   7.010
 3249THSLK    S 3236  -2.892  21.794   7.113
 3250ETHY    C1 3237  -3.208  21.492   6.964
 3251ETHY    C1 3238  -3.522  21.105   6.714
 3252THSLK    S 3239  -2.323  21.618   7.004
 3253ETHY    C1 3240  -2.382  21.213   6.791
 3254ETHY    C1 3241  -2.365  20.743   6.490
 3255AUSL   AUS 3242  -2.138  21.788   7.337
 3256AUSL   AUS 3243  -2.024  22.045   6.990
 3257AUL    AUL 3244  -1.986  21.667   7.010
 3258THSLK    S 3245  -2.168  21.522   7.252
 3259ETHY    C1 3246  -2.158  21.074   7.143
 3260ETHY    C1 3247  -2.050  20.547   6.993
 3261THSLK    S 3248  -1.896  21.856   6.839
 3262ETHY    C1 3249  -1.744  21.538   6.541
 3263ETHY    C1 3250  -1.495  21.224   6.152
 3264POPC   NC3 3251  33.017  36.103   9.450
 3264POPC   PO4 3252  32.986  36.149   9.150
 3264POPC   GL1 3253  33.029  36.086   8.850
 3264POPC   GL2 3254  33.114  36.148   8.850
 3264POPC   C1A 3255  33.007  36.174   8.550
 3264POPC   D2A 3256  33.032  36.080   8.250
 3264POPC   C3A 3257  33.044  36.109   7.950
 3264POPC   C4A 3258  32.987  36.082   7.650
 3264POPC   C1B 3259  33.237  36.200   8.550
 3264POPC   C2B 3260  33.286  36.204   8.250
 3264POPC   C3B 3261  33.235  36.154   7.950
 3264POPC   C4B 3262  33.233  36.196   7.650
 3265POPC   NC3 3263   1.241  31.458   9.450
 3265POPC   PO4 3264   1.252  31.511   9.150
 3265POPC   GL1 3265   1.246  31.493   8.850
 3265POPC   GL2 3266   1.186  31.594   8.850
 3265POPC   C1A 3267   1.220  31.441   8.550
 3265POPC   D2A 3268   1.255  31.521   8.250
 3265POPC   C3A 3269   1.220  31.429   7.950
 3265POPC   C4A 3270   1.241  31.456   7.650
 3265POPC   C1B 3271   1.122  31.657   8.550
 3265POPC   C2B 3272   1.116  31.700   8.250
 3265POPC   C3B 3273   1.128  31.655   7.950
 3265POPC   C4B 3274   1.093  31.667   7.650
 3266POPC   NC3 3275  26.856  40.026   9.450
 3266POPC   PO4 3276  26.816  40.047   9.150
 3266POPC   GL1 3277  26.775  40.015   8.850
 3266POPC   GL2 3278  26.727  39.888   8.850
 3266POPC   C1A 3279  26.798  40.002   8.550
 3266POPC   D2A 3280  26.821  40.053   8.250
 3266POPC   C3A 3281  26.847  40.044   7.950
 3266POPC   C4A 3282  26.845  40.041   7.650
 3266POPC   C1B 3283  26.688  39.788   8.550
 3266POPC   C2B 3284  26.612  39.844   8.250
 3266POPC   C3B 3285  26.602  39.785   7.950
 3266POPC   C4B 3286  26.633  39.828   7.650
 3267POPC   NC3 3287  43.079  31.449   9.450
 3267POPC   PO4 3288  43.097  31.454   9.150
 3267POPC   GL1 3289  43.108  31.429   8.850
 3267POPC   GL2 3290  43.067  31.371   8.850
 3267POPC   C1A 3291  43.137  31.480   8.550
 3267POPC   D2A 3292  43.133  31.468   8.250
 3267POPC   C3A 3293  43.152  31.450   7.950
 3267POPC   C4A 3294  43.137  31.470   7.650
 3267POPC   C1B 3295  43.011  31.289   8.550
 3267POPC   C2B 3296  42.947  31.291   8.250
 3267POPC   C3B 3297  42.943  31.217   7.950
 3267POPC   C4B 3298  42.959  31.280   7.650
 3268POPC   NC3 3299  26.835  21.403   9.450
 3268POPC   PO4 3300  26.835  21.341   9.150
 3268POPC   GL1 3301  26.782  21.380   8.850
 3268POPC   GL2 3302  26.726  21.267   8.850
 3268POPC   C1A 3303  26.790  21.397   8.550
 3268POPC   D2A 3304  26.855  21.400   8.250
 3268POPC   C3A 3305  26.830  21.361   7.950
 3268POPC   C4A 3306  26.829  21.383   7.650
 3268POPC   C1B 3307  26.698  21.210   8.550
 3268POPC   C2B 3308  26.658  21.201   8.250
 3268POPC   C3B 3309  26.723  21.201   7.950
 3268POPC   C4B 3310  26.732  21.223   7.650
 3269POPC   NC3 3311  43.143  16.683   9.450
 3269POPC   PO4 3312  43.123  16.754   9.150
 3269POPC   GL1 3313  43.146  16.765   8.850
 3269POPC   GL2 3314  43.148  16.660   8.850
 3269POPC   C1A 3315  43.105  16.776   8.550
 3269POPC   D2A 3316  43.067  16.687   8.250
 3269POPC   C3A 3317  43.072  16.712   7.950
 3269POPC   C4A 3318  43.126  16.702   7.650
 3269POPC   C1B 3319  43.231  16.495   8.550
 3269POPC   C2B 3320  43.287  16.586   8.250
 3269POPC   C3B 3321  43.242  16.584   7.950
 3269POPC   C4B 3322  43.255  16.528   7.650
 3270POPC   NC3 3323  42.348   5.901   9.450
 3270POPC   PO4 3324  42.323   5.889   9.150
 3270POPC   GL1 3325  42.328   5.889   8.850
 3270POPC   GL2 3326  42.496   5.923   8.850
 3270POPC   C1A 3327  42.313   5.820   8.550
 3270POPC   D2A 3328  42.329   5.846   8.250
 3270POPC   C3A 3329  42.293   5.853   7.950
 3270POPC   C4A 3330  42.352   5.869   7.650
 3270POPC   C1B 3331  42.589   5.878   8.550
 3270POPC   C2B 3332  42.575   5.923   8.250
 3270POPC   C3B 3333  42.577   5.876   7.950
 3270POPC   C4B 3334  42.597   5.898   7.650
 3271POPC   NC3 3335   2.002  14.413   9.450
 3271POPC   PO4 3336   1.950  14.450   9.150
 3271POPC   GL1 3337   1.971  14.362   8.850
 3271POPC   GL2 3338   2.038  14.299   8.850
 3271POPC   C1A 3339   2.024  14.446   8.550
 3271POPC   D2A 3340   1.999  14.438   8.250
 3271POPC   C3A 3341   1.968  14.361   7.950
 3271POPC   C4A 3342   2.022  14.365   7.650
 3271POPC   C1B 3343   2.083  14.191   8.550
 3271POPC   C2B 3344   2.039  14.191   8.250
 3271POPC   C3B 3345   2.046  14.186   7.950
 3271POPC   C4B 3346   2.069  14.187   7.650
 3272POPC   NC3 3347  22.170   4.275   9.450
 3272POPC   PO4 3348  22.173   4.333   9.150
 3272POPC   GL1 3349  22.197   4.277   8.850
 3272POPC   GL2 3350  22.200   4.423   8.850
 3272POPC   C1A 3351  22.129   4.347   8.550
 3272POPC   D2A 3352  22.207   4.285   8.250
 3272POPC   C3A 3353  22.157   4.309   7.950
 3272POPC   C4A 3354  22.144   4.297   7.650
 3272POPC   C1B 3355  22.157   4.579   8.550
 3272POPC   C2B 3356  22.249   4.562   8.250
 3272POPC   C3B 3357  22.225   4.587   7.950
 3272POPC   C4B 3358  22.198   4.546   7.650
 3273POPC   NC3 3359  20.582  42.346   9.450
 3273POPC   PO4 3360  20.567  42.379   9.150
 3273POPC   GL1 3361  20.587  42.346   8.850
 3273POPC   GL2 3362  20.506  42.410   8.850
 3273POPC   C1A 3363  20.564  42.346   8.550
 3273POPC   D2A 3364  20.618  42.316   8.250
 3273POPC   C3A 3365  20.616  42.358   7.950
 3273POPC   C4A 3366  20.654  42.377   7.650
 3273POPC   C1B 3367  20.442  42.442   8.550
 3273POPC   C2B 3368  20.372  42.476   8.250
 3273POPC   C3B 3369  20.363  42.473   7.950
 3273POPC   C4B 3370  20.380  42.496   7.650
 3274POPC   NC3 3371   1.259   9.715   9.450
 3274POPC   PO4 3372   1.197   9.772   9.150
 3274POPC   GL1 3373   1.212   9.742   8.850
 3274POPC   GL2 3374   1.375   9.782   8.850
 3274POPC   C1A 3375   1.260   9.767   8.550
 3274POPC   D2A 3376   1.202   9.733   8.250
 3274POPC   C3A 3377   1.255   9.701   7.950
 3274POPC   C4A 3378   1.200   9.758   7.650
 3274POPC   C1B 3379   1.471   9.734   8.550
 3274POPC   C2B 3380   1.462   9.745   8.250
 3274POPC   C3B 3381   1.478   9.715   7.950
 3274POPC   C4B 3382   1.465   9.774   7.650
 3275POPC   NC3 3383  11.265  22.985   9.450
 3275POPC   PO4 3384  11.264  22.911   9.150
 3275POPC   GL1 3385  11.272  22.957   8.850
 3275POPC   GL2 3386  11.228  22.847   8.850
 3275POPC   C1A 3387  11.306  22.984   8.550
 3275POPC   D2A 3388  11.337  22.965   8.250
 3275POPC   C3A 3389  11.297  22.938   7.950
 3275POPC   C4A 3390  11.286  22.963   7.650
 3275POPC   C1B 3391  11.183  22.739   8.550
 3275POPC   C2B 3392  11.236  22.717   8.250
 3275POPC   C3B 3393  11.218  22.678   7.950
 3275POPC   C4B 3394  11.228  22.701   7.650
 3276POPC   NC3 3395  32.221  28.417   9.450
 3276POPC   PO4 3396  32.249  28.399   9.150
 3276POPC   GL1 3397  32.212  28.407   8.850
 3276POPC   GL2 3398  32.359  28.254   8.850
 3276POPC   C1A 3399  32.235  28.416   8.550
 3276POPC   D2A 3400  32.283  28.360   8.250
 3276POPC   C3A 3401  32.249  28.340   7.950
 3276POPC   C4A 3402  32.213  28.333   7.650
 3276POPC   C1B 3403  32.461  28.205   8.550
 3276POPC   C2B 3404  32.437  28.219   8.250
 3276POPC   C3B 3405  32.423  28.172   7.950
 3276POPC   C4B 3406  32.421  28.169   7.650
 3277POPC   NC3 3407  18.324  27.590   9.450
 3277POPC   PO4 3408  18.249  27.569   9.150
 3277POPC   GL1 3409  18.249  27.639   8.850
 3277POPC   GL2 3410  18.266  27.713   8.850
 3277POPC   C1A 3411  18.286  27.594   8.550
 3277POPC   D2A 3412  18.260  27.603   8.250
 3277POPC   C3A 3413  18.297  27.553   7.950
 3277POPC   C4A 3414  18.251  27.605   7.650
 3277POPC   C1B 3415  18.158  27.817   8.550
 3277POPC   C2B 3416  18.121  27.826   8.250
 3277POPC   C3B 3417  18.153  27.834   7.950
 3277POPC   C4B 3418  18.157  27.789   7.650
 3278POPC   NC3 3419  41.517  20.649   9.450
 3278POPC   PO4 3420  41.606  20.654   9.150
 3278POPC   GL1 3421  41.554  20.616   8.850
 3278POPC   GL2 3422  41.556  20.487   8.850
 3278POPC   C1A 3423  41.531  20.623   8.550
 3278POPC   D2A 3424  41.527  20.657   8.250
 3278POPC   C3A 3425  41.585  20.615   7.950
 3278POPC   C4A 3426  41.526  20.569   7.650
 3278POPC   C1B 3427  41.569  20.404   8.550
 3278POPC   C2B 3428  41.603  20.342   8.250
 3278POPC   C3B 3429  41.632  20.377   7.950
 3278POPC   C4B 3430  41.658  20.364   7.650
 3279POPC   NC3 3431   9.743  15.908   9.450
 3279POPC   PO4 3432   9.762  15.981   9.150
 3279POPC   GL1 3433   9.773  15.973   8.850
 3279POPC   GL2 3434   9.655  16.053   8.850
 3279POPC   C1A 3435   9.794  15.934   8.550
 3279POPC   D2A 3436   9.780  15.957   8.250
 3279POPC   C3A 3437   9.704  15.937   7.950
 3279POPC   C4A 3438   9.708  15.997   7.650
 3279POPC   C1B 3439   9.578  16.182   8.550
 3279POPC   C2B 3440   9.576  16.127   8.250
 3279POPC   C3B 3441   9.593  16.201   7.950
 3279POPC   C4B 3442   9.576  16.169   7.650
 3280POPC   NC3 3443  42.316  34.564   9.450
 3280POPC   PO4 3444  42.373  34.612   9.150
 3280POPC   GL1 3445  42.305  34.565   8.850
 3280POPC   GL2 3446  42.227  34.688   8.850
 3280POPC   C1A 3447  42.330  34.554   8.550
 3280POPC   D2A 3448  42.327  34.572   8.250
 3280POPC   C3A 3449  42.377  34.605   7.950
 3280POPC   C4A 3450  42.325  34.574   7.650
 3280POPC   C1B 3451  42.181  34.766   8.550
 3280POPC   C2B 3452  42.172  34.792   8.250
 3280POPC   C3B 3453  42.167  34.802   7.950
 3280POPC   C4B 3454  42.169  34.771   7.650
 3281POPC   NC3 3455   5.915  41.527   9.450
 3281POPC   PO4 3456   5.825  41.562   9.150
 3281POPC   GL1 3457   5.851  41.551   8.850
 3281POPC   GL2 3458   5.717  41.591   8.850
 3281POPC   C1A 3459   5.897  41.601   8.550
 3281POPC   D2A 3460   5.826  41.532   8.250
 3281POPC   C3A 3461   5.918  41.523   7.950
 3281POPC   C4A 3462   5.872  41.558   7.650
 3281POPC   C1B 3463   5.576  41.587   8.550
 3281POPC   C2B 3464   5.569  41.554   8.250
 3281POPC   C3B 3465   5.620  41.561   7.950
 3281POPC   C4B 3466   5.634  41.523   7.650
 3282POPC   NC3 3467  33.053  16.746   9.450
 3282POPC   PO4 3468  32.992  16.771   9.150
 3282POPC   GL1 3469  33.032  16.707   8.850
 3282POPC   GL2 3470  33.048  16.561   8.850
 3282POPC   C1A 3471  33.013  16.685   8.550
 3282POPC   D2A 3472  33.058  16.718   8.250
 3282POPC   C3A 3473  33.035  16.724   7.950
 3282POPC   C4A 3474  33.067  16.682   7.650
 3282POPC   C1B 3475  32.964  16.440   8.550
 3282POPC   C2B 3476  32.936  16.487   8.250
 3282POPC   C3B 3477  33.025  16.483   7.950
 3282POPC   C4B 3478  33.026  16.531   7.650
 3283POPC   NC3 3479  29.925  44.711   9.450
 3283POPC   PO4 3480  29.873  44.619   9.150
 3283POPC   GL1 3481  29.898  44.628   8.850
 3283POPC   GL2 3482  30.066  44.736   8.850
 3283POPC   C1A 3483  29.920  44.640   8.550
 3283POPC   D2A 3484  29.895  44.638   8.250
 3283POPC   C3A 3485  29.961  44.700   7.950
 3283POPC   C4A 3486  29.920  44.685   7.650
 3283POPC   C1B 3487  30.154  44.771   8.550
 3283POPC   C2B 3488  30.097  44.838   8.250
 3283POPC   C3B 3489  30.165  44.787   7.950
 3283POPC   C4B 3490  30.076  44.786   7.650
 3284POPC   NC3 3491  29.114  14.382   9.450
 3284POPC   PO4 3492  29.114  14.358   9.150
 3284POPC   GL1 3493  29.099  14.447   8.850
 3284POPC   GL2 3494  29.105  14.546   8.850
 3284POPC   C1A 3495  29.168  14.436   8.550
 3284POPC   D2A 3496  29.099  14.398   8.250
 3284POPC   C3A 3497  29.101  14.419   7.950
 3284POPC   C4A 3498  29.185  14.411   7.650
 3284POPC   C1B 3499  29.085  14.678   8.550
 3284POPC   C2B 3500  29.048  14.615   8.250
 3284POPC   C3B 3501  29.050  14.686   7.950
 3284POPC   C4B 3502  29.080  14.612   7.650
 3285POPC   NC3 3503  35.327   0.413   9.450
 3285POPC   PO4 3504  35.321   0.407   9.150
 3285POPC   GL1 3505  35.315   0.413   8.850
 3285POPC   GL2 3506  35.443   0.381   8.850
 3285POPC   C1A 3507  35.362   0.416   8.550
 3285POPC   D2A 3508  35.357   0.437   8.250
 3285POPC   C3A 3509  35.380   0.459   7.950
 3285POPC   C4A 3510  35.401   0.407   7.650
 3285POPC   C1B 3511  35.619   0.446   8.550
 3285POPC   C2B 3512  35.573   0.418   8.250
 3285POPC   C3B 3513  35.574   0.436   7.950
 3285POPC   C4B 3514  35.568   0.375   7.650
 3286POPC   NC3 3515  39.996  31.473   9.450
 3286POPC   PO4 3516  39.990  31.514   9.150
 3286POPC   GL1 3517  39.990  31.483   8.850
 3286POPC   GL2 3518  39.970  31.356   8.850
 3286POPC   C1A 3519  40.029  31.447   8.550
 3286POPC   D2A 3520  39.971  31.522   8.250
 3286POPC   C3A 3521  39.985  31.423   7.950
 3286POPC   C4A 3522  39.969  31.435   7.650
 3286POPC   C1B 3523  39.825  31.276   8.550
 3286POPC   C2B 3524  39.857  31.298   8.250
 3286POPC   C3B 3525  39.850  31.242   7.950
 3286POPC   C4B 3526  39.851  31.250   7.650
 3287POPC   NC3 3527  28.368   1.172   9.450
 3287POPC   PO4 3528  28.401   1.238   9.150
 3287POPC   GL1 3529  28.324   1.253   8.850
 3287POPC   GL2 3530  28.398   1.318   8.850
 3287POPC   C1A 3531  28.372   1.183   8.550
 3287POPC   D2A 3532  28.369   1.217   8.250
 3287POPC   C3A 3533  28.386   1.229   7.950
 3287POPC   C4A 3534  28.348   1.186   7.650
 3287POPC   C1B 3535  28.464   1.462   8.550
 3287POPC   C2B 3536  28.528   1.427   8.250
 3287POPC   C3B 3537  28.471   1.464   7.950
 3287POPC   C4B 3538  28.437   1.418   7.650
 3288POPC   NC3 3539  24.440  25.240   9.450
 3288POPC   PO4 3540  24.468  25.315   9.150
 3288POPC   GL1 3541  24.530  25.288   8.850
 3288POPC   GL2 3542  24.469  25.156   8.850
 3288POPC   C1A 3543  24.483  25.276   8.550
 3288POPC   D2A 3544  24.508  25.236   8.250
 3288POPC   C3A 3545  24.526  25.274   7.950
 3288POPC   C4A 3546  24.453  25.304   7.650
 3288POPC   C1B 3547  24.468  24.983   8.550
 3288POPC   C2B 3548  24.488  25.010   8.250
 3288POPC   C3B 3549  24.485  25.065   7.950
 3288POPC   C4B 3550  24.501  24.974   7.650
 3289POPC   NC3 3551  25.228  34.595   9.450
 3289POPC   PO4 3552  25.240  34.572   9.150
 3289POPC   GL1 3553  25.280  34.615   8.850
 3289POPC   GL2 3554  25.410  34.550   8.850
 3289POPC   C1A 3555  25.282  34.599   8.550
 3289POPC   D2A 3556  25.253  34.568   8.250
 3289POPC   C3A 3557  25.260  34.581   7.950
 3289POPC   C4A 3558  25.255  34.563   7.650
 3289POPC   C1B 3559  25.538  34.566   8.550
 3289POPC   C2B 3560  25.538  34.632   8.250
 3289POPC   C3B 3561  25.546  34.658   7.950
 3289POPC   C4B 3562  25.558  34.638   7.650
 3290POPC   NC3 3563  13.609  20.603   9.450
 3290POPC   PO4 3564  13.607  20.649   9.150
 3290POPC   GL1 3565  13.595  20.595   8.850
 3290POPC   GL2 3566  13.464  20.598   8.850
 3290POPC   C1A 3567  13.589  20.644   8.550
 3290POPC   D2A 3568  13.611  20.626   8.250
 3290POPC   C3A 3569  13.595  20.604   7.950
 3290POPC   C4A 3570  13.610  20.603   7.650
 3290POPC   C1B 3571  13.385  20.578   8.550
 3290POPC   C2B 3572  13.344  20.628   8.250
 3290POPC   C3B 3573  13.351  20.587   7.950
 3290POPC   C4B 3574  13.349  20.542   7.650
 3291POPC   NC3 3575  15.175  12.898   9.450
 3291POPC   PO4 3576  15.220  12.865   9.150
 3291POPC   GL1 3577  15.210  12.852   8.850
 3291POPC   GL2 3578  15.185  12.701   8.850
 3291POPC   C1A 3579  15.138  12.863   8.550
 3291POPC   D2A 3580  15.214  12.837   8.250
 3291POPC   C3A 3581  15.154  12.838   7.950
 3291POPC   C4A 3582  15.168  12.872   7.650
 3291POPC   C1B 3583  15.143  12.658   8.550
 3291POPC   C2B 3584  15.126  12.615   8.250
 3291POPC   C3B 3585  15.114  12.636   7.950
 3291POPC   C4B 3586  15.059  12.661   7.650
 3292POPC   NC3 3587  34.577   3.527   9.450
 3292POPC   PO4 3588  34.620   3.526   9.150
 3292POPC   GL1 3589  34.538   3.516   8.850
 3292POPC   GL2 3590  34.501   3.488   8.850
 3292POPC   C1A 3591  34.608   3.532   8.550
 3292POPC   D2A 3592  34.565   3.556   8.250
 3292POPC   C3A 3593  34.537   3.545   7.950
 3292POPC   C4A 3594  34.536   3.518   7.650
 3292POPC   C1B 3595  34.371   3.402   8.550
 3292POPC   C2B 3596  34.366   3.491   8.250
 3292POPC   C3B 3597  34.322   3.433   7.950
 3292POPC   C4B 3598  34.378   3.460   7.650
 3293POPC   NC3 3599  43.061  19.844   9.450
 3293POPC   PO4 3600  43.095  19.860   9.150
 3293POPC   GL1 3601  43.096  19.850   8.850
 3293POPC   GL2 3602  42.978  19.856   8.850
 3293POPC   C1A 3603  43.107  19.854   8.550
 3293POPC   D2A 3604  43.115  19.801   8.250
 3293POPC   C3A 3605  43.100  19.820   7.950
 3293POPC   C4A 3606  43.147  19.875   7.650
 3293POPC   C1B 3607  42.908  19.888   8.550
 3293POPC   C2B 3608  42.817  19.859   8.250
 3293POPC   C3B 3609  42.898  19.866   7.950
 3293POPC   C4B 3610  42.811  19.801   7.650
 3294POPC   NC3 3611  36.935  17.535   9.450
 3294POPC   PO4 3612  36.899  17.534   9.150
 3294POPC   GL1 3613  36.889  17.557   8.850
 3294POPC   GL2 3614  36.987  17.374   8.850
 3294POPC   C1A 3615  36.943  17.537   8.550
 3294POPC   D2A 3616  36.863  17.546   8.250
 3294POPC   C3A 3617  36.861  17.461   7.950
 3294POPC   C4A 3618  36.950  17.466   7.650
 3294POPC   C1B 3619  37.083  17.276   8.550
 3294POPC   C2B 3620  37.096  17.298   8.250
 3294POPC   C3B 3621  37.077  17.312   7.950
 3294POPC   C4B 3622  37.033  17.331   7.650
 3295POPC   NC3 3623  18.324  42.339   9.450
 3295POPC   PO4 3624  18.309  42.354   9.150
 3295POPC   GL1 3625  18.237  42.316   8.850
 3295POPC   GL2 3626  18.170  42.279   8.850
 3295POPC   C1A 3627  18.268  42.292   8.550
 3295POPC   D2A 3628  18.276  42.329   8.250
 3295POPC   C3A 3629  18.276  42.313   7.950
 3295POPC   C4A 3630  18.293  42.313   7.650
 3295POPC   C1B 3631  18.088  42.223   8.550
 3295POPC   C2B 3632  18.089  42.251   8.250
 3295POPC   C3B 3633  18.039  42.194   7.950
 3295POPC   C4B 3634  18.039  42.220   7.650
 3296POPC   NC3 3635  27.620  38.493   9.450
 3296POPC   PO4 3636  27.561  38.502   9.150
 3296POPC   GL1 3637  27.550  38.488   8.850
 3296POPC   GL2 3638  27.580  38.294   8.850
 3296POPC   C1A 3639  27.622  38.486   8.550
 3296POPC   D2A 3640  27.613  38.461   8.250
 3296POPC   C3A 3641  27.561  38.418   7.950
 3296POPC   C4A 3642  27.617  38.472   7.650
 3296POPC   C1B 3643  27.487  38.169   8.550
 3296POPC   C2B 3644  27.528  38.171   8.250
 3296POPC   C3B 3645  27.556  38.256   7.950
 3296POPC   C4B 3646  27.518  38.225   7.650
 3297POPC   NC3 3647   9.702   8.156   9.450
 3297POPC   PO4 3648   9.706   8.200   9.150
 3297POPC   GL1 3649   9.776   8.199   8.850
 3297POPC   GL2 3650   9.821   8.317   8.850
 3297POPC   C1A 3651   9.758   8.222   8.550
 3297POPC   D2A 3652   9.713   8.177   8.250
 3297POPC   C3A 3653   9.742   8.182   7.950
 3297POPC   C4A 3654   9.742   8.222   7.650
 3297POPC   C1B 3655   9.912   8.313   8.550
 3297POPC   C2B 3656   9.979   8.380   8.250
 3297POPC   C3B 3657   9.956   8.314   7.950
 3297POPC   C4B 3658   9.962   8.394   7.650
 3298POPC   NC3 3659   1.966  32.283   9.450
 3298POPC   PO4 3660   1.972  32.260   9.150
 3298POPC   GL1 3661   2.008  32.205   8.850
 3298POPC   GL2 3662   1.906  32.177   8.850
 3298POPC   C1A 3663   1.998  32.231   8.550
 3298POPC   D2A 3664   2.002  32.266   8.250
 3298POPC   C3A 3665   1.971  32.210   7.950
 3298POPC   C4A 3666   2.001  32.233   7.650
 3298POPC   C1B 3667   1.864  32.024   8.550
 3298POPC   C2B 3668   1.932  32.003   8.250
 3298POPC   C3B 3669   1.907  32.042   7.950
 3298POPC   C4B 3670   1.876  32.025   7.650
 3299POPC   NC3 3671  34.594  44.699   9.450
 3299POPC   PO4 3672  34.526  44.683   9.150
 3299POPC   GL1 3673  34.534  44.705   8.850
 3299POPC   GL2 3674  34.456  44.725   8.850
 3299POPC   C1A 3675  34.553  44.677   8.550
 3299POPC   D2A 3676  34.554  44.631   8.250
 3299POPC   C3A 3677  34.582  44.675   7.950
 3299POPC   C4A 3678  34.605  44.712   7.650
 3299POPC   C1B 3679  34.428  44.780   8.550
 3299POPC   C2B 3680  34.395  44.798   8.250
 3299POPC   C3B 3681  34.400  44.796   7.950
 3299POPC   C4B 3682  34.412  44.792   7.650
 3300POPC   NC3 3683  43.887  33.849   9.450
 3300POPC   PO4 3684  43.925  33.802   9.150
 3300POPC   GL1 3685  43.840  33.819   8.850
 3300POPC   GL2 3686  43.825  33.659   8.850
 3300POPC   C1A 3687  43.931  33.759   8.550
 3300POPC   D2A 3688  43.920  33.809   8.250
 3300POPC   C3A 3689  43.841  33.840   7.950
 3300POPC   C4A 3690  43.935  33.785   7.650
 3300POPC   C1B 3691  43.697  33.567   8.550
 3300POPC   C2B 3692  43.698  33.637   8.250
 3300POPC   C3B 3693  43.709  33.590   7.950
 3300POPC   C4B 3694  43.757  33.628   7.650
 3301POPC   NC3 3695  12.833  31.459   9.450
 3301POPC   PO4 3696  12.868  31.470   9.150
 3301POPC   GL1 3697  12.867  31.487   8.850
 3301POPC   GL2 3698  12.692  31.480   8.850
 3301POPC   C1A 3699  12.821  31.487   8.550
 3301POPC   D2A 3700  12.838  31.473   8.250
 3301POPC   C3A 3701  12.802  31.503   7.950
 3301POPC   C4A 3702  12.849  31.511   7.650
 3301POPC   C1B 3703  12.633  31.499   8.550
 3301POPC   C2B 3704  12.631  31.512   8.250
 3301POPC   C3B 3705  12.617  31.454   7.950
 3301POPC   C4B 3706  12.641  31.451   7.650
 3302POPC   NC3 3707  24.482  32.272   9.450
 3302POPC   PO4 3708  24.459  32.278   9.150
 3302POPC   GL1 3709  24.461  32.260   8.850
 3302POPC   GL2 3710  24.526  32.114   8.850
 3302POPC   C1A 3711  24.460  32.247   8.550
 3302POPC   D2A 3712  24.455  32.253   8.250
 3302POPC   C3A 3713  24.461  32.209   7.950
 3302POPC   C4A 3714  24.477  32.243   7.650
 3302POPC   C1B 3715  24.507  32.047   8.550
 3302POPC   C2B 3716  24.439  31.980   8.250
 3302POPC   C3B 3717  24.469  31.990   7.950
 3302POPC   C4B 3718  24.505  31.955   7.650
 3303POPC   NC3 3719  38.494  16.687   9.450
 3303POPC   PO4 3720  38.417  16.683   9.150
 3303POPC   GL1 3721  38.409  16.723   8.850
 3303POPC   GL2 3722  38.558  16.782   8.850
 3303POPC   C1A 3723  38.474  16.781   8.550
 3303POPC   D2A 3724  38.474  16.736   8.250
 3303POPC   C3A 3725  38.420  16.704   7.950
 3303POPC   C4A 3726  38.424  16.704   7.650
 3303POPC   C1B 3727  38.656  16.934   8.550
 3303POPC   C2B 3728  38.661  16.928   8.250
 3303POPC   C3B 3729  38.601  16.891   7.950
 3303POPC   C4B 3730  38.636  16.875   7.650
 3304POPC   NC3 3731  29.901  43.881   9.450
 3304POPC   PO4 3732  29.899  43.935   9.150
 3304POPC   GL1 3733  29.900  43.902   8.850
 3304POPC   GL2 3734  29.984  43.820   8.850
 3304POPC   C1A 3735  29.900  43.880   8.550
 3304POPC   D2A 3736  29.969  43.932   8.250
 3304POPC   C3A 3737  29.922  43.839   7.950
 3304POPC   C4A 3738  29.932  43.869   7.650
 3304POPC   C1B 3739  30.112  43.674   8.550
 3304POPC   C2B 3740  30.132  43.731   8.250
 3304POPC   C3B 3741  30.052  43.753   7.950
 3304POPC   C4B 3742  30.105  43.707   7.650
 3305POPC   NC3 3743   2.742   8.210   9.450
 3305POPC   PO4 3744   2.798   8.204   9.150
 3305POPC   GL1 3745   2.746   8.169   8.850
 3305POPC   GL2 3746   2.718   8.354   8.850
 3305POPC   C1A 3747   2.765   8.171   8.550
 3305POPC   D2A 3748   2.765   8.201   8.250
 3305POPC   C3A 3749   2.730   8.178   7.950
 3305POPC   C4A 3750   2.721   8.224   7.650
 3305POPC   C1B 3751   2.622   8.389   8.550
 3305POPC   C2B 3752   2.641   8.475   8.250
 3305POPC   C3B 3753   2.658   8.474   7.950
 3305POPC   C4B 3754   2.661   8.444   7.650
 3306POPC   NC3 3755  35.331  19.792   9.450
 3306POPC   PO4 3756  35.340  19.812   9.150
 3306POPC   GL1 3757  35.369  19.821   8.850
 3306POPC   GL2 3758  35.343  19.757   8.850
 3306POPC   C1A 3759  35.400  19.826   8.550
 3306POPC   D2A 3760  35.308  19.804   8.250
 3306POPC   C3A 3761  35.318  19.801   7.950
 3306POPC   C4A 3762  35.324  19.877   7.650
 3306POPC   C1B 3763  35.321  19.581   8.550
 3306POPC   C2B 3764  35.285  19.633   8.250
 3306POPC   C3B 3765  35.327  19.577   7.950
 3306POPC   C4B 3766  35.326  19.613   7.650
 3307POPC   NC3 3767   7.397  35.391   9.450
 3307POPC   PO4 3768   7.438  35.364   9.150
 3307POPC   GL1 3769   7.469  35.372   8.850
 3307POPC   GL2 3770   7.374  35.191   8.850
 3307POPC   C1A 3771   7.420  35.400   8.550
 3307POPC   D2A 3772   7.381  35.316   8.250
 3307POPC   C3A 3773   7.375  35.400   7.950
 3307POPC   C4A 3774   7.407  35.338   7.650
 3307POPC   C1B 3775   7.325  35.125   8.550
 3307POPC   C2B 3776   7.364  35.110   8.250
 3307POPC   C3B 3777   7.397  35.086   7.950
 3307POPC   C4B 3778   7.394  35.159   7.650
 3308POPC   NC3 3779   8.992  44.633   9.450
 3308POPC   PO4 3780   8.982  44.643   9.150
 3308POPC   GL1 3781   8.934  44.664   8.850
 3308POPC   GL2 3782   8.884  44.574   8.850
 3308POPC   C1A 3783   8.942  44.615   8.550
 3308POPC   D2A 3784   8.957  44.697   8.250
 3308POPC   C3A 3785   9.012  44.687   7.950
 3308POPC   C4A 3786   8.963  44.614   7.650
 3308POPC   C1B 3787   8.716  44.583   8.550
 3308POPC   C2B 3788   8.760  44.548   8.250
 3308POPC   C3B 3789   8.731  44.502   7.950
 3308POPC   C4B 3790   8.794  44.490   7.650
 3309POPC   NC3 3791  21.380  43.091   9.450
 3309POPC   PO4 3792  21.400  43.147   9.150
 3309POPC   GL1 3793  21.363  43.105   8.850
 3309POPC   GL2 3794  21.530  43.049   8.850
 3309POPC   C1A 3795  21.382  43.130   8.550
 3309POPC   D2A 3796  21.339  43.148   8.250
 3309POPC   C3A 3797  21.384  43.086   7.950
 3309POPC   C4A 3798  21.385  43.132   7.650
 3309POPC   C1B 3799  21.628  42.962   8.550
 3309POPC   C2B 3800  21.629  42.968   8.250
 3309POPC   C3B 3801  21.562  42.942   7.950
 3309POPC   C4B 3802  21.624  42.994   7.650
 3310POPC   NC3 3803   5.869   7.436   9.450
 3310POPC   PO4 3804   5.825   7.433   9.150
 3310POPC   GL1 3805   5.916   7.398   8.850
 3310POPC   GL2 3806   5.911   7.496   8.850
 3310POPC   C1A 3807   5.865   7.402   8.550
 3310POPC   D2A 3808   5.904   7.381   8.250
 3310POPC   C3A 3809   5.860   7.447   7.950
 3310POPC   C4A 3810   5.878   7.449   7.650
 3310POPC   C1B 3811   5.930   7.675   8.550
 3310POPC   C2B 3812   5.939   7.688   8.250
 3310POPC   C3B 3813   5.913   7.671   7.950
 3310POPC   C4B 3814   5.901   7.679   7.650
 3311POPC   NC3 3815  26.083  19.039   9.450
 3311POPC   PO4 3816  26.030  19.038   9.150
 3311POPC   GL1 3817  26.042  19.023   8.850
 3311POPC   GL2 3818  25.930  19.104   8.850
 3311POPC   C1A 3819  26.089  19.049   8.550
 3311POPC   D2A 3820  25.996  19.079   8.250
 3311POPC   C3A 3821  26.035  19.091   7.950
 3311POPC   C4A 3822  26.058  19.088   7.650
 3311POPC   C1B 3823  25.840  19.253   8.550
 3311POPC   C2B 3824  25.833  19.292   8.250
 3311POPC   C3B 3825  25.883  19.256   7.950
 3311POPC   C4B 3826  25.903  19.287   7.650
 3312POPC   NC3 3827  15.910  43.119   9.450
 3312POPC   PO4 3828  15.992  43.146   9.150
 3312POPC   GL1 3829  15.996  43.123   8.850
 3312POPC   GL2 3830  16.061  43.106   8.850
 3312POPC   C1A 3831  15.973  43.063   8.550
 3312POPC   D2A 3832  15.927  43.137   8.250
 3312POPC   C3A 3833  15.922  43.063   7.950
 3312POPC   C4A 3834  15.941  43.141   7.650
 3312POPC   C1B 3835  16.171  43.135   8.550
 3312POPC   C2B 3836  16.240  43.145   8.250
 3312POPC   C3B 3837  16.187  43.127   7.950
 3312POPC   C4B 3838  16.166  43.131   7.650
 3313POPC   NC3 3839  10.524   5.848   9.450
 3313POPC   PO4 3840  10.479   5.842   9.150
 3313POPC   GL1 3841  10.571   5.827   8.850
 3313POPC   GL2 3842  10.561   5.711   8.850
 3313POPC   C1A 3843  10.567   5.890   8.550
 3313POPC   D2A 3844  10.476   5.833   8.250
 3313POPC   C3A 3845  10.545   5.849   7.950
 3313POPC   C4A 3846  10.569   5.858   7.650
 3313POPC   C1B 3847  10.617   5.640   8.550
 3313POPC   C2B 3848  10.648   5.677   8.250
 3313POPC   C3B 3849  10.600   5.661   7.950
 3313POPC   C4B 3850  10.649   5.612   7.650
 3314POPC   NC3 3851  39.274  44.684   9.450
 3314POPC   PO4 3852  39.199  44.615   9.150
 3314POPC   GL1 3853  39.265  44.638   8.850
 3314POPC   GL2 3854  39.164  44.576   8.850
 3314POPC   C1A 3855  39.235  44.690   8.550
 3314POPC   D2A 3856  39.195  44.701   8.250
 3314POPC   C3A 3857  39.207  44.674   7.950
 3314POPC   C4A 3858  39.197  44.686   7.650
 3314POPC   C1B 3859  39.032  44.571   8.550
 3314POPC   C2B 3860  39.010  44.572   8.250
 3314POPC   C3B 3861  38.981  44.595   7.950
 3314POPC   C4B 3862  39.050  44.516   7.650
 3315POPC   NC3 3863   7.397   1.201   9.450
 3315POPC   PO4 3864   7.406   1.244   9.150
 3315POPC   GL1 3865   7.459   1.194   8.850
 3315POPC   GL2 3866   7.563   1.261   8.850
 3315POPC   C1A 3867   7.441   1.194   8.550
 3315POPC   D2A 3868   7.401   1.202   8.250
 3315POPC   C3A 3869   7.388   1.217   7.950
 3315POPC   C4A 3870   7.376   1.180   7.650
 3315POPC   C1B 3871   7.639   1.320   8.550
 3315POPC   C2B 3872   7.604   1.330   8.250
 3315POPC   C3B 3873   7.647   1.384   7.950
 3315POPC   C4B 3874   7.685   1.380   7.650
 3316POPC   NC3 3875  26.026  21.352   9.450
 3316POPC   PO4 3876  26.015  21.366   9.150
 3316POPC   GL1 3877  26.077  21.384   8.850
 3316POPC   GL2 3878  26.016  21.526   8.850
 3316POPC   C1A 3879  26.028  21.353   8.550
 3316POPC   D2A 3880  26.061  21.368   8.250
 3316POPC   C3A 3881  26.091  21.349   7.950
 3316POPC   C4A 3882  25.995  21.364   7.650
 3316POPC   C1B 3883  26.013  21.609   8.550
 3316POPC   C2B 3884  26.004  21.679   8.250
 3316POPC   C3B 3885  26.033  21.668   7.950
 3316POPC   C4B 3886  26.012  21.601   7.650
 3317POPC   NC3 3887  40.027  33.769   9.450
 3317POPC   PO4 3888  39.974  33.831   9.150
 3317POPC   GL1 3889  40.017  33.813   8.850
 3317POPC   GL2 3890  39.915  33.873   8.850
 3317POPC   C1A 3891  39.964  33.801   8.550
 3317POPC   D2A 3892  39.969  33.814   8.250
 3317POPC   C3A 3893  39.976  33.761   7.950
 3317POPC   C4A 3894  39.988  33.845   7.650
 3317POPC   C1B 3895  39.896  34.042   8.550
 3317POPC   C2B 3896  39.905  34.073   8.250
 3317POPC   C3B 3897  39.868  34.007   7.950
 3317POPC   C4B 3898  39.909  34.044   7.650
 3318POPC   NC3 3899  10.523  23.740   9.450
 3318POPC   PO4 3900  10.572  23.758   9.150
 3318POPC   GL1 3901  10.562  23.695   8.850
 3318POPC   GL2 3902  10.590  23.780   8.850
 3318POPC   C1A 3903  10.571  23.715   8.550
 3318POPC   D2A 3904  10.537  23.673   8.250
 3318POPC   C3A 3905  10.482  23.742   7.950
 3318POPC   C4A 3906  10.499  23.672   7.650
 3318POPC   C1B 3907  10.665  23.955   8.550
 3318POPC   C2B 3908  10.651  23.958   8.250
 3318POPC   C3B 3909  10.633  23.934   7.950
 3318POPC   C4B 3910  10.626  23.897   7.650
 3319POPC   NC3 3911  23.736  16.705   9.450
 3319POPC   PO4 3912  23.732  16.742   9.150
 3319POPC   GL1 3913  23.751  16.759   8.850
 3319POPC   GL2 3914  23.789  16.762   8.850
 3319POPC   C1A 3915  23.691  16.691   8.550
 3319POPC   D2A 3916  23.761  16.768   8.250
 3319POPC   C3A 3917  23.739  16.701   7.950
 3319POPC   C4A 3918  23.704  16.768   7.650
 3319POPC   C1B 3919  23.927  16.770   8.550
 3319POPC   C2B 3920  23.977  16.825   8.250
 3319POPC   C3B 3921  23.988  16.820   7.950
 3319POPC   C4B 3922  23.997  16.825   7.650
 3320POPC   NC3 3923   5.906  38.440   9.450
 3320POPC   PO4 3924   5.894  38.445   9.150
 3320POPC   GL1 3925   5.870  38.462   8.850
 3320POPC   GL2 3926   5.891  38.575   8.850
 3320POPC   C1A 3927   5.878  38.500   8.550
 3320POPC   D2A 3928   5.869  38.433   8.250
 3320POPC   C3A 3929   5.910  38.495   7.950
 3320POPC   C4A 3930   5.863  38.457   7.650
 3320POPC   C1B 3931   5.918  38.702   8.550
 3320POPC   C2B 3932   5.957  38.732   8.250
 3320POPC   C3B 3933   5.868  38.699   7.950
 3320POPC   C4B 3934   5.960  38.749   7.650
 3321POPC   NC3 3935  36.130  22.918   9.450
 3321POPC   PO4 3936  36.104  22.926   9.150
 3321POPC   GL1 3937  36.099  22.897   8.850
 3321POPC   GL2 3938  36.119  22.788   8.850
 3321POPC   C1A 3939  36.165  22.957   8.550
 3321POPC   D2A 3940  36.177  22.973   8.250
 3321POPC   C3A 3941  36.113  22.902   7.950
 3321POPC   C4A 3942  36.161  22.975   7.650
 3321POPC   C1B 3943  36.001  22.690   8.550
 3321POPC   C2B 3944  36.005  22.698   8.250
 3321POPC   C3B 3945  36.031  22.696   7.950
 3321POPC   C4B 3946  36.019  22.732   7.650
 3322POPC   NC3 3947  37.684  26.854   9.450
 3322POPC   PO4 3948  37.635  26.796   9.150
 3322POPC   GL1 3949  37.703  26.834   8.850
 3322POPC   GL2 3950  37.684  26.692   8.850
 3322POPC   C1A 3951  37.630  26.787   8.550
 3322POPC   D2A 3952  37.633  26.814   8.250
 3322POPC   C3A 3953  37.660  26.834   7.950
 3322POPC   C4A 3954  37.700  26.838   7.650
 3322POPC   C1B 3955  37.738  26.537   8.550
 3322POPC   C2B 3956  37.719  26.595   8.250
 3322POPC   C3B 3957  37.697  26.538   7.950
 3322POPC   C4B 3958  37.715  26.612   7.650
 3323POPC   NC3 3959   8.923   3.538   9.450
 3323POPC   PO4 3960   8.951   3.548   9.150
 3323POPC   GL1 3961   8.963   3.564   8.850
 3323POPC   GL2 3962   9.001   3.386   8.850
 3323POPC   C1A 3963   8.962   3.591   8.550
 3323POPC   D2A 3964   8.961   3.559   8.250
 3323POPC   C3A 3965   9.020   3.497   7.950
 3323POPC   C4A 3966   8.960   3.498   7.650
 3323POPC   C1B 3967   9.025   3.292   8.550
 3323POPC   C2B 3968   9.017   3.310   8.250
 3323POPC   C3B 3969   9.034   3.325   7.950
 3323POPC   C4B 3970   9.031   3.276   7.650
 3324POPC   NC3 3971  35.344   6.669   9.450
 3324POPC   PO4 3972  35.375   6.632   9.150
 3324POPC   GL1 3973  35.324   6.676   8.850
 3324POPC   GL2 3974  35.405   6.501   8.850
 3324POPC   C1A 3975  35.378   6.668   8.550
 3324POPC   D2A 3976  35.306   6.608   8.250
 3324POPC   C3A 3977  35.377   6.628   7.950
 3324POPC   C4A 3978  35.312   6.608   7.650
 3324POPC   C1B 3979  35.535   6.460   8.550
 3324POPC   C2B 3980  35.510   6.479   8.250
 3324POPC   C3B 3981  35.484   6.465   7.950
 3324POPC   C4B 3982  35.480   6.419   7.650
 3325POPC   NC3 3983  17.525  41.572   9.450
 3325POPC   PO4 3984  17.542  41.525   9.150
 3325POPC   GL1 3985  17.527  41.577   8.850
 3325POPC   GL2 3986  17.545  41.389   8.850
 3325POPC   C1A 3987  17.488  41.564   8.550
 3325POPC   D2A 3988  17.530  41.592   8.250
 3325POPC   C3A 3989  17.490  41.582   7.950
 3325POPC   C4A 3990  17.491  41.527   7.650
 3325POPC   C1B 3991  17.552  41.312   8.550
 3325POPC   C2B 3992  17.557  41.311   8.250
 3325POPC   C3B 3993  17.610  41.316   7.950
 3325POPC   C4B 3994  17.529  41.357   7.650
 3326POPC   NC3 3995  19.042   5.882   9.450
 3326POPC   PO4 3996  19.023   5.907   9.150
 3326POPC   GL1 3997  19.037   5.851   8.850
 3326POPC   GL2 3998  19.217   5.921   8.850
 3326POPC   C1A 3999  19.047   5.855   8.550
 3326POPC   D2A 4000  19.030   5.826   8.250
 3326POPC   C3A 4001  19.039   5.824   7.950
 3326POPC   C4A 4002  19.059   5.865   7.650
 3326POPC   C1B 4003  19.250   5.960   8.550
 3326POPC   C2B 4004  19.304   5.934   8.250
 3326POPC   C3B 4005  19.299   5.940   7.950
 3326POPC   C4B 4006  19.237   5.983   7.650
 3327POPC   NC3 4007  40.005   4.292   9.450
 3327POPC   PO4 4008  40.024   4.363   9.150
 3327POPC   GL1 4009  40.044   4.294   8.850
 3327POPC   GL2 4010  39.881   4.267   8.850
 3327POPC   C1A 4011  39.966   4.300   8.550
 3327POPC   D2A 4012  40.034   4.344   8.250
 3327POPC   C3A 4013  39.982   4.276   7.950
 3327POPC   C4A 4014  40.031   4.327   7.650
 3327POPC   C1B 4015  39.804   4.271   8.550
 3327POPC   C2B 4016  39.756   4.193   8.250
 3327POPC   C3B 4017  39.798   4.199   7.950
 3327POPC   C4B 4018  39.726   4.243   7.650
 3328POPC   NC3 4019  31.429  39.248   9.450
 3328POPC   PO4 4020  31.516  39.202   9.150
 3328POPC   GL1 4021  31.436  39.273   8.850
 3328POPC   GL2 4022  31.542  39.348   8.850
 3328POPC   C1A 4023  31.450  39.253   8.550
 3328POPC   D2A 4024  31.514  39.280   8.250
 3328POPC   C3A 4025  31.485  39.218   7.950
 3328POPC   C4A 4026  31.441  39.268   7.650
 3328POPC   C1B 4027  31.539  39.461   8.550
 3328POPC   C2B 4028  31.583  39.417   8.250
 3328POPC   C3B 4029  31.521  39.465   7.950
 3328POPC   C4B 4030  31.610  39.433   7.650
 3329POPC   NC3 4031  22.190  35.345   9.450
 3329POPC   PO4 4032  22.178  35.304   9.150
 3329POPC   GL1 4033  22.127  35.320   8.850
 3329POPC   GL2 4034  22.092  35.225   8.850
 3329POPC   C1A 4035  22.123  35.379   8.550
 3329POPC   D2A 4036  22.122  35.367   8.250
 3329POPC   C3A 4037  22.199  35.340   7.950
 3329POPC   C4A 4038  22.198  35.328   7.650
 3329POPC   C1B 4039  22.080  35.105   8.550
 3329POPC   C2B 4040  21.982  35.163   8.250
 3329POPC   C3B 4041  21.995  35.150   7.950
 3329POPC   C4B 4042  22.058  35.109   7.650
 3330POPC   NC3 4043  33.037  28.417   9.450
 3330POPC   PO4 4044  33.015  28.336   9.150
 3330POPC   GL1 4045  32.992  28.348   8.850
 3330POPC   GL2 4046  32.903  28.342   8.850
 3330POPC   C1A 4047  33.025  28.357   8.550
 3330POPC   D2A 4048  33.061  28.352   8.250
 3330POPC   C3A 4049  33.051  28.412   7.950
 3330POPC   C4A 4050  33.005  28.410   7.650
 3330POPC   C1B 4051  32.805  28.367   8.550
 3330POPC   C2B 4052  32.774  28.346   8.250
 3330POPC   C3B 4053  32.756  28.352   7.950
 3330POPC   C4B 4054  32.733  28.317   7.650
 3331POPC   NC3 4055  39.192  24.490   9.450
 3331POPC   PO4 4056  39.213  24.510   9.150
 3331POPC   GL1 4057  39.212  24.493   8.850
 3331POPC   GL2 4058  39.146  24.520   8.850
 3331POPC   C1A 4059  39.269  24.441   8.550
 3331POPC   D2A 4060  39.278  24.509   8.250
 3331POPC   C3A 4061  39.185  24.496   7.950
 3331POPC   C4A 4062  39.244  24.491   7.650
 3331POPC   C1B 4063  38.953  24.530   8.550
 3331POPC   C2B 4064  39.010  24.598   8.250
 3331POPC   C3B 4065  38.985  24.571   7.950
 3331POPC   C4B 4066  38.965  24.611   7.650
 3332POPC   NC3 4067  32.293  25.293   9.450
 3332POPC   PO4 4068  32.273  25.233   9.150
 3332POPC   GL1 4069  32.235  25.278   8.850
 3332POPC   GL2 4070  32.194  25.387   8.850
 3332POPC   C1A 4071  32.230  25.264   8.550
 3332POPC   D2A 4072  32.237  25.231   8.250
 3332POPC   C3A 4073  32.233  25.292   7.950
 3332POPC   C4A 4074  32.268  25.226   7.650
 3332POPC   C1B 4075  32.140  25.449   8.550
 3332POPC   C2B 4076  32.110  25.496   8.250
 3332POPC   C3B 4077  32.163  25.503   7.950
 3332POPC   C4B 4078  32.113  25.461   7.650
 3333POPC   NC3 4079  41.522   1.949   9.450
 3333POPC   PO4 4080  41.543   1.960   9.150
 3333POPC   GL1 4081  41.511   2.009   8.850
 3333POPC   GL2 4082  41.485   1.917   8.850
 3333POPC   C1A 4083  41.548   2.032   8.550
 3333POPC   D2A 4084  41.606   1.954   8.250
 3333POPC   C3A 4085  41.535   1.986   7.950
 3333POPC   C4A 4086  41.516   1.991   7.650
 3333POPC   C1B 4087  41.439   1.760   8.550
 3333POPC   C2B 4088  41.362   1.845   8.250
 3333POPC   C3B 4089  41.361   1.800   7.950
 3333POPC   C4B 4090  41.396   1.778   7.650
 3334POPC   NC3 4091  29.888  26.848   9.450
 3334POPC   PO4 4092  29.952  26.852   9.150
 3334POPC   GL1 4093  29.914  26.787   8.850
 3334POPC   GL2 4094  29.941  26.677   8.850
 3334POPC   C1A 4095  29.959  26.807   8.550
 3334POPC   D2A 4096  29.952  26.826   8.250
 3334POPC   C3A 4097  29.914  26.847   7.950
 3334POPC   C4A 4098  29.971  26.824   7.650
 3334POPC   C1B 4099  30.056  26.582   8.550
 3334POPC   C2B 4100  30.089  26.566   8.250
 3334POPC   C3B 4101  30.075  26.610   7.950
 3334POPC   C4B 4102  30.109  26.613   7.650
 3335POPC   NC3 4103  13.641  30.715   9.450
 3335POPC   PO4 4104  13.617  30.713   9.150
 3335POPC   GL1 4105  13.591  30.690   8.850
 3335POPC   GL2 4106  13.701  30.800   8.850
 3335POPC   C1A 4107  13.665  30.664   8.550
 3335POPC   D2A 4108  13.627  30.655   8.250
 3335POPC   C3A 4109  13.629  30.721   7.950
 3335POPC   C4A 4110  13.649  30.670   7.650
 3335POPC   C1B 4111  13.719  30.895   8.550
 3335POPC   C2B 4112  13.701  30.989   8.250
 3335POPC   C3B 4113  13.632  30.986   7.950
 3335POPC   C4B 4114  13.644  30.901   7.650
 3336POPC   NC3 4115   7.454  12.872   9.450
 3336POPC   PO4 4116   7.454  12.812   9.150
 3336POPC   GL1 4117   7.415  12.845   8.850
 3336POPC   GL2 4118   7.365  12.761   8.850
 3336POPC   C1A 4119   7.424  12.802   8.550
 3336POPC   D2A 4120   7.404  12.879   8.250
 3336POPC   C3A 4121   7.470  12.900   7.950
 3336POPC   C4A 4122   7.443  12.831   7.650
 3336POPC   C1B 4123   7.280  12.682   8.550
 3336POPC   C2B 4124   7.259  12.640   8.250
 3336POPC   C3B 4125   7.189  12.716   7.950
 3336POPC   C4B 4126   7.201  12.685   7.650
 3337POPC   NC3 4127  37.648  11.346   9.450
 3337POPC   PO4 4128  37.716  11.346   9.150
 3337POPC   GL1 4129  37.692  11.267   8.850
 3337POPC   GL2 4130  37.546  11.249   8.850
 3337POPC   C1A 4131  37.698  11.293   8.550
 3337POPC   D2A 4132  37.694  11.265   8.250
 3337POPC   C3A 4133  37.720  11.291   7.950
 3337POPC   C4A 4134  37.702  11.295   7.650
 3337POPC   C1B 4135  37.411  11.228   8.550
 3337POPC   C2B 4136  37.460  11.258   8.250
 3337POPC   C3B 4137  37.422  11.246   7.950
 3337POPC   C4B 4138  37.427  11.300   7.650
 3338POPC   NC3 4139  24.521  10.485   9.450
 3338POPC   PO4 4140  24.512  10.489   9.150
 3338POPC   GL1 4141  24.452  10.483   8.850
 3338POPC   GL2 4142  24.557  10.405   8.850
 3338POPC   C1A 4143  24.482  10.521   8.550
 3338POPC   D2A 4144  24.474  10.493   8.250
 3338POPC   C3A 4145  24.518  10.560   7.950
 3338POPC   C4A 4146  24.486  10.484   7.650
 3338POPC   C1B 4147  24.624  10.347   8.550
 3338POPC   C2B 4148  24.562  10.328   8.250
 3338POPC   C3B 4149  24.590  10.309   7.950
 3338POPC   C4B 4150  24.591  10.307   7.650
 3339POPC   NC3 4151   1.969   9.748   9.450
 3339POPC   PO4 4152   1.976   9.721   9.150
 3339POPC   GL1 4153   2.012   9.790   8.850
 3339POPC   GL2 4154   2.104   9.842   8.850
 3339POPC   C1A 4155   1.983   9.741   8.550
 3339POPC   D2A 4156   1.952   9.744   8.250
 3339POPC   C3A 4157   1.955   9.729   7.950
 3339POPC   C4A 4158   2.014   9.795   7.650
 3339POPC   C1B 4159   2.180   9.906   8.550
 3339POPC   C2B 4160   2.148   9.919   8.250
 3339POPC   C3B 4161   2.172   9.970   7.950
 3339POPC   C4B 4162   2.191   9.920   7.650
 3340POPC   NC3 4163  22.948  31.449   9.450
 3340POPC   PO4 4164  22.954  31.455   9.150
 3340POPC   GL1 4165  22.982  31.491   8.850
 3340POPC   GL2 4166  23.030  31.563   8.850
 3340POPC   C1A 4167  22.969  31.509   8.550
 3340POPC   D2A 4168  22.918  31.482   8.250
 3340POPC   C3A 4169  22.942  31.520   7.950
 3340POPC   C4A 4170  22.901  31.479   7.650
 3340POPC   C1B 4171  23.209  31.619   8.550
 3340POPC   C2B 4172  23.150  31.558   8.250
 3340POPC   C3B 4173  23.149  31.549   7.950
 3340POPC   C4B 4174  23.115  31.545   7.650
 3341POPC   NC3 4175   8.952  39.992   9.450
 3341POPC   PO4 4176   8.954  40.051   9.150
 3341POPC   GL1 4177   8.944  39.989   8.850
 3341POPC   GL2 4178   8.949  40.155   8.850
 3341POPC   C1A 4179   9.009  40.021   8.550
 3341POPC   D2A 4180   9.009  39.975   8.250
 3341POPC   C3A 4181   8.925  40.021   7.950
 3341POPC   C4A 4182   9.018  40.041   7.650
 3341POPC   C1B 4183   8.875  40.273   8.550
 3341POPC   C2B 4184   8.869  40.289   8.250
 3341POPC   C3B 4185   8.921  40.232   7.950
 3341POPC   C4B 4186   8.931  40.273   7.650
 3342POPC   NC3 4187   0.463   2.014   9.450
 3342POPC   PO4 4188   0.480   1.948   9.150
 3342POPC   GL1 4189   0.394   2.014   8.850
 3342POPC   GL2 4190   0.375   1.955   8.850
 3342POPC   C1A 4191   0.483   2.018   8.550
 3342POPC   D2A 4192   0.430   2.007   8.250
 3342POPC   C3A 4193   0.472   1.948   7.950
 3342POPC   C4A 4194   0.394   1.999   7.650
 3342POPC   C1B 4195   0.227   1.847   8.550
 3342POPC   C2B 4196   0.214   1.901   8.250
 3342POPC   C3B 4197   0.219   1.835   7.950
 3342POPC   C4B 4198   0.209   1.881   7.650
 3343POPC   NC3 4199   2.017   8.158   9.450
 3343POPC   PO4 4200   2.002   8.185   9.150
 3343POPC   GL1 4201   1.997   8.175   8.850
 3343POPC   GL2 4202   1.978   8.110   8.850
 3343POPC   C1A 4203   1.953   8.178   8.550
 3343POPC   D2A 4204   1.978   8.193   8.250
 3343POPC   C3A 4205   1.973   8.184   7.950
 3343POPC   C4A 4206   1.947   8.204   7.650
 3343POPC   C1B 4207   1.959   7.936   8.550
 3343POPC   C2B 4208   2.011   7.942   8.250
 3343POPC   C3B 4209   2.006   7.963   7.950
 3343POPC   C4B 4210   1.940   7.927   7.650
 3344POPC   NC3 4211  39.258  12.863   9.450
 3344POPC   PO4 4212  39.203  12.817   9.150
 3344POPC   GL1 4213  39.276  12.818   8.850
 3344POPC   GL2 4214  39.161  12.990   8.850
 3344POPC   C1A 4215  39.246  12.857   8.550
 3344POPC   D2A 4216  39.273  12.813   8.250
 3344POPC   C3A 4217  39.183  12.898   7.950
 3344POPC   C4A 4218  39.214  12.866   7.650
 3344POPC   C1B 4219  39.193  13.046   8.550
 3344POPC   C2B 4220  39.111  13.123   8.250
 3344POPC   C3B 4221  39.196  13.115   7.950
 3344POPC   C4B 4222  39.134  13.069   7.650
 3345POPC   NC3 4223   4.355  18.312   9.450
 3345POPC   PO4 4224   4.268  18.245   9.150
 3345POPC   GL1 4225   4.338  18.237   8.850
 3345POPC   GL2 4226   4.425  18.342   8.850
 3345POPC   C1A 4227   4.292  18.305   8.550
 3345POPC   D2A 4228   4.299  18.258   8.250
 3345POPC   C3A 4229   4.330  18.255   7.950
 3345POPC   C4A 4230   4.355  18.308   7.650
 3345POPC   C1B 4231   4.544  18.404   8.550
 3345POPC   C2B 4232   4.560  18.379   8.250
 3345POPC   C3B 4233   4.548  18.431   7.950
 3345POPC   C4B 4234   4.510  18.438   7.650
 3346POPC   NC3 4235  29.151   1.227   9.450
 3346POPC   PO4 4236  29.108   1.226   9.150
 3346POPC   GL1 4237  29.183   1.242   8.850
 3346POPC   GL2 4238  29.019   1.176   8.850
 3346POPC   C1A 4239  29.181   1.217   8.550
 3346POPC   D2A 4240  29.176   1.169   8.250
 3346POPC   C3A 4241  29.134   1.215   7.950
 3346POPC   C4A 4242  29.153   1.227   7.650
 3346POPC   C1B 4243  28.951   1.092   8.550
 3346POPC   C2B 4244  28.940   1.060   8.250
 3346POPC   C3B 4245  28.972   1.096   7.950
 3346POPC   C4B 4246  28.975   1.107   7.650
 3347POPC   NC3 4247  20.583  10.539   9.450
 3347POPC   PO4 4248  20.642  10.498   9.150
 3347POPC   GL1 4249  20.573  10.550   8.850
 3347POPC   GL2 4250  20.670  10.636   8.850
 3347POPC   C1A 4251  20.605  10.556   8.550
 3347POPC   D2A 4252  20.633  10.508   8.250
 3347POPC   C3A 4253  20.654  10.497   7.950
 3347POPC   C4A 4254  20.592  10.531   7.650
 3347POPC   C1B 4255  20.763  10.686   8.550
 3347POPC   C2B 4256  20.796  10.744   8.250
 3347POPC   C3B 4257  20.790  10.705   7.950
 3347POPC   C4B 4258  20.726  10.689   7.650
 3348POPC   NC3 4259  12.847  16.722   9.450
 3348POPC   PO4 4260  12.818  16.750   9.150
 3348POPC   GL1 4261  12.852  16.766   8.850
 3348POPC   GL2 4262  12.919  16.887   8.850
 3348POPC   C1A 4263  12.897  16.722   8.550
 3348POPC   D2A 4264  12.832  16.686   8.250
 3348POPC   C3A 4265  12.873  16.684   7.950
 3348POPC   C4A 4266  12.861  16.704   7.650
 3348POPC   C1B 4267  12.954  16.973   8.550
 3348POPC   C2B 4268  12.909  16.979   8.250
 3348POPC   C3B 4269  12.959  16.973   7.950
 3348POPC   C4B 4270  12.957  16.978   7.650
 3349POPC   NC3 4271  36.080   8.161   9.450
 3349POPC   PO4 4272  36.153   8.166   9.150
 3349POPC   GL1 4273  36.107   8.163   8.850
 3349POPC   GL2 4274  36.214   8.226   8.850
 3349POPC   C1A 4275  36.131   8.155   8.550
 3349POPC   D2A 4276  36.105   8.147   8.250
 3349POPC   C3A 4277  36.100   8.182   7.950
 3349POPC   C4A 4278  36.129   8.187   7.650
 3349POPC   C1B 4279  36.358   8.177   8.550
 3349POPC   C2B 4280  36.349   8.180   8.250
 3349POPC   C3B 4281  36.426   8.189   7.950
 3349POPC   C4B 4282  36.345   8.229   7.650
 3350POPC   NC3 4283  17.532  27.610   9.450
 3350POPC   PO4 4284  17.530  27.548   9.150
 3350POPC   GL1 4285  17.461  27.606   8.850
 3350POPC   GL2 4286  17.580  27.676   8.850
 3350POPC   C1A 4287  17.500  27.546   8.550
 3350POPC   D2A 4288  17.524  27.568   8.250
 3350POPC   C3A 4289  17.555  27.610   7.950
 3350POPC   C4A 4290  17.513  27.642   7.650
 3350POPC   C1B 4291  17.540  27.860   8.550
 3350POPC   C2B 4292  17.566  27.815   8.250
 3350POPC   C3B 4293  17.556  27.838   7.950
 3350POPC   C4B 4294  17.579  27.841   7.650
 3351POPC   NC3 4295  43.132   6.631   9.450
 3351POPC   PO4 4296  43.144   6.634   9.150
 3351POPC   GL1 4297  43.159   6.667   8.850
 3351POPC   GL2 4298  43.022   6.485   8.850
 3351POPC   C1A 4299  43.146   6.623   8.550
 3351POPC   D2A 4300  43.158   6.600   8.250
 3351POPC   C3A 4301  43.134   6.692   7.950
 3351POPC   C4A 4302  43.147   6.611   7.650
 3351POPC   C1B 4303  42.950   6.437   8.550
 3351POPC   C2B 4304  43.024   6.398   8.250
 3351POPC   C3B 4305  43.038   6.467   7.950
 3351POPC   C4B 4306  42.972   6.401   7.650
 3352POPC   NC3 4307  21.392  35.371   9.450
 3352POPC   PO4 4308  21.417  35.378   9.150
 3352POPC   GL1 4309  21.343  35.389   8.850
 3352POPC   GL2 4310  21.560  35.321   8.850
 3352POPC   C1A 4311  21.384  35.377   8.550
 3352POPC   D2A 4312  21.366  35.377   8.250
 3352POPC   C3A 4313  21.404  35.374   7.950
 3352POPC   C4A 4314  21.405  35.395   7.650
 3352POPC   C1B 4315  21.632  35.418   8.550
 3352POPC   C2B 4316  21.663  35.349   8.250
 3352POPC   C3B 4317  21.586  35.360   7.950
 3352POPC   C4B 4318  21.668  35.326   7.650
 3353POPC   NC3 4319  40.015   0.427   9.450
 3353POPC   PO4 4320  39.995   0.417   9.150
 3353POPC   GL1 4321  40.036   0.389   8.850
 3353POPC   GL2 4322  39.961   0.309   8.850
 3353POPC   C1A 4323  39.980   0.424   8.550
 3353POPC   D2A 4324  40.001   0.471   8.250
 3353POPC   C3A 4325  39.978   0.412   7.950
 3353POPC   C4A 4326  40.019   0.414   7.650
 3353POPC   C1B 4327  39.983   0.236   8.550
 3353POPC   C2B 4328  39.969   0.163   8.250
 3353POPC   C3B 4329  40.021   0.213   7.950
 3353POPC   C4B 4330  39.962   0.166   7.650
 3354POPC   NC3 4331  11.321  19.793   9.450
 3354POPC   PO4 4332  11.305  19.864   9.150
 3354POPC   GL1 4333  11.255  19.871   8.850
 3354POPC   GL2 4334  11.141  19.851   8.850
 3354POPC   C1A 4335  11.335  19.795   8.550
 3354POPC   D2A 4336  11.251  19.883   8.250
 3354POPC   C3A 4337  11.290  19.853   7.950
 3354POPC   C4A 4338  11.269  19.826   7.650
 3354POPC   C1B 4339  11.047  19.800   8.550
 3354POPC   C2B 4340  11.094  19.756   8.250
 3354POPC   C3B 4341  11.006  19.764   7.950
 3354POPC   C4B 4342  11.077  19.785   7.650
 3355POPC   NC3 4343  33.830  33.788   9.450
 3355POPC   PO4 4344  33.838  33.753   9.150
 3355POPC   GL1 4345  33.794  33.839   8.850
 3355POPC   GL2 4346  33.880  33.893   8.850
 3355POPC   C1A 4347  33.779  33.756   8.550
 3355POPC   D2A 4348  33.840  33.782   8.250
 3355POPC   C3A 4349  33.792  33.842   7.950
 3355POPC   C4A 4350  33.848  33.849   7.650
 3355POPC   C1B 4351  33.861  34.003   8.550
 3355POPC   C2B 4352  33.865  34.003   8.250
 3355POPC   C3B 4353  33.894  34.015   7.950
 3355POPC   C4B 4354  33.898  34.044   7.650
 3356POPC   NC3 4355  36.918  24.490   9.450
 3356POPC   PO4 4356  36.932  24.523   9.150
 3356POPC   GL1 4357  36.897  24.462   8.850
 3356POPC   GL2 4358  37.006  24.578   8.850
 3356POPC   C1A 4359  36.932  24.510   8.550
 3356POPC   D2A 4360  36.929  24.512   8.250
 3356POPC   C3A 4361  36.854  24.469   7.950
 3356POPC   C4A 4362  36.918  24.518   7.650
 3356POPC   C1B 4363  37.139  24.580   8.550
 3356POPC   C2B 4364  37.136  24.544   8.250
 3356POPC   C3B 4365  37.161  24.570   7.950
 3356POPC   C4B 4366  37.140  24.631   7.650
 3357POPC   NC3 4367  36.943  33.065   9.450
 3357POPC   PO4 4368  36.883  33.018   9.150
 3357POPC   GL1 4369  36.866  32.982   8.850
 3357POPC   GL2 4370  36.918  32.904   8.850
 3357POPC   C1A 4371  36.890  33.025   8.550
 3357POPC   D2A 4372  36.892  33.059   8.250
 3357POPC   C3A 4373  36.929  33.041   7.950
 3357POPC   C4A 4374  36.917  32.985   7.650
 3357POPC   C1B 4375  36.972  32.733   8.550
 3357POPC   C2B 4376  36.951  32.741   8.250
 3357POPC   C3B 4377  36.992  32.752   7.950
 3357POPC   C4B 4378  36.981  32.804   7.650
 3358POPC   NC3 4379   1.255   1.230   9.450
 3358POPC   PO4 4380   1.202   1.201   9.150
 3358POPC   GL1 4381   1.250   1.188   8.850
 3358POPC   GL2 4382   1.279   1.375   8.850
 3358POPC   C1A 4383   1.215   1.260   8.550
 3358POPC   D2A 4384   1.185   1.173   8.250
 3358POPC   C3A 4385   1.188   1.243   7.950
 3358POPC   C4A 4386   1.204   1.252   7.650
 3358POPC   C1B 4387   1.290   1.415   8.550
 3358POPC   C2B 4388   1.221   1.503   8.250
 3358POPC   C3B 4389   1.227   1.448   7.950
 3358POPC   C4B 4390   1.232   1.435   7.650
 3359POPC   NC3 4391  44.710  36.143   9.450
 3359POPC   PO4 4392  44.680  36.121   9.150
 3359POPC   GL1 4393  44.618  36.150   8.850
 3359POPC   GL2 4394  44.766  36.229   8.850
 3359POPC   C1A 4395  44.673  36.142   8.550
 3359POPC   D2A 4396  44.677  36.087   8.250
 3359POPC   C3A 4397  44.706  36.165   7.950
 3359POPC   C4A 4398  44.677  36.138   7.650
 3359POPC   C1B 4399  44.757  36.384   8.550
 3359POPC   C2B 4400  44.779  36.326   8.250
 3359POPC   C3B 4401  44.839  36.309   7.950
 3359POPC   C4B 4402  44.820  36.323   7.650
 3360POPC   NC3 4403  11.291  39.256   9.450
 3360POPC   PO4 4404  11.274  39.261   9.150
 3360POPC   GL1 4405  11.329  39.281   8.850
 3360POPC   GL2 4406  11.208  39.250   8.850
 3360POPC   C1A 4407  11.276  39.216   8.550
 3360POPC   D2A 4408  11.313  39.233   8.250
 3360POPC   C3A 4409  11.307  39.187   7.950
 3360POPC   C4A 4410  11.310  39.193   7.650
 3360POPC   C1B 4411  11.041  39.328   8.550
 3360POPC   C2B 4412  11.085  39.325   8.250
 3360POPC   C3B 4413  11.111  39.295   7.950
 3360POPC   C4B 4414  11.059  39.276   7.650
 3361POPC   NC3 4415  25.308  22.139   9.450
 3361POPC   PO4 4416  25.290  22.119   9.150
 3361POPC   GL1 4417  25.243  22.116   8.850
 3361POPC   GL2 4418  25.354  22.240   8.850
 3361POPC   C1A 4419  25.221  22.188   8.550
 3361POPC   D2A 4420  25.265  22.143   8.250
 3361POPC   C3A 4421  25.254  22.207   7.950
 3361POPC   C4A 4422  25.301  22.153   7.650
 3361POPC   C1B 4423  25.494  22.295   8.550
 3361POPC   C2B 4424  25.417  22.289   8.250
 3361POPC   C3B 4425  25.464  22.344   7.950
 3361POPC   C4B 4426  25.462  22.320   7.650
 3362POPC   NC3 4427  21.431  27.575   9.450
 3362POPC   PO4 4428  21.373  27.571   9.150
 3362POPC   GL1 4429  21.384  27.639   8.850
 3362POPC   GL2 4430  21.488  27.580   8.850
 3362POPC   C1A 4431  21.397  27.638   8.550
 3362POPC   D2A 4432  21.357  27.550   8.250
 3362POPC   C3A 4433  21.411  27.629   7.950
 3362POPC   C4A 4434  21.341  27.587   7.650
 3362POPC   C1B 4435  21.587  27.596   8.550
 3362POPC   C2B 4436  21.605  27.589   8.250
 3362POPC   C3B 4437  21.587  27.582   7.950
 3362POPC   C4B 4438  21.587  27.519   7.650
 3363POPC   NC3 4439  43.110   0.406   9.450
 3363POPC   PO4 4440  43.084   0.478   9.150
 3363POPC   GL1 4441  43.083   0.433   8.850
 3363POPC   GL2 4442  42.961   0.457   8.850
 3363POPC   C1A 4443  43.146   0.482   8.550
 3363POPC   D2A 4444  43.075   0.466   8.250
 3363POPC   C3A 4445  43.117   0.418   7.950
 3363POPC   C4A 4446  43.139   0.419   7.650
 3363POPC   C1B 4447  42.833   0.537   8.550
 3363POPC   C2B 4448  42.915   0.502   8.250
 3363POPC   C3B 4449  42.873   0.480   7.950
 3363POPC   C4B 4450  42.892   0.541   7.650
 3364POPC   NC3 4451  19.815  35.378   9.450
 3364POPC   PO4 4452  19.860  35.388   9.150
 3364POPC   GL1 4453  19.823  35.318   8.850
 3364POPC   GL2 4454  19.977  35.382   8.850
 3364POPC   C1A 4455  19.835  35.326   8.550
 3364POPC   D2A 4456  19.847  35.333   8.250
 3364POPC   C3A 4457  19.851  35.388   7.950
 3364POPC   C4A 4458  19.804  35.387   7.650
 3364POPC   C1B 4459  20.053  35.329   8.550
 3364POPC   C2B 4460  20.063  35.330   8.250
 3364POPC   C3B 4461  20.110  35.310   7.950
 3364POPC   C4B 4462  20.048  35.324   7.650
 3365POPC   NC3 4463   6.655  33.819   9.450
 3365POPC   PO4 4464   6.633  33.786   9.150
 3365POPC   GL1 4465   6.662  33.800   8.850
 3365POPC   GL2 4466   6.619  33.905   8.850
 3365POPC   C1A 4467   6.667  33.794   8.550
 3365POPC   D2A 4468   6.629  33.778   8.250
 3365POPC   C3A 4469   6.651  33.842   7.950
 3365POPC   C4A 4470   6.674  33.771   7.650
 3365POPC   C1B 4471   6.579  34.021   8.550
 3365POPC   C2B 4472   6.610  34.022   8.250
 3365POPC   C3B 4473   6.562  33.995   7.950
 3365POPC   C4B 4474   6.589  33.996   7.650
 3366POPC   NC3 4475  32.236  43.149   9.450
 3366POPC   PO4 4476  32.219  43.152   9.150
 3366POPC   GL1 4477  32.224  43.118   8.850
 3366POPC   GL2 4478  32.374  43.084   8.850
 3366POPC   C1A 4479  32.285  43.142   8.550
 3366POPC   D2A 4480  32.255  43.139   8.250
 3366POPC   C3A 4481  32.255  43.093   7.950
 3366POPC   C4A 4482  32.257  43.154   7.650
 3366POPC   C1B 4483  32.526  43.061   8.550
 3366POPC   C2B 4484  32.471  43.095   8.250
 3366POPC   C3B 4485  32.520  43.126   7.950
 3366POPC   C4B 4486  32.470  43.128   7.650
 3367POPC   NC3 4487  35.371   8.176   9.450
 3367POPC   PO4 4488  35.362   8.154   9.150
 3367POPC   GL1 4489  35.308   8.206   8.850
 3367POPC   GL2 4490  35.303   8.102   8.850
 3367POPC   C1A 4491  35.364   8.219   8.550
 3367POPC   D2A 4492  35.390   8.217   8.250
 3367POPC   C3A 4493  35.374   8.187   7.950
 3367POPC   C4A 4494  35.311   8.197   7.650
 3367POPC   C1B 4495  35.361   7.903   8.550
 3367POPC   C2B 4496  35.363   7.979   8.250
 3367POPC   C3B 4497  35.338   7.920   7.950
 3367POPC   C4B 4498  35.323   7.954   7.650
 3368POPC   NC3 4499  26.042  15.200   9.450
 3368POPC   PO4 4500  26.082  15.145   9.150
 3368POPC   GL1 4501  26.083  15.158   8.850
 3368POPC   GL2 4502  26.056  15.071   8.850
 3368POPC   C1A 4503  26.026  15.220   8.550
 3368POPC   D2A 4504  26.034  15.210   8.250
 3368POPC   C3A 4505  26.052  15.145   7.950
 3368POPC   C4A 4506  26.061  15.203   7.650
 3368POPC   C1B 4507  26.154  14.957   8.550
 3368POPC   C2B 4508  26.140  14.902   8.250
 3368POPC   C3B 4509  26.141  14.957   7.950
 3368POPC   C4B 4510  26.109  14.919   7.650
 3369POPC   NC3 4511  43.113  43.127   9.450
 3369POPC   PO4 4512  43.154  43.145   9.150
 3369POPC   GL1 4513  43.074  43.116   8.850
 3369POPC   GL2 4514  43.000  42.989   8.850
 3369POPC   C1A 4515  43.137  43.160   8.550
 3369POPC   D2A 4516  43.089  43.145   8.250
 3369POPC   C3A 4517  43.090  43.101   7.950
 3369POPC   C4A 4518  43.067  43.122   7.650
 3369POPC   C1B 4519  42.986  42.954   8.550
 3369POPC   C2B 4520  42.961  42.952   8.250
 3369POPC   C3B 4521  42.973  42.868   7.950
 3369POPC   C4B 4522  42.974  42.953   7.650
 3370POPC   NC3 4523  33.041  40.757   9.450
 3370POPC   PO4 4524  33.072  40.734   9.150
 3370POPC   GL1 4525  33.074  40.771   8.850
 3370POPC   GL2 4526  33.077  40.664   8.850
 3370POPC   C1A 4527  33.017  40.793   8.550
 3370POPC   D2A 4528  33.006  40.810   8.250
 3370POPC   C3A 4529  32.983  40.799   7.950
 3370POPC   C4A 4530  33.058  40.808   7.650
 3370POPC   C1B 4531  33.158  40.564   8.550
 3370POPC   C2B 4532  33.241  40.609   8.250
 3370POPC   C3B 4533  33.219  40.646   7.950
 3370POPC   C4B 4534  33.182  40.645   7.650
 3371POPC   NC3 4535  37.703   9.715   9.450
 3371POPC   PO4 4536  37.683   9.716   9.150
 3371POPC   GL1 4537  37.680   9.791   8.850
 3371POPC   GL2 4538  37.663   9.647   8.850
 3371POPC   C1A 4539  37.725   9.792   8.550
 3371POPC   D2A 4540  37.696   9.744   8.250
 3371POPC   C3A 4541  37.719   9.708   7.950
 3371POPC   C4A 4542  37.683   9.710   7.650
 3371POPC   C1B 4543  37.743   9.520   8.550
 3371POPC   C2B 4544  37.674   9.456   8.250
 3371POPC   C3B 4545  37.738   9.467   7.950
 3371POPC   C4B 4546  37.696   9.521   7.650
 3372POPC   NC3 4547  37.697  28.397   9.450
 3372POPC   PO4 4548  37.651  28.344   9.150
 3372POPC   GL1 4549  37.665  28.372   8.850
 3372POPC   GL2 4550  37.553  28.343   8.850
 3372POPC   C1A 4551  37.678  28.348   8.550
 3372POPC   D2A 4552  37.719  28.411   8.250
 3372POPC   C3A 4553  37.636  28.371   7.950
 3372POPC   C4A 4554  37.674  28.397   7.650
 3372POPC   C1B 4555  37.467  28.361   8.550
 3372POPC   C2B 4556  37.432  28.330   8.250
 3372POPC   C3B 4557  37.395  28.346   7.950
 3372POPC   C4B 4558  37.467  28.359   7.650
 3373POPC   NC3 4559  34.543   7.382   9.450
 3373POPC   PO4 4560  34.616   7.394   9.150
 3373POPC   GL1 4561  34.600   7.471   8.850
 3373POPC   GL2 4562  34.631   7.503   8.850
 3373POPC   C1A 4563  34.529   7.467   8.550
 3373POPC   D2A 4564  34.528   7.434   8.250
 3373POPC   C3A 4565  34.589   7.400   7.950
 3373POPC   C4A 4566  34.590   7.435   7.650
 3373POPC   C1B 4567  34.755   7.594   8.550
 3373POPC   C2B 4568  34.736   7.569   8.250
 3373POPC   C3B 4569  34.759   7.657   7.950
 3373POPC   C4B 4570  34.694   7.598   7.650
 3374POPC   NC3 4571  44.683  15.965   9.450
 3374POPC   PO4 4572  44.613  15.934   9.150
 3374POPC   GL1 4573  44.637  15.938   8.850
 3374POPC   GL2 4574  44.620  15.806   8.850
 3374POPC   C1A 4575  44.689  15.999   8.550
 3374POPC   D2A 4576  44.674  16.000   8.250
 3374POPC   C3A 4577  44.682  15.967   7.950
 3374POPC   C4A 4578  44.686  15.924   7.650
 3374POPC   C1B 4579  44.640  15.748   8.550
 3374POPC   C2B 4580  44.666  15.732   8.250
 3374POPC   C3B 4581  44.590  15.686   7.950
 3374POPC   C4B 4582  44.641  15.687   7.650
 3375POPC   NC3 4583  26.776  43.135   9.450
 3375POPC   PO4 4584  26.810  43.128   9.150
 3375POPC   GL1 4585  26.775  43.134   8.850
 3375POPC   GL2 4586  26.911  43.191   8.850
 3375POPC   C1A 4587  26.848  43.153   8.550
 3375POPC   D2A 4588  26.803  43.131   8.250
 3375POPC   C3A 4589  26.810  43.144   7.950
 3375POPC   C4A 4590  26.805  43.074   7.650
 3375POPC   C1B 4591  27.070  43.225   8.550
 3375POPC   C2B 4592  27.045  43.226   8.250
 3375POPC   C3B 4593  27.032  43.262   7.950
 3375POPC   C4B 4594  27.066  43.276   7.650
 3376POPC   NC3 4595  41.537   4.349   9.450
 3376POPC   PO4 4596  41.528   4.306   9.150
 3376POPC   GL1 4597  41.540   4.297   8.850
 3376POPC   GL2 4598  41.648   4.393   8.850
 3376POPC   C1A 4599  41.596   4.353   8.550
 3376POPC   D2A 4600  41.556   4.321   8.250
 3376POPC   C3A 4601  41.601   4.292   7.950
 3376POPC   C4A 4602  41.547   4.338   7.650
 3376POPC   C1B 4603  41.781   4.464   8.550
 3376POPC   C2B 4604  41.706   4.437   8.250
 3376POPC   C3B 4605  41.781   4.488   7.950
 3376POPC   C4B 4606  41.697   4.486   7.650
 3377POPC   NC3 4607  19.087  19.849   9.450
 3377POPC   PO4 4608  19.067  19.877   9.150
 3377POPC   GL1 4609  19.036  19.853   8.850
 3377POPC   GL2 4610  19.173  19.925   8.850
 3377POPC   C1A 4611  19.024  19.795   8.550
 3377POPC   D2A 4612  19.050  19.881   8.250
 3377POPC   C3A 4613  19.101  19.854   7.950
 3377POPC   C4A 4614  19.012  19.835   7.650
 3377POPC   C1B 4615  19.288  19.914   8.550
 3377POPC   C2B 4616  19.333  19.926   8.250
 3377POPC   C3B 4617  19.258  19.908   7.950
 3377POPC   C4B 4618  19.303  19.962   7.650
 3378POPC   NC3 4619  39.273   4.361   9.450
 3378POPC   PO4 4620  39.246   4.287   9.150
 3378POPC   GL1 4621  39.201   4.291   8.850
 3378POPC   GL2 4622  39.125   4.363   8.850
 3378POPC   C1A 4623  39.199   4.307   8.550
 3378POPC   D2A 4624  39.204   4.288   8.250
 3378POPC   C3A 4625  39.261   4.305   7.950
 3378POPC   C4A 4626  39.272   4.323   7.650
 3378POPC   C1B 4627  39.040   4.490   8.550
 3378POPC   C2B 4628  39.083   4.449   8.250
 3378POPC   C3B 4629  39.065   4.482   7.950
 3378POPC   C4B 4630  39.095   4.506   7.650
 3379POPC   NC3 4631  11.343   4.290   9.450
 3379POPC   PO4 4632  11.342   4.288   9.150
 3379POPC   GL1 4633  11.280   4.291   8.850
 3379POPC   GL2 4634  11.457   4.364   8.850
 3379POPC   C1A 4635  11.257   4.331   8.550
 3379POPC   D2A 4636  11.302   4.301   8.250
 3379POPC   C3A 4637  11.305   4.311   7.950
 3379POPC   C4A 4638  11.313   4.361   7.650
 3379POPC   C1B 4639  11.557   4.418   8.550
 3379POPC   C2B 4640  11.543   4.487   8.250
 3379POPC   C3B 4641  11.471   4.464   7.950
 3379POPC   C4B 4642  11.544   4.394   7.650
 3380POPC   NC3 4643  18.319  36.953   9.450
 3380POPC   PO4 4644  18.242  36.936   9.150
 3380POPC   GL1 4645  18.247  36.871   8.850
 3380POPC   GL2 4646  18.326  37.016   8.850
 3380POPC   C1A 4647  18.240  36.889   8.550
 3380POPC   D2A 4648  18.304  36.941   8.250
 3380POPC   C3A 4649  18.295  36.899   7.950
 3380POPC   C4A 4650  18.243  36.856   7.650
 3380POPC   C1B 4651  18.417  37.101   8.550
 3380POPC   C2B 4652  18.406  37.153   8.250
 3380POPC   C3B 4653  18.377  37.172   7.950
 3380POPC   C4B 4654  18.387  37.097   7.650
 3381POPC   NC3 4655  25.266  32.978   9.450
 3381POPC   PO4 4656  25.245  32.999   9.150
 3381POPC   GL1 4657  25.266  32.989   8.850
 3381POPC   GL2 4658  25.282  32.933   8.850
 3381POPC   C1A 4659  25.246  33.074   8.550
 3381POPC   D2A 4660  25.251  32.979   8.250
 3381POPC   C3A 4661  25.262  32.981   7.950
 3381POPC   C4A 4662  25.249  33.012   7.650
 3381POPC   C1B 4663  25.288  32.772   8.550
 3381POPC   C2B 4664  25.222  32.747   8.250
 3381POPC   C3B 4665  25.259  32.725   7.950
 3381POPC   C4B 4666  25.241  32.769   7.650
 3382POPC   NC3 4667  19.023  35.347   9.450
 3382POPC   PO4 4668  19.104  35.365   9.150
 3382POPC   GL1 4669  19.059  35.394   8.850
 3382POPC   GL2 4670  19.104  35.226   8.850
 3382POPC   C1A 4671  19.065  35.370   8.550
 3382POPC   D2A 4672  19.090  35.303   8.250
 3382POPC   C3A 4673  19.080  35.314   7.950
 3382POPC   C4A 4674  19.095  35.324   7.650
 3382POPC   C1B 4675  19.101  35.137   8.550
 3382POPC   C2B 4676  19.075  35.121   8.250
 3382POPC   C3B 4677  19.137  35.108   7.950
 3382POPC   C4B 4678  19.070  35.118   7.650
 3383POPC   NC3 4679  13.605  11.273   9.450
 3383POPC   PO4 4680  13.606  11.294   9.150
 3383POPC   GL1 4681  13.626  11.317   8.850
 3383POPC   GL2 4682  13.507  11.315   8.850
 3383POPC   C1A 4683  13.654  11.338   8.550
 3383POPC   D2A 4684  13.628  11.313   8.250
 3383POPC   C3A 4685  13.641  11.273   7.950
 3383POPC   C4A 4686  13.650  11.350   7.650
 3383POPC   C1B 4687  13.424  11.267   8.550
 3383POPC   C2B 4688  13.433  11.268   8.250
 3383POPC   C3B 4689  13.355  11.273   7.950
 3383POPC   C4B 4690  13.337  11.263   7.650
 3384POPC   NC3 4691  10.544  34.598   9.450
 3384POPC   PO4 4692  10.489  34.624   9.150
 3384POPC   GL1 4693  10.560  34.605   8.850
 3384POPC   GL2 4694  10.591  34.508   8.850
 3384POPC   C1A 4695  10.554  34.563   8.550
 3384POPC   D2A 4696  10.520  34.607   8.250
 3384POPC   C3A 4697  10.543  34.589   7.950
 3384POPC   C4A 4698  10.514  34.554   7.650
 3384POPC   C1B 4699  10.693  34.495   8.550
 3384POPC   C2B 4700  10.716  34.485   8.250
 3384POPC   C3B 4701  10.713  34.461   7.950
 3384POPC   C4B 4702  10.741  34.403   7.650
 3385POPC   NC3 4703  10.532   8.953   9.450
 3385POPC   PO4 4704  10.568   9.004   9.150
 3385POPC   GL1 4705  10.535   8.950   8.850
 3385POPC   GL2 4706  10.417   8.966   8.850
 3385POPC   C1A 4707  10.499   9.017   8.550
 3385POPC   D2A 4708  10.507   9.006   8.250
 3385POPC   C3A 4709  10.507   9.015   7.950
 3385POPC   C4A 4710  10.497   8.963   7.650
 3385POPC   C1B 4711  10.336   8.836   8.550
 3385POPC   C2B 4712  10.271   8.873   8.250
 3385POPC   C3B 4713  10.282   8.920   7.950
 3385POPC   C4B 4714  10.320   8.901   7.650
 3386POPC   NC3 4715  12.900  33.064   9.450
 3386POPC   PO4 4716  12.834  33.028   9.150
 3386POPC   GL1 4717  12.829  33.038   8.850
 3386POPC   GL2 4718  12.755  32.990   8.850
 3386POPC   C1A 4719  12.821  33.003   8.550
 3386POPC   D2A 4720  12.808  33.060   8.250
 3386POPC   C3A 4721  12.854  33.018   7.950
 3386POPC   C4A 4722  12.893  33.049   7.650
 3386POPC   C1B 4723  12.589  32.953   8.550
 3386POPC   C2B 4724  12.585  32.967   8.250
 3386POPC   C3B 4725  12.574  32.960   7.950
 3386POPC   C4B 4726  12.589  33.035   7.650
 3387POPC   NC3 4727   1.216  38.465   9.450
 3387POPC   PO4 4728   1.225  38.470   9.150
 3387POPC   GL1 4729   1.238  38.430   8.850
 3387POPC   GL2 4730   1.112  38.538   8.850
 3387POPC   C1A 4731   1.218  38.498   8.550
 3387POPC   D2A 4732   1.194  38.487   8.250
 3387POPC   C3A 4733   1.234  38.494   7.950
 3387POPC   C4A 4734   1.236  38.472   7.650
 3387POPC   C1B 4735   0.989  38.540   8.550
 3387POPC   C2B 4736   1.006  38.517   8.250
 3387POPC   C3B 4737   0.976  38.500   7.950
 3387POPC   C4B 4738   0.946  38.557   7.650
 3388POPC   NC3 4739  43.882  43.908   9.450
 3388POPC   PO4 4740  43.886  43.860   9.150
 3388POPC   GL1 4741  43.855  43.882   8.850
 3388POPC   GL2 4742  44.002  43.802   8.850
 3388POPC   C1A 4743  43.888  43.896   8.550
 3388POPC   D2A 4744  43.849  43.925   8.250
 3388POPC   C3A 4745  43.910  43.935   7.950
 3388POPC   C4A 4746  43.867  43.909   7.650
 3388POPC   C1B 4747  44.145  43.742   8.550
 3388POPC   C2B 4748  44.145  43.803   8.250
 3388POPC   C3B 4749  44.077  43.803   7.950
 3388POPC   C4B 4750  44.104  43.781   7.650
 3389POPC   NC3 4751  28.418  24.462   9.450
 3389POPC   PO4 4752  28.331  24.504   9.150
 3389POPC   GL1 4753  28.370  24.469   8.850
 3389POPC   GL2 4754  28.473  24.430   8.850
 3389POPC   C1A 4755  28.408  24.486   8.550
 3389POPC   D2A 4756  28.388  24.448   8.250
 3389POPC   C3A 4757  28.348  24.516   7.950
 3389POPC   C4A 4758  28.331  24.534   7.650
 3389POPC   C1B 4759  28.617  24.415   8.550
 3389POPC   C2B 4760  28.612  24.323   8.250
 3389POPC   C3B 4761  28.585  24.395   7.950
 3389POPC   C4B 4762  28.550  24.348   7.650
 3390POPC   NC3 4763  41.566  10.563   9.450
 3390POPC   PO4 4764  41.519  10.549   9.150
 3390POPC   GL1 4765  41.525  10.484   8.850
 3390POPC   GL2 4766  41.608  10.389   8.850
 3390POPC   C1A 4767  41.584  10.567   8.550
 3390POPC   D2A 4768  41.553  10.494   8.250
 3390POPC   C3A 4769  41.582  10.542   7.950
 3390POPC   C4A 4770  41.593  10.549   7.650
 3390POPC   C1B 4771  41.763  10.306   8.550
 3390POPC   C2B 4772  41.748  10.387   8.250
 3390POPC   C3B 4773  41.701  10.366   7.950
 3390POPC   C4B 4774  41.692  10.369   7.650
 3391POPC   NC3 4775  39.231   0.479   9.450
 3391POPC   PO4 4776  39.263   0.418   9.150
 3391POPC   GL1 4777  39.268   0.427   8.850
 3391POPC   GL2 4778  39.284   0.590   8.850
 3391POPC   C1A 4779  39.270   0.399   8.550
 3391POPC   D2A 4780  39.192   0.389   8.250
 3391POPC   C3A 4781  39.226   0.472   7.950
 3391POPC   C4A 4782  39.206   0.461   7.650
 3391POPC   C1B 4783  39.316   0.659   8.550
 3391POPC   C2B 4784  39.373   0.682   8.250
 3391POPC   C3B 4785  39.337   0.649   7.950
 3391POPC   C4B 4786  39.357   0.709   7.650
 3392POPC   NC3 4787  36.941  39.962   9.450
 3392POPC   PO4 4788  36.867  40.010   9.150
 3392POPC   GL1 4789  36.861  40.005   8.850
 3392POPC   GL2 4790  36.938  40.138   8.850
 3392POPC   C1A 4791  36.945  40.023   8.550
 3392POPC   D2A 4792  36.919  40.051   8.250
 3392POPC   C3A 4793  36.859  39.994   7.950
 3392POPC   C4A 4794  36.898  40.029   7.650
 3392POPC   C1B 4795  36.895  40.250   8.550
 3392POPC   C2B 4796  36.948  40.277   8.250
 3392POPC   C3B 4797  36.883  40.300   7.950
 3392POPC   C4B 4798  36.899  40.285   7.650
 3393POPC   NC3 4799   1.212  36.097   9.450
 3393POPC   PO4 4800   1.212  36.082   9.150
 3393POPC   GL1 4801   1.233  36.168   8.850
 3393POPC   GL2 4802   1.174  35.980   8.850
 3393POPC   C1A 4803   1.202  36.141   8.550
 3393POPC   D2A 4804   1.177  36.139   8.250
 3393POPC   C3A 4805   1.256  36.084   7.950
 3393POPC   C4A 4806   1.220  36.109   7.650
 3393POPC   C1B 4807   1.168  35.842   8.550
 3393POPC   C2B 4808   1.164  35.914   8.250
 3393POPC   C3B 4809   1.141  35.888   7.950
 3393POPC   C4B 4810   1.162  35.835   7.650
 3394POPC   NC3 4811  12.895  30.701   9.450
 3394POPC   PO4 4812  12.813  30.691   9.150
 3394POPC   GL1 4813  12.827  30.659   8.850
 3394POPC   GL2 4814  13.015  30.750   8.850
 3394POPC   C1A 4815  12.881  30.684   8.550
 3394POPC   D2A 4816  12.827  30.679   8.250
 3394POPC   C3A 4817  12.865  30.695   7.950
 3394POPC   C4A 4818  12.830  30.707   7.650
 3394POPC   C1B 4819  13.106  30.789   8.550
 3394POPC   C2B 4820  13.068  30.694   8.250
 3394POPC   C3B 4821  13.112  30.718   7.950
 3394POPC   C4B 4822  13.077  30.785   7.650
 3395POPC   NC3 4823  40.742  43.132   9.450
 3395POPC   PO4 4824  40.748  43.085   9.150
 3395POPC   GL1 4825  40.775  43.099   8.850
 3395POPC   GL2 4826  40.712  43.009   8.850
 3395POPC   C1A 4827  40.754  43.094   8.550
 3395POPC   D2A 4828  40.817  43.064   8.250
 3395POPC   C3A 4829  40.783  43.137   7.950
 3395POPC   C4A 4830  40.765  43.109   7.650
 3395POPC   C1B 4831  40.549  42.938   8.550
 3395POPC   C2B 4832  40.570  42.921   8.250
 3395POPC   C3B 4833  40.611  42.903   7.950
 3395POPC   C4B 4834  40.558  42.932   7.650
 3396POPC   NC3 4835   1.256  29.152   9.450
 3396POPC   PO4 4836   1.188  29.185   9.150
 3396POPC   GL1 4837   1.220  29.164   8.850
 3396POPC   GL2 4838   1.282  29.276   8.850
 3396POPC   C1A 4839   1.237  29.102   8.550
 3396POPC   D2A 4840   1.166  29.168   8.250
 3396POPC   C3A 4841   1.222  29.175   7.950
 3396POPC   C4A 4842   1.223  29.150   7.650
 3396POPC   C1B 4843   1.356  29.329   8.550
 3396POPC   C2B 4844   1.364  29.371   8.250
 3396POPC   C3B 4845   1.439  29.314   7.950
 3396POPC   C4B 4846   1.365  29.292   7.650
 3397POPC   NC3 4847  34.561   0.451   9.450
 3397POPC   PO4 4848  34.610   0.448   9.150
 3397POPC   GL1 4849  34.542   0.413   8.850
 3397POPC   GL2 4850  34.497   0.487   8.850
 3397POPC   C1A 4851  34.584   0.417   8.550
 3397POPC   D2A 4852  34.579   0.390   8.250
 3397POPC   C3A 4853  34.585   0.398   7.950
 3397POPC   C4A 4854  34.590   0.410   7.650
 3397POPC   C1B 4855  34.340   0.520   8.550
 3397POPC   C2B 4856  34.360   0.513   8.250
 3397POPC   C3B 4857  34.293   0.522   7.950
 3397POPC   C4B 4858  34.326   0.485   7.650
 3398POPC   NC3 4859  22.934  21.403   9.450
 3398POPC   PO4 4860  22.891  21.383   9.150
 3398POPC   GL1 4861  22.923  21.395   8.850
 3398POPC   GL2 4862  22.930  21.457   8.850
 3398POPC   C1A 4863  22.974  21.384   8.550
 3398POPC   D2A 4864  22.971  21.362   8.250
 3398POPC   C3A 4865  22.938  21.406   7.950
 3398POPC   C4A 4866  22.960  21.339   7.650
 3398POPC   C1B 4867  23.027  21.664   8.550
 3398POPC   C2B 4868  23.032  21.650   8.250
 3398POPC   C3B 4869  22.966  21.652   7.950
 3398POPC   C4B 4870  23.037  21.645   7.650
 3399POPC   NC3 4871   3.575  15.980   9.450
 3399POPC   PO4 4872   3.507  15.917   9.150
 3399POPC   GL1 4873   3.550  15.945   8.850
 3399POPC   GL2 4874   3.419  15.918   8.850
 3399POPC   C1A 4875   3.500  15.931   8.550
 3399POPC   D2A 4876   3.557  15.947   8.250
 3399POPC   C3A 4877   3.534  15.990   7.950
 3399POPC   C4A 4878   3.540  15.984   7.650
 3399POPC   C1B 4879   3.325  15.766   8.550
 3399POPC   C2B 4880   3.337  15.810   8.250
 3399POPC   C3B 4881   3.370  15.777   7.950
 3399POPC   C4B 4882   3.329  15.810   7.650
 3400POPC   NC3 4883  10.485  32.272   9.450
 3400POPC   PO4 4884  10.486  32.293   9.150
 3400POPC   GL1 4885  10.543  32.297   8.850
 3400POPC   GL2 4886  10.594  32.170   8.850
 3400POPC   C1A 4887  10.560  32.286   8.550
 3400POPC   D2A 4888  10.564  32.297   8.250
 3400POPC   C3A 4889  10.566  32.290   7.950
 3400POPC   C4A 4890  10.521  32.276   7.650
 3400POPC   C1B 4891  10.540  31.968   8.550
 3400POPC   C2B 4892  10.573  32.037   8.250
 3400POPC   C3B 4893  10.583  32.041   7.950
 3400POPC   C4B 4894  10.615  32.037   7.650
 3401POPC   NC3 4895   9.712  24.523   9.450
 3401POPC   PO4 4896   9.791  24.527   9.150
 3401POPC   GL1 4897   9.727  24.498   8.850
 3401POPC   GL2 4898   9.648  24.598   8.850
 3401POPC   C1A 4899   9.786  24.512   8.550
 3401POPC   D2A 4900   9.789  24.440   8.250
 3401POPC   C3A 4901   9.775  24.476   7.950
 3401POPC   C4A 4902   9.722  24.447   7.650
 3401POPC   C1B 4903   9.526  24.601   8.550
 3401POPC   C2B 4904   9.583  24.659   8.250
 3401POPC   C3B 4905   9.534  24.599   7.950
 3401POPC   C4B 4906   9.525  24.625   7.650
 3402POPC   NC3 4907  29.174   5.906   9.450
 3402POPC   PO4 4908  29.117   5.863   9.150
 3402POPC   GL1 4909  29.107   5.913   8.850
 3402POPC   GL2 4910  29.302   5.871   8.850
 3402POPC   C1A 4911  29.118   5.896   8.550
 3402POPC   D2A 4912  29.110   5.842   8.250
 3402POPC   C3A 4913  29.111   5.879   7.950
 3402POPC   C4A 4914  29.159   5.870   7.650
 3402POPC   C1B 4915  29.339   5.917   8.550
 3402POPC   C2B 4916  29.363   5.981   8.250
 3402POPC   C3B 4917  29.374   5.924   7.950
 3402POPC   C4B 4918  29.420   5.952   7.650
 3403POPC   NC3 4919  18.265  34.567   9.450
 3403POPC   PO4 4920  18.288  34.580   9.150
 3403POPC   GL1 4921  18.247  34.607   8.850
 3403POPC   GL2 4922  18.334  34.471   8.850
 3403POPC   C1A 4923  18.274  34.601   8.550
 3403POPC   D2A 4924  18.302  34.581   8.250
 3403POPC   C3A 4925  18.233  34.547   7.950
 3403POPC   C4A 4926  18.276  34.556   7.650
 3403POPC   C1B 4927  18.467  34.400   8.550
 3403POPC   C2B 4928  18.508  34.425   8.250
 3403POPC   C3B 4929  18.499  34.423   7.950
 3403POPC   C4B 4930  18.527  34.393   7.650
 3404POPC   NC3 4931   1.960  39.194   9.450
 3404POPC   PO4 4932   1.941  39.230   9.150
 3404POPC   GL1 4933   1.951  39.241   8.850
 3404POPC   GL2 4934   2.012  39.333   8.850
 3404POPC   C1A 4935   2.004  39.197   8.550
 3404POPC   D2A 4936   1.951  39.236   8.250
 3404POPC   C3A 4937   1.952  39.205   7.950
 3404POPC   C4A 4938   1.963  39.257   7.650
 3404POPC   C1B 4939   1.947  39.465   8.550
 3404POPC   C2B 4940   2.033  39.442   8.250
 3404POPC   C3B 4941   2.018  39.464   7.950
 3404POPC   C4B 4942   1.981  39.461   7.650
 3405POPC   NC3 4943  15.136  12.081   9.450
 3405POPC   PO4 4944  15.187  12.056   9.150
 3405POPC   GL1 4945  15.168  12.105   8.850
 3405POPC   GL2 4946  15.081  11.999   8.850
 3405POPC   C1A 4947  15.207  12.076   8.550
 3405POPC   D2A 4948  15.178  12.071   8.250
 3405POPC   C3A 4949  15.132  12.107   7.950
 3405POPC   C4A 4950  15.177  12.074   7.650
 3405POPC   C1B 4951  15.023  11.849   8.550
 3405POPC   C2B 4952  15.074  11.862   8.250
 3405POPC   C3B 4953  15.037  11.885   7.950
 3405POPC   C4B 4954  15.003  11.886   7.650
 3406POPC   NC3 4955  11.336   2.756   9.450
 3406POPC   PO4 4956  11.309   2.728   9.150
 3406POPC   GL1 4957  11.317   2.728   8.850
 3406POPC   GL2 4958  11.306   2.841   8.850
 3406POPC   C1A 4959  11.273   2.722   8.550
 3406POPC   D2A 4960  11.263   2.775   8.250
 3406POPC   C3A 4961  11.300   2.814   7.950
 3406POPC   C4A 4962  11.335   2.811   7.650
 3406POPC   C1B 4963  11.227   2.986   8.550
 3406POPC   C2B 4964  11.223   2.970   8.250
 3406POPC   C3B 4965  11.230   2.988   7.950
 3406POPC   C4B 4966  11.207   3.048   7.650
 3407POPC   NC3 4967  37.681  36.097   9.450
 3407POPC   PO4 4968  37.694  36.158   9.150
 3407POPC   GL1 4969  37.721  36.097   8.850
 3407POPC   GL2 4970  37.732  36.022   8.850
 3407POPC   C1A 4971  37.713  36.083   8.550
 3407POPC   D2A 4972  37.664  36.157   8.250
 3407POPC   C3A 4973  37.677  36.098   7.950
 3407POPC   C4A 4974  37.647  36.143   7.650
 3407POPC   C1B 4975  37.767  35.885   8.550
 3407POPC   C2B 4976  37.709  35.861   8.250
 3407POPC   C3B 4977  37.758  35.848   7.950
 3407POPC   C4B 4978  37.749  35.911   7.650
 3408POPC   NC3 4979  19.062  43.928   9.450
 3408POPC   PO4 4980  19.069  43.906   9.150
 3408POPC   GL1 4981  19.068  43.854   8.850
 3408POPC   GL2 4982  19.169  43.960   8.850
 3408POPC   C1A 4983  19.047  43.884   8.550
 3408POPC   D2A 4984  19.108  43.865   8.250
 3408POPC   C3A 4985  19.057  43.916   7.950
 3408POPC   C4A 4986  19.036  43.892   7.650
 3408POPC   C1B 4987  19.170  44.135   8.550
 3408POPC   C2B 4988  19.184  44.110   8.250
 3408POPC   C3B 4989  19.206  44.115   7.950
 3408POPC   C4B 4990  19.141  44.127   7.650
 3409POPC   NC3 4991  23.743  15.908   9.450
 3409POPC   PO4 4992  23.763  15.967   9.150
 3409POPC   GL1 4993  23.689  15.964   8.850
 3409POPC   GL2 4994  23.735  15.846   8.850
 3409POPC   C1A 4995  23.722  15.906   8.550
 3409POPC   D2A 4996  23.697  15.920   8.250
 3409POPC   C3A 4997  23.678  15.961   7.950
 3409POPC   C4A 4998  23.719  15.976   7.650
 3409POPC   C1B 4999  23.717  15.668   8.550
 3409POPC   C2B 5000  23.712  15.726   8.250
 3409POPC   C3B 5001  23.702  15.702   7.950
 3409POPC   C4B 5002  23.716  15.724   7.650
 3410POPC   NC3 5003  21.427  26.819   9.450
 3410POPC   PO4 5004  21.402  26.849   9.150
 3410POPC   GL1 5005  21.371  26.839   8.850
 3410POPC   GL2 5006  21.283  26.936   8.850
 3410POPC   C1A 5007  21.394  26.858   8.550
 3410POPC   D2A 5008  21.365  26.840   8.250
 3410POPC   C3A 5009  21.431  26.859   7.950
 3410POPC   C4A 5010  21.423  26.792   7.650
 3410POPC   C1B 5011  21.152  26.967   8.550
 3410POPC   C2B 5012  21.217  26.951   8.250
 3410POPC   C3B 5013  21.147  27.004   7.950
 3410POPC   C4B 5014  21.201  26.928   7.650
 3411POPC   NC3 5015  28.403  25.251   9.450
 3411POPC   PO4 5016  28.378  25.307   9.150
 3411POPC   GL1 5017  28.396  25.259   8.850
 3411POPC   GL2 5018  28.274  25.165   8.850
 3411POPC   C1A 5019  28.370  25.218   8.550
 3411POPC   D2A 5020  28.387  25.258   8.250
 3411POPC   C3A 5021  28.417  25.274   7.950
 3411POPC   C4A 5022  28.363  25.250   7.650
 3411POPC   C1B 5023  28.145  25.153   8.550
 3411POPC   C2B 5024  28.179  25.161   8.250
 3411POPC   C3B 5025  28.128  25.133   7.950
 3411POPC   C4B 5026  28.119  25.135   7.650
 3412POPC   NC3 5027  10.569  44.651   9.450
 3412POPC   PO4 5028  10.492  44.628   9.150
 3412POPC   GL1 5029  10.541  44.695   8.850
 3412POPC   GL2 5030  10.501  44.758   8.850
 3412POPC   C1A 5031  10.541  44.646   8.550
 3412POPC   D2A 5032  10.558  44.655   8.250
 3412POPC   C3A 5033  10.516  44.682   7.950
 3412POPC   C4A 5034  10.522  44.691   7.650
 3412POPC   C1B 5035  10.392  44.889   8.550
 3412POPC   C2B 5036  10.388  44.919   8.250
 3412POPC   C3B 5037  10.447  44.880   7.950
 3412POPC   C4B 5038  10.445  44.888   7.650
 3413POPC   NC3 5039  40.747  38.451   9.450
 3413POPC   PO4 5040  40.763  38.450   9.150
 3413POPC   GL1 5041  40.807  38.406   8.850
 3413POPC   GL2 5042  40.779  38.590   8.850
 3413POPC   C1A 5043  40.812  38.461   8.550
 3413POPC   D2A 5044  40.769  38.419   8.250
 3413POPC   C3A 5045  40.820  38.423   7.950
 3413POPC   C4A 5046  40.778  38.467   7.650
 3413POPC   C1B 5047  40.790  38.671   8.550
 3413POPC   C2B 5048  40.781  38.702   8.250
 3413POPC   C3B 5049  40.823  38.712   7.950
 3413POPC   C4B 5050  40.782  38.674   7.650
 3414POPC   NC3 5051   1.215  28.352   9.450
 3414POPC   PO4 5052   1.193  28.359   9.150
 3414POPC   GL1 5053   1.203  28.356   8.850
 3414POPC   GL2 5054   1.157  28.339   8.850
 3414POPC   C1A 5055   1.198  28.350   8.550
 3414POPC   D2A 5056   1.197  28.361   8.250
 3414POPC   C3A 5057   1.237  28.376   7.950
 3414POPC   C4A 5058   1.215  28.384   7.650
 3414POPC   C1B 5059   0.969  28.182   8.550
 3414POPC   C2B 5060   1.021  28.201   8.250
 3414POPC   C3B 5061   1.017  28.205   7.950
 3414POPC   C4B 5062   1.030  28.217   7.650
 3415POPC   NC3 5063  43.860  25.250   9.450
 3415POPC   PO4 5064  43.933  25.243   9.150
 3415POPC   GL1 5065  43.868  25.291   8.850
 3415POPC   GL2 5066  44.010  25.155   8.850
 3415POPC   C1A 5067  43.894  25.231   8.550
 3415POPC   D2A 5068  43.919  25.244   8.250
 3415POPC   C3A 5069  43.924  25.305   7.950
 3415POPC   C4A 5070  43.894  25.297   7.650
 3415POPC   C1B 5071  44.044  25.102   8.550
 3415POPC   C2B 5072  44.062  25.023   8.250
 3415POPC   C3B 5073  44.012  25.051   7.950
 3415POPC   C4B 5074  44.001  25.098   7.650
 3416POPC   NC3 5075  29.898  33.024   9.450
 3416POPC   PO4 5076  29.916  33.057   9.150
 3416POPC   GL1 5077  29.891  33.061   8.850
 3416POPC   GL2 5078  29.812  32.972   8.850
 3416POPC   C1A 5079  29.921  32.994   8.550
 3416POPC   D2A 5080  29.910  33.037   8.250
 3416POPC   C3A 5081  29.953  33.018   7.950
 3416POPC   C4A 5082  29.888  33.074   7.650
 3416POPC   C1B 5083  29.712  32.892   8.550
 3416POPC   C2B 5084  29.659  32.902   8.250
 3416POPC   C3B 5085  29.636  32.912   7.950
 3416POPC   C4B 5086  29.724  32.980   7.650
 3417POPC   NC3 5087   8.992  12.890   9.450
 3417POPC   PO4 5088   8.961  12.830   9.150
 3417POPC   GL1 5089   8.927  12.841   8.850
 3417POPC   GL2 5090   9.033  12.757   8.850
 3417POPC   C1A 5091   9.022  12.887   8.550
 3417POPC   D2A 5092   9.006  12.868   8.250
 3417POPC   C3A 5093   8.964  12.822   7.950
 3417POPC   C4A 5094   9.017  12.808   7.650
 3417POPC   C1B 5095   9.051  12.636   8.550
 3417POPC   C2B 5096   9.069  12.599   8.250
 3417POPC   C3B 5097   9.117  12.669   7.950
 3417POPC   C4B 5098   9.134  12.589   7.650
 3418POPC   NC3 5099  41.534  17.473   9.450
 3418POPC   PO4 5100  41.525  17.548   9.150
 3418POPC   GL1 5101  41.559  17.483   8.850
 3418POPC   GL2 5102  41.560  17.363   8.850
 3418POPC   C1A 5103  41.603  17.464   8.550
 3418POPC   D2A 5104  41.570  17.518   8.250
 3418POPC   C3A 5105  41.584  17.494   7.950
 3418POPC   C4A 5106  41.512  17.530   7.650
 3418POPC   C1B 5107  41.445  17.316   8.550
 3418POPC   C2B 5108  41.503  17.268   8.250
 3418POPC   C3B 5109  41.474  17.231   7.950
 3418POPC   C4B 5110  41.495  17.277   7.650
 3419POPC   NC3 5111  34.585  33.768   9.450
 3419POPC   PO4 5112  34.538  33.768   9.150
 3419POPC   GL1 5113  34.540  33.822   8.850
 3419POPC   GL2 5114  34.560  33.707   8.850
 3419POPC   C1A 5115  34.625  33.814   8.550
 3419POPC   D2A 5116  34.623  33.809   8.250
 3419POPC   C3A 5117  34.535  33.804   7.950
 3419POPC   C4A 5118  34.604  33.766   7.650
 3419POPC   C1B 5119  34.562  33.588   8.550
 3419POPC   C2B 5120  34.551  33.530   8.250
 3419POPC   C3B 5121  34.556  33.578   7.950
 3419POPC   C4B 5122  34.598  33.524   7.650
 3420POPC   NC3 5123  25.257   8.186   9.450
 3420POPC   PO4 5124  25.290   8.197   9.150
 3420POPC   GL1 5125  25.239   8.156   8.850
 3420POPC   GL2 5126  25.369   8.208   8.850
 3420POPC   C1A 5127  25.308   8.161   8.550
 3420POPC   D2A 5128  25.251   8.174   8.250
 3420POPC   C3A 5129  25.298   8.191   7.950
 3420POPC   C4A 5130  25.315   8.166   7.650
 3420POPC   C1B 5131  25.527   8.312   8.550
 3420POPC   C2B 5132  25.509   8.304   8.250
 3420POPC   C3B 5133  25.477   8.267   7.950
 3420POPC   C4B 5134  25.553   8.256   7.650
 3421POPC   NC3 5135  37.634  41.515   9.450
 3421POPC   PO4 5136  37.658  41.585   9.150
 3421POPC   GL1 5137  37.653  41.589   8.850
 3421POPC   GL2 5138  37.753  41.699   8.850
 3421POPC   C1A 5139  37.694  41.592   8.550
 3421POPC   D2A 5140  37.691  41.517   8.250
 3421POPC   C3A 5141  37.691  41.576   7.950
 3421POPC   C4A 5142  37.722  41.516   7.650
 3421POPC   C1B 5143  37.710  41.817   8.550
 3421POPC   C2B 5144  37.774  41.843   8.250
 3421POPC   C3B 5145  37.759  41.774   7.950
 3421POPC   C4B 5146  37.772  41.845   7.650
 3422POPC   NC3 5147  29.955  28.388   9.450
 3422POPC   PO4 5148  29.910  28.394   9.150
 3422POPC   GL1 5149  29.877  28.366   8.850
 3422POPC   GL2 5150  29.980  28.240   8.850
 3422POPC   C1A 5151  29.878  28.319   8.550
 3422POPC   D2A 5152  29.939  28.394   8.250
 3422POPC   C3A 5153  29.915  28.354   7.950
 3422POPC   C4A 5154  29.929  28.399   7.650
 3422POPC   C1B 5155  30.093  28.118   8.550
 3422POPC   C2B 5156  30.012  28.177   8.250
 3422POPC   C3B 5157  29.999  28.194   7.950
 3422POPC   C4B 5158  30.058  28.119   7.650
 3423POPC   NC3 5159   9.735  14.438   9.450
 3423POPC   PO4 5160   9.709  14.427   9.150
 3423POPC   GL1 5161   9.725  14.449   8.850
 3423POPC   GL2 5162   9.739  14.296   8.850
 3423POPC   C1A 5163   9.780  14.405   8.550
 3423POPC   D2A 5164   9.787  14.425   8.250
 3423POPC   C3A 5165   9.770  14.368   7.950
 3423POPC   C4A 5166   9.764  14.372   7.650
 3423POPC   C1B 5167   9.645  14.156   8.550
 3423POPC   C2B 5168   9.635  14.167   8.250
 3423POPC   C3B 5169   9.644  14.169   7.950
 3423POPC   C4B 5170   9.680  14.145   7.650
 3424POPC   NC3 5171  32.216  20.571   9.450
 3424POPC   PO4 5172  32.252  20.644   9.150
 3424POPC   GL1 5173  32.263  20.617   8.850
 3424POPC   GL2 5174  32.299  20.749   8.850
 3424POPC   C1A 5175  32.252  20.588   8.550
 3424POPC   D2A 5176  32.213  20.598   8.250
 3424POPC   C3A 5177  32.203  20.646   7.950
 3424POPC   C4A 5178  32.281  20.639   7.650
 3424POPC   C1B 5179  32.281  20.863   8.550
 3424POPC   C2B 5180  32.270  20.852   8.250
 3424POPC   C3B 5181  32.319  20.869   7.950
 3424POPC   C4B 5182  32.342  20.838   7.650
 3425POPC   NC3 5183  32.254  10.507   9.450
 3425POPC   PO4 5184  32.275  10.561   9.150
 3425POPC   GL1 5185  32.201  10.525   8.850
 3425POPC   GL2 5186  32.272  10.690   8.850
 3425POPC   C1A 5187  32.221  10.484   8.550
 3425POPC   D2A 5188  32.229  10.485   8.250
 3425POPC   C3A 5189  32.204  10.554   7.950
 3425POPC   C4A 5190  32.272  10.534   7.650
 3425POPC   C1B 5191  32.280  10.820   8.550
 3425POPC   C2B 5192  32.270  10.817   8.250
 3425POPC   C3B 5193  32.234  10.768   7.950
 3425POPC   C4B 5194  32.222  10.817   7.650
 3426POPC   NC3 5195  21.423   5.901   9.450
 3426POPC   PO4 5196  21.381   5.908   9.150
 3426POPC   GL1 5197  21.399   5.853   8.850
 3426POPC   GL2 5198  21.264   5.898   8.850
 3426POPC   C1A 5199  21.396   5.830   8.550
 3426POPC   D2A 5200  21.406   5.895   8.250
 3426POPC   C3A 5201  21.433   5.851   7.950
 3426POPC   C4A 5202  21.382   5.875   7.650
 3426POPC   C1B 5203  21.147   5.954   8.550
 3426POPC   C2B 5204  21.139   5.976   8.250
 3426POPC   C3B 5205  21.159   5.988   7.950
 3426POPC   C4B 5206  21.099   5.908   7.650
 3427POPC   NC3 5207  26.070   2.811   9.450
 3427POPC   PO4 5208  26.019   2.784   9.150
 3427POPC   GL1 5209  26.078   2.777   8.850
 3427POPC   GL2 5210  26.131   2.770   8.850
 3427POPC   C1A 5211  26.066   2.807   8.550
 3427POPC   D2A 5212  26.081   2.742   8.250
 3427POPC   C3A 5213  26.045   2.805   7.950
 3427POPC   C4A 5214  26.026   2.808   7.650
 3427POPC   C1B 5215  26.305   2.831   8.550
 3427POPC   C2B 5216  26.298   2.877   8.250
 3427POPC   C3B 5217  26.281   2.803   7.950
 3427POPC   C4B 5218  26.306   2.800   7.650
 3428POPC   NC3 5219  14.396   2.037   9.450
 3428POPC   PO4 5220  14.437   1.974   9.150
 3428POPC   GL1 5221  14.452   2.024   8.850
 3428POPC   GL2 5222  14.467   2.149   8.850
 3428POPC   C1A 5223  14.432   2.014   8.550
 3428POPC   D2A 5224  14.395   2.014   8.250
 3428POPC   C3A 5225  14.402   1.964   7.950
 3428POPC   C4A 5226  14.446   2.028   7.650
 3428POPC   C1B 5227  14.511   2.242   8.550
 3428POPC   C2B 5228  14.472   2.245   8.250
 3428POPC   C3B 5229  14.448   2.267   7.950
 3428POPC   C4B 5230  14.468   2.220   7.650
 3429POPC   NC3 5231   9.012  35.349   9.450
 3429POPC   PO4 5232   8.995  35.359   9.150
 3429POPC   GL1 5233   8.934  35.367   8.850
 3429POPC   GL2 5234   8.909  35.366   8.850
 3429POPC   C1A 5235   8.936  35.383   8.550
 3429POPC   D2A 5236   9.008  35.371   8.250
 3429POPC   C3A 5237   8.934  35.302   7.950
 3429POPC   C4A 5238   8.947  35.320   7.650
 3429POPC   C1B 5239   8.761  35.445   8.550
 3429POPC   C2B 5240   8.726  35.444   8.250
 3429POPC   C3B 5241   8.757  35.419   7.950
 3429POPC   C4B 5242   8.730  35.443   7.650
 3430POPC   NC3 5243  31.459  21.346   9.450
 3430POPC   PO4 5244  31.465  21.432   9.150
 3430POPC   GL1 5245  31.455  21.412   8.850
 3430POPC   GL2 5246  31.363  21.474   8.850
 3430POPC   C1A 5247  31.435  21.385   8.550
 3430POPC   D2A 5248  31.494  21.365   8.250
 3430POPC   C3A 5249  31.519  21.357   7.950
 3430POPC   C4A 5250  31.504  21.395   7.650
 3430POPC   C1B 5251  31.282  21.584   8.550
 3430POPC   C2B 5252  31.300  21.571   8.250
 3430POPC   C3B 5253  31.313  21.538   7.950
 3430POPC   C4B 5254  31.234  21.574   7.650
 3431POPC   NC3 5255  14.443  32.233   9.450
 3431POPC   PO4 5256  14.424  32.297   9.150
 3431POPC   GL1 5257  14.364  32.260   8.850
 3431POPC   GL2 5258  14.460  32.139   8.850
 3431POPC   C1A 5259  14.380  32.254   8.550
 3431POPC   D2A 5260  14.361  32.291   8.250
 3431POPC   C3A 5261  14.371  32.266   7.950
 3431POPC   C4A 5262  14.372  32.254   7.650
 3431POPC   C1B 5263  14.611  32.059   8.550
 3431POPC   C2B 5264  14.629  32.027   8.250
 3431POPC   C3B 5265  14.600  32.114   7.950
 3431POPC   C4B 5266  14.621  32.065   7.650
 3432POPC   NC3 5267  19.853  32.272   9.450
 3432POPC   PO4 5268  19.866  32.199   9.150
 3432POPC   GL1 5269  19.853  32.215   8.850
 3432POPC   GL2 5270  19.780  32.397   8.850
 3432POPC   C1A 5271  19.813  32.225   8.550
 3432POPC   D2A 5272  19.867  32.219   8.250
 3432POPC   C3A 5273  19.865  32.262   7.950
 3432POPC   C4A 5274  19.792  32.268   7.650
 3432POPC   C1B 5275  19.847  32.470   8.550
 3432POPC   C2B 5276  19.788  32.450   8.250
 3432POPC   C3B 5277  19.833  32.447   7.950
 3432POPC   C4B 5278  19.766  32.493   7.650
 3433POPC   NC3 5279  13.620  35.390   9.450
 3433POPC   PO4 5280  13.613  35.345   9.150
 3433POPC   GL1 5281  13.658  35.383   8.850
 3433POPC   GL2 5282  13.752  35.460   8.850
 3433POPC   C1A 5283  13.662  35.345   8.550
 3433POPC   D2A 5284  13.581  35.395   8.250
 3433POPC   C3A 5285  13.669  35.375   7.950
 3433POPC   C4A 5286  13.607  35.350   7.650
 3433POPC   C1B 5287  13.829  35.448   8.550
 3433POPC   C2B 5288  13.833  35.479   8.250
 3433POPC   C3B 5289  13.829  35.526   7.950
 3433POPC   C4B 5290  13.788  35.471   7.650
 3434POPC   NC3 5291  30.669  15.204   9.450
 3434POPC   PO4 5292  30.665  15.142   9.150
 3434POPC   GL1 5293  30.710  15.225   8.850
 3434POPC   GL2 5294  30.622  15.267   8.850
 3434POPC   C1A 5295  30.746  15.193   8.550
 3434POPC   D2A 5296  30.710  15.146   8.250
 3434POPC   C3A 5297  30.697  15.205   7.950
 3434POPC   C4A 5298  30.663  15.178   7.650
 3434POPC   C1B 5299  30.498  15.340   8.550
 3434POPC   C2B 5300  30.543  15.324   8.250
 3434POPC   C3B 5301  30.552  15.400   7.950
 3434POPC   C4B 5302  30.517  15.339   7.650
 3435POPC   NC3 5303  10.478  33.815   9.450
 3435POPC   PO4 5304  10.500  33.781   9.150
 3435POPC   GL1 5305  10.482  33.798   8.850
 3435POPC   GL2 5306  10.439  33.659   8.850
 3435POPC   C1A 5307  10.492  33.838   8.550
 3435POPC   D2A 5308  10.570  33.811   8.250
 3435POPC   C3A 5309  10.505  33.829   7.950
 3435POPC   C4A 5310  10.555  33.781   7.650
 3435POPC   C1B 5311  10.315  33.631   8.550
 3435POPC   C2B 5312  10.379  33.585   8.250
 3435POPC   C3B 5313  10.406  33.624   7.950
 3435POPC   C4B 5314  10.394  33.658   7.650
 3436POPC   NC3 5315  40.044  12.882   9.450
 3436POPC   PO4 5316  39.967  12.820   9.150
 3436POPC   GL1 5317  39.989  12.865   8.850
 3436POPC   GL2 5318  39.933  12.864   8.850
 3436POPC   C1A 5319  40.012  12.864   8.550
 3436POPC   D2A 5320  40.052  12.877   8.250
 3436POPC   C3A 5321  39.964  12.879   7.950
 3436POPC   C4A 5322  39.995  12.881   7.650
 3436POPC   C1B 5323  39.774  12.821   8.550
 3436POPC   C2B 5324  39.722  12.736   8.250
 3436POPC   C3B 5325  39.734  12.750   7.950
 3436POPC   C4B 5326  39.730  12.787   7.650
 3437POPC   NC3 5327  30.703  32.244   9.450
 3437POPC   PO4 5328  30.746  32.266   9.150
 3437POPC   GL1 5329  30.738  32.205   8.850
 3437POPC   GL2 5330  30.808  32.343   8.850
 3437POPC   C1A 5331  30.661  32.213   8.550
 3437POPC   D2A 5332  30.707  32.262   8.250
 3437POPC   C3A 5333  30.745  32.206   7.950
 3437POPC   C4A 5334  30.673  32.261   7.650
 3437POPC   C1B 5335  30.881  32.306   8.550
 3437POPC   C2B 5336  30.975  32.343   8.250
 3437POPC   C3B 5337  30.884  32.311   7.950
 3437POPC   C4B 5338  30.893  32.394   7.650
 3438POPC   NC3 5339   5.128  33.788   9.450
 3438POPC   PO4 5340   5.090  33.755   9.150
 3438POPC   GL1 5341   5.090  33.825   8.850
 3438POPC   GL2 5342   4.945  33.734   8.850
 3438POPC   C1A 5343   5.051  33.780   8.550
 3438POPC   D2A 5344   5.104  33.813   8.250
 3438POPC   C3A 5345   5.086  33.754   7.950
 3438POPC   C4A 5346   5.074  33.850   7.650
 3438POPC   C1B 5347   4.875  33.724   8.550
 3438POPC   C2B 5348   4.844  33.721   8.250
 3438POPC   C3B 5349   4.829  33.723   7.950
 3438POPC   C4B 5350   4.841  33.721   7.650
 3439POPC   NC3 5351  12.857  22.149   9.450
 3439POPC   PO4 5352  12.855  22.180   9.150
 3439POPC   GL1 5353  12.829  22.148   8.850
 3439POPC   GL2 5354  12.764  22.195   8.850
 3439POPC   C1A 5355  12.846  22.157   8.550
 3439POPC   D2A 5356  12.896  22.184   8.250
 3439POPC   C3A 5357  12.854  22.179   7.950
 3439POPC   C4A 5358  12.828  22.170   7.650
 3439POPC   C1B 5359  12.569  22.137   8.550
 3439POPC   C2B 5360  12.632  22.140   8.250
 3439POPC   C3B 5361  12.590  22.172   7.950
 3439POPC   C4B 5362  12.595  22.145   7.650
 3440POPC   NC3 5363  40.043  10.498   9.450
 3440POPC   PO4 5364  39.988  10.497   9.150
 3440POPC   GL1 5365  39.975  10.481   8.850
 3440POPC   GL2 5366  39.966  10.454   8.850
 3440POPC   C1A 5367  40.020  10.526   8.550
 3440POPC   D2A 5368  39.980  10.539   8.250
 3440POPC   C3A 5369  40.012  10.521   7.950
 3440POPC   C4A 5370  39.997  10.483   7.650
 3440POPC   C1B 5371  39.841  10.288   8.550
 3440POPC   C2B 5372  39.897  10.313   8.250
 3440POPC   C3B 5373  39.872  10.270   7.950
 3440POPC   C4B 5374  39.909  10.273   7.650
 3441POPC   NC3 5375  14.411  29.924   9.450
 3441POPC   PO4 5376  14.422  29.956   9.150
 3441POPC   GL1 5377  14.391  29.894   8.850
 3441POPC   GL2 5378  14.496  29.875   8.850
 3441POPC   C1A 5379  14.398  29.952   8.550
 3441POPC   D2A 5380  14.369  29.959   8.250
 3441POPC   C3A 5381  14.413  29.933   7.950
 3441POPC   C4A 5382  14.392  29.911   7.650
 3441POPC   C1B 5383  14.592  29.869   8.550
 3441POPC   C2B 5384  14.676  29.831   8.250
 3441POPC   C3B 5385  14.626  29.809   7.950
 3441POPC   C4B 5386  14.688  29.844   7.650
 3442POPC   NC3 5387  15.945  34.546   9.450
 3442POPC   PO4 5388  16.004  34.606   9.150
 3442POPC   GL1 5389  15.974  34.588   8.850
 3442POPC   GL2 5390  16.029  34.484   8.850
 3442POPC   C1A 5391  15.965  34.558   8.550
 3442POPC   D2A 5392  16.001  34.539   8.250
 3442POPC   C3A 5393  15.927  34.556   7.950
 3442POPC   C4A 5394  15.999  34.559   7.650
 3442POPC   C1B 5395  16.186  34.452   8.550
 3442POPC   C2B 5396  16.162  34.481   8.250
 3442POPC   C3B 5397  16.190  34.485   7.950
 3442POPC   C4B 5398  16.162  34.456   7.650
 3443POPC   NC3 5399  29.157  16.720   9.450
 3443POPC   PO4 5400  29.109  16.682   9.150
 3443POPC   GL1 5401  29.108  16.690   8.850
 3443POPC   GL2 5402  29.232  16.618   8.850
 3443POPC   C1A 5403  29.150  16.710   8.550
 3443POPC   D2A 5404  29.109  16.725   8.250
 3443POPC   C3A 5405  29.131  16.697   7.950
 3443POPC   C4A 5406  29.163  16.746   7.650
 3443POPC   C1B 5407  29.289  16.547   8.550
 3443POPC   C2B 5408  29.297  16.558   8.250
 3443POPC   C3B 5409  29.255  16.560   7.950
 3443POPC   C4B 5410  29.244  16.517   7.650
 3444POPC   NC3 5411  12.831   3.543   9.450
 3444POPC   PO4 5412  12.813   3.570   9.150
 3444POPC   GL1 5413  12.856   3.537   8.850
 3444POPC   GL2 5414  12.775   3.651   8.850
 3444POPC   C1A 5415  12.805   3.518   8.550
 3444POPC   D2A 5416  12.819   3.513   8.250
 3444POPC   C3A 5417  12.856   3.500   7.950
 3444POPC   C4A 5418  12.892   3.514   7.650
 3444POPC   C1B 5419  12.774   3.785   8.550
 3444POPC   C2B 5420  12.766   3.762   8.250
 3444POPC   C3B 5421  12.751   3.807   7.950
 3444POPC   C4B 5422  12.726   3.732   7.650
 3445POPC   NC3 5423  16.695  40.792   9.450
 3445POPC   PO4 5424  16.731  40.789   9.150
 3445POPC   GL1 5425  16.737  40.804   8.850
 3445POPC   GL2 5426  16.624  40.774   8.850
 3445POPC   C1A 5427  16.688  40.807   8.550
 3445POPC   D2A 5428  16.745  40.830   8.250
 3445POPC   C3A 5429  16.687  40.796   7.950
 3445POPC   C4A 5430  16.742  40.734   7.650
 3445POPC   C1B 5431  16.480  40.704   8.550
 3445POPC   C2B 5432  16.517  40.685   8.250
 3445POPC   C3B 5433  16.502  40.683   7.950
 3445POPC   C4B 5434  16.451  40.672   7.650
 3446POPC   NC3 5435  37.723   4.342   9.450
 3446POPC   PO4 5436  37.693   4.323   9.150
 3446POPC   GL1 5437  37.670   4.333   8.850
 3446POPC   GL2 5438  37.542   4.243   8.850
 3446POPC   C1A 5439  37.712   4.310   8.550
 3446POPC   D2A 5440  37.727   4.349   8.250
 3446POPC   C3A 5441  37.675   4.282   7.950
 3446POPC   C4A 5442  37.724   4.268   7.650
 3446POPC   C1B 5443  37.444   4.247   8.550
 3446POPC   C2B 5444  37.483   4.204   8.250
 3446POPC   C3B 5445  37.411   4.293   7.950
 3446POPC   C4B 5446  37.392   4.266   7.650
 3447POPC   NC3 5447   5.121  38.433   9.450
 3447POPC   PO4 5448   5.054  38.442   9.150
 3447POPC   GL1 5449   5.112  38.503   8.850
 3447POPC   GL2 5450   5.245  38.423   8.850
 3447POPC   C1A 5451   5.064  38.465   8.550
 3447POPC   D2A 5452   5.118  38.491   8.250
 3447POPC   C3A 5453   5.062  38.438   7.950
 3447POPC   C4A 5454   5.069  38.434   7.650
 3447POPC   C1B 5455   5.327  38.383   8.550
 3447POPC   C2B 5456   5.347  38.429   8.250
 3447POPC   C3B 5457   5.380  38.408   7.950
 3447POPC   C4B 5458   5.313  38.439   7.650
 3448POPC   NC3 5459  19.049  43.124   9.450
 3448POPC   PO4 5460  19.072  43.087   9.150
 3448POPC   GL1 5461  19.059  43.123   8.850
 3448POPC   GL2 5462  19.165  42.955   8.850
 3448POPC   C1A 5463  19.102  43.101   8.550
 3448POPC   D2A 5464  19.034  43.077   8.250
 3448POPC   C3A 5465  19.030  43.122   7.950
 3448POPC   C4A 5466  19.106  43.136   7.650
 3448POPC   C1B 5467  19.182  42.908   8.550
 3448POPC   C2B 5468  19.147  42.864   8.250
 3448POPC   C3B 5469  19.222  42.883   7.950
 3448POPC   C4B 5470  19.190  42.857   7.650
 3449POPC   NC3 5471  39.238  20.573   9.450
 3449POPC   PO4 5472  39.189  20.637   9.150
 3449POPC   GL1 5473  39.183  20.627   8.850
 3449POPC   GL2 5474  39.161  20.539   8.850
 3449POPC   C1A 5475  39.265  20.594   8.550
 3449POPC   D2A 5476  39.231  20.640   8.250
 3449POPC   C3A 5477  39.186  20.655   7.950
 3449POPC   C4A 5478  39.183  20.610   7.650
 3449POPC   C1B 5479  39.034  20.402   8.550
 3449POPC   C2B 5480  39.016  20.493   8.250
 3449POPC   C3B 5481  39.064  20.445   7.950
 3449POPC   C4B 5482  38.999  20.397   7.650
 3450POPC   NC3 5483  26.028  44.694   9.450
 3450POPC   PO4 5484  26.067  44.612   9.150
 3450POPC   GL1 5485  26.084  44.672   8.850
 3450POPC   GL2 5486  26.158  44.738   8.850
 3450POPC   C1A 5487  26.062  44.673   8.550
 3450POPC   D2A 5488  26.083  44.618   8.250
 3450POPC   C3A 5489  25.998  44.672   7.950
 3450POPC   C4A 5490  26.024  44.644   7.650
 3450POPC   C1B 5491  26.254  44.743   8.550
 3450POPC   C2B 5492  26.282  44.759   8.250
 3450POPC   C3B 5493  26.256  44.736   7.950
 3450POPC   C4B 5494  26.265  44.767   7.650
 3451POPC   NC3 5495  30.669  25.254   9.450
 3451POPC   PO4 5496  30.667  25.294   9.150
 3451POPC   GL1 5497  30.689  25.246   8.850
 3451POPC   GL2 5498  30.607  25.421   8.850
 3451POPC   C1A 5499  30.688  25.260   8.550
 3451POPC   D2A 5500  30.720  25.264   8.250
 3451POPC   C3A 5501  30.681  25.301   7.950
 3451POPC   C4A 5502  30.715  25.241   7.650
 3451POPC   C1B 5503  30.607  25.506   8.550
 3451POPC   C2B 5504  30.571  25.475   8.250
 3451POPC   C3B 5505  30.620  25.532   7.950
 3451POPC   C4B 5506  30.555  25.488   7.650
 3452POPC   NC3 5507   1.201  26.009   9.450
 3452POPC   PO4 5508   1.236  26.065   9.150
 3452POPC   GL1 5509   1.217  26.072   8.850
 3452POPC   GL2 5510   1.296  26.064   8.850
 3452POPC   C1A 5511   1.238  26.048   8.550
 3452POPC   D2A 5512   1.263  26.039   8.250
 3452POPC   C3A 5513   1.205  26.026   7.950
 3452POPC   C4A 5514   1.211  25.998   7.650
 3452POPC   C1B 5515   1.429  26.193   8.550
 3452POPC   C2B 5516   1.409  26.221   8.250
 3452POPC   C3B 5517   1.467  26.195   7.950
 3452POPC   C4B 5518   1.380  26.190   7.650
 3453POPC   NC3 5519  43.119  30.682   9.450
 3453POPC   PO4 5520  43.111  30.692   9.150
 3453POPC   GL1 5521  43.100  30.693   8.850
 3453POPC   GL2 5522  43.093  30.792   8.850
 3453POPC   C1A 5523  43.102  30.714   8.550
 3453POPC   D2A 5524  43.112  30.700   8.250
 3453POPC   C3A 5525  43.130  30.664   7.950
 3453POPC   C4A 5526  43.121  30.656   7.650
 3453POPC   C1B 5527  42.967  30.925   8.550
 3453POPC   C2B 5528  43.024  30.950   8.250
 3453POPC   C3B 5529  42.990  30.949   7.950
 3453POPC   C4B 5530  42.995  30.910   7.650
 3454POPC   NC3 5531   5.871   2.736   9.450
 3454POPC   PO4 5532   5.867   2.813   9.150
 3454POPC   GL1 5533   5.902   2.735   8.850
 3454POPC   GL2 5534   5.809   2.864   8.850
 3454POPC   C1A 5535   5.869   2.742   8.550
 3454POPC   D2A 5536   5.826   2.806   8.250
 3454POPC   C3A 5537   5.913   2.796   7.950
 3454POPC   C4A 5538   5.842   2.755   7.650
 3454POPC   C1B 5539   5.804   3.037   8.550
 3454POPC   C2B 5540   5.765   2.968   8.250
 3454POPC   C3B 5541   5.781   2.969   7.950
 3454POPC   C4B 5542   5.789   2.943   7.650
 3455POPC   NC3 5543  40.756  10.530   9.450
 3455POPC   PO4 5544  40.824  10.525   9.150
 3455POPC   GL1 5545  40.748  10.519   8.850
 3455POPC   GL2 5546  40.855  10.447   8.850
 3455POPC   C1A 5547  40.793  10.565   8.550
 3455POPC   D2A 5548  40.746  10.562   8.250
 3455POPC   C3A 5549  40.810  10.496   7.950
 3455POPC   C4A 5550  40.831  10.488   7.650
 3455POPC   C1B 5551  40.822  10.316   8.550
 3455POPC   C2B 5552  40.805  10.294   8.250
 3455POPC   C3B 5553  40.819  10.294   7.950
 3455POPC   C4B 5554  40.879  10.238   7.650
 3456POPC   NC3 5555  34.564  24.483   9.450
 3456POPC   PO4 5556  34.564  24.500   9.150
 3456POPC   GL1 5557  34.539  24.448   8.850
 3456POPC   GL2 5558  34.693  24.524   8.850
 3456POPC   C1A 5559  34.530  24.500   8.550
 3456POPC   D2A 5560  34.594  24.463   8.250
 3456POPC   C3A 5561  34.561  24.507   7.950
 3456POPC   C4A 5562  34.541  24.520   7.650
 3456POPC   C1B 5563  34.759  24.661   8.550
 3456POPC   C2B 5564  34.805  24.611   8.250
 3456POPC   C3B 5565  34.818  24.607   7.950
 3456POPC   C4B 5566  34.763  24.586   7.650
 3457POPC   NC3 5567  25.307  20.623   9.450
 3457POPC   PO4 5568  25.311  20.620   9.150
 3457POPC   GL1 5569  25.228  20.654   8.850
 3457POPC   GL2 5570  25.322  20.529   8.850
 3457POPC   C1A 5571  25.297  20.653   8.550
 3457POPC   D2A 5572  25.269  20.578   8.250
 3457POPC   C3A 5573  25.233  20.613   7.950
 3457POPC   C4A 5574  25.272  20.562   7.650
 3457POPC   C1B 5575  25.287  20.384   8.550
 3457POPC   C2B 5576  25.249  20.374   8.250
 3457POPC   C3B 5577  25.305  20.391   7.950
 3457POPC   C4B 5578  25.341  20.346   7.650
 3458POPC   NC3 5579   9.754  40.734   9.450
 3458POPC   PO4 5580   9.726  40.783   9.150
 3458POPC   GL1 5581   9.778  40.802   8.850
 3458POPC   GL2 5582   9.792  40.902   8.850
 3458POPC   C1A 5583   9.765  40.771   8.550
 3458POPC   D2A 5584   9.755  40.762   8.250
 3458POPC   C3A 5585   9.704  40.832   7.950
 3458POPC   C4A 5586   9.712  40.759   7.650
 3458POPC   C1B 5587   9.827  41.030   8.550
 3458POPC   C2B 5588   9.813  40.963   8.250
 3458POPC   C3B 5589   9.844  41.006   7.950
 3458POPC   C4B 5590   9.872  41.012   7.650
 3459POPC   NC3 5591  29.135  30.738   9.450
 3459POPC   PO4 5592  29.178  30.724   9.150
 3459POPC   GL1 5593  29.191  30.736   8.850
 3459POPC   GL2 5594  29.302  30.688   8.850
 3459POPC   C1A 5595  29.155  30.725   8.550
 3459POPC   D2A 5596  29.145  30.661   8.250
 3459POPC   C3A 5597  29.124  30.672   7.950
 3459POPC   C4A 5598  29.155  30.732   7.650
 3459POPC   C1B 5599  29.380  30.713   8.550
 3459POPC   C2B 5600  29.355  30.729   8.250
 3459POPC   C3B 5601  29.380  30.717   7.950
 3459POPC   C4B 5602  29.422  30.758   7.650
 3460POPC   NC3 5603  22.890  33.788   9.450
 3460POPC   PO4 5604  22.975  33.798   9.150
 3460POPC   GL1 5605  22.964  33.776   8.850
 3460POPC   GL2 5606  22.860  33.919   8.850
 3460POPC   C1A 5607  22.891  33.796   8.550
 3460POPC   D2A 5608  22.909  33.837   8.250
 3460POPC   C3A 5609  22.961  33.797   7.950
 3460POPC   C4A 5610  22.972  33.782   7.650
 3460POPC   C1B 5611  22.754  33.995   8.550
 3460POPC   C2B 5612  22.791  33.916   8.250
 3460POPC   C3B 5613  22.724  33.962   7.950
 3460POPC   C4B 5614  22.760  33.988   7.650
 3461POPC   NC3 5615  10.501  16.702   9.450
 3461POPC   PO4 5616  10.494  16.717   9.150
 3461POPC   GL1 5617  10.478  16.700   8.850
 3461POPC   GL2 5618  10.653  16.643   8.850
 3461POPC   C1A 5619  10.492  16.690   8.550
 3461POPC   D2A 5620  10.500  16.696   8.250
 3461POPC   C3A 5621  10.559  16.687   7.950
 3461POPC   C4A 5622  10.508  16.781   7.650
 3461POPC   C1B 5623  10.746  16.623   8.550
 3461POPC   C2B 5624  10.794  16.637   8.250
 3461POPC   C3B 5625  10.742  16.603   7.950
 3461POPC   C4B 5626  10.788  16.596   7.650
 3462POPC   NC3 5627   4.312  42.294   9.450
 3462POPC   PO4 5628   4.365  42.286   9.150
 3462POPC   GL1 5629   4.278  42.334   8.850
 3462POPC   GL2 5630   4.358  42.233   8.850
 3462POPC   C1A 5631   4.333  42.340   8.550
 3462POPC   D2A 5632   4.278  42.311   8.250
 3462POPC   C3A 5633   4.277  42.384   7.950
 3462POPC   C4A 5634   4.302  42.348   7.650
 3462POPC   C1B 5635   4.343  42.090   8.550
 3462POPC   C2B 5636   4.413  42.061   8.250
 3462POPC   C3B 5637   4.371  42.077   7.950
 3462POPC   C4B 5638   4.355  42.118   7.650
 3463POPC   NC3 5639   2.810  13.602   9.450
 3463POPC   PO4 5640   2.781  13.602   9.150
 3463POPC   GL1 5641   2.754  13.669   8.850
 3463POPC   GL2 5642   2.853  13.567   8.850
 3463POPC   C1A 5643   2.789  13.623   8.550
 3463POPC   D2A 5644   2.788  13.642   8.250
 3463POPC   C3A 5645   2.762  13.674   7.950
 3463POPC   C4A 5646   2.787  13.662   7.650
 3463POPC   C1B 5647   2.889  13.402   8.550
 3463POPC   C2B 5648   2.952  13.450   8.250
 3463POPC   C3B 5649   2.879  13.443   7.950
 3463POPC   C4B 5650   2.956  13.458   7.650
 3464POPC   NC3 5651  37.724  19.824   9.450
 3464POPC   PO4 5652  37.643  19.853   9.150
 3464POPC   GL1 5653  37.714  19.822   8.850
 3464POPC   GL2 5654  37.707  19.982   8.850
 3464POPC   C1A 5655  37.673  19.811   8.550
 3464POPC   D2A 5656  37.653  19.801   8.250
 3464POPC   C3A 5657  37.639  19.832   7.950
 3464POPC   C4A 5658  37.668  19.797   7.650
 3464POPC   C1B 5659  37.767  20.021   8.550
 3464POPC   C2B 5660  37.803  20.022   8.250
 3464POPC   C3B 5661  37.763  20.102   7.950
 3464POPC   C4B 5662  37.831  20.028   7.650
 3465POPC   NC3 5663   5.112  29.923   9.450
 3465POPC   PO4 5664   5.139  29.905   9.150
 3465POPC   GL1 5665   5.087  29.954   8.850
 3465POPC   GL2 5666   4.976  29.892   8.850
 3465POPC   C1A 5667   5.046  29.953   8.550
 3465POPC   D2A 5668   5.052  29.871   8.250
 3465POPC   C3A 5669   5.052  29.943   7.950
 3465POPC   C4A 5670   5.061  29.910   7.650
 3465POPC   C1B 5671   4.904  29.842   8.550
 3465POPC   C2B 5672   4.910  29.813   8.250
 3465POPC   C3B 5673   4.832  29.839   7.950
 3465POPC   C4B 5674   4.912  29.833   7.650
 3466POPC   NC3 5675  27.552  26.836   9.450
 3466POPC   PO4 5676  27.559  26.798   9.150
 3466POPC   GL1 5677  27.630  26.847   8.850
 3466POPC   GL2 5678  27.682  26.898   8.850
 3466POPC   C1A 5679  27.614  26.841   8.550
 3466POPC   D2A 5680  27.548  26.863   8.250
 3466POPC   C3A 5681  27.563  26.781   7.950
 3466POPC   C4A 5682  27.636  26.823   7.650
 3466POPC   C1B 5683  27.783  27.066   8.550
 3466POPC   C2B 5684  27.736  27.067   8.250
 3466POPC   C3B 5685  27.723  27.059   7.950
 3466POPC   C4B 5686  27.686  26.980   7.650
 3467POPC   NC3 5687  42.328  17.527   9.450
 3467POPC   PO4 5688  42.298  17.480   9.150
 3467POPC   GL1 5689  42.337  17.463   8.850
 3467POPC   GL2 5690  42.247  17.629   8.850
 3467POPC   C1A 5691  42.354  17.544   8.550
 3467POPC   D2A 5692  42.383  17.518   8.250
 3467POPC   C3A 5693  42.355  17.489   7.950
 3467POPC   C4A 5694  42.309  17.549   7.650
 3467POPC   C1B 5695  42.243  17.716   8.550
 3467POPC   C2B 5696  42.225  17.730   8.250
 3467POPC   C3B 5697  42.218  17.692   7.950
 3467POPC   C4B 5698  42.275  17.692   7.650
 3468POPC   NC3 5699  14.441  10.548   9.450
 3468POPC   PO4 5700  14.386  10.502   9.150
 3468POPC   GL1 5701  14.428  10.501   8.850
 3468POPC   GL2 5702  14.384  10.660   8.850
 3468POPC   C1A 5703  14.386  10.515   8.550
 3468POPC   D2A 5704  14.386  10.512   8.250
 3468POPC   C3A 5705  14.449  10.479   7.950
 3468POPC   C4A 5706  14.376  10.493   7.650
 3468POPC   C1B 5707  14.346  10.808   8.550
 3468POPC   C2B 5708  14.324  10.781   8.250
 3468POPC   C3B 5709  14.323  10.725   7.950
 3468POPC   C4B 5710  14.326  10.797   7.650
 3469POPC   NC3 5711   5.883  12.039   9.450
 3469POPC   PO4 5712   5.861  12.057   9.150
 3469POPC   GL1 5713   5.854  12.106   8.850
 3469POPC   GL2 5714   5.943  12.217   8.850
 3469POPC   C1A 5715   5.867  12.090   8.550
 3469POPC   D2A 5716   5.878  12.067   8.250
 3469POPC   C3A 5717   5.861  12.089   7.950
 3469POPC   C4A 5718   5.867  12.046   7.650
 3469POPC   C1B 5719   6.008  12.212   8.550
 3469POPC   C2B 5720   6.056  12.267   8.250
 3469POPC   C3B 5721   6.081  12.234   7.950
 3469POPC   C4B 5722   6.049  12.276   7.650
 3470POPC   NC3 5723  43.875   5.078   9.450
 3470POPC   PO4 5724  43.901   5.125   9.150
 3470POPC   GL1 5725  43.873   5.099   8.850
 3470POPC   GL2 5726  43.913   5.033   8.850
 3470POPC   C1A 5727  43.935   5.096   8.550
 3470POPC   D2A 5728  43.926   5.044   8.250
 3470POPC   C3A 5729  43.884   5.066   7.950
 3470POPC   C4A 5730  43.932   5.060   7.650
 3470POPC   C1B 5731  44.059   4.925   8.550
 3470POPC   C2B 5732  44.003   4.902   8.250
 3470POPC   C3B 5733  44.002   4.849   7.950
 3470POPC   C4B 5734  44.051   4.855   7.650
 3471POPC   NC3 5735   1.977  33.788   9.450
 3471POPC   PO4 5736   2.001  33.757   9.150
 3471POPC   GL1 5737   1.991  33.821   8.850
 3471POPC   GL2 5738   1.843  33.703   8.850
 3471POPC   C1A 5739   2.025  33.768   8.550
 3471POPC   D2A 5740   2.027  33.751   8.250
 3471POPC   C3A 5741   2.030  33.804   7.950
 3471POPC   C4A 5742   1.964  33.849   7.650
 3471POPC   C1B 5743   1.734  33.698   8.550
 3471POPC   C2B 5744   1.794  33.742   8.250
 3471POPC   C3B 5745   1.766  33.725   7.950
 3471POPC   C4B 5746   1.733  33.683   7.650
 3472POPC   NC3 5747  43.873  18.323   9.450
 3472POPC   PO4 5748  43.869  18.315   9.150
 3472POPC   GL1 5749  43.846  18.306   8.850
 3472POPC   GL2 5750  43.869  18.181   8.850
 3472POPC   C1A 5751  43.888  18.321   8.550
 3472POPC   D2A 5752  43.883  18.332   8.250
 3472POPC   C3A 5753  43.903  18.305   7.950
 3472POPC   C4A 5754  43.888  18.246   7.650
 3472POPC   C1B 5755  43.980  17.999   8.550
 3472POPC   C2B 5756  43.922  18.008   8.250
 3472POPC   C3B 5757  44.000  18.029   7.950
 3472POPC   C4B 5758  43.960  18.064   7.650
 3473POPC   NC3 5759  21.400  19.050   9.450
 3473POPC   PO4 5760  21.371  19.090   9.150
 3473POPC   GL1 5761  21.402  19.076   8.850
 3473POPC   GL2 5762  21.488  19.054   8.850
 3473POPC   C1A 5763  21.408  19.083   8.550
 3473POPC   D2A 5764  21.353  19.028   8.250
 3473POPC   C3A 5765  21.354  19.067   7.950
 3473POPC   C4A 5766  21.350  19.016   7.650
 3473POPC   C1B 5767  21.590  19.092   8.550
 3473POPC   C2B 5768  21.597  19.057   8.250
 3473POPC   C3B 5769  21.595  19.008   7.950
 3473POPC   C4B 5770  21.602  19.029   7.650
 3474POPC   NC3 5771   5.082  31.480   9.450
 3474POPC   PO4 5772   5.122  31.465   9.150
 3474POPC   GL1 5773   5.137  31.457   8.850
 3474POPC   GL2 5774   5.248  31.487   8.850
 3474POPC   C1A 5775   5.089  31.438   8.550
 3474POPC   D2A 5776   5.118  31.465   8.250
 3474POPC   C3A 5777   5.070  31.470   7.950
 3474POPC   C4A 5778   5.097  31.515   7.650
 3474POPC   C1B 5779   5.385  31.449   8.550
 3474POPC   C2B 5780   5.377  31.468   8.250
 3474POPC   C3B 5781   5.372  31.449   7.950
 3474POPC   C4B 5782   5.387  31.472   7.650
 3475POPC   NC3 5783   6.609  24.482   9.450
 3475POPC   PO4 5784   6.641  24.532   9.150
 3475POPC   GL1 5785   6.622  24.481   8.850
 3475POPC   GL2 5786   6.664  24.422   8.850
 3475POPC   C1A 5787   6.677  24.492   8.550
 3475POPC   D2A 5788   6.693  24.491   8.250
 3475POPC   C3A 5789   6.647  24.529   7.950
 3475POPC   C4A 5790   6.665  24.534   7.650
 3475POPC   C1B 5791   6.710  24.305   8.550
 3475POPC   C2B 5792   6.705  24.248   8.250
 3475POPC   C3B 5793   6.741  24.222   7.950
 3475POPC   C4B 5794   6.764  24.230   7.650
 3476POPC   NC3 5795  29.877  12.100   9.450
 3476POPC   PO4 5796  29.899  12.040   9.150
 3476POPC   GL1 5797  29.881  12.085   8.850
 3476POPC   GL2 5798  29.758  12.039   8.850
 3476POPC   C1A 5799  29.915  12.063   8.550
 3476POPC   D2A 5800  29.906  12.043   8.250
 3476POPC   C3A 5801  29.907  12.072   7.950
 3476POPC   C4A 5802  29.887  12.057   7.650
 3476POPC   C1B 5803  29.704  12.078   8.550
 3476POPC   C2B 5804  29.713  12.100   8.250
 3476POPC   C3B 5805  29.638  12.057   7.950
 3476POPC   C4B 5806  29.693  12.058   7.650
 3477POPC   NC3 5807  19.062   9.752   9.450
 3477POPC   PO4 5808  19.025   9.760   9.150
 3477POPC   GL1 5809  19.021   9.745   8.850
 3477POPC   GL2 5810  18.999   9.854   8.850
 3477POPC   C1A 5811  19.028   9.715   8.550
 3477POPC   D2A 5812  19.092   9.725   8.250
 3477POPC   C3A 5813  19.105   9.778   7.950
 3477POPC   C4A 5814  19.024   9.744   7.650
 3477POPC   C1B 5815  18.925   9.968   8.550
 3477POPC   C2B 5816  18.887   9.983   8.250
 3477POPC   C3B 5817  18.941  10.008   7.950
 3477POPC   C4B 5818  18.886  10.008   7.650
 3478POPC   NC3 5819  28.396  31.450   9.450
 3478POPC   PO4 5820  28.392  31.432   9.150
 3478POPC   GL1 5821  28.348  31.481   8.850
 3478POPC   GL2 5822  28.247  31.454   8.850
 3478POPC   C1A 5823  28.378  31.492   8.550
 3478POPC   D2A 5824  28.367  31.507   8.250
 3478POPC   C3A 5825  28.341  31.469   7.950
 3478POPC   C4A 5826  28.344  31.449   7.650
 3478POPC   C1B 5827  28.206  31.343   8.550
 3478POPC   C2B 5828  28.182  31.316   8.250
 3478POPC   C3B 5829  28.157  31.294   7.950
 3478POPC   C4B 5830  28.178  31.352   7.650
 3479POPC   NC3 5831  26.029  10.561   9.450
 3479POPC   PO4 5832  26.028  10.552   9.150
 3479POPC   GL1 5833  26.089  10.533   8.850
 3479POPC   GL2 5834  26.108  10.660   8.850
 3479POPC   C1A 5835  26.065  10.517   8.550
 3479POPC   D2A 5836  26.060  10.533   8.250
 3479POPC   C3A 5837  26.046  10.522   7.950
 3479POPC   C4A 5838  25.999  10.498   7.650
 3479POPC   C1B 5839  26.208  10.705   8.550
 3479POPC   C2B 5840  26.163  10.692   8.250
 3479POPC   C3B 5841  26.209  10.747   7.950
 3479POPC   C4B 5842  26.199  10.673   7.650
 3480POPC   NC3 5843  14.381  40.831   9.450
 3480POPC   PO4 5844  14.385  40.783   9.150
 3480POPC   GL1 5845  14.436  40.824   8.850
 3480POPC   GL2 5846  14.281  40.760   8.850
 3480POPC   C1A 5847  14.404  40.802   8.550
 3480POPC   D2A 5848  14.393  40.747   8.250
 3480POPC   C3A 5849  14.403  40.827   7.950
 3480POPC   C4A 5850  14.446  40.750   7.650
 3480POPC   C1B 5851  14.164  40.801   8.550
 3480POPC   C2B 5852  14.169  40.783   8.250
 3480POPC   C3B 5853  14.123  40.878   7.950
 3480POPC   C4B 5854  14.139  40.826   7.650
 3481POPC   NC3 5855   8.924   7.424   9.450
 3481POPC   PO4 5856   8.977   7.421   9.150
 3481POPC   GL1 5857   9.001   7.462   8.850
 3481POPC   GL2 5858   9.001   7.515   8.850
 3481POPC   C1A 5859   8.993   7.408   8.550
 3481POPC   D2A 5860   8.977   7.450   8.250
 3481POPC   C3A 5861   9.001   7.393   7.950
 3481POPC   C4A 5862   9.003   7.402   7.650
 3481POPC   C1B 5863   8.976   7.708   8.550
 3481POPC   C2B 5864   8.952   7.665   8.250
 3481POPC   C3B 5865   8.977   7.654   7.950
 3481POPC   C4B 5866   8.920   7.713   7.650
 3482POPC   NC3 5867   6.657  16.000   9.450
 3482POPC   PO4 5868   6.690  15.970   9.150
 3482POPC   GL1 5869   6.619  15.992   8.850
 3482POPC   GL2 5870   6.596  16.099   8.850
 3482POPC   C1A 5871   6.685  15.993   8.550
 3482POPC   D2A 5872   6.658  15.983   8.250
 3482POPC   C3A 5873   6.688  15.996   7.950
 3482POPC   C4A 5874   6.675  15.916   7.650
 3482POPC   C1B 5875   6.472  16.190   8.550
 3482POPC   C2B 5876   6.519  16.209   8.250
 3482POPC   C3B 5877   6.471  16.197   7.950
 3482POPC   C4B 5878   6.519  16.135   7.650
 3483POPC   NC3 5879   2.804  19.056   9.450
 3483POPC   PO4 5880   2.808  19.066   9.150
 3483POPC   GL1 5881   2.796  19.047   8.850
 3483POPC   GL2 5882   2.679  19.106   8.850
 3483POPC   C1A 5883   2.773  19.102   8.550
 3483POPC   D2A 5884   2.753  19.066   8.250
 3483POPC   C3A 5885   2.766  19.061   7.950
 3483POPC   C4A 5886   2.720  19.078   7.650
 3483POPC   C1B 5887   2.487  19.119   8.550
 3483POPC   C2B 5888   2.514  19.073   8.250
 3483POPC   C3B 5889   2.563  19.056   7.950
 3483POPC   C4B 5890   2.551  19.060   7.650
 3484POPC   NC3 5891  36.881  31.453   9.450
 3484POPC   PO4 5892  36.858  31.427   9.150
 3484POPC   GL1 5893  36.942  31.448   8.850
 3484POPC   GL2 5894  36.751  31.414   8.850
 3484POPC   C1A 5895  36.881  31.447   8.550
 3484POPC   D2A 5896  36.860  31.505   8.250
 3484POPC   C3A 5897  36.855  31.497   7.950
 3484POPC   C4A 5898  36.942  31.482   7.650
 3484POPC   C1B 5899  36.643  31.407   8.550
 3484POPC   C2B 5900  36.695  31.450   8.250
 3484POPC   C3B 5901  36.620  31.466   7.950
 3484POPC   C4B 5902  36.686  31.472   7.650
 3485POPC   NC3 5903  14.405   1.168   9.450
 3485POPC   PO4 5904  14.406   1.233   9.150
 3485POPC   GL1 5905  14.385   1.224   8.850
 3485POPC   GL2 5906  14.326   1.104   8.850
 3485POPC   C1A 5907  14.427   1.173   8.550
 3485POPC   D2A 5908  14.418   1.224   8.250
 3485POPC   C3A 5909  14.432   1.171   7.950
 3485POPC   C4A 5910  14.420   1.231   7.650
 3485POPC   C1B 5911  14.250   1.011   8.550
 3485POPC   C2B 5912  14.297   1.022   8.250
 3485POPC   C3B 5913  14.260   0.974   7.950
 3485POPC   C4B 5914  14.264   1.039   7.650
 3486POPC   NC3 5915  32.205  44.677   9.450
 3486POPC   PO4 5916  32.266  44.664   9.150
 3486POPC   GL1 5917  32.292  44.673   8.850
 3486POPC   GL2 5918  32.289  44.547   8.850
 3486POPC   C1A 5919  32.201  44.650   8.550
 3486POPC   D2A 5920  32.237  44.657   8.250
 3486POPC   C3A 5921  32.293  44.707   7.950
 3486POPC   C4A 5922  32.228  44.614   7.650
 3486POPC   C1B 5923  32.447  44.440   8.550
 3486POPC   C2B 5924  32.445  44.507   8.250
 3486POPC   C3B 5925  32.411  44.453   7.950
 3486POPC   C4B 5926  32.407  44.488   7.650
 3487POPC   NC3 5927   2.770  16.730   9.450
 3487POPC   PO4 5928   2.736  16.690   9.150
 3487POPC   GL1 5929   2.786  16.769   8.850
 3487POPC   GL2 5930   2.784  16.580   8.850
 3487POPC   C1A 5931   2.784  16.780   8.550
 3487POPC   D2A 5932   2.720  16.719   8.250
 3487POPC   C3A 5933   2.762  16.724   7.950
 3487POPC   C4A 5934   2.716  16.775   7.650
 3487POPC   C1B 5935   2.904  16.501   8.550
 3487POPC   C2B 5936   2.891  16.481   8.250
 3487POPC   C3B 5937   2.827  16.534   7.950
 3487POPC   C4B 5938   2.852  16.526   7.650
 3488POPC   NC3 5939  15.951  17.485   9.450
 3488POPC   PO4 5940  15.999  17.467   9.150
 3488POPC   GL1 5941  15.911  17.475   8.850
 3488POPC   GL2 5942  15.885  17.585   8.850
 3488POPC   C1A 5943  15.999  17.556   8.550
 3488POPC   D2A 5944  15.980  17.489   8.250
 3488POPC   C3A 5945  15.987  17.542   7.950
 3488POPC   C4A 5946  15.965  17.485   7.650
 3488POPC   C1B 5947  15.734  17.666   8.550
 3488POPC   C2B 5948  15.783  17.676   8.250
 3488POPC   C3B 5949  15.744  17.614   7.950
 3488POPC   C4B 5950  15.720  17.712   7.650
 3489POPC   NC3 5951  31.425  11.273   9.450
 3489POPC   PO4 5952  31.522  11.288   9.150
 3489POPC   GL1 5953  31.511  11.347   8.850
 3489POPC   GL2 5954  31.537  11.394   8.850
 3489POPC   C1A 5955  31.449  11.276   8.550
 3489POPC   D2A 5956  31.480  11.301   8.250
 3489POPC   C3A 5957  31.507  11.270   7.950
 3489POPC   C4A 5958  31.468  11.284   7.650
 3489POPC   C1B 5959  31.719  11.438   8.550
 3489POPC   C2B 5960  31.694  11.440   8.250
 3489POPC   C3B 5961  31.659  11.402   7.950
 3489POPC   C4B 5962  31.676  11.424   7.650
 3490POPC   NC3 5963   4.288   0.482   9.450
 3490POPC   PO4 5964   4.301   0.460   9.150
 3490POPC   GL1 5965   4.309   0.452   8.850
 3490POPC   GL2 5966   4.146   0.465   8.850
 3490POPC   C1A 5967   4.365   0.419   8.550
 3490POPC   D2A 5968   4.315   0.425   8.250
 3490POPC   C3A 5969   4.324   0.405   7.950
 3490POPC   C4A 5970   4.367   0.399   7.650
 3490POPC   C1B 5971   4.034   0.393   8.550
 3490POPC   C2B 5972   4.085   0.470   8.250
 3490POPC   C3B 5973   4.106   0.426   7.950
 3490POPC   C4B 5974   4.028   0.458   7.650
 3491POPC   NC3 5975  41.518  21.391   9.450
 3491POPC   PO4 5976  41.577  21.409   9.150
 3491POPC   GL1 5977  41.580  21.380   8.850
 3491POPC   GL2 5978  41.687  21.357   8.850
 3491POPC   C1A 5979  41.568  21.400   8.550
 3491POPC   D2A 5980  41.538  21.340   8.250
 3491POPC   C3A 5981  41.557  21.397   7.950
 3491POPC   C4A 5982  41.545  21.400   7.650
 3491POPC   C1B 5983  41.798  21.368   8.550
 3491POPC   C2B 5984  41.856  21.345   8.250
 3491POPC   C3B 5985  41.828  21.350   7.950
 3491POPC   C4B 5986  41.766  21.308   7.650
 3492POPC   NC3 5987  37.652  14.380   9.450
 3492POPC   PO4 5988  37.716  14.421   9.150
 3492POPC   GL1 5989  37.727  14.434   8.850
 3492POPC   GL2 5990  37.640  14.250   8.850
 3492POPC   C1A 5991  37.648  14.428   8.550
 3492POPC   D2A 5992  37.680  14.415   8.250
 3492POPC   C3A 5993  37.655  14.412   7.950
 3492POPC   C4A 5994  37.641  14.451   7.650
 3492POPC   C1B 5995  37.711  14.170   8.550
 3492POPC   C2B 5996  37.711  14.132   8.250
 3492POPC   C3B 5997  37.690  14.117   7.950
 3492POPC   C4B 5998  37.727  14.200   7.650
 3493POPC   NC3 5999  36.941   5.096   9.450
 3493POPC   PO4 6000  36.855   5.093   9.150
 3493POPC   GL1 6001  36.872   5.055   8.850
 3493POPC   GL2 6002  36.828   5.204   8.850
 3493POPC   C1A 6003  36.891   5.111   8.550
 3493POPC   D2A 6004  36.892   5.054   8.250
 3493POPC   C3A 6005  36.881   5.079   7.950
 3493POPC   C4A 6006  36.898   5.117   7.650
 3493POPC   C1B 6007  36.735   5.252   8.550
 3493POPC   C2B 6008  36.664   5.239   8.250
 3493POPC   C3B 6009  36.688   5.253   7.950
 3493POPC   C4B 6010  36.724   5.188   7.650
 3494POPC   NC3 6011  41.514  35.369   9.450
 3494POPC   PO4 6012  41.586  35.306   9.150
 3494POPC   GL1 6013  41.540  35.363   8.850
 3494POPC   GL2 6014  41.720  35.349   8.850
 3494POPC   C1A 6015  41.591  35.335   8.550
 3494POPC   D2A 6016  41.533  35.351   8.250
 3494POPC   C3A 6017  41.554  35.339   7.950
 3494POPC   C4A 6018  41.595  35.386   7.650
 3494POPC   C1B 6019  41.807  35.301   8.550
 3494POPC   C2B 6020  41.822  35.288   8.250
 3494POPC   C3B 6021  41.791  35.258   7.950
 3494POPC   C4B 6022  41.807  35.271   7.650
 3495POPC   NC3 6023  43.863  26.015   9.450
 3495POPC   PO4 6024  43.918  26.009   9.150
 3495POPC   GL1 6025  43.868  25.994   8.850
 3495POPC   GL2 6026  43.830  26.164   8.850
 3495POPC   C1A 6027  43.862  26.075   8.550
 3495POPC   D2A 6028  43.884  26.064   8.250
 3495POPC   C3A 6029  43.851  26.038   7.950
 3495POPC   C4A 6030  43.914  26.082   7.650
 3495POPC   C1B 6031  43.723  26.239   8.550
 3495POPC   C2B 6032  43.721  26.269   8.250
 3495POPC   C3B 6033  43.683  26.226   7.950
 3495POPC   C4B 6034  43.683  26.238   7.650
 3496POPC   NC3 6035  19.034   2.799   9.450
 3496POPC   PO4 6036  19.090   2.737   9.150
 3496POPC   GL1 6037  19.108   2.772   8.850
 3496POPC   GL2 6038  19.127   2.620   8.850
 3496POPC   C1A 6039  19.070   2.755   8.550
 3496POPC   D2A 6040  19.077   2.771   8.250
 3496POPC   C3A 6041  19.061   2.761   7.950
 3496POPC   C4A 6042  19.044   2.735   7.650
 3496POPC   C1B 6043  19.124   2.545   8.550
 3496POPC   C2B 6044  19.096   2.531   8.250
 3496POPC   C3B 6045  19.100   2.541   7.950
 3496POPC   C4B 6046  19.154   2.491   7.650
 3497POPC   NC3 6047  18.238   1.190   9.450
 3497POPC   PO4 6048  18.264   1.218   9.150
 3497POPC   GL1 6049  18.318   1.177   8.850
 3497POPC   GL2 6050  18.455   1.261   8.850
 3497POPC   C1A 6051  18.274   1.197   8.550
 3497POPC   D2A 6052  18.319   1.211   8.250
 3497POPC   C3A 6053  18.326   1.220   7.950
 3497POPC   C4A 6054  18.255   1.237   7.650
 3497POPC   C1B 6055  18.531   1.264   8.550
 3497POPC   C2B 6056  18.505   1.248   8.250
 3497POPC   C3B 6057  18.481   1.251   7.950
 3497POPC   C4B 6058  18.574   1.294   7.650
 3498POPC   NC3 6059  11.289  38.489   9.450
 3498POPC   PO4 6060  11.261  38.432   9.150
 3498POPC   GL1 6061  11.251  38.430   8.850
 3498POPC   GL2 6062  11.309  38.594   8.850
 3498POPC   C1A 6063  11.260  38.408   8.550
 3498POPC   D2A 6064  11.296  38.482   8.250
 3498POPC   C3A 6065  11.276  38.484   7.950
 3498POPC   C4A 6066  11.349  38.504   7.650
 3498POPC   C1B 6067  11.333  38.682   8.550
 3498POPC   C2B 6068  11.322  38.694   8.250
 3498POPC   C3B 6069  11.333  38.746   7.950
 3498POPC   C4B 6070  11.314  38.668   7.650
 3499POPC   NC3 6071  40.052  42.371   9.450
 3499POPC   PO4 6072  39.958  42.328   9.150
 3499POPC   GL1 6073  40.029  42.341   8.850
 3499POPC   GL2 6074  39.998  42.222   8.850
 3499POPC   C1A 6075  40.026  42.290   8.550
 3499POPC   D2A 6076  39.989  42.319   8.250
 3499POPC   C3A 6077  39.983  42.363   7.950
 3499POPC   C4A 6078  40.011  42.343   7.650
 3499POPC   C1B 6079  39.900  42.129   8.550
 3499POPC   C2B 6080  39.939  42.062   8.250
 3499POPC   C3B 6081  39.890  42.092   7.950
 3499POPC   C4B 6082  39.962  42.051   7.650
 3500POPC   NC3 6083  39.205  35.302   9.450
 3500POPC   PO4 6084  39.233  35.394   9.150
 3500POPC   GL1 6085  39.260  35.303   8.850
 3500POPC   GL2 6086  39.102  35.359   8.850
 3500POPC   C1A 6087  39.245  35.367   8.550
 3500POPC   D2A 6088  39.235  35.339   8.250
 3500POPC   C3A 6089  39.206  35.310   7.950
 3500POPC   C4A 6090  39.236  35.338   7.650
 3500POPC   C1B 6091  38.971  35.337   8.550
 3500POPC   C2B 6092  38.970  35.265   8.250
 3500POPC   C3B 6093  38.969  35.278   7.950
 3500POPC   C4B 6094  38.963  35.284   7.650
 3501POPC   NC3 6095   5.906  13.664   9.450
 3501POPC   PO4 6096   5.828  13.636   9.150
 3501POPC   GL1 6097   5.896  13.585   8.850
 3501POPC   GL2 6098   5.935  13.680   8.850
 3501POPC   C1A 6099   5.895  13.590   8.550
 3501POPC   D2A 6100   5.867  13.635   8.250
 3501POPC   C3A 6101   5.819  13.629   7.950
 3501POPC   C4A 6102   5.858  13.660   7.650
 3501POPC   C1B 6103   6.028  13.796   8.550
 3501POPC   C2B 6104   6.080  13.756   8.250
 3501POPC   C3B 6105   6.090  13.742   7.950
 3501POPC   C4B 6106   6.040  13.744   7.650
 3502POPC   NC3 6107  37.658   9.001   9.450
 3502POPC   PO4 6108  37.644   8.996   9.150
 3502POPC   GL1 6109  37.655   8.973   8.850
 3502POPC   GL2 6110  37.819   9.087   8.850
 3502POPC   C1A 6111  37.690   8.933   8.550
 3502POPC   D2A 6112  37.630   8.995   8.250
 3502POPC   C3A 6113  37.658   8.989   7.950
 3502POPC   C4A 6114  37.669   9.019   7.650
 3502POPC   C1B 6115  37.904   9.103   8.550
 3502POPC   C2B 6116  37.885   9.161   8.250
 3502POPC   C3B 6117  37.870   9.126   7.950
 3502POPC   C4B 6118  37.830   9.098   7.650
 3503POPC   NC3 6119  28.416  41.588   9.450
 3503POPC   PO4 6120  28.409  41.524   9.150
 3503POPC   GL1 6121  28.418  41.509   8.850
 3503POPC   GL2 6122  28.424  41.713   8.850
 3503POPC   C1A 6123  28.343  41.578   8.550
 3503POPC   D2A 6124  28.378  41.581   8.250
 3503POPC   C3A 6125  28.375  41.535   7.950
 3503POPC   C4A 6126  28.346  41.588   7.650
 3503POPC   C1B 6127  28.515  41.791   8.550
 3503POPC   C2B 6128  28.540  41.745   8.250
 3503POPC   C3B 6129  28.514  41.790   7.950
 3503POPC   C4B 6130  28.544  41.740   7.650
 3504POPC   NC3 6131  26.033  13.666   9.450
 3504POPC   PO4 6132  26.018  13.607   9.150
 3504POPC   GL1 6133  26.025  13.672   8.850
 3504POPC   GL2 6134  25.875  13.579   8.850
 3504POPC   C1A 6135  25.997  13.635   8.550
 3504POPC   D2A 6136  26.039  13.589   8.250
 3504POPC   C3A 6137  26.008  13.654   7.950
 3504POPC   C4A 6138  26.021  13.578   7.650
 3504POPC   C1B 6139  25.794  13.530   8.550
 3504POPC   C2B 6140  25.764  13.616   8.250
 3504POPC   C3B 6141  25.830  13.543   7.950
 3504POPC   C4B 6142  25.845  13.595   7.650
 3505POPC   NC3 6143  19.827  31.490   9.450
 3505POPC   PO4 6144  19.859  31.481   9.150
 3505POPC   GL1 6145  19.824  31.433   8.850
 3505POPC   GL2 6146  19.929  31.441   8.850
 3505POPC   C1A 6147  19.793  31.434   8.550
 3505POPC   D2A 6148  19.884  31.506   8.250
 3505POPC   C3A 6149  19.809  31.426   7.950
 3505POPC   C4A 6150  19.868  31.461   7.650
 3505POPC   C1B 6151  20.053  31.317   8.550
 3505POPC   C2B 6152  20.057  31.316   8.250
 3505POPC   C3B 6153  20.016  31.297   7.950
 3505POPC   C4B 6154  20.049  31.300   7.650
 3506POPC   NC3 6155  25.264  27.572   9.450
 3506POPC   PO4 6156  25.232  27.639   9.150
 3506POPC   GL1 6157  25.267  27.577   8.850
 3506POPC   GL2 6158  25.309  27.693   8.850
 3506POPC   C1A 6159  25.295  27.624   8.550
 3506POPC   D2A 6160  25.296  27.621   8.250
 3506POPC   C3A 6161  25.252  27.556   7.950
 3506POPC   C4A 6162  25.219  27.569   7.650
 3506POPC   C1B 6163  25.403  27.783   8.550
 3506POPC   C2B 6164  25.367  27.821   8.250
 3506POPC   C3B 6165  25.424  27.836   7.950
 3506POPC   C4B 6166  25.386  27.844   7.650
 3507POPC   NC3 6167   7.449  14.365   9.450
 3507POPC   PO4 6168   7.465  14.370   9.150
 3507POPC   GL1 6169   7.468  14.357   8.850
 3507POPC   GL2 6170   7.309  14.348   8.850
 3507POPC   C1A 6171   7.413  14.424   8.550
 3507POPC   D2A 6172   7.455  14.385   8.250
 3507POPC   C3A 6173   7.388  14.446   7.950
 3507POPC   C4A 6174   7.447  14.373   7.650
 3507POPC   C1B 6175   7.249  14.315   8.550
 3507POPC   C2B 6176   7.159  14.224   8.250
 3507POPC   C3B 6177   7.182  14.311   7.950
 3507POPC   C4B 6178   7.189  14.297   7.650
 3508POPC   NC3 6179  37.685  22.152   9.450
 3508POPC   PO4 6180  37.725  22.200   9.150
 3508POPC   GL1 6181  37.719  22.142   8.850
 3508POPC   GL2 6182  37.767  22.199   8.850
 3508POPC   C1A 6183  37.651  22.157   8.550
 3508POPC   D2A 6184  37.718  22.178   8.250
 3508POPC   C3A 6185  37.719  22.125   7.950
 3508POPC   C4A 6186  37.685  22.207   7.650
 3508POPC   C1B 6187  37.911  22.299   8.550
 3508POPC   C2B 6188  37.883  22.358   8.250
 3508POPC   C3B 6189  37.836  22.295   7.950
 3508POPC   C4B 6190  37.846  22.323   7.650
 3509POPC   NC3 6191  26.088  41.581   9.450
 3509POPC   PO4 6192  26.004  41.551   9.150
 3509POPC   GL1 6193  26.082  41.568   8.850
 3509POPC   GL2 6194  26.103  41.618   8.850
 3509POPC   C1A 6195  26.004  41.544   8.550
 3509POPC   D2A 6196  26.049  41.586   8.250
 3509POPC   C3A 6197  26.074  41.570   7.950
 3509POPC   C4A 6198  26.035  41.589   7.650
 3509POPC   C1B 6199  26.150  41.775   8.550
 3509POPC   C2B 6200  26.211  41.733   8.250
 3509POPC   C3B 6201  26.207  41.751   7.950
 3509POPC   C4B 6202  26.226  41.734   7.650
 3510POPC   NC3 6203  33.036  40.027   9.450
 3510POPC   PO4 6204  32.975  39.994   9.150
 3510POPC   GL1 6205  33.069  40.013   8.850
 3510POPC   GL2 6206  33.056  40.096   8.850
 3510POPC   C1A 6207  33.050  39.994   8.550
 3510POPC   D2A 6208  33.048  40.043   8.250
 3510POPC   C3A 6209  33.070  40.022   7.950
 3510POPC   C4A 6210  32.993  40.034   7.650
 3510POPC   C1B 6211  33.199  40.227   8.550
 3510POPC   C2B 6212  33.193  40.180   8.250
 3510POPC   C3B 6213  33.189  40.195   7.950
 3510POPC   C4B 6214  33.152  40.215   7.650
 3511POPC   NC3 6215  15.936  13.597   9.450
 3511POPC   PO4 6216  15.934  13.589   9.150
 3511POPC   GL1 6217  15.968  13.609   8.850
 3511POPC   GL2 6218  16.025  13.721   8.850
 3511POPC   C1A 6219  15.934  13.629   8.550
 3511POPC   D2A 6220  15.928  13.671   8.250
 3511POPC   C3A 6221  15.991  13.631   7.950
 3511POPC   C4A 6222  15.921  13.648   7.650
 3511POPC   C1B 6223  16.028  13.903   8.550
 3511POPC   C2B 6224  16.094  13.891   8.250
 3511POPC   C3B 6225  16.027  13.852   7.950
 3511POPC   C4B 6226  16.048  13.854   7.650
 3512POPC   NC3 6227   2.804  32.225   9.450
 3512POPC   PO4 6228   2.808  32.282   9.150
 3512POPC   GL1 6229   2.807  32.213   8.850
 3512POPC   GL2 6230   2.679  32.223   8.850
 3512POPC   C1A 6231   2.725  32.263   8.550
 3512POPC   D2A 6232   2.734  32.296   8.250
 3512POPC   C3A 6233   2.764  32.214   7.950
 3512POPC   C4A 6234   2.732  32.203   7.650
 3512POPC   C1B 6235   2.559  32.120   8.550
 3512POPC   C2B 6236   2.558  32.148   8.250
 3512POPC   C3B 6237   2.515  32.159   7.950
 3512POPC   C4B 6238   2.541  32.143   7.650
 3513POPC   NC3 6239  43.926   6.597   9.450
 3513POPC   PO4 6240  43.855   6.616   9.150
 3513POPC   GL1 6241  43.867   6.598   8.850
 3513POPC   GL2 6242  43.950   6.798   8.850
 3513POPC   C1A 6243  43.867   6.633   8.550
 3513POPC   D2A 6244  43.870   6.664   8.250
 3513POPC   C3A 6245  43.897   6.681   7.950
 3513POPC   C4A 6246  43.901   6.669   7.650
 3513POPC   C1B 6247  43.994   6.906   8.550
 3513POPC   C2B 6248  44.055   6.819   8.250
 3513POPC   C3B 6249  44.028   6.838   7.950
 3513POPC   C4B 6250  44.035   6.853   7.650
 3514POPC   NC3 6251  16.707  32.290   9.450
 3514POPC   PO4 6252  16.742  32.266   9.150
 3514POPC   GL1 6253  16.734  32.220   8.850
 3514POPC   GL2 6254  16.704  32.385   8.850
 3514POPC   C1A 6255  16.687  32.278   8.550
 3514POPC   D2A 6256  16.739  32.206   8.250
 3514POPC   C3A 6257  16.698  32.226   7.950
 3514POPC   C4A 6258  16.763  32.211   7.650
 3514POPC   C1B 6259  16.663  32.438   8.550
 3514POPC   C2B 6260  16.685  32.498   8.250
 3514POPC   C3B 6261  16.677  32.523   7.950
 3514POPC   C4B 6262  16.629  32.476   7.650
 3515POPC   NC3 6263   0.471  11.291   9.450
 3515POPC   PO4 6264   0.442  11.256   9.150
 3515POPC   GL1 6265   0.451  11.276   8.850
 3515POPC   GL2 6266   0.517  11.450   8.850
 3515POPC   C1A 6267   0.476  11.265   8.550
 3515POPC   D2A 6268   0.456  11.269   8.250
 3515POPC   C3A 6269   0.481  11.271   7.950
 3515POPC   C4A 6270   0.486  11.338   7.650
 3515POPC   C1B 6271   0.543  11.582   8.550
 3515POPC   C2B 6272   0.498  11.517   8.250
 3515POPC   C3B 6273   0.520  11.541   7.950
 3515POPC   C4B 6274   0.485  11.562   7.650
 3516POPC   NC3 6275  29.950  37.719   9.450
 3516POPC   PO4 6276  29.878  37.645   9.150
 3516POPC   GL1 6277  29.910  37.705   8.850
 3516POPC   GL2 6278  29.902  37.764   8.850
 3516POPC   C1A 6279  29.927  37.670   8.550
 3516POPC   D2A 6280  29.956  37.662   8.250
 3516POPC   C3A 6281  29.890  37.652   7.950
 3516POPC   C4A 6282  29.899  37.660   7.650
 3516POPC   C1B 6283  29.830  37.882   8.550
 3516POPC   C2B 6284  29.902  37.909   8.250
 3516POPC   C3B 6285  29.824  37.897   7.950
 3516POPC   C4B 6286  29.821  37.895   7.650
 3517POPC   NC3 6287  17.484  22.155   9.450
 3517POPC   PO4 6288  17.475  22.180   9.150
 3517POPC   GL1 6289  17.504  22.198   8.850
 3517POPC   GL2 6290  17.551  22.333   8.850
 3517POPC   C1A 6291  17.504  22.130   8.550
 3517POPC   D2A 6292  17.544  22.166   8.250
 3517POPC   C3A 6293  17.545  22.136   7.950
 3517POPC   C4A 6294  17.554  22.168   7.650
 3517POPC   C1B 6295  17.552  22.371   8.550
 3517POPC   C2B 6296  17.536  22.379   8.250
 3517POPC   C3B 6297  17.469  22.443   7.950
 3517POPC   C4B 6298  17.506  22.435   7.650
 3518POPC   NC3 6299  36.866  22.932   9.450
 3518POPC   PO4 6300  36.945  22.898   9.150
 3518POPC   GL1 6301  36.942  22.912   8.850
 3518POPC   GL2 6302  36.748  22.824   8.850
 3518POPC   C1A 6303  36.856  22.960   8.550
 3518POPC   D2A 6304  36.953  22.965   8.250
 3518POPC   C3A 6305  36.953  22.952   7.950
 3518POPC   C4A 6306  36.921  22.937   7.650
 3518POPC   C1B 6307  36.730  22.832   8.550
 3518POPC   C2B 6308  36.737  22.762   8.250
 3518POPC   C3B 6309  36.654  22.830   7.950
 3518POPC   C4B 6310  36.712  22.803   7.650
 3519POPC   NC3 6311   4.336  16.763   9.450
 3519POPC   PO4 6312   4.300  16.712   9.150
 3519POPC   GL1 6313   4.300  16.729   8.850
 3519POPC   GL2 6314   4.478  16.740   8.850
 3519POPC   C1A 6315   4.303  16.685   8.550
 3519POPC   D2A 6316   4.273  16.718   8.250
 3519POPC   C3A 6317   4.277  16.688   7.950
 3519POPC   C4A 6318   4.312  16.717   7.650
 3519POPC   C1B 6319   4.534  16.708   8.550
 3519POPC   C2B 6320   4.532  16.705   8.250
 3519POPC   C3B 6321   4.533  16.697   7.950
 3519POPC   C4B 6322   4.533  16.760   7.650
 3520POPC   NC3 6323  23.697   4.361   9.450
 3520POPC   PO4 6324  23.674   4.340   9.150
 3520POPC   GL1 6325  23.738   4.367   8.850
 3520POPC   GL2 6326  23.816   4.358   8.850
 3520POPC   C1A 6327  23.697   4.341   8.550
 3520POPC   D2A 6328  23.682   4.322   8.250
 3520POPC   C3A 6329  23.717   4.299   7.950
 3520POPC   C4A 6330  23.731   4.310   7.650
 3520POPC   C1B 6331  23.907   4.427   8.550
 3520POPC   C2B 6332  23.891   4.425   8.250
 3520POPC   C3B 6333  23.941   4.451   7.950
 3520POPC   C4B 6334  23.958   4.460   7.650
 3521POPC   NC3 6335   6.690   6.669   9.450
 3521POPC   PO4 6336   6.661   6.627   9.150
 3521POPC   GL1 6337   6.669   6.645   8.850
 3521POPC   GL2 6338   6.658   6.738   8.850
 3521POPC   C1A 6339   6.595   6.640   8.550
 3521POPC   D2A 6340   6.657   6.597   8.250
 3521POPC   C3A 6341   6.641   6.603   7.950
 3521POPC   C4A 6342   6.660   6.617   7.650
 3521POPC   C1B 6343   6.672   6.912   8.550
 3521POPC   C2B 6344   6.655   6.903   8.250
 3521POPC   C3B 6345   6.638   6.874   7.950
 3521POPC   C4B 6346   6.648   6.864   7.650
 3522POPC   NC3 6347  10.529   5.047   9.450
 3522POPC   PO4 6348  10.509   5.064   9.150
 3522POPC   GL1 6349  10.530   5.049   8.850
 3522POPC   GL2 6350  10.454   5.196   8.850
 3522POPC   C1A 6351  10.490   5.059   8.550
 3522POPC   D2A 6352  10.515   5.081   8.250
 3522POPC   C3A 6353  10.552   5.072   7.950
 3522POPC   C4A 6354  10.540   5.093   7.650
 3522POPC   C1B 6355  10.347   5.242   8.550
 3522POPC   C2B 6356  10.378   5.290   8.250
 3522POPC   C3B 6357  10.297   5.257   7.950
 3522POPC   C4B 6358  10.354   5.225   7.650
 3523POPC   NC3 6359   4.298   7.451   9.450
 3523POPC   PO4 6360   4.346   7.452   9.150
 3523POPC   GL1 6361   4.275   7.446   8.850
 3523POPC   GL2 6362   4.412   7.260   8.850
 3523POPC   C1A 6363   4.295   7.400   8.550
 3523POPC   D2A 6364   4.278   7.454   8.250
 3523POPC   C3A 6365   4.287   7.411   7.950
 3523POPC   C4A 6366   4.297   7.399   7.650
 3523POPC   C1B 6367   4.443   7.148   8.550
 3523POPC   C2B 6368   4.416   7.200   8.250
 3523POPC   C3B 6369   4.466   7.236   7.950
 3523POPC   C4B 6370   4.395   7.191   7.650
 3524POPC   NC3 6371  12.118   5.062   9.450
 3524POPC   PO4 6372  12.044   5.118   9.150
 3524POPC   GL1 6373  12.110   5.058   8.850
 3524POPC   GL2 6374  12.101   5.247   8.850
 3524POPC   C1A 6375  12.034   5.112   8.550
 3524POPC   D2A 6376  12.087   5.101   8.250
 3524POPC   C3A 6377  12.075   5.077   7.950
 3524POPC   C4A 6378  12.054   5.129   7.650
 3524POPC   C1B 6379  12.147   5.368   8.550
 3524POPC   C2B 6380  12.134   5.345   8.250
 3524POPC   C3B 6381  12.174   5.301   7.950
 3524POPC   C4B 6382  12.167   5.305   7.650
 3525POPC   NC3 6383  28.380  26.842   9.450
 3525POPC   PO4 6384  28.394  26.839   9.150
 3525POPC   GL1 6385  28.372  26.829   8.850
 3525POPC   GL2 6386  28.444  26.751   8.850
 3525POPC   C1A 6387  28.332  26.827   8.550
 3525POPC   D2A 6388  28.367  26.795   8.250
 3525POPC   C3A 6389  28.391  26.810   7.950
 3525POPC   C4A 6390  28.330  26.796   7.650
 3525POPC   C1B 6391  28.569  26.723   8.550
 3525POPC   C2B 6392  28.645  26.759   8.250
 3525POPC   C3B 6393  28.594  26.776   7.950
 3525POPC   C4B 6394  28.578  26.757   7.650
 3526POPC   NC3 6395  11.327  43.065   9.450
 3526POPC   PO4 6396  11.311  43.144   9.150
 3526POPC   GL1 6397  11.268  43.072   8.850
 3526POPC   GL2 6398  11.333  42.983   8.850
 3526POPC   C1A 6399  11.305  43.078   8.550
 3526POPC   D2A 6400  11.302  43.100   8.250
 3526POPC   C3A 6401  11.267  43.149   7.950
 3526POPC   C4A 6402  11.284  43.079   7.650
 3526POPC   C1B 6403  11.451  42.895   8.550
 3526POPC   C2B 6404  11.459  42.941   8.250
 3526POPC   C3B 6405  11.436  42.873   7.950
 3526POPC   C4B 6406  11.447  42.939   7.650
 3527POPC   NC3 6407  29.181  18.269   9.450
 3527POPC   PO4 6408  29.103  18.290   9.150
 3527POPC   GL1 6409  29.140  18.312   8.850
 3527POPC   GL2 6410  29.078  18.139   8.850
 3527POPC   C1A 6411  29.136  18.266   8.550
 3527POPC   D2A 6412  29.142  18.304   8.250
 3527POPC   C3A 6413  29.101  18.310   7.950
 3527POPC   C4A 6414  29.156  18.332   7.650
 3527POPC   C1B 6415  29.065  18.026   8.550
 3527POPC   C2B 6416  29.055  18.014   8.250
 3527POPC   C3B 6417  28.995  18.044   7.950
 3527POPC   C4B 6418  28.983  18.039   7.650
 3528POPC   NC3 6419  33.753  16.752   9.450
 3528POPC   PO4 6420  33.828  16.760   9.150
 3528POPC   GL1 6421  33.809  16.696   8.850
 3528POPC   GL2 6422  33.840  16.566   8.850
 3528POPC   C1A 6423  33.808  16.748   8.550
 3528POPC   D2A 6424  33.810  16.706   8.250
 3528POPC   C3A 6425  33.768  16.742   7.950
 3528POPC   C4A 6426  33.800  16.765   7.650
 3528POPC   C1B 6427  33.791  16.464   8.550
 3528POPC   C2B 6428  33.789  16.504   8.250
 3528POPC   C3B 6429  33.848  16.468   7.950
 3528POPC   C4B 6430  33.814  16.444   7.650
 3529POPC   NC3 6431  32.977   0.428   9.450
 3529POPC   PO4 6432  33.020   0.410   9.150
 3529POPC   GL1 6433  33.074   0.438   8.850
 3529POPC   GL2 6434  32.990   0.605   8.850
 3529POPC   C1A 6435  32.983   0.451   8.550
 3529POPC   D2A 6436  33.043   0.392   8.250
 3529POPC   C3A 6437  33.025   0.389   7.950
 3529POPC   C4A 6438  33.073   0.460   7.650
 3529POPC   C1B 6439  32.957   0.638   8.550
 3529POPC   C2B 6440  32.997   0.729   8.250
 3529POPC   C3B 6441  32.988   0.723   7.950
 3529POPC   C4B 6442  33.011   0.714   7.650
 3530POPC   NC3 6443   1.941  37.711   9.450
 3530POPC   PO4 6444   1.967  37.694   9.150
 3530POPC   GL1 6445   1.985  37.640   8.850
 3530POPC   GL2 6446   2.027  37.773   8.850
 3530POPC   C1A 6447   1.957  37.707   8.550
 3530POPC   D2A 6448   1.946  37.654   8.250
 3530POPC   C3A 6449   2.000  37.639   7.950
 3530POPC   C4A 6450   1.981  37.676   7.650
 3530POPC   C1B 6451   2.109  37.848   8.550
 3530POPC   C2B 6452   2.148  37.899   8.250
 3530POPC   C3B 6453   2.119  37.838   7.950
 3530POPC   C4B 6454   2.180  37.857   7.650
 3531POPC   NC3 6455  36.940   2.774   9.450
 3531POPC   PO4 6456  36.888   2.804   9.150
 3531POPC   GL1 6457  36.929   2.739   8.850
 3531POPC   GL2 6458  36.990   2.862   8.850
 3531POPC   C1A 6459  36.866   2.769   8.550
 3531POPC   D2A 6460  36.905   2.758   8.250
 3531POPC   C3A 6461  36.929   2.743   7.950
 3531POPC   C4A 6462  36.866   2.804   7.650
 3531POPC   C1B 6463  37.098   2.886   8.550
 3531POPC   C2B 6464  37.103   2.854   8.250
 3531POPC   C3B 6465  37.137   2.827   7.950
 3531POPC   C4B 6466  37.105   2.872   7.650
 3532POPC   NC3 6467  44.683  19.827   9.450
 3532POPC   PO4 6468  44.640  19.823   9.150
 3532POPC   GL1 6469  44.696  19.836   8.850
 3532POPC   GL2 6470  44.620  19.779   8.850
 3532POPC   C1A 6471  44.615  19.833   8.550
 3532POPC   D2A 6472  44.684  19.791   8.250
 3532POPC   C3A 6473  44.655  19.860   7.950
 3532POPC   C4A 6474  44.703  19.870   7.650
 3532POPC   C1B 6475  44.491  19.657   8.550
 3532POPC   C2B 6476  44.507  19.632   8.250
 3532POPC   C3B 6477  44.518  19.679   7.950
 3532POPC   C4B 6478  44.455  19.655   7.650
 3533POPC   NC3 6479  29.874  23.734   9.450
 3533POPC   PO4 6480  29.904  23.719   9.150
 3533POPC   GL1 6481  29.935  23.675   8.850
 3533POPC   GL2 6482  29.994  23.748   8.850
 3533POPC   C1A 6483  29.952  23.668   8.550
 3533POPC   D2A 6484  29.956  23.754   8.250
 3533POPC   C3A 6485  29.892  23.729   7.950
 3533POPC   C4A 6486  29.915  23.759   7.650
 3533POPC   C1B 6487  30.146  23.769   8.550
 3533POPC   C2B 6488  30.205  23.789   8.250
 3533POPC   C3B 6489  30.117  23.751   7.950
 3533POPC   C4B 6490  30.175  23.747   7.650
 3534POPC   NC3 6491  21.344   4.271   9.450
 3534POPC   PO4 6492  21.354   4.308   9.150
 3534POPC   GL1 6493  21.353   4.337   8.850
 3534POPC   GL2 6494  21.560   4.301   8.850
 3534POPC   C1A 6495  21.410   4.281   8.550
 3534POPC   D2A 6496  21.373   4.349   8.250
 3534POPC   C3A 6497  21.398   4.303   7.950
 3534POPC   C4A 6498  21.390   4.295   7.650
 3534POPC   C1B 6499  21.643   4.364   8.550
 3534POPC   C2B 6500  21.607   4.339   8.250
 3534POPC   C3B 6501  21.679   4.277   7.950
 3534POPC   C4B 6502  21.666   4.288   7.650
 3535POPC   NC3 6503  21.395  13.636   9.450
 3535POPC   PO4 6504  21.368  13.625   9.150
 3535POPC   GL1 6505  21.345  13.589   8.850
 3535POPC   GL2 6506  21.391  13.473   8.850
 3535POPC   C1A 6507  21.380  13.675   8.550
 3535POPC   D2A 6508  21.348  13.639   8.250
 3535POPC   C3A 6509  21.354  13.622   7.950
 3535POPC   C4A 6510  21.376  13.672   7.650
 3535POPC   C1B 6511  21.270  13.372   8.550
 3535POPC   C2B 6512  21.318  13.371   8.250
 3535POPC   C3B 6513  21.320  13.405   7.950
 3535POPC   C4B 6514  21.349  13.429   7.650
 3536POPC   NC3 6515  29.903  29.167   9.450
 3536POPC   PO4 6516  29.942  29.133   9.150
 3536POPC   GL1 6517  29.962  29.147   8.850
 3536POPC   GL2 6518  29.835  29.156   8.850
 3536POPC   C1A 6519  29.911  29.163   8.550
 3536POPC   D2A 6520  29.950  29.146   8.250
 3536POPC   C3A 6521  29.904  29.124   7.950
 3536POPC   C4A 6522  29.956  29.099   7.650
 3536POPC   C1B 6523  29.698  29.188   8.550
 3536POPC   C2B 6524  29.697  29.110   8.250
 3536POPC   C3B 6525  29.702  29.146   7.950
 3536POPC   C4B 6526  29.710  29.142   7.650
 3537POPC   NC3 6527  34.613  42.288   9.450
 3537POPC   PO4 6528  34.546  42.326   9.150
 3537POPC   GL1 6529  34.559  42.343   8.850
 3537POPC   GL2 6530  34.670  42.368   8.850
 3537POPC   C1A 6531  34.599  42.313   8.550
 3537POPC   D2A 6532  34.553  42.370   8.250
 3537POPC   C3A 6533  34.529  42.344   7.950
 3537POPC   C4A 6534  34.553  42.321   7.650
 3537POPC   C1B 6535  34.839  42.404   8.550
 3537POPC   C2B 6536  34.836  42.373   8.250
 3537POPC   C3B 6537  34.861  42.411   7.950
 3537POPC   C4B 6538  34.792  42.389   7.650
 3538POPC   NC3 6539  15.985  38.488   9.450
 3538POPC   PO4 6540  15.976  38.482   9.150
 3538POPC   GL1 6541  15.994  38.458   8.850
 3538POPC   GL2 6542  15.844  38.557   8.850
 3538POPC   C1A 6543  15.953  38.430   8.550
 3538POPC   D2A 6544  15.909  38.501   8.250
 3538POPC   C3A 6545  16.005  38.458   7.950
 3538POPC   C4A 6546  15.918  38.489   7.650
 3538POPC   C1B 6547  15.716  38.610   8.550
 3538POPC   C2B 6548  15.737  38.641   8.250
 3538POPC   C3B 6549  15.702  38.595   7.950
 3538POPC   C4B 6550  15.780  38.650   7.650
 3539POPC   NC3 6551  40.736  41.514   9.450
 3539POPC   PO4 6552  40.782  41.517   9.150
 3539POPC   GL1 6553  40.826  41.517   8.850
 3539POPC   GL2 6554  40.776  41.416   8.850
 3539POPC   C1A 6555  40.811  41.557   8.550
 3539POPC   D2A 6556  40.798  41.536   8.250
 3539POPC   C3A 6557  40.770  41.566   7.950
 3539POPC   C4A 6558  40.762  41.581   7.650
 3539POPC   C1B 6559  40.771  41.296   8.550
 3539POPC   C2B 6560  40.744  41.285   8.250
 3539POPC   C3B 6561  40.759  41.270   7.950
 3539POPC   C4B 6562  40.767  41.278   7.650
 3540POPC   NC3 6563   9.714   9.746   9.450
 3540POPC   PO4 6564   9.723   9.748   9.150
 3540POPC   GL1 6565   9.723   9.717   8.850
 3540POPC   GL2 6566   9.809   9.627   8.850
 3540POPC   C1A 6567   9.735   9.796   8.550
 3540POPC   D2A 6568   9.703   9.758   8.250
 3540POPC   C3A 6569   9.773   9.713   7.950
 3540POPC   C4A 6570   9.747   9.782   7.650
 3540POPC   C1B 6571   9.834   9.462   8.550
 3540POPC   C2B 6572   9.785   9.483   8.250
 3540POPC   C3B 6573   9.828   9.518   7.950
 3540POPC   C4B 6574   9.815   9.491   7.650
 3541POPC   NC3 6575  12.033  33.035   9.450
 3541POPC   PO4 6576  12.081  33.015   9.150
 3541POPC   GL1 6577  12.084  33.024   8.850
 3541POPC   GL2 6578  12.119  32.890   8.850
 3541POPC   C1A 6579  12.059  33.052   8.550
 3541POPC   D2A 6580  12.062  33.049   8.250
 3541POPC   C3A 6581  12.057  32.988   7.950
 3541POPC   C4A 6582  12.103  33.019   7.650
 3541POPC   C1B 6583  12.134  32.843   8.550
 3541POPC   C2B 6584  12.179  32.846   8.250
 3541POPC   C3B 6585  12.154  32.842   7.950
 3541POPC   C4B 6586  12.156  32.801   7.650
 3542POPC   NC3 6587  21.410  42.307   9.450
 3542POPC   PO4 6588  21.408  42.384   9.150
 3542POPC   GL1 6589  21.427  42.379   8.850
 3542POPC   GL2 6590  21.296  42.457   8.850
 3542POPC   C1A 6591  21.403  42.354   8.550
 3542POPC   D2A 6592  21.436  42.325   8.250
 3542POPC   C3A 6593  21.395  42.338   7.950
 3542POPC   C4A 6594  21.417  42.307   7.650
 3542POPC   C1B 6595  21.288  42.569   8.550
 3542POPC   C2B 6596  21.262  42.539   8.250
 3542POPC   C3B 6597  21.212  42.519   7.950
 3542POPC   C4B 6598  21.255  42.503   7.650
 3543POPC   NC3 6599  30.741  15.979   9.450
 3543POPC   PO4 6600  30.664  15.933   9.150
 3543POPC   GL1 6601  30.667  15.915   8.850
 3543POPC   GL2 6602  30.622  15.979   8.850
 3543POPC   C1A 6603  30.719  15.906   8.550
 3543POPC   D2A 6604  30.647  15.960   8.250
 3543POPC   C3A 6605  30.698  16.002   7.950
 3543POPC   C4A 6606  30.709  16.004   7.650
 3543POPC   C1B 6607  30.500  15.914   8.550
 3543POPC   C2B 6608  30.481  15.952   8.250
 3543POPC   C3B 6609  30.459  15.876   7.950
 3543POPC   C4B 6610  30.467  15.870   7.650
 3544POPC   NC3 6611  35.395  41.545   9.450
 3544POPC   PO4 6612  35.377  41.529   9.150
 3544POPC   GL1 6613  35.384  41.528   8.850
 3544POPC   GL2 6614  35.310  41.622   8.850
 3544POPC   C1A 6615  35.339  41.588   8.550
 3544POPC   D2A 6616  35.372  41.524   8.250
 3544POPC   C3A 6617  35.387  41.563   7.950
 3544POPC   C4A 6618  35.385  41.605   7.650
 3544POPC   C1B 6619  35.240  41.740   8.550
 3544POPC   C2B 6620  35.265  41.766   8.250
 3544POPC   C3B 6621  35.211  41.816   7.950
 3544POPC   C4B 6622  35.280  41.832   7.650
 3545POPC   NC3 6623  22.189  42.334   9.450
 3545POPC   PO4 6624  22.125  42.295   9.150
 3545POPC   GL1 6625  22.210  42.316   8.850
 3545POPC   GL2 6626  22.072  42.277   8.850
 3545POPC   C1A 6627  22.130  42.371   8.550
 3545POPC   D2A 6628  22.211  42.351   8.250
 3545POPC   C3A 6629  22.171  42.322   7.950
 3545POPC   C4A 6630  22.126  42.343   7.650
 3545POPC   C1B 6631  21.984  42.160   8.550
 3545POPC   C2B 6632  22.012  42.154   8.250
 3545POPC   C3B 6633  21.935  42.118   7.950
 3545POPC   C4B 6634  22.022  42.115   7.650
 3546POPC   NC3 6635   8.969   6.622   9.450
 3546POPC   PO4 6636   8.928   6.688   9.150
 3546POPC   GL1 6637   8.923   6.666   8.850
 3546POPC   GL2 6638   8.844   6.698   8.850
 3546POPC   C1A 6639   8.976   6.638   8.550
 3546POPC   D2A 6640   8.969   6.651   8.250
 3546POPC   C3A 6641   8.972   6.658   7.950
 3546POPC   C4A 6642   9.006   6.625   7.650
 3546POPC   C1B 6643   8.749   6.753   8.550
 3546POPC   C2B 6644   8.697   6.693   8.250
 3546POPC   C3B 6645   8.735   6.746   7.950
 3546POPC   C4B 6646   8.710   6.725   7.650
 3547POPC   NC3 6647  15.225  36.093   9.450
 3547POPC   PO4 6648  15.212  36.116   9.150
 3547POPC   GL1 6649  15.222  36.146   8.850
 3547POPC   GL2 6650  15.063  36.092   8.850
 3547POPC   C1A 6651  15.150  36.153   8.550
 3547POPC   D2A 6652  15.211  36.084   8.250
 3547POPC   C3A 6653  15.216  36.152   7.950
 3547POPC   C4A 6654  15.161  36.150   7.650
 3547POPC   C1B 6655  14.936  36.086   8.550
 3547POPC   C2B 6656  14.895  36.143   8.250
 3547POPC   C3B 6657  14.946  36.081   7.950
 3547POPC   C4B 6658  14.932  36.132   7.650
 3548POPC   NC3 6659  17.543  11.307   9.450
 3548POPC   PO4 6660  17.530  11.292   9.150
 3548POPC   GL1 6661  17.522  11.321   8.850
 3548POPC   GL2 6662  17.634  11.182   8.850
 3548POPC   C1A 6663  17.473  11.311   8.550
 3548POPC   D2A 6664  17.465  11.336   8.250
 3548POPC   C3A 6665  17.546  11.323   7.950
 3548POPC   C4A 6666  17.499  11.274   7.650
 3548POPC   C1B 6667  17.617  11.133   8.550
 3548POPC   C2B 6668  17.626  11.139   8.250
 3548POPC   C3B 6669  17.712  11.113   7.950
 3548POPC   C4B 6670  17.696  11.112   7.650
 3549POPC   NC3 6671  19.072  27.597   9.450
 3549POPC   PO4 6672  19.037  27.595   9.150
 3549POPC   GL1 6673  19.107  27.558   8.850
 3549POPC   GL2 6674  19.171  27.741   8.850
 3549POPC   C1A 6675  19.056  27.560   8.550
 3549POPC   D2A 6676  19.058  27.577   8.250
 3549POPC   C3A 6677  19.033  27.570   7.950
 3549POPC   C4A 6678  19.086  27.617   7.650
 3549POPC   C1B 6679  19.220  27.788   8.550
 3549POPC   C2B 6680  19.194  27.832   8.250
 3549POPC   C3B 6681  19.190  27.836   7.950
 3549POPC   C4B 6682  19.228  27.827   7.650
 3550POPC   NC3 6683   9.700  10.523   9.450
 3550POPC   PO4 6684   9.763  10.493   9.150
 3550POPC   GL1 6685   9.764  10.536   8.850
 3550POPC   GL2 6686   9.746  10.676   8.850
 3550POPC   C1A 6687   9.775  10.574   8.550
 3550POPC   D2A 6688   9.741  10.497   8.250
 3550POPC   C3A 6689   9.739  10.564   7.950
 3550POPC   C4A 6690   9.703  10.485   7.650
 3550POPC   C1B 6691   9.685  10.728   8.550
 3550POPC   C2B 6692   9.754  10.745   8.250
 3550POPC   C3B 6693   9.749  10.819   7.950
 3550POPC   C4B 6694   9.721  10.817   7.650
 3551POPC   NC3 6695  23.726  33.070   9.450
 3551POPC   PO4 6696  23.740  32.978   9.150
 3551POPC   GL1 6697  23.715  33.072   8.850
 3551POPC   GL2 6698  23.742  32.884   8.850
 3551POPC   C1A 6699  23.750  32.974   8.550
 3551POPC   D2A 6700  23.674  33.036   8.250
 3551POPC   C3A 6701  23.698  33.053   7.950
 3551POPC   C4A 6702  23.732  33.042   7.650
 3551POPC   C1B 6703  23.790  32.773   8.550
 3551POPC   C2B 6704  23.756  32.790   8.250
 3551POPC   C3B 6705  23.718  32.804   7.950
 3551POPC   C4B 6706  23.727  32.730   7.650
 3552POPC   NC3 6707  18.265   1.986   9.450
 3552POPC   PO4 6708  18.285   1.943   9.150
 3552POPC   GL1 6709  18.254   2.037   8.850
 3552POPC   GL2 6710  18.321   1.881   8.850
 3552POPC   C1A 6711  18.288   1.951   8.550
 3552POPC   D2A 6712  18.283   1.955   8.250
 3552POPC   C3A 6713  18.257   2.020   7.950
 3552POPC   C4A 6714  18.278   2.037   7.650
 3552POPC   C1B 6715  18.387   1.723   8.550
 3552POPC   C2B 6716  18.384   1.779   8.250
 3552POPC   C3B 6717  18.309   1.791   7.950
 3552POPC   C4B 6718  18.324   1.780   7.650
 3553POPC   NC3 6719  24.480  26.046   9.450
 3553POPC   PO4 6720  24.495  26.001   9.150
 3553POPC   GL1 6721  24.482  26.080   8.850
 3553POPC   GL2 6722  24.521  26.131   8.850
 3553POPC   C1A 6723  24.483  26.029   8.550
 3553POPC   D2A 6724  24.489  26.033   8.250
 3553POPC   C3A 6725  24.510  26.008   7.950
 3553POPC   C4A 6726  24.535  26.022   7.650
 3553POPC   C1B 6727  24.502  26.318   8.550
 3553POPC   C2B 6728  24.561  26.323   8.250
 3553POPC   C3B 6729  24.529  26.308   7.950
 3553POPC   C4B 6730  24.536  26.314   7.650
 3554POPC   NC3 6731   9.717  22.911   9.450
 3554POPC   PO4 6732   9.745  22.929   9.150
 3554POPC   GL1 6733   9.714  22.971   8.850
 3554POPC   GL2 6734   9.661  22.822   8.850
 3554POPC   C1A 6735   9.743  22.945   8.550
 3554POPC   D2A 6736   9.707  22.982   8.250
 3554POPC   C3A 6737   9.729  22.932   7.950
 3554POPC   C4A 6738   9.772  22.913   7.650
 3554POPC   C1B 6739   9.589  22.736   8.550
 3554POPC   C2B 6740   9.552  22.803   8.250
 3554POPC   C3B 6741   9.595  22.729   7.950
 3554POPC   C4B 6742   9.556  22.730   7.650
 3555POPC   NC3 6743  18.257   5.139   9.450
 3555POPC   PO4 6744  18.238   5.113   9.150
 3555POPC   GL1 6745  18.281   5.108   8.850
 3555POPC   GL2 6746  18.242   5.028   8.850
 3555POPC   C1A 6747  18.302   5.134   8.550
 3555POPC   D2A 6748  18.257   5.113   8.250
 3555POPC   C3A 6749  18.250   5.113   7.950
 3555POPC   C4A 6750  18.234   5.112   7.650
 3555POPC   C1B 6751  18.148   4.879   8.550
 3555POPC   C2B 6752  18.104   4.914   8.250
 3555POPC   C3B 6753  18.099   4.920   7.950
 3555POPC   C4B 6754  18.078   4.917   7.650
 3556POPC   NC3 6755  30.669  19.865   9.450
 3556POPC   PO4 6756  30.736  19.880   9.150
 3556POPC   GL1 6757  30.714  19.799   8.850
 3556POPC   GL2 6758  30.618  19.954   8.850
 3556POPC   C1A 6759  30.660  19.810   8.550
 3556POPC   D2A 6760  30.738  19.882   8.250
 3556POPC   C3A 6761  30.691  19.824   7.950
 3556POPC   C4A 6762  30.727  19.829   7.650
 3556POPC   C1B 6763  30.593  20.053   8.550
 3556POPC   C2B 6764  30.563  20.072   8.250
 3556POPC   C3B 6765  30.540  20.038   7.950
 3556POPC   C4B 6766  30.611  20.094   7.650
 3557POPC   NC3 6767   8.995  14.373   9.450
 3557POPC   PO4 6768   8.969  14.439   9.150
 3557POPC   GL1 6769   8.935  14.419   8.850
 3557POPC   GL2 6770   9.062  14.273   8.850
 3557POPC   C1A 6771   9.014  14.431   8.550
 3557POPC   D2A 6772   8.926  14.403   8.250
 3557POPC   C3A 6773   8.991  14.373   7.950
 3557POPC   C4A 6774   8.942  14.426   7.650
 3557POPC   C1B 6775   9.045  14.214   8.550
 3557POPC   C2B 6776   9.087  14.222   8.250
 3557POPC   C3B 6777   9.036  14.160   7.950
 3557POPC   C4B 6778   9.071  14.161   7.650
 3558POPC   NC3 6779  20.643  11.314   9.450
 3558POPC   PO4 6780  20.586  11.305   9.150
 3558POPC   GL1 6781  20.587  11.342   8.850
 3558POPC   GL2 6782  20.505  11.291   8.850
 3558POPC   C1A 6783  20.615  11.320   8.550
 3558POPC   D2A 6784  20.656  11.335   8.250
 3558POPC   C3A 6785  20.639  11.280   7.950
 3558POPC   C4A 6786  20.623  11.257   7.650
 3558POPC   C1B 6787  20.375  11.272   8.550
 3558POPC   C2B 6788  20.321  11.292   8.250
 3558POPC   C3B 6789  20.319  11.319   7.950
 3558POPC   C4B 6790  20.323  11.346   7.650
 3559POPC   NC3 6791  37.634  10.489   9.450
 3559POPC   PO4 6792  37.713  10.515   9.150
 3559POPC   GL1 6793  37.650  10.561   8.850
 3559POPC   GL2 6794  37.589  10.606   8.850
 3559POPC   C1A 6795  37.630  10.558   8.550
 3559POPC   D2A 6796  37.709  10.518   8.250
 3559POPC   C3A 6797  37.642  10.571   7.950
 3559POPC   C4A 6798  37.683  10.488   7.650
 3559POPC   C1B 6799  37.507  10.671   8.550
 3559POPC   C2B 6800  37.518  10.678   8.250
 3559POPC   C3B 6801  37.500  10.739   7.950
 3559POPC   C4B 6802  37.476  10.748   7.650
 3560POPC   NC3 6803  28.379  12.854   9.450
 3560POPC   PO4 6804  28.374  12.901   9.150
 3560POPC   GL1 6805  28.368  12.812   8.850
 3560POPC   GL2 6806  28.197  12.861   8.850
 3560POPC   C1A 6807  28.407  12.880   8.550
 3560POPC   D2A 6808  28.363  12.822   8.250
 3560POPC   C3A 6809  28.356  12.868   7.950
 3560POPC   C4A 6810  28.331  12.837   7.650
 3560POPC   C1B 6811  28.153  12.866   8.550
 3560POPC   C2B 6812  28.116  12.855   8.250
 3560POPC   C3B 6813  28.163  12.869   7.950
 3560POPC   C4B 6814  28.163  12.813   7.650
 3561POPC   NC3 6815  16.689  22.942   9.450
 3561POPC   PO4 6816  16.710  22.984   9.150
 3561POPC   GL1 6817  16.763  22.906   8.850
 3561POPC   GL2 6818  16.704  22.849   8.850
 3561POPC   C1A 6819  16.697  22.916   8.550
 3561POPC   D2A 6820  16.714  22.902   8.250
 3561POPC   C3A 6821  16.749  22.981   7.950
 3561POPC   C4A 6822  16.723  22.904   7.650
 3561POPC   C1B 6823  16.731  22.680   8.550
 3561POPC   C2B 6824  16.799  22.664   8.250
 3561POPC   C3B 6825  16.755  22.684   7.950
 3561POPC   C4B 6826  16.742  22.644   7.650
 3562POPC   NC3 6827   1.234  13.593   9.450
 3562POPC   PO4 6828   1.219  13.631   9.150
 3562POPC   GL1 6829   1.252  13.639   8.850
 3562POPC   GL2 6830   1.182  13.729   8.850
 3562POPC   C1A 6831   1.170  13.600   8.550
 3562POPC   D2A 6832   1.231  13.655   8.250
 3562POPC   C3A 6833   1.239  13.626   7.950
 3562POPC   C4A 6834   1.216  13.676   7.650
 3562POPC   C1B 6835   1.216  13.839   8.550
 3562POPC   C2B 6836   1.203  13.896   8.250
 3562POPC   C3B 6837   1.154  13.839   7.950
 3562POPC   C4B 6838   1.181  13.866   7.650
 3563POPC   NC3 6839   8.191   8.157   9.450
 3563POPC   PO4 6840   8.209   8.183   9.150
 3563POPC   GL1 6841   8.161   8.177   8.850
 3563POPC   GL2 6842   8.169   8.126   8.850
 3563POPC   C1A 6843   8.213   8.211   8.550
 3563POPC   D2A 6844   8.235   8.156   8.250
 3563POPC   C3A 6845   8.191   8.152   7.950
 3563POPC   C4A 6846   8.148   8.175   7.650
 3563POPC   C1B 6847   8.127   7.974   8.550
 3563POPC   C2B 6848   8.115   7.982   8.250
 3563POPC   C3B 6849   8.128   7.977   7.950
 3563POPC   C4B 6850   8.080   7.964   7.650
 3564POPC   NC3 6851  33.803  26.798   9.450
 3564POPC   PO4 6852  33.757  26.867   9.150
 3564POPC   GL1 6853  33.831  26.805   8.850
 3564POPC   GL2 6854  33.651  26.889   8.850
 3564POPC   C1A 6855  33.807  26.787   8.550
 3564POPC   D2A 6856  33.837  26.791   8.250
 3564POPC   C3A 6857  33.832  26.844   7.950
 3564POPC   C4A 6858  33.845  26.817   7.650
 3564POPC   C1B 6859  33.617  26.885   8.550
 3564POPC   C2B 6860  33.575  26.957   8.250
 3564POPC   C3B 6861  33.619  26.878   7.950
 3564POPC   C4B 6862  33.569  26.874   7.650
 3565POPC   NC3 6863  17.523  19.069   9.450
 3565POPC   PO4 6864  17.463  19.052   9.150
 3565POPC   GL1 6865  17.470  19.033   8.850
 3565POPC   GL2 6866  17.627  18.986   8.850
 3565POPC   C1A 6867  17.509  19.086   8.550
 3565POPC   D2A 6868  17.482  19.021   8.250
 3565POPC   C3A 6869  17.459  19.016   7.950
 3565POPC   C4A 6870  17.514  19.069   7.650
 3565POPC   C1B 6871  17.643  18.884   8.550
 3565POPC   C2B 6872  17.614  18.899   8.250
 3565POPC   C3B 6873  17.689  18.875   7.950
 3565POPC   C4B 6874  17.611  18.870   7.650
 3566POPC   NC3 6875   4.315   2.771   9.450
 3566POPC   PO4 6876   4.268   2.768   9.150
 3566POPC   GL1 6877   4.361   2.746   8.850
 3566POPC   GL2 6878   4.429   2.858   8.850
 3566POPC   C1A 6879   4.351   2.748   8.550
 3566POPC   D2A 6880   4.301   2.741   8.250
 3566POPC   C3A 6881   4.323   2.766   7.950
 3566POPC   C4A 6882   4.274   2.767   7.650
 3566POPC   C1B 6883   4.500   2.962   8.550
 3566POPC   C2B 6884   4.531   2.954   8.250
 3566POPC   C3B 6885   4.477   2.880   7.950
 3566POPC   C4B 6886   4.479   2.912   7.650
 3567POPC   NC3 6887  15.198  30.692   9.450
 3567POPC   PO4 6888  15.163  30.737   9.150
 3567POPC   GL1 6889  15.135  30.715   8.850
 3567POPC   GL2 6890  15.308  30.614   8.850
 3567POPC   C1A 6891  15.192  30.712   8.550
 3567POPC   D2A 6892  15.156  30.732   8.250
 3567POPC   C3A 6893  15.187  30.663   7.950
 3567POPC   C4A 6894  15.171  30.651   7.650
 3567POPC   C1B 6895  15.396  30.615   8.550
 3567POPC   C2B 6896  15.388  30.606   8.250
 3567POPC   C3B 6897  15.383  30.609   7.950
 3567POPC   C4B 6898  15.350  30.601   7.650
 3568POPC   NC3 6899  14.397  43.932   9.450
 3568POPC   PO4 6900  14.436  43.874   9.150
 3568POPC   GL1 6901  14.423  43.889   8.850
 3568POPC   GL2 6902  14.447  43.997   8.850
 3568POPC   C1A 6903  14.380  43.852   8.550
 3568POPC   D2A 6904  14.396  43.869   8.250
 3568POPC   C3A 6905  14.373  43.915   7.950
 3568POPC   C4A 6906  14.378  43.848   7.650
 3568POPC   C1B 6907  14.428  44.090   8.550
 3568POPC   C2B 6908  14.358  44.142   8.250
 3568POPC   C3B 6909  14.371  44.099   7.950
 3568POPC   C4B 6910  14.445  44.098   7.650
 3569POPC   NC3 6911   6.627   4.281   9.450
 3569POPC   PO4 6912   6.640   4.344   9.150
 3569POPC   GL1 6913   6.647   4.340   8.850
 3569POPC   GL2 6914   6.629   4.235   8.850
 3569POPC   C1A 6915   6.678   4.290   8.550
 3569POPC   D2A 6916   6.613   4.308   8.250
 3569POPC   C3A 6917   6.635   4.309   7.950
 3569POPC   C4A 6918   6.602   4.280   7.650
 3569POPC   C1B 6919   6.550   4.056   8.550
 3569POPC   C2B 6920   6.610   4.104   8.250
 3569POPC   C3B 6921   6.596   4.119   7.950
 3569POPC   C4B 6922   6.594   4.045   7.650
 3570POPC   NC3 6923  39.231  13.643   9.450
 3570POPC   PO4 6924  39.185  13.646   9.150
 3570POPC   GL1 6925  39.205  13.637   8.850
 3570POPC   GL2 6926  39.163  13.751   8.850
 3570POPC   C1A 6927  39.193  13.630   8.550
 3570POPC   D2A 6928  39.190  13.671   8.250
 3570POPC   C3A 6929  39.197  13.603   7.950
 3570POPC   C4A 6930  39.206  13.626   7.650
 3570POPC   C1B 6931  39.009  13.771   8.550
 3570POPC   C2B 6932  39.056  13.817   8.250
 3570POPC   C3B 6933  39.070  13.785   7.950
 3570POPC   C4B 6934  39.039  13.819   7.650
 3571POPC   NC3 6935  41.530  27.554   9.450
 3571POPC   PO4 6936  41.545  27.557   9.150
 3571POPC   GL1 6937  41.605  27.552   8.850
 3571POPC   GL2 6938  41.585  27.710   8.850
 3571POPC   C1A 6939  41.578  27.563   8.550
 3571POPC   D2A 6940  41.599  27.618   8.250
 3571POPC   C3A 6941  41.538  27.590   7.950
 3571POPC   C4A 6942  41.519  27.544   7.650
 3571POPC   C1B 6943  41.535  27.889   8.550
 3571POPC   C2B 6944  41.537  27.831   8.250
 3571POPC   C3B 6945  41.528  27.796   7.950
 3571POPC   C4B 6946  41.531  27.816   7.650
 3572POPC   NC3 6947  23.705  44.655   9.450
 3572POPC   PO4 6948  23.698  44.670   9.150
 3572POPC   GL1 6949  23.745  44.679   8.850
 3572POPC   GL2 6950  23.613  44.624   8.850
 3572POPC   C1A 6951  23.715  44.711   8.550
 3572POPC   D2A 6952  23.696  44.698   8.250
 3572POPC   C3A 6953  23.723  44.649   7.950
 3572POPC   C4A 6954  23.763  44.614   7.650
 3572POPC   C1B 6955  23.561  44.539   8.550
 3572POPC   C2B 6956  23.478  44.484   8.250
 3572POPC   C3B 6957  23.506  44.452   7.950
 3572POPC   C4B 6958  23.481  44.529   7.650
 3573POPC   NC3 6959   5.829  43.073   9.450
 3573POPC   PO4 6960   5.910  43.062   9.150
 3573POPC   GL1 6961   5.820  43.117   8.850
 3573POPC   GL2 6962   5.955  43.005   8.850
 3573POPC   C1A 6963   5.882  43.138   8.550
 3573POPC   D2A 6964   5.901  43.073   8.250
 3573POPC   C3A 6965   5.853  43.134   7.950
 3573POPC   C4A 6966   5.896  43.079   7.650
 3573POPC   C1B 6967   6.014  42.888   8.550
 3573POPC   C2B 6968   6.041  42.961   8.250
 3573POPC   C3B 6969   6.081  42.901   7.950
 3573POPC   C4B 6970   6.019  42.952   7.650
 3574POPC   NC3 6971  43.893  43.123   9.450
 3574POPC   PO4 6972  43.878  43.137   9.150
 3574POPC   GL1 6973  43.843  43.099   8.850
 3574POPC   GL2 6974  43.843  43.268   8.850
 3574POPC   C1A 6975  43.873  43.121   8.550
 3574POPC   D2A 6976  43.895  43.121   8.250
 3574POPC   C3A 6977  43.866  43.101   7.950
 3574POPC   C4A 6978  43.935  43.082   7.650
 3574POPC   C1B 6979  43.813  43.358   8.550
 3574POPC   C2B 6980  43.748  43.348   8.250
 3574POPC   C3B 6981  43.754  43.298   7.950
 3574POPC   C4B 6982  43.821  43.383   7.650
 3575POPC   NC3 6983  24.498  19.841   9.450
 3575POPC   PO4 6984  24.457  19.881   9.150
 3575POPC   GL1 6985  24.500  19.797   8.850
 3575POPC   GL2 6986  24.400  19.876   8.850
 3575POPC   C1A 6987  24.459  19.862   8.550
 3575POPC   D2A 6988  24.463  19.857   8.250
 3575POPC   C3A 6989  24.494  19.831   7.950
 3575POPC   C4A 6990  24.465  19.884   7.650
 3575POPC   C1B 6991  24.235  19.897   8.550
 3575POPC   C2B 6992  24.257  19.938   8.250
 3575POPC   C3B 6993  24.260  19.917   7.950
 3575POPC   C4B 6994  24.280  19.948   7.650
 3576POPC   NC3 6995  44.641   1.981   9.450
 3576POPC   PO4 6996  44.645   1.968   9.150
 3576POPC   GL1 6997  44.712   1.996   8.850
 3576POPC   GL2 6998  44.740   1.848   8.850
 3576POPC   C1A 6999  44.657   2.030   8.550
 3576POPC   D2A 7000  44.653   2.034   8.250
 3576POPC   C3A 7001  44.678   1.947   7.950
 3576POPC   C4A 7002  44.657   1.988   7.650
 3576POPC   C1B 7003  44.783   1.846   8.550
 3576POPC   C2B 7004  44.814   1.837   8.250
 3576POPC   C3B 7005  44.871   1.802   7.950
 3576POPC   C4B 7006  44.853   1.816   7.650
 3577POPC   NC3 7007  30.660  39.976   9.450
 3577POPC   PO4 7008  30.687  40.020   9.150
 3577POPC   GL1 7009  30.732  39.980   8.850
 3577POPC   GL2 7010  30.692  39.856   8.850
 3577POPC   C1A 7011  30.682  39.974   8.550
 3577POPC   D2A 7012  30.692  39.968   8.250
 3577POPC   C3A 7013  30.655  40.006   7.950
 3577POPC   C4A 7014  30.673  40.045   7.650
 3577POPC   C1B 7015  30.778  39.810   8.550
 3577POPC   C2B 7016  30.741  39.767   8.250
 3577POPC   C3B 7017  30.770  39.727   7.950
 3577POPC   C4B 7018  30.734  39.796   7.650
 3578POPC   NC3 7019  15.155  36.933   9.450
 3578POPC   PO4 7020  15.210  36.872   9.150
 3578POPC   GL1 7021  15.221  36.931   8.850
 3578POPC   GL2 7022  15.147  36.984   8.850
 3578POPC   C1A 7023  15.131  36.861   8.550
 3578POPC   D2A 7024  15.169  36.865   8.250
 3578POPC   C3A 7025  15.178  36.877   7.950
 3578POPC   C4A 7026  15.192  36.918   7.650
 3578POPC   C1B 7027  15.117  37.124   8.550
 3578POPC   C2B 7028  15.122  37.169   8.250
 3578POPC   C3B 7029  15.102  37.143   7.950
 3578POPC   C4B 7030  15.076  37.173   7.650
 3579POPC   NC3 7031   8.148   2.002   9.450
 3579POPC   PO4 7032   8.228   1.966   9.150
 3579POPC   GL1 7033   8.191   2.027   8.850
 3579POPC   GL2 7034   8.289   2.112   8.850
 3579POPC   C1A 7035   8.181   1.999   8.550
 3579POPC   D2A 7036   8.148   1.947   8.250
 3579POPC   C3A 7037   8.170   1.992   7.950
 3579POPC   C4A 7038   8.207   1.957   7.650
 3579POPC   C1B 7039   8.323   2.159   8.550
 3579POPC   C2B 7040   8.341   2.162   8.250
 3579POPC   C3B 7041   8.294   2.178   7.950
 3579POPC   C4B 7042   8.294   2.220   7.650
 3580POPC   NC3 7043  26.029   3.500   9.450
 3580POPC   PO4 7044  26.073   3.543   9.150
 3580POPC   GL1 7045  26.041   3.499   8.850
 3580POPC   GL2 7046  26.158   3.675   8.850
 3580POPC   C1A 7047  26.046   3.586   8.550
 3580POPC   D2A 7048  26.055   3.563   8.250
 3580POPC   C3A 7049  26.049   3.545   7.950
 3580POPC   C4A 7050  26.083   3.578   7.650
 3580POPC   C1B 7051  26.188   3.704   8.550
 3580POPC   C2B 7052  26.187   3.792   8.250
 3580POPC   C3B 7053  26.197   3.725   7.950
 3580POPC   C4B 7054  26.222   3.740   7.650
 3581POPC   NC3 7055  36.141   9.781   9.450
 3581POPC   PO4 7056  36.081   9.704   9.150
 3581POPC   GL1 7057  36.091   9.795   8.850
 3581POPC   GL2 7058  36.184   9.578   8.850
 3581POPC   C1A 7059  36.145   9.750   8.550
 3581POPC   D2A 7060  36.147   9.712   8.250
 3581POPC   C3A 7061  36.081   9.790   7.950
 3581POPC   C4A 7062  36.114   9.727   7.650
 3581POPC   C1B 7063  36.159   9.535   8.550
 3581POPC   C2B 7064  36.144   9.453   8.250
 3581POPC   C3B 7065  36.111   9.475   7.950
 3581POPC   C4B 7066  36.114   9.483   7.650
 3582POPC   NC3 7067  38.499   9.016   9.450
 3582POPC   PO4 7068  38.419   8.942   9.150
 3582POPC   GL1 7069  38.444   8.976   8.850
 3582POPC   GL2 7070  38.480   8.850   8.850
 3582POPC   C1A 7071  38.444   9.001   8.550
 3582POPC   D2A 7072  38.423   8.964   8.250
 3582POPC   C3A 7073  38.428   8.940   7.950
 3582POPC   C4A 7074  38.503   8.960   7.650
 3582POPC   C1B 7075  38.495   8.751   8.550
 3582POPC   C2B 7076  38.499   8.713   8.250
 3582POPC   C3B 7077  38.437   8.708   7.950
 3582POPC   C4B 7078  38.458   8.696   7.650
 3583POPC   NC3 7079   7.373  29.880   9.450
 3583POPC   PO4 7080   7.407  29.960   9.150
 3583POPC   GL1 7081   7.411  29.895   8.850
 3583POPC   GL2 7082   7.312  29.923   8.850
 3583POPC   C1A 7083   7.451  29.923   8.550
 3583POPC   D2A 7084   7.384  29.939   8.250
 3583POPC   C3A 7085   7.388  29.969   7.950
 3583POPC   C4A 7086   7.450  29.900   7.650
 3583POPC   C1B 7087   7.220  29.919   8.550
 3583POPC   C2B 7088   7.151  30.007   8.250
 3583POPC   C3B 7089   7.172  29.921   7.950
 3583POPC   C4B 7090   7.187  29.974   7.650
 3584POPC   NC3 7091  26.803   5.107   9.450
 3584POPC   PO4 7092  26.790   5.058   9.150
 3584POPC   GL1 7093  26.826   5.130   8.850
 3584POPC   GL2 7094  26.690   5.217   8.850
 3584POPC   C1A 7095  26.825   5.076   8.550
 3584POPC   D2A 7096  26.842   5.103   8.250
 3584POPC   C3A 7097  26.860   5.134   7.950
 3584POPC   C4A 7098  26.856   5.111   7.650
 3584POPC   C1B 7099  26.664   5.233   8.550
 3584POPC   C2B 7100  26.675   5.261   8.250
 3584POPC   C3B 7101  26.662   5.302   7.950
 3584POPC   C4B 7102  26.593   5.284   7.650
 3585POPC   NC3 7103  14.367  26.047   9.450
 3585POPC   PO4 7104  14.436  26.042   9.150
 3585POPC   GL1 7105  14.405  26.001   8.850
 3585POPC   GL2 7106  14.542  25.965   8.850
 3585POPC   C1A 7107  14.401  26.049   8.550
 3585POPC   D2A 7108  14.395  26.013   8.250
 3585POPC   C3A 7109  14.355  26.028   7.950
 3585POPC   C4A 7110  14.406  26.033   7.650
 3585POPC   C1B 7111  14.607  25.930   8.550
 3585POPC   C2B 7112  14.586  25.965   8.250
 3585POPC   C3B 7113  14.599  25.936   7.950
 3585POPC   C4B 7114  14.668  25.929   7.650
 3586POPC   NC3 7115  43.912   7.452   9.450
 3586POPC   PO4 7116  43.934   7.396   9.150
 3586POPC   GL1 7117  43.880   7.436   8.850
 3586POPC   GL2 7118  43.828   7.322   8.850
 3586POPC   C1A 7119  43.899   7.430   8.550
 3586POPC   D2A 7120  43.867   7.416   8.250
 3586POPC   C3A 7121  43.877   7.393   7.950
 3586POPC   C4A 7122  43.879   7.372   7.650
 3586POPC   C1B 7123  43.807   7.172   8.550
 3586POPC   C2B 7124  43.812   7.195   8.250
 3586POPC   C3B 7125  43.812   7.147   7.950
 3586POPC   C4B 7126  43.807   7.202   7.650
 3587POPC   NC3 7127  35.343  21.424   9.450
 3587POPC   PO4 7128  35.365  21.339   9.150
 3587POPC   GL1 7129  35.356  21.372   8.850
 3587POPC   GL2 7130  35.232  21.523   8.850
 3587POPC   C1A 7131  35.401  21.435   8.550
 3587POPC   D2A 7132  35.391  21.368   8.250
 3587POPC   C3A 7133  35.306  21.382   7.950
 3587POPC   C4A 7134  35.370  21.407   7.650
 3587POPC   C1B 7135  35.228  21.620   8.550
 3587POPC   C2B 7136  35.254  21.563   8.250
 3587POPC   C3B 7137  35.199  21.588   7.950
 3587POPC   C4B 7138  35.175  21.552   7.650
 3588POPC   NC3 7139   5.871   5.897   9.450
 3588POPC   PO4 7140   5.890   5.894   9.150
 3588POPC   GL1 7141   5.825   5.844   8.850
 3588POPC   GL2 7142   5.971   5.735   8.850
 3588POPC   C1A 7143   5.863   5.824   8.550
 3588POPC   D2A 7144   5.821   5.882   8.250
 3588POPC   C3A 7145   5.859   5.819   7.950
 3588POPC   C4A 7146   5.918   5.911   7.650
 3588POPC   C1B 7147   6.038   5.675   8.550
 3588POPC   C2B 7148   5.965   5.619   8.250
 3588POPC   C3B 7149   5.941   5.613   7.950
 3588POPC   C4B 7150   6.021   5.607   7.650
 3589POPC   NC3 7151  34.554  19.842   9.450
 3589POPC   PO4 7152  34.587  19.831   9.150
 3589POPC   GL1 7153  34.616  19.856   8.850
 3589POPC   GL2 7154  34.464  19.942   8.850
 3589POPC   C1A 7155  34.532  19.810   8.550
 3589POPC   D2A 7156  34.553  19.819   8.250
 3589POPC   C3A 7157  34.612  19.825   7.950
 3589POPC   C4A 7158  34.531  19.828   7.650
 3589POPC   C1B 7159  34.424  20.017   8.550
 3589POPC   C2B 7160  34.471  20.082   8.250
 3589POPC   C3B 7161  34.465  20.089   7.950
 3589POPC   C4B 7162  34.452  20.016   7.650
 3590POPC   NC3 7163  12.817  26.867   9.450
 3590POPC   PO4 7164  12.871  26.794   9.150
 3590POPC   GL1 7165  12.885  26.855   8.850
 3590POPC   GL2 7166  12.937  26.747   8.850
 3590POPC   C1A 7167  12.815  26.788   8.550
 3590POPC   D2A 7168  12.857  26.832   8.250
 3590POPC   C3A 7169  12.892  26.829   7.950
 3590POPC   C4A 7170  12.860  26.831   7.650
 3590POPC   C1B 7171  12.924  26.555   8.550
 3590POPC   C2B 7172  12.964  26.534   8.250
 3590POPC   C3B 7173  12.957  26.576   7.950
 3590POPC   C4B 7174  12.897  26.624   7.650
 3591POPC   NC3 7175   4.297  41.578   9.450
 3591POPC   PO4 7176   4.277  41.518   9.150
 3591POPC   GL1 7177   4.322  41.589   8.850
 3591POPC   GL2 7178   4.209  41.713   8.850
 3591POPC   C1A 7179   4.315  41.561   8.550
 3591POPC   D2A 7180   4.277  41.514   8.250
 3591POPC   C3A 7181   4.340  41.534   7.950
 3591POPC   C4A 7182   4.353  41.579   7.650
 3591POPC   C1B 7183   4.140  41.760   8.550
 3591POPC   C2B 7184   4.206  41.722   8.250
 3591POPC   C3B 7185   4.215  41.753   7.950
 3591POPC   C4B 7186   4.220  41.816   7.650
 3592POPC   NC3 7187  35.349  40.789   9.450
 3592POPC   PO4 7188  35.351  40.757   9.150
 3592POPC   GL1 7189  35.316  40.739   8.850
 3592POPC   GL2 7190  35.521  40.802   8.850
 3592POPC   C1A 7191  35.368  40.770   8.550
 3592POPC   D2A 7192  35.311  40.788   8.250
 3592POPC   C3A 7193  35.375  40.830   7.950
 3592POPC   C4A 7194  35.345  40.811   7.650
 3592POPC   C1B 7195  35.569  40.902   8.550
 3592POPC   C2B 7196  35.619  40.863   8.250
 3592POPC   C3B 7197  35.584  40.869   7.950
 3592POPC   C4B 7198  35.609  40.816   7.650
 3593POPC   NC3 7199  21.404   7.415   9.450
 3593POPC   PO4 7200  21.433   7.406   9.150
 3593POPC   GL1 7201  21.374   7.422   8.850
 3593POPC   GL2 7202  21.384   7.346   8.850
 3593POPC   C1A 7203  21.373   7.387   8.550
 3593POPC   D2A 7204  21.378   7.378   8.250
 3593POPC   C3A 7205  21.429   7.430   7.950
 3593POPC   C4A 7206  21.340   7.376   7.650
 3593POPC   C1B 7207  21.458   7.137   8.550
 3593POPC   C2B 7208  21.405   7.153   8.250
 3593POPC   C3B 7209  21.480   7.202   7.950
 3593POPC   C4B 7210  21.486   7.159   7.650
 3594POPC   NC3 7211  21.377   5.121   9.450
 3594POPC   PO4 7212  21.433   5.044   9.150
 3594POPC   GL1 7213  21.380   5.079   8.850
 3594POPC   GL2 7214  21.423   5.237   8.850
 3594POPC   C1A 7215  21.367   5.106   8.550
 3594POPC   D2A 7216  21.365   5.116   8.250
 3594POPC   C3A 7217  21.431   5.136   7.950
 3594POPC   C4A 7218  21.376   5.085   7.650
 3594POPC   C1B 7219  21.485   5.370   8.550
 3594POPC   C2B 7220  21.488   5.279   8.250
 3594POPC   C3B 7221  21.458   5.284   7.950
 3594POPC   C4B 7222  21.450   5.304   7.650
 3595POPC   NC3 7223  22.184  34.615   9.450
 3595POPC   PO4 7224  22.146  34.553   9.150
 3595POPC   GL1 7225  22.129  34.591   8.850
 3595POPC   GL2 7226  22.077  34.526   8.850
 3595POPC   C1A 7227  22.131  34.613   8.550
 3595POPC   D2A 7228  22.171  34.609   8.250
 3595POPC   C3A 7229  22.197  34.624   7.950
 3595POPC   C4A 7230  22.150  34.576   7.650
 3595POPC   C1B 7231  21.954  34.600   8.550
 3595POPC   C2B 7232  21.884  34.588   8.250
 3595POPC   C3B 7233  21.926  34.579   7.950
 3595POPC   C4B 7234  21.877  34.586   7.650
 3596POPC   NC3 7235  14.422   9.708   9.450
 3596POPC   PO4 7236  14.386   9.751   9.150
 3596POPC   GL1 7237  14.402   9.791   8.850
 3596POPC   GL2 7238  14.449   9.864   8.850
 3596POPC   C1A 7239  14.388   9.786   8.550
 3596POPC   D2A 7240  14.447   9.715   8.250
 3596POPC   C3A 7241  14.422   9.722   7.950
 3596POPC   C4A 7242  14.396   9.750   7.650
 3596POPC   C1B 7243  14.499   9.934   8.550
 3596POPC   C2B 7244  14.493   9.946   8.250
 3596POPC   C3B 7245  14.497   9.968   7.950
 3596POPC   C4B 7246  14.520   9.919   7.650
 3597POPC   NC3 7247  30.648  42.331   9.450
 3597POPC   PO4 7248  30.722  42.346   9.150
 3597POPC   GL1 7249  30.651  42.346   8.850
 3597POPC   GL2 7250  30.702  42.208   8.850
 3597POPC   C1A 7251  30.660  42.326   8.550
 3597POPC   D2A 7252  30.664  42.337   8.250
 3597POPC   C3A 7253  30.695  42.339   7.950
 3597POPC   C4A 7254  30.703  42.369   7.650
 3597POPC   C1B 7255  30.772  42.050   8.550
 3597POPC   C2B 7256  30.743  42.132   8.250
 3597POPC   C3B 7257  30.709  42.112   7.950
 3597POPC   C4B 7258  30.731  42.119   7.650
 3598POPC   NC3 7259  41.607   2.745   9.450
 3598POPC   PO4 7260  41.517   2.729   9.150
 3598POPC   GL1 7261  41.558   2.758   8.850
 3598POPC   GL2 7262  41.471   2.832   8.850
 3598POPC   C1A 7263  41.602   2.748   8.550
 3598POPC   D2A 7264  41.545   2.806   8.250
 3598POPC   C3A 7265  41.548   2.768   7.950
 3598POPC   C4A 7266  41.592   2.776   7.650
 3598POPC   C1B 7267  41.362   2.967   8.550
 3598POPC   C2B 7268  41.409   2.962   8.250
 3598POPC   C3B 7269  41.344   2.989   7.950
 3598POPC   C4B 7270  41.428   2.904   7.650
 3599POPC   NC3 7271  37.725  30.661   9.450
 3599POPC   PO4 7272  37.678  30.717   9.150
 3599POPC   GL1 7273  37.665  30.702   8.850
 3599POPC   GL2 7274  37.796  30.748   8.850
 3599POPC   C1A 7275  37.663  30.724   8.550
 3599POPC   D2A 7276  37.692  30.660   8.250
 3599POPC   C3A 7277  37.643  30.714   7.950
 3599POPC   C4A 7278  37.630  30.727   7.650
 3599POPC   C1B 7279  37.928  30.880   8.550
 3599POPC   C2B 7280  37.861  30.790   8.250
 3599POPC   C3B 7281  37.899  30.848   7.950
 3599POPC   C4B 7282  37.918  30.784   7.650
 3600POPC   NC3 7283   0.422   8.213   9.450
 3600POPC   PO4 7284   0.475   8.174   9.150
 3600POPC   GL1 7285   0.441   8.179   8.850
 3600POPC   GL2 7286   0.330   8.173   8.850
 3600POPC   C1A 7287   0.463   8.187   8.550
 3600POPC   D2A 7288   0.445   8.224   8.250
 3600POPC   C3A 7289   0.474   8.193   7.950
 3600POPC   C4A 7290   0.468   8.186   7.650
 3600POPC   C1B 7291   0.158   8.154   8.550
 3600POPC   C2B 7292   0.205   8.185   8.250
 3600POPC   C3B 7293   0.165   8.138   7.950
 3600POPC   C4B 7294   0.172   8.152   7.650
 3601POPC   NC3 7295  14.431  43.091   9.450
 3601POPC   PO4 7296  14.399  43.118   9.150
 3601POPC   GL1 7297  14.432  43.136   8.850
 3601POPC   GL2 7298  14.356  43.199   8.850
 3601POPC   C1A 7299  14.430  43.104   8.550
 3601POPC   D2A 7300  14.366  43.153   8.250
 3601POPC   C3A 7301  14.423  43.091   7.950
 3601POPC   C4A 7302  14.359  43.150   7.650
 3601POPC   C1B 7303  14.222  43.329   8.550
 3601POPC   C2B 7304  14.243  43.300   8.250
 3601POPC   C3B 7305  14.274  43.355   7.950
 3601POPC   C4B 7306  14.220  43.350   7.650
 3602POPC   NC3 7307  17.522  26.804   9.450
 3602POPC   PO4 7308  17.554  26.829   9.150
 3602POPC   GL1 7309  17.470  26.863   8.850
 3602POPC   GL2 7310  17.513  26.940   8.850
 3602POPC   C1A 7311  17.507  26.788   8.550
 3602POPC   D2A 7312  17.538  26.853   8.250
 3602POPC   C3A 7313  17.466  26.859   7.950
 3602POPC   C4A 7314  17.528  26.855   7.650
 3602POPC   C1B 7315  17.449  27.098   8.550
 3602POPC   C2B 7316  17.502  27.045   8.250
 3602POPC   C3B 7317  17.435  27.075   7.950
 3602POPC   C4B 7318  17.486  27.059   7.650
 3603POPC   NC3 7319  27.596  10.495   9.450
 3603POPC   PO4 7320  27.608  10.563   9.150
 3603POPC   GL1 7321  27.580  10.495   8.850
 3603POPC   GL2 7322  27.513  10.421   8.850
 3603POPC   C1A 7323  27.581  10.512   8.550
 3603POPC   D2A 7324  27.633  10.484   8.250
 3603POPC   C3A 7325  27.612  10.476   7.950
 3603POPC   C4A 7326  27.561  10.493   7.650
 3603POPC   C1B 7327  27.425  10.416   8.550
 3603POPC   C2B 7328  27.347  10.412   8.250
 3603POPC   C3B 7329  27.417  10.375   7.950
 3603POPC   C4B 7330  27.398  10.337   7.650
 3604POPC   NC3 7331  33.046  42.360   9.450
 3604POPC   PO4 7332  32.996  42.328   9.150
 3604POPC   GL1 7333  33.030  42.322   8.850
 3604POPC   GL2 7334  33.117  42.426   8.850
 3604POPC   C1A 7335  33.053  42.365   8.550
 3604POPC   D2A 7336  32.982  42.354   8.250
 3604POPC   C3A 7337  33.051  42.305   7.950
 3604POPC   C4A 7338  32.990  42.299   7.650
 3604POPC   C1B 7339  33.227  42.531   8.550
 3604POPC   C2B 7340  33.251  42.545   8.250
 3604POPC   C3B 7341  33.246  42.516   7.950
 3604POPC   C4B 7342  33.200  42.520   7.650
 3605POPC   NC3 7343  15.912  23.726   9.450
 3605POPC   PO4 7344  15.936  23.746   9.150
 3605POPC   GL1 7345  15.994  23.757   8.850
 3605POPC   GL2 7346  15.967  23.609   8.850
 3605POPC   C1A 7347  15.997  23.744   8.550
 3605POPC   D2A 7348  15.945  23.682   8.250
 3605POPC   C3A 7349  15.994  23.721   7.950
 3605POPC   C4A 7350  15.983  23.727   7.650
 3605POPC   C1B 7351  15.888  23.470   8.550
 3605POPC   C2B 7352  15.880  23.425   8.250
 3605POPC   C3B 7353  15.929  23.439   7.950
 3605POPC   C4B 7354  15.934  23.422   7.650
 3606POPC   NC3 7355  26.013  36.163   9.450
 3606POPC   PO4 7356  26.071  36.090   9.150
 3606POPC   GL1 7357  26.013  36.115   8.850
 3606POPC   GL2 7358  25.906  36.150   8.850
 3606POPC   C1A 7359  26.062  36.125   8.550
 3606POPC   D2A 7360  25.999  36.112   8.250
 3606POPC   C3A 7361  25.995  36.154   7.950
 3606POPC   C4A 7362  26.028  36.110   7.650
 3606POPC   C1B 7363  25.795  36.175   8.550
 3606POPC   C2B 7364  25.765  36.088   8.250
 3606POPC   C3B 7365  25.807  36.095   7.950
 3606POPC   C4B 7366  25.766  36.174   7.650
 3607POPC   NC3 7367   5.859   5.132   9.450
 3607POPC   PO4 7368   5.866   5.120   9.150
 3607POPC   GL1 7369   5.907   5.050   8.850
 3607POPC   GL2 7370   5.915   4.963   8.850
 3607POPC   C1A 7371   5.862   5.123   8.550
 3607POPC   D2A 7372   5.848   5.052   8.250
 3607POPC   C3A 7373   5.881   5.064   7.950
 3607POPC   C4A 7374   5.827   5.075   7.650
 3607POPC   C1B 7375   5.928   4.885   8.550
 3607POPC   C2B 7376   5.926   4.861   8.250
 3607POPC   C3B 7377   5.908   4.870   7.950
 3607POPC   C4B 7378   5.905   4.869   7.650
 3608POPC   NC3 7379  44.682  32.240   9.450
 3608POPC   PO4 7380  44.640  32.262   9.150
 3608POPC   GL1 7381  44.613  32.296   8.850
 3608POPC   GL2 7382  44.689  32.185   8.850
 3608POPC   C1A 7383  44.630  32.295   8.550
 3608POPC   D2A 7384  44.674  32.244   8.250
 3608POPC   C3A 7385  44.709  32.283   7.950
 3608POPC   C4A 7386  44.631  32.240   7.650
 3608POPC   C1B 7387  44.814  32.075   8.550
 3608POPC   C2B 7388  44.812  32.060   8.250
 3608POPC   C3B 7389  44.780  32.026   7.950
 3608POPC   C4B 7390  44.761  32.030   7.650
 3609POPC   NC3 7391  44.712  29.114   9.450
 3609POPC   PO4 7392  44.680  29.151   9.150
 3609POPC   GL1 7393  44.617  29.187   8.850
 3609POPC   GL2 7394  44.716  29.001   8.850
 3609POPC   C1A 7395  44.690  29.111   8.550
 3609POPC   D2A 7396  44.684  29.139   8.250
 3609POPC   C3A 7397  44.620  29.110   7.950
 3609POPC   C4A 7398  44.643  29.109   7.650
 3609POPC   C1B 7399  44.733  28.932   8.550
 3609POPC   C2B 7400  44.702  28.912   8.250
 3609POPC   C3B 7401  44.711  28.862   7.950
 3609POPC   C4B 7402  44.768  28.893   7.650
 3610POPC   NC3 7403  31.492  23.679   9.450
 3610POPC   PO4 7404  31.491  23.761   9.150
 3610POPC   GL1 7405  31.426  23.726   8.850
 3610POPC   GL2 7406  31.498  23.803   8.850
 3610POPC   C1A 7407  31.451  23.696   8.550
 3610POPC   D2A 7408  31.468  23.748   8.250
 3610POPC   C3A 7409  31.468  23.726   7.950
 3610POPC   C4A 7410  31.505  23.670   7.650
 3610POPC   C1B 7411  31.500  23.934   8.550
 3610POPC   C2B 7412  31.484  23.971   8.250
 3610POPC   C3B 7413  31.507  23.914   7.950
 3610POPC   C4B 7414  31.541  24.003   7.650
 3611POPC   NC3 7415  33.818  18.244   9.450
 3611POPC   PO4 7416  33.835  18.282   9.150
 3611POPC   GL1 7417  33.846  18.314   8.850
 3611POPC   GL2 7418  33.797  18.170   8.850
 3611POPC   C1A 7419  33.760  18.298   8.550
 3611POPC   D2A 7420  33.783  18.242   8.250
 3611POPC   C3A 7421  33.824  18.252   7.950
 3611POPC   C4A 7422  33.789  18.256   7.650
 3611POPC   C1B 7423  33.835  17.987   8.550
 3611POPC   C2B 7424  33.810  18.061   8.250
 3611POPC   C3B 7425  33.846  18.079   7.950
 3611POPC   C4B 7426  33.760  18.070   7.650
 3612POPC   NC3 7427   8.183  29.118   9.450
 3612POPC   PO4 7428   8.189  29.112   9.150
 3612POPC   GL1 7429   8.208  29.165   8.850
 3612POPC   GL2 7430   8.201  28.980   8.850
 3612POPC   C1A 7431   8.235  29.147   8.550
 3612POPC   D2A 7432   8.211  29.126   8.250
 3612POPC   C3A 7433   8.234  29.115   7.950
 3612POPC   C4A 7434   8.212  29.101   7.650
 3612POPC   C1B 7435   8.091  28.940   8.550
 3612POPC   C2B 7436   8.106  28.928   8.250
 3612POPC   C3B 7437   8.141  28.949   7.950
 3612POPC   C4B 7438   8.086  28.919   7.650
 3613POPC   NC3 7439   6.599  26.076   9.450
 3613POPC   PO4 7440   6.692  26.061   9.150
 3613POPC   GL1 7441   6.693  25.991   8.850
 3613POPC   GL2 7442   6.775  26.122   8.850
 3613POPC   C1A 7443   6.687  26.051   8.550
 3613POPC   D2A 7444   6.611  26.072   8.250
 3613POPC   C3A 7445   6.688  26.062   7.950
 3613POPC   C4A 7446   6.635  26.041   7.650
 3613POPC   C1B 7447   6.865  26.171   8.550
 3613POPC   C2B 7448   6.792  26.164   8.250
 3613POPC   C3B 7449   6.842  26.209   7.950
 3613POPC   C4B 7450   6.854  26.158   7.650
 3614POPC   NC3 7451  12.886  44.685   9.450
 3614POPC   PO4 7452  12.892  44.630   9.150
 3614POPC   GL1 7453  12.861  44.677   8.850
 3614POPC   GL2 7454  12.921  44.775   8.850
 3614POPC   C1A 7455  12.867  44.681   8.550
 3614POPC   D2A 7456  12.827  44.684   8.250
 3614POPC   C3A 7457  12.817  44.666   7.950
 3614POPC   C4A 7458  12.884  44.688   7.650
 3614POPC   C1B 7459  12.898  44.866   8.550
 3614POPC   C2B 7460  12.883  44.897   8.250
 3614POPC   C3B 7461  12.937  44.907   7.950
 3614POPC   C4B 7462  12.861  44.953   7.650
 3615POPC   NC3 7463  17.499  22.925   9.450
 3615POPC   PO4 7464  17.547  22.969   9.150
 3615POPC   GL1 7465  17.540  22.889   8.850
 3615POPC   GL2 7466  17.428  22.994   8.850
 3615POPC   C1A 7467  17.532  22.930   8.550
 3615POPC   D2A 7468  17.539  22.955   8.250
 3615POPC   C3A 7469  17.501  22.929   7.950
 3615POPC   C4A 7470  17.543  22.907   7.650
 3615POPC   C1B 7471  17.240  22.968   8.550
 3615POPC   C2B 7472  17.233  22.930   8.250
 3615POPC   C3B 7473  17.294  22.974   7.950
 3615POPC   C4B 7474  17.260  23.017   7.650
 3616POPC   NC3 7475  24.448   3.523   9.450
 3616POPC   PO4 7476  24.459   3.543   9.150
 3616POPC   GL1 7477  24.451   3.558   8.850
 3616POPC   GL2 7478  24.473   3.392   8.850
 3616POPC   C1A 7479  24.453   3.583   8.550
 3616POPC   D2A 7480  24.487   3.549   8.250
 3616POPC   C3A 7481  24.480   3.584   7.950
 3616POPC   C4A 7482  24.520   3.561   7.650
 3616POPC   C1B 7483  24.479   3.322   8.550
 3616POPC   C2B 7484  24.474   3.304   8.250
 3616POPC   C3B 7485  24.414   3.259   7.950
 3616POPC   C4B 7486  24.412   3.291   7.650
 3617POPC   NC3 7487   8.162  22.893   9.450
 3617POPC   PO4 7488   8.206  22.972   9.150
 3617POPC   GL1 7489   8.147  22.922   8.850
 3617POPC   GL2 7490   8.295  23.093   8.850
 3617POPC   C1A 7491   8.183  22.946   8.550
 3617POPC   D2A 7492   8.243  22.913   8.250
 3617POPC   C3A 7493   8.234  22.909   7.950
 3617POPC   C4A 7494   8.175  22.913   7.650
 3617POPC   C1B 7495   8.283  23.167   8.550
 3617POPC   C2B 7496   8.305  23.192   8.250
 3617POPC   C3B 7497   8.317  23.167   7.950
 3617POPC   C4B 7498   8.257  23.155   7.650
 3618POPC   NC3 7499  11.298  28.369   9.450
 3618POPC   PO4 7500  11.302  28.375   9.150
 3618POPC   GL1 7501  11.304  28.414   8.850
 3618POPC   GL2 7502  11.211  28.213   8.850
 3618POPC   C1A 7503  11.297  28.332   8.550
 3618POPC   D2A 7504  11.256  28.403   8.250
 3618POPC   C3A 7505  11.343  28.336   7.950
 3618POPC   C4A 7506  11.343  28.415   7.650
 3618POPC   C1B 7507  11.140  28.140   8.550
 3618POPC   C2B 7508  11.156  28.138   8.250
 3618POPC   C3B 7509  11.186  28.185   7.950
 3618POPC   C4B 7510  11.227  28.139   7.650
 3619POPC   NC3 7511  40.779  11.295   9.450
 3619POPC   PO4 7512  40.829  11.335   9.150
 3619POPC   GL1 7513  40.820  11.313   8.850
 3619POPC   GL2 7514  40.687  11.173   8.850
 3619POPC   C1A 7515  40.799  11.338   8.550
 3619POPC   D2A 7516  40.762  11.343   8.250
 3619POPC   C3A 7517  40.765  11.325   7.950
 3619POPC   C4A 7518  40.799  11.263   7.650
 3619POPC   C1B 7519  40.626  11.119   8.550
 3619POPC   C2B 7520  40.618  11.044   8.250
 3619POPC   C3B 7521  40.615  11.106   7.950
 3619POPC   C4B 7522  40.651  11.059   7.650
 3620POPC   NC3 7523   5.824  12.811   9.450
 3620POPC   PO4 7524   5.882  12.828   9.150
 3620POPC   GL1 7525   5.899  12.824   8.850
 3620POPC   GL2 7526   5.815  12.809   8.850
 3620POPC   C1A 7527   5.834  12.844   8.550
 3620POPC   D2A 7528   5.867  12.825   8.250
 3620POPC   C3A 7529   5.891  12.818   7.950
 3620POPC   C4A 7530   5.829  12.861   7.650
 3620POPC   C1B 7531   5.650  12.686   8.550
 3620POPC   C2B 7532   5.666  12.685   8.250
 3620POPC   C3B 7533   5.653  12.669   7.950
 3620POPC   C4B 7534   5.738  12.697   7.650
 3621POPC   NC3 7535  29.938  43.152   9.450
 3621POPC   PO4 7536  29.936  43.138   9.150
 3621POPC   GL1 7537  29.881  43.150   8.850
 3621POPC   GL2 7538  30.070  43.063   8.850
 3621POPC   C1A 7539  29.905  43.134   8.550
 3621POPC   D2A 7540  29.893  43.158   8.250
 3621POPC   C3A 7541  29.924  43.157   7.950
 3621POPC   C4A 7542  29.921  43.105   7.650
 3621POPC   C1B 7543  30.151  42.964   8.550
 3621POPC   C2B 7544  30.106  42.973   8.250
 3621POPC   C3B 7545  30.164  43.021   7.950
 3621POPC   C4B 7546  30.126  43.019   7.650
 3622POPC   NC3 7547  19.812   7.378   9.450
 3622POPC   PO4 7548  19.876   7.470   9.150
 3622POPC   GL1 7549  19.831   7.390   8.850
 3622POPC   GL2 7550  19.773   7.495   8.850
 3622POPC   C1A 7551  19.793   7.416   8.550
 3622POPC   D2A 7552  19.799   7.458   8.250
 3622POPC   C3A 7553  19.853   7.382   7.950
 3622POPC   C4A 7554  19.813   7.452   7.650
 3622POPC   C1B 7555  19.585   7.564   8.550
 3622POPC   C2B 7556  19.663   7.546   8.250
 3622POPC   C3B 7557  19.588   7.512   7.950
 3622POPC   C4B 7558  19.623   7.568   7.650
 3623POPC   NC3 7559  31.465  29.137   9.450
 3623POPC   PO4 7560  31.451  29.152   9.150
 3623POPC   GL1 7561  31.425  29.101   8.850
 3623POPC   GL2 7562  31.561  29.146   8.850
 3623POPC   C1A 7563  31.507  29.193   8.550
 3623POPC   D2A 7564  31.496  29.189   8.250
 3623POPC   C3A 7565  31.496  29.171   7.950
 3623POPC   C4A 7566  31.445  29.112   7.650
 3623POPC   C1B 7567  31.672  29.043   8.550
 3623POPC   C2B 7568  31.668  29.026   8.250
 3623POPC   C3B 7569  31.673  29.009   7.950
 3623POPC   C4B 7570  31.677  29.011   7.650
 3624POPC   NC3 7571  14.437  37.656   9.450
 3624POPC   PO4 7572  14.383  37.634   9.150
 3624POPC   GL1 7573  14.450  37.728   8.850
 3624POPC   GL2 7574  14.369  37.822   8.850
 3624POPC   C1A 7575  14.411  37.660   8.550
 3624POPC   D2A 7576  14.423  37.634   8.250
 3624POPC   C3A 7577  14.385  37.709   7.950
 3624POPC   C4A 7578  14.448  37.684   7.650
 3624POPC   C1B 7579  14.341  37.907   8.550
 3624POPC   C2B 7580  14.367  37.875   8.250
 3624POPC   C3B 7581  14.312  37.891   7.950
 3624POPC   C4B 7582  14.384  37.949   7.650
 3625POPC   NC3 7583  37.637  22.963   9.450
 3625POPC   PO4 7584  37.704  22.916   9.150
 3625POPC   GL1 7585  37.638  22.977   8.850
 3625POPC   GL2 7586  37.547  22.995   8.850
 3625POPC   C1A 7587  37.637  22.937   8.550
 3625POPC   D2A 7588  37.712  22.938   8.250
 3625POPC   C3A 7589  37.670  22.959   7.950
 3625POPC   C4A 7590  37.680  22.919   7.650
 3625POPC   C1B 7591  37.486  23.018   8.550
 3625POPC   C2B 7592  37.462  23.034   8.250
 3625POPC   C3B 7593  37.483  23.025   7.950
 3625POPC   C4B 7594  37.418  23.012   7.650
 3626POPC   NC3 7595   8.216  36.944   9.450
 3626POPC   PO4 7596   8.232  36.915   9.150
 3626POPC   GL1 7597   8.157  36.899   8.850
 3626POPC   GL2 7598   8.150  36.788   8.850
 3626POPC   C1A 7599   8.202  36.911   8.550
 3626POPC   D2A 7600   8.218  36.874   8.250
 3626POPC   C3A 7601   8.221  36.936   7.950
 3626POPC   C4A 7602   8.238  36.866   7.650
 3626POPC   C1B 7603   8.067  36.716   8.550
 3626POPC   C2B 7604   8.052  36.768   8.250
 3626POPC   C3B 7605   7.981  36.740   7.950
 3626POPC   C4B 7606   8.063  36.724   7.650
 3627POPC   NC3 7607  33.011   5.051   9.450
 3627POPC   PO4 7608  33.061   5.126   9.150
 3627POPC   GL1 7609  33.024   5.050   8.850
 3627POPC   GL2 7610  33.095   4.961   8.850
 3627POPC   C1A 7611  33.041   5.059   8.550
 3627POPC   D2A 7612  32.986   5.098   8.250
 3627POPC   C3A 7613  33.023   5.056   7.950
 3627POPC   C4A 7614  32.977   5.067   7.650
 3627POPC   C1B 7615  33.118   4.872   8.550
 3627POPC   C2B 7616  33.131   4.853   8.250
 3627POPC   C3B 7617  33.068   4.855   7.950
 3627POPC   C4B 7618  33.151   4.886   7.650
 3628POPC   NC3 7619  18.261   5.862   9.450
 3628POPC   PO4 7620  18.245   5.829   9.150
 3628POPC   GL1 7621  18.306   5.866   8.850
 3628POPC   GL2 7622  18.157   5.884   8.850
 3628POPC   C1A 7623  18.255   5.862   8.550
 3628POPC   D2A 7624  18.306   5.848   8.250
 3628POPC   C3A 7625  18.280   5.823   7.950
 3628POPC   C4A 7626  18.270   5.849   7.650
 3628POPC   C1B 7627  18.012   5.819   8.550
 3628POPC   C2B 7628  18.006   5.855   8.250
 3628POPC   C3B 7629  17.990   5.903   7.950
 3628POPC   C4B 7630  17.995   5.840   7.650
 3629POPC   NC3 7631  22.155  18.310   9.450
 3629POPC   PO4 7632  22.134  18.238   9.150
 3629POPC   GL1 7633  22.183  18.286   8.850
 3629POPC   GL2 7634  22.321  18.301   8.850
 3629POPC   C1A 7635  22.131  18.323   8.550
 3629POPC   D2A 7636  22.113  18.280   8.250
 3629POPC   C3A 7637  22.120  18.285   7.950
 3629POPC   C4A 7638  22.138  18.282   7.650
 3629POPC   C1B 7639  22.416  18.363   8.550
 3629POPC   C2B 7640  22.427  18.335   8.250
 3629POPC   C3B 7641  22.434  18.404   7.950
 3629POPC   C4B 7642  22.351  18.403   7.650
 3630POPC   NC3 7643  29.129  26.773   9.450
 3630POPC   PO4 7644  29.104  26.784   9.150
 3630POPC   GL1 7645  29.154  26.843   8.850
 3630POPC   GL2 7646  29.202  26.746   8.850
 3630POPC   C1A 7647  29.183  26.774   8.550
 3630POPC   D2A 7648  29.189  26.852   8.250
 3630POPC   C3A 7649  29.183  26.832   7.950
 3630POPC   C4A 7650  29.137  26.789   7.650
 3630POPC   C1B 7651  29.317  26.682   8.550
 3630POPC   C2B 7652  29.367  26.681   8.250
 3630POPC   C3B 7653  29.353  26.638   7.950
 3630POPC   C4B 7654  29.316  26.680   7.650
 3631POPC   NC3 7655  40.777  20.642   9.450
 3631POPC   PO4 7656  40.735  20.640   9.150
 3631POPC   GL1 7657  40.759  20.651   8.850
 3631POPC   GL2 7658  40.720  20.486   8.850
 3631POPC   C1A 7659  40.781  20.632   8.550
 3631POPC   D2A 7660  40.828  20.623   8.250
 3631POPC   C3A 7661  40.754  20.658   7.950
 3631POPC   C4A 7662  40.793  20.611   7.650
 3631POPC   C1B 7663  40.623  20.418   8.550
 3631POPC   C2B 7664  40.701  20.385   8.250
 3631POPC   C3B 7665  40.659  20.417   7.950
 3631POPC   C4B 7666  40.707  20.344   7.650
 3632POPC   NC3 7667  32.212  26.860   9.450
 3632POPC   PO4 7668  32.206  26.814   9.150
 3632POPC   GL1 7669  32.259  26.856   8.850
 3632POPC   GL2 7670  32.341  26.737   8.850
 3632POPC   C1A 7671  32.210  26.851   8.550
 3632POPC   D2A 7672  32.296  26.784   8.250
 3632POPC   C3A 7673  32.204  26.834   7.950
 3632POPC   C4A 7674  32.232  26.792   7.650
 3632POPC   C1B 7675  32.513  26.720   8.550
 3632POPC   C2B 7676  32.485  26.650   8.250
 3632POPC   C3B 7677  32.455  26.670   7.950
 3632POPC   C4B 7678  32.418  26.742   7.650
 3633POPC   NC3 7679  33.013  31.509   9.450
 3633POPC   PO4 7680  33.016  31.482   9.150
 3633POPC   GL1 7681  33.008  31.481   8.850
 3633POPC   GL2 7682  32.901  31.364   8.850
 3633POPC   C1A 7683  33.039  31.458   8.550
 3633POPC   D2A 7684  33.038  31.488   8.250
 3633POPC   C3A 7685  32.984  31.449   7.950
 3633POPC   C4A 7686  33.041  31.429   7.650
 3633POPC   C1B 7687  32.822  31.367   8.550
 3633POPC   C2B 7688  32.829  31.306   8.250
 3633POPC   C3B 7689  32.847  31.337   7.950
 3633POPC   C4B 7690  32.835  31.345   7.650
 3634POPC   NC3 7691  36.130   7.456   9.450
 3634POPC   PO4 7692  36.088   7.466   9.150
 3634POPC   GL1 7693  36.168   7.391   8.850
 3634POPC   GL2 7694  36.246   7.413   8.850
 3634POPC   C1A 7695  36.135   7.401   8.550
 3634POPC   D2A 7696  36.094   7.427   8.250
 3634POPC   C3A 7697  36.161   7.435   7.950
 3634POPC   C4A 7698  36.115   7.392   7.650
 3634POPC   C1B 7699  36.351   7.360   8.550
 3634POPC   C2B 7700  36.397   7.411   8.250
 3634POPC   C3B 7701  36.370   7.342   7.950
 3634POPC   C4B 7702  36.359   7.402   7.650
 3635POPC   NC3 7703   0.407   1.246   9.450
 3635POPC   PO4 7704   0.435   1.235   9.150
 3635POPC   GL1 7705   0.408   1.223   8.850
 3635POPC   GL2 7706   0.454   1.123   8.850
 3635POPC   C1A 7707   0.416   1.229   8.550
 3635POPC   D2A 7708   0.435   1.169   8.250
 3635POPC   C3A 7709   0.452   1.195   7.950
 3635POPC   C4A 7710   0.487   1.171   7.650
 3635POPC   C1B 7711   0.447   0.917   8.550
 3635POPC   C2B 7712   0.392   0.997   8.250
 3635POPC   C3B 7713   0.417   0.951   7.950
 3635POPC   C4B 7714   0.364   0.930   7.650
 3636POPC   NC3 7715  39.252  32.251   9.450
 3636POPC   PO4 7716  39.264  32.262   9.150
 3636POPC   GL1 7717  39.223  32.216   8.850
 3636POPC   GL2 7718  39.198  32.152   8.850
 3636POPC   C1A 7719  39.187  32.232   8.550
 3636POPC   D2A 7720  39.256  32.292   8.250
 3636POPC   C3A 7721  39.202  32.257   7.950
 3636POPC   C4A 7722  39.242  32.208   7.650
 3636POPC   C1B 7723  39.198  32.004   8.550
 3636POPC   C2B 7724  39.211  31.957   8.250
 3636POPC   C3B 7725  39.284  31.993   7.950
 3636POPC   C4B 7726  39.232  32.009   7.650
 3637POPC   NC3 7727  10.561  35.371   9.450
 3637POPC   PO4 7728  10.560  35.390   9.150
 3637POPC   GL1 7729  10.476  35.308   8.850
 3637POPC   GL2 7730  10.598  35.411   8.850
 3637POPC   C1A 7731  10.540  35.302   8.550
 3637POPC   D2A 7732  10.570  35.384   8.250
 3637POPC   C3A 7733  10.572  35.402   7.950
 3637POPC   C4A 7734  10.555  35.378   7.650
 3637POPC   C1B 7735  10.743  35.398   8.550
 3637POPC   C2B 7736  10.760  35.455   8.250
 3637POPC   C3B 7737  10.752  35.429   7.950
 3637POPC   C4B 7738  10.745  35.426   7.650
 3638POPC   NC3 7739  12.102   1.942   9.450
 3638POPC   PO4 7740  12.101   2.036   9.150
 3638POPC   GL1 7741  12.097   2.039   8.850
 3638POPC   GL2 7742  12.015   1.843   8.850
 3638POPC   C1A 7743  12.063   2.013   8.550
 3638POPC   D2A 7744  12.104   1.951   8.250
 3638POPC   C3A 7745  12.055   1.949   7.950
 3638POPC   C4A 7746  12.094   1.966   7.650
 3638POPC   C1B 7747  11.979   1.734   8.550
 3638POPC   C2B 7748  11.999   1.792   8.250
 3638POPC   C3B 7749  11.959   1.702   7.950
 3638POPC   C4B 7750  12.057   1.730   7.650
 3639POPC   NC3 7751  21.362  12.031   9.450
 3639POPC   PO4 7752  21.410  12.058   9.150
 3639POPC   GL1 7753  21.363  12.084   8.850
 3639POPC   GL2 7754  21.401  12.216   8.850
 3639POPC   C1A 7755  21.347  12.107   8.550
 3639POPC   D2A 7756  21.414  12.054   8.250
 3639POPC   C3A 7757  21.396  12.124   7.950
 3639POPC   C4A 7758  21.343  12.045   7.650
 3639POPC   C1B 7759  21.462  12.338   8.550
 3639POPC   C2B 7760  21.392  12.367   8.250
 3639POPC   C3B 7761  21.447  12.324   7.950
 3639POPC   C4B 7762  21.428  12.361   7.650
 3640POPC   NC3 7763  36.887  20.632   9.450
 3640POPC   PO4 7764  36.949  20.574   9.150
 3640POPC   GL1 7765  36.886  20.654   8.850
 3640POPC   GL2 7766  36.891  20.721   8.850
 3640POPC   C1A 7767  36.946  20.585   8.550
 3640POPC   D2A 7768  36.950  20.582   8.250
 3640POPC   C3A 7769  36.914  20.580   7.950
 3640POPC   C4A 7770  36.874  20.565   7.650
 3640POPC   C1B 7771  36.919  20.873   8.550
 3640POPC   C2B 7772  36.909  20.833   8.250
 3640POPC   C3B 7773  36.929  20.861   7.950
 3640POPC   C4B 7774  36.875  20.831   7.650
 3641POPC   NC3 7775  20.605  36.938   9.450
 3641POPC   PO4 7776  20.578  36.885   9.150
 3641POPC   GL1 7777  20.597  36.863   8.850
 3641POPC   GL2 7778  20.489  36.933   8.850
 3641POPC   C1A 7779  20.632  36.860   8.550
 3641POPC   D2A 7780  20.593  36.910   8.250
 3641POPC   C3A 7781  20.610  36.893   7.950
 3641POPC   C4A 7782  20.566  36.879   7.650
 3641POPC   C1B 7783  20.348  36.950   8.550
 3641POPC   C2B 7784  20.407  36.885   8.250
 3641POPC   C3B 7785  20.348  36.920   7.950
 3641POPC   C4B 7786  20.404  36.945   7.650
 3642POPC   NC3 7787  18.307  21.380   9.450
 3642POPC   PO4 7788  18.324  21.405   9.150
 3642POPC   GL1 7789  18.282  21.341   8.850
 3642POPC   GL2 7790  18.189  21.405   8.850
 3642POPC   C1A 7791  18.309  21.431   8.550
 3642POPC   D2A 7792  18.266  21.372   8.250
 3642POPC   C3A 7793  18.286  21.420   7.950
 3642POPC   C4A 7794  18.264  21.393   7.650
 3642POPC   C1B 7795  18.022  21.549   8.550
 3642POPC   C2B 7796  18.084  21.483   8.250
 3642POPC   C3B 7797  18.102  21.482   7.950
 3642POPC   C4B 7798  18.067  21.477   7.650
 3643POPC   NC3 7799   9.731  33.020   9.450
 3643POPC   PO4 7800   9.765  33.028   9.150
 3643POPC   GL1 7801   9.760  33.060   8.850
 3643POPC   GL2 7802   9.849  32.977   8.850
 3643POPC   C1A 7803   9.704  33.073   8.550
 3643POPC   D2A 7804   9.788  32.983   8.250
 3643POPC   C3A 7805   9.743  33.022   7.950
 3643POPC   C4A 7806   9.761  33.066   7.650
 3643POPC   C1B 7807   9.939  32.920   8.550
 3643POPC   C2B 7808   9.942  32.950   8.250
 3643POPC   C3B 7809   9.952  32.872   7.950
 3643POPC   C4B 7810   9.991  32.965   7.650
 3644POPC   NC3 7811  24.473  30.651   9.450
 3644POPC   PO4 7812  24.522  30.661   9.150
 3644POPC   GL1 7813  24.487  30.709   8.850
 3644POPC   GL2 7814  24.335  30.644   8.850
 3644POPC   C1A 7815  24.527  30.660   8.550
 3644POPC   D2A 7816  24.497  30.703   8.250
 3644POPC   C3A 7817  24.516  30.648   7.950
 3644POPC   C4A 7818  24.446  30.706   7.650
 3644POPC   C1B 7819  24.211  30.622   8.550
 3644POPC   C2B 7820  24.243  30.610   8.250
 3644POPC   C3B 7821  24.235  30.596   7.950
 3644POPC   C4B 7822  24.295  30.620   7.650
 3645POPC   NC3 7823  38.441  42.355   9.450
 3645POPC   PO4 7824  38.467  42.328   9.150
 3645POPC   GL1 7825  38.444  42.374   8.850
 3645POPC   GL2 7826  38.421  42.448   8.850
 3645POPC   C1A 7827  38.423  42.373   8.550
 3645POPC   D2A 7828  38.446  42.365   8.250
 3645POPC   C3A 7829  38.472  42.374   7.950
 3645POPC   C4A 7830  38.418  42.377   7.650
 3645POPC   C1B 7831  38.284  42.546   8.550
 3645POPC   C2B 7832  38.277  42.515   8.250
 3645POPC   C3B 7833  38.274  42.493   7.950
 3645POPC   C4B 7834  38.282  42.555   7.650
 3646POPC   NC3 7835  38.459  19.864   9.450
 3646POPC   PO4 7836  38.457  19.871   9.150
 3646POPC   GL1 7837  38.483  19.864   8.850
 3646POPC   GL2 7838  38.365  19.969   8.850
 3646POPC   C1A 7839  38.476  19.869   8.550
 3646POPC   D2A 7840  38.414  19.859   8.250
 3646POPC   C3A 7841  38.496  19.872   7.950
 3646POPC   C4A 7842  38.467  19.870   7.650
 3646POPC   C1B 7843  38.328  20.034   8.550
 3646POPC   C2B 7844  38.298  20.027   8.250
 3646POPC   C3B 7845  38.280  20.022   7.950
 3646POPC   C4B 7846  38.286  19.997   7.650
 3647POPC   NC3 7847  13.609   8.176   9.450
 3647POPC   PO4 7848  13.635   8.236   9.150
 3647POPC   GL1 7849  13.604   8.175   8.850
 3647POPC   GL2 7850  13.720   8.136   8.850
 3647POPC   C1A 7851  13.592   8.165   8.550
 3647POPC   D2A 7852  13.629   8.167   8.250
 3647POPC   C3A 7853  13.621   8.221   7.950
 3647POPC   C4A 7854  13.664   8.214   7.650
 3647POPC   C1B 7855  13.796   7.989   8.550
 3647POPC   C2B 7856  13.792   7.989   8.250
 3647POPC   C3B 7857  13.833   8.035   7.950
 3647POPC   C4B 7858  13.785   7.977   7.650
 3648POPC   NC3 7859  12.125   0.437   9.450
 3648POPC   PO4 7860  12.080   0.446   9.150
 3648POPC   GL1 7861  12.066   0.402   8.850
 3648POPC   GL2 7862  12.084   0.509   8.850
 3648POPC   C1A 7863  12.122   0.410   8.550
 3648POPC   D2A 7864  12.113   0.451   8.250
 3648POPC   C3A 7865  12.094   0.483   7.950
 3648POPC   C4A 7866  12.116   0.457   7.650
 3648POPC   C1B 7867  12.178   0.701   8.550
 3648POPC   C2B 7868  12.171   0.667   8.250
 3648POPC   C3B 7869  12.203   0.648   7.950
 3648POPC   C4B 7870  12.118   0.632   7.650
 3649POPC   NC3 7871  42.307  27.625   9.450
 3649POPC   PO4 7872  42.379  27.571   9.150
 3649POPC   GL1 7873  42.333  27.564   8.850
 3649POPC   GL2 7874  42.385  27.508   8.850
 3649POPC   C1A 7875  42.308  27.632   8.550
 3649POPC   D2A 7876  42.294  27.615   8.250
 3649POPC   C3A 7877  42.336  27.626   7.950
 3649POPC   C4A 7878  42.378  27.632   7.650
 3649POPC   C1B 7879  42.542  27.430   8.550
 3649POPC   C2B 7880  42.488  27.450   8.250
 3649POPC   C3B 7881  42.536  27.397   7.950
 3649POPC   C4B 7882  42.561  27.474   7.650
 3650POPC   NC3 7883   1.204  33.830   9.450
 3650POPC   PO4 7884   1.237  33.778   9.150
 3650POPC   GL1 7885   1.254  33.838   8.850
 3650POPC   GL2 7886   1.101  33.865   8.850
 3650POPC   C1A 7887   1.204  33.790   8.550
 3650POPC   D2A 7888   1.245  33.785   8.250
 3650POPC   C3A 7889   1.212  33.753   7.950
 3650POPC   C4A 7890   1.168  33.758   7.650
 3650POPC   C1B 7891   1.045  33.989   8.550
 3650POPC   C2B 7892   1.050  33.975   8.250
 3650POPC   C3B 7893   1.025  33.946   7.950
 3650POPC   C4B 7894   1.087  33.941   7.650
 3651POPC   NC3 7895   4.291  15.928   9.450
 3651POPC   PO4 7896   4.302  15.930   9.150
 3651POPC   GL1 7897   4.333  15.960   8.850
 3651POPC   GL2 7898   4.318  15.834   8.850
 3651POPC   C1A 7899   4.289  15.966   8.550
 3651POPC   D2A 7900   4.364  15.938   8.250
 3651POPC   C3A 7901   4.294  15.971   7.950
 3651POPC   C4A 7902   4.365  15.997   7.650
 3651POPC   C1B 7903   4.270  15.687   8.550
 3651POPC   C2B 7904   4.217  15.754   8.250
 3651POPC   C3B 7905   4.201  15.720   7.950
 3651POPC   C4B 7906   4.245  15.717   7.650
 3652POPC   NC3 7907  21.361  16.769   9.450
 3652POPC   PO4 7908  21.435  16.706   9.150
 3652POPC   GL1 7909  21.379  16.705   8.850
 3652POPC   GL2 7910  21.374  16.569   8.850
 3652POPC   C1A 7911  21.393  16.760   8.550
 3652POPC   D2A 7912  21.391  16.708   8.250
 3652POPC   C3A 7913  21.343  16.708   7.950
 3652POPC   C4A 7914  21.416  16.693   7.650
 3652POPC   C1B 7915  21.253  16.460   8.550
 3652POPC   C2B 7916  21.328  16.501   8.250
 3652POPC   C3B 7917  21.283  16.532   7.950
 3652POPC   C4B 7918  21.351  16.490   7.650
 3653POPC   NC3 7919   4.318  10.542   9.450
 3653POPC   PO4 7920   4.327  10.570   9.150
 3653POPC   GL1 7921   4.357  10.564   8.850
 3653POPC   GL2 7922   4.254  10.663   8.850
 3653POPC   C1A 7923   4.361  10.482   8.550
 3653POPC   D2A 7924   4.325  10.481   8.250
 3653POPC   C3A 7925   4.328  10.543   7.950
 3653POPC   C4A 7926   4.329  10.553   7.650
 3653POPC   C1B 7927   4.252  10.786   8.550
 3653POPC   C2B 7928   4.319  10.807   8.250
 3653POPC   C3B 7929   4.232  10.803   7.950
 3653POPC   C4B 7930   4.287  10.782   7.650
 3654POPC   NC3 7931  38.458   3.556   9.450
 3654POPC   PO4 7932  38.447   3.502   9.150
 3654POPC   GL1 7933  38.476   3.548   8.850
 3654POPC   GL2 7934  38.410   3.437   8.850
 3654POPC   C1A 7935  38.451   3.561   8.550
 3654POPC   D2A 7936  38.433   3.547   8.250
 3654POPC   C3A 7937  38.431   3.569   7.950
 3654POPC   C4A 7938  38.421   3.531   7.650
 3654POPC   C1B 7939  38.334   3.380   8.550
 3654POPC   C2B 7940  38.349   3.355   8.250
 3654POPC   C3B 7941  38.352   3.312   7.950
 3654POPC   C4B 7942  38.339   3.305   7.650
 3655POPC   NC3 7943  28.392  27.548   9.450
 3655POPC   PO4 7944  28.403  27.576   9.150
 3655POPC   GL1 7945  28.375  27.599   8.850
 3655POPC   GL2 7946  28.298  27.705   8.850
 3655POPC   C1A 7947  28.364  27.550   8.550
 3655POPC   D2A 7948  28.362  27.612   8.250
 3655POPC   C3A 7949  28.319  27.618   7.950
 3655POPC   C4A 7950  28.395  27.549   7.650
 3655POPC   C1B 7951  28.165  27.795   8.550
 3655POPC   C2B 7952  28.189  27.772   8.250
 3655POPC   C3B 7953  28.200  27.761   7.950
 3655POPC   C4B 7954  28.154  27.773   7.650
 3656POPC   NC3 7955  32.266   8.164   9.450
 3656POPC   PO4 7956  32.235   8.243   9.150
 3656POPC   GL1 7957  32.257   8.234   8.850
 3656POPC   GL2 7958  32.378   8.191   8.850
 3656POPC   C1A 7959  32.208   8.174   8.550
 3656POPC   D2A 7960  32.268   8.155   8.250
 3656POPC   C3A 7961  32.241   8.195   7.950
 3656POPC   C4A 7962  32.258   8.156   7.650
 3656POPC   C1B 7963  32.505   8.076   8.550
 3656POPC   C2B 7964  32.517   8.125   8.250
 3656POPC   C3B 7965  32.515   8.120   7.950
 3656POPC   C4B 7966  32.454   8.120   7.650
 3657POPC   NC3 7967   0.432  42.308   9.450
 3657POPC   PO4 7968   0.423  42.326   9.150
 3657POPC   GL1 7969   0.411  42.355   8.850
 3657POPC   GL2 7970   0.293  42.267   8.850
 3657POPC   C1A 7971   0.425  42.302   8.550
 3657POPC   D2A 7972   0.408  42.301   8.250
 3657POPC   C3A 7973   0.436  42.298   7.950
 3657POPC   C4A 7974   0.405  42.327   7.650
 3657POPC   C1B 7975   0.207  42.207   8.550
 3657POPC   C2B 7976   0.254  42.132   8.250
 3657POPC   C3B 7977   0.272  42.177   7.950
 3657POPC   C4B 7978   0.278  42.223   7.650
 3658POPC   NC3 7979   9.794   5.101   9.450
 3658POPC   PO4 7980   9.782   5.096   9.150
 3658POPC   GL1 7981   9.753   5.072   8.850
 3658POPC   GL2 7982   9.822   5.044   8.850
 3658POPC   C1A 7983   9.709   5.139   8.550
 3658POPC   D2A 7984   9.701   5.130   8.250
 3658POPC   C3A 7985   9.791   5.135   7.950
 3658POPC   C4A 7986   9.702   5.109   7.650
 3658POPC   C1B 7987   9.919   4.925   8.550
 3658POPC   C2B 7988   9.964   4.894   8.250
 3658POPC   C3B 7989   9.987   4.963   7.950
 3658POPC   C4B 7990   9.949   4.984   7.650
 3659POPC   NC3 7991   5.101  23.733   9.450
 3659POPC   PO4 7992   5.099  23.689   9.150
 3659POPC   GL1 7993   5.083  23.709   8.850
 3659POPC   GL2 7994   5.096  23.860   8.850
 3659POPC   C1A 7995   5.080  23.725   8.550
 3659POPC   D2A 7996   5.141  23.675   8.250
 3659POPC   C3A 7997   5.076  23.748   7.950
 3659POPC   C4A 7998   5.103  23.760   7.650
 3659POPC   C1B 7999   5.170  23.917   8.550
 3659POPC   C2B 8000   5.139  23.920   8.250
 3659POPC   C3B 8001   5.207  23.917   7.950
 3659POPC   C4B 8002   5.174  23.964   7.650
 3660POPC   NC3 8003  13.584  33.032   9.450
 3660POPC   PO4 8004  13.603  33.040   9.150
 3660POPC   GL1 8005  13.618  32.987   8.850
 3660POPC   GL2 8006  13.685  32.874   8.850
 3660POPC   C1A 8007  13.642  33.068   8.550
 3660POPC   D2A 8008  13.660  33.030   8.250
 3660POPC   C3A 8009  13.623  32.986   7.950
 3660POPC   C4A 8010  13.652  33.059   7.650
 3660POPC   C1B 8011  13.801  32.824   8.550
 3660POPC   C2B 8012  13.803  32.779   8.250
 3660POPC   C3B 8013  13.786  32.840   7.950
 3660POPC   C4B 8014  13.753  32.770   7.650
 3661POPC   NC3 8015  13.632  21.391   9.450
 3661POPC   PO4 8016  13.622  21.410   9.150
 3661POPC   GL1 8017  13.632  21.389   8.850
 3661POPC   GL2 8018  13.525  21.315   8.850
 3661POPC   C1A 8019  13.640  21.399   8.550
 3661POPC   D2A 8020  13.656  21.353   8.250
 3661POPC   C3A 8021  13.599  21.425   7.950
 3661POPC   C4A 8022  13.625  21.345   7.650
 3661POPC   C1B 8023  13.459  21.139   8.550
 3661POPC   C2B 8024  13.527  21.198   8.250
 3661POPC   C3B 8025  13.523  21.137   7.950
 3661POPC   C4B 8026  13.472  21.144   7.650
 3662POPC   NC3 8027  19.795  17.536   9.450
 3662POPC   PO4 8028  19.812  17.514   9.150
 3662POPC   GL1 8029  19.786  17.526   8.850
 3662POPC   GL2 8030  19.685  17.540   8.850
 3662POPC   C1A 8031  19.838  17.504   8.550
 3662POPC   D2A 8032  19.817  17.547   8.250
 3662POPC   C3A 8033  19.845  17.543   7.950
 3662POPC   C4A 8034  19.803  17.506   7.650
 3662POPC   C1B 8035  19.579  17.679   8.550
 3662POPC   C2B 8036  19.609  17.613   8.250
 3662POPC   C3B 8037  19.592  17.628   7.950
 3662POPC   C4B 8038  19.658  17.629   7.650
 3663POPC   NC3 8039   3.533  35.361   9.450
 3663POPC   PO4 8040   3.525  35.377   9.150
 3663POPC   GL1 8041   3.591  35.352   8.850
 3663POPC   GL2 8042   3.570  35.223   8.850
 3663POPC   C1A 8043   3.506  35.362   8.550
 3663POPC   D2A 8044   3.567  35.349   8.250
 3663POPC   C3A 8045   3.513  35.394   7.950
 3663POPC   C4A 8046   3.509  35.318   7.650
 3663POPC   C1B 8047   3.590  35.114   8.550
 3663POPC   C2B 8048   3.521  35.106   8.250
 3663POPC   C3B 8049   3.559  35.093   7.950
 3663POPC   C4B 8050   3.556  35.145   7.650
 3664POPC   NC3 8051  33.822   1.170   9.450
 3664POPC   PO4 8052  33.805   1.189   9.150
 3664POPC   GL1 8053  33.786   1.210   8.850
 3664POPC   GL2 8054  33.790   1.074   8.850
 3664POPC   C1A 8055  33.815   1.173   8.550
 3664POPC   D2A 8056  33.776   1.191   8.250
 3664POPC   C3A 8057  33.832   1.166   7.950
 3664POPC   C4A 8058  33.781   1.171   7.650
 3664POPC   C1B 8059  33.763   1.014   8.550
 3664POPC   C2B 8060  33.765   1.022   8.250
 3664POPC   C3B 8061  33.672   0.982   7.950
 3664POPC   C4B 8062  33.691   0.942   7.650
 3665POPC   NC3 8063   5.841  25.284   9.450
 3665POPC   PO4 8064   5.883  25.226   9.150
 3665POPC   GL1 8065   5.906  25.265   8.850
 3665POPC   GL2 8066   5.975  25.357   8.850
 3665POPC   C1A 8067   5.917  25.275   8.550
 3665POPC   D2A 8068   5.915  25.286   8.250
 3665POPC   C3A 8069   5.872  25.306   7.950
 3665POPC   C4A 8070   5.869  25.233   7.650
 3665POPC   C1B 8071   6.081  25.414   8.550
 3665POPC   C2B 8072   6.011  25.419   8.250
 3665POPC   C3B 8073   6.055  25.500   7.950
 3665POPC   C4B 8074   5.988  25.416   7.650
 3666POPC   NC3 8075  22.162  28.323   9.450
 3666POPC   PO4 8076  22.169  28.407   9.150
 3666POPC   GL1 8077  22.119  28.412   8.850
 3666POPC   GL2 8078  22.232  28.300   8.850
 3666POPC   C1A 8079  22.140  28.358   8.550
 3666POPC   D2A 8080  22.141  28.334   8.250
 3666POPC   C3A 8081  22.134  28.327   7.950
 3666POPC   C4A 8082  22.118  28.381   7.650
 3666POPC   C1B 8083  22.222  28.116   8.550
 3666POPC   C2B 8084  22.284  28.128   8.250
 3666POPC   C3B 8085  22.261  28.151   7.950
 3666POPC   C4B 8086  22.243  28.093   7.650
 3667POPC   NC3 8087   7.403  42.291   9.450
 3667POPC   PO4 8088   7.389  42.351   9.150
 3667POPC   GL1 8089   7.390  42.317   8.850
 3667POPC   GL2 8090   7.301  42.221   8.850
 3667POPC   C1A 8091   7.453  42.378   8.550
 3667POPC   D2A 8092   7.447  42.314   8.250
 3667POPC   C3A 8093   7.448  42.322   7.950
 3667POPC   C4A 8094   7.415  42.305   7.650
 3667POPC   C1B 8095   7.285  42.113   8.550
 3667POPC   C2B 8096   7.280  42.086   8.250
 3667POPC   C3B 8097   7.292  42.140   7.950
 3667POPC   C4B 8098   7.303  42.105   7.650
 3668POPC   NC3 8099  24.533  14.371   9.450
 3668POPC   PO4 8100  24.441  14.442   9.150
 3668POPC   GL1 8101  24.444  14.436   8.850
 3668POPC   GL2 8102  24.323  14.339   8.850
 3668POPC   C1A 8103  24.517  14.441   8.550
 3668POPC   D2A 8104  24.533  14.410   8.250
 3668POPC   C3A 8105  24.448  14.440   7.950
 3668POPC   C4A 8106  24.485  14.410   7.650
 3668POPC   C1B 8107  24.251  14.355   8.550
 3668POPC   C2B 8108  24.236  14.270   8.250
 3668POPC   C3B 8109  24.211  14.317   7.950
 3668POPC   C4B 8110  24.298  14.304   7.650
 3669POPC   NC3 8111   6.691  36.918   9.450
 3669POPC   PO4 8112   6.679  36.914   9.150
 3669POPC   GL1 8113   6.668  36.901   8.850
 3669POPC   GL2 8114   6.671  36.747   8.850
 3669POPC   C1A 8115   6.637  36.866   8.550
 3669POPC   D2A 8116   6.670  36.855   8.250
 3669POPC   C3A 8117   6.690  36.892   7.950
 3669POPC   C4A 8118   6.616  36.853   7.650
 3669POPC   C1B 8119   6.608  36.689   8.550
 3669POPC   C2B 8120   6.653  36.681   8.250
 3669POPC   C3B 8121   6.577  36.633   7.950
 3669POPC   C4B 8122   6.578  36.691   7.650
 3670POPC   NC3 8123  16.763  39.989   9.450
 3670POPC   PO4 8124  16.723  40.031   9.150
 3670POPC   GL1 8125  16.735  39.986   8.850
 3670POPC   GL2 8126  16.796  40.171   8.850
 3670POPC   C1A 8127  16.693  40.012   8.550
 3670POPC   D2A 8128  16.697  40.013   8.250
 3670POPC   C3A 8129  16.729  39.962   7.950
 3670POPC   C4A 8130  16.700  39.984   7.650
 3670POPC   C1B 8131  16.783  40.271   8.550
 3670POPC   C2B 8132  16.840  40.299   8.250
 3670POPC   C3B 8133  16.840  40.248   7.950
 3670POPC   C4B 8134  16.755  40.283   7.650
 3671POPC   NC3 8135  26.081  29.969   9.450
 3671POPC   PO4 8136  26.013  29.905   9.150
 3671POPC   GL1 8137  26.059  29.890   8.850
 3671POPC   GL2 8138  26.016  30.082   8.850
 3671POPC   C1A 8139  26.000  29.907   8.550
 3671POPC   D2A 8140  26.012  29.896   8.250
 3671POPC   C3A 8141  26.013  29.883   7.950
 3671POPC   C4A 8142  26.079  29.940   7.650
 3671POPC   C1B 8143  26.099  30.141   8.550
 3671POPC   C2B 8144  26.056  30.213   8.250
 3671POPC   C3B 8145  26.043  30.126   7.950
 3671POPC   C4B 8146  26.089  30.150   7.650
 3672POPC   NC3 8147   8.205  19.871   9.450
 3672POPC   PO4 8148   8.153  19.814   9.150
 3672POPC   GL1 8149   8.161  19.857   8.850
 3672POPC   GL2 8150   8.315  19.820   8.850
 3672POPC   C1A 8151   8.216  19.795   8.550
 3672POPC   D2A 8152   8.150  19.824   8.250
 3672POPC   C3A 8153   8.200  19.834   7.950
 3672POPC   C4A 8154   8.147  19.835   7.650
 3672POPC   C1B 8155   8.447  19.802   8.550
 3672POPC   C2B 8156   8.425  19.818   8.250
 3672POPC   C3B 8157   8.445  19.884   7.950
 3672POPC   C4B 8158   8.447  19.867   7.650
 3673POPC   NC3 8159  39.987  32.241   9.450
 3673POPC   PO4 8160  39.962  32.230   9.150
 3673POPC   GL1 8161  40.020  32.215   8.850
 3673POPC   GL2 8162  40.079  32.372   8.850
 3673POPC   C1A 8163  40.048  32.249   8.550
 3673POPC   D2A 8164  39.997  32.221   8.250
 3673POPC   C3A 8165  40.022  32.231   7.950
 3673POPC   C4A 8166  39.959  32.226   7.650
 3673POPC   C1B 8167  40.177  32.425   8.550
 3673POPC   C2B 8168  40.236  32.404   8.250
 3673POPC   C3B 8169  40.215  32.447   7.950
 3673POPC   C4B 8170  40.216  32.377   7.650
 3674POPC   NC3 8171  22.903  14.387   9.450
 3674POPC   PO4 8172  22.938  14.438   9.150
 3674POPC   GL1 8173  22.937  14.359   8.850
 3674POPC   GL2 8174  23.055  14.396   8.850
 3674POPC   C1A 8175  22.942  14.448   8.550
 3674POPC   D2A 8176  22.964  14.429   8.250
 3674POPC   C3A 8177  22.920  14.390   7.950
 3674POPC   C4A 8178  22.890  14.430   7.650
 3674POPC   C1B 8179  23.128  14.331   8.550
 3674POPC   C2B 8180  23.218  14.291   8.250
 3674POPC   C3B 8181  23.213  14.316   7.950
 3674POPC   C4B 8182  23.160  14.275   7.650
 3675POPC   NC3 8183  31.520  41.526   9.450
 3675POPC   PO4 8184  31.458  41.530   9.150
 3675POPC   GL1 8185  31.511  41.583   8.850
 3675POPC   GL2 8186  31.580  41.438   8.850
 3675POPC   C1A 8187  31.458  41.605   8.550
 3675POPC   D2A 8188  31.479  41.569   8.250
 3675POPC   C3A 8189  31.495  41.546   7.950
 3675POPC   C4A 8190  31.424  41.529   7.650
 3675POPC   C1B 8191  31.637  41.450   8.550
 3675POPC   C2B 8192  31.724  41.445   8.250
 3675POPC   C3B 8193  31.634  41.389   7.950
 3675POPC   C4B 8194  31.713  41.450   7.650
 3676POPC   NC3 8195   5.073   7.430   9.450
 3676POPC   PO4 8196   5.137   7.407   9.150
 3676POPC   GL1 8197   5.056   7.446   8.850
 3676POPC   GL2 8198   4.975   7.526   8.850
 3676POPC   C1A 8199   5.095   7.373   8.550
 3676POPC   D2A 8200   5.052   7.386   8.250
 3676POPC   C3A 8201   5.136   7.459   7.950
 3676POPC   C4A 8202   5.053   7.450   7.650
 3676POPC   C1B 8203   4.869   7.571   8.550
 3676POPC   C2B 8204   4.922   7.608   8.250
 3676POPC   C3B 8205   4.872   7.591   7.950
 3676POPC   C4B 8206   4.938   7.571   7.650
 3677POPC   NC3 8207  11.344  16.757   9.450
 3677POPC   PO4 8208  11.303  16.706   9.150
 3677POPC   GL1 8209  11.272  16.750   8.850
 3677POPC   GL2 8210  11.148  16.798   8.850
 3677POPC   C1A 8211  11.274  16.764   8.550
 3677POPC   D2A 8212  11.338  16.682   8.250
 3677POPC   C3A 8213  11.324  16.716   7.950
 3677POPC   C4A 8214  11.256  16.754   7.650
 3677POPC   C1B 8215  11.111  16.883   8.550
 3677POPC   C2B 8216  11.064  16.823   8.250
 3677POPC   C3B 8217  11.083  16.816   7.950
 3677POPC   C4B 8218  11.116  16.876   7.650
 3678POPC   NC3 8219   1.247  24.529   9.450
 3678POPC   PO4 8220   1.244  24.491   9.150
 3678POPC   GL1 8221   1.178  24.489   8.850
 3678POPC   GL2 8222   1.327  24.436   8.850
 3678POPC   C1A 8223   1.214  24.491   8.550
 3678POPC   D2A 8224   1.181  24.527   8.250
 3678POPC   C3A 8225   1.198  24.451   7.950
 3678POPC   C4A 8226   1.205  24.472   7.650
 3678POPC   C1B 8227   1.412  24.312   8.550
 3678POPC   C2B 8228   1.417  24.377   8.250
 3678POPC   C3B 8229   1.453  24.363   7.950
 3678POPC   C4B 8230   1.452  24.326   7.650
 3679POPC   NC3 8231   7.378  16.719   9.450
 3679POPC   PO4 8232   7.464  16.773   9.150
 3679POPC   GL1 8233   7.377  16.773   8.850
 3679POPC   GL2 8234   7.393  16.853   8.850
 3679POPC   C1A 8235   7.403  16.684   8.550
 3679POPC   D2A 8236   7.449  16.727   8.250
 3679POPC   C3A 8237   7.452  16.745   7.950
 3679POPC   C4A 8238   7.439  16.688   7.650
 3679POPC   C1B 8239   7.357  17.000   8.550
 3679POPC   C2B 8240   7.404  17.005   8.250
 3679POPC   C3B 8241   7.363  16.979   7.950
 3679POPC   C4B 8242   7.434  17.007   7.650
 3680POPC   NC3 8243  10.491  22.942   9.450
 3680POPC   PO4 8244  10.507  22.979   9.150
 3680POPC   GL1 8245  10.475  22.936   8.850
 3680POPC   GL2 8246  10.575  23.083   8.850
 3680POPC   C1A 8247  10.532  22.981   8.550
 3680POPC   D2A 8248  10.531  22.901   8.250
 3680POPC   C3A 8249  10.503  22.928   7.950
 3680POPC   C4A 8250  10.478  22.894   7.650
 3680POPC   C1B 8251  10.618  23.173   8.550
 3680POPC   C2B 8252  10.626  23.174   8.250
 3680POPC   C3B 8253  10.574  23.189   7.950
 3680POPC   C4B 8254  10.565  23.217   7.650
 3681POPC   NC3 8255  19.017  37.660   9.450
 3681POPC   PO4 8256  19.081  37.681   9.150
 3681POPC   GL1 8257  19.102  37.676   8.850
 3681POPC   GL2 8258  18.913  37.642   8.850
 3681POPC   C1A 8259  19.011  37.683   8.550
 3681POPC   D2A 8260  19.104  37.715   8.250
 3681POPC   C3A 8261  19.082  37.726   7.950
 3681POPC   C4A 8262  19.048  37.641   7.650
 3681POPC   C1B 8263  18.787  37.706   8.550
 3681POPC   C2B 8264  18.810  37.681   8.250
 3681POPC   C3B 8265  18.792  37.691   7.950
 3681POPC   C4B 8266  18.829  37.736   7.650
 3682POPC   NC3 8267   9.768   0.395   9.450
 3682POPC   PO4 8268   9.795   0.394   9.150
 3682POPC   GL1 8269   9.710   0.420   8.850
 3682POPC   GL2 8270   9.885   0.494   8.850
 3682POPC   C1A 8271   9.737   0.412   8.550
 3682POPC   D2A 8272   9.793   0.476   8.250
 3682POPC   C3A 8273   9.728   0.427   7.950
 3682POPC   C4A 8274   9.758   0.417   7.650
 3682POPC   C1B 8275  10.017   0.540   8.550
 3682POPC   C2B 8276   9.969   0.570   8.250
 3682POPC   C3B 8277   9.943   0.568   7.950
 3682POPC   C4B 8278   9.935   0.569   7.650
 3683POPC   NC3 8279  29.916  36.176   9.450
 3683POPC   PO4 8280  29.902  36.082   9.150
 3683POPC   GL1 8281  29.941  36.167   8.850
 3683POPC   GL2 8282  30.076  36.099   8.850
 3683POPC   C1A 8283  29.902  36.139   8.550
 3683POPC   D2A 8284  29.928  36.155   8.250
 3683POPC   C3A 8285  29.904  36.145   7.950
 3683POPC   C4A 8286  29.874  36.100   7.650
 3683POPC   C1B 8287  30.152  36.028   8.550
 3683POPC   C2B 8288  30.103  36.040   8.250
 3683POPC   C3B 8289  30.120  36.015   7.950
 3683POPC   C4B 8290  30.134  36.062   7.650
 3684POPC   NC3 8291  39.270  25.292   9.450
 3684POPC   PO4 8292  39.207  25.289   9.150
 3684POPC   GL1 8293  39.278  25.254   8.850
 3684POPC   GL2 8294  39.274  25.144   8.850
 3684POPC   C1A 8295  39.220  25.266   8.550
 3684POPC   D2A 8296  39.213  25.216   8.250
 3684POPC   C3A 8297  39.276  25.241   7.950
 3684POPC   C4A 8298  39.218  25.274   7.650
 3684POPC   C1B 8299  39.328  25.015   8.550
 3684POPC   C2B 8300  39.394  25.063   8.250
 3684POPC   C3B 8301  39.362  25.097   7.950
 3684POPC   C4B 8302  39.362  25.052   7.650
 3685POPC   NC3 8303   5.914  33.034   9.450
 3685POPC   PO4 8304   5.855  33.055   9.150
 3685POPC   GL1 8305   5.895  33.062   8.850
 3685POPC   GL2 8306   5.698  32.959   8.850
 3685POPC   C1A 8307   5.834  33.028   8.550
 3685POPC   D2A 8308   5.913  33.029   8.250
 3685POPC   C3A 8309   5.880  33.027   7.950
 3685POPC   C4A 8310   5.864  33.003   7.650
 3685POPC   C1B 8311   5.632  32.951   8.550
 3685POPC   C2B 8312   5.613  33.022   8.250
 3685POPC   C3B 8313   5.669  32.990   7.950
 3685POPC   C4B 8314   5.669  32.999   7.650
 3686POPC   NC3 8315  25.221  19.039   9.450
 3686POPC   PO4 8316  25.240  19.024   9.150
 3686POPC   GL1 8317  25.305  19.033   8.850
 3686POPC   GL2 8318  25.177  19.117   8.850
 3686POPC   C1A 8319  25.230  19.078   8.550
 3686POPC   D2A 8320  25.267  19.039   8.250
 3686POPC   C3A 8321  25.314  19.041   7.950
 3686POPC   C4A 8322  25.216  19.051   7.650
 3686POPC   C1B 8323  25.015  19.066   8.550
 3686POPC   C2B 8324  25.005  19.122   8.250
 3686POPC   C3B 8325  25.049  19.101   7.950
 3686POPC   C4B 8326  25.042  19.080   7.650
 3687POPC   NC3 8327  16.690  19.864   9.450
 3687POPC   PO4 8328  16.699  19.786   9.150
 3687POPC   GL1 8329  16.720  19.868   8.850
 3687POPC   GL2 8330  16.594  19.817   8.850
 3687POPC   C1A 8331  16.713  19.796   8.550
 3687POPC   D2A 8332  16.774  19.859   8.250
 3687POPC   C3A 8333  16.740  19.811   7.950
 3687POPC   C4A 8334  16.708  19.849   7.650
 3687POPC   C1B 8335  16.470  19.796   8.550
 3687POPC   C2B 8336  16.452  19.767   8.250
 3687POPC   C3B 8337  16.478  19.763   7.950
 3687POPC   C4B 8338  16.533  19.728   7.650
 3688POPC   NC3 8339  32.997  24.523   9.450
 3688POPC   PO4 8340  33.045  24.501   9.150
 3688POPC   GL1 8341  33.002  24.502   8.850
 3688POPC   GL2 8342  32.918  24.539   8.850
 3688POPC   C1A 8343  32.993  24.449   8.550
 3688POPC   D2A 8344  32.980  24.529   8.250
 3688POPC   C3A 8345  32.979  24.503   7.950
 3688POPC   C4A 8346  33.052  24.466   7.650
 3688POPC   C1B 8347  32.825  24.629   8.550
 3688POPC   C2B 8348  32.837  24.548   8.250
 3688POPC   C3B 8349  32.820  24.557   7.950
 3688POPC   C4B 8350  32.787  24.588   7.650
 3689POPC   NC3 8351  22.975  18.328   9.450
 3689POPC   PO4 8352  22.915  18.240   9.150
 3689POPC   GL1 8353  22.973  18.295   8.850
 3689POPC   GL2 8354  22.852  18.376   8.850
 3689POPC   C1A 8355  22.904  18.233   8.550
 3689POPC   D2A 8356  22.945  18.265   8.250
 3689POPC   C3A 8357  22.930  18.271   7.950
 3689POPC   C4A 8358  22.976  18.309   7.650
 3689POPC   C1B 8359  22.747  18.438   8.550
 3689POPC   C2B 8360  22.697  18.404   8.250
 3689POPC   C3B 8361  22.732  18.460   7.950
 3689POPC   C4B 8362  22.693  18.363   7.650
 3690POPC   NC3 8363   0.390  19.062   9.450
 3690POPC   PO4 8364   0.471  19.103   9.150
 3690POPC   GL1 8365   0.398  19.024   8.850
 3690POPC   GL2 8366   0.307  19.138   8.850
 3690POPC   C1A 8367   0.412  19.035   8.550
 3690POPC   D2A 8368   0.440  19.033   8.250
 3690POPC   C3A 8369   0.470  19.023   7.950
 3690POPC   C4A 8370   0.403  19.039   7.650
 3690POPC   C1B 8371   0.194  19.231   8.550
 3690POPC   C2B 8372   0.247  19.183   8.250
 3690POPC   C3B 8373   0.266  19.252   7.950
 3690POPC   C4B 8374   0.251  19.229   7.650
 3691POPC   NC3 8375  24.479  27.616   9.450
 3691POPC   PO4 8376  24.478  27.613   9.150
 3691POPC   GL1 8377  24.469  27.577   8.850
 3691POPC   GL2 8378  24.630  27.574   8.850
 3691POPC   C1A 8379  24.484  27.557   8.550
 3691POPC   D2A 8380  24.499  27.614   8.250
 3691POPC   C3A 8381  24.441  27.621   7.950
 3691POPC   C4A 8382  24.463  27.628   7.650
 3691POPC   C1B 8383  24.711  27.458   8.550
 3691POPC   C2B 8384  24.738  27.469   8.250
 3691POPC   C3B 8385  24.724  27.511   7.950
 3691POPC   C4B 8386  24.697  27.542   7.650
 3692POPC   NC3 8387  18.317  44.631   9.450
 3692POPC   PO4 8388  18.297  44.708   9.150
 3692POPC   GL1 8389  18.233  44.654   8.850
 3692POPC   GL2 8390  18.215  44.597   8.850
 3692POPC   C1A 8391  18.267  44.664   8.550
 3692POPC   D2A 8392  18.275  44.711   8.250
 3692POPC   C3A 8393  18.241  44.677   7.950
 3692POPC   C4A 8394  18.320  44.664   7.650
 3692POPC   C1B 8395  18.050  44.521   8.550
 3692POPC   C2B 8396  18.055  44.572   8.250
 3692POPC   C3B 8397  18.026  44.537   7.950
 3692POPC   C4B 8398  18.087  44.521   7.650
 3693POPC   NC3 8399   3.500  33.016   9.450
 3693POPC   PO4 8400   3.530  33.068   9.150
 3693POPC   GL1 8401   3.576  33.060   8.850
 3693POPC   GL2 8402   3.660  33.125   8.850
 3693POPC   C1A 8403   3.590  32.974   8.550
 3693POPC   D2A 8404   3.538  33.009   8.250
 3693POPC   C3A 8405   3.501  33.057   7.950
 3693POPC   C4A 8406   3.521  33.027   7.650
 3693POPC   C1B 8407   3.791  33.151   8.550
 3693POPC   C2B 8408   3.782  33.165   8.250
 3693POPC   C3B 8409   3.726  33.101   7.950
 3693POPC   C4B 8410   3.734  33.112   7.650
 3694POPC   NC3 8411  22.943  27.580   9.450
 3694POPC   PO4 8412  22.950  27.580   9.150
 3694POPC   GL1 8413  22.947  27.615   8.850
 3694POPC   GL2 8414  22.817  27.556   8.850
 3694POPC   C1A 8415  22.966  27.599   8.550
 3694POPC   D2A 8416  22.901  27.544   8.250
 3694POPC   C3A 8417  22.917  27.569   7.950
 3694POPC   C4A 8418  22.977  27.587   7.650
 3694POPC   C1B 8419  22.737  27.504   8.550
 3694POPC   C2B 8420  22.660  27.481   8.250
 3694POPC   C3B 8421  22.753  27.490   7.950
 3694POPC   C4B 8422  22.689  27.512   7.650
 3695POPC   NC3 8423  37.631  36.920   9.450
 3695POPC   PO4 8424  37.664  36.892   9.150
 3695POPC   GL1 8425  37.684  36.933   8.850
 3695POPC   GL2 8426  37.753  36.989   8.850
 3695POPC   C1A 8427  37.646  36.910   8.550
 3695POPC   D2A 8428  37.714  36.928   8.250
 3695POPC   C3A 8429  37.634  36.908   7.950
 3695POPC   C4A 8430  37.702  36.945   7.650
 3695POPC   C1B 8431  37.876  37.013   8.550
 3695POPC   C2B 8432  37.945  37.056   8.250
 3695POPC   C3B 8433  37.867  36.977   7.950
 3695POPC   C4B 8434  37.923  37.032   7.650
 3696POPC   NC3 8435  39.961   8.237   9.450
 3696POPC   PO4 8436  40.012   8.202   9.150
 3696POPC   GL1 8437  40.046   8.222   8.850
 3696POPC   GL2 8438  40.098   8.254   8.850
 3696POPC   C1A 8439  39.999   8.230   8.550
 3696POPC   D2A 8440  40.025   8.212   8.250
 3696POPC   C3A 8441  40.056   8.155   7.950
 3696POPC   C4A 8442  40.040   8.237   7.650
 3696POPC   C1B 8443  40.285   8.192   8.550
 3696POPC   C2B 8444  40.262   8.181   8.250
 3696POPC   C3B 8445  40.225   8.266   7.950
 3696POPC   C4B 8446  40.224   8.271   7.650
 3697POPC   NC3 8447   3.571  27.595   9.450
 3697POPC   PO4 8448   3.534  27.629   9.150
 3697POPC   GL1 8449   3.570  27.619   8.850
 3697POPC   GL2 8450   3.434  27.639   8.850
 3697POPC   C1A 8451   3.506  27.564   8.550
 3697POPC   D2A 8452   3.554  27.555   8.250
 3697POPC   C3A 8453   3.554  27.599   7.950
 3697POPC   C4A 8454   3.551  27.585   7.650
 3697POPC   C1B 8455   3.287  27.675   8.550
 3697POPC   C2B 8456   3.336  27.646   8.250
 3697POPC   C3B 8457   3.302  27.631   7.950
 3697POPC   C4B 8458   3.304  27.603   7.650
 3698POPC   NC3 8459  13.672  33.813   9.450
 3698POPC   PO4 8460  13.637  33.771   9.150
 3698POPC   GL1 8461  13.602  33.847   8.850
 3698POPC   GL2 8462  13.483  33.720   8.850
 3698POPC   C1A 8463  13.603  33.793   8.550
 3698POPC   D2A 8464  13.608  33.807   8.250
 3698POPC   C3A 8465  13.584  33.753   7.950
 3698POPC   C4A 8466  13.645  33.779   7.650
 3698POPC   C1B 8467  13.454  33.652   8.550
 3698POPC   C2B 8468  13.472  33.617   8.250
 3698POPC   C3B 8469  13.460  33.616   7.950
 3698POPC   C4B 8470  13.471  33.663   7.650
 3699POPC   NC3 8471  14.400  22.142   9.450
 3699POPC   PO4 8472  14.445  22.197   9.150
 3699POPC   GL1 8473  14.386  22.140   8.850
 3699POPC   GL2 8474  14.270  22.285   8.850
 3699POPC   C1A 8475  14.448  22.145   8.550
 3699POPC   D2A 8476  14.389  22.122   8.250
 3699POPC   C3A 8477  14.355  22.128   7.950
 3699POPC   C4A 8478  14.395  22.132   7.650
 3699POPC   C1B 8479  14.195  22.338   8.550
 3699POPC   C2B 8480  14.261  22.298   8.250
 3699POPC   C3B 8481  14.200  22.380   7.950
 3699POPC   C4B 8482  14.189  22.311   7.650
 3700POPC   NC3 8483  43.140  43.923   9.450
 3700POPC   PO4 8484  43.087  43.915   9.150
 3700POPC   GL1 8485  43.126  43.858   8.850
 3700POPC   GL2 8486  43.062  43.714   8.850
 3700POPC   C1A 8487  43.106  43.931   8.550
 3700POPC   D2A 8488  43.080  43.854   8.250
 3700POPC   C3A 8489  43.063  43.872   7.950
 3700POPC   C4A 8490  43.087  43.840   7.650
 3700POPC   C1B 8491  43.150  43.598   8.550
 3700POPC   C2B 8492  43.081  43.668   8.250
 3700POPC   C3B 8493  43.072  43.658   7.950
 3700POPC   C4B 8494  43.089  43.641   7.650
 3701POPC   NC3 8495  20.611  35.342   9.450
 3701POPC   PO4 8496  20.619  35.347   9.150
 3701POPC   GL1 8497  20.635  35.304   8.850
 3701POPC   GL2 8498  20.587  35.423   8.850
 3701POPC   C1A 8499  20.573  35.304   8.550
 3701POPC   D2A 8500  20.636  35.367   8.250
 3701POPC   C3A 8501  20.573  35.356   7.950
 3701POPC   C4A 8502  20.620  35.369   7.650
 3701POPC   C1B 8503  20.516  35.568   8.550
 3701POPC   C2B 8504  20.525  35.617   8.250
 3701POPC   C3B 8505  20.499  35.634   7.950
 3701POPC   C4B 8506  20.519  35.546   7.650
 3702POPC   NC3 8507   1.255  26.857   9.450
 3702POPC   PO4 8508   1.175  26.781   9.150
 3702POPC   GL1 8509   1.223  26.793   8.850
 3702POPC   GL2 8510   1.232  26.676   8.850
 3702POPC   C1A 8511   1.260  26.799   8.550
 3702POPC   D2A 8512   1.174  26.778   8.250
 3702POPC   C3A 8513   1.213  26.798   7.950
 3702POPC   C4A 8514   1.175  26.798   7.650
 3702POPC   C1B 8515   1.349  26.569   8.550
 3702POPC   C2B 8516   1.352  26.655   8.250
 3702POPC   C3B 8517   1.328  26.634   7.950
 3702POPC   C4B 8518   1.356  26.602   7.650
 3703POPC   NC3 8519   6.653  26.789   9.450
 3703POPC   PO4 8520   6.602  26.837   9.150
 3703POPC   GL1 8521   6.632  26.809   8.850
 3703POPC   GL2 8522   6.676  26.936   8.850
 3703POPC   C1A 8523   6.693  26.795   8.550
 3703POPC   D2A 8524   6.598  26.780   8.250
 3703POPC   C3A 8525   6.651  26.866   7.950
 3703POPC   C4A 8526   6.607  26.823   7.650
 3703POPC   C1B 8527   6.717  27.071   8.550
 3703POPC   C2B 8528   6.777  27.022   8.250
 3703POPC   C3B 8529   6.737  27.038   7.950
 3703POPC   C4B 8530   6.781  27.065   7.650
 3704POPC   NC3 8531  26.773  19.102   9.450
 3704POPC   PO4 8532  26.830  19.053   9.150
 3704POPC   GL1 8533  26.771  19.094   8.850
 3704POPC   GL2 8534  26.773  19.132   8.850
 3704POPC   C1A 8535  26.834  19.091   8.550
 3704POPC   D2A 8536  26.825  19.094   8.250
 3704POPC   C3A 8537  26.852  19.080   7.950
 3704POPC   C4A 8538  26.775  19.025   7.650
 3704POPC   C1B 8539  26.752  19.302   8.550
 3704POPC   C2B 8540  26.787  19.267   8.250
 3704POPC   C3B 8541  26.766  19.270   7.950
 3704POPC   C4B 8542  26.711  19.347   7.650
 3705POPC   NC3 8543  19.791   4.357   9.450
 3705POPC   PO4 8544  19.884   4.330   9.150
 3705POPC   GL1 8545  19.822   4.328   8.850
 3705POPC   GL2 8546  19.977   4.265   8.850
 3705POPC   C1A 8547  19.875   4.313   8.550
 3705POPC   D2A 8548  19.798   4.279   8.250
 3705POPC   C3A 8549  19.807   4.304   7.950
 3705POPC   C4A 8550  19.870   4.320   7.650
 3705POPC   C1B 8551  20.044   4.220   8.550
 3705POPC   C2B 8552  20.031   4.156   8.250
 3705POPC   C3B 8553  20.055   4.200   7.950
 3705POPC   C4B 8554  20.069   4.152   7.650
 3706POPC   NC3 8555   5.869  18.303   9.450
 3706POPC   PO4 8556   5.907  18.288   9.150
 3706POPC   GL1 8557   5.888  18.300   8.850
 3706POPC   GL2 8558   5.978  18.361   8.850
 3706POPC   C1A 8559   5.827  18.322   8.550
 3706POPC   D2A 8560   5.867  18.264   8.250
 3706POPC   C3A 8561   5.847  18.308   7.950
 3706POPC   C4A 8562   5.886  18.279   7.650
 3706POPC   C1B 8563   6.069  18.419   8.550
 3706POPC   C2B 8564   6.068  18.484   8.250
 3706POPC   C3B 8565   6.050  18.447   7.950
 3706POPC   C4B 8566   6.010  18.416   7.650
 3707POPC   NC3 8567  39.222  34.599   9.450
 3707POPC   PO4 8568  39.215  34.589   9.150
 3707POPC   GL1 8569  39.269  34.565   8.850
 3707POPC   GL2 8570  39.252  34.464   8.850
 3707POPC   C1A 8571  39.191  34.574   8.550
 3707POPC   D2A 8572  39.247  34.579   8.250
 3707POPC   C3A 8573  39.192  34.608   7.950
 3707POPC   C4A 8574  39.235  34.576   7.650
 3707POPC   C1B 8575  39.224  34.370   8.550
 3707POPC   C2B 8576  39.212  34.288   8.250
 3707POPC   C3B 8577  39.225  34.336   7.950
 3707POPC   C4B 8578  39.246  34.294   7.650
 3708POPC   NC3 8579  18.263   7.392   9.450
 3708POPC   PO4 8580  18.296   7.425   9.150
 3708POPC   GL1 8581  18.276   7.371   8.850
 3708POPC   GL2 8582  18.223   7.498   8.850
 3708POPC   C1A 8583  18.269   7.414   8.550
 3708POPC   D2A 8584  18.253   7.381   8.250
 3708POPC   C3A 8585  18.285   7.465   7.950
 3708POPC   C4A 8586  18.253   7.415   7.650
 3708POPC   C1B 8587  18.229   7.700   8.550
 3708POPC   C2B 8588  18.299   7.623   8.250
 3708POPC   C3B 8589  18.218   7.664   7.950
 3708POPC   C4B 8590  18.272   7.648   7.650
 3709POPC   NC3 8591  35.371  12.105   9.450
 3709POPC   PO4 8592  35.393  12.105   9.150
 3709POPC   GL1 8593  35.396  12.121   8.850
 3709POPC   GL2 8594  35.274  12.171   8.850
 3709POPC   C1A 8595  35.371  12.102   8.550
 3709POPC   D2A 8596  35.370  12.081   8.250
 3709POPC   C3A 8597  35.313  12.093   7.950
 3709POPC   C4A 8598  35.399  12.114   7.650
 3709POPC   C1B 8599  35.252  12.331   8.550
 3709POPC   C2B 8600  35.271  12.305   8.250
 3709POPC   C3B 8601  35.238  12.334   7.950
 3709POPC   C4B 8602  35.272  12.278   7.650
 3710POPC   NC3 8603   7.396  19.788   9.450
 3710POPC   PO4 8604   7.372  19.831   9.150
 3710POPC   GL1 8605   7.424  19.839   8.850
 3710POPC   GL2 8606   7.508  19.924   8.850
 3710POPC   C1A 8607   7.419  19.850   8.550
 3710POPC   D2A 8608   7.382  19.875   8.250
 3710POPC   C3A 8609   7.419  19.826   7.950
 3710POPC   C4A 8610   7.397  19.855   7.650
 3710POPC   C1B 8611   7.658  19.908   8.550
 3710POPC   C2B 8612   7.652  19.926   8.250
 3710POPC   C3B 8613   7.675  19.921   7.950
 3710POPC   C4B 8614   7.629  19.967   7.650
 3711POPC   NC3 8615  35.349  28.411   9.450
 3711POPC   PO4 8616  35.332  28.381   9.150
 3711POPC   GL1 8617  35.395  28.344   8.850
 3711POPC   GL2 8618  35.253  28.278   8.850
 3711POPC   C1A 8619  35.382  28.358   8.550
 3711POPC   D2A 8620  35.395  28.352   8.250
 3711POPC   C3A 8621  35.398  28.342   7.950
 3711POPC   C4A 8622  35.349  28.376   7.650
 3711POPC   C1B 8623  35.161  28.189   8.550
 3711POPC   C2B 8624  35.192  28.218   8.250
 3711POPC   C3B 8625  35.139  28.223   7.950
 3711POPC   C4B 8626  35.125  28.226   7.650
 3712POPC   NC3 8627   4.324   8.166   9.450
 3712POPC   PO4 8628   4.284   8.207   9.150
 3712POPC   GL1 8629   4.324   8.210   8.850
 3712POPC   GL2 8630   4.434   8.088   8.850
 3712POPC   C1A 8631   4.281   8.218   8.550
 3712POPC   D2A 8632   4.272   8.147   8.250
 3712POPC   C3A 8633   4.358   8.177   7.950
 3712POPC   C4A 8634   4.333   8.151   7.650
 3712POPC   C1B 8635   4.502   8.120   8.550
 3712POPC   C2B 8636   4.559   8.052   8.250
 3712POPC   C3B 8637   4.515   8.051   7.950
 3712POPC   C4B 8638   4.503   8.101   7.650
 3713POPC   NC3 8639   4.365  17.502   9.450
 3713POPC   PO4 8640   4.365  17.539   9.150
 3713POPC   GL1 8641   4.339  17.491   8.850
 3713POPC   GL2 8642   4.315  17.617   8.850
 3713POPC   C1A 8643   4.360  17.481   8.550
 3713POPC   D2A 8644   4.277  17.548   8.250
 3713POPC   C3A 8645   4.285  17.503   7.950
 3713POPC   C4A 8646   4.355  17.549   7.650
 3713POPC   C1B 8647   4.273  17.790   8.550
 3713POPC   C2B 8648   4.258  17.752   8.250
 3713POPC   C3B 8649   4.307  17.729   7.950
 3713POPC   C4B 8650   4.261  17.761   7.650
 3714POPC   NC3 8651  19.867  39.243   9.450
 3714POPC   PO4 8652  19.884  39.235   9.150
 3714POPC   GL1 8653  19.832  39.217   8.850
 3714POPC   GL2 8654  19.800  39.395   8.850
 3714POPC   C1A 8655  19.803  39.239   8.550
 3714POPC   D2A 8656  19.794  39.230   8.250
 3714POPC   C3A 8657  19.884  39.278   7.950
 3714POPC   C4A 8658  19.815  39.209   7.650
 3714POPC   C1B 8659  19.864  39.439   8.550
 3714POPC   C2B 8660  19.772  39.507   8.250
 3714POPC   C3B 8661  19.837  39.528   7.950
 3714POPC   C4B 8662  19.800  39.468   7.650
 3715POPC   NC3 8663  34.559   5.894   9.450
 3715POPC   PO4 8664  34.612   5.830   9.150
 3715POPC   GL1 8665  34.615   5.861   8.850
 3715POPC   GL2 8666  34.530   6.041   8.850
 3715POPC   C1A 8667  34.615   5.835   8.550
 3715POPC   D2A 8668  34.545   5.910   8.250
 3715POPC   C3A 8669  34.561   5.853   7.950
 3715POPC   C4A 8670  34.594   5.858   7.650
 3715POPC   C1B 8671  34.576   6.153   8.550
 3715POPC   C2B 8672  34.565   6.099   8.250
 3715POPC   C3B 8673  34.579   6.097   7.950
 3715POPC   C4B 8674  34.501   6.088   7.650
 3716POPC   NC3 8675   1.247  15.220   9.450
 3716POPC   PO4 8676   1.214  15.165   9.150
 3716POPC   GL1 8677   1.196  15.214   8.850
 3716POPC   GL2 8678   1.082  15.202   8.850
 3716POPC   C1A 8679   1.226  15.169   8.550
 3716POPC   D2A 8680   1.203  15.166   8.250
 3716POPC   C3A 8681   1.174  15.214   7.950
 3716POPC   C4A 8682   1.189  15.213   7.650
 3716POPC   C1B 8683   1.011  15.151   8.550
 3716POPC   C2B 8684   0.926  15.225   8.250
 3716POPC   C3B 8685   0.953  15.149   7.950
 3716POPC   C4B 8686   1.007  15.215   7.650
 3717POPC   NC3 8687  22.199  15.946   9.450
 3717POPC   PO4 8688  22.143  15.943   9.150
 3717POPC   GL1 8689  22.138  15.978   8.850
 3717POPC   GL2 8690  22.158  15.820   8.850
 3717POPC   C1A 8691  22.134  15.941   8.550
 3717POPC   D2A 8692  22.141  15.988   8.250
 3717POPC   C3A 8693  22.178  15.943   7.950
 3717POPC   C4A 8694  22.169  15.995   7.650
 3717POPC   C1B 8695  22.270  15.719   8.550
 3717POPC   C2B 8696  22.233  15.723   8.250
 3717POPC   C3B 8697  22.215  15.709   7.950
 3717POPC   C4B 8698  22.208  15.743   7.650
 3718POPC   NC3 8699   6.682  17.538   9.450
 3718POPC   PO4 8700   6.690  17.512   9.150
 3718POPC   GL1 8701   6.678  17.521   8.850
 3718POPC   GL2 8702   6.581  17.593   8.850
 3718POPC   C1A 8703   6.599  17.551   8.550
 3718POPC   D2A 8704   6.617  17.484   8.250
 3718POPC   C3A 8705   6.647  17.505   7.950
 3718POPC   C4A 8706   6.597  17.531   7.650
 3718POPC   C1B 8707   6.571  17.790   8.550
 3718POPC   C2B 8708   6.633  17.747   8.250
 3718POPC   C3B 8709   6.577  17.734   7.950
 3718POPC   C4B 8710   6.628  17.709   7.650
 3719POPC   NC3 8711  24.452  33.002   9.450
 3719POPC   PO4 8712  24.452  33.071   9.150
 3719POPC   GL1 8713  24.537  33.042   8.850
 3719POPC   GL2 8714  24.532  32.888   8.850
 3719POPC   C1A 8715  24.518  33.016   8.550
 3719POPC   D2A 8716  24.529  32.993   8.250
 3719POPC   C3A 8717  24.472  32.993   7.950
 3719POPC   C4A 8718  24.532  33.002   7.650
 3719POPC   C1B 8719  24.470  32.741   8.550
 3719POPC   C2B 8720  24.484  32.817   8.250
 3719POPC   C3B 8721  24.457  32.727   7.950
 3719POPC   C4B 8722  24.500  32.818   7.650
 3720POPC   NC3 8723  43.935  30.670   9.450
 3720POPC   PO4 8724  43.874  30.705   9.150
 3720POPC   GL1 8725  43.881  30.657   8.850
 3720POPC   GL2 8726  43.750  30.714   8.850
 3720POPC   C1A 8727  43.849  30.738   8.550
 3720POPC   D2A 8728  43.912  30.732   8.250
 3720POPC   C3A 8729  43.872  30.745   7.950
 3720POPC   C4A 8730  43.918  30.654   7.650
 3720POPC   C1B 8731  43.644  30.708   8.550
 3720POPC   C2B 8732  43.615  30.685   8.250
 3720POPC   C3B 8733  43.677  30.764   7.950
 3720POPC   C4B 8734  43.672  30.704   7.650
 3721POPC   NC3 8735  40.031   2.033   9.450
 3721POPC   PO4 8736  39.977   2.017   9.150
 3721POPC   GL1 8737  40.031   1.964   8.850
 3721POPC   GL2 8738  39.893   2.038   8.850
 3721POPC   C1A 8739  39.981   1.947   8.550
 3721POPC   D2A 8740  40.045   2.022   8.250
 3721POPC   C3A 8741  39.969   1.984   7.950
 3721POPC   C4A 8742  39.996   1.941   7.650
 3721POPC   C1B 8743  39.821   2.106   8.550
 3721POPC   C2B 8744  39.747   2.048   8.250
 3721POPC   C3B 8745  39.750   2.107   7.950
 3721POPC   C4B 8746  39.780   2.055   7.650
 3722POPC   NC3 8747   3.587  43.149   9.450
 3722POPC   PO4 8748   3.541  43.112   9.150
 3722POPC   GL1 8749   3.586  43.117   8.850
 3722POPC   GL2 8750   3.463  43.086   8.850
 3722POPC   C1A 8751   3.590  43.062   8.550
 3722POPC   D2A 8752   3.513  43.108   8.250
 3722POPC   C3A 8753   3.492  43.084   7.950
 3722POPC   C4A 8754   3.543  43.141   7.650
 3722POPC   C1B 8755   3.312  43.045   8.550
 3722POPC   C2B 8756   3.302  43.034   8.250
 3722POPC   C3B 8757   3.298  43.108   7.950
 3722POPC   C4B 8758   3.324  43.077   7.650
 3723POPC   NC3 8759   8.212  34.592   9.450
 3723POPC   PO4 8760   8.193  34.556   9.150
 3723POPC   GL1 8761   8.244  34.533   8.850
 3723POPC   GL2 8762   8.334  34.572   8.850
 3723POPC   C1A 8763   8.175  34.567   8.550
 3723POPC   D2A 8764   8.240  34.608   8.250
 3723POPC   C3A 8765   8.169  34.548   7.950
 3723POPC   C4A 8766   8.183  34.582   7.650
 3723POPC   C1B 8767   8.423  34.538   8.550
 3723POPC   C2B 8768   8.459  34.580   8.250
 3723POPC   C3B 8769   8.419  34.521   7.950
 3723POPC   C4B 8770   8.453  34.528   7.650
 3724POPC   NC3 8771  29.141  39.242   9.450
 3724POPC   PO4 8772  29.181  39.251   9.150
 3724POPC   GL1 8773  29.159  39.230   8.850
 3724POPC   GL2 8774  29.224  39.326   8.850
 3724POPC   C1A 8775  29.134  39.276   8.550
 3724POPC   D2A 8776  29.141  39.279   8.250
 3724POPC   C3A 8777  29.146  39.221   7.950
 3724POPC   C4A 8778  29.129  39.237   7.650
 3724POPC   C1B 8779  29.310  39.440   8.550
 3724POPC   C2B 8780  29.351  39.376   8.250
 3724POPC   C3B 8781  29.296  39.430   7.950
 3724POPC   C4B 8782  29.302  39.426   7.650
 3725POPC   NC3 8783  28.321  38.489   9.450
 3725POPC   PO4 8784  28.369  38.472   9.150
 3725POPC   GL1 8785  28.371  38.464   8.850
 3725POPC   GL2 8786  28.458  38.414   8.850
 3725POPC   C1A 8787  28.384  38.472   8.550
 3725POPC   D2A 8788  28.326  38.492   8.250
 3725POPC   C3A 8789  28.353  38.459   7.950
 3725POPC   C4A 8790  28.366  38.465   7.650
 3725POPC   C1B 8791  28.601  38.351   8.550
 3725POPC   C2B 8792  28.576  38.377   8.250
 3725POPC   C3B 8793  28.635  38.405   7.950
 3725POPC   C4B 8794  28.631  38.386   7.650
 3726POPC   NC3 8795  26.841  36.137   9.450
 3726POPC   PO4 8796  26.796  36.079   9.150
 3726POPC   GL1 8797  26.819  36.152   8.850
 3726POPC   GL2 8798  26.748  36.233   8.850
 3726POPC   C1A 8799  26.794  36.136   8.550
 3726POPC   D2A 8800  26.823  36.105   8.250
 3726POPC   C3A 8801  26.807  36.150   7.950
 3726POPC   C4A 8802  26.797  36.139   7.650
 3726POPC   C1B 8803  26.633  36.265   8.550
 3726POPC   C2B 8804  26.647  36.244   8.250
 3726POPC   C3B 8805  26.653  36.246   7.950
 3726POPC   C4B 8806  26.568  36.294   7.650
 3727POPC   NC3 8807   8.923  22.926   9.450
 3727POPC   PO4 8808   8.987  22.908   9.150
 3727POPC   GL1 8809   8.944  22.950   8.850
 3727POPC   GL2 8810   8.891  22.802   8.850
 3727POPC   C1A 8811   8.981  22.924   8.550
 3727POPC   D2A 8812   8.943  22.949   8.250
 3727POPC   C3A 8813   8.992  22.912   7.950
 3727POPC   C4A 8814   8.923  22.897   7.650
 3727POPC   C1B 8815   8.824  22.778   8.550
 3727POPC   C2B 8816   8.777  22.751   8.250
 3727POPC   C3B 8817   8.775  22.752   7.950
 3727POPC   C4B 8818   8.841  22.738   7.650
 3728POPC   NC3 8819  29.180  21.399   9.450
 3728POPC   PO4 8820  29.187  21.420   9.150
 3728POPC   GL1 8821  29.143  21.379   8.850
 3728POPC   GL2 8822  29.070  21.258   8.850
 3728POPC   C1A 8823  29.148  21.435   8.550
 3728POPC   D2A 8824  29.193  21.418   8.250
 3728POPC   C3A 8825  29.188  21.423   7.950
 3728POPC   C4A 8826  29.096  21.419   7.650
 3728POPC   C1B 8827  29.116  21.119   8.550
 3728POPC   C2B 8828  29.119  21.182   8.250
 3728POPC   C3B 8829  29.038  21.187   7.950
 3728POPC   C4B 8830  29.031  21.133   7.650
 3729POPC   NC3 8831  15.967  11.325   9.450
 3729POPC   PO4 8832  15.995  11.323   9.150
 3729POPC   GL1 8833  15.960  11.322   8.850
 3729POPC   GL2 8834  15.836  11.274   8.850
 3729POPC   C1A 8835  15.920  11.347   8.550
 3729POPC   D2A 8836  15.999  11.328   8.250
 3729POPC   C3A 8837  15.955  11.272   7.950
 3729POPC   C4A 8838  15.977  11.328   7.650
 3729POPC   C1B 8839  15.708  11.318   8.550
 3729POPC   C2B 8840  15.684  11.301   8.250
 3729POPC   C3B 8841  15.680  11.370   7.950
 3729POPC   C4B 8842  15.671  11.286   7.650
 3730POPC   NC3 8843  40.739  40.034   9.450
 3730POPC   PO4 8844  40.823  39.982   9.150
 3730POPC   GL1 8845  40.811  39.990   8.850
 3730POPC   GL2 8846  40.901  39.999   8.850
 3730POPC   C1A 8847  40.810  40.013   8.550
 3730POPC   D2A 8848  40.760  39.991   8.250
 3730POPC   C3A 8849  40.749  39.994   7.950
 3730POPC   C4A 8850  40.743  40.011   7.650
 3730POPC   C1B 8851  41.062  40.032   8.550
 3730POPC   C2B 8852  41.000  40.048   8.250
 3730POPC   C3B 8853  40.982  40.015   7.950
 3730POPC   C4B 8854  40.991  40.010   7.650
 3731POPC   NC3 8855  36.921  23.687   9.450
 3731POPC   PO4 8856  36.870  23.682   9.150
 3731POPC   GL1 8857  36.948  23.671   8.850
 3731POPC   GL2 8858  36.904  23.866   8.850
 3731POPC   C1A 8859  36.883  23.741   8.550
 3731POPC   D2A 8860  36.864  23.675   8.250
 3731POPC   C3A 8861  36.951  23.708   7.950
 3731POPC   C4A 8862  36.870  23.703   7.650
 3731POPC   C1B 8863  36.904  23.979   8.550
 3731POPC   C2B 8864  36.933  23.947   8.250
 3731POPC   C3B 8865  36.853  23.937   7.950
 3731POPC   C4B 8866  36.880  23.975   7.650
 3732POPC   NC3 8867  38.423  20.608   9.450
 3732POPC   PO4 8868  38.458  20.652   9.150
 3732POPC   GL1 8869  38.426  20.624   8.850
 3732POPC   GL2 8870  38.482  20.772   8.850
 3732POPC   C1A 8871  38.451  20.567   8.550
 3732POPC   D2A 8872  38.412  20.573   8.250
 3732POPC   C3A 8873  38.496  20.565   7.950
 3732POPC   C4A 8874  38.442  20.573   7.650
 3732POPC   C1B 8875  38.492  20.895   8.550
 3732POPC   C2B 8876  38.417  20.875   8.250
 3732POPC   C3B 8877  38.406  20.839   7.950
 3732POPC   C4B 8878  38.454  20.897   7.650
 3733POPC   NC3 8879  12.854   7.409   9.450
 3733POPC   PO4 8880  12.807   7.412   9.150
 3733POPC   GL1 8881  12.812   7.413   8.850
 3733POPC   GL2 8882  12.941   7.431   8.850
 3733POPC   C1A 8883  12.855   7.415   8.550
 3733POPC   D2A 8884  12.891   7.372   8.250
 3733POPC   C3A 8885  12.892   7.389   7.950
 3733POPC   C4A 8886  12.884   7.399   7.650
 3733POPC   C1B 8887  13.112   7.409   8.550
 3733POPC   C2B 8888  13.066   7.391   8.250
 3733POPC   C3B 8889  13.085   7.364   7.950
 3733POPC   C4B 8890  13.125   7.399   7.650
 3734POPC   NC3 8891  19.830  33.761   9.450
 3734POPC   PO4 8892  19.865  33.801   9.150
 3734POPC   GL1 8893  19.858  33.775   8.850
 3734POPC   GL2 8894  19.723  33.753   8.850
 3734POPC   C1A 8895  19.863  33.834   8.550
 3734POPC   D2A 8896  19.870  33.806   8.250
 3734POPC   C3A 8897  19.826  33.751   7.950
 3734POPC   C4A 8898  19.856  33.801   7.650
 3734POPC   C1B 8899  19.575  33.723   8.550
 3734POPC   C2B 8900  19.608  33.692   8.250
 3734POPC   C3B 8901  19.598  33.755   7.950
 3734POPC   C4B 8902  19.584  33.737   7.650
 3735POPC   NC3 8903  18.248  15.147   9.450
 3735POPC   PO4 8904  18.247  15.199   9.150
 3735POPC   GL1 8905  18.289  15.158   8.850
 3735POPC   GL2 8906  18.291  15.267   8.850
 3735POPC   C1A 8907  18.317  15.180   8.550
 3735POPC   D2A 8908  18.319  15.135   8.250
 3735POPC   C3A 8909  18.281  15.208   7.950
 3735POPC   C4A 8910  18.238  15.184   7.650
 3735POPC   C1B 8911  18.348  15.447   8.550
 3735POPC   C2B 8912  18.389  15.433   8.250
 3735POPC   C3B 8913  18.398  15.462   7.950
 3735POPC   C4B 8914  18.379  15.460   7.650
 3736POPC   NC3 8915  21.417  33.037   9.450
 3736POPC   PO4 8916  21.346  33.004   9.150
 3736POPC   GL1 8917  21.387  32.997   8.850
 3736POPC   GL2 8918  21.376  32.930   8.850
 3736POPC   C1A 8919  21.434  32.984   8.550
 3736POPC   D2A 8920  21.341  33.020   8.250
 3736POPC   C3A 8921  21.410  33.031   7.950
 3736POPC   C4A 8922  21.381  33.059   7.650
 3736POPC   C1B 8923  21.282  32.765   8.550
 3736POPC   C2B 8924  21.276  32.778   8.250
 3736POPC   C3B 8925  21.300  32.804   7.950
 3736POPC   C4B 8926  21.260  32.809   7.650
 3737POPC   NC3 8927  22.922   4.349   9.450
 3737POPC   PO4 8928  22.967   4.280   9.150
 3737POPC   GL1 8929  22.893   4.270   8.850
 3737POPC   GL2 8930  22.934   4.231   8.850
 3737POPC   C1A 8931  22.916   4.279   8.550
 3737POPC   D2A 8932  22.976   4.291   8.250
 3737POPC   C3A 8933  22.988   4.316   7.950
 3737POPC   C4A 8934  22.889   4.365   7.650
 3737POPC   C1B 8935  22.932   4.056   8.550
 3737POPC   C2B 8936  22.920   4.037   8.250
 3737POPC   C3B 8937  22.844   4.104   7.950
 3737POPC   C4B 8938  22.876   4.025   7.650
 3738POPC   NC3 8939   8.210  20.568   9.450
 3738POPC   PO4 8940   8.176  20.628   9.150
 3738POPC   GL1 8941   8.243  20.600   8.850
 3738POPC   GL2 8942   8.290  20.469   8.850
 3738POPC   C1A 8943   8.179  20.592   8.550
 3738POPC   D2A 8944   8.149  20.643   8.250
 3738POPC   C3A 8945   8.192  20.581   7.950
 3738POPC   C4A 8946   8.185  20.585   7.650
 3738POPC   C1B 8947   8.371  20.408   8.550
 3738POPC   C2B 8948   8.313  20.406   8.250
 3738POPC   C3B 8949   8.382  20.389   7.950
 3738POPC   C4B 8950   8.320  20.427   7.650
 3739POPC   NC3 8951  22.165  26.773   9.450
 3739POPC   PO4 8952  22.198  26.770   9.150
 3739POPC   GL1 8953  22.211  26.860   8.850
 3739POPC   GL2 8954  22.336  26.811   8.850
 3739POPC   C1A 8955  22.204  26.773   8.550
 3739POPC   D2A 8956  22.126  26.844   8.250
 3739POPC   C3A 8957  22.128  26.810   7.950
 3739POPC   C4A 8958  22.116  26.792   7.650
 3739POPC   C1B 8959  22.407  26.878   8.550
 3739POPC   C2B 8960  22.405  26.799   8.250
 3739POPC   C3B 8961  22.387  26.852   7.950
 3739POPC   C4B 8962  22.429  26.853   7.650
 3740POPC   NC3 8963  22.143   7.460   9.450
 3740POPC   PO4 8964  22.118   7.430   9.150
 3740POPC   GL1 8965  22.118   7.393   8.850
 3740POPC   GL2 8966  22.239   7.525   8.850
 3740POPC   C1A 8967  22.157   7.405   8.550
 3740POPC   D2A 8968  22.163   7.390   8.250
 3740POPC   C3A 8969  22.184   7.436   7.950
 3740POPC   C4A 8970  22.179   7.464   7.650
 3740POPC   C1B 8971  22.276   7.674   8.550
 3740POPC   C2B 8972  22.280   7.612   8.250
 3740POPC   C3B 8973  22.317   7.626   7.950
 3740POPC   C4B 8974  22.258   7.674   7.650
 3741POPC   NC3 8975  36.176  17.526   9.450
 3741POPC   PO4 8976  36.091  17.473   9.150
 3741POPC   GL1 8977  36.165  17.519   8.850
 3741POPC   GL2 8978  36.211  17.450   8.850
 3741POPC   C1A 8979  36.091  17.491   8.550
 3741POPC   D2A 8980  36.158  17.502   8.250
 3741POPC   C3A 8981  36.161  17.463   7.950
 3741POPC   C4A 8982  36.130  17.477   7.650
 3741POPC   C1B 8983  36.277  17.346   8.550
 3741POPC   C2B 8984  36.278  17.312   8.250
 3741POPC   C3B 8985  36.233  17.257   7.950
 3741POPC   C4B 8986  36.249  17.325   7.650
 3742POPC   NC3 8987  13.596  22.962   9.450
 3742POPC   PO4 8988  13.640  22.980   9.150
 3742POPC   GL1 8989  13.667  22.919   8.850
 3742POPC   GL2 8990  13.564  23.000   8.850
 3742POPC   C1A 8991  13.625  22.938   8.550
 3742POPC   D2A 8992  13.623  22.947   8.250
 3742POPC   C3A 8993  13.658  22.951   7.950
 3742POPC   C4A 8994  13.612  22.953   7.650
 3742POPC   C1B 8995  13.542  23.158   8.550
 3742POPC   C2B 8996  13.526  23.123   8.250
 3742POPC   C3B 8997  13.546  23.156   7.950
 3742POPC   C4B 8998  13.548  23.170   7.650
 3743POPC   NC3 8999  23.701  34.581   9.450
 3743POPC   PO4 9000  23.683  34.559   9.150
 3743POPC   GL1 9001  23.752  34.580   8.850
 3743POPC   GL2 9002  23.781  34.435   8.850
 3743POPC   C1A 9003  23.701  34.554   8.550
 3743POPC   D2A 9004  23.758  34.562   8.250
 3743POPC   C3A 9005  23.738  34.556   7.950
 3743POPC   C4A 9006  23.734  34.580   7.650
 3743POPC   C1B 9007  23.747  34.302   8.550
 3743POPC   C2B 9008  23.717  34.289   8.250
 3743POPC   C3B 9009  23.806  34.369   7.950
 3743POPC   C4B 9010  23.789  34.314   7.650
 3744POPC   NC3 9011  18.306   8.159   9.450
 3744POPC   PO4 9012  18.314   8.238   9.150
 3744POPC   GL1 9013  18.318   8.151   8.850
 3744POPC   GL2 9014  18.357   8.068   8.850
 3744POPC   C1A 9015  18.304   8.152   8.550
 3744POPC   D2A 9016  18.293   8.168   8.250
 3744POPC   C3A 9017  18.273   8.184   7.950
 3744POPC   C4A 9018  18.235   8.243   7.650
 3744POPC   C1B 9019  18.370   7.942   8.550
 3744POPC   C2B 9020  18.380   7.931   8.250
 3744POPC   C3B 9021  18.382   7.941   7.950
 3744POPC   C4B 9022  18.359   7.959   7.650
 3745POPC   NC3 9023   7.380  18.325   9.450
 3745POPC   PO4 9024   7.383  18.302   9.150
 3745POPC   GL1 9025   7.385  18.236   8.850
 3745POPC   GL2 9026   7.508  18.345   8.850
 3745POPC   C1A 9027   7.426  18.277   8.550
 3745POPC   D2A 9028   7.412  18.276   8.250
 3745POPC   C3A 9029   7.409  18.275   7.950
 3745POPC   C4A 9030   7.411  18.272   7.650
 3745POPC   C1B 9031   7.669  18.310   8.550
 3745POPC   C2B 9032   7.702  18.330   8.250
 3745POPC   C3B 9033   7.668  18.378   7.950
 3745POPC   C4B 9034   7.692  18.379   7.650
 3746POPC   NC3 9035   0.486  43.913   9.450
 3746POPC   PO4 9036   0.418  43.837   9.150
 3746POPC   GL1 9037   0.482  43.926   8.850
 3746POPC   GL2 9038   0.306  43.912   8.850
 3746POPC   C1A 9039   0.438  43.849   8.550
 3746POPC   D2A 9040   0.422  43.890   8.250
 3746POPC   C3A 9041   0.405  43.902   7.950
 3746POPC   C4A 9042   0.484  43.930   7.650
 3746POPC   C1B 9043   0.262  44.012   8.550
 3746POPC   C2B 9044   0.235  44.021   8.250
 3746POPC   C3B 9045   0.226  43.959   7.950
 3746POPC   C4B 9046   0.223  43.966   7.650
 3747POPC   NC3 9047  39.966  28.330   9.450
 3747POPC   PO4 9048  39.985  28.368   9.150
 3747POPC   GL1 9049  39.972  28.333   8.850
 3747POPC   GL2 9050  39.850  28.311   8.850
 3747POPC   C1A 9051  40.045  28.376   8.550
 3747POPC   D2A 9052  40.042  28.325   8.250
 3747POPC   C3A 9053  40.024  28.416   7.950
 3747POPC   C4A 9054  40.042  28.327   7.650
 3747POPC   C1B 9055  39.763  28.287   8.550
 3747POPC   C2B 9056  39.736  28.280   8.250
 3747POPC   C3B 9057  39.758  28.328   7.950
 3747POPC   C4B 9058  39.753  28.302   7.650
 3748POPC   NC3 9059  31.516  24.510   9.450
 3748POPC   PO4 9060  31.512  24.504   9.150
 3748POPC   GL1 9061  31.429  24.446   8.850
 3748POPC   GL2 9062  31.565  24.595   8.850
 3748POPC   C1A 9063  31.510  24.468   8.550
 3748POPC   D2A 9064  31.429  24.510   8.250
 3748POPC   C3A 9065  31.498  24.524   7.950
 3748POPC   C4A 9066  31.452  24.514   7.650
 3748POPC   C1B 9067  31.632  24.734   8.550
 3748POPC   C2B 9068  31.639  24.712   8.250
 3748POPC   C3B 9069  31.659  24.688   7.950
 3748POPC   C4B 9070  31.600  24.635   7.650
 3749POPC   NC3 9071  27.574   4.308   9.450
 3749POPC   PO4 9072  27.545   4.292   9.150
 3749POPC   GL1 9073  27.586   4.279   8.850
 3749POPC   GL2 9074  27.715   4.227   8.850
 3749POPC   C1A 9075  27.552   4.339   8.550
 3749POPC   D2A 9076  27.636   4.311   8.250
 3749POPC   C3A 9077  27.598   4.333   7.950
 3749POPC   C4A 9078  27.608   4.359   7.650
 3749POPC   C1B 9079  27.791   4.130   8.550
 3749POPC   C2B 9080  27.792   4.133   8.250
 3749POPC   C3B 9081  27.718   4.178   7.950
 3749POPC   C4B 9082  27.750   4.125   7.650
 3750POPC   NC3 9083  13.606   0.481   9.450
 3750POPC   PO4 9084  13.611   0.437   9.150
 3750POPC   GL1 9085  13.611   0.449   8.850
 3750POPC   GL2 9086  13.539   0.399   8.850
 3750POPC   C1A 9087  13.673   0.426   8.550
 3750POPC   D2A 9088  13.623   0.475   8.250
 3750POPC   C3A 9089  13.589   0.422   7.950
 3750POPC   C4A 9090  13.612   0.479   7.650
 3750POPC   C1B 9091  13.415   0.437   8.550
 3750POPC   C2B 9092  13.416   0.452   8.250
 3750POPC   C3B 9093  13.407   0.493   7.950
 3750POPC   C4B 9094  13.409   0.459   7.650
 3751POPC   NC3 9095  36.899  15.986   9.450
 3751POPC   PO4 9096  36.854  15.985   9.150
 3751POPC   GL1 9097  36.953  15.907   8.850
 3751POPC   GL2 9098  36.835  15.872   8.850
 3751POPC   C1A 9099  36.923  15.996   8.550
 3751POPC   D2A 9100  36.946  15.963   8.250
 3751POPC   C3A 9101  36.886  15.953   7.950
 3751POPC   C4A 9102  36.904  15.983   7.650
 3751POPC   C1B 9103  36.825  15.772   8.550
 3751POPC   C2B 9104  36.802  15.730   8.250
 3751POPC   C3B 9105  36.814  15.716   7.950
 3751POPC   C4B 9106  36.776  15.691   7.650
 3752POPC   NC3 9107  29.942  11.264   9.450
 3752POPC   PO4 9108  29.884  11.334   9.150
 3752POPC   GL1 9109  29.907  11.295   8.850
 3752POPC   GL2 9110  29.779  11.276   8.850
 3752POPC   C1A 9111  29.953  11.279   8.550
 3752POPC   D2A 9112  29.904  11.328   8.250
 3752POPC   C3A 9113  29.925  11.260   7.950
 3752POPC   C4A 9114  29.942  11.344   7.650
 3752POPC   C1B 9115  29.646  11.175   8.550
 3752POPC   C2B 9116  29.729  11.197   8.250
 3752POPC   C3B 9117  29.672  11.219   7.950
 3752POPC   C4B 9118  29.725  11.176   7.650
 3753POPC   NC3 9119  35.354   7.466   9.450
 3753POPC   PO4 9120  35.356   7.434   9.150
 3753POPC   GL1 9121  35.373   7.395   8.850
 3753POPC   GL2 9122  35.263   7.362   8.850
 3753POPC   C1A 9123  35.348   7.415   8.550
 3753POPC   D2A 9124  35.358   7.466   8.250
 3753POPC   C3A 9125  35.302   7.406   7.950
 3753POPC   C4A 9126  35.336   7.410   7.650
 3753POPC   C1B 9127  35.212   7.217   8.550
 3753POPC   C2B 9128  35.181   7.168   8.250
 3753POPC   C3B 9129  35.235   7.255   7.950
 3753POPC   C4B 9130  35.200   7.238   7.650
 3754POPC   NC3 9131  26.828  29.114   9.450
 3754POPC   PO4 9132  26.859  29.152   9.150
 3754POPC   GL1 9133  26.776  29.097   8.850
 3754POPC   GL2 9134  26.724  29.075   8.850
 3754POPC   C1A 9135  26.838  29.187   8.550
 3754POPC   D2A 9136  26.799  29.096   8.250
 3754POPC   C3A 9137  26.836  29.127   7.950
 3754POPC   C4A 9138  26.772  29.100   7.650
 3754POPC   C1B 9139  26.709  28.883   8.550
 3754POPC   C2B 9140  26.708  28.915   8.250
 3754POPC   C3B 9141  26.658  28.938   7.950
 3754POPC   C4B 9142  26.713  28.911   7.650
 3755POPC   NC3 9143  19.875  27.633   9.450
 3755POPC   PO4 9144  19.857  27.596   9.150
 3755POPC   GL1 9145  19.868  27.591   8.850
 3755POPC   GL2 9146  19.762  27.463   8.850
 3755POPC   C1A 9147  19.785  27.558   8.550
 3755POPC   D2A 9148  19.795  27.641   8.250
 3755POPC   C3A 9149  19.806  27.595   7.950
 3755POPC   C4A 9150  19.807  27.614   7.650
 3755POPC   C1B 9151  19.611  27.374   8.550
 3755POPC   C2B 9152  19.654  27.404   8.250
 3755POPC   C3B 9153  19.655  27.414   7.950
 3755POPC   C4B 9154  19.611  27.401   7.650
 3756POPC   NC3 9155  20.643   1.256   9.450
 3756POPC   PO4 9156  20.615   1.216   9.150
 3756POPC   GL1 9157  20.596   1.263   8.850
 3756POPC   GL2 9158  20.675   1.092   8.850
 3756POPC   C1A 9159  20.657   1.252   8.550
 3756POPC   D2A 9160  20.562   1.169   8.250
 3756POPC   C3A 9161  20.652   1.229   7.950
 3756POPC   C4A 9162  20.653   1.210   7.650
 3756POPC   C1B 9163  20.758   0.961   8.550
 3756POPC   C2B 9164  20.746   1.015   8.250
 3756POPC   C3B 9165  20.718   0.942   7.950
 3756POPC   C4B 9166  20.719   1.001   7.650
 3757POPC   NC3 9167  29.192   0.392   9.450
 3757POPC   PO4 9168  29.190   0.474   9.150
 3757POPC   GL1 9169  29.156   0.473   8.850
 3757POPC   GL2 9170  29.279   0.376   8.850
 3757POPC   C1A 9171  29.195   0.409   8.550
 3757POPC   D2A 9172  29.124   0.399   8.250
 3757POPC   C3A 9173  29.167   0.409   7.950
 3757POPC   C4A 9174  29.126   0.462   7.650
 3757POPC   C1B 9175  29.358   0.343   8.550
 3757POPC   C2B 9176  29.332   0.250   8.250
 3757POPC   C3B 9177  29.360   0.266   7.950
 3757POPC   C4B 9178  29.300   0.301   7.650
 3758POPC   NC3 9179  37.650   8.233   9.450
 3758POPC   PO4 9180  37.671   8.159   9.150
 3758POPC   GL1 9181  37.707   8.156   8.850
 3758POPC   GL2 9182  37.653   8.300   8.850
 3758POPC   C1A 9183  37.665   8.242   8.550
 3758POPC   D2A 9184  37.720   8.216   8.250
 3758POPC   C3A 9185  37.688   8.172   7.950
 3758POPC   C4A 9186  37.720   8.174   7.650
 3758POPC   C1B 9187  37.666   8.423   8.550
 3758POPC   C2B 9188  37.641   8.489   8.250
 3758POPC   C3B 9189  37.673   8.450   7.950
 3758POPC   C4B 9190  37.632   8.396   7.650
 3759POPC   NC3 9191   4.361  33.850   9.450
 3759POPC   PO4 9192   4.365  33.766   9.150
 3759POPC   GL1 9193   4.306  33.765   8.850
 3759POPC   GL2 9194   4.218  33.846   8.850
 3759POPC   C1A 9195   4.367  33.812   8.550
 3759POPC   D2A 9196   4.292  33.793   8.250
 3759POPC   C3A 9197   4.314  33.818   7.950
 3759POPC   C4A 9198   4.353  33.781   7.650
 3759POPC   C1B 9199   4.125  33.849   8.550
 3759POPC   C2B 9200   4.053  33.866   8.250
 3759POPC   C3B 9201   4.090  33.928   7.950
 3759POPC   C4B 9202   4.071  33.850   7.650
 3760POPC   NC3 9203  27.634  37.689   9.450
 3760POPC   PO4 9204  27.636  37.674   9.150
 3760POPC   GL1 9205  27.572  37.634   8.850
 3760POPC   GL2 9206  27.490  37.652   8.850
 3760POPC   C1A 9207  27.627  37.722   8.550
 3760POPC   D2A 9208  27.554  37.678   8.250
 3760POPC   C3A 9209  27.545  37.716   7.950
 3760POPC   C4A 9210  27.622  37.718   7.650
 3760POPC   C1B 9211  27.368  37.604   8.550
 3760POPC   C2B 9212  27.375  37.660   8.250
 3760POPC   C3B 9213  27.329  37.593   7.950
 3760POPC   C4B 9214  27.382  37.655   7.650
 3761POPC   NC3 9215  19.859   1.227   9.450
 3761POPC   PO4 9216  19.845   1.208   9.150
 3761POPC   GL1 9217  19.867   1.241   8.850
 3761POPC   GL2 9218  19.798   1.360   8.850
 3761POPC   C1A 9219  19.813   1.242   8.550
 3761POPC   D2A 9220  19.856   1.248   8.250
 3761POPC   C3A 9221  19.810   1.225   7.950
 3761POPC   C4A 9222  19.806   1.224   7.650
 3761POPC   C1B 9223  19.667   1.433   8.550
 3761POPC   C2B 9224  19.706   1.464   8.250
 3761POPC   C3B 9225  19.724   1.417   7.950
 3761POPC   C4B 9226  19.700   1.397   7.650
 3762POPC   NC3 9227  15.930  12.124   9.450
 3762POPC   PO4 9228  15.916  12.092   9.150
 3762POPC   GL1 9229  15.928  12.043   8.850
 3762POPC   GL2 9230  15.995  11.915   8.850
 3762POPC   C1A 9231  16.001  12.079   8.550
 3762POPC   D2A 9232  15.975  12.114   8.250
 3762POPC   C3A 9233  15.930  12.116   7.950
 3762POPC   C4A 9234  15.906  12.038   7.650
 3762POPC   C1B 9235  16.039  11.850   8.550
 3762POPC   C2B 9236  16.006  11.871   8.250
 3762POPC   C3B 9237  15.991  11.827   7.950
 3762POPC   C4B 9238  15.973  11.876   7.650
 3763POPC   NC3 9239  36.864   4.310   9.450
 3763POPC   PO4 9240  36.907   4.317   9.150
 3763POPC   GL1 9241  36.910   4.333   8.850
 3763POPC   GL2 9242  36.984   4.186   8.850
 3763POPC   C1A 9243  36.858   4.315   8.550
 3763POPC   D2A 9244  36.946   4.286   8.250
 3763POPC   C3A 9245  36.916   4.288   7.950
 3763POPC   C4A 9246  36.871   4.267   7.650
 3763POPC   C1B 9247  37.049   4.114   8.550
 3763POPC   C2B 9248  37.027   4.126   8.250
 3763POPC   C3B 9249  37.101   4.154   7.950
 3763POPC   C4B 9250  37.105   4.151   7.650
 3764POPC   NC3 9251  10.489  36.128   9.450
 3764POPC   PO4 9252  10.542  36.083   9.150
 3764POPC   GL1 9253  10.513  36.090   8.850
 3764POPC   GL2 9254  10.528  36.263   8.850
 3764POPC   C1A 9255  10.492  36.120   8.550
 3764POPC   D2A 9256  10.496  36.132   8.250
 3764POPC   C3A 9257  10.506  36.161   7.950
 3764POPC   C4A 9258  10.535  36.080   7.650
 3764POPC   C1B 9259  10.552  36.405   8.550
 3764POPC   C2B 9260  10.537  36.401   8.250
 3764POPC   C3B 9261  10.540  36.356   7.950
 3764POPC   C4B 9262  10.506  36.423   7.650
 3765POPC   NC3 9263  11.253   1.195   9.450
 3765POPC   PO4 9264  11.302   1.175   9.150
 3765POPC   GL1 9265  11.272   1.231   8.850
 3765POPC   GL2 9266  11.272   1.108   8.850
 3765POPC   C1A 9267  11.278   1.174   8.550
 3765POPC   D2A 9268  11.264   1.170   8.250
 3765POPC   C3A 9269  11.295   1.184   7.950
 3765POPC   C4A 9270  11.344   1.236   7.650
 3765POPC   C1B 9271  11.214   1.000   8.550
 3765POPC   C2B 9272  11.224   1.006   8.250
 3765POPC   C3B 9273  11.200   0.933   7.950
 3765POPC   C4B 9274  11.173   1.030   7.650
 3766POPC   NC3 9275  15.177  18.255   9.450
 3766POPC   PO4 9276  15.190  18.252   9.150
 3766POPC   GL1 9277  15.165  18.270   8.850
 3766POPC   GL2 9278  15.183  18.203   8.850
 3766POPC   C1A 9279  15.218  18.300   8.550
 3766POPC   D2A 9280  15.154  18.233   8.250
 3766POPC   C3A 9281  15.193  18.248   7.950
 3766POPC   C4A 9282  15.181  18.330   7.650
 3766POPC   C1B 9283  15.091  17.998   8.550
 3766POPC   C2B 9284  15.139  18.058   8.250
 3766POPC   C3B 9285  15.185  18.018   7.950
 3766POPC   C4B 9286  15.135  18.075   7.650
 3767POPC   NC3 9287  29.945  19.018   9.450
 3767POPC   PO4 9288  29.938  19.086   9.150
 3767POPC   GL1 9289  29.924  19.013   8.850
 3767POPC   GL2 9290  29.924  18.975   8.850
 3767POPC   C1A 9291  29.903  19.038   8.550
 3767POPC   D2A 9292  29.889  19.064   8.250
 3767POPC   C3A 9293  29.928  19.088   7.950
 3767POPC   C4A 9294  29.925  19.063   7.650
 3767POPC   C1B 9295  29.864  18.827   8.550
 3767POPC   C2B 9296  29.865  18.853   8.250
 3767POPC   C3B 9297  29.823  18.783   7.950
 3767POPC   C4B 9298  29.871  18.858   7.650
 3768POPC   NC3 9299  40.024  27.555   9.450
 3768POPC   PO4 9300  39.993  27.604   9.150
 3768POPC   GL1 9301  40.050  27.609   8.850
 3768POPC   GL2 9302  39.902  27.554   8.850
 3768POPC   C1A 9303  39.997  27.580   8.550
 3768POPC   D2A 9304  40.030  27.606   8.250
 3768POPC   C3A 9305  40.056  27.637   7.950
 3768POPC   C4A 9306  40.055  27.567   7.650
 3768POPC   C1B 9307  39.741  27.583   8.550
 3768POPC   C2B 9308  39.718  27.586   8.250
 3768POPC   C3B 9309  39.761  27.552   7.950
 3768POPC   C4B 9310  39.747  27.551   7.650
 3769POPC   NC3 9311  40.043  22.138   9.450
 3769POPC   PO4 9312  39.971  22.169   9.150
 3769POPC   GL1 9313  39.983  22.202   8.850
 3769POPC   GL2 9314  40.084  22.176   8.850
 3769POPC   C1A 9315  40.044  22.206   8.550
 3769POPC   D2A 9316  40.020  22.118   8.250
 3769POPC   C3A 9317  39.998  22.129   7.950
 3769POPC   C4A 9318  39.979  22.150   7.650
 3769POPC   C1B 9319  40.287  22.136   8.550
 3769POPC   C2B 9320  40.256  22.124   8.250
 3769POPC   C3B 9321  40.220  22.138   7.950
 3769POPC   C4B 9322  40.258  22.167   7.650
 3770POPC   NC3 9323   3.532  12.090   9.450
 3770POPC   PO4 9324   3.590  12.038   9.150
 3770POPC   GL1 9325   3.504  12.106   8.850
 3770POPC   GL2 9326   3.663  12.101   8.850
 3770POPC   C1A 9327   3.581  12.058   8.550
 3770POPC   D2A 9328   3.523  12.072   8.250
 3770POPC   C3A 9329   3.533  12.036   7.950
 3770POPC   C4A 9330   3.536  12.085   7.650
 3770POPC   C1B 9331   3.728  12.180   8.550
 3770POPC   C2B 9332   3.775  12.182   8.250
 3770POPC   C3B 9333   3.772  12.203   7.950
 3770POPC   C4B 9334   3.748  12.242   7.650
 3771POPC   NC3 9335  18.296  26.836   9.450
 3771POPC   PO4 9336  18.267  26.854   9.150
 3771POPC   GL1 9337  18.238  26.826   8.850
 3771POPC   GL2 9338  18.283  26.984   8.850
 3771POPC   C1A 9339  18.255  26.821   8.550
 3771POPC   D2A 9340  18.309  26.784   8.250
 3771POPC   C3A 9341  18.235  26.797   7.950
 3771POPC   C4A 9342  18.300  26.772   7.650
 3771POPC   C1B 9343  18.314  27.007   8.550
 3771POPC   C2B 9344  18.410  27.023   8.250
 3771POPC   C3B 9345  18.350  27.032   7.950
 3771POPC   C4B 9346  18.395  27.018   7.650
 3772POPC   NC3 9347  40.025  37.672   9.450
 3772POPC   PO4 9348  39.971  37.686   9.150
 3772POPC   GL1 9349  40.008  37.666   8.850
 3772POPC   GL2 9350  40.012  37.531   8.850
 3772POPC   C1A 9351  40.034  37.724   8.550
 3772POPC   D2A 9352  39.984  37.644   8.250
 3772POPC   C3A 9353  39.967  37.719   7.950
 3772POPC   C4A 9354  39.983  37.645   7.650
 3772POPC   C1B 9355  39.986  37.456   8.550
 3772POPC   C2B 9356  40.019  37.408   8.250
 3772POPC   C3B 9357  40.032  37.479   7.950
 3772POPC   C4B 9358  40.029  37.413   7.650
 3773POPC   NC3 9359  34.588  40.001   9.450
 3773POPC   PO4 9360  34.600  40.008   9.150
 3773POPC   GL1 9361  34.560  40.030   8.850
 3773POPC   GL2 9362  34.550  40.151   8.850
 3773POPC   C1A 9363  34.605  40.043   8.550
 3773POPC   D2A 9364  34.592  40.037   8.250
 3773POPC   C3A 9365  34.550  40.010   7.950
 3773POPC   C4A 9366  34.577  39.995   7.650
 3773POPC   C1B 9367  34.592  40.213   8.550
 3773POPC   C2B 9368  34.578  40.274   8.250
 3773POPC   C3B 9369  34.580  40.270   7.950
 3773POPC   C4B 9370  34.564  40.233   7.650
 3774POPC   NC3 9371  34.599  28.364   9.450
 3774POPC   PO4 9372  34.580  28.372   9.150
 3774POPC   GL1 9373  34.532  28.346   8.850
 3774POPC   GL2 9374  34.556  28.497   8.850
 3774POPC   C1A 9375  34.527  28.354   8.550
 3774POPC   D2A 9376  34.537  28.345   8.250
 3774POPC   C3A 9377  34.594  28.388   7.950
 3774POPC   C4A 9378  34.620  28.360   7.650
 3774POPC   C1B 9379  34.562  28.573   8.550
 3774POPC   C2B 9380  34.618  28.580   8.250
 3774POPC   C3B 9381  34.614  28.637   7.950
 3774POPC   C4B 9382  34.563  28.597   7.650
 3775POPC   NC3 9383  13.589   3.518   9.450
 3775POPC   PO4 9384  13.631   3.577   9.150
 3775POPC   GL1 9385  13.582   3.521   8.850
 3775POPC   GL2 9386  13.546   3.473   8.850
 3775POPC   C1A 9387  13.588   3.580   8.550
 3775POPC   D2A 9388  13.629   3.560   8.250
 3775POPC   C3A 9389  13.589   3.547   7.950
 3775POPC   C4A 9390  13.661   3.525   7.650
 3775POPC   C1B 9391  13.440   3.452   8.550
 3775POPC   C2B 9392  13.446   3.449   8.250
 3775POPC   C3B 9393  13.372   3.462   7.950
 3775POPC   C4B 9394  13.383   3.407   7.650
 3776POPC   NC3 9395   1.256  43.884   9.450
 3776POPC   PO4 9396   1.165  43.910   9.150
 3776POPC   GL1 9397   1.263  43.872   8.850
 3776POPC   GL2 9398   1.178  43.995   8.850
 3776POPC   C1A 9399   1.178  43.931   8.550
 3776POPC   D2A 9400   1.255  43.876   8.250
 3776POPC   C3A 9401   1.232  43.887   7.950
 3776POPC   C4A 9402   1.190  43.931   7.650
 3776POPC   C1B 9403   1.126  44.104   8.550
 3776POPC   C2B 9404   1.088  44.063   8.250
 3776POPC   C3B 9405   1.103  44.059   7.950
 3776POPC   C4B 9406   1.124  44.049   7.650
 3777POPC   NC3 9407  12.819  33.790   9.450
 3777POPC   PO4 9408  12.878  33.755   9.150
 3777POPC   GL1 9409  12.824  33.796   8.850
 3777POPC   GL2 9410  12.838  33.875   8.850
 3777POPC   C1A 9411  12.852  33.833   8.550
 3777POPC   D2A 9412  12.899  33.824   8.250
 3777POPC   C3A 9413  12.829  33.840   7.950
 3777POPC   C4A 9414  12.828  33.782   7.650
 3777POPC   C1B 9415  12.781  34.016   8.550
 3777POPC   C2B 9416  12.698  34.051   8.250
 3777POPC   C3B 9417  12.760  34.068   7.950
 3777POPC   C4B 9418  12.689  34.069   7.650
 3778POPC   NC3 9419  30.728   5.080   9.450
 3778POPC   PO4 9420  30.676   5.120   9.150
 3778POPC   GL1 9421  30.719   5.096   8.850
 3778POPC   GL2 9422  30.791   5.181   8.850
 3778POPC   C1A 9423  30.741   5.101   8.550
 3778POPC   D2A 9424  30.709   5.109   8.250
 3778POPC   C3A 9425  30.661   5.138   7.950
 3778POPC   C4A 9426  30.665   5.112   7.650
 3778POPC   C1B 9427  30.840   5.345   8.550
 3778POPC   C2B 9428  30.787   5.338   8.250
 3778POPC   C3B 9429  30.794   5.279   7.950
 3778POPC   C4B 9430  30.792   5.283   7.650
 3779POPC   NC3 9431   8.199  39.979   9.450
 3779POPC   PO4 9432   8.243  40.033   9.150
 3779POPC   GL1 9433   8.175  40.007   8.850
 3779POPC   GL2 9434   8.245  40.159   8.850
 3779POPC   C1A 9435   8.223  39.972   8.550
 3779POPC   D2A 9436   8.239  39.994   8.250
 3779POPC   C3A 9437   8.187  39.970   7.950
 3779POPC   C4A 9438   8.238  39.990   7.650
 3779POPC   C1B 9439   8.276  40.191   8.550
 3779POPC   C2B 9440   8.272  40.268   8.250
 3779POPC   C3B 9441   8.264  40.267   7.950
 3779POPC   C4B 9442   8.301  40.251   7.650
 3780POPC   NC3 9443   4.304  21.357   9.450
 3780POPC   PO4 9444   4.334  21.408   9.150
 3780POPC   GL1 9445   4.336  21.391   8.850
 3780POPC   GL2 9446   4.370  21.532   8.850
 3780POPC   C1A 9447   4.302  21.350   8.550
 3780POPC   D2A 9448   4.293  21.422   8.250
 3780POPC   C3A 9449   4.287  21.390   7.950
 3780POPC   C4A 9450   4.298  21.353   7.650
 3780POPC   C1B 9451   4.373  21.645   8.550
 3780POPC   C2B 9452   4.335  21.648   8.250
 3780POPC   C3B 9453   4.327  21.640   7.950
 3780POPC   C4B 9454   4.322  21.650   7.650
 3781POPC   NC3 9455   3.569  25.220   9.450
 3781POPC   PO4 9456   3.548  25.264   9.150
 3781POPC   GL1 9457   3.546  25.248   8.850
 3781POPC   GL2 9458   3.593  25.378   8.850
 3781POPC   C1A 9459   3.525  25.235   8.550
 3781POPC   D2A 9460   3.567  25.223   8.250
 3781POPC   C3A 9461   3.496  25.243   7.950
 3781POPC   C4A 9462   3.506  25.253   7.650
 3781POPC   C1B 9463   3.704  25.487   8.550
 3781POPC   C2B 9464   3.637  25.471   8.250
 3781POPC   C3B 9465   3.702  25.486   7.950
 3781POPC   C4B 9466   3.719  25.517   7.650
 3782POPC   NC3 9467  21.370   2.024   9.450
 3782POPC   PO4 9468  21.340   1.974   9.150
 3782POPC   GL1 9469  21.373   2.003   8.850
 3782POPC   GL2 9470  21.431   1.888   8.850
 3782POPC   C1A 9471  21.402   2.014   8.550
 3782POPC   D2A 9472  21.385   1.960   8.250
 3782POPC   C3A 9473  21.374   1.984   7.950
 3782POPC   C4A 9474  21.340   1.972   7.650
 3782POPC   C1B 9475  21.378   1.757   8.550
 3782POPC   C2B 9476  21.404   1.721   8.250
 3782POPC   C3B 9477  21.366   1.734   7.950
 3782POPC   C4B 9478  21.461   1.693   7.650
 3783POPC   NC3 9479  22.207   8.244   9.450
 3783POPC   PO4 9480  22.155   8.153   9.150
 3783POPC   GL1 9481  22.181   8.199   8.850
 3783POPC   GL2 9482  22.187   8.118   8.850
 3783POPC   C1A 9483  22.147   8.169   8.550
 3783POPC   D2A 9484  22.208   8.173   8.250
 3783POPC   C3A 9485  22.121   8.239   7.950
 3783POPC   C4A 9486  22.191   8.180   7.650
 3783POPC   C1B 9487  22.236   7.956   8.550
 3783POPC   C2B 9488  22.255   7.951   8.250
 3783POPC   C3B 9489  22.215   7.983   7.950
 3783POPC   C4B 9490  22.253   7.964   7.650
 3784POPC   NC3 9491  44.664   4.351   9.450
 3784POPC   PO4 9492  44.620   4.290   9.150
 3784POPC   GL1 9493  44.656   4.271   8.850
 3784POPC   GL2 9494  44.540   4.382   8.850
 3784POPC   C1A 9495  44.627   4.342   8.550
 3784POPC   D2A 9496  44.633   4.276   8.250
 3784POPC   C3A 9497  44.665   4.268   7.950
 3784POPC   C4A 9498  44.636   4.278   7.650
 3784POPC   C1B 9499  44.510   4.524   8.550
 3784POPC   C2B 9500  44.504   4.499   8.250
 3784POPC   C3B 9501  44.425   4.490   7.950
 3784POPC   C4B 9502  44.497   4.519   7.650
 3785POPC   NC3 9503  34.622  26.000   9.450
 3785POPC   PO4 9504  34.588  26.060   9.150
 3785POPC   GL1 9505  34.567  26.081   8.850
 3785POPC   GL2 9506  34.486  25.973   8.850
 3785POPC   C1A 9507  34.564  26.011   8.550
 3785POPC   D2A 9508  34.617  26.027   8.250
 3785POPC   C3A 9509  34.543  25.993   7.950
 3785POPC   C4A 9510  34.577  26.006   7.650
 3785POPC   C1B 9511  34.336  25.963   8.550
 3785POPC   C2B 9512  34.337  26.000   8.250
 3785POPC   C3B 9513  34.365  25.966   7.950
 3785POPC   C4B 9514  34.301  26.001   7.650
 3786POPC   NC3 9515   2.812  18.250   9.450
 3786POPC   PO4 9516   2.793  18.296   9.150
 3786POPC   GL1 9517   2.778  18.261   8.850
 3786POPC   GL2 9518   2.690  18.161   8.850
 3786POPC   C1A 9519   2.770  18.313   8.550
 3786POPC   D2A 9520   2.814  18.243   8.250
 3786POPC   C3A 9521   2.775  18.320   7.950
 3786POPC   C4A 9522   2.767  18.286   7.650
 3786POPC   C1B 9523   2.643  18.056   8.550
 3786POPC   C2B 9524   2.636  18.064   8.250
 3786POPC   C3B 9525   2.651  18.097   7.950
 3786POPC   C4B 9526   2.701  18.040   7.650
 3787POPC   NC3 9527  29.950   4.314   9.450
 3787POPC   PO4 9528  29.931   4.333   9.150
 3787POPC   GL1 9529  29.934   4.366   8.850
 3787POPC   GL2 9530  29.826   4.357   8.850
 3787POPC   C1A 9531  29.896   4.277   8.550
 3787POPC   D2A 9532  29.942   4.363   8.250
 3787POPC   C3A 9533  29.921   4.329   7.950
 3787POPC   C4A 9534  29.967   4.343   7.650
 3787POPC   C1B 9535  29.708   4.355   8.550
 3787POPC   C2B 9536  29.727   4.433   8.250
 3787POPC   C3B 9537  29.644   4.442   7.950
 3787POPC   C4B 9538  29.670   4.376   7.650
 3788POPC   NC3 9539  29.932  19.814   9.450
 3788POPC   PO4 9540  29.913  19.806   9.150
 3788POPC   GL1 9541  29.882  19.813   8.850
 3788POPC   GL2 9542  29.778  19.823   8.850
 3788POPC   C1A 9543  29.947  19.791   8.550
 3788POPC   D2A 9544  29.896  19.835   8.250
 3788POPC   C3A 9545  29.929  19.808   7.950
 3788POPC   C4A 9546  29.892  19.878   7.650
 3788POPC   C1B 9547  29.713  19.782   8.550
 3788POPC   C2B 9548  29.716  19.846   8.250
 3788POPC   C3B 9549  29.662  19.835   7.950
 3788POPC   C4B 9550  29.634  19.855   7.650
 3789POPC   NC3 9551   2.749  12.064   9.450
 3789POPC   PO4 9552   2.808  12.047   9.150
 3789POPC   GL1 9553   2.810  12.122   8.850
 3789POPC   GL2 9554   2.820  12.184   8.850
 3789POPC   C1A 9555   2.730  12.100   8.550
 3789POPC   D2A 9556   2.808  12.046   8.250
 3789POPC   C3A 9557   2.753  12.035   7.950
 3789POPC   C4A 9558   2.740  12.044   7.650
 3789POPC   C1B 9559   2.910  12.225   8.550
 3789POPC   C2B 9560   2.966  12.300   8.250
 3789POPC   C3B 9561   2.939  12.287   7.950
 3789POPC   C4B 9562   2.912  12.226   7.650
 3790POPC   NC3 9563  43.118  37.711   9.450
 3790POPC   PO4 9564  43.137  37.640   9.150
 3790POPC   GL1 9565  43.065  37.662   8.850
 3790POPC   GL2 9566  43.048  37.709   8.850
 3790POPC   C1A 9567  43.087  37.727   8.550
 3790POPC   D2A 9568  43.138  37.667   8.250
 3790POPC   C3A 9569  43.128  37.661   7.950
 3790POPC   C4A 9570  43.113  37.695   7.650
 3790POPC   C1B 9571  42.914  37.857   8.550
 3790POPC   C2B 9572  42.917  37.791   8.250
 3790POPC   C3B 9573  42.863  37.846   7.950
 3790POPC   C4B 9574  42.894  37.788   7.650
 3791POPC   NC3 9575   3.518  41.606   9.450
 3791POPC   PO4 9576   3.493  41.571   9.150
 3791POPC   GL1 9577   3.523  41.539   8.850
 3791POPC   GL2 9578   3.698  41.546   8.850
 3791POPC   C1A 9579   3.579  41.584   8.550
 3791POPC   D2A 9580   3.531  41.569   8.250
 3791POPC   C3A 9581   3.531  41.582   7.950
 3791POPC   C4A 9582   3.557  41.522   7.650
 3791POPC   C1B 9583   3.759  41.503   8.550
 3791POPC   C2B 9584   3.803  41.566   8.250
 3791POPC   C3B 9585   3.770  41.571   7.950
 3791POPC   C4B 9586   3.786  41.597   7.650
 3792POPC   NC3 9587  15.955  36.103   9.450
 3792POPC   PO4 9588  15.915  36.163   9.150
 3792POPC   GL1 9589  15.968  36.138   8.850
 3792POPC   GL2 9590  16.108  36.230   8.850
 3792POPC   C1A 9591  15.994  36.122   8.550
 3792POPC   D2A 9592  15.991  36.141   8.250
 3792POPC   C3A 9593  15.956  36.097   7.950
 3792POPC   C4A 9594  15.999  36.172   7.650
 3792POPC   C1B 9595  16.170  36.213   8.550
 3792POPC   C2B 9596  16.191  36.222   8.250
 3792POPC   C3B 9597  16.206  36.271   7.950
 3792POPC   C4B 9598  16.221  36.190   7.650
 3793POPC   NC3 9599   4.308  43.881   9.450
 3793POPC   PO4 9600   4.356  43.869   9.150
 3793POPC   GL1 9601   4.324  43.868   8.850
 3793POPC   GL2 9602   4.417  43.923   8.850
 3793POPC   C1A 9603   4.269  43.854   8.550
 3793POPC   D2A 9604   4.352  43.875   8.250
 3793POPC   C3A 9605   4.349  43.849   7.950
 3793POPC   C4A 9606   4.358  43.900   7.650
 3793POPC   C1B 9607   4.537  43.892   8.550
 3793POPC   C2B 9608   4.544  43.928   8.250
 3793POPC   C3B 9609   4.607  43.946   7.950
 3793POPC   C4B 9610   4.604  43.935   7.650
 3794POPC   NC3 9611  27.602  17.524   9.450
 3794POPC   PO4 9612  27.544  17.551   9.150
 3794POPC   GL1 9613  27.576  17.467   8.850
 3794POPC   GL2 9614  27.731  17.396   8.850
 3794POPC   C1A 9615  27.549  17.512   8.550
 3794POPC   D2A 9616  27.550  17.491   8.250
 3794POPC   C3A 9617  27.546  17.525   7.950
 3794POPC   C4A 9618  27.632  17.522   7.650
 3794POPC   C1B 9619  27.796  17.349   8.550
 3794POPC   C2B 9620  27.773  17.348   8.250
 3794POPC   C3B 9621  27.805  17.375   7.950
 3794POPC   C4B 9622  27.769  17.389   7.650
 3795POPC   NC3 9623  33.027  22.947   9.450
 3795POPC   PO4 9624  32.989  22.956   9.150
 3795POPC   GL1 9625  32.999  22.917   8.850
 3795POPC   GL2 9626  32.868  22.890   8.850
 3795POPC   C1A 9627  33.020  22.925   8.550
 3795POPC   D2A 9628  33.070  22.935   8.250
 3795POPC   C3A 9629  33.018  22.981   7.950
 3795POPC   C4A 9630  33.053  22.974   7.650
 3795POPC   C1B 9631  32.810  22.921   8.550
 3795POPC   C2B 9632  32.818  22.897   8.250
 3795POPC   C3B 9633  32.748  22.868   7.950
 3795POPC   C4B 9634  32.768  22.865   7.650
 3796POPC   NC3 9635  28.398  22.965   9.450
 3796POPC   PO4 9636  28.360  22.941   9.150
 3796POPC   GL1 9637  28.327  22.927   8.850
 3796POPC   GL2 9638  28.259  22.891   8.850
 3796POPC   C1A 9639  28.336  22.983   8.550
 3796POPC   D2A 9640  28.342  22.959   8.250
 3796POPC   C3A 9641  28.374  22.956   7.950
 3796POPC   C4A 9642  28.412  22.904   7.650
 3796POPC   C1B 9643  28.228  22.723   8.550
 3796POPC   C2B 9644  28.169  22.794   8.250
 3796POPC   C3B 9645  28.195  22.808   7.950
 3796POPC   C4B 9646  28.166  22.799   7.650
 3797POPC   NC3 9647   7.404  31.477   9.450
 3797POPC   PO4 9648   7.396  31.445   9.150
 3797POPC   GL1 9649   7.381  31.475   8.850
 3797POPC   GL2 9650   7.325  31.525   8.850
 3797POPC   C1A 9651   7.401  31.432   8.550
 3797POPC   D2A 9652   7.435  31.462   8.250
 3797POPC   C3A 9653   7.421  31.470   7.950
 3797POPC   C4A 9654   7.413  31.460   7.650
 3797POPC   C1B 9655   7.210  31.673   8.550
 3797POPC   C2B 9656   7.261  31.605   8.250
 3797POPC   C3B 9657   7.253  31.612   7.950
 3797POPC   C4B 9658   7.245  31.682   7.650
 3798POPC   NC3 9659   5.139  33.031   9.450
 3798POPC   PO4 9660   5.098  32.995   9.150
 3798POPC   GL1 9661   5.096  33.000   8.850
 3798POPC   GL2 9662   5.019  32.939   8.850
 3798POPC   C1A 9663   5.055  33.007   8.550
 3798POPC   D2A 9664   5.114  33.066   8.250
 3798POPC   C3A 9665   5.111  32.977   7.950
 3798POPC   C4A 9666   5.095  33.070   7.650
 3798POPC   C1B 9667   5.015  32.779   8.550
 3798POPC   C2B 9668   4.957  32.759   8.250
 3798POPC   C3B 9669   4.963  32.847   7.950
 3798POPC   C4B 9670   4.975  32.786   7.650
 3799POPC   NC3 9671  12.082  22.120   9.450
 3799POPC   PO4 9672  12.034  22.138   9.150
 3799POPC   GL1 9673  12.052  22.209   8.850
 3799POPC   GL2 9674  12.128  22.245   8.850
 3799POPC   C1A 9675  12.048  22.153   8.550
 3799POPC   D2A 9676  12.102  22.115   8.250
 3799POPC   C3A 9677  12.069  22.136   7.950
 3799POPC   C4A 9678  12.123  22.189   7.650
 3799POPC   C1B 9679  12.216  22.357   8.550
 3799POPC   C2B 9680  12.225  22.380   8.250
 3799POPC   C3B 9681  12.258  22.319   7.950
 3799POPC   C4B 9682  12.205  22.307   7.650
 3800POPC   NC3 9683  31.511   3.505   9.450
 3800POPC   PO4 9684  31.459   3.509   9.150
 3800POPC   GL1 9685  31.447   3.531   8.850
 3800POPC   GL2 9686  31.406   3.471   8.850
 3800POPC   C1A 9687  31.472   3.544   8.550
 3800POPC   D2A 9688  31.493   3.524   8.250
 3800POPC   C3A 9689  31.472   3.572   7.950
 3800POPC   C4A 9690  31.509   3.520   7.650
 3800POPC   C1B 9691  31.280   3.339   8.550
 3800POPC   C2B 9692  31.319   3.351   8.250
 3800POPC   C3B 9693  31.246   3.394   7.950
 3800POPC   C4B 9694  31.302   3.331   7.650
 3801POPC   NC3 9695  36.859  29.143   9.450
 3801POPC   PO4 9696  36.871  29.127   9.150
 3801POPC   GL1 9697  36.891  29.194   8.850
 3801POPC   GL2 9698  36.846  29.311   8.850
 3801POPC   C1A 9699  36.892  29.163   8.550
 3801POPC   D2A 9700  36.911  29.113   8.250
 3801POPC   C3A 9701  36.909  29.122   7.950
 3801POPC   C4A 9702  36.939  29.159   7.650
 3801POPC   C1B 9703  36.811  29.403   8.550
 3801POPC   C2B 9704  36.863  29.336   8.250
 3801POPC   C3B 9705  36.783  29.398   7.950
 3801POPC   C4B 9706  36.803  29.416   7.650
 3802POPC   NC3 9707  29.162  22.971   9.450
 3802POPC   PO4 9708  29.187  22.978   9.150
 3802POPC   GL1 9709  29.101  22.912   8.850
 3802POPC   GL2 9710  29.232  22.803   8.850
 3802POPC   C1A 9711  29.126  22.943   8.550
 3802POPC   D2A 9712  29.192  22.918   8.250
 3802POPC   C3A 9713  29.156  22.967   7.950
 3802POPC   C4A 9714  29.177  22.904   7.650
 3802POPC   C1B 9715  29.253  22.753   8.550
 3802POPC   C2B 9716  29.244  22.700   8.250
 3802POPC   C3B 9717  29.291  22.723   7.950
 3802POPC   C4B 9718  29.239  22.707   7.650
 3803POPC   NC3 9719  40.741   7.435   9.450
 3803POPC   PO4 9720  40.820   7.384   9.150
 3803POPC   GL1 9721  40.768   7.380   8.850
 3803POPC   GL2 9722  40.904   7.416   8.850
 3803POPC   C1A 9723  40.774   7.382   8.550
 3803POPC   D2A 9724  40.789   7.447   8.250
 3803POPC   C3A 9725  40.819   7.371   7.950
 3803POPC   C4A 9726  40.766   7.377   7.650
 3803POPC   C1B 9727  40.981   7.371   8.550
 3803POPC   C2B 9728  41.042   7.386   8.250
 3803POPC   C3B 9729  41.006   7.329   7.950
 3803POPC   C4B 9730  41.051   7.411   7.650
 3804POPC   NC3 9731  37.729  16.773   9.450
 3804POPC   PO4 9732  37.692  16.710   9.150
 3804POPC   GL1 9733  37.691  16.720   8.850
 3804POPC   GL2 9734  37.643  16.564   8.850
 3804POPC   C1A 9735  37.638  16.725   8.550
 3804POPC   D2A 9736  37.682  16.762   8.250
 3804POPC   C3A 9737  37.684  16.692   7.950
 3804POPC   C4A 9738  37.674  16.716   7.650
 3804POPC   C1B 9739  37.606  16.500   8.550
 3804POPC   C2B 9740  37.600  16.489   8.250
 3804POPC   C3B 9741  37.652  16.530   7.950
 3804POPC   C4B 9742  37.602  16.477   7.650
 3805POPC   NC3 9743  21.399  43.887   9.450
 3805POPC   PO4 9744  21.428  43.894   9.150
 3805POPC   GL1 9745  21.376  43.881   8.850
 3805POPC   GL2 9746  21.293  43.858   8.850
 3805POPC   C1A 9747  21.433  43.845   8.550
 3805POPC   D2A 9748  21.388  43.862   8.250
 3805POPC   C3A 9749  21.342  43.932   7.950
 3805POPC   C4A 9750  21.392  43.841   7.650
 3805POPC   C1B 9751  21.212  43.747   8.550
 3805POPC   C2B 9752  21.221  43.756   8.250
 3805POPC   C3B 9753  21.221  43.764   7.950
 3805POPC   C4B 9754  21.152  43.783   7.650
 3806POPC   NC3 9755  42.364  15.140   9.450
 3806POPC   PO4 9756  42.341  15.167   9.150
 3806POPC   GL1 9757  42.325  15.201   8.850
 3806POPC   GL2 9758  42.441  15.101   8.850
 3806POPC   C1A 9759  42.299  15.214   8.550
 3806POPC   D2A 9760  42.370  15.131   8.250
 3806POPC   C3A 9761  42.372  15.191   7.950
 3806POPC   C4A 9762  42.368  15.200   7.650
 3806POPC   C1B 9763  42.468  14.985   8.550
 3806POPC   C2B 9764  42.508  15.027   8.250
 3806POPC   C3B 9765  42.471  15.019   7.950
 3806POPC   C4B 9766  42.494  14.994   7.650
 3807POPC   NC3 9767  44.682  26.851   9.450
 3807POPC   PO4 9768  44.647  26.825   9.150
 3807POPC   GL1 9769  44.641  26.859   8.850
 3807POPC   GL2 9770  44.695  26.933   8.850
 3807POPC   C1A 9771  44.627  26.819   8.550
 3807POPC   D2A 9772  44.633  26.768   8.250
 3807POPC   C3A 9773  44.640  26.775   7.950
 3807POPC   C4A 9774  44.659  26.852   7.650
 3807POPC   C1B 9775  44.755  27.056   8.550
 3807POPC   C2B 9776  44.751  27.032   8.250
 3807POPC   C3B 9777  44.807  27.090   7.950
 3807POPC   C4B 9778  44.795  27.014   7.650
 3808POPC   NC3 9779  16.001  39.243   9.450
 3808POPC   PO4 9780  15.922  39.246   9.150
 3808POPC   GL1 9781  15.934  39.187   8.850
 3808POPC   GL2 9782  15.990  39.104   8.850
 3808POPC   C1A 9783  15.995  39.229   8.550
 3808POPC   D2A 9784  15.946  39.221   8.250
 3808POPC   C3A 9785  15.936  39.252   7.950
 3808POPC   C4A 9786  15.959  39.225   7.650
 3808POPC   C1B 9787  16.081  39.046   8.550
 3808POPC   C2B 9788  16.010  39.008   8.250
 3808POPC   C3B 9789  16.076  38.995   7.950
 3808POPC   C4B 9790  16.057  38.975   7.650
 3809POPC   NC3 9791  26.807  26.853   9.450
 3809POPC   PO4 9792  26.805  26.861   9.150
 3809POPC   GL1 9793  26.780  26.798   8.850
 3809POPC   GL2 9794  26.790  26.666   8.850
 3809POPC   C1A 9795  26.844  26.807   8.550
 3809POPC   D2A 9796  26.814  26.803   8.250
 3809POPC   C3A 9797  26.778  26.855   7.950
 3809POPC   C4A 9798  26.863  26.781   7.650
 3809POPC   C1B 9799  26.679  26.572   8.550
 3809POPC   C2B 9800  26.719  26.651   8.250
 3809POPC   C3B 9801  26.664  26.598   7.950
 3809POPC   C4B 9802  26.712  26.623   7.650
 3810POPC   NC3 9803   4.291  30.746   9.450
 3810POPC   PO4 9804   4.292  30.720   9.150
 3810POPC   GL1 9805   4.335  30.746   8.850
 3810POPC   GL2 9806   4.219  30.609   8.850
 3810POPC   C1A 9807   4.366  30.684   8.550
 3810POPC   D2A 9808   4.354  30.664   8.250
 3810POPC   C3A 9809   4.317  30.705   7.950
 3810POPC   C4A 9810   4.283  30.679   7.650
 3810POPC   C1B 9811   4.073  30.639   8.550
 3810POPC   C2B 9812   4.083  30.551   8.250
 3810POPC   C3B 9813   4.090  30.582   7.950
 3810POPC   C4B 9814   4.131  30.569   7.650
 3811POPC   NC3 9815   5.129   1.201   9.450
 3811POPC   PO4 9816   5.093   1.207   9.150
 3811POPC   GL1 9817   5.096   1.167   8.850
 3811POPC   GL2 9818   5.175   1.186   8.850
 3811POPC   C1A 9819   5.053   1.214   8.550
 3811POPC   D2A 9820   5.092   1.173   8.250
 3811POPC   C3A 9821   5.068   1.184   7.950
 3811POPC   C4A 9822   5.135   1.212   7.650
 3811POPC   C1B 9823   5.333   1.047   8.550
 3811POPC   C2B 9824   5.283   1.074   8.250
 3811POPC   C3B 9825   5.317   1.054   7.950
 3811POPC   C4B 9826   5.259   1.096   7.650
 3812POPC   NC3 9827  41.514  14.434   9.450
 3812POPC   PO4 9828  41.547  14.436   9.150
 3812POPC   GL1 9829  41.557  14.374   8.850
 3812POPC   GL2 9830  41.503  14.491   8.850
 3812POPC   C1A 9831  41.562  14.426   8.550
 3812POPC   D2A 9832  41.584  14.426   8.250
 3812POPC   C3A 9833  41.544  14.435   7.950
 3812POPC   C4A 9834  41.563  14.380   7.650
 3812POPC   C1B 9835  41.538  14.613   8.550
 3812POPC   C2B 9836  41.509  14.619   8.250
 3812POPC   C3B 9837  41.535  14.606   7.950
 3812POPC   C4B 9838  41.477  14.599   7.650
 3813POPC   NC3 9839  10.493  20.650   9.450
 3813POPC   PO4 9840  10.552  20.620   9.150
 3813POPC   GL1 9841  10.479  20.648   8.850
 3813POPC   GL2 9842  10.435  20.501   8.850
 3813POPC   C1A 9843  10.543  20.588   8.550
 3813POPC   D2A 9844  10.494  20.631   8.250
 3813POPC   C3A 9845  10.482  20.658   7.950
 3813POPC   C4A 9846  10.500  20.598   7.650
 3813POPC   C1B 9847  10.448  20.340   8.550
 3813POPC   C2B 9848  10.410  20.380   8.250
 3813POPC   C3B 9849  10.473  20.364   7.950
 3813POPC   C4B 9850  10.399  20.413   7.650
 3814POPC   NC3 9851  15.982  29.167   9.450
 3814POPC   PO4 9852  15.941  29.112   9.150
 3814POPC   GL1 9853  15.959  29.113   8.850
 3814POPC   GL2 9854  15.924  29.002   8.850
 3814POPC   C1A 9855  15.960  29.191   8.550
 3814POPC   D2A 9856  15.956  29.170   8.250
 3814POPC   C3A 9857  15.932  29.146   7.950
 3814POPC   C4A 9858  15.945  29.131   7.650
 3814POPC   C1B 9859  15.989  28.851   8.550
 3814POPC   C2B 9860  15.943  28.931   8.250
 3814POPC   C3B 9861  15.966  28.913   7.950
 3814POPC   C4B 9862  16.009  28.911   7.650
 3815POPC   NC3 9863   5.890   2.019   9.450
 3815POPC   PO4 9864   5.884   2.022   9.150
 3815POPC   GL1 9865   5.850   2.005   8.850
 3815POPC   GL2 9866   5.822   2.139   8.850
 3815POPC   C1A 9867   5.849   1.957   8.550
 3815POPC   D2A 9868   5.856   2.020   8.250
 3815POPC   C3A 9869   5.834   2.018   7.950
 3815POPC   C4A 9870   5.880   2.017   7.650
 3815POPC   C1B 9871   5.794   2.204   8.550
 3815POPC   C2B 9872   5.741   2.189   8.250
 3815POPC   C3B 9873   5.730   2.185   7.950
 3815POPC   C4B 9874   5.783   2.221   7.650
 3816POPC   NC3 9875  20.561  36.165   9.450
 3816POPC   PO4 9876  20.609  36.146   9.150
 3816POPC   GL1 9877  20.567  36.114   8.850
 3816POPC   GL2 9878  20.552  36.202   8.850
 3816POPC   C1A 9879  20.564  36.169   8.550
 3816POPC   D2A 9880  20.602  36.104   8.250
 3816POPC   C3A 9881  20.607  36.141   7.950
 3816POPC   C4A 9882  20.563  36.095   7.650
 3816POPC   C1B 9883  20.503  36.416   8.550
 3816POPC   C2B 9884  20.559  36.329   8.250
 3816POPC   C3B 9885  20.575  36.360   7.950
 3816POPC   C4B 9886  20.581  36.416   7.650
 3817POPC   NC3 9887  41.524  33.807   9.450
 3817POPC   PO4 9888  41.582  33.765   9.150
 3817POPC   GL1 9889  41.550  33.778   8.850
 3817POPC   GL2 9890  41.654  33.821   8.850
 3817POPC   C1A 9891  41.533  33.798   8.550
 3817POPC   D2A 9892  41.589  33.797   8.250
 3817POPC   C3A 9893  41.580  33.829   7.950
 3817POPC   C4A 9894  41.533  33.817   7.650
 3817POPC   C1B 9895  41.756  33.871   8.550
 3817POPC   C2B 9896  41.768  33.856   8.250
 3817POPC   C3B 9897  41.807  33.881   7.950
 3817POPC   C4B 9898  41.829  33.855   7.650
 3818POPC   NC3 9899  40.048  29.902   9.450
 3818POPC   PO4 9900  40.028  29.878   9.150
 3818POPC   GL1 9901  40.053  29.902   8.850
 3818POPC   GL2 9902  40.088  29.842   8.850
 3818POPC   C1A 9903  40.053  29.951   8.550
 3818POPC   D2A 9904  39.991  29.938   8.250
 3818POPC   C3A 9905  40.026  29.934   7.950
 3818POPC   C4A 9906  39.960  29.954   7.650
 3818POPC   C1B 9907  40.192  29.756   8.550
 3818POPC   C2B 9908  40.186  29.760   8.250
 3818POPC   C3B 9909  40.138  29.743   7.950
 3818POPC   C4B 9910  40.186  29.744   7.650
 3819POPC   NC3 9911   3.547   0.476   9.450
 3819POPC   PO4 9912   3.554   0.449   9.150
 3819POPC   GL1 9913   3.500   0.429   8.850
 3819POPC   GL2 9914   3.447   0.549   8.850
 3819POPC   C1A 9915   3.572   0.411   8.550
 3819POPC   D2A 9916   3.533   0.456   8.250
 3819POPC   C3A 9917   3.587   0.449   7.950
 3819POPC   C4A 9918   3.513   0.473   7.650
 3819POPC   C1B 9919   3.377   0.650   8.550
 3819POPC   C2B 9920   3.341   0.560   8.250
 3819POPC   C3B 9921   3.363   0.640   7.950
 3819POPC   C4B 9922   3.353   0.591   7.650
 3820POPC   NC3 9923  33.802  42.373   9.450
 3820POPC   PO4 9924  33.812  42.363   9.150
 3820POPC   GL1 9925  33.784  42.286   8.850
 3820POPC   GL2 9926  33.770  42.184   8.850
 3820POPC   C1A 9927  33.803  42.316   8.550
 3820POPC   D2A 9928  33.837  42.369   8.250
 3820POPC   C3A 9929  33.810  42.316   7.950
 3820POPC   C4A 9930  33.813  42.365   7.650
 3820POPC   C1B 9931  33.819  42.094   8.550
 3820POPC   C2B 9932  33.827  42.094   8.250
 3820POPC   C3B 9933  33.787  42.076   7.950
 3820POPC   C4B 9934  33.825  42.102   7.650
 3821POPC   NC3 9935   8.960  42.314   9.450
 3821POPC   PO4 9936   9.018  42.291   9.150
 3821POPC   GL1 9937   8.953  42.360   8.850
 3821POPC   GL2 9938   8.908  42.390   8.850
 3821POPC   C1A 9939   8.966  42.333   8.550
 3821POPC   D2A 9940   8.951  42.346   8.250
 3821POPC   C3A 9941   8.926  42.297   7.950
 3821POPC   C4A 9942   8.959  42.311   7.650
 3821POPC   C1B 9943   8.723  42.498   8.550
 3821POPC   C2B 9944   8.706  42.497   8.250
 3821POPC   C3B 9945   8.762  42.441   7.950
 3821POPC   C4B 9946   8.716  42.421   7.650
 3822POPC   NC3 9947  42.299  26.066   9.450
 3822POPC   PO4 9948  42.351  26.031   9.150
 3822POPC   GL1 9949  42.311  26.084   8.850
 3822POPC   GL2 9950  42.269  26.204   8.850
 3822POPC   C1A 9951  42.367  26.037   8.550
 3822POPC   D2A 9952  42.366  26.088   8.250
 3822POPC   C3A 9953  42.330  26.060   7.950
 3822POPC   C4A 9954  42.323  26.078   7.650
 3822POPC   C1B 9955  42.209  26.294   8.550
 3822POPC   C2B 9956  42.201  26.265   8.250
 3822POPC   C3B 9957  42.219  26.264   7.950
 3822POPC   C4B 9958  42.196  26.280   7.650
 3823POPC   NC3 9959   9.782   6.615   9.450
 3823POPC   PO4 9960   9.784   6.633   9.150
 3823POPC   GL1 9961   9.750   6.665   8.850
 3823POPC   GL2 9962   9.822   6.671   8.850
 3823POPC   C1A 9963   9.780   6.692   8.550
 3823POPC   D2A 9964   9.720   6.654   8.250
 3823POPC   C3A 9965   9.781   6.692   7.950
 3823POPC   C4A 9966   9.713   6.597   7.650
 3823POPC   C1B 9967   9.927   6.764   8.550
 3823POPC   C2B 9968   9.983   6.792   8.250
 3823POPC   C3B 9969   9.935   6.786   7.950
 3823POPC   C4B 9970   9.967   6.810   7.650
 3824POPC   NC3 9971  28.349  10.544   9.450
 3824POPC   PO4 9972  28.358  10.489   9.150
 3824POPC   GL1 9973  28.411  10.502   8.850
 3824POPC   GL2 9974  28.374  10.351   8.850
 3824POPC   C1A 9975  28.342  10.571   8.550
 3824POPC   D2A 9976  28.380  10.494   8.250
 3824POPC   C3A 9977  28.390  10.495   7.950
 3824POPC   C4A 9978  28.340  10.541   7.650
 3824POPC   C1B 9979  28.351  10.284   8.550
 3824POPC   C2B 9980  28.364  10.295   8.250
 3824POPC   C3B 9981  28.361  10.270   7.950
 3824POPC   C4B 9982  28.382  10.303   7.650
 3825POPC   NC3 9983  37.641   6.638   9.450
 3825POPC   PO4 9984  37.683   6.647   9.150
 3825POPC   GL1 9985  37.658   6.611   8.850
 3825POPC   GL2 9986  37.684   6.491   8.850
 3825POPC   C1A 9987  37.632   6.691   8.550
 3825POPC   D2A 9988  37.647   6.638   8.250
 3825POPC   C3A 9989  37.670   6.609   7.950
 3825POPC   C4A 9990  37.664   6.677   7.650
 3825POPC   C1B 9991  37.626   6.434   8.550
 3825POPC   C2B 9992  37.625   6.433   8.250
 3825POPC   C3B 9993  37.565   6.430   7.950
 3825POPC   C4B 9994  37.638   6.389   7.650
 3826POPC   NC3 9995  22.129  11.336   9.450
 3826POPC   PO4 9996  22.149  11.350   9.150
 3826POPC   GL1 9997  22.208  11.346   8.850
 3826POPC   GL2 9998  22.010  11.362   8.850
 3826POPC   C1A 9999  22.134  11.251   8.550
 3826POPC   D2A10000  22.133  11.284   8.250
 3826POPC   C3A10001  22.152  11.263   7.950
 3826POPC   C4A10002  22.184  11.288   7.650
 3826POPC   C1B10003  21.971  11.384   8.550
 3826POPC   C2B10004  21.901  11.344   8.250
 3826POPC   C3B10005  21.963  11.393   7.950
 3826POPC   C4B10006  21.951  11.363   7.650
 3827POPC   NC310007  31.515  20.596   9.450
 3827POPC   PO410008  31.504  20.624   9.150
 3827POPC   GL110009  31.442  20.596   8.850
 3827POPC   GL210010  31.548  20.483   8.850
 3827POPC   C1A10011  31.427  20.594   8.550
 3827POPC   D2A10012  31.448  20.603   8.250
 3827POPC   C3A10013  31.491  20.605   7.950
 3827POPC   C4A10014  31.426  20.630   7.650
 3827POPC   C1B10015  31.588  20.344   8.550
 3827POPC   C2B10016  31.551  20.414   8.250
 3827POPC   C3B10017  31.557  20.332   7.950
 3827POPC   C4B10018  31.578  20.422   7.650
 3828POPC   NC310019   2.025  27.624   9.450
 3828POPC   PO410020   2.038  27.626   9.150
 3828POPC   GL110021   1.970  27.591   8.850
 3828POPC   GL210022   2.083  27.656   8.850
 3828POPC   C1A10023   2.019  27.559   8.550
 3828POPC   D2A10024   1.944  27.582   8.250
 3828POPC   C3A10025   1.975  27.591   7.950
 3828POPC   C4A10026   1.985  27.615   7.650
 3828POPC   C1B10027   2.130  27.799   8.550
 3828POPC   C2B10028   2.127  27.799   8.250
 3828POPC   C3B10029   2.126  27.828   7.950
 3828POPC   C4B10030   2.175  27.827   7.650
 3829POPC   NC310031  29.121  43.920   9.450
 3829POPC   PO410032  29.147  43.857   9.150
 3829POPC   GL110033  29.182  43.910   8.850
 3829POPC   GL210034  29.304  43.922   8.850
 3829POPC   C1A10035  29.140  43.927   8.550
 3829POPC   D2A10036  29.149  43.869   8.250
 3829POPC   C3A10037  29.123  43.855   7.950
 3829POPC   C4A10038  29.148  43.864   7.650
 3829POPC   C1B10039  29.411  43.882   8.550
 3829POPC   C2B10040  29.421  43.882   8.250
 3829POPC   C3B10041  29.413  43.874   7.950
 3829POPC   C4B10042  29.410  43.869   7.650
 3830POPC   NC310043   3.513   2.787   9.450
 3830POPC   PO410044   3.535   2.768   9.150
 3830POPC   GL110045   3.530   2.730   8.850
 3830POPC   GL210046   3.684   2.705   8.850
 3830POPC   C1A10047   3.567   2.726   8.550
 3830POPC   D2A10048   3.581   2.728   8.250
 3830POPC   C3A10049   3.506   2.781   7.950
 3830POPC   C4A10050   3.537   2.780   7.650
 3830POPC   C1B10051   3.731   2.697   8.550
 3830POPC   C2B10052   3.820   2.710   8.250
 3830POPC   C3B10053   3.800   2.665   7.950
 3830POPC   C4B10054   3.776   2.672   7.650
 3831POPC   NC310055  26.768  38.444   9.450
 3831POPC   PO410056  26.790  38.431   9.150
 3831POPC   GL110057  26.854  38.453   8.850
 3831POPC   GL210058  26.829  38.575   8.850
 3831POPC   C1A10059  26.785  38.455   8.550
 3831POPC   D2A10060  26.826  38.424   8.250
 3831POPC   C3A10061  26.777  38.486   7.950
 3831POPC   C4A10062  26.821  38.408   7.650
 3831POPC   C1B10063  26.931  38.645   8.550
 3831POPC   C2B10064  26.890  38.739   8.250
 3831POPC   C3B10065  26.928  38.729   7.950
 3831POPC   C4B10066  26.867  38.737   7.650
 3832POPC   NC310067   9.014  43.859   9.450
 3832POPC   PO410068   8.933  43.878   9.150
 3832POPC   GL110069   8.963  43.868   8.850
 3832POPC   GL210070   9.011  43.733   8.850
 3832POPC   C1A10071   9.013  43.886   8.550
 3832POPC   D2A10072   9.019  43.928   8.250
 3832POPC   C3A10073   8.969  43.869   7.950
 3832POPC   C4A10074   8.943  43.875   7.650
 3832POPC   C1B10075   9.038  43.687   8.550
 3832POPC   C2B10076   9.009  43.666   8.250
 3832POPC   C3B10077   9.001  43.645   7.950
 3832POPC   C4B10078   8.987  43.592   7.650
 3833POPC   NC310079   4.281  22.961   9.450
 3833POPC   PO410080   4.320  22.953   9.150
 3833POPC   GL110081   4.301  22.965   8.850
 3833POPC   GL210082   4.371  23.035   8.850
 3833POPC   C1A10083   4.317  22.935   8.550
 3833POPC   D2A10084   4.360  22.927   8.250
 3833POPC   C3A10085   4.326  22.941   7.950
 3833POPC   C4A10086   4.323  22.988   7.650
 3833POPC   C1B10087   4.474  23.098   8.550
 3833POPC   C2B10088   4.478  23.125   8.250
 3833POPC   C3B10089   4.496  23.063   7.950
 3833POPC   C4B10090   4.487  23.118   7.650
 3834POPC   NC310091   3.535  18.287   9.450
 3834POPC   PO410092   3.591  18.302   9.150
 3834POPC   GL110093   3.500  18.245   8.850
 3834POPC   GL210094   3.486  18.144   8.850
 3834POPC   C1A10095   3.559  18.294   8.550
 3834POPC   D2A10096   3.555  18.295   8.250
 3834POPC   C3A10097   3.526  18.324   7.950
 3834POPC   C4A10098   3.546  18.282   7.650
 3834POPC   C1B10099   3.453  17.997   8.550
 3834POPC   C2B10100   3.457  18.005   8.250
 3834POPC   C3B10101   3.449  18.058   7.950
 3834POPC   C4B10102   3.495  18.031   7.650
 3835POPC   NC310103  11.302   3.571   9.450
 3835POPC   PO410104  11.318   3.538   9.150
 3835POPC   GL110105  11.338   3.502   8.850
 3835POPC   GL210106  11.410   3.624   8.850
 3835POPC   C1A10107  11.323   3.546   8.550
 3835POPC   D2A10108  11.319   3.570   8.250
 3835POPC   C3A10109  11.293   3.529   7.950
 3835POPC   C4A10110  11.349   3.543   7.650
 3835POPC   C1B10111  11.470   3.686   8.550
 3835POPC   C2B10112  11.461   3.699   8.250
 3835POPC   C3B10113  11.477   3.689   7.950
 3835POPC   C4B10114  11.521   3.761   7.650
 3836POPC   NC310115   9.741   8.964   9.450
 3836POPC   PO410116   9.725   8.944   9.150
 3836POPC   GL110117   9.707   8.956   8.850
 3836POPC   GL210118   9.687   8.900   8.850
 3836POPC   C1A10119   9.702   8.963   8.550
 3836POPC   D2A10120   9.782   9.012   8.250
 3836POPC   C3A10121   9.780   8.928   7.950
 3836POPC   C4A10122   9.766   8.992   7.650
 3836POPC   C1B10123   9.642   8.745   8.550
 3836POPC   C2B10124   9.628   8.722   8.250
 3836POPC   C3B10125   9.657   8.723   7.950
 3836POPC   C4B10126   9.713   8.743   7.650
 3837POPC   NC310127  31.434  19.822   9.450
 3837POPC   PO410128  31.480  19.855   9.150
 3837POPC   GL110129  31.452  19.837   8.850
 3837POPC   GL210130  31.328  19.819   8.850
 3837POPC   C1A10131  31.425  19.834   8.550
 3837POPC   D2A10132  31.456  19.819   8.250
 3837POPC   C3A10133  31.424  19.874   7.950
 3837POPC   C4A10134  31.445  19.789   7.650
 3837POPC   C1B10135  31.257  19.927   8.550
 3837POPC   C2B10136  31.201  19.893   8.250
 3837POPC   C3B10137  31.242  19.899   7.950
 3837POPC   C4B10138  31.264  19.891   7.650
 3838POPC   NC310139  29.968  34.543   9.450
 3838POPC   PO410140  29.892  34.540   9.150
 3838POPC   GL110141  29.952  34.620   8.850
 3838POPC   GL210142  29.928  34.485   8.850
 3838POPC   C1A10143  29.970  34.597   8.550
 3838POPC   D2A10144  29.891  34.571   8.250
 3838POPC   C3A10145  29.939  34.528   7.950
 3838POPC   C4A10146  29.924  34.589   7.650
 3838POPC   C1B10147  29.880  34.295   8.550
 3838POPC   C2B10148  29.912  34.375   8.250
 3838POPC   C3B10149  29.910  34.356   7.950
 3838POPC   C4B10150  29.837  34.327   7.650
 3839POPC   NC310151  43.078   8.206   9.450
 3839POPC   PO410152  43.153   8.243   9.150
 3839POPC   GL110153  43.154   8.199   8.850
 3839POPC   GL210154  43.038   8.286   8.850
 3839POPC   C1A10155  43.082   8.206   8.550
 3839POPC   D2A10156  43.108   8.175   8.250
 3839POPC   C3A10157  43.116   8.195   7.950
 3839POPC   C4A10158  43.158   8.179   7.650
 3839POPC   C1B10159  42.898   8.376   8.550
 3839POPC   C2B10160  42.875   8.395   8.250
 3839POPC   C3B10161  42.894   8.346   7.950
 3839POPC   C4B10162  42.941   8.375   7.650
 3840POPC   NC310163  28.332  29.949   9.450
 3840POPC   PO410164  28.376  29.936   9.150
 3840POPC   GL110165  28.372  29.928   8.850
 3840POPC   GL210166  28.470  30.061   8.850
 3840POPC   C1A10167  28.360  29.948   8.550
 3840POPC   D2A10168  28.380  29.938   8.250
 3840POPC   C3A10169  28.345  29.878   7.950
 3840POPC   C4A10170  28.358  29.876   7.650
 3840POPC   C1B10171  28.493  30.139   8.550
 3840POPC   C2B10172  28.474  30.160   8.250
 3840POPC   C3B10173  28.491  30.146   7.950
 3840POPC   C4B10174  28.510  30.103   7.650
 3841POPC   NC310175  42.376  33.002   9.450
 3841POPC   PO410176  42.310  33.071   9.150
 3841POPC   GL110177  42.348  33.018   8.850
 3841POPC   GL210178  42.379  32.928   8.850
 3841POPC   C1A10179  42.290  32.976   8.550
 3841POPC   D2A10180  42.384  33.066   8.250
 3841POPC   C3A10181  42.336  33.041   7.950
 3841POPC   C4A10182  42.378  32.996   7.650
 3841POPC   C1B10183  42.343  32.774   8.550
 3841POPC   C2B10184  42.337  32.756   8.250
 3841POPC   C3B10185  42.323  32.780   7.950
 3841POPC   C4B10186  42.327  32.806   7.650
 3842POPC   NC310187  12.879  29.115   9.450
 3842POPC   PO410188  12.844  29.103   9.150
 3842POPC   GL110189  12.877  29.165   8.850
 3842POPC   GL210190  12.740  29.206   8.850
 3842POPC   C1A10191  12.876  29.143   8.550
 3842POPC   D2A10192  12.829  29.145   8.250
 3842POPC   C3A10193  12.836  29.155   7.950
 3842POPC   C4A10194  12.870  29.108   7.650
 3842POPC   C1B10195  12.655  29.295   8.550
 3842POPC   C2B10196  12.660  29.311   8.250
 3842POPC   C3B10197  12.658  29.368   7.950
 3842POPC   C4B10198  12.705  29.368   7.650
 3843POPC   NC310199   9.743  37.704   9.450
 3843POPC   PO410200   9.776  37.717   9.150
 3843POPC   GL110201   9.706  37.699   8.850
 3843POPC   GL210202   9.851  37.590   8.850
 3843POPC   C1A10203   9.755  37.706   8.550
 3843POPC   D2A10204   9.794  37.657   8.250
 3843POPC   C3A10205   9.738  37.644   7.950
 3843POPC   C4A10206   9.765  37.640   7.650
 3843POPC   C1B10207   9.915  37.490   8.550
 3843POPC   C2B10208   9.922  37.503   8.250
 3843POPC   C3B10209   9.932  37.488   7.950
 3843POPC   C4B10210   9.933  37.445   7.650
 3844POPC   NC310211  11.303  36.887   9.450
 3844POPC   PO410212  11.327  36.891   9.150
 3844POPC   GL110213  11.327  36.894   8.850
 3844POPC   GL210214  11.346  36.731   8.850
 3844POPC   C1A10215  11.332  36.906   8.550
 3844POPC   D2A10216  11.253  36.868   8.250
 3844POPC   C3A10217  11.256  36.947   7.950
 3844POPC   C4A10218  11.271  36.923   7.650
 3844POPC   C1B10219  11.312  36.642   8.550
 3844POPC   C2B10220  11.345  36.695   8.250
 3844POPC   C3B10221  11.306  36.638   7.950
 3844POPC   C4B10222  11.354  36.655   7.650
 3845POPC   NC310223  32.976  34.612   9.450
 3845POPC   PO410224  33.033  34.617   9.150
 3845POPC   GL110225  33.015  34.530   8.850
 3845POPC   GL210226  33.109  34.521   8.850
 3845POPC   C1A10227  33.063  34.566   8.550
 3845POPC   D2A10228  32.992  34.601   8.250
 3845POPC   C3A10229  33.060  34.550   7.950
 3845POPC   C4A10230  33.056  34.546   7.650
 3845POPC   C1B10231  33.267  34.487   8.550
 3845POPC   C2B10232  33.235  34.516   8.250
 3845POPC   C3B10233  33.292  34.461   7.950
 3845POPC   C4B10234  33.269  34.541   7.650
 3846POPC   NC310235  19.050   5.072   9.450
 3846POPC   PO410236  19.108   5.063   9.150
 3846POPC   GL110237  19.033   5.069   8.850
 3846POPC   GL210238  19.067   5.242   8.850
 3846POPC   C1A10239  19.042   5.074   8.550
 3846POPC   D2A10240  19.054   5.051   8.250
 3846POPC   C3A10241  19.065   5.132   7.950
 3846POPC   C4A10242  19.039   5.080   7.650
 3846POPC   C1B10243  18.940   5.318   8.550
 3846POPC   C2B10244  18.998   5.285   8.250
 3846POPC   C3B10245  19.026   5.357   7.950
 3846POPC   C4B10246  19.014   5.300   7.650
 3847POPC   NC310247  17.506  44.626   9.450
 3847POPC   PO410248  17.530  44.653   9.150
 3847POPC   GL110249  17.540  44.674   8.850
 3847POPC   GL210250  17.656  44.620   8.850
 3847POPC   C1A10251  17.470  44.687   8.550
 3847POPC   D2A10252  17.509  44.711   8.250
 3847POPC   C3A10253  17.530  44.679   7.950
 3847POPC   C4A10254  17.498  44.625   7.650
 3847POPC   C1B10255  17.715  44.601   8.550
 3847POPC   C2B10256  17.767  44.639   8.250
 3847POPC   C3B10257  17.719  44.690   7.950
 3847POPC   C4B10258  17.725  44.608   7.650
 3848POPC   NC310259  21.395  31.520   9.450
 3848POPC   PO410260  21.345  31.424   9.150
 3848POPC   GL110261  21.361  31.450   8.850
 3848POPC   GL210262  21.326  31.546   8.850
 3848POPC   C1A10263  21.359  31.502   8.550
 3848POPC   D2A10264  21.386  31.423   8.250
 3848POPC   C3A10265  21.405  31.504   7.950
 3848POPC   C4A10266  21.413  31.513   7.650
 3848POPC   C1B10267  21.233  31.676   8.550
 3848POPC   C2B10268  21.144  31.639   8.250
 3848POPC   C3B10269  21.159  31.595   7.950
 3848POPC   C4B10270  21.194  31.660   7.650
 3849POPC   NC310271  28.384  13.629   9.450
 3849POPC   PO410272  28.344  13.672   9.150
 3849POPC   GL110273  28.323  13.583   8.850
 3849POPC   GL210274  28.443  13.691   8.850
 3849POPC   C1A10275  28.399  13.633   8.550
 3849POPC   D2A10276  28.339  13.636   8.250
 3849POPC   C3A10277  28.353  13.675   7.950
 3849POPC   C4A10278  28.376  13.638   7.650
 3849POPC   C1B10279  28.604  13.703   8.550
 3849POPC   C2B10280  28.632  13.741   8.250
 3849POPC   C3B10281  28.591  13.718   7.950
 3849POPC   C4B10282  28.589  13.692   7.650
 3850POPC   NC310283   6.678  16.754   9.450
 3850POPC   PO410284   6.658  16.707   9.150
 3850POPC   GL110285   6.676  16.723   8.850
 3850POPC   GL210286   6.589  16.763   8.850
 3850POPC   C1A10287   6.599  16.696   8.550
 3850POPC   D2A10288   6.688  16.760   8.250
 3850POPC   C3A10289   6.627  16.702   7.950
 3850POPC   C4A10290   6.628  16.699   7.650
 3850POPC   C1B10291   6.445  16.897   8.550
 3850POPC   C2B10292   6.433  16.910   8.250
 3850POPC   C3B10293   6.427  16.907   7.950
 3850POPC   C4B10294   6.432  16.928   7.650
 3851POPC   NC310295  25.292  15.153   9.450
 3851POPC   PO410296  25.266  15.179   9.150
 3851POPC   GL110297  25.311  15.172   8.850
 3851POPC   GL210298  25.351  15.054   8.850
 3851POPC   C1A10299  25.269  15.213   8.550
 3851POPC   D2A10300  25.217  15.132   8.250
 3851POPC   C3A10301  25.303  15.195   7.950
 3851POPC   C4A10302  25.314  15.212   7.650
 3851POPC   C1B10303  25.452  15.073   8.550
 3851POPC   C2B10304  25.488  15.056   8.250
 3851POPC   C3B10305  25.466  15.023   7.950
 3851POPC   C4B10306  25.480  15.002   7.650
 3852POPC   NC310307  13.583  39.280   9.450
 3852POPC   PO410308  13.639  39.260   9.150
 3852POPC   GL110309  13.652  39.262   8.850
 3852POPC   GL210310  13.692  39.288   8.850
 3852POPC   C1A10311  13.644  39.263   8.550
 3852POPC   D2A10312  13.627  39.249   8.250
 3852POPC   C3A10313  13.647  39.189   7.950
 3852POPC   C4A10314  13.617  39.206   7.650
 3852POPC   C1B10315  13.878  39.333   8.550
 3852POPC   C2B10316  13.892  39.382   8.250
 3852POPC   C3B10317  13.878  39.334   7.950
 3852POPC   C4B10318  13.852  39.366   7.650
 3853POPC   NC310319  15.201  19.810   9.450
 3853POPC   PO410320  15.228  19.851   9.150
 3853POPC   GL110321  15.221  19.793   8.850
 3853POPC   GL210322  15.059  19.793   8.850
 3853POPC   C1A10323  15.228  19.835   8.550
 3853POPC   D2A10324  15.165  19.874   8.250
 3853POPC   C3A10325  15.188  19.796   7.950
 3853POPC   C4A10326  15.165  19.835   7.650
 3853POPC   C1B10327  14.960  19.775   8.550
 3853POPC   C2B10328  14.952  19.707   8.250
 3853POPC   C3B10329  14.967  19.739   7.950
 3853POPC   C4B10330  14.984  19.755   7.650
 3854POPC   NC310331   3.495  14.415   9.450
 3854POPC   PO410332   3.492  14.399   9.150
 3854POPC   GL110333   3.518  14.379   8.850
 3854POPC   GL210334   3.535  14.330   8.850
 3854POPC   C1A10335   3.537  14.418   8.550
 3854POPC   D2A10336   3.509  14.355   8.250
 3854POPC   C3A10337   3.579  14.416   7.950
 3854POPC   C4A10338   3.566  14.429   7.650
 3854POPC   C1B10339   3.448  14.199   8.550
 3854POPC   C2B10340   3.513  14.147   8.250
 3854POPC   C3B10341   3.447  14.114   7.950
 3854POPC   C4B10342   3.478  14.203   7.650
 3855POPC   NC310343  30.682  27.582   9.450
 3855POPC   PO410344  30.660  27.616   9.150
 3855POPC   GL110345  30.680  27.626   8.850
 3855POPC   GL210346  30.764  27.697   8.850
 3855POPC   C1A10347  30.733  27.563   8.550
 3855POPC   D2A10348  30.729  27.564   8.250
 3855POPC   C3A10349  30.731  27.582   7.950
 3855POPC   C4A10350  30.696  27.635   7.650
 3855POPC   C1B10351  30.870  27.788   8.550
 3855POPC   C2B10352  30.868  27.768   8.250
 3855POPC   C3B10353  30.927  27.743   7.950
 3855POPC   C4B10354  30.870  27.707   7.650
 3856POPC   NC310355  31.488  14.361   9.450
 3856POPC   PO410356  31.520  14.392   9.150
 3856POPC   GL110357  31.452  14.422   8.850
 3856POPC   GL210358  31.600  14.387   8.850
 3856POPC   C1A10359  31.446  14.416   8.550
 3856POPC   D2A10360  31.476  14.403   8.250
 3856POPC   C3A10361  31.427  14.416   7.950
 3856POPC   C4A10362  31.435  14.357   7.650
 3856POPC   C1B10363  31.743  14.454   8.550
 3856POPC   C2B10364  31.761  14.395   8.250
 3856POPC   C3B10365  31.749  14.428   7.950
 3856POPC   C4B10366  31.718  14.460   7.650
 3857POPC   NC310367  21.359  19.844   9.450
 3857POPC   PO410368  21.373  19.847   9.150
 3857POPC   GL110369  21.429  19.862   8.850
 3857POPC   GL210370  21.328  19.935   8.850
 3857POPC   C1A10371  21.378  19.865   8.550
 3857POPC   D2A10372  21.361  19.852   8.250
 3857POPC   C3A10373  21.368  19.809   7.950
 3857POPC   C4A10374  21.352  19.835   7.650
 3857POPC   C1B10375  21.202  19.913   8.550
 3857POPC   C2B10376  21.146  20.003   8.250
 3857POPC   C3B10377  21.203  19.927   7.950
 3857POPC   C4B10378  21.150  19.997   7.650
 3858POPC   NC310379   3.516  17.475   9.450
 3858POPC   PO410380   3.572  17.461   9.150
 3858POPC   GL110381   3.573  17.513   8.850
 3858POPC   GL210382   3.461  17.620   8.850
 3858POPC   C1A10383   3.591  17.546   8.550
 3858POPC   D2A10384   3.533  17.550   8.250
 3858POPC   C3A10385   3.524  17.474   7.950
 3858POPC   C4A10386   3.496  17.467   7.650
 3858POPC   C1B10387   3.360  17.751   8.550
 3858POPC   C2B10388   3.368  17.756   8.250
 3858POPC   C3B10389   3.374  17.671   7.950
 3858POPC   C4B10390   3.432  17.670   7.650
 3859POPC   NC310391  34.528  13.621   9.450
 3859POPC   PO410392  34.615  13.650   9.150
 3859POPC   GL110393  34.551  13.597   8.850
 3859POPC   GL210394  34.609  13.509   8.850
 3859POPC   C1A10395  34.579  13.616   8.550
 3859POPC   D2A10396  34.592  13.588   8.250
 3859POPC   C3A10397  34.541  13.578   7.950
 3859POPC   C4A10398  34.535  13.586   7.650
 3859POPC   C1B10399  34.699  13.392   8.550
 3859POPC   C2B10400  34.766  13.429   8.250
 3859POPC   C3B10401  34.722  13.435   7.950
 3859POPC   C4B10402  34.696  13.429   7.650
 3860POPC   NC310403  27.583   0.403   9.450
 3860POPC   PO410404  27.582   0.475   9.150
 3860POPC   GL110405  27.587   0.475   8.850
 3860POPC   GL210406  27.641   0.321   8.850
 3860POPC   C1A10407  27.579   0.465   8.550
 3860POPC   D2A10408  27.626   0.466   8.250
 3860POPC   C3A10409  27.606   0.446   7.950
 3860POPC   C4A10410  27.555   0.485   7.650
 3860POPC   C1B10411  27.588   0.146   8.550
 3860POPC   C2B10412  27.585   0.215   8.250
 3860POPC   C3B10413  27.611   0.235   7.950
 3860POPC   C4B10414  27.646   0.150   7.650
 3861POPC   NC310415  15.205  19.085   9.450
 3861POPC   PO410416  15.173  19.039   9.150
 3861POPC   GL110417  15.198  19.046   8.850
 3861POPC   GL210418  15.044  18.983   8.850
 3861POPC   C1A10419  15.207  19.017   8.550
 3861POPC   D2A10420  15.222  19.045   8.250
 3861POPC   C3A10421  15.141  19.081   7.950
 3861POPC   C4A10422  15.158  19.035   7.650
 3861POPC   C1B10423  14.982  18.927   8.550
 3861POPC   C2B10424  14.903  18.973   8.250
 3861POPC   C3B10425  14.904  18.923   7.950
 3861POPC   C4B10426  14.905  19.000   7.650
 3862POPC   NC310427  13.636  34.539   9.450
 3862POPC   PO410428  13.596  34.594   9.150
 3862POPC   GL110429  13.579  34.589   8.850
 3862POPC   GL210430  13.546  34.537   8.850
 3862POPC   C1A10431  13.583  34.617   8.550
 3862POPC   D2A10432  13.590  34.587   8.250
 3862POPC   C3A10433  13.608  34.603   7.950
 3862POPC   C4A10434  13.595  34.609   7.650
 3862POPC   C1B10435  13.409  34.508   8.550
 3862POPC   C2B10436  13.347  34.485   8.250
 3862POPC   C3B10437  13.410  34.469   7.950
 3862POPC   C4B10438  13.373  34.448   7.650
 3863POPC   NC310439  40.004   6.674   9.450
 3863POPC   PO410440  40.018   6.683   9.150
 3863POPC   GL110441  39.978   6.635   8.850
 3863POPC   GL210442  40.007   6.567   8.850
 3863POPC   C1A10443  40.002   6.681   8.550
 3863POPC   D2A10444  40.014   6.664   8.250
 3863POPC   C3A10445  40.017   6.671   7.950
 3863POPC   C4A10446  39.988   6.644   7.650
 3863POPC   C1B10447  40.066   6.387   8.550
 3863POPC   C2B10448  40.043   6.423   8.250
 3863POPC   C3B10449  40.057   6.381   7.950
 3863POPC   C4B10450  40.063   6.410   7.650
 3864POPC   NC310451  32.229  26.063   9.450
 3864POPC   PO410452  32.290  26.030   9.150
 3864POPC   GL110453  32.219  26.079   8.850
 3864POPC   GL210454  32.357  25.925   8.850
 3864POPC   C1A10455  32.262  26.078   8.550
 3864POPC   D2A10456  32.217  26.014   8.250
 3864POPC   C3A10457  32.201  26.034   7.950
 3864POPC   C4A10458  32.253  25.997   7.650
 3864POPC   C1B10459  32.456  25.853   8.550
 3864POPC   C2B10460  32.467  25.905   8.250
 3864POPC   C3B10461  32.438  25.867   7.950
 3864POPC   C4B10462  32.449  25.902   7.650
 3865POPC   NC310463   1.224  18.304   9.450
 3865POPC   PO410464   1.202  18.300   9.150
 3865POPC   GL110465   1.168  18.320   8.850
 3865POPC   GL210466   1.176  18.350   8.850
 3865POPC   C1A10467   1.195  18.236   8.550
 3865POPC   D2A10468   1.185  18.296   8.250
 3865POPC   C3A10469   1.178  18.290   7.950
 3865POPC   C4A10470   1.175  18.307   7.650
 3865POPC   C1B10471   1.046  18.476   8.550
 3865POPC   C2B10472   1.037  18.448   8.250
 3865POPC   C3B10473   1.093  18.538   7.950
 3865POPC   C4B10474   1.118  18.504   7.650
 3866POPC   NC310475  32.285   2.022   9.450
 3866POPC   PO410476  32.281   2.015   9.150
 3866POPC   GL110477  32.226   1.974   8.850
 3866POPC   GL210478  32.151   2.129   8.850
 3866POPC   C1A10479  32.255   1.962   8.550
 3866POPC   D2A10480  32.202   1.946   8.250
 3866POPC   C3A10481  32.219   1.967   7.950
 3866POPC   C4A10482  32.281   1.942   7.650
 3866POPC   C1B10483  32.166   2.200   8.550
 3866POPC   C2B10484  32.157   2.228   8.250
 3866POPC   C3B10485  32.195   2.239   7.950
 3866POPC   C4B10486  32.135   2.243   7.650
 3867POPC   NC310487   2.746  28.384   9.450
 3867POPC   PO410488   2.764  28.353   9.150
 3867POPC   GL110489   2.734  28.395   8.850
 3867POPC   GL210490   2.625  28.389   8.850
 3867POPC   C1A10491   2.766  28.324   8.550
 3867POPC   D2A10492   2.773  28.377   8.250
 3867POPC   C3A10493   2.771  28.398   7.950
 3867POPC   C4A10494   2.757  28.405   7.650
 3867POPC   C1B10495   2.489  28.352   8.550
 3867POPC   C2B10496   2.540  28.331   8.250
 3867POPC   C3B10497   2.495  28.341   7.950
 3867POPC   C4B10498   2.517  28.332   7.650
 3868POPC   NC310499   4.343  40.743   9.450
 3868POPC   PO410500   4.332  40.828   9.150
 3868POPC   GL110501   4.330  40.830   8.850
 3868POPC   GL210502   4.193  40.801   8.850
 3868POPC   C1A10503   4.356  40.781   8.550
 3868POPC   D2A10504   4.274  40.752   8.250
 3868POPC   C3A10505   4.322  40.795   7.950
 3868POPC   C4A10506   4.332  40.763   7.650
 3868POPC   C1B10507   4.026  40.737   8.550
 3868POPC   C2B10508   4.102  40.764   8.250
 3868POPC   C3B10509   4.108  40.730   7.950
 3868POPC   C4B10510   4.040  40.719   7.650
 3869POPC   NC310511  23.748  18.314   9.450
 3869POPC   PO410512  23.714  18.318   9.150
 3869POPC   GL110513  23.743  18.263   8.850
 3869POPC   GL210514  23.756  18.406   8.850
 3869POPC   C1A10515  23.759  18.246   8.550
 3869POPC   D2A10516  23.744  18.274   8.250
 3869POPC   C3A10517  23.707  18.292   7.950
 3869POPC   C4A10518  23.735  18.242   7.650
 3869POPC   C1B10519  23.706  18.549   8.550
 3869POPC   C2B10520  23.728  18.577   8.250
 3869POPC   C3B10521  23.735  18.577   7.950
 3869POPC   C4B10522  23.734  18.533   7.650
 3870POPC   NC310523  26.792  14.377   9.450
 3870POPC   PO410524  26.774  14.425   9.150
 3870POPC   GL110525  26.852  14.439   8.850
 3870POPC   GL210526  26.934  14.459   8.850
 3870POPC   C1A10527  26.860  14.360   8.550
 3870POPC   D2A10528  26.806  14.434   8.250
 3870POPC   C3A10529  26.852  14.364   7.950
 3870POPC   C4A10530  26.795  14.424   7.650
 3870POPC   C1B10531  27.084  14.437   8.550
 3870POPC   C2B10532  27.015  14.480   8.250
 3870POPC   C3B10533  27.080  14.498   7.950
 3870POPC   C4B10534  27.016  14.455   7.650
 3871POPC   NC310535  18.281  31.424   9.450
 3871POPC   PO410536  18.319  31.474   9.150
 3871POPC   GL110537  18.261  31.443   8.850
 3871POPC   GL210538  18.428  31.575   8.850
 3871POPC   C1A10539  18.242  31.451   8.550
 3871POPC   D2A10540  18.312  31.448   8.250
 3871POPC   C3A10541  18.308  31.475   7.950
 3871POPC   C4A10542  18.279  31.453   7.650
 3871POPC   C1B10543  18.483  31.632   8.550
 3871POPC   C2B10544  18.519  31.623   8.250
 3871POPC   C3B10545  18.512  31.537   7.950
 3871POPC   C4B10546  18.526  31.546   7.650
 3872POPC   NC310547  24.532  33.840   9.450
 3872POPC   PO410548  24.519  33.771   9.150
 3872POPC   GL110549  24.530  33.810   8.850
 3872POPC   GL210550  24.608  33.730   8.850
 3872POPC   C1A10551  24.505  33.842   8.550
 3872POPC   D2A10552  24.538  33.843   8.250
 3872POPC   C3A10553  24.520  33.787   7.950
 3872POPC   C4A10554  24.462  33.770   7.650
 3872POPC   C1B10555  24.731  33.709   8.550
 3872POPC   C2B10556  24.775  33.716   8.250
 3872POPC   C3B10557  24.747  33.739   7.950
 3872POPC   C4B10558  24.754  33.770   7.650
 3873POPC   NC310559  41.547  23.665   9.450
 3873POPC   PO410560  41.554  23.730   9.150
 3873POPC   GL110561  41.545  23.746   8.850
 3873POPC   GL210562  41.422  23.604   8.850
 3873POPC   C1A10563  41.557  23.696   8.550
 3873POPC   D2A10564  41.532  23.683   8.250
 3873POPC   C3A10565  41.567  23.692   7.950
 3873POPC   C4A10566  41.530  23.707   7.650
 3873POPC   C1B10567  41.353  23.544   8.550
 3873POPC   C2B10568  41.394  23.548   8.250
 3873POPC   C3B10569  41.330  23.609   7.950
 3873POPC   C4B10570  41.404  23.594   7.650
 3874POPC   NC310571  23.712  14.403   9.450
 3874POPC   PO410572  23.667  14.404   9.150
 3874POPC   GL110573  23.754  14.407   8.850
 3874POPC   GL210574  23.549  14.474   8.850
 3874POPC   C1A10575  23.725  14.413   8.550
 3874POPC   D2A10576  23.672  14.361   8.250
 3874POPC   C3A10577  23.733  14.384   7.950
 3874POPC   C4A10578  23.750  14.435   7.650
 3874POPC   C1B10579  23.481  14.471   8.550
 3874POPC   C2B10580  23.465  14.488   8.250
 3874POPC   C3B10581  23.469  14.464   7.950
 3874POPC   C4B10582  23.497  14.482   7.650
 3875POPC   NC310583   4.283  36.876   9.450
 3875POPC   PO410584   4.331  36.937   9.150
 3875POPC   GL110585   4.298  36.934   8.850
 3875POPC   GL210586   4.318  37.052   8.850
 3875POPC   C1A10587   4.350  36.936   8.550
 3875POPC   D2A10588   4.327  36.866   8.250
 3875POPC   C3A10589   4.294  36.901   7.950
 3875POPC   C4A10590   4.356  36.935   7.650
 3875POPC   C1B10591   4.390  37.196   8.550
 3875POPC   C2B10592   4.317  37.169   8.250
 3875POPC   C3B10593   4.363  37.195   7.950
 3875POPC   C4B10594   4.329  37.197   7.650
 3876POPC   NC310595  38.418   4.352   9.450
 3876POPC   PO410596  38.423   4.289   9.150
 3876POPC   GL110597  38.499   4.332   8.850
 3876POPC   GL210598  38.334   4.352   8.850
 3876POPC   C1A10599  38.457   4.311   8.550
 3876POPC   D2A10600  38.409   4.331   8.250
 3876POPC   C3A10601  38.478   4.277   7.950
 3876POPC   C4A10602  38.426   4.304   7.650
 3876POPC   C1B10603  38.192   4.360   8.550
 3876POPC   C2B10604  38.219   4.383   8.250
 3876POPC   C3B10605  38.159   4.333   7.950
 3876POPC   C4B10606  38.211   4.295   7.650
 3877POPC   NC310607  42.366   7.465   9.450
 3877POPC   PO410608  42.362   7.447   9.150
 3877POPC   GL110609  42.321   7.387   8.850
 3877POPC   GL210610  42.309   7.572   8.850
 3877POPC   C1A10611  42.296   7.449   8.550
 3877POPC   D2A10612  42.326   7.392   8.250
 3877POPC   C3A10613  42.377   7.408   7.950
 3877POPC   C4A10614  42.336   7.409   7.650
 3877POPC   C1B10615  42.248   7.663   8.550
 3877POPC   C2B10616  42.250   7.639   8.250
 3877POPC   C3B10617  42.239   7.632   7.950
 3877POPC   C4B10618  42.265   7.630   7.650
 3878POPC   NC310619  23.726   0.413   9.450
 3878POPC   PO410620  23.728   0.411   9.150
 3878POPC   GL110621  23.731   0.429   8.850
 3878POPC   GL210622  23.631   0.510   8.850
 3878POPC   C1A10623  23.756   0.424   8.550
 3878POPC   D2A10624  23.676   0.406   8.250
 3878POPC   C3A10625  23.671   0.418   7.950
 3878POPC   C4A10626  23.701   0.396   7.650
 3878POPC   C1B10627  23.557   0.639   8.550
 3878POPC   C2B10628  23.562   0.595   8.250
 3878POPC   C3B10629  23.548   0.586   7.950
 3878POPC   C4B10630  23.571   0.643   7.650
 3879POPC   NC310631   2.804  43.098   9.450
 3879POPC   PO410632   2.750  43.137   9.150
 3879POPC   GL110633   2.725  43.156   8.850
 3879POPC   GL210634   2.819  43.211   8.850
 3879POPC   C1A10635   2.753  43.134   8.550
 3879POPC   D2A10636   2.808  43.061   8.250
 3879POPC   C3A10637   2.764  43.155   7.950
 3879POPC   C4A10638   2.757  43.112   7.650
 3879POPC   C1B10639   2.994  43.255   8.550
 3879POPC   C2B10640   2.911  43.303   8.250
 3879POPC   C3B10641   2.935  43.266   7.950
 3879POPC   C4B10642   2.927  43.242   7.650
 3880POPC   NC310643  30.730   5.882   9.450
 3880POPC   PO410644  30.671   5.885   9.150
 3880POPC   GL110645  30.701   5.914   8.850
 3880POPC   GL210646  30.794   5.740   8.850
 3880POPC   C1A10647  30.674   5.900   8.550
 3880POPC   D2A10648  30.705   5.878   8.250
 3880POPC   C3A10649  30.726   5.833   7.950
 3880POPC   C4A10650  30.658   5.881   7.650
 3880POPC   C1B10651  30.880   5.746   8.550
 3880POPC   C2B10652  30.840   5.666   8.250
 3880POPC   C3B10653  30.897   5.683   7.950
 3880POPC   C4B10654  30.919   5.754   7.650
 3881POPC   NC310655   9.715  44.640   9.450
 3881POPC   PO410656   9.792  44.662   9.150
 3881POPC   GL110657   9.763  44.654   8.850
 3881POPC   GL210658   9.766  44.793   8.850
 3881POPC   C1A10659   9.780  44.681   8.550
 3881POPC   D2A10660   9.732  44.626   8.250
 3881POPC   C3A10661   9.784  44.670   7.950
 3881POPC   C4A10662   9.747  44.700   7.650
 3881POPC   C1B10663   9.670  44.883   8.550
 3881POPC   C2B10664   9.712  44.897   8.250
 3881POPC   C3B10665   9.746  44.861   7.950
 3881POPC   C4B10666   9.686  44.914   7.650
 3882POPC   NC310667  40.004  24.531   9.450
 3882POPC   PO410668  40.042  24.447   9.150
 3882POPC   GL110669  40.035  24.441   8.850
 3882POPC   GL210670  40.136  24.498   8.850
 3882POPC   C1A10671  40.048  24.527   8.550
 3882POPC   D2A10672  40.049  24.501   8.250
 3882POPC   C3A10673  40.050  24.484   7.950
 3882POPC   C4A10674  40.037  24.471   7.650
 3882POPC   C1B10675  40.252  24.398   8.550
 3882POPC   C2B10676  40.248  24.424   8.250
 3882POPC   C3B10677  40.218  24.425   7.950
 3882POPC   C4B10678  40.285  24.390   7.650
 3883POPC   NC310679  29.101  33.028   9.450
 3883POPC   PO410680  29.176  33.067   9.150
 3883POPC   GL110681  29.128  33.032   8.850
 3883POPC   GL210682  29.210  32.955   8.850
 3883POPC   C1A10683  29.163  33.042   8.550
 3883POPC   D2A10684  29.192  33.019   8.250
 3883POPC   C3A10685  29.140  32.982   7.950
 3883POPC   C4A10686  29.144  33.058   7.650
 3883POPC   C1B10687  29.338  32.927   8.550
 3883POPC   C2B10688  29.383  32.878   8.250
 3883POPC   C3B10689  29.390  32.938   7.950
 3883POPC   C4B10690  29.409  32.851   7.650
 3884POPC   NC310691   1.230   8.992   9.450
 3884POPC   PO410692   1.226   8.943   9.150
 3884POPC   GL110693   1.174   8.970   8.850
 3884POPC   GL210694   1.153   8.852   8.850
 3884POPC   C1A10695   1.209   8.960   8.550
 3884POPC   D2A10696   1.177   8.989   8.250
 3884POPC   C3A10697   1.251   8.961   7.950
 3884POPC   C4A10698   1.165   8.957   7.650
 3884POPC   C1B10699   1.149   8.726   8.550
 3884POPC   C2B10700   1.180   8.677   8.250
 3884POPC   C3B10701   1.196   8.765   7.950
 3884POPC   C4B10702   1.174   8.699   7.650
 3885POPC   NC310703  10.479  29.156   9.450
 3885POPC   PO410704  10.508  29.121   9.150
 3885POPC   GL110705  10.548  29.150   8.850
 3885POPC   GL210706  10.432  29.158   8.850
 3885POPC   C1A10707  10.511  29.121   8.550
 3885POPC   D2A10708  10.512  29.110   8.250
 3885POPC   C3A10709  10.539  29.153   7.950
 3885POPC   C4A10710  10.565  29.098   7.650
 3885POPC   C1B10711  10.288  29.203   8.550
 3885POPC   C2B10712  10.285  29.194   8.250
 3885POPC   C3B10713  10.277  29.254   7.950
 3885POPC   C4B10714  10.285  29.222   7.650
 3886POPC   NC310715  23.731  36.893   9.450
 3886POPC   PO410716  23.696  36.887   9.150
 3886POPC   GL110717  23.687  36.930   8.850
 3886POPC   GL210718  23.587  36.982   8.850
 3886POPC   C1A10719  23.713  36.864   8.550
 3886POPC   D2A10720  23.689  36.939   8.250
 3886POPC   C3A10721  23.686  36.865   7.950
 3886POPC   C4A10722  23.691  36.906   7.650
 3886POPC   C1B10723  23.455  36.956   8.550
 3886POPC   C2B10724  23.507  36.954   8.250
 3886POPC   C3B10725  23.468  36.950   7.950
 3886POPC   C4B10726  23.500  36.946   7.650
 3887POPC   NC310727   8.236  38.499   9.450
 3887POPC   PO410728   8.226  38.501   9.150
 3887POPC   GL110729   8.222  38.419   8.850
 3887POPC   GL210730   8.278  38.322   8.850
 3887POPC   C1A10731   8.161  38.460   8.550
 3887POPC   D2A10732   8.198  38.494   8.250
 3887POPC   C3A10733   8.202  38.494   7.950
 3887POPC   C4A10734   8.178  38.441   7.650
 3887POPC   C1B10735   8.257  38.234   8.550
 3887POPC   C2B10736   8.312  38.239   8.250
 3887POPC   C3B10737   8.266  38.198   7.950
 3887POPC   C4B10738   8.289  38.258   7.650
 3888POPC   NC310739  36.909  42.335   9.450
 3888POPC   PO410740  36.872  42.299   9.150
 3888POPC   GL110741  36.885  42.374   8.850
 3888POPC   GL210742  36.885  42.255   8.850
 3888POPC   C1A10743  36.902  42.379   8.550
 3888POPC   D2A10744  36.925  42.296   8.250
 3888POPC   C3A10745  36.886  42.324   7.950
 3888POPC   C4A10746  36.875  42.371   7.650
 3888POPC   C1B10747  36.911  42.136   8.550
 3888POPC   C2B10748  36.908  42.116   8.250
 3888POPC   C3B10749  36.990  42.044   7.950
 3888POPC   C4B10750  37.000  42.128   7.650
 3889POPC   NC310751  30.746  39.263   9.450
 3889POPC   PO410752  30.741  39.212   9.150
 3889POPC   GL110753  30.664  39.253   8.850
 3889POPC   GL210754  30.628  39.188   8.850
 3889POPC   C1A10755  30.727  39.269   8.550
 3889POPC   D2A10756  30.745  39.272   8.250
 3889POPC   C3A10757  30.729  39.268   7.950
 3889POPC   C4A10758  30.738  39.274   7.650
 3889POPC   C1B10759  30.443  39.077   8.550
 3889POPC   C2B10760  30.459  39.071   8.250
 3889POPC   C3B10761  30.463  39.037   7.950
 3889POPC   C4B10762  30.499  39.072   7.650
 3890POPC   NC310763   5.906  33.817   9.450
 3890POPC   PO410764   5.863  33.818   9.150
 3890POPC   GL110765   5.916  33.808   8.850
 3890POPC   GL210766   5.942  33.700   8.850
 3890POPC   C1A10767   5.866  33.766   8.550
 3890POPC   D2A10768   5.883  33.847   8.250
 3890POPC   C3A10769   5.820  33.810   7.950
 3890POPC   C4A10770   5.918  33.802   7.650
 3890POPC   C1B10771   6.047  33.610   8.550
 3890POPC   C2B10772   5.994  33.571   8.250
 3890POPC   C3B10773   6.015  33.560   7.950
 3890POPC   C4B10774   6.064  33.604   7.650
 3891POPC   NC310775  26.835  35.313   9.450
 3891POPC   PO410776  26.829  35.371   9.150
 3891POPC   GL110777  26.829  35.345   8.850
 3891POPC   GL210778  26.844  35.200   8.850
 3891POPC   C1A10779  26.823  35.393   8.550
 3891POPC   D2A10780  26.795  35.309   8.250
 3891POPC   C3A10781  26.839  35.372   7.950
 3891POPC   C4A10782  26.810  35.339   7.650
 3891POPC   C1B10783  26.910  35.108   8.550
 3891POPC   C2B10784  26.935  35.100   8.250
 3891POPC   C3B10785  26.896  35.150   7.950
 3891POPC   C4B10786  26.888  35.082   7.650
 3892POPC   NC310787  37.684  35.354   9.450
 3892POPC   PO410788  37.638  35.395   9.150
 3892POPC   GL110789  37.684  35.318   8.850
 3892POPC   GL210790  37.810  35.400   8.850
 3892POPC   C1A10791  37.640  35.360   8.550
 3892POPC   D2A10792  37.708  35.323   8.250
 3892POPC   C3A10793  37.692  35.316   7.950
 3892POPC   C4A10794  37.634  35.317   7.650
 3892POPC   C1B10795  37.874  35.473   8.550
 3892POPC   C2B10796  37.877  35.388   8.250
 3892POPC   C3B10797  37.885  35.454   7.950
 3892POPC   C4B10798  37.944  35.458   7.650
 3893POPC   NC310799  14.441  38.445   9.450
 3893POPC   PO410800  14.445  38.435   9.150
 3893POPC   GL110801  14.415  38.471   8.850
 3893POPC   GL210802  14.364  38.600   8.850
 3893POPC   C1A10803  14.355  38.447   8.550
 3893POPC   D2A10804  14.413  38.417   8.250
 3893POPC   C3A10805  14.402  38.491   7.950
 3893POPC   C4A10806  14.357  38.451   7.650
 3893POPC   C1B10807  14.325  38.699   8.550
 3893POPC   C2B10808  14.369  38.665   8.250
 3893POPC   C3B10809  14.321  38.683   7.950
 3893POPC   C4B10810  14.372  38.737   7.650
 3894POPC   NC310811  40.032  12.096   9.450
 3894POPC   PO410812  39.976  12.055   9.150
 3894POPC   GL110813  40.029  12.057   8.850
 3894POPC   GL210814  40.082  12.153   8.850
 3894POPC   C1A10815  40.052  12.064   8.550
 3894POPC   D2A10816  39.998  12.056   8.250
 3894POPC   C3A10817  40.036  12.034   7.950
 3894POPC   C4A10818  40.018  12.073   7.650
 3894POPC   C1B10819  40.269  12.151   8.550
 3894POPC   C2B10820  40.240  12.234   8.250
 3894POPC   C3B10821  40.263  12.202   7.950
 3894POPC   C4B10822  40.260  12.202   7.650
 3895POPC   NC310823  39.209  11.293   9.450
 3895POPC   PO410824  39.184  11.325   9.150
 3895POPC   GL110825  39.276  11.270   8.850
 3895POPC   GL210826  39.384  11.393   8.850
 3895POPC   C1A10827  39.188  11.273   8.550
 3895POPC   D2A10828  39.184  11.261   8.250
 3895POPC   C3A10829  39.213  11.346   7.950
 3895POPC   C4A10830  39.226  11.280   7.650
 3895POPC   C1B10831  39.477  11.387   8.550
 3895POPC   C2B10832  39.469  11.379   8.250
 3895POPC   C3B10833  39.469  11.394   7.950
 3895POPC   C4B10834  39.429  11.391   7.650
 3896POPC   NC310835  25.296  38.483   9.450
 3896POPC   PO410836  25.300  38.481   9.150
 3896POPC   GL110837  25.291  38.500   8.850
 3896POPC   GL210838  25.335  38.395   8.850
 3896POPC   C1A10839  25.274  38.449   8.550
 3896POPC   D2A10840  25.267  38.447   8.250
 3896POPC   C3A10841  25.312  38.436   7.950
 3896POPC   C4A10842  25.256  38.434   7.650
 3896POPC   C1B10843  25.403  38.207   8.550
 3896POPC   C2B10844  25.375  38.202   8.250
 3896POPC   C3B10845  25.416  38.279   7.950
 3896POPC   C4B10846  25.413  38.219   7.650
 3897POPC   NC310847  22.159  43.842   9.450
 3897POPC   PO410848  22.189  43.935   9.150
 3897POPC   GL110849  22.131  43.903   8.850
 3897POPC   GL210850  22.293  43.762   8.850
 3897POPC   C1A10851  22.157  43.907   8.550
 3897POPC   D2A10852  22.146  43.926   8.250
 3897POPC   C3A10853  22.165  43.899   7.950
 3897POPC   C4A10854  22.121  43.912   7.650
 3897POPC   C1B10855  22.312  43.745   8.550
 3897POPC   C2B10856  22.321  43.739   8.250
 3897POPC   C3B10857  22.377  43.746   7.950
 3897POPC   C4B10858  22.391  43.714   7.650
 3898POPC   NC310859  29.156  42.357   9.450
 3898POPC   PO410860  29.170  42.319   9.150
 3898POPC   GL110861  29.125  42.300   8.850
 3898POPC   GL210862  29.250  42.348   8.850
 3898POPC   C1A10863  29.104  42.354   8.550
 3898POPC   D2A10864  29.151  42.370   8.250
 3898POPC   C3A10865  29.162  42.290   7.950
 3898POPC   C4A10866  29.102  42.297   7.650
 3898POPC   C1B10867  29.355  42.496   8.550
 3898POPC   C2B10868  29.372  42.474   8.250
 3898POPC   C3B10869  29.360  42.488   7.950
 3898POPC   C4B10870  29.362  42.442   7.650
 3899POPC   NC310871   0.416   9.789   9.450
 3899POPC   PO410872   0.451   9.703   9.150
 3899POPC   GL110873   0.448   9.741   8.850
 3899POPC   GL210874   0.377   9.816   8.850
 3899POPC   C1A10875   0.482   9.796   8.550
 3899POPC   D2A10876   0.442   9.735   8.250
 3899POPC   C3A10877   0.487   9.792   7.950
 3899POPC   C4A10878   0.447   9.728   7.650
 3899POPC   C1B10879   0.291   9.937   8.550
 3899POPC   C2B10880   0.225   9.902   8.250
 3899POPC   C3B10881   0.301   9.929   7.950
 3899POPC   C4B10882   0.306   9.923   7.650
 3900POPC   NC310883   0.395   6.690   9.450
 3900POPC   PO410884   0.403   6.602   9.150
 3900POPC   GL110885   0.405   6.672   8.850
 3900POPC   GL210886   0.358   6.578   8.850
 3900POPC   C1A10887   0.419   6.597   8.550
 3900POPC   D2A10888   0.423   6.648   8.250
 3900POPC   C3A10889   0.424   6.615   7.950
 3900POPC   C4A10890   0.460   6.600   7.650
 3900POPC   C1B10891   0.238   6.558   8.550
 3900POPC   C2B10892   0.237   6.465   8.250
 3900POPC   C3B10893   0.233   6.487   7.950
 3900POPC   C4B10894   0.256   6.554   7.650
 3901POPC   NC310895  30.723  41.524   9.450
 3901POPC   PO410896  30.703  41.524   9.150
 3901POPC   GL110897  30.655  41.543   8.850
 3901POPC   GL210898  30.783  41.646   8.850
 3901POPC   C1A10899  30.722  41.519   8.550
 3901POPC   D2A10900  30.690  41.576   8.250
 3901POPC   C3A10901  30.704  41.513   7.950
 3901POPC   C4A10902  30.681  41.548   7.650
 3901POPC   C1B10903  30.850  41.688   8.550
 3901POPC   C2B10904  30.875  41.663   8.250
 3901POPC   C3B10905  30.873  41.707   7.950
 3901POPC   C4B10906  30.868  41.710   7.650
 3902POPC   NC310907  28.411  42.327   9.450
 3902POPC   PO410908  28.390  42.292   9.150
 3902POPC   GL110909  28.399  42.317   8.850
 3902POPC   GL210910  28.228  42.375   8.850
 3902POPC   C1A10911  28.401  42.339   8.550
 3902POPC   D2A10912  28.397  42.315   8.250
 3902POPC   C3A10913  28.325  42.384   7.950
 3902POPC   C4A10914  28.327  42.289   7.650
 3902POPC   C1B10915  28.138  42.407   8.550
 3902POPC   C2B10916  28.126  42.398   8.250
 3902POPC   C3B10917  28.112  42.341   7.950
 3902POPC   C4B10918  28.075  42.377   7.650
 3903POPC   NC310919  25.259  30.686   9.450
 3903POPC   PO410920  25.278  30.735   9.150
 3903POPC   GL110921  25.293  30.685   8.850
 3903POPC   GL210922  25.353  30.555   8.850
 3903POPC   C1A10923  25.252  30.699   8.550
 3903POPC   D2A10924  25.294  30.696   8.250
 3903POPC   C3A10925  25.297  30.671   7.950
 3903POPC   C4A10926  25.314  30.705   7.650
 3903POPC   C1B10927  25.388  30.510   8.550
 3903POPC   C2B10928  25.430  30.544   8.250
 3903POPC   C3B10929  25.429  30.486   7.950
 3903POPC   C4B10930  25.389  30.508   7.650
 3904POPC   NC310931   3.519  36.090   9.450
 3904POPC   PO410932   3.585  36.176   9.150
 3904POPC   GL110933   3.578  36.078   8.850
 3904POPC   GL210934   3.563  36.260   8.850
 3904POPC   C1A10935   3.526  36.173   8.550
 3904POPC   D2A10936   3.583  36.082   8.250
 3904POPC   C3A10937   3.586  36.079   7.950
 3904POPC   C4A10938   3.563  36.158   7.650
 3904POPC   C1B10939   3.568  36.423   8.550
 3904POPC   C2B10940   3.556  36.360   8.250
 3904POPC   C3B10941   3.544  36.380   7.950
 3904POPC   C4B10942   3.514  36.328   7.650
 3905POPC   NC310943  35.348  44.622   9.450
 3905POPC   PO410944  35.394  44.631   9.150
 3905POPC   GL110945  35.390  44.653   8.850
 3905POPC   GL210946  35.411  44.565   8.850
 3905POPC   C1A10947  35.305  44.615   8.550
 3905POPC   D2A10948  35.319  44.637   8.250
 3905POPC   C3A10949  35.339  44.619   7.950
 3905POPC   C4A10950  35.342  44.701   7.650
 3905POPC   C1B10951  35.531  44.467   8.550
 3905POPC   C2B10952  35.495  44.456   8.250
 3905POPC   C3B10953  35.469  44.507   7.950
 3905POPC   C4B10954  35.557  44.489   7.650
 3906POPC   NC310955  13.583  25.295   9.450
 3906POPC   PO410956  13.582  25.271   9.150
 3906POPC   GL110957  13.600  25.293   8.850
 3906POPC   GL210958  13.582  25.411   8.850
 3906POPC   C1A10959  13.621  25.254   8.550
 3906POPC   D2A10960  13.660  25.217   8.250
 3906POPC   C3A10961  13.641  25.276   7.950
 3906POPC   C4A10962  13.591  25.276   7.650
 3906POPC   C1B10963  13.620  25.528   8.550
 3906POPC   C2B10964  13.628  25.561   8.250
 3906POPC   C3B10965  13.636  25.554   7.950
 3906POPC   C4B10966  13.641  25.530   7.650
 3907POPC   NC310967   1.994  29.922   9.450
 3907POPC   PO410968   1.993  29.968   9.150
 3907POPC   GL110969   1.988  29.947   8.850
 3907POPC   GL210970   2.120  29.886   8.850
 3907POPC   C1A10971   2.029  29.923   8.550
 3907POPC   D2A10972   1.946  29.871   8.250
 3907POPC   C3A10973   2.018  29.882   7.950
 3907POPC   C4A10974   2.002  29.890   7.650
 3907POPC   C1B10975   2.198  29.775   8.550
 3907POPC   C2B10976   2.177  29.831   8.250
 3907POPC   C3B10977   2.246  29.825   7.950
 3907POPC   C4B10978   2.257  29.823   7.650
 3908POPC   NC310979  15.994   8.988   9.450
 3908POPC   PO410980  15.920   8.945   9.150
 3908POPC   GL110981  15.938   8.982   8.850
 3908POPC   GL210982  15.940   8.890   8.850
 3908POPC   C1A10983  15.949   8.981   8.550
 3908POPC   D2A10984  15.987   8.962   8.250
 3908POPC   C3A10985  15.952   8.963   7.950
 3908POPC   C4A10986  16.002   9.005   7.650
 3908POPC   C1B10987  15.867   8.775   8.550
 3908POPC   C2B10988  15.883   8.741   8.250
 3908POPC   C3B10989  15.903   8.738   7.950
 3908POPC   C4B10990  15.926   8.760   7.650
 3909POPC   NC310991  23.764   1.171   9.450
 3909POPC   PO410992  23.732   1.207   9.150
 3909POPC   GL110993  23.761   1.214   8.850
 3909POPC   GL210994  23.581   1.125   8.850
 3909POPC   C1A10995  23.679   1.211   8.550
 3909POPC   D2A10996  23.671   1.252   8.250
 3909POPC   C3A10997  23.695   1.221   7.950
 3909POPC   C4A10998  23.745   1.189   7.650
 3909POPC   C1B10999  23.535   1.101   8.550
 3909POPC   C2B11000  23.541   1.133   8.250
 3909POPC   C3B11001  23.487   1.097   7.950
 3909POPC   C4B11002  23.485   1.044   7.650
 3910POPC   NC311003  14.444  23.739   9.450
 3910POPC   PO411004  14.393  23.699   9.150
 3910POPC   GL111005  14.363  23.684   8.850
 3910POPC   GL211006  14.432  23.836   8.850
 3910POPC   C1A11007  14.392  23.725   8.550
 3910POPC   D2A11008  14.359  23.738   8.250
 3910POPC   C3A11009  14.378  23.761   7.950
 3910POPC   C4A11010  14.365  23.759   7.650
 3910POPC   C1B11011  14.480  23.987   8.550
 3910POPC   C2B11012  14.443  23.976   8.250
 3910POPC   C3B11013  14.409  23.984   7.950
 3910POPC   C4B11014  14.399  23.937   7.650
 3911POPC   NC311015  26.014  22.131   9.450
 3911POPC   PO411016  26.090  22.203   9.150
 3911POPC   GL111017  26.054  22.139   8.850
 3911POPC   GL211018  25.910  22.086   8.850
 3911POPC   C1A11019  26.053  22.180   8.550
 3911POPC   D2A11020  26.050  22.139   8.250
 3911POPC   C3A11021  26.051  22.151   7.950
 3911POPC   C4A11022  26.034  22.149   7.650
 3911POPC   C1B11023  25.794  22.127   8.550
 3911POPC   C2B11024  25.832  22.077   8.250
 3911POPC   C3B11025  25.753  22.118   7.950
 3911POPC   C4B11026  25.783  22.085   7.650
 3912POPC   NC311027  15.933  24.529   9.450
 3912POPC   PO411028  15.986  24.509   9.150
 3912POPC   GL111029  15.921  24.442   8.850
 3912POPC   GL211030  15.839  24.517   8.850
 3912POPC   C1A11031  15.945  24.530   8.550
 3912POPC   D2A11032  15.930  24.483   8.250
 3912POPC   C3A11033  15.947  24.456   7.950
 3912POPC   C4A11034  16.005  24.499   7.650
 3912POPC   C1B11035  15.761  24.595   8.550
 3912POPC   C2B11036  15.765  24.623   8.250
 3912POPC   C3B11037  15.790  24.661   7.950
 3912POPC   C4B11038  15.739  24.683   7.650
 3913POPC   NC311039  39.221  41.605   9.450
 3913POPC   PO411040  39.207  41.521   9.150
 3913POPC   GL111041  39.222  41.510   8.850
 3913POPC   GL211042  39.342  41.651   8.850
 3913POPC   C1A11043  39.271  41.608   8.550
 3913POPC   D2A11044  39.235  41.537   8.250
 3913POPC   C3A11045  39.248  41.560   7.950
 3913POPC   C4A11046  39.215  41.512   7.650
 3913POPC   C1B11047  39.422  41.800   8.550
 3913POPC   C2B11048  39.428  41.724   8.250
 3913POPC   C3B11049  39.375  41.749   7.950
 3913POPC   C4B11050  39.367  41.756   7.650
 3914POPC   NC311051  32.226  24.444   9.450
 3914POPC   PO411052  32.236  24.454   9.150
 3914POPC   GL111053  32.261  24.461   8.850
 3914POPC   GL211054  32.245  24.620   8.850
 3914POPC   C1A11055  32.267  24.537   8.550
 3914POPC   D2A11056  32.242  24.446   8.250
 3914POPC   C3A11057  32.294  24.479   7.950
 3914POPC   C4A11058  32.216  24.496   7.650
 3914POPC   C1B11059  32.243  24.767   8.550
 3914POPC   C2B11060  32.224  24.765   8.250
 3914POPC   C3B11061  32.181  24.691   7.950
 3914POPC   C4B11062  32.227  24.700   7.650
 3915POPC   NC311063   6.676  43.106   9.450
 3915POPC   PO411064   6.635  43.096   9.150
 3915POPC   GL111065   6.604  43.118   8.850
 3915POPC   GL211066   6.580  43.270   8.850
 3915POPC   C1A11067   6.644  43.083   8.550
 3915POPC   D2A11068   6.644  43.072   8.250
 3915POPC   C3A11069   6.620  43.118   7.950
 3915POPC   C4A11070   6.649  43.067   7.650
 3915POPC   C1B11071   6.617  43.323   8.550
 3915POPC   C2B11072   6.612  43.352   8.250
 3915POPC   C3B11073   6.620  43.391   7.950
 3915POPC   C4B11074   6.587  43.311   7.650
 3916POPC   NC311075  14.427  28.333   9.450
 3916POPC   PO411076  14.385  28.328   9.150
 3916POPC   GL111077  14.394  28.342   8.850
 3916POPC   GL211078  14.366  28.481   8.850
 3916POPC   C1A11079  14.378  28.413   8.550
 3916POPC   D2A11080  14.435  28.325   8.250
 3916POPC   C3A11081  14.370  28.412   7.950
 3916POPC   C4A11082  14.425  28.401   7.650
 3916POPC   C1B11083  14.202  28.559   8.550
 3916POPC   C2B11084  14.216  28.578   8.250
 3916POPC   C3B11085  14.282  28.588   7.950
 3916POPC   C4B11086  14.249  28.580   7.650
 3917POPC   NC311087  38.421  14.370   9.450
 3917POPC   PO411088  38.447  14.380   9.150
 3917POPC   GL111089  38.501  14.434   8.850
 3917POPC   GL211090  38.551  14.402   8.850
 3917POPC   C1A11091  38.481  14.380   8.550
 3917POPC   D2A11092  38.505  14.404   8.250
 3917POPC   C3A11093  38.453  14.410   7.950
 3917POPC   C4A11094  38.436  14.377   7.650
 3917POPC   C1B11095  38.712  14.456   8.550
 3917POPC   C2B11096  38.676  14.540   8.250
 3917POPC   C3B11097  38.644  14.522   7.950
 3917POPC   C4B11098  38.729  14.456   7.650
 3918POPC   NC311099  13.666  10.545   9.450
 3918POPC   PO411100  13.596  10.508   9.150
 3918POPC   GL111101  13.648  10.491   8.850
 3918POPC   GL211102  13.734  10.538   8.850
 3918POPC   C1A11103  13.661  10.487   8.550
 3918POPC   D2A11104  13.642  10.513   8.250
 3918POPC   C3A11105  13.633  10.480   7.950
 3918POPC   C4A11106  13.667  10.522   7.650
 3918POPC   C1B11107  13.913  10.601   8.550
 3918POPC   C2B11108  13.864  10.635   8.250
 3918POPC   C3B11109  13.842  10.610   7.950
 3918POPC   C4B11110  13.823  10.597   7.650
 3919POPC   NC311111   4.291  19.820   9.450
 3919POPC   PO411112   4.339  19.842   9.150
 3919POPC   GL111113   4.346  19.834   8.850
 3919POPC   GL211114   4.256  19.716   8.850
 3919POPC   C1A11115   4.357  19.805   8.550
 3919POPC   D2A11116   4.267  19.865   8.250
 3919POPC   C3A11117   4.306  19.856   7.950
 3919POPC   C4A11118   4.344  19.806   7.650
 3919POPC   C1B11119   4.299  19.633   8.550
 3919POPC   C2B11120   4.269  19.592   8.250
 3919POPC   C3B11121   4.213  19.622   7.950
 3919POPC   C4B11122   4.262  19.605   7.650
 3920POPC   NC311123  18.303  22.985   9.450
 3920POPC   PO411124  18.302  22.888   9.150
 3920POPC   GL111125  18.307  22.967   8.850
 3920POPC   GL211126  18.331  23.066   8.850
 3920POPC   C1A11127  18.320  22.939   8.550
 3920POPC   D2A11128  18.247  22.974   8.250
 3920POPC   C3A11129  18.318  22.904   7.950
 3920POPC   C4A11130  18.271  22.904   7.650
 3920POPC   C1B11131  18.307  23.225   8.550
 3920POPC   C2B11132  18.304  23.149   8.250
 3920POPC   C3B11133  18.355  23.217   7.950
 3920POPC   C4B11134  18.363  23.186   7.650
 3921POPC   NC311135  34.536   2.797   9.450
 3921POPC   PO411136  34.622   2.788   9.150
 3921POPC   GL111137  34.560   2.794   8.850
 3921POPC   GL211138  34.452   2.747   8.850
 3921POPC   C1A11139  34.577   2.769   8.550
 3921POPC   D2A11140  34.565   2.770   8.250
 3921POPC   C3A11141  34.579   2.795   7.950
 3921POPC   C4A11142  34.598   2.798   7.650
 3921POPC   C1B11143  34.322   2.821   8.550
 3921POPC   C2B11144  34.335   2.746   8.250
 3921POPC   C3B11145  34.307   2.801   7.950
 3921POPC   C4B11146  34.334   2.821   7.650
 3922POPC   NC311147   9.733  26.015   9.450
 3922POPC   PO411148   9.747  26.007   9.150
 3922POPC   GL111149   9.792  26.019   8.850
 3922POPC   GL211150   9.703  25.910   8.850
 3922POPC   C1A11151   9.724  26.037   8.550
 3922POPC   D2A11152   9.758  26.019   8.250
 3922POPC   C3A11153   9.748  26.063   7.950
 3922POPC   C4A11154   9.734  26.012   7.650
 3922POPC   C1B11155   9.547  25.818   8.550
 3922POPC   C2B11156   9.588  25.880   8.250
 3922POPC   C3B11157   9.553  25.818   7.950
 3922POPC   C4B11158   9.602  25.889   7.650
 3923POPC   NC311159  15.963  27.549   9.450
 3923POPC   PO411160  15.942  27.578   9.150
 3923POPC   GL111161  15.921  27.636   8.850
 3923POPC   GL211162  15.974  27.690   8.850
 3923POPC   C1A11163  15.938  27.638   8.550
 3923POPC   D2A11164  15.984  27.548   8.250
 3923POPC   C3A11165  15.951  27.571   7.950
 3923POPC   C4A11166  15.955  27.623   7.650
 3923POPC   C1B11167  15.907  27.854   8.550
 3923POPC   C2B11168  15.966  27.855   8.250
 3923POPC   C3B11169  15.981  27.797   7.950
 3923POPC   C4B11170  15.936  27.874   7.650
 3924POPC   NC311171   0.418   5.824   9.450
 3924POPC   PO411172   0.486   5.903   9.150
 3924POPC   GL111173   0.487   5.883   8.850
 3924POPC   GL211174   0.536   5.820   8.850
 3924POPC   C1A11175   0.488   5.908   8.550
 3924POPC   D2A11176   0.453   5.828   8.250
 3924POPC   C3A11177   0.406   5.884   7.950
 3924POPC   C4A11178   0.446   5.829   7.650
 3924POPC   C1B11179   0.696   5.848   8.550
 3924POPC   C2B11180   0.684   5.880   8.250
 3924POPC   C3B11181   0.720   5.850   7.950
 3924POPC   C4B11182   0.703   5.828   7.650
 3925POPC   NC311183   1.985  26.007   9.450
 3925POPC   PO411184   1.979  26.074   9.150
 3925POPC   GL111185   1.958  26.030   8.850
 3925POPC   GL211186   2.143  26.043   8.850
 3925POPC   C1A11187   1.986  26.056   8.550
 3925POPC   D2A11188   2.028  26.009   8.250
 3925POPC   C3A11189   2.022  25.992   7.950
 3925POPC   C4A11190   1.953  26.028   7.650
 3925POPC   C1B11191   2.220  26.008   8.550
 3925POPC   C2B11192   2.255  25.986   8.250
 3925POPC   C3B11193   2.199  25.938   7.950
 3925POPC   C4B11194   2.183  25.952   7.650
 3926POPC   NC311195  36.904   6.618   9.450
 3926POPC   PO411196  36.859   6.645   9.150
 3926POPC   GL111197  36.877   6.664   8.850
 3926POPC   GL211198  36.731   6.663   8.850
 3926POPC   C1A11199  36.879   6.688   8.550
 3926POPC   D2A11200  36.911   6.677   8.250
 3926POPC   C3A11201  36.936   6.667   7.950
 3926POPC   C4A11202  36.920   6.620   7.650
 3926POPC   C1B11203  36.638   6.662   8.550
 3926POPC   C2B11204  36.656   6.699   8.250
 3926POPC   C3B11205  36.637   6.701   7.950
 3926POPC   C4B11206  36.679   6.657   7.650
 3927POPC   NC311207  16.743  44.656   9.450
 3927POPC   PO411208  16.771  44.632   9.150
 3927POPC   GL111209  16.726  44.620   8.850
 3927POPC   GL211210  16.740  44.782   8.850
 3927POPC   C1A11211  16.753  44.692   8.550
 3927POPC   D2A11212  16.729  44.703   8.250
 3927POPC   C3A11213  16.709  44.684   7.950
 3927POPC   C4A11214  16.697  44.703   7.650
 3927POPC   C1B11215  16.839  44.889   8.550
 3927POPC   C2B11216  16.817  44.902   8.250
 3927POPC   C3B11217  16.810  44.890   7.950
 3927POPC   C4B11218  16.873  44.852   7.650
 3928POPC   NC311219  39.232  15.183   9.450
 3928POPC   PO411220  39.196  15.172   9.150
 3928POPC   GL111221  39.272  15.149   8.850
 3928POPC   GL211222  39.132  15.062   8.850
 3928POPC   C1A11223  39.197  15.155   8.550
 3928POPC   D2A11224  39.220  15.184   8.250
 3928POPC   C3A11225  39.194  15.208   7.950
 3928POPC   C4A11226  39.232  15.194   7.650
 3928POPC   C1B11227  39.112  14.989   8.550
 3928POPC   C2B11228  39.023  14.967   8.250
 3928POPC   C3B11229  39.049  14.966   7.950
 3928POPC   C4B11230  39.043  15.043   7.650
 3929POPC   NC311231  33.017  10.487   9.450
 3929POPC   PO411232  32.986  10.534   9.150
 3929POPC   GL111233  33.048  10.542   8.850
 3929POPC   GL211234  33.035  10.423   8.850
 3929POPC   C1A11235  33.049  10.563   8.550
 3929POPC   D2A11236  33.043  10.530   8.250
 3929POPC   C3A11237  33.053  10.491   7.950
 3929POPC   C4A11238  33.003  10.506   7.650
 3929POPC   C1B11239  33.014  10.229   8.550
 3929POPC   C2B11240  33.029  10.286   8.250
 3929POPC   C3B11241  33.057  10.263   7.950
 3929POPC   C4B11242  33.059  10.227   7.650
 3930POPC   NC311243  32.277  16.740   9.450
 3930POPC   PO411244  32.273  16.747   9.150
 3930POPC   GL111245  32.210  16.729   8.850
 3930POPC   GL211246  32.360  16.756   8.850
 3930POPC   C1A11247  32.260  16.704   8.550
 3930POPC   D2A11248  32.216  16.755   8.250
 3930POPC   C3A11249  32.204  16.712   7.950
 3930POPC   C4A11250  32.206  16.724   7.650
 3930POPC   C1B11251  32.480  16.789   8.550
 3930POPC   C2B11252  32.454  16.729   8.250
 3930POPC   C3B11253  32.540  16.727   7.950
 3930POPC   C4B11254  32.491  16.720   7.650
 3931POPC   NC311255   7.411  22.166   9.450
 3931POPC   PO411256   7.407  22.142   9.150
 3931POPC   GL111257   7.400  22.202   8.850
 3931POPC   GL211258   7.477  22.208   8.850
 3931POPC   C1A11259   7.423  22.162   8.550
 3931POPC   D2A11260   7.459  22.174   8.250
 3931POPC   C3A11261   7.424  22.121   7.950
 3931POPC   C4A11262   7.437  22.201   7.650
 3931POPC   C1B11263   7.604  22.334   8.550
 3931POPC   C2B11264   7.590  22.324   8.250
 3931POPC   C3B11265   7.547  22.336   7.950
 3931POPC   C4B11266   7.604  22.390   7.650
 3932POPC   NC311267  38.467  39.208   9.450
 3932POPC   PO411268  38.453  39.227   9.150
 3932POPC   GL111269  38.494  39.199   8.850
 3932POPC   GL211270  38.507  39.093   8.850
 3932POPC   C1A11271  38.440  39.262   8.550
 3932POPC   D2A11272  38.420  39.223   8.250
 3932POPC   C3A11273  38.475  39.234   7.950
 3932POPC   C4A11274  38.459  39.248   7.650
 3932POPC   C1B11275  38.582  38.978   8.550
 3932POPC   C2B11276  38.520  39.017   8.250
 3932POPC   C3B11277  38.508  39.051   7.950
 3932POPC   C4B11278  38.554  38.992   7.650
 3933POPC   NC311279  35.364  35.358   9.450
 3933POPC   PO411280  35.329  35.398   9.150
 3933POPC   GL111281  35.333  35.354   8.850
 3933POPC   GL211282  35.507  35.318   8.850
 3933POPC   C1A11283  35.389  35.359   8.550
 3933POPC   D2A11284  35.397  35.400   8.250
 3933POPC   C3A11285  35.375  35.390   7.950
 3933POPC   C4A11286  35.333  35.386   7.650
 3933POPC   C1B11287  35.545  35.281   8.550
 3933POPC   C2B11288  35.601  35.217   8.250
 3933POPC   C3B11289  35.556  35.258   7.950
 3933POPC   C4B11290  35.536  35.280   7.650
 3934POPC   NC311291  32.218  17.513   9.450
 3934POPC   PO411292  32.277  17.552   9.150
 3934POPC   GL111293  32.232  17.494   8.850
 3934POPC   GL211294  32.280  17.424   8.850
 3934POPC   C1A11295  32.290  17.530   8.550
 3934POPC   D2A11296  32.241  17.505   8.250
 3934POPC   C3A11297  32.295  17.496   7.950
 3934POPC   C4A11298  32.207  17.459   7.650
 3934POPC   C1B11299  32.407  17.284   8.550
 3934POPC   C2B11300  32.348  17.263   8.250
 3934POPC   C3B11301  32.347  17.293   7.950
 3934POPC   C4B11302  32.438  17.258   7.650
 3935POPC   NC311303  42.289  19.820   9.450
 3935POPC   PO411304  42.285  19.842   9.150
 3935POPC   GL111305  42.310  19.849   8.850
 3935POPC   GL211306  42.462  19.785   8.850
 3935POPC   C1A11307  42.324  19.853   8.550
 3935POPC   D2A11308  42.287  19.849   8.250
 3935POPC   C3A11309  42.372  19.872   7.950
 3935POPC   C4A11310  42.290  19.823   7.650
 3935POPC   C1B11311  42.631  19.835   8.550
 3935POPC   C2B11312  42.627  19.805   8.250
 3935POPC   C3B11313  42.599  19.823   7.950
 3935POPC   C4B11314  42.624  19.797   7.650
 3936POPC   NC311315  20.651  28.324   9.450
 3936POPC   PO411316  20.628  28.372   9.150
 3936POPC   GL111317  20.613  28.323   8.850
 3936POPC   GL211318  20.687  28.221   8.850
 3936POPC   C1A11319  20.655  28.352   8.550
 3936POPC   D2A11320  20.590  28.327   8.250
 3936POPC   C3A11321  20.656  28.399   7.950
 3936POPC   C4A11322  20.580  28.349   7.650
 3936POPC   C1B11323  20.710  28.155   8.550
 3936POPC   C2B11324  20.639  28.127   8.250
 3936POPC   C3B11325  20.669  28.148   7.950
 3936POPC   C4B11326  20.729  28.122   7.650
 3937POPC   NC311327   7.407  10.554   9.450
 3937POPC   PO411328   7.408  10.570   9.150
 3937POPC   GL111329   7.468  10.557   8.850
 3937POPC   GL211330   7.548  10.473   8.850
 3937POPC   C1A11331   7.390  10.535   8.550
 3937POPC   D2A11332   7.388  10.488   8.250
 3937POPC   C3A11333   7.433  10.555   7.950
 3937POPC   C4A11334   7.404  10.482   7.650
 3937POPC   C1B11335   7.624  10.342   8.550
 3937POPC   C2B11336   7.640  10.346   8.250
 3937POPC   C3B11337   7.588  10.400   7.950
 3937POPC   C4B11338   7.593  10.418   7.650
 3938POPC   NC311339  12.878  29.900   9.450
 3938POPC   PO411340  12.888  29.890   9.150
 3938POPC   GL111341  12.886  29.933   8.850
 3938POPC   GL211342  12.905  29.806   8.850
 3938POPC   C1A11343  12.851  29.942   8.550
 3938POPC   D2A11344  12.826  29.969   8.250
 3938POPC   C3A11345  12.855  29.924   7.950
 3938POPC   C4A11346  12.881  29.906   7.650
 3938POPC   C1B11347  12.918  29.710   8.550
 3938POPC   C2B11348  12.912  29.702   8.250
 3938POPC   C3B11349  12.863  29.693   7.950
 3938POPC   C4B11350  12.900  29.631   7.650
 3939POPC   NC311351   3.541   8.974   9.450
 3939POPC   PO411352   3.567   8.930   9.150
 3939POPC   GL111353   3.517   8.976   8.850
 3939POPC   GL211354   3.475   8.870   8.850
 3939POPC   C1A11355   3.556   8.931   8.550
 3939POPC   D2A11356   3.508   8.935   8.250
 3939POPC   C3A11357   3.569   8.983   7.950
 3939POPC   C4A11358   3.551   8.927   7.650
 3939POPC   C1B11359   3.277   8.848   8.550
 3939POPC   C2B11360   3.296   8.863   8.250
 3939POPC   C3B11361   3.276   8.905   7.950
 3939POPC   C4B11362   3.279   8.863   7.650
 3940POPC   NC311363   0.449  15.192   9.450
 3940POPC   PO411364   0.465  15.136   9.150
 3940POPC   GL111365   0.471  15.147   8.850
 3940POPC   GL211366   0.462  15.073   8.850
 3940POPC   C1A11367   0.390  15.131   8.550
 3940POPC   D2A11368   0.400  15.177   8.250
 3940POPC   C3A11369   0.458  15.152   7.950
 3940POPC   C4A11370   0.422  15.157   7.650
 3940POPC   C1B11371   0.363  14.909   8.550
 3940POPC   C2B11372   0.418  14.892   8.250
 3940POPC   C3B11373   0.437  14.912   7.950
 3940POPC   C4B11374   0.364  14.899   7.650
 3941POPC   NC311375   4.330  29.151   9.450
 3941POPC   PO411376   4.355  29.135   9.150
 3941POPC   GL111377   4.359  29.171   8.850
 3941POPC   GL211378   4.254  28.988   8.850
 3941POPC   C1A11379   4.287  29.181   8.550
 3941POPC   D2A11380   4.293  29.121   8.250
 3941POPC   C3A11381   4.315  29.151   7.950
 3941POPC   C4A11382   4.306  29.140   7.650
 3941POPC   C1B11383   4.228  28.928   8.550
 3941POPC   C2B11384   4.242  28.935   8.250
 3941POPC   C3B11385   4.203  28.918   7.950
 3941POPC   C4B11386   4.214  28.924   7.650
 3942POPC   NC311387  11.317  11.348   9.450
 3942POPC   PO411388  11.274  11.323   9.150
 3942POPC   GL111389  11.331  11.347   8.850
 3942POPC   GL211390  11.157  11.204   8.850
 3942POPC   C1A11391  11.334  11.305   8.550
 3942POPC   D2A11392  11.257  11.340   8.250
 3942POPC   C3A11393  11.255  11.300   7.950
 3942POPC   C4A11394  11.342  11.252   7.650
 3942POPC   C1B11395  11.066  11.156   8.550
 3942POPC   C2B11396  11.094  11.180   8.250
 3942POPC   C3B11397  11.098  11.135   7.950
 3942POPC   C4B11398  11.123  11.175   7.650
 3943POPC   NC311399   7.427  15.951   9.450
 3943POPC   PO411400   7.398  15.944   9.150
 3943POPC   GL111401   7.408  15.944   8.850
 3943POPC   GL211402   7.399  15.818   8.850
 3943POPC   C1A11403   7.436  16.000   8.550
 3943POPC   D2A11404   7.437  16.004   8.250
 3943POPC   C3A11405   7.457  15.966   7.950
 3943POPC   C4A11406   7.428  15.930   7.650
 3943POPC   C1B11407   7.460  15.664   8.550
 3943POPC   C2B11408   7.453  15.743   8.250
 3943POPC   C3B11409   7.418  15.727   7.950
 3943POPC   C4B11410   7.435  15.689   7.650
 3944POPC   NC311411   8.195  26.077   9.450
 3944POPC   PO411412   8.159  26.014   9.150
 3944POPC   GL111413   8.212  26.089   8.850
 3944POPC   GL211414   8.104  26.075   8.850
 3944POPC   C1A11415   8.180  26.049   8.550
 3944POPC   D2A11416   8.238  26.068   8.250
 3944POPC   C3A11417   8.230  26.078   7.950
 3944POPC   C4A11418   8.156  26.090   7.650
 3944POPC   C1B11419   7.959  25.973   8.550
 3944POPC   C2B11420   7.992  26.005   8.250
 3944POPC   C3B11421   7.997  26.013   7.950
 3944POPC   C4B11422   7.973  25.980   7.650
 3945POPC   NC311423  11.308  15.221   9.450
 3945POPC   PO411424  11.312  15.197   9.150
 3945POPC   GL111425  11.338  15.192   8.850
 3945POPC   GL211426  11.195  15.254   8.850
 3945POPC   C1A11427  11.277  15.205   8.550
 3945POPC   D2A11428  11.271  15.148   8.250
 3945POPC   C3A11429  11.333  15.188   7.950
 3945POPC   C4A11430  11.264  15.143   7.650
 3945POPC   C1B11431  11.149  15.422   8.550
 3945POPC   C2B11432  11.117  15.421   8.250
 3945POPC   C3B11433  11.174  15.345   7.950
 3945POPC   C4B11434  11.187  15.391   7.650
 3946POPC   NC311435  38.432  17.507   9.450
 3946POPC   PO411436  38.408  17.475   9.150
 3946POPC   GL111437  38.495  17.546   8.850
 3946POPC   GL211438  38.520  17.644   8.850
 3946POPC   C1A11439  38.437  17.528   8.550
 3946POPC   D2A11440  38.406  17.514   8.250
 3946POPC   C3A11441  38.421  17.532   7.950
 3946POPC   C4A11442  38.481  17.470   7.650
 3946POPC   C1B11443  38.470  17.739   8.550
 3946POPC   C2B11444  38.458  17.783   8.250
 3946POPC   C3B11445  38.541  17.722   7.950
 3946POPC   C4B11446  38.489  17.773   7.650
 3947POPC   NC311447  15.189  29.879   9.450
 3947POPC   PO411448  15.190  29.898   9.150
 3947POPC   GL111449  15.200  29.959   8.850
 3947POPC   GL211450  15.125  30.023   8.850
 3947POPC   C1A11451  15.153  29.930   8.550
 3947POPC   D2A11452  15.137  29.892   8.250
 3947POPC   C3A11453  15.207  29.947   7.950
 3947POPC   C4A11454  15.135  29.917   7.650
 3947POPC   C1B11455  14.968  30.113   8.550
 3947POPC   C2B11456  14.983  30.048   8.250
 3947POPC   C3B11457  14.975  30.038   7.950
 3947POPC   C4B11458  14.985  30.090   7.650
 3948POPC   NC311459  44.663  35.347   9.450
 3948POPC   PO411460  44.710  35.361   9.150
 3948POPC   GL111461  44.666  35.358   8.850
 3948POPC   GL211462  44.685  35.256   8.850
 3948POPC   C1A11463  44.710  35.369   8.550
 3948POPC   D2A11464  44.625  35.389   8.250
 3948POPC   C3A11465  44.680  35.363   7.950
 3948POPC   C4A11466  44.664  35.383   7.650
 3948POPC   C1B11467  44.762  35.145   8.550
 3948POPC   C2B11468  44.760  35.151   8.250
 3948POPC   C3B11469  44.789  35.075   7.950
 3948POPC   C4B11470  44.696  35.090   7.650
 3949POPC   NC311471   0.436  43.085   9.450
 3949POPC   PO411472   0.469  43.095   9.150
 3949POPC   GL111473   0.411  43.095   8.850
 3949POPC   GL211474   0.424  43.214   8.850
 3949POPC   C1A11475   0.478  43.145   8.550
 3949POPC   D2A11476   0.425  43.143   8.250
 3949POPC   C3A11477   0.407  43.092   7.950
 3949POPC   C4A11478   0.458  43.071   7.650
 3949POPC   C1B11479   0.359  43.360   8.550
 3949POPC   C2B11480   0.456  43.339   8.250
 3949POPC   C3B11481   0.443  43.391   7.950
 3949POPC   C4B11482   0.397  43.356   7.650
 3950POPC   NC311483   2.752   5.122   9.450
 3950POPC   PO411484   2.740   5.138   9.150
 3950POPC   GL111485   2.735   5.068   8.850
 3950POPC   GL211486   2.806   4.965   8.850
 3950POPC   C1A11487   2.805   5.110   8.550
 3950POPC   D2A11488   2.729   5.085   8.250
 3950POPC   C3A11489   2.785   5.085   7.950
 3950POPC   C4A11490   2.737   5.140   7.650
 3950POPC   C1B11491   2.811   4.878   8.550
 3950POPC   C2B11492   2.760   4.865   8.250
 3950POPC   C3B11493   2.761   4.824   7.950
 3950POPC   C4B11494   2.746   4.806   7.650
 3951POPC   NC311495  29.179  12.063   9.450
 3951POPC   PO411496  29.145  12.103   9.150
 3951POPC   GL111497  29.162  12.073   8.850
 3951POPC   GL211498  29.054  12.045   8.850
 3951POPC   C1A11499  29.155  12.046   8.550
 3951POPC   D2A11500  29.172  12.112   8.250
 3951POPC   C3A11501  29.097  12.096   7.950
 3951POPC   C4A11502  29.187  12.047   7.650
 3951POPC   C1B11503  28.975  11.912   8.550
 3951POPC   C2B11504  28.944  11.891   8.250
 3951POPC   C3B11505  28.905  11.935   7.950
 3951POPC   C4B11506  28.980  11.946   7.650
 3952POPC   NC311507  36.127   5.118   9.450
 3952POPC   PO411508  36.143   5.072   9.150
 3952POPC   GL111509  36.116   5.091   8.850
 3952POPC   GL211510  35.997   5.093   8.850
 3952POPC   C1A11511  36.151   5.129   8.550
 3952POPC   D2A11512  36.147   5.110   8.250
 3952POPC   C3A11513  36.101   5.095   7.950
 3952POPC   C4A11514  36.094   5.074   7.650
 3952POPC   C1B11515  35.851   5.189   8.550
 3952POPC   C2B11516  35.908   5.216   8.250
 3952POPC   C3B11517  35.886   5.221   7.950
 3952POPC   C4B11518  35.873   5.134   7.650
 3953POPC   NC311519  36.160  31.441   9.450
 3953POPC   PO411520  36.165  31.480   9.150
 3953POPC   GL111521  36.100  31.464   8.850
 3953POPC   GL211522  36.013  31.400   8.850
 3953POPC   C1A11523  36.093  31.496   8.550
 3953POPC   D2A11524  36.130  31.500   8.250
 3953POPC   C3A11525  36.137  31.502   7.950
 3953POPC   C4A11526  36.080  31.447   7.650
 3953POPC   C1B11527  35.865  31.331   8.550
 3953POPC   C2B11528  35.885  31.396   8.250
 3953POPC   C3B11529  35.917  31.375   7.950
 3953POPC   C4B11530  35.924  31.321   7.650
 3954POPC   NC311531  15.160  43.913   9.450
 3954POPC   PO411532  15.168  43.858   9.150
 3954POPC   GL111533  15.197  43.851   8.850
 3954POPC   GL211534  15.136  43.719   8.850
 3954POPC   C1A11535  15.213  43.900   8.550
 3954POPC   D2A11536  15.149  43.902   8.250
 3954POPC   C3A11537  15.141  43.888   7.950
 3954POPC   C4A11538  15.203  43.848   7.650
 3954POPC   C1B11539  15.219  43.604   8.550
 3954POPC   C2B11540  15.217  43.656   8.250
 3954POPC   C3B11541  15.153  43.626   7.950
 3954POPC   C4B11542  15.160  43.643   7.650
 3955POPC   NC311543  43.889   1.211   9.450
 3955POPC   PO411544  43.907   1.203   9.150
 3955POPC   GL111545  43.925   1.237   8.850
 3955POPC   GL211546  43.747   1.146   8.850
 3955POPC   C1A11547  43.894   1.244   8.550
 3955POPC   D2A11548  43.870   1.234   8.250
 3955POPC   C3A11549  43.890   1.210   7.950
 3955POPC   C4A11550  43.910   1.248   7.650
 3955POPC   C1B11551  43.666   1.065   8.550
 3955POPC   C2B11552  43.677   1.101   8.250
 3955POPC   C3B11553  43.626   1.052   7.950
 3955POPC   C4B11554  43.619   1.087   7.650
 3956POPC   NC311555  33.044   7.410   9.450
 3956POPC   PO411556  33.049   7.395   9.150
 3956POPC   GL111557  33.020   7.399   8.850
 3956POPC   GL211558  33.047   7.496   8.850
 3956POPC   C1A11559  33.026   7.386   8.550
 3956POPC   D2A11560  33.009   7.456   8.250
 3956POPC   C3A11561  32.992   7.425   7.950
 3956POPC   C4A11562  32.981   7.428   7.650
 3956POPC   C1B11563  33.067   7.626   8.550
 3956POPC   C2B11564  33.125   7.693   8.250
 3956POPC   C3B11565  33.145   7.673   7.950
 3956POPC   C4B11566  33.138   7.666   7.650
 3957POPC   NC311567  22.163   6.666   9.450
 3957POPC   PO411568  22.117   6.665   9.150
 3957POPC   GL111569  22.139   6.629   8.850
 3957POPC   GL211570  22.068   6.545   8.850
 3957POPC   C1A11571  22.156   6.605   8.550
 3957POPC   D2A11572  22.118   6.615   8.250
 3957POPC   C3A11573  22.168   6.651   7.950
 3957POPC   C4A11574  22.170   6.635   7.650
 3957POPC   C1B11575  21.968   6.502   8.550
 3957POPC   C2B11576  21.923   6.503   8.250
 3957POPC   C3B11577  21.912   6.513   7.950
 3957POPC   C4B11578  21.979   6.495   7.650
 3958POPC   NC311579  17.547   0.415   9.450
 3958POPC   PO411580  17.527   0.404   9.150
 3958POPC   GL111581  17.536   0.438   8.850
 3958POPC   GL211582  17.589   0.296   8.850
 3958POPC   C1A11583  17.472   0.452   8.550
 3958POPC   D2A11584  17.504   0.403   8.250
 3958POPC   C3A11585  17.497   0.391   7.950
 3958POPC   C4A11586  17.551   0.439   7.650
 3958POPC   C1B11587  17.596   0.231   8.550
 3958POPC   C2B11588  17.591   0.228   8.250
 3958POPC   C3B11589  17.608   0.252   7.950
 3958POPC   C4B11590  17.615   0.191   7.650
 3959POPC   NC311591  29.184  38.464   9.450
 3959POPC   PO411592  29.109  38.505   9.150
 3959POPC   GL111593  29.193  38.442   8.850
 3959POPC   GL211594  29.033  38.475   8.850
 3959POPC   C1A11595  29.131  38.491   8.550
 3959POPC   D2A11596  29.110  38.505   8.250
 3959POPC   C3A11597  29.111  38.438   7.950
 3959POPC   C4A11598  29.159  38.454   7.650
 3959POPC   C1B11599  28.900  38.561   8.550
 3959POPC   C2B11600  28.940  38.512   8.250
 3959POPC   C3B11601  28.889  38.484   7.950
 3959POPC   C4B11602  28.889  38.500   7.650
 3960POPC   NC311603   9.020  11.339   9.450
 3960POPC   PO411604   8.968  11.329   9.150
 3960POPC   GL111605   8.951  11.268   8.850
 3960POPC   GL211606   8.888  11.422   8.850
 3960POPC   C1A11607   8.974  11.264   8.550
 3960POPC   D2A11608   8.940  11.342   8.250
 3960POPC   C3A11609   8.989  11.305   7.950
 3960POPC   C4A11610   8.999  11.328   7.650
 3960POPC   C1B11611   8.741  11.490   8.550
 3960POPC   C2B11612   8.788  11.408   8.250
 3960POPC   C3B11613   8.806  11.428   7.950
 3960POPC   C4B11614   8.766  11.449   7.650
 3961POPC   NC311615  26.859  24.463   9.450
 3961POPC   PO411616  26.861  24.455   9.150
 3961POPC   GL111617  26.811  24.468   8.850
 3961POPC   GL211618  26.679  24.525   8.850
 3961POPC   C1A11619  26.768  24.504   8.550
 3961POPC   D2A11620  26.847  24.456   8.250
 3961POPC   C3A11621  26.850  24.511   7.950
 3961POPC   C4A11622  26.790  24.502   7.650
 3961POPC   C1B11623  26.632  24.697   8.550
 3961POPC   C2B11624  26.581  24.607   8.250
 3961POPC   C3B11625  26.648  24.672   7.950
 3961POPC   C4B11626  26.666  24.641   7.650
 3962POPC   NC311627  25.274  25.259   9.450
 3962POPC   PO411628  25.283  25.262   9.150
 3962POPC   GL111629  25.235  25.294   8.850
 3962POPC   GL211630  25.370  25.207   8.850
 3962POPC   C1A11631  25.247  25.282   8.550
 3962POPC   D2A11632  25.268  25.296   8.250
 3962POPC   C3A11633  25.263  25.285   7.950
 3962POPC   C4A11634  25.301  25.230   7.650
 3962POPC   C1B11635  25.380  25.111   8.550
 3962POPC   C2B11636  25.365  25.106   8.250
 3962POPC   C3B11637  25.393  25.062   7.950
 3962POPC   C4B11638  25.443  25.100   7.650
 3963POPC   NC311639   3.528  42.312   9.450
 3963POPC   PO411640   3.579  42.306   9.150
 3963POPC   GL111641   3.567  42.349   8.850
 3963POPC   GL211642   3.424  42.288   8.850
 3963POPC   C1A11643   3.566  42.375   8.550
 3963POPC   D2A11644   3.552  42.311   8.250
 3963POPC   C3A11645   3.547  42.289   7.950
 3963POPC   C4A11646   3.557  42.311   7.650
 3963POPC   C1B11647   3.292  42.374   8.550
 3963POPC   C2B11648   3.341  42.369   8.250
 3963POPC   C3B11649   3.262  42.334   7.950
 3963POPC   C4B11650   3.302  42.367   7.650
 3964POPC   NC311651  25.999  30.734   9.450
 3964POPC   PO411652  26.091  30.746   9.150
 3964POPC   GL111653  26.090  30.684   8.850
 3964POPC   GL211654  25.878  30.680   8.850
 3964POPC   C1A11655  26.042  30.744   8.550
 3964POPC   D2A11656  26.087  30.711   8.250
 3964POPC   C3A11657  25.997  30.664   7.950
 3964POPC   C4A11658  26.076  30.722   7.650
 3964POPC   C1B11659  25.793  30.764   8.550
 3964POPC   C2B11660  25.773  30.767   8.250
 3964POPC   C3B11661  25.844  30.742   7.950
 3964POPC   C4B11662  25.811  30.726   7.650
 3965POPC   NC311663  15.940  20.570   9.450
 3965POPC   PO411664  15.938  20.649   9.150
 3965POPC   GL111665  15.944  20.585   8.850
 3965POPC   GL211666  15.862  20.576   8.850
 3965POPC   C1A11667  15.979  20.653   8.550
 3965POPC   D2A11668  15.994  20.647   8.250
 3965POPC   C3A11669  15.973  20.607   7.950
 3965POPC   C4A11670  15.924  20.648   7.650
 3965POPC   C1B11671  15.724  20.620   8.550
 3965POPC   C2B11672  15.751  20.615   8.250
 3965POPC   C3B11673  15.678  20.647   7.950
 3965POPC   C4B11674  15.739  20.633   7.650
 3966POPC   NC311675  29.159   2.769   9.450
 3966POPC   PO411676  29.127   2.814   9.150
 3966POPC   GL111677  29.110   2.764   8.850
 3966POPC   GL211678  29.278   2.780   8.850
 3966POPC   C1A11679  29.187   2.729   8.550
 3966POPC   D2A11680  29.103   2.785   8.250
 3966POPC   C3A11681  29.119   2.750   7.950
 3966POPC   C4A11682  29.188   2.731   7.650
 3966POPC   C1B11683  29.349   2.760   8.550
 3966POPC   C2B11684  29.394   2.750   8.250
 3966POPC   C3B11685  29.389   2.769   7.950
 3966POPC   C4B11686  29.373   2.768   7.650
 3967POPC   NC311687  14.416   9.007   9.450
 3967POPC   PO411688  14.420   8.963   9.150
 3967POPC   GL111689  14.424   8.971   8.850
 3967POPC   GL211690  14.458   8.839   8.850
 3967POPC   C1A11691  14.362   9.018   8.550
 3967POPC   D2A11692  14.396   9.018   8.250
 3967POPC   C3A11693  14.382   8.963   7.950
 3967POPC   C4A11694  14.433   8.951   7.650
 3967POPC   C1B11695  14.594   8.743   8.550
 3967POPC   C2B11696  14.598   8.817   8.250
 3967POPC   C3B11697  14.573   8.750   7.950
 3967POPC   C4B11698  14.588   8.809   7.650
 3968POPC   NC311699  33.814  31.484   9.450
 3968POPC   PO411700  33.801  31.504   9.150
 3968POPC   GL111701  33.809  31.468   8.850
 3968POPC   GL211702  33.903  31.577   8.850
 3968POPC   C1A11703  33.816  31.430   8.550
 3968POPC   D2A11704  33.751  31.508   8.250
 3968POPC   C3A11705  33.755  31.429   7.950
 3968POPC   C4A11706  33.759  31.471   7.650
 3968POPC   C1B11707  33.947  31.653   8.550
 3968POPC   C2B11708  33.965  31.613   8.250
 3968POPC   C3B11709  33.955  31.624   7.950
 3968POPC   C4B11710  33.989  31.654   7.650
 3969POPC   NC311711  43.899   1.951   9.450
 3969POPC   PO411712  43.856   2.009   9.150
 3969POPC   GL111713  43.910   1.991   8.850
 3969POPC   GL211714  43.802   2.067   8.850
 3969POPC   C1A11715  43.841   2.023   8.550
 3969POPC   D2A11716  43.925   1.944   8.250
 3969POPC   C3A11717  43.916   1.976   7.950
 3969POPC   C4A11718  43.920   1.944   7.650
 3969POPC   C1B11719  43.676   2.154   8.550
 3969POPC   C2B11720  43.672   2.135   8.250
 3969POPC   C3B11721  43.764   2.171   7.950
 3969POPC   C4B11722  43.725   2.133   7.650
 3970POPC   NC311723  26.860  20.592   9.450
 3970POPC   PO411724  26.865  20.572   9.150
 3970POPC   GL111725  26.836  20.587   8.850
 3970POPC   GL211726  26.821  20.474   8.850
 3970POPC   C1A11727  26.775  20.600   8.550
 3970POPC   D2A11728  26.852  20.638   8.250
 3970POPC   C3A11729  26.768  20.591   7.950
 3970POPC   C4A11730  26.779  20.596   7.650
 3970POPC   C1B11731  26.781  20.322   8.550
 3970POPC   C2B11732  26.863  20.402   8.250
 3970POPC   C3B11733  26.803  20.410   7.950
 3970POPC   C4B11734  26.821  20.347   7.650
 3971POPC   NC311735  29.895  27.627   9.450
 3971POPC   PO411736  29.885  27.607   9.150
 3971POPC   GL111737  29.907  27.638   8.850
 3971POPC   GL211738  29.831  27.693   8.850
 3971POPC   C1A11739  29.936  27.631   8.550
 3971POPC   D2A11740  29.920  27.597   8.250
 3971POPC   C3A11741  29.886  27.566   7.950
 3971POPC   C4A11742  29.950  27.569   7.650
 3971POPC   C1B11743  29.724  27.761   8.550
 3971POPC   C2B11744  29.725  27.767   8.250
 3971POPC   C3B11745  29.759  27.725   7.950
 3971POPC   C4B11746  29.727  27.764   7.650
 3972POPC   NC311747  21.419  21.364   9.450
 3972POPC   PO411748  21.363  21.429   9.150
 3972POPC   GL111749  21.386  21.427   8.850
 3972POPC   GL211750  21.365  21.491   8.850
 3972POPC   C1A11751  21.434  21.357   8.550
 3972POPC   D2A11752  21.421  21.370   8.250
 3972POPC   C3A11753  21.340  21.406   7.950
 3972POPC   C4A11754  21.346  21.361   7.650
 3972POPC   C1B11755  21.417  21.592   8.550
 3972POPC   C2B11756  21.397  21.684   8.250
 3972POPC   C3B11757  21.359  21.589   7.950
 3972POPC   C4B11758  21.440  21.653   7.650
 3973POPC   NC311759  41.529  34.560   9.450
 3973POPC   PO411760  41.566  34.567   9.150
 3973POPC   GL111761  41.525  34.604   8.850
 3973POPC   GL211762  41.675  34.547   8.850
 3973POPC   C1A11763  41.540  34.549   8.550
 3973POPC   D2A11764  41.608  34.573   8.250
 3973POPC   C3A11765  41.585  34.541   7.950
 3973POPC   C4A11766  41.606  34.534   7.650
 3973POPC   C1B11767  41.797  34.480   8.550
 3973POPC   C2B11768  41.772  34.499   8.250
 3973POPC   C3B11769  41.824  34.493   7.950
 3973POPC   C4B11770  41.809  34.516   7.650
 3974POPC   NC311771  18.331   3.587   9.450
 3974POPC   PO411772  18.235   3.580   9.150
 3974POPC   GL111773  18.287   3.560   8.850
 3974POPC   GL211774  18.240   3.656   8.850
 3974POPC   C1A11775  18.327   3.508   8.550
 3974POPC   D2A11776  18.259   3.542   8.250
 3974POPC   C3A11777  18.317   3.558   7.950
 3974POPC   C4A11778  18.289   3.527   7.650
 3974POPC   C1B11779  18.233   3.758   8.550
 3974POPC   C2B11780  18.184   3.770   8.250
 3974POPC   C3B11781  18.165   3.738   7.950
 3974POPC   C4B11782  18.202   3.798   7.650
 3975POPC   NC311783  19.034  10.496   9.450
 3975POPC   PO411784  19.068  10.549   9.150
 3975POPC   GL111785  19.048  10.528   8.850
 3975POPC   GL211786  18.976  10.433   8.850
 3975POPC   C1A11787  19.072  10.518   8.550
 3975POPC   D2A11788  19.078  10.518   8.250
 3975POPC   C3A11789  19.051  10.563   7.950
 3975POPC   C4A11790  19.048  10.545   7.650
 3975POPC   C1B11791  18.921  10.365   8.550
 3975POPC   C2B11792  18.901  10.368   8.250
 3975POPC   C3B11793  18.931  10.361   7.950
 3975POPC   C4B11794  18.888  10.323   7.650
 3976POPC   NC311795  37.686  27.560   9.450
 3976POPC   PO411796  37.666  27.551   9.150
 3976POPC   GL111797  37.681  27.603   8.850
 3976POPC   GL211798  37.620  27.531   8.850
 3976POPC   C1A11799  37.706  27.587   8.550
 3976POPC   D2A11800  37.687  27.594   8.250
 3976POPC   C3A11801  37.648  27.602   7.950
 3976POPC   C4A11802  37.650  27.595   7.650
 3976POPC   C1B11803  37.556  27.412   8.550
 3976POPC   C2B11804  37.540  27.403   8.250
 3976POPC   C3B11805  37.499  27.367   7.950
 3976POPC   C4B11806  37.505  27.379   7.650
 3977POPC   NC311807  20.581  30.665   9.450
 3977POPC   PO411808  20.655  30.700   9.150
 3977POPC   GL111809  20.636  30.723   8.850
 3977POPC   GL211810  20.703  30.684   8.850
 3977POPC   C1A11811  20.613  30.705   8.550
 3977POPC   D2A11812  20.600  30.688   8.250
 3977POPC   C3A11813  20.567  30.652   7.950
 3977POPC   C4A11814  20.608  30.705   7.650
 3977POPC   C1B11815  20.816  30.659   8.550
 3977POPC   C2B11816  20.850  30.686   8.250
 3977POPC   C3B11817  20.873  30.604   7.950
 3977POPC   C4B11818  20.891  30.628   7.650
 3978POPC   NC311819  43.849  28.332   9.450
 3978POPC   PO411820  43.932  28.353   9.150
 3978POPC   GL111821  43.858  28.326   8.850
 3978POPC   GL211822  43.797  28.276   8.850
 3978POPC   C1A11823  43.837  28.384   8.550
 3978POPC   D2A11824  43.870  28.399   8.250
 3978POPC   C3A11825  43.905  28.332   7.950
 3978POPC   C4A11826  43.848  28.386   7.650
 3978POPC   C1B11827  43.622  28.220   8.550
 3978POPC   C2B11828  43.622  28.289   8.250
 3978POPC   C3B11829  43.704  28.298   7.950
 3978POPC   C4B11830  43.689  28.255   7.650
 3979POPC   NC311831  10.525   0.438   9.450
 3979POPC   PO411832  10.498   0.452   9.150
 3979POPC   GL111833  10.573   0.435   8.850
 3979POPC   GL211834  10.498   0.326   8.850
 3979POPC   C1A11835  10.503   0.427   8.550
 3979POPC   D2A11836  10.560   0.427   8.250
 3979POPC   C3A11837  10.492   0.452   7.950
 3979POPC   C4A11838  10.515   0.415   7.650
 3979POPC   C1B11839  10.539   0.239   8.550
 3979POPC   C2B11840  10.526   0.233   8.250
 3979POPC   C3B11841  10.440   0.232   7.950
 3979POPC   C4B11842  10.506   0.146   7.650
 3980POPC   NC311843  19.078  17.483   9.450
 3980POPC   PO411844  19.009  17.486   9.150
 3980POPC   GL111845  19.038  17.519   8.850
 3980POPC   GL211846  18.996  17.425   8.850
 3980POPC   C1A11847  19.076  17.546   8.550
 3980POPC   D2A11848  19.092  17.543   8.250
 3980POPC   C3A11849  19.060  17.489   7.950
 3980POPC   C4A11850  19.087  17.490   7.650
 3980POPC   C1B11851  19.008  17.282   8.550
 3980POPC   C2B11852  19.011  17.297   8.250
 3980POPC   C3B11853  19.059  17.310   7.950
 3980POPC   C4B11854  19.059  17.266   7.650
 3981POPC   NC311855  40.822  19.810   9.450
 3981POPC   PO411856  40.756  19.867   9.150
 3981POPC   GL111857  40.822  19.801   8.850
 3981POPC   GL211858  40.840  19.961   8.850
 3981POPC   C1A11859  40.760  19.842   8.550
 3981POPC   D2A11860  40.808  19.847   8.250
 3981POPC   C3A11861  40.743  19.810   7.950
 3981POPC   C4A11862  40.817  19.802   7.650
 3981POPC   C1B11863  40.780  20.037   8.550
 3981POPC   C2B11864  40.866  20.038   8.250
 3981POPC   C3B11865  40.819  20.091   7.950
 3981POPC   C4B11866  40.861  20.097   7.650
 3982POPC   NC311867  43.859  29.955   9.450
 3982POPC   PO411868  43.847  29.948   9.150
 3982POPC   GL111869  43.922  29.905   8.850
 3982POPC   GL211870  44.014  29.999   8.850
 3982POPC   C1A11871  43.847  29.885   8.550
 3982POPC   D2A11872  43.882  29.961   8.250
 3982POPC   C3A11873  43.925  29.892   7.950
 3982POPC   C4A11874  43.913  29.895   7.650
 3982POPC   C1B11875  44.037  30.090   8.550
 3982POPC   C2B11876  44.043  30.147   8.250
 3982POPC   C3B11877  44.020  30.112   7.950
 3982POPC   C4B11878  44.027  30.082   7.650
 3983POPC   NC311879  31.505  42.357   9.450
 3983POPC   PO411880  31.461  42.347   9.150
 3983POPC   GL111881  31.498  42.304   8.850
 3983POPC   GL211882  31.616  42.341   8.850
 3983POPC   C1A11883  31.427  42.332   8.550
 3983POPC   D2A11884  31.516  42.364   8.250
 3983POPC   C3A11885  31.473  42.351   7.950
 3983POPC   C4A11886  31.519  42.351   7.650
 3983POPC   C1B11887  31.697  42.306   8.550
 3983POPC   C2B11888  31.766  42.265   8.250
 3983POPC   C3B11889  31.765  42.314   7.950
 3983POPC   C4B11890  31.722  42.302   7.650
 3984POPC   NC311891  38.425  36.905   9.450
 3984POPC   PO411892  38.490  36.857   9.150
 3984POPC   GL111893  38.480  36.953   8.850
 3984POPC   GL211894  38.561  36.782   8.850
 3984POPC   C1A11895  38.436  36.907   8.550
 3984POPC   D2A11896  38.437  36.870   8.250
 3984POPC   C3A11897  38.415  36.940   7.950
 3984POPC   C4A11898  38.440  36.933   7.650
 3984POPC   C1B11899  38.685  36.702   8.550
 3984POPC   C2B11900  38.660  36.692   8.250
 3984POPC   C3B11901  38.661  36.752   7.950
 3984POPC   C4B11902  38.602  36.717   7.650
 3985POPC   NC311903  22.149  19.051   9.450
 3985POPC   PO411904  22.127  19.075   9.150
 3985POPC   GL111905  22.204  19.021   8.850
 3985POPC   GL211906  22.185  19.211   8.850
 3985POPC   C1A11907  22.143  19.022   8.550
 3985POPC   D2A11908  22.113  19.061   8.250
 3985POPC   C3A11909  22.140  19.091   7.950
 3985POPC   C4A11910  22.206  19.042   7.650
 3985POPC   C1B11911  22.127  19.263   8.550
 3985POPC   C2B11912  22.153  19.315   8.250
 3985POPC   C3B11913  22.173  19.276   7.950
 3985POPC   C4B11914  22.141  19.293   7.650
 3986POPC   NC311915   5.057   8.992   9.450
 3986POPC   PO411916   5.078   9.020   9.150
 3986POPC   GL111917   5.088   8.956   8.850
 3986POPC   GL211918   4.986   8.953   8.850
 3986POPC   C1A11919   5.073   8.957   8.550
 3986POPC   D2A11920   5.140   8.953   8.250
 3986POPC   C3A11921   5.077   8.986   7.950
 3986POPC   C4A11922   5.124   9.005   7.650
 3986POPC   C1B11923   4.833   8.885   8.550
 3986POPC   C2B11924   4.856   8.862   8.250
 3986POPC   C3B11925   4.894   8.874   7.950
 3986POPC   C4B11926   4.866   8.849   7.650
 3987POPC   NC311927  12.811  43.919   9.450
 3987POPC   PO411928  12.830  43.858   9.150
 3987POPC   GL111929  12.852  43.858   8.850
 3987POPC   GL211930  12.775  44.022   8.850
 3987POPC   C1A11931  12.893  43.915   8.550
 3987POPC   D2A11932  12.880  43.898   8.250
 3987POPC   C3A11933  12.832  43.882   7.950
 3987POPC   C4A11934  12.828  43.917   7.650
 3987POPC   C1B11935  12.785  44.097   8.550
 3987POPC   C2B11936  12.840  44.169   8.250
 3987POPC   C3B11937  12.840  44.099   7.950
 3987POPC   C4B11938  12.755  44.149   7.650
 3988POPC   NC311939   5.895  14.450   9.450
 3988POPC   PO411940   5.834  14.358   9.150
 3988POPC   GL111941   5.859  14.361   8.850
 3988POPC   GL211942   5.928  14.361   8.850
 3988POPC   C1A11943   5.849  14.423   8.550
 3988POPC   D2A11944   5.909  14.440   8.250
 3988POPC   C3A11945   5.891  14.408   7.950
 3988POPC   C4A11946   5.848  14.368   7.650
 3988POPC   C1B11947   6.084  14.278   8.550
 3988POPC   C2B11948   6.124  14.224   8.250
 3988POPC   C3B11949   6.042  14.286   7.950
 3988POPC   C4B11950   6.059  14.270   7.650
 3989POPC   NC311951  25.298   1.236   9.450
 3989POPC   PO411952  25.271   1.173   9.150
 3989POPC   GL111953  25.284   1.191   8.850
 3989POPC   GL211954  25.166   1.128   8.850
 3989POPC   C1A11955  25.315   1.264   8.550
 3989POPC   D2A11956  25.242   1.203   8.250
 3989POPC   C3A11957  25.273   1.171   7.950
 3989POPC   C4A11958  25.234   1.182   7.650
 3989POPC   C1B11959  25.103   1.054   8.550
 3989POPC   C2B11960  25.028   1.061   8.250
 3989POPC   C3B11961  25.015   1.118   7.950
 3989POPC   C4B11962  25.096   1.106   7.650
 3990POPC   NC311963  17.525  42.289   9.450
 3990POPC   PO411964  17.491  42.380   9.150
 3990POPC   GL111965  17.487  42.377   8.850
 3990POPC   GL211966  17.652  42.372   8.850
 3990POPC   C1A11967  17.555  42.362   8.550
 3990POPC   D2A11968  17.546  42.356   8.250
 3990POPC   C3A11969  17.541  42.314   7.950
 3990POPC   C4A11970  17.469  42.348   7.650
 3990POPC   C1B11971  17.761  42.356   8.550
 3990POPC   C2B11972  17.743  42.342   8.250
 3990POPC   C3B11973  17.778  42.343   7.950
 3990POPC   C4B11974  17.714  42.393   7.650
 3991POPC   NC311975  29.145  32.252   9.450
 3991POPC   PO411976  29.115  32.224   9.150
 3991POPC   GL111977  29.181  32.278   8.850
 3991POPC   GL211978  28.993  32.161   8.850
 3991POPC   C1A11979  29.120  32.261   8.550
 3991POPC   D2A11980  29.119  32.269   8.250
 3991POPC   C3A11981  29.153  32.278   7.950
 3991POPC   C4A11982  29.131  32.213   7.650
 3991POPC   C1B11983  28.891  32.197   8.550
 3991POPC   C2B11984  28.941  32.194   8.250
 3991POPC   C3B11985  28.875  32.216   7.950
 3991POPC   C4B11986  28.890  32.132   7.650
 3992POPC   NC311987   9.767   5.823   9.450
 3992POPC   PO411988   9.723   5.905   9.150
 3992POPC   GL111989   9.772   5.880   8.850
 3992POPC   GL211990   9.889   5.821   8.850
 3992POPC   C1A11991   9.725   5.875   8.550
 3992POPC   D2A11992   9.761   5.882   8.250
 3992POPC   C3A11993   9.777   5.878   7.950
 3992POPC   C4A11994   9.761   5.901   7.650
 3992POPC   C1B11995  10.013   5.817   8.550
 3992POPC   C2B11996   9.987   5.793   8.250
 3992POPC   C3B11997   9.930   5.740   7.950
 3992POPC   C4B11998   9.957   5.819   7.650
 3993POPC   NC311999   4.267  32.229   9.450
 3993POPC   PO412000   4.287  32.251   9.150
 3993POPC   GL112001   4.307  32.212   8.850
 3993POPC   GL212002   4.394  32.236   8.850
 3993POPC   C1A12003   4.286  32.243   8.550
 3993POPC   D2A12004   4.365  32.214   8.250
 3993POPC   C3A12005   4.269  32.283   7.950
 3993POPC   C4A12006   4.343  32.257   7.650
 3993POPC   C1B12007   4.572  32.170   8.550
 3993POPC   C2B12008   4.514  32.162   8.250
 3993POPC   C3B12009   4.577  32.181   7.950
 3993POPC   C4B12010   4.547  32.189   7.650
 3994POPC   NC312011   1.954  44.653   9.450
 3994POPC   PO412012   2.019  44.646   9.150
 3994POPC   GL112013   1.992  44.619   8.850
 3994POPC   GL212014   1.888  44.680   8.850
 3994POPC   C1A12015   1.949  44.657   8.550
 3994POPC   D2A12016   2.019  44.667   8.250
 3994POPC   C3A12017   2.004  44.679   7.950
 3994POPC   C4A12018   1.995  44.697   7.650
 3994POPC   C1B12019   1.785  44.757   8.550
 3994POPC   C2B12020   1.793  44.769   8.250
 3994POPC   C3B12021   1.732  44.723   7.950
 3994POPC   C4B12022   1.722  44.712   7.650
 3995POPC   NC312023  39.221  15.919   9.450
 3995POPC   PO412024  39.272  15.962   9.150
 3995POPC   GL112025  39.204  15.955   8.850
 3995POPC   GL212026  39.295  16.039   8.850
 3995POPC   C1A12027  39.252  15.943   8.550
 3995POPC   D2A12028  39.258  15.925   8.250
 3995POPC   C3A12029  39.249  15.962   7.950
 3995POPC   C4A12030  39.249  15.992   7.650
 3995POPC   C1B12031  39.313  16.167   8.550
 3995POPC   C2B12032  39.295  16.204   8.250
 3995POPC   C3B12033  39.321  16.192   7.950
 3995POPC   C4B12034  39.327  16.168   7.650
 3996POPC   NC312035  41.598  36.118   9.450
 3996POPC   PO412036  41.517  36.130   9.150
 3996POPC   GL112037  41.519  36.150   8.850
 3996POPC   GL212038  41.645  35.986   8.850
 3996POPC   C1A12039  41.586  36.126   8.550
 3996POPC   D2A12040  41.580  36.131   8.250
 3996POPC   C3A12041  41.584  36.088   7.950
 3996POPC   C4A12042  41.547  36.157   7.650
 3996POPC   C1B12043  41.650  35.926   8.550
 3996POPC   C2B12044  41.705  35.969   8.250
 3996POPC   C3B12045  41.700  35.904   7.950
 3996POPC   C4B12046  41.657  35.931   7.650
 3997POPC   NC312047  20.592  19.024   9.450
 3997POPC   PO412048  20.571  19.064   9.150
 3997POPC   GL112049  20.622  19.039   8.850
 3997POPC   GL212050  20.719  19.076   8.850
 3997POPC   C1A12051  20.587  19.108   8.550
 3997POPC   D2A12052  20.633  19.105   8.250
 3997POPC   C3A12053  20.587  19.019   7.950
 3997POPC   C4A12054  20.576  19.063   7.650
 3997POPC   C1B12055  20.821  19.102   8.550
 3997POPC   C2B12056  20.848  19.031   8.250
 3997POPC   C3B12057  20.853  19.094   7.950
 3997POPC   C4B12058  20.897  19.036   7.650
 3998POPC   NC312059  44.616  41.538   9.450
 3998POPC   PO412060  44.709  41.575   9.150
 3998POPC   GL112061  44.644  41.539   8.850
 3998POPC   GL212062  44.784  41.684   8.850
 3998POPC   C1A12063  44.682  41.590   8.550
 3998POPC   D2A12064  44.667  41.550   8.250
 3998POPC   C3A12065  44.688  41.578   7.950
 3998POPC   C4A12066  44.652  41.586   7.650
 3998POPC   C1B12067  44.842  41.735   8.550
 3998POPC   C2B12068  44.811  41.672   8.250
 3998POPC   C3B12069  44.812  41.668   7.950
 3998POPC   C4B12070  44.841  41.694   7.650
 3999POPC   NC312071  20.591  43.150   9.450
 3999POPC   PO412072  20.601  43.144   9.150
 3999POPC   GL112073  20.620  43.151   8.850
 3999POPC   GL212074  20.602  42.947   8.850
 3999POPC   C1A12075  20.576  43.062   8.550
 3999POPC   D2A12076  20.639  43.098   8.250
 3999POPC   C3A12077  20.621  43.150   7.950
 3999POPC   C4A12078  20.649  43.152   7.650
 3999POPC   C1B12079  20.689  42.878   8.550
 3999POPC   C2B12080  20.657  42.829   8.250
 3999POPC   C3B12081  20.642  42.902   7.950
 3999POPC   C4B12082  20.638  42.869   7.650
 4000POPC   NC312083  39.255  26.774   9.450
 4000POPC   PO412084  39.192  26.865   9.150
 4000POPC   GL112085  39.262  26.782   8.850
 4000POPC   GL212086  39.072  26.722   8.850
 4000POPC   C1A12087  39.187  26.794   8.550
 4000POPC   D2A12088  39.191  26.865   8.250
 4000POPC   C3A12089  39.184  26.784   7.950
 4000POPC   C4A12090  39.238  26.787   7.650
 4000POPC   C1B12091  39.006  26.736   8.550
 4000POPC   C2B12092  38.964  26.707   8.250
 4000POPC   C3B12093  39.011  26.745   7.950
 4000POPC   C4B12094  39.021  26.690   7.650
 4001POPC   NC312095   1.259  10.517   9.450
 4001POPC   PO412096   1.170  10.561   9.150
 4001POPC   GL112097   1.194  10.536   8.850
 4001POPC   GL212098   1.119  10.427   8.850
 4001POPC   C1A12099   1.187  10.482   8.550
 4001POPC   D2A12100   1.234  10.505   8.250
 4001POPC   C3A12101   1.255  10.511   7.950
 4001POPC   C4A12102   1.244  10.501   7.650
 4001POPC   C1B12103   1.051  10.288   8.550
 4001POPC   C2B12104   1.061  10.324   8.250
 4001POPC   C3B12105   1.061  10.337   7.950
 4001POPC   C4B12106   1.039  10.357   7.650
 4002POPC   NC312107  17.547  10.573   9.450
 4002POPC   PO412108  17.522  10.569   9.150
 4002POPC   GL112109  17.508  10.508   8.850
 4002POPC   GL212110  17.486  10.610   8.850
 4002POPC   C1A12111  17.514  10.537   8.550
 4002POPC   D2A12112  17.525  10.562   8.250
 4002POPC   C3A12113  17.553  10.491   7.950
 4002POPC   C4A12114  17.515  10.512   7.650
 4002POPC   C1B12115  17.529  10.724   8.550
 4002POPC   C2B12116  17.573  10.766   8.250
 4002POPC   C3B12117  17.514  10.758   7.950
 4002POPC   C4B12118  17.529  10.735   7.650
 4003POPC   NC312119   5.133  14.363   9.450
 4003POPC   PO412120   5.049  14.423   9.150
 4003POPC   GL112121   5.136  14.429   8.850
 4003POPC   GL212122   5.138  14.531   8.850
 4003POPC   C1A12123   5.096  14.393   8.550
 4003POPC   D2A12124   5.102  14.421   8.250
 4003POPC   C3A12125   5.129  14.438   7.950
 4003POPC   C4A12126   5.100  14.436   7.650
 4003POPC   C1B12127   5.293  14.604   8.550
 4003POPC   C2B12128   5.299  14.608   8.250
 4003POPC   C3B12129   5.228  14.609   7.950
 4003POPC   C4B12130   5.265  14.622   7.650
 4004POPC   NC312131  20.574  29.155   9.450
 4004POPC   PO412132  20.598  29.100   9.150
 4004POPC   GL112133  20.614  29.166   8.850
 4004POPC   GL212134  20.777  29.142   8.850
 4004POPC   C1A12135  20.635  29.159   8.550
 4004POPC   D2A12136  20.560  29.095   8.250
 4004POPC   C3A12137  20.570  29.160   7.950
 4004POPC   C4A12138  20.600  29.172   7.650
 4004POPC   C1B12139  20.836  29.108   8.550
 4004POPC   C2B12140  20.840  29.036   8.250
 4004POPC   C3B12141  20.896  29.048   7.950
 4004POPC   C4B12142  20.800  29.067   7.650
 4005POPC   NC312143  30.661   1.963   9.450
 4005POPC   PO412144  30.687   2.025   9.150
 4005POPC   GL112145  30.676   1.958   8.850
 4005POPC   GL212146  30.841   1.929   8.850
 4005POPC   C1A12147  30.658   2.000   8.550
 4005POPC   D2A12148  30.655   2.008   8.250
 4005POPC   C3A12149  30.681   2.026   7.950
 4005POPC   C4A12150  30.671   2.033   7.650
 4005POPC   C1B12151  30.891   1.875   8.550
 4005POPC   C2B12152  30.897   1.881   8.250
 4005POPC   C3B12153  30.910   1.946   7.950
 4005POPC   C4B12154  30.894   1.936   7.650
 4006POPC   NC312155  35.325  29.174   9.450
 4006POPC   PO412156  35.393  29.130   9.150
 4006POPC   GL112157  35.328  29.120   8.850
 4006POPC   GL212158  35.444  29.236   8.850
 4006POPC   C1A12159  35.361  29.168   8.550
 4006POPC   D2A12160  35.352  29.115   8.250
 4006POPC   C3A12161  35.347  29.141   7.950
 4006POPC   C4A12162  35.306  29.116   7.650
 4006POPC   C1B12163  35.592  29.198   8.550
 4006POPC   C2B12164  35.564  29.223   8.250
 4006POPC   C3B12165  35.586  29.285   7.950
 4006POPC   C4B12166  35.605  29.202   7.650
 4007POPC   NC312167  41.526  19.794   9.450
 4007POPC   PO412168  41.576  19.817   9.150
 4007POPC   GL112169  41.599  19.830   8.850
 4007POPC   GL212170  41.444  19.895   8.850
 4007POPC   C1A12171  41.538  19.835   8.550
 4007POPC   D2A12172  41.585  19.794   8.250
 4007POPC   C3A12173  41.519  19.877   7.950
 4007POPC   C4A12174  41.604  19.861   7.650
 4007POPC   C1B12175  41.357  19.981   8.550
 4007POPC   C2B12176  41.353  19.967   8.250
 4007POPC   C3B12177  41.356  19.964   7.950
 4007POPC   C4B12178  41.316  19.962   7.650
 4008POPC   NC312179  23.718  29.921   9.450
 4008POPC   PO412180  23.681  29.894   9.150
 4008POPC   GL112181  23.670  29.933   8.850
 4008POPC   GL212182  23.770  29.823   8.850
 4008POPC   C1A12183  23.694  29.942   8.550
 4008POPC   D2A12184  23.683  29.910   8.250
 4008POPC   C3A12185  23.702  29.921   7.950
 4008POPC   C4A12186  23.671  29.904   7.650
 4008POPC   C1B12187  23.753  29.662   8.550
 4008POPC   C2B12188  23.835  29.662   8.250
 4008POPC   C3B12189  23.755  29.683   7.950
 4008POPC   C4B12190  23.832  29.708   7.650
 4009POPC   NC312191  10.482  37.711   9.450
 4009POPC   PO412192  10.523  37.645   9.150
 4009POPC   GL112193  10.553  37.667   8.850
 4009POPC   GL212194  10.559  37.806   8.850
 4009POPC   C1A12195  10.521  37.721   8.550
 4009POPC   D2A12196  10.543  37.637   8.250
 4009POPC   C3A12197  10.542  37.703   7.950
 4009POPC   C4A12198  10.561  37.673   7.650
 4009POPC   C1B12199  10.496  37.927   8.550
 4009POPC   C2B12200  10.487  37.896   8.250
 4009POPC   C3B12201  10.542  37.897   7.950
 4009POPC   C4B12202  10.478  37.901   7.650
 4010POPC   NC312203  19.034  22.949   9.450
 4010POPC   PO412204  19.083  22.914   9.150
 4010POPC   GL112205  19.059  22.923   8.850
 4010POPC   GL212206  19.128  22.806   8.850
 4010POPC   C1A12207  19.099  22.957   8.550
 4010POPC   D2A12208  19.063  22.918   8.250
 4010POPC   C3A12209  19.057  22.945   7.950
 4010POPC   C4A12210  19.013  22.917   7.650
 4010POPC   C1B12211  19.235  22.726   8.550
 4010POPC   C2B12212  19.289  22.770   8.250
 4010POPC   C3B12213  19.272  22.794   7.950
 4010POPC   C4B12214  19.285  22.744   7.650
 4011POPC   NC312215  38.493   7.418   9.450
 4011POPC   PO412216  38.465   7.440   9.150
 4011POPC   GL112217  38.436   7.393   8.850
 4011POPC   GL212218  38.382   7.316   8.850
 4011POPC   C1A12219  38.445   7.446   8.550
 4011POPC   D2A12220  38.492   7.422   8.250
 4011POPC   C3A12221  38.474   7.470   7.950
 4011POPC   C4A12222  38.493   7.419   7.650
 4011POPC   C1B12223  38.259   7.227   8.550
 4011POPC   C2B12224  38.311   7.262   8.250
 4011POPC   C3B12225  38.295   7.232   7.950
 4011POPC   C4B12226  38.293   7.211   7.650
 4012POPC   NC312227   2.802  43.869   9.450
 4012POPC   PO412228   2.760  43.851   9.150
 4012POPC   GL112229   2.780  43.889   8.850
 4012POPC   GL212230   2.626  43.885   8.850
 4012POPC   C1A12231   2.784  43.872   8.550
 4012POPC   D2A12232   2.729  43.845   8.250
 4012POPC   C3A12233   2.716  43.928   7.950
 4012POPC   C4A12234   2.780  43.888   7.650
 4012POPC   C1B12235   2.516  43.883   8.550
 4012POPC   C2B12236   2.517  43.850   8.250
 4012POPC   C3B12237   2.542  43.935   7.950
 4012POPC   C4B12238   2.549  43.875   7.650
 4013POPC   NC312239  17.546   3.542   9.450
 4013POPC   PO412240  17.505   3.547   9.150
 4013POPC   GL112241  17.543   3.496   8.850
 4013POPC   GL212242  17.408   3.590   8.850
 4013POPC   C1A12243  17.462   3.538   8.550
 4013POPC   D2A12244  17.466   3.509   8.250
 4013POPC   C3A12245  17.496   3.521   7.950
 4013POPC   C4A12246  17.495   3.501   7.650
 4013POPC   C1B12247  17.247   3.584   8.550
 4013POPC   C2B12248  17.292   3.534   8.250
 4013POPC   C3B12249  17.229   3.590   7.950
 4013POPC   C4B12250  17.266   3.495   7.650
 4014POPC   NC312251  36.150  43.837   9.450
 4014POPC   PO412252  36.170  43.859   9.150
 4014POPC   GL112253  36.122  43.862   8.850
 4014POPC   GL212254  36.143  44.030   8.850
 4014POPC   C1A12255  36.167  43.860   8.550
 4014POPC   D2A12256  36.149  43.852   8.250
 4014POPC   C3A12257  36.091  43.897   7.950
 4014POPC   C4A12258  36.095  43.913   7.650
 4014POPC   C1B12259  36.148  44.133   8.550
 4014POPC   C2B12260  36.133  44.122   8.250
 4014POPC   C3B12261  36.205  44.140   7.950
 4014POPC   C4B12262  36.182  44.117   7.650
 4015POPC   NC312263   1.261  12.061   9.450
 4015POPC   PO412264   1.204  12.111   9.150
 4015POPC   GL112265   1.242  12.079   8.850
 4015POPC   GL212266   1.117  12.141   8.850
 4015POPC   C1A12267   1.168  12.030   8.550
 4015POPC   D2A12268   1.222  12.081   8.250
 4015POPC   C3A12269   1.225  12.097   7.950
 4015POPC   C4A12270   1.193  12.087   7.650
 4015POPC   C1B12271   0.936  12.127   8.550
 4015POPC   C2B12272   1.011  12.125   8.250
 4015POPC   C3B12273   0.976  12.111   7.950
 4015POPC   C4B12274   0.981  12.070   7.650
 4016POPC   NC312275  24.478   9.780   9.450
 4016POPC   PO412276  24.486   9.795   9.150
 4016POPC   GL112277  24.446   9.792   8.850
 4016POPC   GL212278  24.511   9.872   8.850
 4016POPC   C1A12279  24.456   9.782   8.550
 4016POPC   D2A12280  24.484   9.710   8.250
 4016POPC   C3A12281  24.523   9.760   7.950
 4016POPC   C4A12282  24.489   9.713   7.650
 4016POPC   C1B12283  24.554   9.949   8.550
 4016POPC   C2B12284  24.585  10.024   8.250
 4016POPC   C3B12285  24.622   9.947   7.950
 4016POPC   C4B12286  24.629   9.950   7.650
 4017POPC   NC312287  40.783   8.937   9.450
 4017POPC   PO412288  40.744   9.013   9.150
 4017POPC   GL112289  40.824   8.971   8.850
 4017POPC   GL212290  40.944   8.997   8.850
 4017POPC   C1A12291  40.811   9.004   8.550
 4017POPC   D2A12292  40.755   8.923   8.250
 4017POPC   C3A12293  40.762   9.002   7.950
 4017POPC   C4A12294  40.823   9.012   7.650
 4017POPC   C1B12295  41.061   9.006   8.550
 4017POPC   C2B12296  41.041   9.082   8.250
 4017POPC   C3B12297  41.027   9.073   7.950
 4017POPC   C4B12298  41.059   9.024   7.650
 4018POPC   NC312299  36.083   8.947   9.450
 4018POPC   PO412300  36.126   8.995   9.150
 4018POPC   GL112301  36.089   9.003   8.850
 4018POPC   GL212302  36.045   9.030   8.850
 4018POPC   C1A12303  36.146   8.961   8.550
 4018POPC   D2A12304  36.096   8.960   8.250
 4018POPC   C3A12305  36.121   8.995   7.950
 4018POPC   C4A12306  36.091   9.011   7.650
 4018POPC   C1B12307  35.879   8.976   8.550
 4018POPC   C2B12308  35.836   8.986   8.250
 4018POPC   C3B12309  35.904   8.995   7.950
 4018POPC   C4B12310  35.873   8.953   7.650
 4019POPC   NC312311   5.112  13.664   9.450
 4019POPC   PO412312   5.084  13.675   9.150
 4019POPC   GL112313   5.109  13.650   8.850
 4019POPC   GL212314   5.157  13.713   8.850
 4019POPC   C1A12315   5.046  13.633   8.550
 4019POPC   D2A12316   5.048  13.642   8.250
 4019POPC   C3A12317   5.135  13.608   7.950
 4019POPC   C4A12318   5.048  13.638   7.650
 4019POPC   C1B12319   5.124  13.908   8.550
 4019POPC   C2B12320   5.123  13.845   8.250
 4019POPC   C3B12321   5.188  13.888   7.950
 4019POPC   C4B12322   5.199  13.876   7.650
 4020POPC   NC312323   3.551  37.649   9.450
 4020POPC   PO412324   3.504  37.666   9.150
 4020POPC   GL112325   3.526  37.631   8.850
 4020POPC   GL212326   3.615  37.528   8.850
 4020POPC   C1A12327   3.498  37.675   8.550
 4020POPC   D2A12328   3.575  37.665   8.250
 4020POPC   C3A12329   3.511  37.651   7.950
 4020POPC   C4A12330   3.538  37.648   7.650
 4020POPC   C1B12331   3.622  37.405   8.550
 4020POPC   C2B12332   3.626  37.420   8.250
 4020POPC   C3B12333   3.664  37.416   7.950
 4020POPC   C4B12334   3.625  37.449   7.650
 4021POPC   NC312335  22.960   3.537   9.450
 4021POPC   PO412336  22.972   3.583   9.150
 4021POPC   GL112337  22.902   3.507   8.850
 4021POPC   GL212338  22.957   3.391   8.850
 4021POPC   C1A12339  22.988   3.515   8.550
 4021POPC   D2A12340  22.927   3.527   8.250
 4021POPC   C3A12341  22.949   3.566   7.950
 4021POPC   C4A12342  22.894   3.526   7.650
 4021POPC   C1B12343  22.986   3.299   8.550
 4021POPC   C2B12344  22.986   3.261   8.250
 4021POPC   C3B12345  23.041   3.250   7.950
 4021POPC   C4B12346  22.958   3.343   7.650
 4022POPC   NC312347   7.386  38.462   9.450
 4022POPC   PO412348   7.371  38.433   9.150
 4022POPC   GL112349   7.457  38.438   8.850
 4022POPC   GL212350   7.389  38.549   8.850
 4022POPC   C1A12351   7.382  38.476   8.550
 4022POPC   D2A12352   7.439  38.452   8.250
 4022POPC   C3A12353   7.456  38.461   7.950
 4022POPC   C4A12354   7.417  38.467   7.650
 4022POPC   C1B12355   7.389  38.749   8.550
 4022POPC   C2B12356   7.478  38.730   8.250
 4022POPC   C3B12357   7.481  38.722   7.950
 4022POPC   C4B12358   7.393  38.735   7.650
 4023POPC   NC312359  36.893  12.121   9.450
 4023POPC   PO412360  36.914  12.063   9.150
 4023POPC   GL112361  36.858  12.037   8.850
 4023POPC   GL212362  36.829  12.215   8.850
 4023POPC   C1A12363  36.937  12.075   8.550
 4023POPC   D2A12364  36.885  12.095   8.250
 4023POPC   C3A12365  36.947  12.045   7.950
 4023POPC   C4A12366  36.932  12.039   7.650
 4023POPC   C1B12367  36.863  12.284   8.550
 4023POPC   C2B12368  36.805  12.324   8.250
 4023POPC   C3B12369  36.809  12.338   7.950
 4023POPC   C4B12370  36.818  12.292   7.650
 4024POPC   NC312371  15.971  26.069   9.450
 4024POPC   PO412372  15.953  26.077   9.150
 4024POPC   GL112373  15.997  26.014   8.850
 4024POPC   GL212374  15.966  25.884   8.850
 4024POPC   C1A12375  15.916  26.069   8.550
 4024POPC   D2A12376  15.969  26.017   8.250
 4024POPC   C3A12377  15.986  26.057   7.950
 4024POPC   C4A12378  15.970  26.056   7.650
 4024POPC   C1B12379  16.062  25.828   8.550
 4024POPC   C2B12380  16.006  25.795   8.250
 4024POPC   C3B12381  15.993  25.800   7.950
 4024POPC   C4B12382  16.044  25.829   7.650
 4025POPC   NC312383  35.322   2.774   9.450
 4025POPC   PO412384  35.387   2.717   9.150
 4025POPC   GL112385  35.401   2.759   8.850
 4025POPC   GL212386  35.449   2.816   8.850
 4025POPC   C1A12387  35.383   2.724   8.550
 4025POPC   D2A12388  35.321   2.728   8.250
 4025POPC   C3A12389  35.303   2.749   7.950
 4025POPC   C4A12390  35.366   2.757   7.650
 4025POPC   C1B12391  35.544   2.918   8.550
 4025POPC   C2B12392  35.560   2.906   8.250
 4025POPC   C3B12393  35.579   2.966   7.950
 4025POPC   C4B12394  35.590   2.894   7.650
 4026POPC   NC312395  35.345  22.920   9.450
 4026POPC   PO412396  35.378  22.903   9.150
 4026POPC   GL112397  35.361  22.988   8.850
 4026POPC   GL212398  35.191  22.931   8.850
 4026POPC   C1A12399  35.359  22.915   8.550
 4026POPC   D2A12400  35.382  22.933   8.250
 4026POPC   C3A12401  35.325  22.912   7.950
 4026POPC   C4A12402  35.332  22.958   7.650
 4026POPC   C1B12403  35.146  22.802   8.550
 4026POPC   C2B12404  35.082  22.864   8.250
 4026POPC   C3B12405  35.170  22.787   7.950
 4026POPC   C4B12406  35.085  22.868   7.650
 4027POPC   NC312407  22.924   1.961   9.450
 4027POPC   PO412408  22.909   1.964   9.150
 4027POPC   GL112409  22.962   1.942   8.850
 4027POPC   GL212410  23.053   2.032   8.850
 4027POPC   C1A12411  22.940   1.971   8.550
 4027POPC   D2A12412  22.985   1.985   8.250
 4027POPC   C3A12413  22.963   1.945   7.950
 4027POPC   C4A12414  22.976   2.015   7.650
 4027POPC   C1B12415  23.178   2.170   8.550
 4027POPC   C2B12416  23.132   2.158   8.250
 4027POPC   C3B12417  23.142   2.132   7.950
 4027POPC   C4B12418  23.106   2.083   7.650
 4028POPC   NC312419  11.280  30.703   9.450
 4028POPC   PO412420  11.255  30.701   9.150
 4028POPC   GL112421  11.297  30.724   8.850
 4028POPC   GL212422  11.363  30.554   8.850
 4028POPC   C1A12423  11.297  30.747   8.550
 4028POPC   D2A12424  11.319  30.652   8.250
 4028POPC   C3A12425  11.317  30.712   7.950
 4028POPC   C4A12426  11.278  30.660   7.650
 4028POPC   C1B12427  11.414  30.488   8.550
 4028POPC   C2B12428  11.323  30.465   8.250
 4028POPC   C3B12429  11.361  30.431   7.950
 4028POPC   C4B12430  11.407  30.473   7.650
 4029POPC   NC312431   8.959   8.946   9.450
 4029POPC   PO412432   9.022   8.996   9.150
 4029POPC   GL112433   8.982   8.945   8.850
 4029POPC   GL212434   8.805   8.994   8.850
 4029POPC   C1A12435   8.992   9.011   8.550
 4029POPC   D2A12436   9.006   9.021   8.250
 4029POPC   C3A12437   8.997   8.978   7.950
 4029POPC   C4A12438   8.953   8.940   7.650
 4029POPC   C1B12439   8.771   8.899   8.550
 4029POPC   C2B12440   8.680   8.966   8.250
 4029POPC   C3B12441   8.689   8.962   7.950
 4029POPC   C4B12442   8.767   8.916   7.650
 4030POPC   NC312443  17.554  15.950   9.450
 4030POPC   PO412444  17.468  15.995   9.150
 4030POPC   GL112445  17.519  15.964   8.850
 4030POPC   GL212446  17.440  15.820   8.850
 4030POPC   C1A12447  17.458  15.966   8.550
 4030POPC   D2A12448  17.488  15.909   8.250
 4030POPC   C3A12449  17.457  15.940   7.950
 4030POPC   C4A12450  17.554  15.937   7.650
 4030POPC   C1B12451  17.393  15.737   8.550
 4030POPC   C2B12452  17.424  15.717   8.250
 4030POPC   C3B12453  17.399  15.685   7.950
 4030POPC   C4B12454  17.445  15.676   7.650
 4031POPC   NC312455   4.354   4.323   9.450
 4031POPC   PO412456   4.291   4.274   9.150
 4031POPC   GL112457   4.322   4.361   8.850
 4031POPC   GL212458   4.462   4.313   8.850
 4031POPC   C1A12459   4.289   4.312   8.550
 4031POPC   D2A12460   4.333   4.277   8.250
 4031POPC   C3A12461   4.324   4.269   7.950
 4031POPC   C4A12462   4.283   4.274   7.650
 4031POPC   C1B12463   4.520   4.332   8.550
 4031POPC   C2B12464   4.560   4.277   8.250
 4031POPC   C3B12465   4.524   4.276   7.950
 4031POPC   C4B12466   4.523   4.296   7.650
 4032POPC   NC312467  32.994  19.869   9.450
 4032POPC   PO412468  33.061  19.872   9.150
 4032POPC   GL112469  33.018  19.877   8.850
 4032POPC   GL212470  32.908  19.910   8.850
 4032POPC   C1A12471  33.026  19.863   8.550
 4032POPC   D2A12472  33.061  19.802   8.250
 4032POPC   C3A12473  33.056  19.830   7.950
 4032POPC   C4A12474  32.982  19.876   7.650
 4032POPC   C1B12475  32.809  19.950   8.550
 4032POPC   C2B12476  32.785  19.887   8.250
 4032POPC   C3B12477  32.757  19.913   7.950
 4032POPC   C4B12478  32.828  19.873   7.650
 4033POPC   NC312479  12.855  27.575   9.450
 4033POPC   PO412480  12.845  27.574   9.150
 4033POPC   GL112481  12.886  27.579   8.850
 4033POPC   GL212482  12.724  27.619   8.850
 4033POPC   C1A12483  12.821  27.547   8.550
 4033POPC   D2A12484  12.819  27.621   8.250
 4033POPC   C3A12485  12.881  27.584   7.950
 4033POPC   C4A12486  12.855  27.619   7.650
 4033POPC   C1B12487  12.650  27.730   8.550
 4033POPC   C2B12488  12.590  27.730   8.250
 4033POPC   C3B12489  12.653  27.736   7.950
 4033POPC   C4B12490  12.632  27.658   7.650
 4034POPC   NC312491   6.640  40.736   9.450
 4034POPC   PO412492   6.646  40.796   9.150
 4034POPC   GL112493   6.612  40.812   8.850
 4034POPC   GL212494   6.508  40.731   8.850
 4034POPC   C1A12495   6.642  40.800   8.550
 4034POPC   D2A12496   6.672  40.739   8.250
 4034POPC   C3A12497   6.608  40.774   7.950
 4034POPC   C4A12498   6.658  40.759   7.650
 4034POPC   C1B12499   6.492  40.568   8.550
 4034POPC   C2B12500   6.482  40.566   8.250
 4034POPC   C3B12501   6.419  40.615   7.950
 4034POPC   C4B12502   6.433  40.651   7.650
 4035POPC   NC312503  28.391  32.284   9.450
 4035POPC   PO412504  28.406  32.238   9.150
 4035POPC   GL112505  28.320  32.230   8.850
 4035POPC   GL212506  28.443  32.308   8.850
 4035POPC   C1A12507  28.337  32.241   8.550
 4035POPC   D2A12508  28.321  32.205   8.250
 4035POPC   C3A12509  28.399  32.247   7.950
 4035POPC   C4A12510  28.358  32.232   7.650
 4035POPC   C1B12511  28.480  32.451   8.550
 4035POPC   C2B12512  28.494  32.478   8.250
 4035POPC   C3B12513  28.468  32.497   7.950
 4035POPC   C4B12514  28.530  32.471   7.650
 4036POPC   NC312515  14.425  15.150   9.450
 4036POPC   PO412516  14.375  15.215   9.150
 4036POPC   GL112517  14.409  15.195   8.850
 4036POPC   GL212518  14.302  15.114   8.850
 4036POPC   C1A12519  14.429  15.225   8.550
 4036POPC   D2A12520  14.409  15.218   8.250
 4036POPC   C3A12521  14.360  15.159   7.950
 4036POPC   C4A12522  14.373  15.153   7.650
 4036POPC   C1B12523  14.273  14.913   8.550
 4036POPC   C2B12524  14.323  14.998   8.250
 4036POPC   C3B12525  14.321  14.929   7.950
 4036POPC   C4B12526  14.270  14.970   7.650
 4037POPC   NC312527  34.529  26.823   9.450
 4037POPC   PO412528  34.572  26.850   9.150
 4037POPC   GL112529  34.550  26.863   8.850
 4037POPC   GL212530  34.456  26.721   8.850
 4037POPC   C1A12531  34.579  26.855   8.550
 4037POPC   D2A12532  34.583  26.771   8.250
 4037POPC   C3A12533  34.546  26.803   7.950
 4037POPC   C4A12534  34.549  26.816   7.650
 4037POPC   C1B12535  34.369  26.710   8.550
 4037POPC   C2B12536  34.421  26.681   8.250
 4037POPC   C3B12537  34.363  26.667   7.950
 4037POPC   C4B12538  34.423  26.621   7.650
 4038POPC   NC312539  17.460  19.835   9.450
 4038POPC   PO412540  17.482  19.803   9.150
 4038POPC   GL112541  17.479  19.812   8.850
 4038POPC   GL212542  17.669  19.852   8.850
 4038POPC   C1A12543  17.530  19.800   8.550
 4038POPC   D2A12544  17.498  19.865   8.250
 4038POPC   C3A12545  17.491  19.816   7.950
 4038POPC   C4A12546  17.548  19.853   7.650
 4038POPC   C1B12547  17.759  19.934   8.550
 4038POPC   C2B12548  17.693  19.915   8.250
 4038POPC   C3B12549  17.689  19.933   7.950
 4038POPC   C4B12550  17.703  19.929   7.650
 4039POPC   NC312551  10.547   4.304   9.450
 4039POPC   PO412552  10.556   4.338   9.150
 4039POPC   GL112553  10.562   4.300   8.850
 4039POPC   GL212554  10.478   4.437   8.850
 4039POPC   C1A12555  10.482   4.351   8.550
 4039POPC   D2A12556  10.555   4.276   8.250
 4039POPC   C3A12557  10.565   4.339   7.950
 4039POPC   C4A12558  10.530   4.279   7.650
 4039POPC   C1B12559  10.483   4.533   8.550
 4039POPC   C2B12560  10.508   4.607   8.250
 4039POPC   C3B12561  10.472   4.565   7.950
 4039POPC   C4B12562  10.450   4.538   7.650
 4040POPC   NC312563  32.216  36.098   9.450
 4040POPC   PO412564  32.239  36.170   9.150
 4040POPC   GL112565  32.209  36.128   8.850
 4040POPC   GL212566  32.134  36.177   8.850
 4040POPC   C1A12567  32.272  36.146   8.550
 4040POPC   D2A12568  32.257  36.080   8.250
 4040POPC   C3A12569  32.293  36.093   7.950
 4040POPC   C4A12570  32.264  36.144   7.650
 4040POPC   C1B12571  32.041  36.201   8.550
 4040POPC   C2B12572  32.024  36.232   8.250
 4040POPC   C3B12573  31.998  36.254   7.950
 4040POPC   C4B12574  32.060  36.241   7.650
 4041POPC   NC312575  26.858   4.288   9.450
 4041POPC   PO412576  26.799   4.283   9.150
 4041POPC   GL112577  26.837   4.315   8.850
 4041POPC   GL212578  26.697   4.398   8.850
 4041POPC   C1A12579  26.790   4.330   8.550
 4041POPC   D2A12580  26.847   4.301   8.250
 4041POPC   C3A12581  26.797   4.298   7.950
 4041POPC   C4A12582  26.853   4.271   7.650
 4041POPC   C1B12583  26.645   4.501   8.550
 4041POPC   C2B12584  26.638   4.528   8.250
 4041POPC   C3B12585  26.669   4.464   7.950
 4041POPC   C4B12586  26.607   4.471   7.650
 4042POPC   NC312587  19.799  33.053   9.450
 4042POPC   PO412588  19.834  33.018   9.150
 4042POPC   GL112589  19.806  32.982   8.850
 4042POPC   GL212590  19.751  33.047   8.850
 4042POPC   C1A12591  19.835  33.069   8.550
 4042POPC   D2A12592  19.789  33.019   8.250
 4042POPC   C3A12593  19.878  33.072   7.950
 4042POPC   C4A12594  19.804  33.017   7.650
 4042POPC   C1B12595  19.634  33.054   8.550
 4042POPC   C2B12596  19.614  33.053   8.250
 4042POPC   C3B12597  19.633  33.126   7.950
 4042POPC   C4B12598  19.618  33.118   7.650
 4043POPC   NC312599  31.522  36.147   9.450
 4043POPC   PO412600  31.469  36.109   9.150
 4043POPC   GL112601  31.436  36.102   8.850
 4043POPC   GL212602  31.532  36.251   8.850
 4043POPC   C1A12603  31.430  36.108   8.550
 4043POPC   D2A12604  31.447  36.142   8.250
 4043POPC   C3A12605  31.506  36.144   7.950
 4043POPC   C4A12606  31.475  36.141   7.650
 4043POPC   C1B12607  31.634  36.339   8.550
 4043POPC   C2B12608  31.641  36.361   8.250
 4043POPC   C3B12609  31.634  36.293   7.950
 4043POPC   C4B12610  31.558  36.300   7.650
 4044POPC   NC312611  25.994  35.366   9.450
 4044POPC   PO412612  26.065  35.329   9.150
 4044POPC   GL112613  26.075  35.330   8.850
 4044POPC   GL212614  26.100  35.468   8.850
 4044POPC   C1A12615  26.014  35.372   8.550
 4044POPC   D2A12616  26.000  35.379   8.250
 4044POPC   C3A12617  26.081  35.378   7.950
 4044POPC   C4A12618  26.006  35.389   7.650
 4044POPC   C1B12619  26.244  35.497   8.550
 4044POPC   C2B12620  26.202  35.585   8.250
 4044POPC   C3B12621  26.229  35.537   7.950
 4044POPC   C4B12622  26.214  35.524   7.650
 4045POPC   NC312623  35.391   9.001   9.450
 4045POPC   PO412624  35.401   8.982   9.150
 4045POPC   GL112625  35.370   8.955   8.850
 4045POPC   GL212626  35.343   9.122   8.850
 4045POPC   C1A12627  35.363   8.986   8.550
 4045POPC   D2A12628  35.351   8.993   8.250
 4045POPC   C3A12629  35.348   8.936   7.950
 4045POPC   C4A12630  35.330   8.932   7.650
 4045POPC   C1B12631  35.370   9.204   8.550
 4045POPC   C2B12632  35.401   9.257   8.250
 4045POPC   C3B12633  35.363   9.174   7.950
 4045POPC   C4B12634  35.396   9.218   7.650
 4046POPC   NC312635  32.976  35.307   9.450
 4046POPC   PO412636  33.009  35.348   9.150
 4046POPC   GL112637  33.064  35.320   8.850
 4046POPC   GL212638  33.017  35.192   8.850
 4046POPC   C1A12639  33.053  35.383   8.550
 4046POPC   D2A12640  32.995  35.361   8.250
 4046POPC   C3A12641  33.070  35.324   7.950
 4046POPC   C4A12642  33.006  35.320   7.650
 4046POPC   C1B12643  32.896  35.130   8.550
 4046POPC   C2B12644  32.935  35.169   8.250
 4046POPC   C3B12645  32.945  35.117   7.950
 4046POPC   C4B12646  32.964  35.161   7.650
 4047POPC   NC312647  32.202  33.071   9.450
 4047POPC   PO412648  32.251  33.008   9.150
 4047POPC   GL112649  32.203  33.052   8.850
 4047POPC   GL212650  32.134  33.070   8.850
 4047POPC   C1A12651  32.265  33.017   8.550
 4047POPC   D2A12652  32.227  33.045   8.250
 4047POPC   C3A12653  32.294  33.054   7.950
 4047POPC   C4A12654  32.242  33.022   7.650
 4047POPC   C1B12655  32.038  33.067   8.550
 4047POPC   C2B12656  31.975  33.045   8.250
 4047POPC   C3B12657  31.957  33.094   7.950
 4047POPC   C4B12658  32.048  33.073   7.650
 4048POPC   NC312659  36.860  28.371   9.450
 4048POPC   PO412660  36.878  28.357   9.150
 4048POPC   GL112661  36.913  28.418   8.850
 4048POPC   GL212662  36.837  28.273   8.850
 4048POPC   C1A12663  36.858  28.352   8.550
 4048POPC   D2A12664  36.945  28.355   8.250
 4048POPC   C3A12665  36.903  28.389   7.950
 4048POPC   C4A12666  36.931  28.381   7.650
 4048POPC   C1B12667  36.645  28.312   8.550
 4048POPC   C2B12668  36.725  28.251   8.250
 4048POPC   C3B12669  36.701  28.295   7.950
 4048POPC   C4B12670  36.653  28.277   7.650
 4049POPC   NC312671  33.067  43.863   9.450
 4049POPC   PO412672  33.070  43.903   9.150
 4049POPC   GL112673  33.058  43.888   8.850
 4049POPC   GL212674  33.080  43.863   8.850
 4049POPC   C1A12675  33.060  43.924   8.550
 4049POPC   D2A12676  32.986  43.891   8.250
 4049POPC   C3A12677  33.021  43.894   7.950
 4049POPC   C4A12678  33.055  43.840   7.650
 4049POPC   C1B12679  33.247  43.774   8.550
 4049POPC   C2B12680  33.245  43.771   8.250
 4049POPC   C3B12681  33.272  43.708   7.950
 4049POPC   C4B12682  33.236  43.775   7.650
 4050POPC   NC312683   4.310  35.302   9.450
 4050POPC   PO412684   4.365  35.312   9.150
 4050POPC   GL112685   4.286  35.370   8.850
 4050POPC   GL212686   4.315  35.478   8.850
 4050POPC   C1A12687   4.277  35.336   8.550
 4050POPC   D2A12688   4.299  35.315   8.250
 4050POPC   C3A12689   4.283  35.304   7.950
 4050POPC   C4A12690   4.289  35.329   7.650
 4050POPC   C1B12691   4.291  35.577   8.550
 4050POPC   C2B12692   4.287  35.605   8.250
 4050POPC   C3B12693   4.312  35.578   7.950
 4050POPC   C4B12694   4.295  35.555   7.650
 4051POPC   NC312695  11.311  35.344   9.450
 4051POPC   PO412696  11.287  35.390   9.150
 4051POPC   GL112697  11.308  35.320   8.850
 4051POPC   GL212698  11.232  35.415   8.850
 4051POPC   C1A12699  11.279  35.354   8.550
 4051POPC   D2A12700  11.349  35.352   8.250
 4051POPC   C3A12701  11.287  35.303   7.950
 4051POPC   C4A12702  11.331  35.319   7.650
 4051POPC   C1B12703  11.125  35.495   8.550
 4051POPC   C2B12704  11.156  35.587   8.250
 4051POPC   C3B12705  11.144  35.591   7.950
 4051POPC   C4B12706  11.181  35.552   7.650
 4052POPC   NC312707  38.434  22.199   9.450
 4052POPC   PO412708  38.414  22.117   9.150
 4052POPC   GL112709  38.426  22.117   8.850
 4052POPC   GL212710  38.330  22.237   8.850
 4052POPC   C1A12711  38.484  22.197   8.550
 4052POPC   D2A12712  38.458  22.184   8.250
 4052POPC   C3A12713  38.410  22.149   7.950
 4052POPC   C4A12714  38.486  22.156   7.650
 4052POPC   C1B12715  38.318  22.350   8.550
 4052POPC   C2B12716  38.300  22.326   8.250
 4052POPC   C3B12717  38.319  22.387   7.950
 4052POPC   C4B12718  38.267  22.387   7.650
 4053POPC   NC312719  36.125  25.998   9.450
 4053POPC   PO412720  36.137  26.009   9.150
 4053POPC   GL112721  36.129  26.019   8.850
 4053POPC   GL212722  36.288  25.957   8.850
 4053POPC   C1A12723  36.127  26.087   8.550
 4053POPC   D2A12724  36.111  26.052   8.250
 4053POPC   C3A12725  36.139  26.072   7.950
 4053POPC   C4A12726  36.133  26.049   7.650
 4053POPC   C1B12727  36.380  26.003   8.550
 4053POPC   C2B12728  36.323  25.980   8.250
 4053POPC   C3B12729  36.325  25.984   7.950
 4053POPC   C4B12730  36.415  25.931   7.650
 4054POPC   NC312731  33.065   9.740   9.450
 4054POPC   PO412732  33.015   9.789   9.150
 4054POPC   GL112733  32.983   9.764   8.850
 4054POPC   GL212734  33.115   9.761   8.850
 4054POPC   C1A12735  33.036   9.716   8.550
 4054POPC   D2A12736  33.029   9.788   8.250
 4054POPC   C3A12737  33.033   9.740   7.950
 4054POPC   C4A12738  33.040   9.716   7.650
 4054POPC   C1B12739  33.226   9.721   8.550
 4054POPC   C2B12740  33.287   9.702   8.250
 4054POPC   C3B12741  33.270   9.739   7.950
 4054POPC   C4B12742  33.242   9.717   7.650
 4055POPC   NC312743  19.866   5.125   9.450
 4055POPC   PO412744  19.867   5.127   9.150
 4055POPC   GL112745  19.827   5.088   8.850
 4055POPC   GL212746  19.904   5.173   8.850
 4055POPC   C1A12747  19.873   5.132   8.550
 4055POPC   D2A12748  19.834   5.082   8.250
 4055POPC   C3A12749  19.813   5.085   7.950
 4055POPC   C4A12750  19.791   5.097   7.650
 4055POPC   C1B12751  20.072   5.144   8.550
 4055POPC   C2B12752  20.049   5.148   8.250
 4055POPC   C3B12753  20.018   5.206   7.950
 4055POPC   C4B12754  20.057   5.145   7.650
 4056POPC   NC312755  10.496   7.401   9.450
 4056POPC   PO412756  10.507   7.394   9.150
 4056POPC   GL112757  10.490   7.463   8.850
 4056POPC   GL212758  10.613   7.524   8.850
 4056POPC   C1A12759  10.498   7.445   8.550
 4056POPC   D2A12760  10.490   7.406   8.250
 4056POPC   C3A12761  10.561   7.435   7.950
 4056POPC   C4A12762  10.498   7.430   7.650
 4056POPC   C1B12763  10.674   7.623   8.550
 4056POPC   C2B12764  10.658   7.591   8.250
 4056POPC   C3B12765  10.653   7.595   7.950
 4056POPC   C4B12766  10.698   7.617   7.650
 4057POPC   NC312767  14.356  42.357   9.450
 4057POPC   PO412768  14.403  42.287   9.150
 4057POPC   GL112769  14.365  42.291   8.850
 4057POPC   GL212770  14.372  42.441   8.850
 4057POPC   C1A12771  14.363  42.373   8.550
 4057POPC   D2A12772  14.427  42.369   8.250
 4057POPC   C3A12773  14.372  42.291   7.950
 4057POPC   C4A12774  14.373  42.384   7.650
 4057POPC   C1B12775  14.377  42.621   8.550
 4057POPC   C2B12776  14.407  42.582   8.250
 4057POPC   C3B12777  14.378  42.629   7.950
 4057POPC   C4B12778  14.443  42.587   7.650
 4058POPC   NC312779  44.623  36.877   9.450
 4058POPC   PO412780  44.637  36.926   9.150
 4058POPC   GL112781  44.682  36.875   8.850
 4058POPC   GL212782  44.615  36.811   8.850
 4058POPC   C1A12783  44.653  36.901   8.550
 4058POPC   D2A12784  44.656  36.863   8.250
 4058POPC   C3A12785  44.682  36.953   7.950
 4058POPC   C4A12786  44.620  36.892   7.650
 4058POPC   C1B12787  44.455  36.753   8.550
 4058POPC   C2B12788  44.523  36.694   8.250
 4058POPC   C3B12789  44.525  36.747   7.950
 4058POPC   C4B12790  44.436  36.772   7.650
 4059POPC   NC312791  15.133  11.329   9.450
 4059POPC   PO412792  15.151  11.299   9.150
 4059POPC   GL112793  15.150  11.299   8.850
 4059POPC   GL212794  15.256  11.369   8.850
 4059POPC   C1A12795  15.182  11.291   8.550
 4059POPC   D2A12796  15.146  11.281   8.250
 4059POPC   C3A12797  15.193  11.299   7.950
 4059POPC   C4A12798  15.199  11.328   7.650
 4059POPC   C1B12799  15.419  11.380   8.550
 4059POPC   C2B12800  15.378  11.373   8.250
 4059POPC   C3B12801  15.397  11.439   7.950
 4059POPC   C4B12802  15.459  11.431   7.650
 4060POPC   NC312803  19.102   8.964   9.450
 4060POPC   PO412804  19.045   9.020   9.150
 4060POPC   GL112805  19.084   8.987   8.850
 4060POPC   GL212806  18.905   8.912   8.850
 4060POPC   C1A12807  19.068   8.942   8.550
 4060POPC   D2A12808  19.033   8.979   8.250
 4060POPC   C3A12809  19.043   8.960   7.950
 4060POPC   C4A12810  19.050   8.935   7.650
 4060POPC   C1B12811  18.865   8.826   8.550
 4060POPC   C2B12812  18.809   8.801   8.250
 4060POPC   C3B12813  18.877   8.798   7.950
 4060POPC   C4B12814  18.855   8.799   7.650
 4061POPC   NC312815  20.580  18.308   9.450
 4061POPC   PO412816  20.582  18.283   9.150
 4061POPC   GL112817  20.655  18.255   8.850
 4061POPC   GL212818  20.643  18.199   8.850
 4061POPC   C1A12819  20.655  18.283   8.550
 4061POPC   D2A12820  20.563  18.241   8.250
 4061POPC   C3A12821  20.637  18.240   7.950
 4061POPC   C4A12822  20.597  18.266   7.650
 4061POPC   C1B12823  20.710  18.023   8.550
 4061POPC   C2B12824  20.642  17.997   8.250
 4061POPC   C3B12825  20.703  18.007   7.950
 4061POPC   C4B12826  20.660  18.003   7.650
 4062POPC   NC312827  31.479   1.217   9.450
 4062POPC   PO412828  31.453   1.180   9.150
 4062POPC   GL112829  31.434   1.172   8.850
 4062POPC   GL212830  31.520   1.333   8.850
 4062POPC   C1A12831  31.450   1.219   8.550
 4062POPC   D2A12832  31.514   1.240   8.250
 4062POPC   C3A12833  31.449   1.232   7.950
 4062POPC   C4A12834  31.431   1.219   7.650
 4062POPC   C1B12835  31.713   1.336   8.550
 4062POPC   C2B12836  31.627   1.333   8.250
 4062POPC   C3B12837  31.642   1.330   7.950
 4062POPC   C4B12838  31.677   1.410   7.650
 4063POPC   NC312839  19.796  40.023   9.450
 4063POPC   PO412840  19.790  40.050   9.150
 4063POPC   GL112841  19.813  40.005   8.850
 4063POPC   GL212842  19.712  39.980   8.850
 4063POPC   C1A12843  19.814  39.985   8.550
 4063POPC   D2A12844  19.854  39.964   8.250
 4063POPC   C3A12845  19.882  40.056   7.950
 4063POPC   C4A12846  19.845  40.044   7.650
 4063POPC   C1B12847  19.550  39.946   8.550
 4063POPC   C2B12848  19.584  39.964   8.250
 4063POPC   C3B12849  19.618  39.893   7.950
 4063POPC   C4B12850  19.581  39.965   7.650
 4064POPC   NC312851  26.834  29.872   9.450
 4064POPC   PO412852  26.789  29.885   9.150
 4064POPC   GL112853  26.782  29.942   8.850
 4064POPC   GL212854  26.787  29.796   8.850
 4064POPC   C1A12855  26.815  29.949   8.550
 4064POPC   D2A12856  26.770  29.948   8.250
 4064POPC   C3A12857  26.860  29.914   7.950
 4064POPC   C4A12858  26.835  29.900   7.650
 4064POPC   C1B12859  26.634  29.700   8.550
 4064POPC   C2B12860  26.674  29.713   8.250
 4064POPC   C3B12861  26.623  29.723   7.950
 4064POPC   C4B12862  26.685  29.752   7.650
 4065POPC   NC312863  16.767  17.477   9.450
 4065POPC   PO412864  16.705  17.516   9.150
 4065POPC   GL112865  16.697  17.485   8.850
 4065POPC   GL212866  16.737  17.660   8.850
 4065POPC   C1A12867  16.761  17.530   8.550
 4065POPC   D2A12868  16.686  17.544   8.250
 4065POPC   C3A12869  16.743  17.474   7.950
 4065POPC   C4A12870  16.684  17.537   7.650
 4065POPC   C1B12871  16.784  17.740   8.550
 4065POPC   C2B12872  16.795  17.713   8.250
 4065POPC   C3B12873  16.863  17.708   7.950
 4065POPC   C4B12874  16.797  17.749   7.650
 4066POPC   NC312875   1.221  27.593   9.450
 4066POPC   PO412876   1.251  27.629   9.150
 4066POPC   GL112877   1.230  27.579   8.850
 4066POPC   GL212878   1.263  27.647   8.850
 4066POPC   C1A12879   1.239  27.599   8.550
 4066POPC   D2A12880   1.203  27.623   8.250
 4066POPC   C3A12881   1.227  27.607   7.950
 4066POPC   C4A12882   1.262  27.602   7.650
 4066POPC   C1B12883   1.347  27.792   8.550
 4066POPC   C2B12884   1.402  27.736   8.250
 4066POPC   C3B12885   1.399  27.772   7.950
 4066POPC   C4B12886   1.336  27.779   7.650
 4067POPC   NC312887  28.320  19.039   9.450
 4067POPC   PO412888  28.415  19.024   9.150
 4067POPC   GL112889  28.409  19.074   8.850
 4067POPC   GL212890  28.230  18.934   8.850
 4067POPC   C1A12891  28.333  19.017   8.550
 4067POPC   D2A12892  28.355  19.046   8.250
 4067POPC   C3A12893  28.395  19.042   7.950
 4067POPC   C4A12894  28.417  19.085   7.650
 4067POPC   C1B12895  28.224  18.894   8.550
 4067POPC   C2B12896  28.224  18.870   8.250
 4067POPC   C3B12897  28.229  18.884   7.950
 4067POPC   C4B12898  28.154  18.847   7.650
 4068POPC   NC312899  34.617   4.318   9.450
 4068POPC   PO412900  34.534   4.285   9.150
 4068POPC   GL112901  34.528   4.288   8.850
 4068POPC   GL212902  34.556   4.471   8.850
 4068POPC   C1A12903  34.560   4.343   8.550
 4068POPC   D2A12904  34.579   4.352   8.250
 4068POPC   C3A12905  34.567   4.305   7.950
 4068POPC   C4A12906  34.621   4.355   7.650
 4068POPC   C1B12907  34.615   4.515   8.550
 4068POPC   C2B12908  34.592   4.542   8.250
 4068POPC   C3B12909  34.646   4.593   7.950
 4068POPC   C4B12910  34.672   4.570   7.650
 4069POPC   NC312911   9.700   4.358   9.450
 4069POPC   PO412912   9.787   4.344   9.150
 4069POPC   GL112913   9.790   4.269   8.850
 4069POPC   GL212914   9.860   4.368   8.850
 4069POPC   C1A12915   9.769   4.352   8.550
 4069POPC   D2A12916   9.756   4.323   8.250
 4069POPC   C3A12917   9.754   4.318   7.950
 4069POPC   C4A12918   9.794   4.278   7.650
 4069POPC   C1B12919   9.933   4.438   8.550
 4069POPC   C2B12920   9.982   4.386   8.250
 4069POPC   C3B12921  10.017   4.391   7.950
 4069POPC   C4B12922  10.014   4.416   7.650
 4070POPC   NC312923  16.778  19.093   9.450
 4070POPC   PO412924  16.738  19.075   9.150
 4070POPC   GL112925  16.685  19.015   8.850
 4070POPC   GL212926  16.777  19.147   8.850
 4070POPC   C1A12927  16.707  19.096   8.550
 4070POPC   D2A12928  16.754  19.047   8.250
 4070POPC   C3A12929  16.768  19.043   7.950
 4070POPC   C4A12930  16.699  19.060   7.650
 4070POPC   C1B12931  16.758  19.294   8.550
 4070POPC   C2B12932  16.730  19.297   8.250
 4070POPC   C3B12933  16.741  19.288   7.950
 4070POPC   C4B12934  16.744  19.269   7.650
 4071POPC   NC312935  43.104  35.336   9.450
 4071POPC   PO412936  43.126  35.317   9.150
 4071POPC   GL112937  43.146  35.326   8.850
 4071POPC   GL212938  43.172  35.197   8.850
 4071POPC   C1A12939  43.139  35.318   8.550
 4071POPC   D2A12940  43.113  35.379   8.250
 4071POPC   C3A12941  43.101  35.345   7.950
 4071POPC   C4A12942  43.066  35.327   7.650
 4071POPC   C1B12943  43.200  35.157   8.550
 4071POPC   C2B12944  43.183  35.123   8.250
 4071POPC   C3B12945  43.218  35.138   7.950
 4071POPC   C4B12946  43.205  35.140   7.650
 4072POPC   NC312947  30.653   1.204   9.450
 4072POPC   PO412948  30.694   1.196   9.150
 4072POPC   GL112949  30.733   1.224   8.850
 4072POPC   GL212950  30.826   1.114   8.850
 4072POPC   C1A12951  30.667   1.180   8.550
 4072POPC   D2A12952  30.698   1.176   8.250
 4072POPC   C3A12953  30.657   1.225   7.950
 4072POPC   C4A12954  30.650   1.190   7.650
 4072POPC   C1B12955  30.882   1.010   8.550
 4072POPC   C2B12956  30.860   0.982   8.250
 4072POPC   C3B12957  30.850   1.076   7.950
 4072POPC   C4B12958  30.841   0.986   7.650
 4073POPC   NC312959  15.960   3.544   9.450
 4073POPC   PO412960  15.915   3.514   9.150
 4073POPC   GL112961  15.936   3.566   8.850
 4073POPC   GL212962  15.872   3.428   8.850
 4073POPC   C1A12963  16.001   3.546   8.550
 4073POPC   D2A12964  15.994   3.533   8.250
 4073POPC   C3A12965  15.986   3.517   7.950
 4073POPC   C4A12966  15.987   3.573   7.650
 4073POPC   C1B12967  15.799   3.316   8.550
 4073POPC   C2B12968  15.862   3.358   8.250
 4073POPC   C3B12969  15.857   3.373   7.950
 4073POPC   C4B12970  15.811   3.344   7.650
 4074POPC   NC312971  34.602  25.302   9.450
 4074POPC   PO412972  34.623  25.246   9.150
 4074POPC   GL112973  34.530  25.236   8.850
 4074POPC   GL212974  34.610  25.423   8.850
 4074POPC   C1A12975  34.595  25.232   8.550
 4074POPC   D2A12976  34.567  25.225   8.250
 4074POPC   C3A12977  34.619  25.246   7.950
 4074POPC   C4A12978  34.620  25.252   7.650
 4074POPC   C1B12979  34.576  25.480   8.550
 4074POPC   C2B12980  34.594  25.564   8.250
 4074POPC   C3B12981  34.617  25.527   7.950
 4074POPC   C4B12982  34.564  25.534   7.650
 4075POPC   NC312983   5.841   9.732   9.450
 4075POPC   PO412984   5.830   9.764   9.150
 4075POPC   GL112985   5.894   9.737   8.850
 4075POPC   GL212986   5.947   9.784   8.850
 4075POPC   C1A12987   5.861   9.744   8.550
 4075POPC   D2A12988   5.841   9.733   8.250
 4075POPC   C3A12989   5.899   9.741   7.950
 4075POPC   C4A12990   5.865   9.790   7.650
 4075POPC   C1B12991   6.032   9.918   8.550
 4075POPC   C2B12992   6.095   9.954   8.250
 4075POPC   C3B12993   6.101   9.918   7.950
 4075POPC   C4B12994   6.066   9.956   7.650
 4076POPC   NC312995  25.296  19.841   9.450
 4076POPC   PO412996  25.251  19.869   9.150
 4076POPC   GL112997  25.289  19.806   8.850
 4076POPC   GL212998  25.194  19.965   8.850
 4076POPC   C1A12999  25.315  19.852   8.550
 4076POPC   D2A13000  25.275  19.832   8.250
 4076POPC   C3A13001  25.236  19.803   7.950
 4076POPC   C4A13002  25.275  19.872   7.650
 4076POPC   C1B13003  25.117  20.014   8.550
 4076POPC   C2B13004  25.103  20.002   8.250
 4076POPC   C3B13005  25.101  20.036   7.950
 4076POPC   C4B13006  25.102  20.072   7.650
 4077POPC   NC313007  27.588  19.834   9.450
 4077POPC   PO413008  27.545  19.857   9.150
 4077POPC   GL113009  27.639  19.812   8.850
 4077POPC   GL213010  27.464  19.801   8.850
 4077POPC   C1A13011  27.621  19.824   8.550
 4077POPC   D2A13012  27.618  19.803   8.250
 4077POPC   C3A13013  27.624  19.830   7.950
 4077POPC   C4A13014  27.597  19.842   7.650
 4077POPC   C1B13015  27.345  19.854   8.550
 4077POPC   C2B13016  27.316  19.825   8.250
 4077POPC   C3B13017  27.366  19.858   7.950
 4077POPC   C4B13018  27.347  19.909   7.650
 4078POPC   NC313019  28.336  16.709   9.450
 4078POPC   PO413020  28.367  16.704   9.150
 4078POPC   GL113021  28.405  16.754   8.850
 4078POPC   GL213022  28.230  16.673   8.850
 4078POPC   C1A13023  28.397  16.749   8.550
 4078POPC   D2A13024  28.327  16.752   8.250
 4078POPC   C3A13025  28.395  16.701   7.950
 4078POPC   C4A13026  28.322  16.708   7.650
 4078POPC   C1B13027  28.232  16.530   8.550
 4078POPC   C2B13028  28.200  16.598   8.250
 4078POPC   C3B13029  28.218  16.548   7.950
 4078POPC   C4B13030  28.176  16.562   7.650
 4079POPC   NC313031  41.603   5.875   9.450
 4079POPC   PO413032  41.525   5.888   9.150
 4079POPC   GL113033  41.568   5.833   8.850
 4079POPC   GL213034  41.547   5.991   8.850
 4079POPC   C1A13035  41.593   5.853   8.550
 4079POPC   D2A13036  41.590   5.879   8.250
 4079POPC   C3A13037  41.569   5.860   7.950
 4079POPC   C4A13038  41.567   5.911   7.650
 4079POPC   C1B13039  41.646   6.145   8.550
 4079POPC   C2B13040  41.666   6.066   8.250
 4079POPC   C3B13041  41.590   6.107   7.950
 4079POPC   C4B13042  41.650   6.095   7.650
 4080POPC   NC313043  21.422   6.679   9.450
 4080POPC   PO413044  21.409   6.675   9.150
 4080POPC   GL113045  21.359   6.609   8.850
 4080POPC   GL213046  21.493   6.659   8.850
 4080POPC   C1A13047  21.418   6.626   8.550
 4080POPC   D2A13048  21.420   6.666   8.250
 4080POPC   C3A13049  21.369   6.637   7.950
 4080POPC   C4A13050  21.402   6.672   7.650
 4080POPC   C1B13051  21.669   6.673   8.550
 4080POPC   C2B13052  21.645   6.682   8.250
 4080POPC   C3B13053  21.622   6.665   7.950
 4080POPC   C4B13054  21.613   6.706   7.650
 4081POPC   NC313055   2.742   9.713   9.450
 4081POPC   PO413056   2.727   9.710   9.150
 4081POPC   GL113057   2.760   9.732   8.850
 4081POPC   GL213058   2.775   9.594   8.850
 4081POPC   C1A13059   2.781   9.713   8.550
 4081POPC   D2A13060   2.723   9.737   8.250
 4081POPC   C3A13061   2.794   9.758   7.950
 4081POPC   C4A13062   2.797   9.786   7.650
 4081POPC   C1B13063   2.859   9.549   8.550
 4081POPC   C2B13064   2.909   9.503   8.250
 4081POPC   C3B13065   2.850   9.561   7.950
 4081POPC   C4B13066   2.895   9.527   7.650
 4082POPC   NC313067  13.587  12.070   9.450
 4082POPC   PO413068  13.662  12.110   9.150
 4082POPC   GL113069  13.656  12.118   8.850
 4082POPC   GL213070  13.680  11.957   8.850
 4082POPC   C1A13071  13.645  12.096   8.550
 4082POPC   D2A13072  13.656  12.038   8.250
 4082POPC   C3A13073  13.627  12.087   7.950
 4082POPC   C4A13074  13.605  12.047   7.650
 4082POPC   C1B13075  13.694  11.872   8.550
 4082POPC   C2B13076  13.731  11.827   8.250
 4082POPC   C3B13077  13.645  11.871   7.950
 4082POPC   C4B13078  13.695  11.797   7.650
 4083POPC   NC313079  36.091  32.199   9.450
 4083POPC   PO413080  36.168  32.284   9.150
 4083POPC   GL113081  36.176  32.261   8.850
 4083POPC   GL213082  36.145  32.165   8.850
 4083POPC   C1A13083  36.163  32.200   8.550
 4083POPC   D2A13084  36.148  32.249   8.250
 4083POPC   C3A13085  36.166  32.260   7.950
 4083POPC   C4A13086  36.089  32.237   7.650
 4083POPC   C1B13087  36.096  32.030   8.550
 4083POPC   C2B13088  36.122  31.980   8.250
 4083POPC   C3B13089  36.144  32.009   7.950
 4083POPC   C4B13090  36.153  32.015   7.650
 4084POPC   NC313091   6.609   9.782   9.450
 4084POPC   PO413092   6.686   9.760   9.150
 4084POPC   GL113093   6.638   9.709   8.850
 4084POPC   GL213094   6.756   9.619   8.850
 4084POPC   C1A13095   6.629   9.743   8.550
 4084POPC   D2A13096   6.609   9.744   8.250
 4084POPC   C3A13097   6.681   9.768   7.950
 4084POPC   C4A13098   6.686   9.746   7.650
 4084POPC   C1B13099   6.762   9.580   8.550
 4084POPC   C2B13100   6.745   9.533   8.250
 4084POPC   C3B13101   6.750   9.492   7.950
 4084POPC   C4B13102   6.827   9.534   7.650
 4085POPC   NC313103   2.778  30.668   9.450
 4085POPC   PO413104   2.796  30.691   9.150
 4085POPC   GL113105   2.768  30.701   8.850
 4085POPC   GL213106   2.854  30.586   8.850
 4085POPC   C1A13107   2.723  30.735   8.550
 4085POPC   D2A13108   2.759  30.647   8.250
 4085POPC   C3A13109   2.809  30.706   7.950
 4085POPC   C4A13110   2.739  30.731   7.650
 4085POPC   C1B13111   2.891  30.423   8.550
 4085POPC   C2B13112   2.880  30.449   8.250
 4085POPC   C3B13113   2.900  30.471   7.950
 4085POPC   C4B13114   2.835  30.438   7.650
 4086POPC   NC313115  28.362  33.755   9.450
 4086POPC   PO413116  28.384  33.830   9.150
 4086POPC   GL113117  28.372  33.841   8.850
 4086POPC   GL213118  28.307  33.677   8.850
 4086POPC   C1A13119  28.339  33.845   8.550
 4086POPC   D2A13120  28.359  33.758   8.250
 4086POPC   C3A13121  28.371  33.805   7.950
 4086POPC   C4A13122  28.322  33.795   7.650
 4086POPC   C1B13123  28.211  33.640   8.550
 4086POPC   C2B13124  28.207  33.637   8.250
 4086POPC   C3B13125  28.214  33.585   7.950
 4086POPC   C4B13126  28.256  33.648   7.650
 4087POPC   NC313127  28.330  44.649   9.450
 4087POPC   PO413128  28.408  44.646   9.150
 4087POPC   GL113129  28.348  44.682   8.850
 4087POPC   GL213130  28.519  44.598   8.850
 4087POPC   C1A13131  28.361  44.707   8.550
 4087POPC   D2A13132  28.321  44.685   8.250
 4087POPC   C3A13133  28.347  44.644   7.950
 4087POPC   C4A13134  28.354  44.642   7.650
 4087POPC   C1B13135  28.604  44.652   8.550
 4087POPC   C2B13136  28.623  44.597   8.250
 4087POPC   C3B13137  28.579  44.637   7.950
 4087POPC   C4B13138  28.612  44.621   7.650
 4088POPC   NC313139  36.941  16.751   9.450
 4088POPC   PO413140  36.893  16.752   9.150
 4088POPC   GL113141  36.903  16.715   8.850
 4088POPC   GL213142  36.865  16.658   8.850
 4088POPC   C1A13143  36.862  16.740   8.550
 4088POPC   D2A13144  36.931  16.768   8.250
 4088POPC   C3A13145  36.926  16.707   7.950
 4088POPC   C4A13146  36.949  16.746   7.650
 4088POPC   C1B13147  36.852  16.446   8.550
 4088POPC   C2B13148  36.808  16.524   8.250
 4088POPC   C3B13149  36.780  16.537   7.950
 4088POPC   C4B13150  36.801  16.509   7.650
 4089POPC   NC313151  27.593  32.277   9.450
 4089POPC   PO413152  27.565  32.230   9.150
 4089POPC   GL113153  27.580  32.291   8.850
 4089POPC   GL213154  27.670  32.335   8.850
 4089POPC   C1A13155  27.609  32.219   8.550
 4089POPC   D2A13156  27.554  32.263   8.250
 4089POPC   C3A13157  27.613  32.202   7.950
 4089POPC   C4A13158  27.563  32.264   7.650
 4089POPC   C1B13159  27.708  32.499   8.550
 4089POPC   C2B13160  27.707  32.480   8.250
 4089POPC   C3B13161  27.734  32.488   7.950
 4089POPC   C4B13162  27.685  32.466   7.650
 4090POPC   NC313163   2.741  39.218   9.450
 4090POPC   PO413164   2.733  39.232   9.150
 4090POPC   GL113165   2.727  39.267   8.850
 4090POPC   GL213166   2.891  39.134   8.850
 4090POPC   C1A13167   2.789  39.280   8.550
 4090POPC   D2A13168   2.795  39.275   8.250
 4090POPC   C3A13169   2.780  39.191   7.950
 4090POPC   C4A13170   2.785  39.236   7.650
 4090POPC   C1B13171   3.001  39.072   8.550
 4090POPC   C2B13172   2.985  39.069   8.250
 4090POPC   C3B13173   3.004  39.059   7.950
 4090POPC   C4B13174   2.932  39.054   7.650
 4091POPC   NC313175  19.835   0.402   9.450
 4091POPC   PO413176  19.872   0.475   9.150
 4091POPC   GL113177  19.867   0.416   8.850
 4091POPC   GL213178  19.949   0.347   8.850
 4091POPC   C1A13179  19.846   0.451   8.550
 4091POPC   D2A13180  19.828   0.395   8.250
 4091POPC   C3A13181  19.839   0.405   7.950
 4091POPC   C4A13182  19.869   0.439   7.650
 4091POPC   C1B13183  19.950   0.228   8.550
 4091POPC   C2B13184  20.005   0.205   8.250
 4091POPC   C3B13185  20.015   0.283   7.950
 4091POPC   C4B13186  19.998   0.206   7.650
 4092POPC   NC313187  30.664  36.944   9.450
 4092POPC   PO413188  30.673  36.896   9.150
 4092POPC   GL113189  30.723  36.908   8.850
 4092POPC   GL213190  30.726  36.735   8.850
 4092POPC   C1A13191  30.653  36.928   8.550
 4092POPC   D2A13192  30.694  36.899   8.250
 4092POPC   C3A13193  30.746  36.936   7.950
 4092POPC   C4A13194  30.709  36.892   7.650
 4092POPC   C1B13195  30.718  36.638   8.550
 4092POPC   C2B13196  30.725  36.664   8.250
 4092POPC   C3B13197  30.697  36.635   7.950
 4092POPC   C4B13198  30.755  36.665   7.650
 4093POPC   NC313199   8.929  29.881   9.450
 4093POPC   PO413200   8.989  29.899   9.150
 4093POPC   GL113201   9.013  29.934   8.850
 4093POPC   GL213202   8.970  30.022   8.850
 4093POPC   C1A13203   9.012  29.907   8.550
 4093POPC   D2A13204   8.940  29.950   8.250
 4093POPC   C3A13205   8.930  29.964   7.950
 4093POPC   C4A13206   8.993  29.882   7.650
 4093POPC   C1B13207   8.959  30.203   8.550
 4093POPC   C2B13208   8.982  30.136   8.250
 4093POPC   C3B13209   8.966  30.204   7.950
 4093POPC   C4B13210   8.987  30.143   7.650
 4094POPC   NC313211  36.886  19.802   9.450
 4094POPC   PO413212  36.913  19.831   9.150
 4094POPC   GL113213  36.858  19.873   8.850
 4094POPC   GL213214  37.058  19.786   8.850
 4094POPC   C1A13215  36.945  19.816   8.550
 4094POPC   D2A13216  36.908  19.808   8.250
 4094POPC   C3A13217  36.863  19.859   7.950
 4094POPC   C4A13218  36.866  19.848   7.650
 4094POPC   C1B13219  37.139  19.810   8.550
 4094POPC   C2B13220  37.124  19.789   8.250
 4094POPC   C3B13221  37.196  19.870   7.950
 4094POPC   C4B13222  37.201  19.797   7.650
 4095POPC   NC313223  43.875  15.995   9.450
 4095POPC   PO413224  43.875  15.941   9.150
 4095POPC   GL113225  43.864  15.959   8.850
 4095POPC   GL213226  43.791  15.821   8.850
 4095POPC   C1A13227  43.925  15.950   8.550
 4095POPC   D2A13228  43.885  15.946   8.250
 4095POPC   C3A13229  43.896  15.915   7.950
 4095POPC   C4A13230  43.899  15.913   7.650
 4095POPC   C1B13231  43.743  15.745   8.550
 4095POPC   C2B13232  43.681  15.807   8.250
 4095POPC   C3B13233  43.747  15.754   7.950
 4095POPC   C4B13234  43.713  15.742   7.650
 4096POPC   NC313235   0.396  28.365   9.450
 4096POPC   PO413236   0.395  28.353   9.150
 4096POPC   GL113237   0.392  28.396   8.850
 4096POPC   GL213238   0.484  28.429   8.850
 4096POPC   C1A13239   0.445  28.341   8.550
 4096POPC   D2A13240   0.435  28.379   8.250
 4096POPC   C3A13241   0.447  28.401   7.950
 4096POPC   C4A13242   0.474  28.356   7.650
 4096POPC   C1B13243   0.661  28.525   8.550
 4096POPC   C2B13244   0.577  28.503   8.250
 4096POPC   C3B13245   0.624  28.563   7.950
 4096POPC   C4B13246   0.592  28.491   7.650
 4097POPC   NC313247   8.208  12.035   9.450
 4097POPC   PO413248   8.244  12.084   9.150
 4097POPC   GL113249   8.150  12.058   8.850
 4097POPC   GL213250   8.155  12.163   8.850
 4097POPC   C1A13251   8.244  12.077   8.550
 4097POPC   D2A13252   8.159  12.091   8.250
 4097POPC   C3A13253   8.235  12.084   7.950
 4097POPC   C4A13254   8.239  12.099   7.650
 4097POPC   C1B13255   8.156  12.325   8.550
 4097POPC   C2B13256   8.173  12.301   8.250
 4097POPC   C3B13257   8.145  12.344   7.950
 4097POPC   C4B13258   8.115  12.306   7.650
 4098POPC   NC313259   6.630  41.509   9.450
 4098POPC   PO413260   6.669  41.522   9.150
 4098POPC   GL113261   6.654  41.544   8.850
 4098POPC   GL213262   6.529  41.569   8.850
 4098POPC   C1A13263   6.629  41.522   8.550
 4098POPC   D2A13264   6.656  41.566   8.250
 4098POPC   C3A13265   6.677  41.563   7.950
 4098POPC   C4A13266   6.608  41.534   7.650
 4098POPC   C1B13267   6.350  41.524   8.550
 4098POPC   C2B13268   6.351  41.548   8.250
 4098POPC   C3B13269   6.352  41.560   7.950
 4098POPC   C4B13270   6.354  41.537   7.650
 4099POPC   NC313271  25.250  26.031   9.450
 4099POPC   PO413272  25.288  26.013   9.150
 4099POPC   GL113273  25.253  26.036   8.850
 4099POPC   GL213274  25.305  26.144   8.850
 4099POPC   C1A13275  25.291  26.079   8.550
 4099POPC   D2A13276  25.216  26.061   8.250
 4099POPC   C3A13277  25.265  26.091   7.950
 4099POPC   C4A13278  25.267  26.058   7.650
 4099POPC   C1B13279  25.346  26.312   8.550
 4099POPC   C2B13280  25.398  26.283   8.250
 4099POPC   C3B13281  25.364  26.300   7.950
 4099POPC   C4B13282  25.328  26.294   7.650
 4100POPC   NC313283  14.401  41.597   9.450
 4100POPC   PO413284  14.397  41.540   9.150
 4100POPC   GL113285  14.365  41.562   8.850
 4100POPC   GL213286  14.305  41.438   8.850
 4100POPC   C1A13287  14.376  41.555   8.550
 4100POPC   D2A13288  14.437  41.605   8.250
 4100POPC   C3A13289  14.444  41.528   7.950
 4100POPC   C4A13290  14.446  41.588   7.650
 4100POPC   C1B13291  14.238  41.429   8.550
 4100POPC   C2B13292  14.170  41.395   8.250
 4100POPC   C3B13293  14.176  41.430   7.950
 4100POPC   C4B13294  14.219  41.367   7.650
 4101POPC   NC313295  33.015  36.889   9.450
 4101POPC   PO413296  33.072  36.939   9.150
 4101POPC   GL113297  33.055  36.934   8.850
 4101POPC   GL213298  32.963  36.847   8.850
 4101POPC   C1A13299  33.043  36.864   8.550
 4101POPC   D2A13300  33.061  36.952   8.250
 4101POPC   C3A13301  32.993  36.867   7.950
 4101POPC   C4A13302  32.988  36.869   7.650
 4101POPC   C1B13303  32.810  36.744   8.550
 4101POPC   C2B13304  32.850  36.784   8.250
 4101POPC   C3B13305  32.803  36.752   7.950
 4101POPC   C4B13306  32.853  36.785   7.650
 4102POPC   NC313307  22.922  15.956   9.450
 4102POPC   PO413308  22.959  15.927   9.150
 4102POPC   GL113309  22.927  15.954   8.850
 4102POPC   GL213310  22.950  16.107   8.850
 4102POPC   C1A13311  22.978  15.971   8.550
 4102POPC   D2A13312  22.889  15.938   8.250
 4102POPC   C3A13313  22.940  15.982   7.950
 4102POPC   C4A13314  22.908  15.977   7.650
 4102POPC   C1B13315  22.925  16.166   8.550
 4102POPC   C2B13316  22.889  16.204   8.250
 4102POPC   C3B13317  22.916  16.236   7.950
 4102POPC   C4B13318  22.866  16.230   7.650
 4103POPC   NC313319  33.752  30.690   9.450
 4103POPC   PO413320  33.814  30.695   9.150
 4103POPC   GL113321  33.755  30.691   8.850
 4103POPC   GL213322  33.727  30.703   8.850
 4103POPC   C1A13323  33.840  30.680   8.550
 4103POPC   D2A13324  33.813  30.746   8.250
 4103POPC   C3A13325  33.789  30.655   7.950
 4103POPC   C4A13326  33.833  30.710   7.650
 4103POPC   C1B13327  33.578  30.570   8.550
 4103POPC   C2B13328  33.558  30.590   8.250
 4103POPC   C3B13329  33.551  30.633   7.950
 4103POPC   C4B13330  33.530  30.587   7.650
 4104POPC   NC313331  29.929  36.902   9.450
 4104POPC   PO413332  29.890  36.915   9.150
 4104POPC   GL113333  29.971  36.894   8.850
 4104POPC   GL213334  29.781  36.811   8.850
 4104POPC   C1A13335  29.953  36.950   8.550
 4104POPC   D2A13336  29.875  36.885   8.250
 4104POPC   C3A13337  29.964  36.878   7.950
 4104POPC   C4A13338  29.884  36.867   7.650
 4104POPC   C1B13339  29.737  36.755   8.550
 4104POPC   C2B13340  29.739  36.743   8.250
 4104POPC   C3B13341  29.694  36.790   7.950
 4104POPC   C4B13342  29.699  36.750   7.650
 4105POPC   NC313343  22.948  35.392   9.450
 4105POPC   PO413344  22.930  35.313   9.150
 4105POPC   GL113345  22.894  35.347   8.850
 4105POPC   GL213346  22.882  35.218   8.850
 4105POPC   C1A13347  22.959  35.400   8.550
 4105POPC   D2A13348  22.922  35.364   8.250
 4105POPC   C3A13349  22.911  35.345   7.950
 4105POPC   C4A13350  22.897  35.388   7.650
 4105POPC   C1B13351  22.914  35.066   8.550
 4105POPC   C2B13352  22.888  35.161   8.250
 4105POPC   C3B13353  22.840  35.100   7.950
 4105POPC   C4B13354  22.821  35.114   7.650
 4106POPC   NC313355   2.769  27.597   9.450
 4106POPC   PO413356   2.800  27.601   9.150
 4106POPC   GL113357   2.797  27.577   8.850
 4106POPC   GL213358   2.836  27.458   8.850
 4106POPC   C1A13359   2.753  27.606   8.550
 4106POPC   D2A13360   2.780  27.641   8.250
 4106POPC   C3A13361   2.765  27.545   7.950
 4106POPC   C4A13362   2.761  27.549   7.650
 4106POPC   C1B13363   2.901  27.415   8.550
 4106POPC   C2B13364   2.936  27.396   8.250
 4106POPC   C3B13365   2.889  27.422   7.950
 4106POPC   C4B13366   2.884  27.369   7.650
 4107POPC   NC313367  29.962  15.190   9.450
 4107POPC   PO413368  29.942  15.171   9.150
 4107POPC   GL113369  29.943  15.203   8.850
 4107POPC   GL213370  30.082  15.182   8.850
 4107POPC   C1A13371  29.920  15.184   8.550
 4107POPC   D2A13372  29.912  15.189   8.250
 4107POPC   C3A13373  29.963  15.228   7.950
 4107POPC   C4A13374  29.887  15.134   7.650
 4107POPC   C1B13375  30.206  15.189   8.550
 4107POPC   C2B13376  30.126  15.261   8.250
 4107POPC   C3B13377  30.198  15.241   7.950
 4107POPC   C4B13378  30.170  15.243   7.650
 4108POPC   NC313379  31.431   5.821   9.450
 4108POPC   PO413380  31.446   5.869   9.150
 4108POPC   GL113381  31.498   5.858   8.850
 4108POPC   GL213382  31.543   5.720   8.850
 4108POPC   C1A13383  31.470   5.839   8.550
 4108POPC   D2A13384  31.488   5.833   8.250
 4108POPC   C3A13385  31.462   5.862   7.950
 4108POPC   C4A13386  31.435   5.888   7.650
 4108POPC   C1B13387  31.489   5.583   8.550
 4108POPC   C2B13388  31.483   5.666   8.250
 4108POPC   C3B13389  31.504   5.656   7.950
 4108POPC   C4B13390  31.510   5.644   7.650
 4109POPC   NC313391  32.985  27.622   9.450
 4109POPC   PO413392  33.056  27.589   9.150
 4109POPC   GL113393  32.983  27.627   8.850
 4109POPC   GL213394  32.914  27.684   8.850
 4109POPC   C1A13395  33.047  27.553   8.550
 4109POPC   D2A13396  32.974  27.595   8.250
 4109POPC   C3A13397  33.037  27.635   7.950
 4109POPC   C4A13398  33.055  27.601   7.650
 4109POPC   C1B13399  32.775  27.744   8.550
 4109POPC   C2B13400  32.814  27.705   8.250
 4109POPC   C3B13401  32.792  27.717   7.950
 4109POPC   C4B13402  32.776  27.688   7.650
 4110POPC   NC313403   0.396  41.593   9.450
 4110POPC   PO413404   0.454  41.587   9.150
 4110POPC   GL113405   0.462  41.569   8.850
 4110POPC   GL213406   0.271  41.557   8.850
 4110POPC   C1A13407   0.418  41.579   8.550
 4110POPC   D2A13408   0.396  41.517   8.250
 4110POPC   C3A13409   0.466  41.575   7.950
 4110POPC   C4A13410   0.413  41.555   7.650
 4110POPC   C1B13411   0.234  41.582   8.550
 4110POPC   C2B13412   0.220  41.550   8.250
 4110POPC   C3B13413   0.148  41.613   7.950
 4110POPC   C4B13414   0.166  41.593   7.650
 4111POPC   NC313415  26.823  22.173   9.450
 4111POPC   PO413416  26.849  22.136   9.150
 4111POPC   GL113417  26.852  22.164   8.850
 4111POPC   GL213418  26.906  22.060   8.850
 4111POPC   C1A13419  26.786  22.116   8.550
 4111POPC   D2A13420  26.807  22.181   8.250
 4111POPC   C3A13421  26.835  22.173   7.950
 4111POPC   C4A13422  26.775  22.202   7.650
 4111POPC   C1B13423  26.995  22.065   8.550
 4111POPC   C2B13424  27.031  22.001   8.250
 4111POPC   C3B13425  27.037  22.030   7.950
 4111POPC   C4B13426  27.040  22.013   7.650
 4112POPC   NC313427  35.373  10.572   9.450
 4112POPC   PO413428  35.348  10.497   9.150
 4112POPC   GL113429  35.376  10.546   8.850
 4112POPC   GL213430  35.255  10.465   8.850
 4112POPC   C1A13431  35.382  10.503   8.550
 4112POPC   D2A13432  35.396  10.526   8.250
 4112POPC   C3A13433  35.349  10.490   7.950
 4112POPC   C4A13434  35.356  10.485   7.650
 4112POPC   C1B13435  35.136  10.438   8.550
 4112POPC   C2B13436  35.156  10.360   8.250
 4112POPC   C3B13437  35.095  10.401   7.950
 4112POPC   C4B13438  35.180  10.416   7.650
 4113POPC   NC313439  38.415  10.504   9.450
 4113POPC   PO413440  38.502  10.516   9.150
 4113POPC   GL113441  38.469  10.545   8.850
 4113POPC   GL213442  38.530  10.404   8.850
 4113POPC   C1A13443  38.463  10.505   8.550
 4113POPC   D2A13444  38.481  10.572   8.250
 4113POPC   C3A13445  38.444  10.549   7.950
 4113POPC   C4A13446  38.458  10.551   7.650
 4113POPC   C1B13447  38.596  10.318   8.550
 4113POPC   C2B13448  38.567  10.312   8.250
 4113POPC   C3B13449  38.574  10.293   7.950
 4113POPC   C4B13450  38.603  10.297   7.650
 4114POPC   NC313451   3.544  15.194   9.450
 4114POPC   PO413452   3.501  15.201   9.150
 4114POPC   GL113453   3.544  15.162   8.850
 4114POPC   GL213454   3.702  15.087   8.850
 4114POPC   C1A13455   3.543  15.153   8.550
 4114POPC   D2A13456   3.519  15.210   8.250
 4114POPC   C3A13457   3.546  15.210   7.950
 4114POPC   C4A13458   3.557  15.156   7.650
 4114POPC   C1B13459   3.817  15.086   8.550
 4114POPC   C2B13460   3.769  15.083   8.250
 4114POPC   C3B13461   3.766  15.091   7.950
 4114POPC   C4B13462   3.786  15.111   7.650
 4115POPC   NC313463   5.049  25.270   9.450
 4115POPC   PO413464   5.091  25.255   9.150
 4115POPC   GL113465   5.139  25.314   8.850
 4115POPC   GL213466   4.982  25.176   8.850
 4115POPC   C1A13467   5.111  25.286   8.550
 4115POPC   D2A13468   5.114  25.264   8.250
 4115POPC   C3A13469   5.063  25.236   7.950
 4115POPC   C4A13470   5.081  25.301   7.650
 4115POPC   C1B13471   4.814  25.140   8.550
 4115POPC   C2B13472   4.893  25.198   8.250
 4115POPC   C3B13473   4.831  25.196   7.950
 4115POPC   C4B13474   4.857  25.120   7.650
 4116POPC   NC313475   1.999  30.743   9.450
 4116POPC   PO413476   1.953  30.659   9.150
 4116POPC   GL113477   1.999  30.666   8.850
 4116POPC   GL213478   2.103  30.665   8.850
 4116POPC   C1A13479   1.947  30.710   8.550
 4116POPC   D2A13480   1.940  30.746   8.250
 4116POPC   C3A13481   1.957  30.730   7.950
 4116POPC   C4A13482   1.973  30.710   7.650
 4116POPC   C1B13483   2.270  30.597   8.550
 4116POPC   C2B13484   2.244  30.617   8.250
 4116POPC   C3B13485   2.235  30.571   7.950
 4116POPC   C4B13486   2.249  30.583   7.650
 4117POPC   NC313487  16.728  42.294   9.450
 4117POPC   PO413488  16.770  42.305   9.150
 4117POPC   GL113489  16.702  42.290   8.850
 4117POPC   GL213490  16.636  42.417   8.850
 4117POPC   C1A13491  16.778  42.290   8.550
 4117POPC   D2A13492  16.745  42.380   8.250
 4117POPC   C3A13493  16.717  42.321   7.950
 4117POPC   C4A13494  16.715  42.361   7.650
 4117POPC   C1B13495  16.472  42.449   8.550
 4117POPC   C2B13496  16.541  42.411   8.250
 4117POPC   C3B13497  16.538  42.409   7.950
 4117POPC   C4B13498  16.522  42.443   7.650
 4118POPC   NC313499  27.641  23.702   9.450
 4118POPC   PO413500  27.592  23.733   9.150
 4118POPC   GL113501  27.590  23.737   8.850
 4118POPC   GL213502  27.651  23.616   8.850
 4118POPC   C1A13503  27.577  23.750   8.550
 4118POPC   D2A13504  27.600  23.714   8.250
 4118POPC   C3A13505  27.574  23.683   7.950
 4118POPC   C4A13506  27.594  23.699   7.650
 4118POPC   C1B13507  27.730  23.482   8.550
 4118POPC   C2B13508  27.686  23.498   8.250
 4118POPC   C3B13509  27.650  23.437   7.950
 4118POPC   C4B13510  27.640  23.531   7.650
 4119POPC   NC313511  31.423  29.887   9.450
 4119POPC   PO413512  31.507  29.968   9.150
 4119POPC   GL113513  31.469  29.905   8.850
 4119POPC   GL213514  31.417  29.814   8.850
 4119POPC   C1A13515  31.463  29.963   8.550
 4119POPC   D2A13516  31.431  29.968   8.250
 4119POPC   C3A13517  31.480  29.900   7.950
 4119POPC   C4A13518  31.505  29.929   7.650
 4119POPC   C1B13519  31.255  29.764   8.550
 4119POPC   C2B13520  31.271  29.791   8.250
 4119POPC   C3B13521  31.243  29.715   7.950
 4119POPC   C4B13522  31.248  29.784   7.650
 4120POPC   NC313523  12.074  35.368   9.450
 4120POPC   PO413524  12.093  35.358   9.150
 4120POPC   GL113525  12.034  35.356   8.850
 4120POPC   GL213526  11.973  35.300   8.850
 4120POPC   C1A13527  12.100  35.346   8.550
 4120POPC   D2A13528  12.096  35.399   8.250
 4120POPC   C3A13529  12.114  35.305   7.950
 4120POPC   C4A13530  12.103  35.402   7.650
 4120POPC   C1B13531  11.791  35.339   8.550
 4120POPC   C2B13532  11.838  35.348   8.250
 4120POPC   C3B13533  11.858  35.372   7.950
 4120POPC   C4B13534  11.795  35.321   7.650
 4121POPC   NC313535  43.860  17.460   9.450
 4121POPC   PO413536  43.860  17.496   9.150
 4121POPC   GL113537  43.871  17.496   8.850
 4121POPC   GL213538  43.820  17.413   8.850
 4121POPC   C1A13539  43.919  17.538   8.550
 4121POPC   D2A13540  43.839  17.493   8.250
 4121POPC   C3A13541  43.914  17.465   7.950
 4121POPC   C4A13542  43.862  17.491   7.650
 4121POPC   C1B13543  43.743  17.242   8.550
 4121POPC   C2B13544  43.725  17.329   8.250
 4121POPC   C3B13545  43.813  17.314   7.950
 4121POPC   C4B13546  43.722  17.317   7.650
 4122POPC   NC313547  12.876  42.363   9.450
 4122POPC   PO413548  12.889  42.302   9.150
 4122POPC   GL113549  12.878  42.382   8.850
 4122POPC   GL213550  13.005  42.324   8.850
 4122POPC   C1A13551  12.844  42.312   8.550
 4122POPC   D2A13552  12.893  42.354   8.250
 4122POPC   C3A13553  12.813  42.378   7.950
 4122POPC   C4A13554  12.813  42.289   7.650
 4122POPC   C1B13555  13.072  42.296   8.550
 4122POPC   C2B13556  13.090  42.314   8.250
 4122POPC   C3B13557  13.137  42.314   7.950
 4122POPC   C4B13558  13.101  42.257   7.650
 4123POPC   NC313559  22.140  20.579   9.450
 4123POPC   PO413560  22.167  20.621   9.150
 4123POPC   GL113561  22.196  20.641   8.850
 4123POPC   GL213562  22.172  20.769   8.850
 4123POPC   C1A13563  22.151  20.579   8.550
 4123POPC   D2A13564  22.202  20.653   8.250
 4123POPC   C3A13565  22.137  20.638   7.950
 4123POPC   C4A13566  22.193  20.649   7.650
 4123POPC   C1B13567  22.129  20.845   8.550
 4123POPC   C2B13568  22.108  20.895   8.250
 4123POPC   C3B13569  22.128  20.887   7.950
 4123POPC   C4B13570  22.056  20.821   7.650
 4124POPC   NC313571  39.209   8.940   9.450
 4124POPC   PO413572  39.207   8.948   9.150
 4124POPC   GL113573  39.191   8.965   8.850
 4124POPC   GL213574  39.091   8.861   8.850
 4124POPC   C1A13575  39.183   8.948   8.550
 4124POPC   D2A13576  39.280   8.980   8.250
 4124POPC   C3A13577  39.214   8.968   7.950
 4124POPC   C4A13578  39.252   8.957   7.650
 4124POPC   C1B13579  39.049   8.867   8.550
 4124POPC   C2B13580  39.042   8.857   8.250
 4124POPC   C3B13581  39.015   8.798   7.950
 4124POPC   C4B13582  39.015   8.827   7.650
 4125POPC   NC313583   9.793  36.935   9.450
 4125POPC   PO413584   9.751  36.937   9.150
 4125POPC   GL113585   9.698  36.913   8.850
 4125POPC   GL213586   9.660  37.002   8.850
 4125POPC   C1A13587   9.731  36.879   8.550
 4125POPC   D2A13588   9.709  36.866   8.250
 4125POPC   C3A13589   9.791  36.925   7.950
 4125POPC   C4A13590   9.740  36.943   7.650
 4125POPC   C1B13591   9.524  37.060   8.550
 4125POPC   C2B13592   9.575  37.013   8.250
 4125POPC   C3B13593   9.601  37.044   7.950
 4125POPC   C4B13594   9.584  37.016   7.650
 4126POPC   NC313595  31.447  10.553   9.450
 4126POPC   PO413596  31.456  10.524   9.150
 4126POPC   GL113597  31.436  10.484   8.850
 4126POPC   GL213598  31.621  10.462   8.850
 4126POPC   C1A13599  31.461  10.518   8.550
 4126POPC   D2A13600  31.507  10.488   8.250
 4126POPC   C3A13601  31.520  10.478   7.950
 4126POPC   C4A13602  31.454  10.572   7.650
 4126POPC   C1B13603  31.728  10.502   8.550
 4126POPC   C2B13604  31.708  10.503   8.250
 4126POPC   C3B13605  31.723  10.540   7.950
 4126POPC   C4B13606  31.690  10.462   7.650
 4127POPC   NC313607  12.042  32.266   9.450
 4127POPC   PO413608  12.096  32.230   9.150
 4127POPC   GL113609  12.085  32.297   8.850
 4127POPC   GL213610  12.186  32.267   8.850
 4127POPC   C1A13611  12.044  32.219   8.550
 4127POPC   D2A13612  12.094  32.270   8.250
 4127POPC   C3A13613  12.062  32.283   7.950
 4127POPC   C4A13614  12.048  32.261   7.650
 4127POPC   C1B13615  12.367  32.194   8.550
 4127POPC   C2B13616  12.280  32.202   8.250
 4127POPC   C3B13617  12.294  32.178   7.950
 4127POPC   C4B13618  12.299  32.216   7.650
 4128POPC   NC313619  19.862  16.693   9.450
 4128POPC   PO413620  19.858  16.753   9.150
 4128POPC   GL113621  19.790  16.753   8.850
 4128POPC   GL213622  19.899  16.759   8.850
 4128POPC   C1A13623  19.821  16.722   8.550
 4128POPC   D2A13624  19.847  16.738   8.250
 4128POPC   C3A13625  19.868  16.716   7.950
 4128POPC   C4A13626  19.786  16.765   7.650
 4128POPC   C1B13627  20.029  16.808   8.550
 4128POPC   C2B13628  20.105  16.858   8.250
 4128POPC   C3B13629  20.070  16.889   7.950
 4128POPC   C4B13630  20.093  16.855   7.650
 4129POPC   NC313631  31.458  16.694   9.450
 4129POPC   PO413632  31.514  16.742   9.150
 4129POPC   GL113633  31.511  16.758   8.850
 4129POPC   GL213634  31.442  16.802   8.850
 4129POPC   C1A13635  31.460  16.695   8.550
 4129POPC   D2A13636  31.514  16.716   8.250
 4129POPC   C3A13637  31.492  16.753   7.950
 4129POPC   C4A13638  31.505  16.713   7.650
 4129POPC   C1B13639  31.375  16.962   8.550
 4129POPC   C2B13640  31.408  16.916   8.250
 4129POPC   C3B13641  31.372  16.959   7.950
 4129POPC   C4B13642  31.389  16.993   7.650
 4130POPC   NC313643   5.071  16.699   9.450
 4130POPC   PO413644   5.090  16.731   9.150
 4130POPC   GL113645   5.110  16.756   8.850
 4130POPC   GL213646   5.227  16.830   8.850
 4130POPC   C1A13647   5.139  16.765   8.550
 4130POPC   D2A13648   5.062  16.709   8.250
 4130POPC   C3A13649   5.062  16.713   7.950
 4130POPC   C4A13650   5.130  16.743   7.650
 4130POPC   C1B13651   5.291  16.894   8.550
 4130POPC   C2B13652   5.311  16.941   8.250
 4130POPC   C3B13653   5.229  16.917   7.950
 4130POPC   C4B13654   5.246  16.881   7.650
 4131POPC   NC313655  26.015  18.322   9.450
 4131POPC   PO413656  26.088  18.299   9.150
 4131POPC   GL113657  26.017  18.288   8.850
 4131POPC   GL213658  25.958  18.285   8.850
 4131POPC   C1A13659  26.085  18.330   8.550
 4131POPC   D2A13660  26.015  18.298   8.250
 4131POPC   C3A13661  25.997  18.318   7.950
 4131POPC   C4A13662  26.009  18.300   7.650
 4131POPC   C1B13663  25.793  18.292   8.550
 4131POPC   C2B13664  25.791  18.226   8.250
 4131POPC   C3B13665  25.782  18.270   7.950
 4131POPC   C4B13666  25.806  18.261   7.650
 4132POPC   NC313667  39.229  27.557   9.450
 4132POPC   PO413668  39.265  27.593   9.150
 4132POPC   GL113669  39.199  27.547   8.850
 4132POPC   GL213670  39.121  27.497   8.850
 4132POPC   C1A13671  39.280  27.548   8.550
 4132POPC   D2A13672  39.267  27.564   8.250
 4132POPC   C3A13673  39.257  27.574   7.950
 4132POPC   C4A13674  39.233  27.620   7.650
 4132POPC   C1B13675  39.053  27.409   8.550
 4132POPC   C2B13676  39.020  27.414   8.250
 4132POPC   C3B13677  38.989  27.435   7.950
 4132POPC   C4B13678  39.031  27.460   7.650
 4133POPC   NC313679  42.310   4.271   9.450
 4133POPC   PO413680  42.289   4.342   9.150
 4133POPC   GL113681  42.356   4.322   8.850
 4133POPC   GL213682  42.372   4.239   8.850
 4133POPC   C1A13683  42.291   4.356   8.550
 4133POPC   D2A13684  42.336   4.281   8.250
 4133POPC   C3A13685  42.300   4.325   7.950
 4133POPC   C4A13686  42.348   4.280   7.650
 4133POPC   C1B13687  42.354   4.111   8.550
 4133POPC   C2B13688  42.342   4.034   8.250
 4133POPC   C3B13689  42.372   4.096   7.950
 4133POPC   C4B13690  42.305   4.097   7.650
 4134POPC   NC313691  24.518  24.467   9.450
 4134POPC   PO413692  24.443  24.453   9.150
 4134POPC   GL113693  24.444  24.441   8.850
 4134POPC   GL213694  24.637  24.481   8.850
 4134POPC   C1A13695  24.500  24.442   8.550
 4134POPC   D2A13696  24.445  24.535   8.250
 4134POPC   C3A13697  24.504  24.468   7.950
 4134POPC   C4A13698  24.533  24.487   7.650
 4134POPC   C1B13699  24.731  24.498   8.550
 4134POPC   C2B13700  24.705  24.564   8.250
 4134POPC   C3B13701  24.697  24.568   7.950
 4134POPC   C4B13702  24.693  24.550   7.650
 4135POPC   NC313703  37.699  25.997   9.450
 4135POPC   PO413704  37.634  25.993   9.150
 4135POPC   GL113705  37.723  26.064   8.850
 4135POPC   GL213706  37.750  25.975   8.850
 4135POPC   C1A13707  37.642  26.090   8.550
 4135POPC   D2A13708  37.709  26.065   8.250
 4135POPC   C3A13709  37.642  26.087   7.950
 4135POPC   C4A13710  37.660  26.045   7.650
 4135POPC   C1B13711  37.787  25.861   8.550
 4135POPC   C2B13712  37.783  25.850   8.250
 4135POPC   C3B13713  37.824  25.796   7.950
 4135POPC   C4B13714  37.835  25.795   7.650
 4136POPC   NC313715  17.536  32.240   9.450
 4136POPC   PO413716  17.479  32.237   9.150
 4136POPC   GL113717  17.512  32.246   8.850
 4136POPC   GL213718  17.535  32.369   8.850
 4136POPC   C1A13719  17.548  32.269   8.550
 4136POPC   D2A13720  17.529  32.265   8.250
 4136POPC   C3A13721  17.471  32.293   7.950
 4136POPC   C4A13722  17.471  32.273   7.650
 4136POPC   C1B13723  17.608  32.485   8.550
 4136POPC   C2B13724  17.675  32.488   8.250
 4136POPC   C3B13725  17.632  32.431   7.950
 4136POPC   C4B13726  17.670  32.410   7.650
 4137POPC   NC313727  15.913  16.681   9.450
 4137POPC   PO413728  16.005  16.713   9.150
 4137POPC   GL113729  15.972  16.736   8.850
 4137POPC   GL213730  15.793  16.671   8.850
 4137POPC   C1A13731  15.921  16.772   8.550
 4137POPC   D2A13732  15.921  16.732   8.250
 4137POPC   C3A13733  15.992  16.736   7.950
 4137POPC   C4A13734  15.921  16.766   7.650
 4137POPC   C1B13735  15.744  16.740   8.550
 4137POPC   C2B13736  15.756  16.667   8.250
 4137POPC   C3B13737  15.721  16.708   7.950
 4137POPC   C4B13738  15.731  16.659   7.650
 4138POPC   NC313739  18.279   0.427   9.450
 4138POPC   PO413740  18.318   0.421   9.150
 4138POPC   GL113741  18.265   0.451   8.850
 4138POPC   GL213742  18.293   0.356   8.850
 4138POPC   C1A13743  18.248   0.487   8.550
 4138POPC   D2A13744  18.328   0.416   8.250
 4138POPC   C3A13745  18.268   0.424   7.950
 4138POPC   C4A13746  18.276   0.455   7.650
 4138POPC   C1B13747  18.288   0.148   8.550
 4138POPC   C2B13748  18.257   0.238   8.250
 4138POPC   C3B13749  18.342   0.234   7.950
 4138POPC   C4B13750  18.293   0.177   7.650
 4139POPC   NC313751  40.014  26.792   9.450
 4139POPC   PO413752  39.979  26.857   9.150
 4139POPC   GL113753  40.000  26.862   8.850
 4139POPC   GL213754  39.876  26.898   8.850
 4139POPC   C1A13755  40.000  26.805   8.550
 4139POPC   D2A13756  39.969  26.796   8.250
 4139POPC   C3A13757  40.033  26.777   7.950
 4139POPC   C4A13758  40.049  26.864   7.650
 4139POPC   C1B13759  39.762  26.944   8.550
 4139POPC   C2B13760  39.801  26.979   8.250
 4139POPC   C3B13761  39.737  26.956   7.950
 4139POPC   C4B13762  39.824  26.896   7.650
 4140POPC   NC313763  21.362  36.132   9.450
 4140POPC   PO413764  21.390  36.086   9.150
 4140POPC   GL113765  21.392  36.154   8.850
 4140POPC   GL213766  21.257  36.075   8.850
 4140POPC   C1A13767  21.424  36.174   8.550
 4140POPC   D2A13768  21.400  36.121   8.250
 4140POPC   C3A13769  21.344  36.088   7.950
 4140POPC   C4A13770  21.417  36.095   7.650
 4140POPC   C1B13771  21.184  36.037   8.550
 4140POPC   C2B13772  21.200  35.983   8.250
 4140POPC   C3B13773  21.178  36.008   7.950
 4140POPC   C4B13774  21.131  35.991   7.650
 4141POPC   NC313775  22.117   5.072   9.450
 4141POPC   PO413776  22.175   5.109   9.150
 4141POPC   GL113777  22.164   5.092   8.850
 4141POPC   GL213778  22.220   5.133   8.850
 4141POPC   C1A13779  22.155   5.069   8.550
 4141POPC   D2A13780  22.163   5.069   8.250
 4141POPC   C3A13781  22.182   5.060   7.950
 4141POPC   C4A13782  22.157   5.137   7.650
 4141POPC   C1B13783  22.316   5.242   8.550
 4141POPC   C2B13784  22.319   5.246   8.250
 4141POPC   C3B13785  22.397   5.248   7.950
 4141POPC   C4B13786  22.388   5.256   7.650
 4142POPC   NC313787   1.165  40.811   9.450
 4142POPC   PO413788   1.185  40.750   9.150
 4142POPC   GL113789   1.241  40.761   8.850
 4142POPC   GL213790   1.138  40.859   8.850
 4142POPC   C1A13791   1.229  40.771   8.550
 4142POPC   D2A13792   1.240  40.758   8.250
 4142POPC   C3A13793   1.223  40.768   7.950
 4142POPC   C4A13794   1.182  40.810   7.650
 4142POPC   C1B13795   1.077  40.981   8.550
 4142POPC   C2B13796   1.116  40.993   8.250
 4142POPC   C3B13797   1.119  40.997   7.950
 4142POPC   C4B13798   1.156  41.012   7.650
 4143POPC   NC313799  33.785  27.620   9.450
 4143POPC   PO413800  33.813  27.553   9.150
 4143POPC   GL113801  33.791  27.626   8.850
 4143POPC   GL213802  33.792  27.728   8.850
 4143POPC   C1A13803  33.788  27.594   8.550
 4143POPC   D2A13804  33.846  27.590   8.250
 4143POPC   C3A13805  33.752  27.560   7.950
 4143POPC   C4A13806  33.817  27.618   7.650
 4143POPC   C1B13807  33.753  27.873   8.550
 4143POPC   C2B13808  33.763  27.853   8.250
 4143POPC   C3B13809  33.766  27.819   7.950
 4143POPC   C4B13810  33.757  27.882   7.650
 4144POPC   NC313811  32.292  36.855   9.450
 4144POPC   PO413812  32.262  36.889   9.150
 4144POPC   GL113813  32.288  36.946   8.850
 4144POPC   GL213814  32.081  36.930   8.850
 4144POPC   C1A13815  32.229  36.887   8.550
 4144POPC   D2A13816  32.212  36.946   8.250
 4144POPC   C3A13817  32.223  36.879   7.950
 4144POPC   C4A13818  32.226  36.953   7.650
 4144POPC   C1B13819  31.968  36.994   8.550
 4144POPC   C2B13820  32.018  36.938   8.250
 4144POPC   C3B13821  32.018  36.921   7.950
 4144POPC   C4B13822  32.051  37.011   7.650
 4145POPC   NC313823  34.616  43.088   9.450
 4145POPC   PO413824  34.574  43.117   9.150
 4145POPC   GL113825  34.610  43.137   8.850
 4145POPC   GL213826  34.484  43.141   8.850
 4145POPC   C1A13827  34.556  43.084   8.550
 4145POPC   D2A13828  34.526  43.092   8.250
 4145POPC   C3A13829  34.613  43.144   7.950
 4145POPC   C4A13830  34.606  43.093   7.650
 4145POPC   C1B13831  34.372  43.158   8.550
 4145POPC   C2B13832  34.312  43.192   8.250
 4145POPC   C3B13833  34.352  43.163   7.950
 4145POPC   C4B13834  34.363  43.226   7.650
 4146POPC   NC313835   0.412  35.345   9.450
 4146POPC   PO413836   0.431  35.305   9.150
 4146POPC   GL113837   0.392  35.330   8.850
 4146POPC   GL213838   0.312  35.366   8.850
 4146POPC   C1A13839   0.421  35.337   8.550
 4146POPC   D2A13840   0.487  35.398   8.250
 4146POPC   C3A13841   0.392  35.381   7.950
 4146POPC   C4A13842   0.477  35.328   7.650
 4146POPC   C1B13843   0.224  35.401   8.550
 4146POPC   C2B13844   0.235  35.321   8.250
 4146POPC   C3B13845   0.185  35.318   7.950
 4146POPC   C4B13846   0.182  35.400   7.650
 4147POPC   NC313847  36.149  18.315   9.450
 4147POPC   PO413848  36.086  18.322   9.150
 4147POPC   GL113849  36.134  18.254   8.850
 4147POPC   GL213850  36.022  18.304   8.850
 4147POPC   C1A13851  36.112  18.329   8.550
 4147POPC   D2A13852  36.144  18.306   8.250
 4147POPC   C3A13853  36.175  18.316   7.950
 4147POPC   C4A13854  36.094  18.264   7.650
 4147POPC   C1B13855  35.905  18.225   8.550
 4147POPC   C2B13856  35.922  18.228   8.250
 4147POPC   C3B13857  35.834  18.228   7.950
 4147POPC   C4B13858  35.840  18.186   7.650
 4148POPC   NC313859  44.688  38.477   9.450
 4148POPC   PO413860  44.661  38.471   9.150
 4148POPC   GL113861  44.710  38.472   8.850
 4148POPC   GL213862  44.543  38.402   8.850
 4148POPC   C1A13863  44.676  38.433   8.550
 4148POPC   D2A13864  44.641  38.500   8.250
 4148POPC   C3A13865  44.697  38.451   7.950
 4148POPC   C4A13866  44.630  38.468   7.650
 4148POPC   C1B13867  44.451  38.273   8.550
 4148POPC   C2B13868  44.407  38.283   8.250
 4148POPC   C3B13869  44.453  38.309   7.950
 4148POPC   C4B13870  44.406  38.359   7.650
 4149POPC   NC313871  30.732  13.623   9.450
 4149POPC   PO413872  30.728  13.604   9.150
 4149POPC   GL113873  30.648  13.608   8.850
 4149POPC   GL213874  30.699  13.502   8.850
 4149POPC   C1A13875  30.697  13.596   8.550
 4149POPC   D2A13876  30.741  13.663   8.250
 4149POPC   C3A13877  30.732  13.597   7.950
 4149POPC   C4A13878  30.653  13.593   7.650
 4149POPC   C1B13879  30.648  13.359   8.550
 4149POPC   C2B13880  30.644  13.352   8.250
 4149POPC   C3B13881  30.572  13.346   7.950
 4149POPC   C4B13882  30.558  13.424   7.650
 4150POPC   NC313883  36.116  19.060   9.450
 4150POPC   PO413884  36.130  19.018   9.150
 4150POPC   GL113885  36.114  19.063   8.850
 4150POPC   GL213886  36.104  18.938   8.850
 4150POPC   C1A13887  36.133  19.089   8.550
 4150POPC   D2A13888  36.173  19.053   8.250
 4150POPC   C3A13889  36.127  19.078   7.950
 4150POPC   C4A13890  36.085  19.094   7.650
 4150POPC   C1B13891  36.095  18.852   8.550
 4150POPC   C2B13892  36.095  18.811   8.250
 4150POPC   C3B13893  36.050  18.812   7.950
 4150POPC   C4B13894  36.079  18.830   7.650
 4151POPC   NC313895  39.958  11.275   9.450
 4151POPC   PO413896  39.968  11.315   9.150
 4151POPC   GL113897  40.007  11.253   8.850
 4151POPC   GL213898  39.934  11.345   8.850
 4151POPC   C1A13899  40.036  11.333   8.550
 4151POPC   D2A13900  39.984  11.257   8.250
 4151POPC   C3A13901  40.017  11.315   7.950
 4151POPC   C4A13902  39.971  11.268   7.650
 4151POPC   C1B13903  39.775  11.343   8.550
 4151POPC   C2B13904  39.806  11.369   8.250
 4151POPC   C3B13905  39.773  11.331   7.950
 4151POPC   C4B13906  39.731  11.400   7.650
 4152POPC   NC313907   6.638  13.622   9.450
 4152POPC   PO413908   6.616  13.604   9.150
 4152POPC   GL113909   6.610  13.629   8.850
 4152POPC   GL213910   6.707  13.784   8.850
 4152POPC   C1A13911   6.605  13.631   8.550
 4152POPC   D2A13912   6.674  13.623   8.250
 4152POPC   C3A13913   6.646  13.635   7.950
 4152POPC   C4A13914   6.596  13.593   7.650
 4152POPC   C1B13915   6.797  13.861   8.550
 4152POPC   C2B13916   6.773  13.804   8.250
 4152POPC   C3B13917   6.739  13.842   7.950
 4152POPC   C4B13918   6.762  13.891   7.650
 4153POPC   NC313919  38.479  30.660   9.450
 4153POPC   PO413920  38.467  30.664   9.150
 4153POPC   GL113921  38.424  30.743   8.850
 4153POPC   GL213922  38.499  30.583   8.850
 4153POPC   C1A13923  38.445  30.725   8.550
 4153POPC   D2A13924  38.436  30.741   8.250
 4153POPC   C3A13925  38.456  30.657   7.950
 4153POPC   C4A13926  38.487  30.662   7.650
 4153POPC   C1B13927  38.586  30.508   8.550
 4153POPC   C2B13928  38.599  30.480   8.250
 4153POPC   C3B13929  38.594  30.484   7.950
 4153POPC   C4B13930  38.563  30.487   7.650
 4154POPC   NC313931  38.412  26.780   9.450
 4154POPC   PO413932  38.477  26.795   9.150
 4154POPC   GL113933  38.465  26.785   8.850
 4154POPC   GL213934  38.406  26.902   8.850
 4154POPC   C1A13935  38.501  26.856   8.550
 4154POPC   D2A13936  38.486  26.808   8.250
 4154POPC   C3A13937  38.407  26.773   7.950
 4154POPC   C4A13938  38.450  26.830   7.650
 4154POPC   C1B13939  38.270  26.942   8.550
 4154POPC   C2B13940  38.233  26.988   8.250
 4154POPC   C3B13941  38.288  27.009   7.950
 4154POPC   C4B13942  38.292  26.978   7.650
 4155POPC   NC313943   6.605  40.003   9.450
 4155POPC   PO413944   6.608  39.969   9.150
 4155POPC   GL113945   6.638  39.994   8.850
 4155POPC   GL213946   6.624  39.909   8.850
 4155POPC   C1A13947   6.676  39.972   8.550
 4155POPC   D2A13948   6.616  39.986   8.250
 4155POPC   C3A13949   6.604  40.042   7.950
 4155POPC   C4A13950   6.597  39.990   7.650
 4155POPC   C1B13951   6.608  39.729   8.550
 4155POPC   C2B13952   6.550  39.732   8.250
 4155POPC   C3B13953   6.604  39.796   7.950
 4155POPC   C4B13954   6.605  39.734   7.650
 4156POPC   NC313955  16.688  10.478   9.450
 4156POPC   PO413956  16.729  10.520   9.150
 4156POPC   GL113957  16.742  10.538   8.850
 4156POPC   GL213958  16.713  10.604   8.850
 4156POPC   C1A13959  16.749  10.475   8.550
 4156POPC   D2A13960  16.697  10.560   8.250
 4156POPC   C3A13961  16.725  10.513   7.950
 4156POPC   C4A13962  16.777  10.487   7.650
 4156POPC   C1B13963  16.710  10.763   8.550
 4156POPC   C2B13964  16.744  10.748   8.250
 4156POPC   C3B13965  16.715  10.742   7.950
 4156POPC   C4B13966  16.701  10.801   7.650
 4157POPC   NC313967   2.804  29.940   9.450
 4157POPC   PO413968   2.785  29.970   9.150
 4157POPC   GL113969   2.757  29.937   8.850
 4157POPC   GL213970   2.690  29.956   8.850
 4157POPC   C1A13971   2.755  29.898   8.550
 4157POPC   D2A13972   2.738  29.905   8.250
 4157POPC   C3A13973   2.775  29.927   7.950
 4157POPC   C4A13974   2.796  29.883   7.650
 4157POPC   C1B13975   2.518  30.061   8.550
 4157POPC   C2B13976   2.539  30.020   8.250
 4157POPC   C3B13977   2.578  30.027   7.950
 4157POPC   C4B13978   2.583  30.095   7.650
 4158POPC   NC313979   7.372   5.086   9.450
 4158POPC   PO413980   7.452   5.102   9.150
 4158POPC   GL113981   7.396   5.121   8.850
 4158POPC   GL213982   7.296   5.072   8.850
 4158POPC   C1A13983   7.447   5.128   8.550
 4158POPC   D2A13984   7.444   5.136   8.250
 4158POPC   C3A13985   7.377   5.136   7.950
 4158POPC   C4A13986   7.436   5.061   7.650
 4158POPC   C1B13987   7.191   5.157   8.550
 4158POPC   C2B13988   7.143   5.113   8.250
 4158POPC   C3B13989   7.130   5.125   7.950
 4158POPC   C4B13990   7.137   5.104   7.650
 4159POPC   NC313991  40.016  14.355   9.450
 4159POPC   PO413992  40.001  14.369   9.150
 4159POPC   GL113993  39.966  14.427   8.850
 4159POPC   GL213994  39.936  14.261   8.850
 4159POPC   C1A13995  39.988  14.431   8.550
 4159POPC   D2A13996  39.976  14.394   8.250
 4159POPC   C3A13997  40.006  14.374   7.950
 4159POPC   C4A13998  40.012  14.409   7.650
 4159POPC   C1B13999  39.874  14.200   8.550
 4159POPC   C2B14000  39.931  14.126   8.250
 4159POPC   C3B14001  39.861  14.175   7.950
 4159POPC   C4B14002  39.934  14.213   7.650
 4160POPC   NC314003  41.592  32.224   9.450
 4160POPC   PO414004  41.540  32.264   9.150
 4160POPC   GL114005  41.529  32.267   8.850
 4160POPC   GL214006  41.654  32.180   8.850
 4160POPC   C1A14007  41.587  32.272   8.550
 4160POPC   D2A14008  41.531  32.230   8.250
 4160POPC   C3A14009  41.539  32.294   7.950
 4160POPC   C4A14010  41.529  32.204   7.650
 4160POPC   C1B14011  41.745  32.060   8.550
 4160POPC   C2B14012  41.733  32.064   8.250
 4160POPC   C3B14013  41.672  32.069   7.950
 4160POPC   C4B14014  41.732  32.031   7.650
 4161POPC   NC314015  20.571  33.845   9.450
 4161POPC   PO414016  20.620  33.755   9.150
 4161POPC   GL114017  20.613  33.790   8.850
 4161POPC   GL214018  20.560  33.685   8.850
 4161POPC   C1A14019  20.577  33.759   8.550
 4161POPC   D2A14020  20.575  33.837   8.250
 4161POPC   C3A14021  20.618  33.785   7.950
 4161POPC   C4A14022  20.607  33.780   7.650
 4161POPC   C1B14023  20.380  33.596   8.550
 4161POPC   C2B14024  20.376  33.621   8.250
 4161POPC   C3B14025  20.380  33.595   7.950
 4161POPC   C4B14026  20.395  33.680   7.650
 4162POPC   NC314027  36.884   5.822   9.450
 4162POPC   PO414028  36.858   5.845   9.150
 4162POPC   GL114029  36.876   5.917   8.850
 4162POPC   GL214030  37.023   5.821   8.850
 4162POPC   C1A14031  36.873   5.851   8.550
 4162POPC   D2A14032  36.874   5.882   8.250
 4162POPC   C3A14033  36.905   5.878   7.950
 4162POPC   C4A14034  36.940   5.849   7.650
 4162POPC   C1B14035  37.114   5.720   8.550
 4162POPC   C2B14036  37.084   5.654   8.250
 4162POPC   C3B14037  37.060   5.688   7.950
 4162POPC   C4B14038  37.119   5.642   7.650
 4163POPC   NC314039   4.340  11.281   9.450
 4163POPC   PO414040   4.298  11.257   9.150
 4163POPC   GL114041   4.303  11.325   8.850
 4163POPC   GL214042   4.312  11.462   8.850
 4163POPC   C1A14043   4.338  11.257   8.550
 4163POPC   D2A14044   4.296  11.315   8.250
 4163POPC   C3A14045   4.305  11.275   7.950
 4163POPC   C4A14046   4.364  11.344   7.650
 4163POPC   C1B14047   4.325  11.599   8.550
 4163POPC   C2B14048   4.307  11.522   8.250
 4163POPC   C3B14049   4.332  11.553   7.950
 4163POPC   C4B14050   4.267  11.576   7.650
 4164POPC   NC314051  12.119  39.981   9.450
 4164POPC   PO414052  12.101  39.986   9.150
 4164POPC   GL114053  12.090  40.005   8.850
 4164POPC   GL214054  11.972  40.083   8.850
 4164POPC   C1A14055  12.029  39.988   8.550
 4164POPC   D2A14056  12.086  40.018   8.250
 4164POPC   C3A14057  12.111  40.040   7.950
 4164POPC   C4A14058  12.064  39.982   7.650
 4164POPC   C1B14059  11.898  40.088   8.550
 4164POPC   C2B14060  11.891  40.140   8.250
 4164POPC   C3B14061  11.844  40.129   7.950
 4164POPC   C4B14062  11.876  40.116   7.650
 4165POPC   NC314063  17.514  43.114   9.450
 4165POPC   PO414064  17.463  43.106   9.150
 4165POPC   GL114065  17.493  43.091   8.850
 4165POPC   GL214066  17.631  43.008   8.850
 4165POPC   C1A14067  17.469  43.083   8.550
 4165POPC   D2A14068  17.459  43.075   8.250
 4165POPC   C3A14069  17.541  43.109   7.950
 4165POPC   C4A14070  17.468  43.091   7.650
 4165POPC   C1B14071  17.750  42.998   8.550
 4165POPC   C2B14072  17.694  42.977   8.250
 4165POPC   C3B14073  17.723  42.986   7.950
 4165POPC   C4B14074  17.744  43.013   7.650
 4166POPC   NC314075  43.149   8.950   9.450
 4166POPC   PO414076  43.095   8.933   9.150
 4166POPC   GL114077  43.082   8.947   8.850
 4166POPC   GL214078  43.115   9.137   8.850
 4166POPC   C1A14079  43.085   8.930   8.550
 4166POPC   D2A14080  43.160   8.966   8.250
 4166POPC   C3A14081  43.075   9.007   7.950
 4166POPC   C4A14082  43.062   8.983   7.650
 4166POPC   C1B14083  43.240   9.230   8.550
 4166POPC   C2B14084  43.184   9.210   8.250
 4166POPC   C3B14085  43.178   9.169   7.950
 4166POPC   C4B14086  43.196   9.197   7.650
 4167POPC   NC314087  15.219  26.810   9.450
 4167POPC   PO414088  15.160  26.790   9.150
 4167POPC   GL114089  15.192  26.837   8.850
 4167POPC   GL214090  15.135  26.962   8.850
 4167POPC   C1A14091  15.163  26.849   8.550
 4167POPC   D2A14092  15.152  26.813   8.250
 4167POPC   C3A14093  15.141  26.770   7.950
 4167POPC   C4A14094  15.217  26.848   7.650
 4167POPC   C1B14095  15.113  27.061   8.550
 4167POPC   C2B14096  15.092  27.063   8.250
 4167POPC   C3B14097  15.031  27.050   7.950
 4167POPC   C4B14098  15.044  27.032   7.650
 4168POPC   NC314099  43.922  26.819   9.450
 4168POPC   PO414100  43.934  26.802   9.150
 4168POPC   GL114101  43.860  26.814   8.850
 4168POPC   GL214102  43.792  26.876   8.850
 4168POPC   C1A14103  43.859  26.849   8.550
 4168POPC   D2A14104  43.886  26.811   8.250
 4168POPC   C3A14105  43.847  26.814   7.950
 4168POPC   C4A14106  43.896  26.860   7.650
 4168POPC   C1B14107  43.717  27.028   8.550
 4168POPC   C2B14108  43.681  26.979   8.250
 4168POPC   C3B14109  43.720  26.970   7.950
 4168POPC   C4B14110  43.723  26.950   7.650
 4169POPC   NC314111  43.879  35.378   9.450
 4169POPC   PO414112  43.857  35.374   9.150
 4169POPC   GL114113  43.896  35.373   8.850
 4169POPC   GL214114  43.961  35.433   8.850
 4169POPC   C1A14115  43.874  35.343   8.550
 4169POPC   D2A14116  43.865  35.361   8.250
 4169POPC   C3A14117  43.872  35.377   7.950
 4169POPC   C4A14118  43.883  35.345   7.650
 4169POPC   C1B14119  44.014  35.599   8.550
 4169POPC   C2B14120  43.987  35.552   8.250
 4169POPC   C3B14121  43.954  35.591   7.950
 4169POPC   C4B14122  44.003  35.615   7.650
 4170POPC   NC314123  16.739  27.552   9.450
 4170POPC   PO414124  16.781  27.578   9.150
 4170POPC   GL114125  16.683  27.572   8.850
 4170POPC   GL214126  16.818  27.501   8.850
 4170POPC   C1A14127  16.692  27.598   8.550
 4170POPC   D2A14128  16.718  27.643   8.250
 4170POPC   C3A14129  16.743  27.552   7.950
 4170POPC   C4A14130  16.729  27.568   7.650
 4170POPC   C1B14131  16.821  27.392   8.550
 4170POPC   C2B14132  16.826  27.314   8.250
 4170POPC   C3B14133  16.839  27.348   7.950
 4170POPC   C4B14134  16.800  27.350   7.650
 4171POPC   NC314135  12.108  30.742   9.450
 4171POPC   PO414136  12.124  30.658   9.150
 4171POPC   GL114137  12.072  30.684   8.850
 4171POPC   GL214138  12.116  30.801   8.850
 4171POPC   C1A14139  12.065  30.696   8.550
 4171POPC   D2A14140  12.045  30.689   8.250
 4171POPC   C3A14141  12.109  30.738   7.950
 4171POPC   C4A14142  12.065  30.688   7.650
 4171POPC   C1B14143  12.214  30.960   8.550
 4171POPC   C2B14144  12.130  30.966   8.250
 4171POPC   C3B14145  12.207  30.964   7.950
 4171POPC   C4B14146  12.132  30.964   7.650
 4172POPC   NC314147  32.982  14.381   9.450
 4172POPC   PO414148  33.039  14.441   9.150
 4172POPC   GL114149  32.984  14.453   8.850
 4172POPC   GL214150  33.024  14.323   8.850
 4172POPC   C1A14151  32.992  14.444   8.550
 4172POPC   D2A14152  32.991  14.389   8.250
 4172POPC   C3A14153  33.073  14.356   7.950
 4172POPC   C4A14154  32.986  14.407   7.650
 4172POPC   C1B14155  32.979  14.195   8.550
 4172POPC   C2B14156  32.949  14.192   8.250
 4172POPC   C3B14157  32.998  14.117   7.950
 4172POPC   C4B14158  33.005  14.192   7.650
 4173POPC   NC314159  33.816  35.328   9.450
 4173POPC   PO414160  33.763  35.318   9.150
 4173POPC   GL114161  33.787  35.393   8.850
 4173POPC   GL214162  33.687  35.291   8.850
 4173POPC   C1A14163  33.837  35.329   8.550
 4173POPC   D2A14164  33.753  35.364   8.250
 4173POPC   C3A14165  33.759  35.342   7.950
 4173POPC   C4A14166  33.815  35.314   7.650
 4173POPC   C1B14167  33.592  35.189   8.550
 4173POPC   C2B14168  33.643  35.120   8.250
 4173POPC   C3B14169  33.628  35.144   7.950
 4173POPC   C4B14170  33.685  35.160   7.650
 4174POPC   NC314171  19.846  43.889   9.450
 4174POPC   PO414172  19.824  43.926   9.150
 4174POPC   GL114173  19.819  43.888   8.850
 4174POPC   GL214174  19.931  43.853   8.850
 4174POPC   C1A14175  19.850  43.840   8.550
 4174POPC   D2A14176  19.845  43.935   8.250
 4174POPC   C3A14177  19.822  43.900   7.950
 4174POPC   C4A14178  19.787  43.932   7.650
 4174POPC   C1B14179  20.111  43.846   8.550
 4174POPC   C2B14180  20.040  43.818   8.250
 4174POPC   C3B14181  20.122  43.804   7.950
 4174POPC   C4B14182  20.107  43.810   7.650
 4175POPC   NC314183  26.017  27.635   9.450
 4175POPC   PO414184  26.026  27.642   9.150
 4175POPC   GL114185  26.030  27.564   8.850
 4175POPC   GL214186  26.150  27.513   8.850
 4175POPC   C1A14187  26.081  27.585   8.550
 4175POPC   D2A14188  26.071  27.614   8.250
 4175POPC   C3A14189  26.075  27.576   7.950
 4175POPC   C4A14190  26.001  27.583   7.650
 4175POPC   C1B14191  26.229  27.450   8.550
 4175POPC   C2B14192  26.193  27.398   8.250
 4175POPC   C3B14193  26.196  27.420   7.950
 4175POPC   C4B14194  26.186  27.444   7.650
 4176POPC   NC314195  38.462  38.422   9.450
 4176POPC   PO414196  38.444  38.495   9.150
 4176POPC   GL114197  38.429  38.427   8.850
 4176POPC   GL214198  38.628  38.447   8.850
 4176POPC   C1A14199  38.455  38.469   8.550
 4176POPC   D2A14200  38.462  38.428   8.250
 4176POPC   C3A14201  38.447  38.413   7.950
 4176POPC   C4A14202  38.461  38.469   7.650
 4176POPC   C1B14203  38.727  38.430   8.550
 4176POPC   C2B14204  38.659  38.437   8.250
 4176POPC   C3B14205  38.743  38.411   7.950
 4176POPC   C4B14206  38.704  38.461   7.650
 4177POPC   NC314207  30.696  43.078   9.450
 4177POPC   PO414208  30.723  43.141   9.150
 4177POPC   GL114209  30.670  43.081   8.850
 4177POPC   GL214210  30.609  43.034   8.850
 4177POPC   C1A14211  30.742  43.093   8.550
 4177POPC   D2A14212  30.655  43.120   8.250
 4177POPC   C3A14213  30.680  43.138   7.950
 4177POPC   C4A14214  30.723  43.102   7.650
 4177POPC   C1B14215  30.417  43.037   8.550
 4177POPC   C2B14216  30.461  43.017   8.250
 4177POPC   C3B14217  30.417  43.045   7.950
 4177POPC   C4B14218  30.504  43.019   7.650
 4178POPC   NC314219  19.823  22.150   9.450
 4178POPC   PO414220  19.797  22.139   9.150
 4178POPC   GL114221  19.871  22.115   8.850
 4178POPC   GL214222  19.857  22.300   8.850
 4178POPC   C1A14223  19.838  22.157   8.550
 4178POPC   D2A14224  19.832  22.131   8.250
 4178POPC   C3A14225  19.785  22.150   7.950
 4178POPC   C4A14226  19.795  22.202   7.650
 4178POPC   C1B14227  19.952  22.424   8.550
 4178POPC   C2B14228  19.955  22.338   8.250
 4178POPC   C3B14229  19.905  22.357   7.950
 4178POPC   C4B14230  19.987  22.343   7.650
 4179POPC   NC314231  28.403   1.999   9.450
 4179POPC   PO414232  28.374   2.005   9.150
 4179POPC   GL114233  28.398   2.030   8.850
 4179POPC   GL214234  28.402   2.100   8.850
 4179POPC   C1A14235  28.360   1.947   8.550
 4179POPC   D2A14236  28.376   1.985   8.250
 4179POPC   C3A14237  28.400   1.980   7.950
 4179POPC   C4A14238  28.393   1.971   7.650
 4179POPC   C1B14239  28.363   2.241   8.550
 4179POPC   C2B14240  28.351   2.218   8.250
 4179POPC   C3B14241  28.395   2.258   7.950
 4179POPC   C4B14242  28.399   2.227   7.650
 4180POPC   NC314243  26.862  12.880   9.450
 4180POPC   PO414244  26.767  12.854   9.150
 4180POPC   GL114245  26.797  12.805   8.850
 4180POPC   GL214246  26.696  12.817   8.850
 4180POPC   C1A14247  26.835  12.809   8.550
 4180POPC   D2A14248  26.865  12.878   8.250
 4180POPC   C3A14249  26.840  12.887   7.950
 4180POPC   C4A14250  26.797  12.869   7.650
 4180POPC   C1B14251  26.617  12.743   8.550
 4180POPC   C2B14252  26.649  12.739   8.250
 4180POPC   C3B14253  26.633  12.747   7.950
 4180POPC   C4B14254  26.584  12.684   7.650
 4181POPC   NC314255  27.611  30.731   9.450
 4181POPC   PO414256  27.629  30.689   9.150
 4181POPC   GL114257  27.567  30.686   8.850
 4181POPC   GL214258  27.541  30.781   8.850
 4181POPC   C1A14259  27.604  30.681   8.550
 4181POPC   D2A14260  27.543  30.659   8.250
 4181POPC   C3A14261  27.585  30.683   7.950
 4181POPC   C4A14262  27.583  30.721   7.650
 4181POPC   C1B14263  27.372  30.874   8.550
 4181POPC   C2B14264  27.362  30.853   8.250
 4181POPC   C3B14265  27.356  30.903   7.950
 4181POPC   C4B14266  27.424  30.889   7.650
 4182POPC   NC314267  22.985  15.182   9.450
 4182POPC   PO414268  22.898  15.191   9.150
 4182POPC   GL114269  22.934  15.142   8.850
 4182POPC   GL214270  23.080  15.279   8.850
 4182POPC   C1A14271  22.898  15.210   8.550
 4182POPC   D2A14272  22.910  15.186   8.250
 4182POPC   C3A14273  22.973  15.168   7.950
 4182POPC   C4A14274  22.928  15.177   7.650
 4182POPC   C1B14275  23.205  15.293   8.550
 4182POPC   C2B14276  23.181  15.315   8.250
 4182POPC   C3B14277  23.111  15.281   7.950
 4182POPC   C4B14278  23.204  15.315   7.650
 4183POPC   NC314279  16.692  41.563   9.450
 4183POPC   PO414280  16.738  41.543   9.150
 4183POPC   GL114281  16.689  41.536   8.850
 4183POPC   GL214282  16.863  41.564   8.850
 4183POPC   C1A14283  16.722  41.595   8.550
 4183POPC   D2A14284  16.711  41.571   8.250
 4183POPC   C3A14285  16.688  41.538   7.950
 4183POPC   C4A14286  16.748  41.538   7.650
 4183POPC   C1B14287  17.007  41.626   8.550
 4183POPC   C2B14288  16.988  41.703   8.250
 4183POPC   C3B14289  17.007  41.689   7.950
 4183POPC   C4B14290  16.927  41.650   7.650
 4184POPC   NC314291   5.126  43.918   9.450
 4184POPC   PO414292   5.107  43.874   9.150
 4184POPC   GL114293   5.055  43.886   8.850
 4184POPC   GL214294   5.061  43.775   8.850
 4184POPC   C1A14295   5.073  43.858   8.550
 4184POPC   D2A14296   5.124  43.852   8.250
 4184POPC   C3A14297   5.061  43.850   7.950
 4184POPC   C4A14298   5.139  43.889   7.650
 4184POPC   C1B14299   4.893  43.684   8.550
 4184POPC   C2B14300   4.952  43.644   8.250
 4184POPC   C3B14301   4.962  43.731   7.950
 4184POPC   C4B14302   4.934  43.685   7.650
 4185POPC   NC314303   2.736  42.317   9.450
 4185POPC   PO414304   2.732  42.370   9.150
 4185POPC   GL114305   2.743  42.285   8.850
 4185POPC   GL214306   2.896  42.328   8.850
 4185POPC   C1A14307   2.757  42.368   8.550
 4185POPC   D2A14308   2.772  42.351   8.250
 4185POPC   C3A14309   2.716  42.347   7.950
 4185POPC   C4A14310   2.815  42.351   7.650
 4185POPC   C1B14311   3.022  42.297   8.550
 4185POPC   C2B14312   3.029  42.268   8.250
 4185POPC   C3B14313   3.012  42.288   7.950
 4185POPC   C4B14314   3.040  42.295   7.650
 4186POPC   NC314315  26.060  25.232   9.450
 4186POPC   PO414316  26.006  25.251   9.150
 4186POPC   GL114317  26.079  25.250   8.850
 4186POPC   GL214318  26.122  25.225   8.850
 4186POPC   C1A14319  25.994  25.309   8.550
 4186POPC   D2A14320  26.018  25.311   8.250
 4186POPC   C3A14321  25.993  25.271   7.950
 4186POPC   C4A14322  25.993  25.228   7.650
 4186POPC   C1B14323  26.214  25.078   8.550
 4186POPC   C2B14324  26.237  25.114   8.250
 4186POPC   C3B14325  26.250  25.064   7.950
 4186POPC   C4B14326  26.182  25.094   7.650
 4187POPC   NC314327   9.795  27.556   9.450
 4187POPC   PO414328   9.721  27.588   9.150
 4187POPC   GL114329   9.795  27.601   8.850
 4187POPC   GL214330   9.601  27.533   8.850
 4187POPC   C1A14331   9.737  27.609   8.550
 4187POPC   D2A14332   9.753  27.570   8.250
 4187POPC   C3A14333   9.718  27.586   7.950
 4187POPC   C4A14334   9.749  27.609   7.650
 4187POPC   C1B14335   9.498  27.492   8.550
 4187POPC   C2B14336   9.535  27.401   8.250
 4187POPC   C3B14337   9.543  27.440   7.950
 4187POPC   C4B14338   9.548  27.400   7.650
 4188POPC   NC314339  34.531  17.514   9.450
 4188POPC   PO414340  34.531  17.484   9.150
 4188POPC   GL114341  34.564  17.497   8.850
 4188POPC   GL214342  34.531  17.649   8.850
 4188POPC   C1A14343  34.609  17.485   8.550
 4188POPC   D2A14344  34.562  17.463   8.250
 4188POPC   C3A14345  34.556  17.537   7.950
 4188POPC   C4A14346  34.527  17.478   7.650
 4188POPC   C1B14347  34.513  17.790   8.550
 4188POPC   C2B14348  34.550  17.717   8.250
 4188POPC   C3B14349  34.556  17.724   7.950
 4188POPC   C4B14350  34.580  17.779   7.650
 4189POPC   NC314351  26.052  29.165   9.450
 4189POPC   PO414352  26.022  29.179   9.150
 4189POPC   GL114353  26.057  29.142   8.850
 4189POPC   GL214354  26.110  29.001   8.850
 4189POPC   C1A14355  26.041  29.186   8.550
 4189POPC   D2A14356  26.085  29.138   8.250
 4189POPC   C3A14357  26.046  29.139   7.950
 4189POPC   C4A14358  26.058  29.103   7.650
 4189POPC   C1B14359  26.108  28.883   8.550
 4189POPC   C2B14360  26.093  28.948   8.250
 4189POPC   C3B14361  26.126  28.867   7.950
 4189POPC   C4B14362  26.099  28.948   7.650
 4190POPC   NC314363   1.180  34.540   9.450
 4190POPC   PO414364   1.214  34.575   9.150
 4190POPC   GL114365   1.178  34.560   8.850
 4190POPC   GL214366   1.332  34.540   8.850
 4190POPC   C1A14367   1.179  34.547   8.550
 4190POPC   D2A14368   1.186  34.547   8.250
 4190POPC   C3A14369   1.180  34.550   7.950
 4190POPC   C4A14370   1.176  34.605   7.650
 4190POPC   C1B14371   1.388  34.459   8.550
 4190POPC   C2B14372   1.373  34.373   8.250
 4190POPC   C3B14373   1.398  34.424   7.950
 4190POPC   C4B14374   1.387  34.414   7.650
 4191POPC   NC314375  15.974  36.891   9.450
 4191POPC   PO414376  15.946  36.859   9.150
 4191POPC   GL114377  16.003  36.861   8.850
 4191POPC   GL214378  15.941  37.026   8.850
 4191POPC   C1A14379  15.938  36.879   8.550
 4191POPC   D2A14380  15.996  36.921   8.250
 4191POPC   C3A14381  15.959  36.925   7.950
 4191POPC   C4A14382  15.941  36.870   7.650
 4191POPC   C1B14383  15.840  37.160   8.550
 4191POPC   C2B14384  15.841  37.133   8.250
 4191POPC   C3B14385  15.890  37.105   7.950
 4191POPC   C4B14386  15.833  37.143   7.650
 4192POPC   NC314387  20.647  17.535   9.450
 4192POPC   PO414388  20.583  17.531   9.150
 4192POPC   GL114389  20.576  17.555   8.850
 4192POPC   GL214390  20.632  17.369   8.850
 4192POPC   C1A14391  20.580  17.470   8.550
 4192POPC   D2A14392  20.648  17.522   8.250
 4192POPC   C3A14393  20.621  17.486   7.950
 4192POPC   C4A14394  20.654  17.494   7.650
 4192POPC   C1B14395  20.567  17.254   8.550
 4192POPC   C2B14396  20.631  17.297   8.250
 4192POPC   C3B14397  20.603  17.296   7.950
 4192POPC   C4B14398  20.609  17.297   7.650
 4193POPC   NC314399  27.621  25.302   9.450
 4193POPC   PO414400  27.560  25.270   9.150
 4193POPC   GL114401  27.605  25.294   8.850
 4193POPC   GL214402  27.524  25.267   8.850
 4193POPC   C1A14403  27.619  25.225   8.550
 4193POPC   D2A14404  27.583  25.263   8.250
 4193POPC   C3A14405  27.610  25.304   7.950
 4193POPC   C4A14406  27.561  25.294   7.650
 4193POPC   C1B14407  27.398  25.169   8.550
 4193POPC   C2B14408  27.356  25.226   8.250
 4193POPC   C3B14409  27.354  25.195   7.950
 4193POPC   C4B14410  27.335  25.223   7.650
 4194POPC   NC314411  27.619  33.836   9.450
 4194POPC   PO414412  27.551  33.805   9.150
 4194POPC   GL114413  27.610  33.800   8.850
 4194POPC   GL214414  27.519  33.929   8.850
 4194POPC   C1A14415  27.574  33.823   8.550
 4194POPC   D2A14416  27.639  33.847   8.250
 4194POPC   C3A14417  27.611  33.804   7.950
 4194POPC   C4A14418  27.583  33.762   7.650
 4194POPC   C1B14419  27.389  33.995   8.550
 4194POPC   C2B14420  27.451  33.981   8.250
 4194POPC   C3B14421  27.422  33.950   7.950
 4194POPC   C4B14422  27.398  34.005   7.650
 4195POPC   NC314423   1.998   5.837   9.450
 4195POPC   PO414424   1.941   5.829   9.150
 4195POPC   GL114425   1.967   5.916   8.850
 4195POPC   GL214426   2.034   5.764   8.850
 4195POPC   C1A14427   1.962   5.820   8.550
 4195POPC   D2A14428   1.972   5.876   8.250
 4195POPC   C3A14429   1.974   5.823   7.950
 4195POPC   C4A14430   1.952   5.852   7.650
 4195POPC   C1B14431   2.157   5.736   8.550
 4195POPC   C2B14432   2.196   5.713   8.250
 4195POPC   C3B14433   2.194   5.678   7.950
 4195POPC   C4B14434   2.186   5.661   7.650
 4196POPC   NC314435  23.718  36.085   9.450
 4196POPC   PO414436  23.706  36.125   9.150
 4196POPC   GL114437  23.699  36.122   8.850
 4196POPC   GL214438  23.591  36.215   8.850
 4196POPC   C1A14439  23.665  36.109   8.550
 4196POPC   D2A14440  23.746  36.083   8.250
 4196POPC   C3A14441  23.665  36.115   7.950
 4196POPC   C4A14442  23.729  36.080   7.650
 4196POPC   C1B14443  23.560  36.255   8.550
 4196POPC   C2B14444  23.528  36.260   8.250
 4196POPC   C3B14445  23.532  36.336   7.950
 4196POPC   C4B14446  23.489  36.251   7.650
 4197POPC   NC314447  11.299   6.612   9.450
 4197POPC   PO414448  11.305   6.680   9.150
 4197POPC   GL114449  11.315   6.663   8.850
 4197POPC   GL214450  11.365   6.573   8.850
 4197POPC   C1A14451  11.283   6.614   8.550
 4197POPC   D2A14452  11.342   6.693   8.250
 4197POPC   C3A14453  11.310   6.643   7.950
 4197POPC   C4A14454  11.340   6.670   7.650
 4197POPC   C1B14455  11.453   6.451   8.550
 4197POPC   C2B14456  11.503   6.498   8.250
 4197POPC   C3B14457  11.425   6.417   7.950
 4197POPC   C4B14458  11.485   6.487   7.650
 4198POPC   NC314459   0.466  29.905   9.450
 4198POPC   PO414460   0.400  29.920   9.150
 4198POPC   GL114461   0.407  29.887   8.850
 4198POPC   GL214462   0.457  30.056   8.850
 4198POPC   C1A14463   0.409  29.896   8.550
 4198POPC   D2A14464   0.409  29.947   8.250
 4198POPC   C3A14465   0.405  29.894   7.950
 4198POPC   C4A14466   0.425  29.961   7.650
 4198POPC   C1B14467   0.460  30.177   8.550
 4198POPC   C2B14468   0.469  30.181   8.250
 4198POPC   C3B14469   0.419  30.197   7.950
 4198POPC   C4B14470   0.471  30.205   7.650
 4199POPC   NC314471   5.840  29.896   9.450
 4199POPC   PO414472   5.825  29.911   9.150
 4199POPC   GL114473   5.854  29.906   8.850
 4199POPC   GL214474   5.836  30.031   8.850
 4199POPC   C1A14475   5.897  29.931   8.550
 4199POPC   D2A14476   5.865  29.919   8.250
 4199POPC   C3A14477   5.909  29.899   7.950
 4199POPC   C4A14478   5.833  29.881   7.650
 4199POPC   C1B14479   5.783  30.191   8.550
 4199POPC   C2B14480   5.847  30.179   8.250
 4199POPC   C3B14481   5.832  30.194   7.950
 4199POPC   C4B14482   5.845  30.156   7.650
 4200POPC   NC314483  41.575  36.951   9.450
 4200POPC   PO414484  41.569  36.873   9.150
 4200POPC   GL114485  41.606  36.868   8.850
 4200POPC   GL214486  41.474  36.962   8.850
 4200POPC   C1A14487  41.581  36.862   8.550
 4200POPC   D2A14488  41.562  36.868   8.250
 4200POPC   C3A14489  41.596  36.935   7.950
 4200POPC   C4A14490  41.593  36.897   7.650
 4200POPC   C1B14491  41.372  37.148   8.550
 4200POPC   C2B14492  41.440  37.076   8.250
 4200POPC   C3B14493  41.406  37.134   7.950
 4200POPC   C4B14494  41.381  37.142   7.650
 4201POPC   NC314495  26.066  28.327   9.450
 4201POPC   PO414496  26.010  28.323   9.150
 4201POPC   GL114497  26.087  28.341   8.850
 4201POPC   GL214498  26.170  28.394   8.850
 4201POPC   C1A14499  26.091  28.364   8.550
 4201POPC   D2A14500  26.051  28.367   8.250
 4201POPC   C3A14501  26.088  28.360   7.950
 4201POPC   C4A14502  26.012  28.352   7.650
 4201POPC   C1B14503  26.248  28.443   8.550
 4201POPC   C2B14504  26.243  28.444   8.250
 4201POPC   C3B14505  26.288  28.493   7.950
 4201POPC   C4B14506  26.235  28.460   7.650
 4202POPC   NC314507   5.912  39.250   9.450
 4202POPC   PO414508   5.852  39.241   9.150
 4202POPC   GL114509   5.823  39.261   8.850
 4202POPC   GL214510   5.731  39.156   8.850
 4202POPC   C1A14511   5.906  39.184   8.550
 4202POPC   D2A14512   5.897  39.200   8.250
 4202POPC   C3A14513   5.849  39.222   7.950
 4202POPC   C4A14514   5.835  39.182   7.650
 4202POPC   C1B14515   5.663  39.151   8.550
 4202POPC   C2B14516   5.660  39.193   8.250
 4202POPC   C3B14517   5.606  39.095   7.950
 4202POPC   C4B14518   5.650  39.133   7.650
 4203POPC   NC314519  23.706   3.587   9.450
 4203POPC   PO414520  23.674   3.547   9.150
 4203POPC   GL114521  23.666   3.526   8.850
 4203POPC   GL214522  23.668   3.433   8.850
 4203POPC   C1A14523  23.675   3.512   8.550
 4203POPC   D2A14524  23.707   3.502   8.250
 4203POPC   C3A14525  23.747   3.506   7.950
 4203POPC   C4A14526  23.669   3.541   7.650
 4203POPC   C1B14527  23.507   3.318   8.550
 4203POPC   C2B14528  23.533   3.306   8.250
 4203POPC   C3B14529  23.499   3.325   7.950
 4203POPC   C4B14530  23.512   3.388   7.650
 4204POPC   NC314531   6.689  38.445   9.450
 4204POPC   PO414532   6.671  38.419   9.150
 4204POPC   GL114533   6.605  38.415   8.850
 4204POPC   GL214534   6.726  38.358   8.850
 4204POPC   C1A14535   6.649  38.500   8.550
 4204POPC   D2A14536   6.672  38.505   8.250
 4204POPC   C3A14537   6.647  38.489   7.950
 4204POPC   C4A14538   6.694  38.424   7.650
 4204POPC   C1B14539   6.827  38.361   8.550
 4204POPC   C2B14540   6.901  38.320   8.250
 4204POPC   C3B14541   6.897  38.322   7.950
 4204POPC   C4B14542   6.852  38.354   7.650
 4205POPC   NC314543  39.255   9.757   9.450
 4205POPC   PO414544  39.273   9.704   9.150
 4205POPC   GL114545  39.228   9.724   8.850
 4205POPC   GL214546  39.302   9.733   8.850
 4205POPC   C1A14547  39.278   9.756   8.550
 4205POPC   D2A14548  39.252   9.787   8.250
 4205POPC   C3A14549  39.186   9.708   7.950
 4205POPC   C4A14550  39.248   9.794   7.650
 4205POPC   C1B14551  39.478   9.701   8.550
 4205POPC   C2B14552  39.462   9.655   8.250
 4205POPC   C3B14553  39.439   9.698   7.950
 4205POPC   C4B14554  39.501   9.699   7.650
 4206POPC   NC314555  26.033  36.868   9.450
 4206POPC   PO414556  26.007  36.883   9.150
 4206POPC   GL114557  26.017  36.931   8.850
 4206POPC   GL214558  26.149  36.825   8.850
 4206POPC   C1A14559  26.089  36.878   8.550
 4206POPC   D2A14560  26.024  36.865   8.250
 4206POPC   C3A14561  26.055  36.879   7.950
 4206POPC   C4A14562  26.086  36.891   7.650
 4206POPC   C1B14563  26.224  36.778   8.550
 4206POPC   C2B14564  26.276  36.762   8.250
 4206POPC   C3B14565  26.307  36.792   7.950
 4206POPC   C4B14566  26.261  36.801   7.650
 4207POPC   NC314567   8.954  33.811   9.450
 4207POPC   PO414568   9.007  33.783   9.150
 4207POPC   GL114569   8.998  33.794   8.850
 4207POPC   GL214570   8.843  33.854   8.850
 4207POPC   C1A14571   9.011  33.839   8.550
 4207POPC   D2A14572   9.011  33.800   8.250
 4207POPC   C3A14573   8.939  33.803   7.950
 4207POPC   C4A14574   8.986  33.758   7.650
 4207POPC   C1B14575   8.731  33.879   8.550
 4207POPC   C2B14576   8.716  33.861   8.250
 4207POPC   C3B14577   8.710  33.802   7.950
 4207POPC   C4B14578   8.706  33.851   7.650
 4208POPC   NC314579  39.187   6.619   9.450
 4208POPC   PO414580  39.267   6.666   9.150
 4208POPC   GL114581  39.241   6.687   8.850
 4208POPC   GL214582  39.176   6.781   8.850
 4208POPC   C1A14583  39.266   6.659   8.550
 4208POPC   D2A14584  39.210   6.670   8.250
 4208POPC   C3A14585  39.242   6.639   7.950
 4208POPC   C4A14586  39.192   6.689   7.650
 4208POPC   C1B14587  39.109   6.866   8.550
 4208POPC   C2B14588  39.182   6.841   8.250
 4208POPC   C3B14589  39.112   6.899   7.950
 4208POPC   C4B14590  39.144   6.846   7.650
 4209POPC   NC314591   5.107  21.424   9.450
 4209POPC   PO414592   5.143  21.341   9.150
 4209POPC   GL114593   5.113  21.337   8.850
 4209POPC   GL214594   5.016  21.497   8.850
 4209POPC   C1A14595   5.122  21.404   8.550
 4209POPC   D2A14596   5.137  21.371   8.250
 4209POPC   C3A14597   5.075  21.377   7.950
 4209POPC   C4A14598   5.068  21.386   7.650
 4209POPC   C1B14599   4.930  21.644   8.550
 4209POPC   C2B14600   4.931  21.631   8.250
 4209POPC   C3B14601   4.976  21.596   7.950
 4209POPC   C4B14602   4.934  21.567   7.650
 4210POPC   NC314603   5.898   9.022   9.450
 4210POPC   PO414604   5.827   8.953   9.150
 4210POPC   GL114605   5.887   8.974   8.850
 4210POPC   GL214606   5.729   8.915   8.850
 4210POPC   C1A14607   5.861   8.992   8.550
 4210POPC   D2A14608   5.872   8.953   8.250
 4210POPC   C3A14609   5.864   9.020   7.950
 4210POPC   C4A14610   5.836   8.941   7.650
 4210POPC   C1B14611   5.653   8.829   8.550
 4210POPC   C2B14612   5.618   8.870   8.250
 4210POPC   C3B14613   5.655   8.858   7.950
 4210POPC   C4B14614   5.678   8.857   7.650
 4211POPC   NC314615  25.995  33.825   9.450
 4211POPC   PO414616  26.053  33.823   9.150
 4211POPC   GL114617  26.000  33.768   8.850
 4211POPC   GL214618  25.938  33.694   8.850
 4211POPC   C1A14619  26.055  33.771   8.550
 4211POPC   D2A14620  26.076  33.753   8.250
 4211POPC   C3A14621  26.051  33.803   7.950
 4211POPC   C4A14622  26.024  33.799   7.650
 4211POPC   C1B14623  25.897  33.619   8.550
 4211POPC   C2B14624  25.857  33.655   8.250
 4211POPC   C3B14625  25.873  33.608   7.950
 4211POPC   C4B14626  25.867  33.604   7.650
 4212POPC   NC314627   9.733  29.130   9.450
 4212POPC   PO414628   9.721  29.186   9.150
 4212POPC   GL114629   9.722  29.168   8.850
 4212POPC   GL214630   9.810  29.005   8.850
 4212POPC   C1A14631   9.730  29.151   8.550
 4212POPC   D2A14632   9.735  29.101   8.250
 4212POPC   C3A14633   9.798  29.163   7.950
 4212POPC   C4A14634   9.776  29.158   7.650
 4212POPC   C1B14635   9.903  28.922   8.550
 4212POPC   C2B14636   9.925  28.922   8.250
 4212POPC   C3B14637   9.934  28.973   7.950
 4212POPC   C4B14638   9.950  28.917   7.650
 4213POPC   NC314639  34.558  22.955   9.450
 4213POPC   PO414640  34.614  22.907   9.150
 4213POPC   GL114641  34.539  22.918   8.850
 4213POPC   GL214642  34.546  23.060   8.850
 4213POPC   C1A14643  34.571  22.941   8.550
 4213POPC   D2A14644  34.554  22.935   8.250
 4213POPC   C3A14645  34.546  22.948   7.950
 4213POPC   C4A14646  34.552  22.950   7.650
 4213POPC   C1B14647  34.507  23.129   8.550
 4213POPC   C2B14648  34.464  23.121   8.250
 4213POPC   C3B14649  34.473  23.146   7.950
 4213POPC   C4B14650  34.468  23.134   7.650
 4214POPC   NC314651  39.199  37.697   9.450
 4214POPC   PO414652  39.281  37.657   9.150
 4214POPC   GL114653  39.196  37.644   8.850
 4214POPC   GL214654  39.301  37.783   8.850
 4214POPC   C1A14655  39.230  37.711   8.550
 4214POPC   D2A14656  39.224  37.681   8.250
 4214POPC   C3A14657  39.269  37.643   7.950
 4214POPC   C4A14658  39.186  37.669   7.650
 4214POPC   C1B14659  39.326  37.950   8.550
 4214POPC   C2B14660  39.289  37.880   8.250
 4214POPC   C3B14661  39.314  37.877   7.950
 4214POPC   C4B14662  39.297  37.914   7.650
 4215POPC   NC314663  11.259  36.165   9.450
 4215POPC   PO414664  11.304  36.153   9.150
 4215POPC   GL114665  11.320  36.097   8.850
 4215POPC   GL214666  11.369  36.206   8.850
 4215POPC   C1A14667  11.335  36.144   8.550
 4215POPC   D2A14668  11.283  36.095   8.250
 4215POPC   C3A14669  11.310  36.128   7.950
 4215POPC   C4A14670  11.259  36.173   7.650
 4215POPC   C1B14671  11.399  36.340   8.550
 4215POPC   C2B14672  11.338  36.393   8.250
 4215POPC   C3B14673  11.340  36.354   7.950
 4215POPC   C4B14674  11.351  36.411   7.650
 4216POPC   NC314675  22.940  25.269   9.450
 4216POPC   PO414676  22.896  25.308   9.150
 4216POPC   GL114677  22.970  25.290   8.850
 4216POPC   GL214678  23.013  25.144   8.850
 4216POPC   C1A14679  22.907  25.221   8.550
 4216POPC   D2A14680  22.961  25.252   8.250
 4216POPC   C3A14681  22.973  25.226   7.950
 4216POPC   C4A14682  22.969  25.271   7.650
 4216POPC   C1B14683  23.127  25.158   8.550
 4216POPC   C2B14684  23.150  25.141   8.250
 4216POPC   C3B14685  23.099  25.160   7.950
 4216POPC   C4B14686  23.093  25.085   7.650
 4217POPC   NC314687  14.441  39.982   9.450
 4217POPC   PO414688  14.387  39.992   9.150
 4217POPC   GL114689  14.397  39.959   8.850
 4217POPC   GL214690  14.569  39.992   8.850
 4217POPC   C1A14691  14.367  39.962   8.550
 4217POPC   D2A14692  14.394  40.010   8.250
 4217POPC   C3A14693  14.437  39.960   7.950
 4217POPC   C4A14694  14.416  40.048   7.650
 4217POPC   C1B14695  14.602  40.061   8.550
 4217POPC   C2B14696  14.641  40.115   8.250
 4217POPC   C3B14697  14.598  40.023   7.950
 4217POPC   C4B14698  14.672  40.037   7.650
 4218POPC   NC314699   8.176  33.827   9.450
 4218POPC   PO414700   8.200  33.783   9.150
 4218POPC   GL114701   8.244  33.845   8.850
 4218POPC   GL214702   8.157  33.920   8.850
 4218POPC   C1A14703   8.239  33.801   8.550
 4218POPC   D2A14704   8.226  33.799   8.250
 4218POPC   C3A14705   8.189  33.766   7.950
 4218POPC   C4A14706   8.210  33.820   7.650
 4218POPC   C1B14707   8.125  34.019   8.550
 4218POPC   C2B14708   8.069  33.981   8.250
 4218POPC   C3B14709   8.103  34.046   7.950
 4218POPC   C4B14710   8.060  34.074   7.650
 4219POPC   NC314711   3.494   3.511   9.450
 4219POPC   PO414712   3.582   3.583   9.150
 4219POPC   GL114713   3.590   3.501   8.850
 4219POPC   GL214714   3.654   3.644   8.850
 4219POPC   C1A14715   3.527   3.532   8.550
 4219POPC   D2A14716   3.570   3.535   8.250
 4219POPC   C3A14717   3.545   3.526   7.950
 4219POPC   C4A14718   3.546   3.579   7.650
 4219POPC   C1B14719   3.701   3.658   8.550
 4219POPC   C2B14720   3.695   3.740   8.250
 4219POPC   C3B14721   3.748   3.736   7.950
 4219POPC   C4B14722   3.765   3.728   7.650
 4220POPC   NC314723   5.128  26.849   9.450
 4220POPC   PO414724   5.065  26.837   9.150
 4220POPC   GL114725   5.087  26.817   8.850
 4220POPC   GL214726   5.193  26.932   8.850
 4220POPC   C1A14727   5.095  26.863   8.550
 4220POPC   D2A14728   5.048  26.817   8.250
 4220POPC   C3A14729   5.093  26.829   7.950
 4220POPC   C4A14730   5.093  26.768   7.650
 4220POPC   C1B14731   5.241  26.971   8.550
 4220POPC   C2B14732   5.244  27.050   8.250
 4220POPC   C3B14733   5.208  27.027   7.950
 4220POPC   C4B14734   5.262  27.045   7.650
 4221POPC   NC314735  25.258  12.114   9.450
 4221POPC   PO414736  25.283  12.054   9.150
 4221POPC   GL114737  25.250  12.087   8.850
 4221POPC   GL214738  25.348  11.973   8.850
 4221POPC   C1A14739  25.235  12.066   8.550
 4221POPC   D2A14740  25.220  12.089   8.250
 4221POPC   C3A14741  25.250  12.056   7.950
 4221POPC   C4A14742  25.301  12.085   7.650
 4221POPC   C1B14743  25.472  11.870   8.550
 4221POPC   C2B14744  25.441  11.851   8.250
 4221POPC   C3B14745  25.394  11.910   7.950
 4221POPC   C4B14746  25.442  11.914   7.650
 4222POPC   NC314747  31.429  40.759   9.450
 4222POPC   PO414748  31.478  40.736   9.150
 4222POPC   GL114749  31.438  40.767   8.850
 4222POPC   GL214750  31.588  40.839   8.850
 4222POPC   C1A14751  31.494  40.790   8.550
 4222POPC   D2A14752  31.507  40.770   8.250
 4222POPC   C3A14753  31.427  40.741   7.950
 4222POPC   C4A14754  31.506  40.759   7.650
 4222POPC   C1B14755  31.607  40.956   8.550
 4222POPC   C2B14756  31.602  40.928   8.250
 4222POPC   C3B14757  31.601  40.960   7.950
 4222POPC   C4B14758  31.647  40.944   7.650
 4223POPC   NC314759  33.828  29.186   9.450
 4223POPC   PO414760  33.827  29.162   9.150
 4223POPC   GL114761  33.787  29.148   8.850
 4223POPC   GL214762  33.817  29.016   8.850
 4223POPC   C1A14763  33.752  29.151   8.550
 4223POPC   D2A14764  33.772  29.118   8.250
 4223POPC   C3A14765  33.802  29.113   7.950
 4223POPC   C4A14766  33.786  29.162   7.650
 4223POPC   C1B14767  33.941  28.908   8.550
 4223POPC   C2B14768  33.962  28.896   8.250
 4223POPC   C3B14769  33.902  28.874   7.950
 4223POPC   C4B14770  33.867  28.934   7.650
 4224POPC   NC314771   5.131  10.492   9.450
 4224POPC   PO414772   5.056  10.548   9.150
 4224POPC   GL114773   5.060  10.533   8.850
 4224POPC   GL214774   5.262  10.516   8.850
 4224POPC   C1A14775   5.139  10.497   8.550
 4224POPC   D2A14776   5.086  10.475   8.250
 4224POPC   C3A14777   5.111  10.493   7.950
 4224POPC   C4A14778   5.136  10.558   7.650
 4224POPC   C1B14779   5.291  10.458   8.550
 4224POPC   C2B14780   5.305  10.502   8.250
 4224POPC   C3B14781   5.348  10.495   7.950
 4224POPC   C4B14782   5.292  10.504   7.650
 4225POPC   NC314783  42.364   6.606   9.450
 4225POPC   PO414784  42.337   6.609   9.150
 4225POPC   GL114785  42.321   6.642   8.850
 4225POPC   GL214786  42.215   6.685   8.850
 4225POPC   C1A14787  42.289   6.658   8.550
 4225POPC   D2A14788  42.325   6.694   8.250
 4225POPC   C3A14789  42.371   6.623   7.950
 4225POPC   C4A14790  42.309   6.654   7.650
 4225POPC   C1B14791  42.121   6.838   8.550
 4225POPC   C2B14792  42.164   6.794   8.250
 4225POPC   C3B14793  42.171   6.809   7.950
 4225POPC   C4B14794  42.158   6.747   7.650
 4226POPC   NC314795  29.135   3.575   9.450
 4226POPC   PO414796  29.129   3.525   9.150
 4226POPC   GL114797  29.160   3.493   8.850
 4226POPC   GL214798  29.135   3.413   8.850
 4226POPC   C1A14799  29.195   3.554   8.550
 4226POPC   D2A14800  29.149   3.535   8.250
 4226POPC   C3A14801  29.158   3.497   7.950
 4226POPC   C4A14802  29.181   3.515   7.650
 4226POPC   C1B14803  29.211   3.302   8.550
 4226POPC   C2B14804  29.229   3.308   8.250
 4226POPC   C3B14805  29.195   3.272   7.950
 4226POPC   C4B14806  29.201   3.253   7.650
 4227POPC   NC314807  16.744  33.047   9.450
 4227POPC   PO414808  16.771  32.975   9.150
 4227POPC   GL114809  16.760  33.065   8.850
 4227POPC   GL214810  16.891  32.958   8.850
 4227POPC   C1A14811  16.775  32.980   8.550
 4227POPC   D2A14812  16.717  33.064   8.250
 4227POPC   C3A14813  16.767  33.001   7.950
 4227POPC   C4A14814  16.710  33.001   7.650
 4227POPC   C1B14815  17.009  32.879   8.550
 4227POPC   C2B14816  17.000  32.933   8.250
 4227POPC   C3B14817  17.009  32.940   7.950
 4227POPC   C4B14818  16.996  32.885   7.650
 4228POPC   NC314819  16.716  15.992   9.450
 4228POPC   PO414820  16.709  15.972   9.150
 4228POPC   GL114821  16.695  15.920   8.850
 4228POPC   GL214822  16.770  16.053   8.850
 4228POPC   C1A14823  16.771  15.972   8.550
 4228POPC   D2A14824  16.702  15.939   8.250
 4228POPC   C3A14825  16.764  15.965   7.950
 4228POPC   C4A14826  16.719  15.960   7.650
 4228POPC   C1B14827  16.810  16.183   8.550
 4228POPC   C2B14828  16.734  16.211   8.250
 4228POPC   C3B14829  16.790  16.199   7.950
 4228POPC   C4B14830  16.820  16.195   7.650
 4229POPC   NC314831  22.940   9.778   9.450
 4229POPC   PO414832  22.896   9.798   9.150
 4229POPC   GL114833  22.938   9.798   8.850
 4229POPC   GL214834  22.865   9.736   8.850
 4229POPC   C1A14835  22.896   9.735   8.550
 4229POPC   D2A14836  22.888   9.746   8.250
 4229POPC   C3A14837  22.937   9.700   7.950
 4229POPC   C4A14838  22.954   9.769   7.650
 4229POPC   C1B14839  22.682   9.687   8.550
 4229POPC   C2B14840  22.685   9.681   8.250
 4229POPC   C3B14841  22.751   9.650   7.950
 4229POPC   C4B14842  22.669   9.613   7.650
 4230POPC   NC314843  40.019  39.968   9.450
 4230POPC   PO414844  39.971  40.009   9.150
 4230POPC   GL114845  39.984  40.001   8.850
 4230POPC   GL214846  39.912  40.128   8.850
 4230POPC   C1A14847  40.056  40.001   8.550
 4230POPC   D2A14848  39.966  40.025   8.250
 4230POPC   C3A14849  39.974  40.029   7.950
 4230POPC   C4A14850  40.037  40.017   7.650
 4230POPC   C1B14851  39.848  40.144   8.550
 4230POPC   C2B14852  39.791  40.133   8.250
 4230POPC   C3B14853  39.835  40.195   7.950
 4230POPC   C4B14854  39.831  40.204   7.650
 4231POPC   NC314855  38.460  26.084   9.450
 4231POPC   PO414856  38.490  26.072   9.150
 4231POPC   GL114857  38.409  26.041   8.850
 4231POPC   GL214858  38.576  26.085   8.850
 4231POPC   C1A14859  38.411  26.001   8.550
 4231POPC   D2A14860  38.425  25.998   8.250
 4231POPC   C3A14861  38.480  26.066   7.950
 4231POPC   C4A14862  38.465  26.028   7.650
 4231POPC   C1B14863  38.696  26.022   8.550
 4231POPC   C2B14864  38.720  26.038   8.250
 4231POPC   C3B14865  38.673  26.098   7.950
 4231POPC   C4B14866  38.743  26.013   7.650
 4232POPC   NC314867  17.538  16.690   9.450
 4232POPC   PO414868  17.471  16.723   9.150
 4232POPC   GL114869  17.527  16.706   8.850
 4232POPC   GL214870  17.444  16.834   8.850
 4232POPC   C1A14871  17.545  16.730   8.550
 4232POPC   D2A14872  17.543  16.696   8.250
 4232POPC   C3A14873  17.481  16.736   7.950
 4232POPC   C4A14874  17.544  16.737   7.650
 4232POPC   C1B14875  17.246  16.888   8.550
 4232POPC   C2B14876  17.308  16.880   8.250
 4232POPC   C3B14877  17.272  16.859   7.950
 4232POPC   C4B14878  17.270  16.820   7.650
 4233POPC   NC314879  11.292  43.930   9.450
 4233POPC   PO414880  11.321  43.877   9.150
 4233POPC   GL114881  11.265  43.862   8.850
 4233POPC   GL214882  11.368  43.840   8.850
 4233POPC   C1A14883  11.317  43.843   8.550
 4233POPC   D2A14884  11.344  43.899   8.250
 4233POPC   C3A14885  11.262  43.921   7.950
 4233POPC   C4A14886  11.259  43.851   7.650
 4233POPC   C1B14887  11.487  43.724   8.550
 4233POPC   C2B14888  11.439  43.672   8.250
 4233POPC   C3B14889  11.466  43.688   7.950
 4233POPC   C4B14890  11.504  43.686   7.650
 4234POPC   NC314891  12.096  27.609   9.450
 4234POPC   PO414892  12.055  27.592   9.150
 4234POPC   GL114893  12.098  27.567   8.850
 4234POPC   GL214894  11.968  27.451   8.850
 4234POPC   C1A14895  12.111  27.551   8.550
 4234POPC   D2A14896  12.057  27.548   8.250
 4234POPC   C3A14897  12.084  27.624   7.950
 4234POPC   C4A14898  12.034  27.583   7.650
 4234POPC   C1B14899  11.960  27.378   8.550
 4234POPC   C2B14900  11.931  27.424   8.250
 4234POPC   C3B14901  11.886  27.415   7.950
 4234POPC   C4B14902  11.964  27.446   7.650
 4235POPC   NC314903  28.364  26.008   9.450
 4235POPC   PO414904  28.415  26.049   9.150
 4235POPC   GL114905  28.383  26.044   8.850
 4235POPC   GL214906  28.244  25.950   8.850
 4235POPC   C1A14907  28.330  26.081   8.550
 4235POPC   D2A14908  28.339  26.060   8.250
 4235POPC   C3A14909  28.359  26.088   7.950
 4235POPC   C4A14910  28.354  26.038   7.650
 4235POPC   C1B14911  28.181  25.863   8.550
 4235POPC   C2B14912  28.145  25.920   8.250
 4235POPC   C3B14913  28.171  25.858   7.950
 4235POPC   C4B14914  28.193  25.873   7.650
 4236POPC   NC314915  42.358   8.927   9.450
 4236POPC   PO414916  42.298   8.939   9.150
 4236POPC   GL114917  42.373   9.007   8.850
 4236POPC   GL214918  42.386   8.863   8.850
 4236POPC   C1A14919  42.333   8.938   8.550
 4236POPC   D2A14920  42.309   9.002   8.250
 4236POPC   C3A14921  42.286   8.985   7.950
 4236POPC   C4A14922  42.350   8.965   7.650
 4236POPC   C1B14923  42.485   8.720   8.550
 4236POPC   C2B14924  42.475   8.772   8.250
 4236POPC   C3B14925  42.435   8.728   7.950
 4236POPC   C4B14926  42.511   8.710   7.650
 4237POPC   NC314927  24.459  39.268   9.450
 4237POPC   PO414928  24.531  39.241   9.150
 4237POPC   GL114929  24.535  39.246   8.850
 4237POPC   GL214930  24.579  39.254   8.850
 4237POPC   C1A14931  24.446  39.240   8.550
 4237POPC   D2A14932  24.495  39.259   8.250
 4237POPC   C3A14933  24.525  39.225   7.950
 4237POPC   C4A14934  24.458  39.248   7.650
 4237POPC   C1B14935  24.659  39.386   8.550
 4237POPC   C2B14936  24.685  39.348   8.250
 4237POPC   C3B14937  24.687  39.321   7.950
 4237POPC   C4B14938  24.734  39.393   7.650
 4238POPC   NC314939   9.738  39.977   9.450
 4238POPC   PO414940   9.730  39.963   9.150
 4238POPC   GL114941   9.741  39.972   8.850
 4238POPC   GL214942   9.786  39.847   8.850
 4238POPC   C1A14943   9.762  40.011   8.550
 4238POPC   D2A14944   9.786  39.959   8.250
 4238POPC   C3A14945   9.752  40.002   7.950
 4238POPC   C4A14946   9.745  40.020   7.650
 4238POPC   C1B14947   9.874  39.746   8.550
 4238POPC   C2B14948   9.862  39.726   8.250
 4238POPC   C3B14949   9.875  39.776   7.950
 4238POPC   C4B14950   9.824  39.783   7.650
 4239POPC   NC314951  35.353   1.949   9.450
 4239POPC   PO414952  35.392   2.023   9.150
 4239POPC   GL114953  35.351   1.981   8.850
 4239POPC   GL214954  35.373   1.922   8.850
 4239POPC   C1A14955  35.364   2.024   8.550
 4239POPC   D2A14956  35.330   1.946   8.250
 4239POPC   C3A14957  35.316   2.015   7.950
 4239POPC   C4A14958  35.306   1.947   7.650
 4239POPC   C1B14959  35.449   1.737   8.550
 4239POPC   C2B14960  35.493   1.726   8.250
 4239POPC   C3B14961  35.449   1.747   7.950
 4239POPC   C4B14962  35.470   1.721   7.650
 4240POPC   NC314963  31.483  15.993   9.450
 4240POPC   PO414964  31.494  15.928   9.150
 4240POPC   GL114965  31.430  15.919   8.850
 4240POPC   GL214966  31.549  15.797   8.850
 4240POPC   C1A14967  31.435  15.961   8.550
 4240POPC   D2A14968  31.519  15.954   8.250
 4240POPC   C3A14969  31.433  15.964   7.950
 4240POPC   C4A14970  31.497  15.988   7.650
 4240POPC   C1B14971  31.522  15.689   8.550
 4240POPC   C2B14972  31.549  15.724   8.250
 4240POPC   C3B14973  31.526  15.747   7.950
 4240POPC   C4B14974  31.562  15.762   7.650
 4241POPC   NC314975  26.799   5.857   9.450
 4241POPC   PO414976  26.842   5.900   9.150
 4241POPC   GL114977  26.824   5.853   8.850
 4241POPC   GL214978  26.954   5.785   8.850
 4241POPC   C1A14979  26.858   5.902   8.550
 4241POPC   D2A14980  26.778   5.902   8.250
 4241POPC   C3A14981  26.803   5.824   7.950
 4241POPC   C4A14982  26.822   5.853   7.650
 4241POPC   C1B14983  26.958   5.683   8.550
 4241POPC   C2B14984  27.016   5.700   8.250
 4241POPC   C3B14985  26.956   5.668   7.950
 4241POPC   C4B14986  26.952   5.729   7.650
 4242POPC   NC314987  13.628  40.050   9.450
 4242POPC   PO414988  13.609  39.972   9.150
 4242POPC   GL114989  13.585  40.027   8.850
 4242POPC   GL214990  13.488  40.036   8.850
 4242POPC   C1A14991  13.606  40.002   8.550
 4242POPC   D2A14992  13.605  40.022   8.250
 4242POPC   C3A14993  13.642  39.969   7.950
 4242POPC   C4A14994  13.582  40.043   7.650
 4242POPC   C1B14995  13.343  39.971   8.550
 4242POPC   C2B14996  13.416  39.982   8.250
 4242POPC   C3B14997  13.402  39.985   7.950
 4242POPC   C4B14998  13.353  39.961   7.650
 4243POPC   NC314999  35.393  24.455   9.450
 4243POPC   PO415000  35.372  24.466   9.150
 4243POPC   GL115001  35.379  24.504   8.850
 4243POPC   GL215002  35.468  24.493   8.850
 4243POPC   C1A15003  35.378  24.488   8.550
 4243POPC   D2A15004  35.337  24.532   8.250
 4243POPC   C3A15005  35.346  24.483   7.950
 4243POPC   C4A15006  35.303  24.460   7.650
 4243POPC   C1B15007  35.617  24.421   8.550
 4243POPC   C2B15008  35.594  24.497   8.250
 4243POPC   C3B15009  35.596  24.459   7.950
 4243POPC   C4B15010  35.568  24.467   7.650
 4244POPC   NC315011  39.186   3.552   9.450
 4244POPC   PO415012  39.231   3.556   9.150
 4244POPC   GL115013  39.263   3.570   8.850
 4244POPC   GL215014  39.080   3.514   8.850
 4244POPC   C1A15015  39.185   3.493   8.550
 4244POPC   D2A15016  39.265   3.528   8.250
 4244POPC   C3A15017  39.216   3.574   7.950
 4244POPC   C4A15018  39.246   3.579   7.650
 4244POPC   C1B15019  39.039   3.445   8.550
 4244POPC   C2B15020  39.045   3.355   8.250
 4244POPC   C3B15021  38.976   3.390   7.950
 4244POPC   C4B15022  39.016   3.448   7.650
 4245POPC   NC315023  35.371   3.588   9.450
 4245POPC   PO415024  35.325   3.526   9.150
 4245POPC   GL115025  35.366   3.513   8.850
 4245POPC   GL215026  35.368   3.454   8.850
 4245POPC   C1A15027  35.370   3.525   8.550
 4245POPC   D2A15028  35.376   3.496   8.250
 4245POPC   C3A15029  35.367   3.561   7.950
 4245POPC   C4A15030  35.336   3.538   7.650
 4245POPC   C1B15031  35.419   3.333   8.550
 4245POPC   C2B15032  35.512   3.337   8.250
 4245POPC   C3B15033  35.504   3.293   7.950
 4245POPC   C4B15034  35.502   3.345   7.650
 4246POPC   NC315035  43.880  37.676   9.450
 4246POPC   PO415036  43.881  37.636   9.150
 4246POPC   GL115037  43.867  37.725   8.850
 4246POPC   GL215038  43.866  37.773   8.850
 4246POPC   C1A15039  43.838  37.676   8.550
 4246POPC   D2A15040  43.892  37.646   8.250
 4246POPC   C3A15041  43.867  37.661   7.950
 4246POPC   C4A15042  43.925  37.674   7.650
 4246POPC   C1B15043  43.712  37.843   8.550
 4246POPC   C2B15044  43.708  37.839   8.250
 4246POPC   C3B15045  43.731  37.888   7.950
 4246POPC   C4B15046  43.703  37.898   7.650
 4247POPC   NC315047   6.614  19.835   9.450
 4247POPC   PO415048   6.606  19.790   9.150
 4247POPC   GL115049   6.602  19.828   8.850
 4247POPC   GL215050   6.482  19.909   8.850
 4247POPC   C1A15051   6.632  19.807   8.550
 4247POPC   D2A15052   6.604  19.794   8.250
 4247POPC   C3A15053   6.612  19.866   7.950
 4247POPC   C4A15054   6.617  19.848   7.650
 4247POPC   C1B15055   6.454  19.917   8.550
 4247POPC   C2B15056   6.448  19.890   8.250
 4247POPC   C3B15057   6.363  19.892   7.950
 4247POPC   C4B15058   6.452  19.873   7.650
 4248POPC   NC315059  11.250  13.655   9.450
 4248POPC   PO415060  11.329  13.609   9.150
 4248POPC   GL115061  11.252  13.596   8.850
 4248POPC   GL215062  11.250  13.720   8.850
 4248POPC   C1A15063  11.287  13.650   8.550
 4248POPC   D2A15064  11.261  13.608   8.250
 4248POPC   C3A15065  11.336  13.599   7.950
 4248POPC   C4A15066  11.289  13.598   7.650
 4248POPC   C1B15067  11.215  13.910   8.550
 4248POPC   C2B15068  11.207  13.894   8.250
 4248POPC   C3B15069  11.246  13.840   7.950
 4248POPC   C4B15070  11.167  13.898   7.650
 4249POPC   NC315071  32.230   4.279   9.450
 4249POPC   PO415072  32.212   4.350   9.150
 4249POPC   GL115073  32.204   4.280   8.850
 4249POPC   GL215074  32.410   4.386   8.850
 4249POPC   C1A15075  32.252   4.271   8.550
 4249POPC   D2A15076  32.278   4.328   8.250
 4249POPC   C3A15077  32.219   4.313   7.950
 4249POPC   C4A15078  32.208   4.305   7.650
 4249POPC   C1B15079  32.472   4.377   8.550
 4249POPC   C2B15080  32.530   4.334   8.250
 4249POPC   C3B15081  32.542   4.407   7.950
 4249POPC   C4B15082  32.508   4.372   7.650
 4250POPC   NC315083  11.304  25.285   9.450
 4250POPC   PO415084  11.257  25.228   9.150
 4250POPC   GL115085  11.260  25.265   8.850
 4250POPC   GL215086  11.351  25.195   8.850
 4250POPC   C1A15087  11.349  25.287   8.550
 4250POPC   D2A15088  11.292  25.258   8.250
 4250POPC   C3A15089  11.273  25.256   7.950
 4250POPC   C4A15090  11.335  25.280   7.650
 4250POPC   C1B15091  11.479  25.039   8.550
 4250POPC   C2B15092  11.464  25.007   8.250
 4250POPC   C3B15093  11.414  25.069   7.950
 4250POPC   C4B15094  11.426  25.072   7.650
 4251POPC   NC315095  38.485  19.048   9.450
 4251POPC   PO415096  38.416  19.027   9.150
 4251POPC   GL115097  38.436  19.074   8.850
 4251POPC   GL215098  38.535  18.959   8.850
 4251POPC   C1A15099  38.405  19.072   8.550
 4251POPC   D2A15100  38.459  19.100   8.250
 4251POPC   C3A15101  38.440  19.046   7.950
 4251POPC   C4A15102  38.424  19.103   7.650
 4251POPC   C1B15103  38.629  18.834   8.550
 4251POPC   C2B15104  38.584  18.885   8.250
 4251POPC   C3B15105  38.640  18.872   7.950
 4251POPC   C4B15106  38.633  18.872   7.650
 4252POPC   NC315107  36.931  26.072   9.450
 4252POPC   PO415108  36.921  26.067   9.150
 4252POPC   GL115109  36.891  26.059   8.850
 4252POPC   GL215110  36.815  26.063   8.850
 4252POPC   C1A15111  36.919  26.027   8.550
 4252POPC   D2A15112  36.885  26.046   8.250
 4252POPC   C3A15113  36.854  26.024   7.950
 4252POPC   C4A15114  36.877  26.043   7.650
 4252POPC   C1B15115  36.652  26.044   8.550
 4252POPC   C2B15116  36.670  26.051   8.250
 4252POPC   C3B15117  36.607  26.103   7.950
 4252POPC   C4B15118  36.669  26.096   7.650
 4253POPC   NC315119  22.987   6.641   9.450
 4253POPC   PO415120  22.941   6.661   9.150
 4253POPC   GL115121  22.947   6.613   8.850
 4253POPC   GL215122  23.074   6.619   8.850
 4253POPC   C1A15123  22.961   6.632   8.550
 4253POPC   D2A15124  22.890   6.661   8.250
 4253POPC   C3A15125  22.954   6.635   7.950
 4253POPC   C4A15126  22.914   6.688   7.650
 4253POPC   C1B15127  23.196   6.600   8.550
 4253POPC   C2B15128  23.192   6.641   8.250
 4253POPC   C3B15129  23.236   6.638   7.950
 4253POPC   C4B15130  23.231   6.601   7.650
 4254POPC   NC315131  12.068  34.561   9.450
 4254POPC   PO415132  12.100  34.583   9.150
 4254POPC   GL115133  12.121  34.582   8.850
 4254POPC   GL215134  12.050  34.691   8.850
 4254POPC   C1A15135  12.056  34.544   8.550
 4254POPC   D2A15136  12.048  34.544   8.250
 4254POPC   C3A15137  12.109  34.549   7.950
 4254POPC   C4A15138  12.056  34.589   7.650
 4254POPC   C1B15139  12.013  34.862   8.550
 4254POPC   C2B15140  12.056  34.854   8.250
 4254POPC   C3B15141  11.995  34.808   7.950
 4254POPC   C4B15142  12.033  34.772   7.650
 4255POPC   NC315143  11.263  20.587   9.450
 4255POPC   PO415144  11.321  20.564   9.150
 4255POPC   GL115145  11.268  20.578   8.850
 4255POPC   GL215146  11.417  20.570   8.850
 4255POPC   C1A15147  11.292  20.604   8.550
 4255POPC   D2A15148  11.254  20.625   8.250
 4255POPC   C3A15149  11.308  20.634   7.950
 4255POPC   C4A15150  11.309  20.561   7.650
 4255POPC   C1B15151  11.534  20.553   8.550
 4255POPC   C2B15152  11.562  20.559   8.250
 4255POPC   C3B15153  11.532  20.563   7.950
 4255POPC   C4B15154  11.580  20.598   7.650
 4256POPC   NC315155  36.161  11.315   9.450
 4256POPC   PO415156  36.171  11.348   9.150
 4256POPC   GL115157  36.133  11.296   8.850
 4256POPC   GL215158  36.077  11.369   8.850
 4256POPC   C1A15159  36.116  11.321   8.550
 4256POPC   D2A15160  36.149  11.287   8.250
 4256POPC   C3A15161  36.138  11.252   7.950
 4256POPC   C4A15162  36.112  11.308   7.650
 4256POPC   C1B15163  35.960  11.521   8.550
 4256POPC   C2B15164  35.953  11.486   8.250
 4256POPC   C3B15165  35.966  11.517   7.950
 4256POPC   C4B15166  35.944  11.484   7.650
 4257POPC   NC315167   5.908  22.154   9.450
 4257POPC   PO415168   5.895  22.146   9.150
 4257POPC   GL115169   5.900  22.193   8.850
 4257POPC   GL215170   5.835  22.087   8.850
 4257POPC   C1A15171   5.851  22.118   8.550
 4257POPC   D2A15172   5.893  22.125   8.250
 4257POPC   C3A15173   5.916  22.129   7.950
 4257POPC   C4A15174   5.914  22.211   7.650
 4257POPC   C1B15175   5.808  21.932   8.550
 4257POPC   C2B15176   5.895  21.893   8.250
 4257POPC   C3B15177   5.820  21.879   7.950
 4257POPC   C4B15178   5.873  21.888   7.650
 4258POPC   NC315179  24.505   4.295   9.450
 4258POPC   PO415180  24.453   4.360   9.150
 4258POPC   GL115181  24.455   4.284   8.850
 4258POPC   GL215182  24.497   4.194   8.850
 4258POPC   C1A15183  24.534   4.325   8.550
 4258POPC   D2A15184  24.504   4.367   8.250
 4258POPC   C3A15185  24.451   4.306   7.950
 4258POPC   C4A15186  24.508   4.321   7.650
 4258POPC   C1B15187  24.616   4.134   8.550
 4258POPC   C2B15188  24.595   4.103   8.250
 4258POPC   C3B15189  24.613   4.123   7.950
 4258POPC   C4B15190  24.618   4.118   7.650
 4259POPC   NC315191  33.783  28.361   9.450
 4259POPC   PO415192  33.755  28.398   9.150
 4259POPC   GL115193  33.750  28.334   8.850
 4259POPC   GL215194  33.694  28.328   8.850
 4259POPC   C1A15195  33.759  28.384   8.550
 4259POPC   D2A15196  33.768  28.337   8.250
 4259POPC   C3A15197  33.764  28.331   7.950
 4259POPC   C4A15198  33.767  28.354   7.650
 4259POPC   C1B15199  33.552  28.266   8.550
 4259POPC   C2B15200  33.581  28.301   8.250
 4259POPC   C3B15201  33.580  28.247   7.950
 4259POPC   C4B15202  33.581  28.293   7.650
 4260POPC   NC315203  39.267  42.305   9.450
 4260POPC   PO415204  39.213  42.343   9.150
 4260POPC   GL115205  39.266  42.323   8.850
 4260POPC   GL215206  39.132  42.366   8.850
 4260POPC   C1A15207  39.238  42.338   8.550
 4260POPC   D2A15208  39.278  42.324   8.250
 4260POPC   C3A15209  39.259  42.370   7.950
 4260POPC   C4A15210  39.233  42.312   7.650
 4260POPC   C1B15211  39.026  42.431   8.550
 4260POPC   C2B15212  38.984  42.438   8.250
 4260POPC   C3B15213  39.022  42.512   7.950
 4260POPC   C4B15214  39.023  42.505   7.650
 4261POPC   NC315215   0.464  40.784   9.450
 4261POPC   PO415216   0.474  40.812   9.150
 4261POPC   GL115217   0.421  40.767   8.850
 4261POPC   GL215218   0.452  40.675   8.850
 4261POPC   C1A15219   0.417  40.799   8.550
 4261POPC   D2A15220   0.472  40.803   8.250
 4261POPC   C3A15221   0.459  40.804   7.950
 4261POPC   C4A15222   0.446  40.825   7.650
 4261POPC   C1B15223   0.533  40.549   8.550
 4261POPC   C2B15224   0.520  40.527   8.250
 4261POPC   C3B15225   0.479  40.505   7.950
 4261POPC   C4B15226   0.505  40.569   7.650
 4262POPC   NC315227  12.083  12.856   9.450
 4262POPC   PO415228  12.031  12.869   9.150
 4262POPC   GL115229  12.090  12.805   8.850
 4262POPC   GL215230  12.184  12.808   8.850
 4262POPC   C1A15231  12.097  12.889   8.550
 4262POPC   D2A15232  12.097  12.893   8.250
 4262POPC   C3A15233  12.051  12.884   7.950
 4262POPC   C4A15234  12.054  12.892   7.650
 4262POPC   C1B15235  12.283  12.855   8.550
 4262POPC   C2B15236  12.308  12.792   8.250
 4262POPC   C3B15237  12.274  12.846   7.950
 4262POPC   C4B15238  12.287  12.816   7.650
 4263POPC   NC315239  43.114  32.230   9.450
 4263POPC   PO415240  43.088  32.296   9.150
 4263POPC   GL115241  43.062  32.247   8.850
 4263POPC   GL215242  43.179  32.235   8.850
 4263POPC   C1A15243  43.110  32.230   8.550
 4263POPC   D2A15244  43.121  32.232   8.250
 4263POPC   C3A15245  43.109  32.218   7.950
 4263POPC   C4A15246  43.126  32.249   7.650
 4263POPC   C1B15247  43.377  32.123   8.550
 4263POPC   C2B15248  43.329  32.177   8.250
 4263POPC   C3B15249  43.341  32.153   7.950
 4263POPC   C4B15250  43.312  32.166   7.650
 4264POPC   NC315251  19.881  36.156   9.450
 4264POPC   PO415252  19.869  36.154   9.150
 4264POPC   GL115253  19.875  36.128   8.850
 4264POPC   GL215254  19.756  36.165   8.850
 4264POPC   C1A15255  19.793  36.163   8.550
 4264POPC   D2A15256  19.879  36.148   8.250
 4264POPC   C3A15257  19.795  36.128   7.950
 4264POPC   C4A15258  19.843  36.151   7.650
 4264POPC   C1B15259  19.600  36.121   8.550
 4264POPC   C2B15260  19.615  36.118   8.250
 4264POPC   C3B15261  19.592  36.191   7.950
 4264POPC   C4B15262  19.561  36.163   7.650
 4265POPC   NC315263  39.261  29.877   9.450
 4265POPC   PO415264  39.254  29.901   9.150
 4265POPC   GL115265  39.217  29.943   8.850
 4265POPC   GL215266  39.179  29.853   8.850
 4265POPC   C1A15267  39.208  29.944   8.550
 4265POPC   D2A15268  39.225  29.954   8.250
 4265POPC   C3A15269  39.199  29.953   7.950
 4265POPC   C4A15270  39.192  29.884   7.650
 4265POPC   C1B15271  38.986  29.786   8.550
 4265POPC   C2B15272  39.058  29.762   8.250
 4265POPC   C3B15273  39.009  29.819   7.950
 4265POPC   C4B15274  39.053  29.815   7.650
 4266POPC   NC315275  19.815  19.879   9.450
 4266POPC   PO415276  19.800  19.786   9.150
 4266POPC   GL115277  19.809  19.795   8.850
 4266POPC   GL215278  19.935  19.717   8.850
 4266POPC   C1A15279  19.882  19.797   8.550
 4266POPC   D2A15280  19.787  19.798   8.250
 4266POPC   C3A15281  19.799  19.849   7.950
 4266POPC   C4A15282  19.833  19.880   7.650
 4266POPC   C1B15283  19.944  19.649   8.550
 4266POPC   C2B15284  20.014  19.673   8.250
 4266POPC   C3B15285  19.945  19.663   7.950
 4266POPC   C4B15286  19.945  19.605   7.650
 4267POPC   NC315287  32.263  19.103   9.450
 4267POPC   PO415288  32.295  19.061   9.150
 4267POPC   GL115289  32.235  19.085   8.850
 4267POPC   GL215290  32.312  19.114   8.850
 4267POPC   C1A15291  32.274  19.010   8.550
 4267POPC   D2A15292  32.213  19.089   8.250
 4267POPC   C3A15293  32.290  19.014   7.950
 4267POPC   C4A15294  32.288  19.054   7.650
 4267POPC   C1B15295  32.500  19.136   8.550
 4267POPC   C2B15296  32.475  19.211   8.250
 4267POPC   C3B15297  32.436  19.210   7.950
 4267POPC   C4B15298  32.488  19.169   7.650
 4268POPC   NC315299  44.694  26.007   9.450
 4268POPC   PO415300  44.695  26.044   9.150
 4268POPC   GL115301  44.642  26.022   8.850
 4268POPC   GL215302  44.569  25.914   8.850
 4268POPC   C1A15303  44.617  26.065   8.550
 4268POPC   D2A15304  44.676  26.082   8.250
 4268POPC   C3A15305  44.644  26.068   7.950
 4268POPC   C4A15306  44.705  26.090   7.650
 4268POPC   C1B15307  44.561  25.818   8.550
 4268POPC   C2B15308  44.498  25.861   8.250
 4268POPC   C3B15309  44.478  25.847   7.950
 4268POPC   C4B15310  44.542  25.857   7.650
 4269POPC   NC315311   5.098   9.748   9.450
 4269POPC   PO415312   5.092   9.731   9.150
 4269POPC   GL115313   5.044   9.737   8.850
 4269POPC   GL215314   5.096   9.844   8.850
 4269POPC   C1A15315   5.084   9.709   8.550
 4269POPC   D2A15316   5.102   9.706   8.250
 4269POPC   C3A15317   5.130   9.717   7.950
 4269POPC   C4A15318   5.100   9.730   7.650
 4269POPC   C1B15319   5.181   9.952   8.550
 4269POPC   C2B15320   5.126   9.952   8.250
 4269POPC   C3B15321   5.156   9.947   7.950
 4269POPC   C4B15322   5.186   9.947   7.650
 4270POPC   NC315323  22.902  12.036   9.450
 4270POPC   PO415324  22.929  12.092   9.150
 4270POPC   GL115325  22.975  12.074   8.850
 4270POPC   GL215326  23.067  12.086   8.850
 4270POPC   C1A15327  22.928  12.073   8.550
 4270POPC   D2A15328  22.959  12.122   8.250
 4270POPC   C3A15329  22.957  12.096   7.950
 4270POPC   C4A15330  22.968  12.105   7.650
 4270POPC   C1B15331  23.195  12.132   8.550
 4270POPC   C2B15332  23.183  12.133   8.250
 4270POPC   C3B15333  23.230  12.163   7.950
 4270POPC   C4B15334  23.201  12.122   7.650
 4271POPC   NC315335  27.618  24.445   9.450
 4271POPC   PO415336  27.619  24.482   9.150
 4271POPC   GL115337  27.609  24.505   8.850
 4271POPC   GL215338  27.427  24.412   8.850
 4271POPC   C1A15339  27.591  24.441   8.550
 4271POPC   D2A15340  27.611  24.477   8.250
 4271POPC   C3A15341  27.610  24.511   7.950
 4271POPC   C4A15342  27.621  24.457   7.650
 4271POPC   C1B15343  27.325  24.409   8.550
 4271POPC   C2B15344  27.392  24.438   8.250
 4271POPC   C3B15345  27.371  24.424   7.950
 4271POPC   C4B15346  27.346  24.400   7.650
 4272POPC   NC315347  38.448  18.331   9.450
 4272POPC   PO415348  38.473  18.278   9.150
 4272POPC   GL115349  38.473  18.271   8.850
 4272POPC   GL215350  38.584  18.222   8.850
 4272POPC   C1A15351  38.425  18.281   8.550
 4272POPC   D2A15352  38.414  18.318   8.250
 4272POPC   C3A15353  38.504  18.241   7.950
 4272POPC   C4A15354  38.410  18.245   7.650
 4272POPC   C1B15355  38.597  18.110   8.550
 4272POPC   C2B15356  38.674  18.067   8.250
 4272POPC   C3B15357  38.636  18.107   7.950
 4272POPC   C4B15358  38.615  18.141   7.650
 4273POPC   NC315359   8.994  41.550   9.450
 4273POPC   PO415360   9.011  41.560   9.150
 4273POPC   GL115361   8.991  41.595   8.850
 4273POPC   GL215362   9.073  41.418   8.850
 4273POPC   C1A15363   8.948  41.585   8.550
 4273POPC   D2A15364   9.016  41.573   8.250
 4273POPC   C3A15365   8.970  41.509   7.950
 4273POPC   C4A15366   9.019  41.607   7.650
 4273POPC   C1B15367   9.066  41.334   8.550
 4273POPC   C2B15368   9.079  41.290   8.250
 4273POPC   C3B15369   9.055  41.339   7.950
 4273POPC   C4B15370   9.038  41.355   7.650
 4274POPC   NC315371  36.091  42.342   9.450
 4274POPC   PO415372  36.122  42.303   9.150
 4274POPC   GL115373  36.112  42.287   8.850
 4274POPC   GL215374  36.162  42.197   8.850
 4274POPC   C1A15375  36.106  42.340   8.550
 4274POPC   D2A15376  36.082  42.373   8.250
 4274POPC   C3A15377  36.108  42.349   7.950
 4274POPC   C4A15378  36.144  42.342   7.650
 4274POPC   C1B15379  36.283  42.112   8.550
 4274POPC   C2B15380  36.225  42.125   8.250
 4274POPC   C3B15381  36.238  42.108   7.950
 4274POPC   C4B15382  36.275  42.096   7.650
 4275POPC   NC315383  25.276  21.344   9.450
 4275POPC   PO415384  25.294  21.381   9.150
 4275POPC   GL115385  25.285  21.353   8.850
 4275POPC   GL215386  25.255  21.465   8.850
 4275POPC   C1A15387  25.225  21.429   8.550
 4275POPC   D2A15388  25.274  21.435   8.250
 4275POPC   C3A15389  25.259  21.337   7.950
 4275POPC   C4A15390  25.252  21.392   7.650
 4275POPC   C1B15391  25.140  21.587   8.550
 4275POPC   C2B15392  25.168  21.580   8.250
 4275POPC   C3B15393  25.200  21.593   7.950
 4275POPC   C4B15394  25.162  21.630   7.650
 4276POPC   NC315395  22.199  23.665   9.450
 4276POPC   PO415396  22.115  23.664   9.150
 4276POPC   GL115397  22.118  23.707   8.850
 4276POPC   GL215398  22.124  23.553   8.850
 4276POPC   C1A15399  22.119  23.678   8.550
 4276POPC   D2A15400  22.167  23.734   8.250
 4276POPC   C3A15401  22.151  23.665   7.950
 4276POPC   C4A15402  22.155  23.732   7.650
 4276POPC   C1B15403  22.153  23.426   8.550
 4276POPC   C2B15404  22.089  23.460   8.250
 4276POPC   C3B15405  22.104  23.455   7.950
 4276POPC   C4B15406  22.115  23.509   7.650
 4277POPC   NC315407  10.550  43.910   9.450
 4277POPC   PO415408  10.507  43.901   9.150
 4277POPC   GL115409  10.568  43.921   8.850
 4277POPC   GL215410  10.507  43.784   8.850
 4277POPC   C1A15411  10.482  43.891   8.550
 4277POPC   D2A15412  10.520  43.920   8.250
 4277POPC   C3A15413  10.546  43.850   7.950
 4277POPC   C4A15414  10.524  43.873   7.650
 4277POPC   C1B15415  10.481  43.687   8.550
 4277POPC   C2B15416  10.472  43.609   8.250
 4277POPC   C3B15417  10.444  43.641   7.950
 4277POPC   C4B15418  10.444  43.615   7.650
 4278POPC   NC315419  35.396  16.751   9.450
 4278POPC   PO415420  35.386  16.705   9.150
 4278POPC   GL115421  35.352  16.686   8.850
 4278POPC   GL215422  35.213  16.701   8.850
 4278POPC   C1A15423  35.361  16.740   8.550
 4278POPC   D2A15424  35.386  16.723   8.250
 4278POPC   C3A15425  35.335  16.693   7.950
 4278POPC   C4A15426  35.370  16.759   7.650
 4278POPC   C1B15427  35.189  16.596   8.550
 4278POPC   C2B15428  35.126  16.547   8.250
 4278POPC   C3B15429  35.193  16.551   7.950
 4278POPC   C4B15430  35.181  16.565   7.650
 4279POPC   NC315431  44.699   8.196   9.450
 4279POPC   PO415432  44.629   8.196   9.150
 4279POPC   GL115433  44.653   8.245   8.850
 4279POPC   GL215434  44.560   8.217   8.850
 4279POPC   C1A15435  44.678   8.244   8.550
 4279POPC   D2A15436  44.632   8.220   8.250
 4279POPC   C3A15437  44.701   8.206   7.950
 4279POPC   C4A15438  44.646   8.164   7.650
 4279POPC   C1B15439  44.420   8.209   8.550
 4279POPC   C2B15440  44.418   8.239   8.250
 4279POPC   C3B15441  44.419   8.222   7.950
 4279POPC   C4B15442  44.419   8.234   7.650
 4280POPC   NC315443  14.423  24.517   9.450
 4280POPC   PO415444  14.354  24.440   9.150
 4280POPC   GL115445  14.443  24.489   8.850
 4280POPC   GL215446  14.358  24.339   8.850
 4280POPC   C1A15447  14.447  24.455   8.550
 4280POPC   D2A15448  14.452  24.535   8.250
 4280POPC   C3A15449  14.435  24.520   7.950
 4280POPC   C4A15450  14.444  24.471   7.650
 4280POPC   C1B15451  14.290  24.229   8.550
 4280POPC   C2B15452  14.290  24.216   8.250
 4280POPC   C3B15453  14.277  24.252   7.950
 4280POPC   C4B15454  14.337  24.242   7.650
 4281POPC   NC315455  29.892   2.754   9.450
 4281POPC   PO415456  29.904   2.735   9.150
 4281POPC   GL115457  29.963   2.799   8.850
 4281POPC   GL215458  30.003   2.893   8.850
 4281POPC   C1A15459  29.918   2.777   8.550
 4281POPC   D2A15460  29.933   2.738   8.250
 4281POPC   C3A15461  29.879   2.774   7.950
 4281POPC   C4A15462  29.964   2.735   7.650
 4281POPC   C1B15463  30.111   2.957   8.550
 4281POPC   C2B15464  30.068   2.988   8.250
 4281POPC   C3B15465  30.049   2.964   7.950
 4281POPC   C4B15466  30.016   2.984   7.650
 4282POPC   NC315467  32.204   9.702   9.450
 4282POPC   PO415468  32.295   9.758   9.150
 4282POPC   GL115469  32.210   9.737   8.850
 4282POPC   GL215470  32.300   9.842   8.850
 4282POPC   C1A15471  32.251   9.782   8.550
 4282POPC   D2A15472  32.243   9.778   8.250
 4282POPC   C3A15473  32.261   9.729   7.950
 4282POPC   C4A15474  32.239   9.748   7.650
 4282POPC   C1B15475  32.359   9.959   8.550
 4282POPC   C2B15476  32.335  10.008   8.250
 4282POPC   C3B15477  32.395  10.024   7.950
 4282POPC   C4B15478  32.394   9.960   7.650
 4283POPC   NC315479   9.021  23.684   9.450
 4283POPC   PO415480   8.950  23.726   9.150
 4283POPC   GL115481   9.011  23.741   8.850
 4283POPC   GL215482   8.874  23.629   8.850
 4283POPC   C1A15483   8.958  23.665   8.550
 4283POPC   D2A15484   9.010  23.712   8.250
 4283POPC   C3A15485   9.001  23.729   7.950
 4283POPC   C4A15486   8.977  23.753   7.650
 4283POPC   C1B15487   8.700  23.670   8.550
 4283POPC   C2B15488   8.734  23.616   8.250
 4283POPC   C3B15489   8.773  23.623   7.950
 4283POPC   C4B15490   8.742  23.608   7.650
 4284POPC   NC315491  34.563  32.246   9.450
 4284POPC   PO415492  34.561  32.277   9.150
 4284POPC   GL115493  34.579  32.285   8.850
 4284POPC   GL215494  34.720  32.272   8.850
 4284POPC   C1A15495  34.611  32.243   8.550
 4284POPC   D2A15496  34.615  32.221   8.250
 4284POPC   C3A15497  34.561  32.244   7.950
 4284POPC   C4A15498  34.604  32.262   7.650
 4284POPC   C1B15499  34.806  32.286   8.550
 4284POPC   C2B15500  34.778  32.287   8.250
 4284POPC   C3B15501  34.846  32.311   7.950
 4284POPC   C4B15502  34.836  32.342   7.650
 4285POPC   NC315503  29.890  25.254   9.450
 4285POPC   PO415504  29.966  25.272   9.150
 4285POPC   GL115505  29.881  25.236   8.850
 4285POPC   GL215506  30.045  25.148   8.850
 4285POPC   C1A15507  29.939  25.246   8.550
 4285POPC   D2A15508  29.946  25.280   8.250
 4285POPC   C3A15509  29.906  25.270   7.950
 4285POPC   C4A15510  29.962  25.294   7.650
 4285POPC   C1B15511  30.076  25.123   8.550
 4285POPC   C2B15512  30.136  25.136   8.250
 4285POPC   C3B15513  30.072  25.121   7.950
 4285POPC   C4B15514  30.083  25.113   7.650
 4286POPC   NC315515  25.285   5.876   9.450
 4286POPC   PO415516  25.288   5.912   9.150
 4286POPC   GL115517  25.261   5.872   8.850
 4286POPC   GL215518  25.179   5.763   8.850
 4286POPC   C1A15519  25.226   5.833   8.550
 4286POPC   D2A15520  25.249   5.842   8.250
 4286POPC   C3A15521  25.280   5.840   7.950
 4286POPC   C4A15522  25.304   5.912   7.650
 4286POPC   C1B15523  24.998   5.709   8.550
 4286POPC   C2B15524  25.046   5.736   8.250
 4286POPC   C3B15525  25.082   5.746   7.950
 4286POPC   C4B15526  25.065   5.756   7.650
 4287POPC   NC315527  39.270  16.698   9.450
 4287POPC   PO415528  39.193  16.705   9.150
 4287POPC   GL115529  39.222  16.699   8.850
 4287POPC   GL215530  39.142  16.779   8.850
 4287POPC   C1A15531  39.228  16.729   8.550
 4287POPC   D2A15532  39.193  16.777   8.250
 4287POPC   C3A15533  39.248  16.743   7.950
 4287POPC   C4A15534  39.278  16.762   7.650
 4287POPC   C1B15535  39.023  16.954   8.550
 4287POPC   C2B15536  39.054  16.886   8.250
 4287POPC   C3B15537  39.014  16.889   7.950
 4287POPC   C4B15538  39.042  16.929   7.650
 4288POPC   NC315539   8.951  22.161   9.450
 4288POPC   PO415540   8.989  22.180   9.150
 4288POPC   GL115541   8.961  22.188   8.850
 4288POPC   GL215542   8.888  22.081   8.850
 4288POPC   C1A15543   8.983  22.179   8.550
 4288POPC   D2A15544   8.975  22.150   8.250
 4288POPC   C3A15545   8.997  22.126   7.950
 4288POPC   C4A15546   8.975  22.136   7.650
 4288POPC   C1B15547   8.781  22.073   8.550
 4288POPC   C2B15548   8.750  22.039   8.250
 4288POPC   C3B15549   8.798  22.076   7.950
 4288POPC   C4B15550   8.745  22.055   7.650
 4289POPC   NC315551  36.086   3.525   9.450
 4289POPC   PO415552  36.100   3.520   9.150
 4289POPC   GL115553  36.099   3.556   8.850
 4289POPC   GL215554  35.980   3.571   8.850
 4289POPC   C1A15555  36.177   3.519   8.550
 4289POPC   D2A15556  36.124   3.510   8.250
 4289POPC   C3A15557  36.174   3.544   7.950
 4289POPC   C4A15558  36.165   3.507   7.650
 4289POPC   C1B15559  35.921   3.552   8.550
 4289POPC   C2B15560  35.882   3.543   8.250
 4289POPC   C3B15561  35.902   3.622   7.950
 4289POPC   C4B15562  35.835   3.589   7.650
 4290POPC   NC315563   5.082  20.590   9.450
 4290POPC   PO415564   5.059  20.584   9.150
 4290POPC   GL115565   5.044  20.616   8.850
 4290POPC   GL215566   5.083  20.777   8.850
 4290POPC   C1A15567   5.108  20.645   8.550
 4290POPC   D2A15568   5.060  20.640   8.250
 4290POPC   C3A15569   5.107  20.651   7.950
 4290POPC   C4A15570   5.050  20.610   7.650
 4290POPC   C1B15571   5.063  20.864   8.550
 4290POPC   C2B15572   5.056  20.833   8.250
 4290POPC   C3B15573   5.034  20.877   7.950
 4290POPC   C4B15574   5.089  20.810   7.650
 4291POPC   NC315575  32.250  41.538   9.450
 4291POPC   PO415576  32.288  41.580   9.150
 4291POPC   GL115577  32.202  41.588   8.850
 4291POPC   GL215578  32.404  41.522   8.850
 4291POPC   C1A15579  32.280  41.584   8.550
 4291POPC   D2A15580  32.275  41.529   8.250
 4291POPC   C3A15581  32.222  41.604   7.950
 4291POPC   C4A15582  32.272  41.555   7.650
 4291POPC   C1B15583  32.455  41.411   8.550
 4291POPC   C2B15584  32.425  41.423   8.250
 4291POPC   C3B15585  32.479  41.435   7.950
 4291POPC   C4B15586  32.493  41.469   7.650
 4292POPC   NC315587  29.174  29.167   9.450
 4292POPC   PO415588  29.156  29.095   9.150
 4292POPC   GL115589  29.163  29.162   8.850
 4292POPC   GL215590  29.158  28.978   8.850
 4292POPC   C1A15591  29.170  29.154   8.550
 4292POPC   D2A15592  29.124  29.104   8.250
 4292POPC   C3A15593  29.123  29.104   7.950
 4292POPC   C4A15594  29.152  29.182   7.650
 4292POPC   C1B15595  29.165  28.922   8.550
 4292POPC   C2B15596  29.153  28.926   8.250
 4292POPC   C3B15597  29.145  28.884   7.950
 4292POPC   C4B15598  29.100  28.884   7.650
 4293POPC   NC315599   4.310   1.165   9.450
 4293POPC   PO415600   4.352   1.240   9.150
 4293POPC   GL115601   4.309   1.174   8.850
 4293POPC   GL215602   4.418   1.235   8.850
 4293POPC   C1A15603   4.326   1.251   8.550
 4293POPC   D2A15604   4.315   1.208   8.250
 4293POPC   C3A15605   4.333   1.256   7.950
 4293POPC   C4A15606   4.273   1.224   7.650
 4293POPC   C1B15607   4.519   1.256   8.550
 4293POPC   C2B15608   4.575   1.243   8.250
 4293POPC   C3B15609   4.536   1.318   7.950
 4293POPC   C4B15610   4.598   1.339   7.650
 4294POPC   NC315611   5.094  27.588   9.450
 4294POPC   PO415612   5.101  27.626   9.150
 4294POPC   GL115613   5.124  27.615   8.850
 4294POPC   GL215614   4.986  27.533   8.850
 4294POPC   C1A15615   5.128  27.551   8.550
 4294POPC   D2A15616   5.126  27.604   8.250
 4294POPC   C3A15617   5.055  27.614   7.950
 4294POPC   C4A15618   5.078  27.607   7.650
 4294POPC   C1B15619   4.824  27.496   8.550
 4294POPC   C2B15620   4.885  27.465   8.250
 4294POPC   C3B15621   4.817  27.509   7.950
 4294POPC   C4B15622   4.907  27.543   7.650
 4295POPC   NC315623  36.171  14.374   9.450
 4295POPC   PO415624  36.139  14.399   9.150
 4295POPC   GL115625  36.088  14.437   8.850
 4295POPC   GL215626  36.162  14.234   8.850
 4295POPC   C1A15627  36.157  14.381   8.550
 4295POPC   D2A15628  36.078  14.444   8.250
 4295POPC   C3A15629  36.094  14.447   7.950
 4295POPC   C4A15630  36.105  14.433   7.650
 4295POPC   C1B15631  36.147  14.114   8.550
 4295POPC   C2B15632  36.183  14.143   8.250
 4295POPC   C3B15633  36.128  14.119   7.950
 4295POPC   C4B15634  36.110  14.159   7.650
 4296POPC   NC315635   1.943  40.772   9.450
 4296POPC   PO415636   2.006  40.738   9.150
 4296POPC   GL115637   2.000  40.757   8.850
 4296POPC   GL215638   2.052  40.867   8.850
 4296POPC   C1A15639   1.980  40.744   8.550
 4296POPC   D2A15640   1.969  40.810   8.250
 4296POPC   C3A15641   1.985  40.779   7.950
 4296POPC   C4A15642   1.964  40.804   7.650
 4296POPC   C1B15643   2.128  40.992   8.550
 4296POPC   C2B15644   2.163  40.970   8.250
 4296POPC   C3B15645   2.120  40.944   7.950
 4296POPC   C4B15646   2.152  41.034   7.650
 4297POPC   NC315647  15.922   2.760   9.450
 4297POPC   PO415648  15.961   2.720   9.150
 4297POPC   GL115649  15.958   2.737   8.850
 4297POPC   GL215650  15.869   2.772   8.850
 4297POPC   C1A15651  15.978   2.786   8.550
 4297POPC   D2A15652  15.925   2.732   8.250
 4297POPC   C3A15653  15.975   2.741   7.950
 4297POPC   C4A15654  15.912   2.719   7.650
 4297POPC   C1B15655  15.689   2.736   8.550
 4297POPC   C2B15656  15.738   2.701   8.250
 4297POPC   C3B15657  15.667   2.751   7.950
 4297POPC   C4B15658  15.752   2.682   7.650
 4298POPC   NC315659  22.201   0.457   9.450
 4298POPC   PO415660  22.157   0.406   9.150
 4298POPC   GL115661  22.170   0.440   8.850
 4298POPC   GL215662  22.130   0.298   8.850
 4298POPC   C1A15663  22.197   0.392   8.550
 4298POPC   D2A15664  22.175   0.483   8.250
 4298POPC   C3A15665  22.201   0.406   7.950
 4298POPC   C4A15666  22.128   0.406   7.650
 4298POPC   C1B15667  22.132   0.205   8.550
 4298POPC   C2B15668  22.092   0.166   8.250
 4298POPC   C3B15669  22.148   0.211   7.950
 4298POPC   C4B15670  22.066   0.236   7.650
 4299POPC   NC315671  37.665  29.944   9.450
 4299POPC   PO415672  37.666  29.908   9.150
 4299POPC   GL115673  37.698  29.878   8.850
 4299POPC   GL215674  37.585  29.861   8.850
 4299POPC   C1A15675  37.711  29.882   8.550
 4299POPC   D2A15676  37.723  29.926   8.250
 4299POPC   C3A15677  37.728  29.893   7.950
 4299POPC   C4A15678  37.664  29.936   7.650
 4299POPC   C1B15679  37.504  29.743   8.550
 4299POPC   C2B15680  37.481  29.714   8.250
 4299POPC   C3B15681  37.484  29.757   7.950
 4299POPC   C4B15682  37.547  29.761   7.650
 4300POPC   NC315683  17.494   2.035   9.450
 4300POPC   PO415684  17.498   1.986   9.150
 4300POPC   GL115685  17.472   1.968   8.850
 4300POPC   GL215686  17.362   2.073   8.850
 4300POPC   C1A15687  17.540   2.018   8.550
 4300POPC   D2A15688  17.488   1.999   8.250
 4300POPC   C3A15689  17.516   1.987   7.950
 4300POPC   C4A15690  17.509   2.003   7.650
 4300POPC   C1B15691  17.327   2.106   8.550
 4300POPC   C2B15692  17.283   2.158   8.250
 4300POPC   C3B15693  17.306   2.129   7.950
 4300POPC   C4B15694  17.265   2.103   7.650
 4301POPC   NC315695  36.102  23.719   9.450
 4301POPC   PO415696  36.116  23.704   9.150
 4301POPC   GL115697  36.172  23.714   8.850
 4301POPC   GL215698  36.215  23.602   8.850
 4301POPC   C1A15699  36.102  23.727   8.550
 4301POPC   D2A15700  36.135  23.732   8.250
 4301POPC   C3A15701  36.099  23.713   7.950
 4301POPC   C4A15702  36.144  23.743   7.650
 4301POPC   C1B15703  36.287  23.546   8.550
 4301POPC   C2B15704  36.297  23.517   8.250
 4301POPC   C3B15705  36.338  23.527   7.950
 4301POPC   C4B15706  36.268  23.570   7.650
 4302POPC   NC315707  43.144  25.305   9.450
 4302POPC   PO415708  43.098  25.276   9.150
 4302POPC   GL115709  43.121  25.254   8.850
 4302POPC   GL215710  43.049  25.344   8.850
 4302POPC   C1A15711  43.075  25.280   8.550
 4302POPC   D2A15712  43.118  25.286   8.250
 4302POPC   C3A15713  43.086  25.260   7.950
 4302POPC   C4A15714  43.138  25.223   7.650
 4302POPC   C1B15715  43.032  25.529   8.550
 4302POPC   C2B15716  43.067  25.465   8.250
 4302POPC   C3B15717  43.029  25.523   7.950
 4302POPC   C4B15718  43.057  25.518   7.650
 4303POPC   NC315719  33.068  11.321   9.450
 4303POPC   PO415720  33.004  11.329   9.150
 4303POPC   GL115721  33.059  11.296   8.850
 4303POPC   GL215722  33.105  11.336   8.850
 4303POPC   C1A15723  33.017  11.316   8.550
 4303POPC   D2A15724  32.977  11.265   8.250
 4303POPC   C3A15725  33.047  11.304   7.950
 4303POPC   C4A15726  32.991  11.325   7.650
 4303POPC   C1B15727  33.271  11.347   8.550
 4303POPC   C2B15728  33.260  11.344   8.250
 4303POPC   C3B15729  33.276  11.335   7.950
 4303POPC   C4B15730  33.280  11.343   7.650
 4304POPC   NC315731  21.394   1.201   9.450
 4304POPC   PO415732  21.356   1.173   9.150
 4304POPC   GL115733  21.386   1.257   8.850
 4304POPC   GL215734  21.510   1.190   8.850
 4304POPC   C1A15735  21.407   1.228   8.550
 4304POPC   D2A15736  21.382   1.238   8.250
 4304POPC   C3A15737  21.355   1.262   7.950
 4304POPC   C4A15738  21.387   1.170   7.650
 4304POPC   C1B15739  21.596   1.220   8.550
 4304POPC   C2B15740  21.662   1.197   8.250
 4304POPC   C3B15741  21.593   1.158   7.950
 4304POPC   C4B15742  21.667   1.212   7.650
 4305POPC   NC315743  10.527  41.530   9.450
 4305POPC   PO415744  10.552  41.555   9.150
 4305POPC   GL115745  10.475  41.566   8.850
 4305POPC   GL215746  10.391  41.625   8.850
 4305POPC   C1A15747  10.574  41.577   8.550
 4305POPC   D2A15748  10.504  41.551   8.250
 4305POPC   C3A15749  10.503  41.554   7.950
 4305POPC   C4A15750  10.496  41.566   7.650
 4305POPC   C1B15751  10.292  41.716   8.550
 4305POPC   C2B15752  10.371  41.771   8.250
 4305POPC   C3B15753  10.359  41.716   7.950
 4305POPC   C4B15754  10.314  41.698   7.650
 4306POPC   NC315755  27.634  44.699   9.450
 4306POPC   PO415756  27.610  44.632   9.150
 4306POPC   GL115757  27.545  44.633   8.850
 4306POPC   GL215758  27.480  44.732   8.850
 4306POPC   C1A15759  27.590  44.710   8.550
 4306POPC   D2A15760  27.568  44.688   8.250
 4306POPC   C3A15761  27.578  44.620   7.950
 4306POPC   C4A15762  27.558  44.701   7.650
 4306POPC   C1B15763  27.400  44.836   8.550
 4306POPC   C2B15764  27.432  44.834   8.250
 4306POPC   C3B15765  27.467  44.907   7.950
 4306POPC   C4B15766  27.387  44.873   7.650
 4307POPC   NC315767   1.962  24.509   9.450
 4307POPC   PO415768   2.032  24.510   9.150
 4307POPC   GL115769   1.942  24.496   8.850
 4307POPC   GL215770   1.962  24.386   8.850
 4307POPC   C1A15771   1.955  24.502   8.550
 4307POPC   D2A15772   1.950  24.508   8.250
 4307POPC   C3A15773   2.018  24.499   7.950
 4307POPC   C4A15774   2.003  24.533   7.650
 4307POPC   C1B15775   1.891  24.227   8.550
 4307POPC   C2B15776   1.944  24.247   8.250
 4307POPC   C3B15777   1.916  24.287   7.950
 4307POPC   C4B15778   1.896  24.229   7.650
 4308POPC   NC315779   9.700   7.457   9.450
 4308POPC   PO415780   9.791   7.447   9.150
 4308POPC   GL115781   9.786   7.389   8.850
 4308POPC   GL215782   9.675   7.547   8.850
 4308POPC   C1A15783   9.720   7.418   8.550
 4308POPC   D2A15784   9.780   7.377   8.250
 4308POPC   C3A15785   9.736   7.461   7.950
 4308POPC   C4A15786   9.724   7.422   7.650
 4308POPC   C1B15787   9.595   7.627   8.550
 4308POPC   C2B15788   9.596   7.612   8.250
 4308POPC   C3B15789   9.627   7.656   7.950
 4308POPC   C4B15790   9.576   7.583   7.650
 4309POPC   NC315791   6.655   3.570   9.450
 4309POPC   PO415792   6.632   3.567   9.150
 4309POPC   GL115793   6.647   3.524   8.850
 4309POPC   GL215794   6.491   3.560   8.850
 4309POPC   C1A15795   6.689   3.591   8.550
 4309POPC   D2A15796   6.623   3.493   8.250
 4309POPC   C3A15797   6.691   3.518   7.950
 4309POPC   C4A15798   6.671   3.563   7.650
 4309POPC   C1B15799   6.406   3.547   8.550
 4309POPC   C2B15800   6.447   3.549   8.250
 4309POPC   C3B15801   6.426   3.582   7.950
 4309POPC   C4B15802   6.411   3.617   7.650
 4310POPC   NC315803  35.309  18.257   9.450
 4310POPC   PO415804  35.359  18.286   9.150
 4310POPC   GL115805  35.326  18.320   8.850
 4310POPC   GL215806  35.405  18.136   8.850
 4310POPC   C1A15807  35.356  18.307   8.550
 4310POPC   D2A15808  35.345  18.304   8.250
 4310POPC   C3A15809  35.399  18.304   7.950
 4310POPC   C4A15810  35.376  18.262   7.650
 4310POPC   C1B15811  35.529  18.111   8.550
 4310POPC   C2B15812  35.521  18.127   8.250
 4310POPC   C3B15813  35.482  18.077   7.950
 4310POPC   C4B15814  35.522  18.073   7.650
 4311POPC   NC315815  38.461   9.746   9.450
 4311POPC   PO415816  38.423   9.704   9.150
 4311POPC   GL115817  38.488   9.757   8.850
 4311POPC   GL215818  38.337   9.822   8.850
 4311POPC   C1A15819  38.466   9.734   8.550
 4311POPC   D2A15820  38.434   9.749   8.250
 4311POPC   C3A15821  38.438   9.710   7.950
 4311POPC   C4A15822  38.424   9.717   7.650
 4311POPC   C1B15823  38.276   9.921   8.550
 4311POPC   C2B15824  38.327   9.977   8.250
 4311POPC   C3B15825  38.298   9.983   7.950
 4311POPC   C4B15826  38.287   9.899   7.650
 4312POPC   NC315827   2.805  14.441   9.450
 4312POPC   PO415828   2.789  14.364   9.150
 4312POPC   GL115829   2.791  14.383   8.850
 4312POPC   GL215830   2.664  14.426   8.850
 4312POPC   C1A15831   2.815  14.424   8.550
 4312POPC   D2A15832   2.774  14.407   8.250
 4312POPC   C3A15833   2.763  14.360   7.950
 4312POPC   C4A15834   2.739  14.386   7.650
 4312POPC   C1B15835   2.549  14.418   8.550
 4312POPC   C2B15836   2.533  14.410   8.250
 4312POPC   C3B15837   2.489  14.406   7.950
 4312POPC   C4B15838   2.481  14.449   7.650
 4313POPC   NC315839  26.825  19.820   9.450
 4313POPC   PO415840  26.853  19.834   9.150
 4313POPC   GL115841  26.796  19.844   8.850
 4313POPC   GL215842  26.782  19.971   8.850
 4313POPC   C1A15843  26.782  19.838   8.550
 4313POPC   D2A15844  26.866  19.786   8.250
 4313POPC   C3A15845  26.813  19.842   7.950
 4313POPC   C4A15846  26.802  19.857   7.650
 4313POPC   C1B15847  26.793  20.059   8.550
 4313POPC   C2B15848  26.838  20.070   8.250
 4313POPC   C3B15849  26.842  20.036   7.950
 4313POPC   C4B15850  26.826  20.114   7.650
 4314POPC   NC315851  28.325  20.588   9.450
 4314POPC   PO415852  28.341  20.642   9.150
 4314POPC   GL115853  28.399  20.600   8.850
 4314POPC   GL215854  28.513  20.571   8.850
 4314POPC   C1A15855  28.368  20.652   8.550
 4314POPC   D2A15856  28.340  20.612   8.250
 4314POPC   C3A15857  28.419  20.593   7.950
 4314POPC   C4A15858  28.359  20.605   7.650
 4314POPC   C1B15859  28.560  20.469   8.550
 4314POPC   C2B15860  28.548  20.509   8.250
 4314POPC   C3B15861  28.577  20.466   7.950
 4314POPC   C4B15862  28.541  20.489   7.650
 4315POPC   NC315863  24.530  15.995   9.450
 4315POPC   PO415864  24.487  15.964   9.150
 4315POPC   GL115865  24.532  15.980   8.850
 4315POPC   GL215866  24.565  15.888   8.850
 4315POPC   C1A15867  24.502  16.001   8.550
 4315POPC   D2A15868  24.539  15.975   8.250
 4315POPC   C3A15869  24.454  15.927   7.950
 4315POPC   C4A15870  24.535  15.955   7.650
 4315POPC   C1B15871  24.723  15.800   8.550
 4315POPC   C2B15872  24.698  15.829   8.250
 4315POPC   C3B15873  24.711  15.851   7.950
 4315POPC   C4B15874  24.671  15.877   7.650
 4316POPC   NC315875  31.494   7.372   9.450
 4316POPC   PO415876  31.471   7.397   9.150
 4316POPC   GL115877  31.459   7.376   8.850
 4316POPC   GL215878  31.407   7.462   8.850
 4316POPC   C1A15879  31.448   7.447   8.550
 4316POPC   D2A15880  31.495   7.412   8.250
 4316POPC   C3A15881  31.509   7.440   7.950
 4316POPC   C4A15882  31.463   7.423   7.650
 4316POPC   C1B15883  31.285   7.607   8.550
 4316POPC   C2B15884  31.254   7.533   8.250
 4316POPC   C3B15885  31.307   7.613   7.950
 4316POPC   C4B15886  31.239   7.598   7.650
 4317POPC   NC315887  15.977  26.848   9.450
 4317POPC   PO415888  15.947  26.803   9.150
 4317POPC   GL115889  15.937  26.774   8.850
 4317POPC   GL215890  15.846  26.803   8.850
 4317POPC   C1A15891  15.939  26.856   8.550
 4317POPC   D2A15892  15.965  26.817   8.250
 4317POPC   C3A15893  15.916  26.791   7.950
 4317POPC   C4A15894  15.992  26.846   7.650
 4317POPC   C1B15895  15.715  26.745   8.550
 4317POPC   C2B15896  15.707  26.807   8.250
 4317POPC   C3B15897  15.752  26.803   7.950
 4317POPC   C4B15898  15.663  26.718   7.650
 4318POPC   NC315899   6.600  14.379   9.450
 4318POPC   PO415900   6.631  14.368   9.150
 4318POPC   GL115901   6.624  14.357   8.850
 4318POPC   GL215902   6.556  14.242   8.850
 4318POPC   C1A15903   6.683  14.410   8.550
 4318POPC   D2A15904   6.663  14.429   8.250
 4318POPC   C3A15905   6.645  14.400   7.950
 4318POPC   C4A15906   6.612  14.356   7.650
 4318POPC   C1B15907   6.538  14.166   8.550
 4318POPC   C2B15908   6.534  14.123   8.250
 4318POPC   C3B15909   6.522  14.166   7.950
 4318POPC   C4B15910   6.593  14.193   7.650
 4319POPC   NC315911  19.014  36.156   9.450
 4319POPC   PO415912  19.019  36.173   9.150
 4319POPC   GL115913  19.093  36.155   8.850
 4319POPC   GL215914  19.007  36.000   8.850
 4319POPC   C1A15915  19.055  36.161   8.550
 4319POPC   D2A15916  19.046  36.136   8.250
 4319POPC   C3A15917  19.030  36.157   7.950
 4319POPC   C4A15918  19.074  36.160   7.650
 4319POPC   C1B15919  18.918  35.962   8.550
 4319POPC   C2B15920  18.920  35.949   8.250
 4319POPC   C3B15921  18.926  35.959   7.950
 4319POPC   C4B15922  18.903  35.911   7.650
 4320POPC   NC315923   7.441  13.594   9.450
 4320POPC   PO415924   7.379  13.637   9.150
 4320POPC   GL115925   7.460  13.614   8.850
 4320POPC   GL215926   7.446  13.745   8.850
 4320POPC   C1A15927   7.417  13.669   8.550
 4320POPC   D2A15928   7.403  13.655   8.250
 4320POPC   C3A15929   7.378  13.589   7.950
 4320POPC   C4A15930   7.455  13.652   7.650
 4320POPC   C1B15931   7.467  13.859   8.550
 4320POPC   C2B15932   7.462  13.913   8.250
 4320POPC   C3B15933   7.465  13.873   7.950
 4320POPC   C4B15934   7.441  13.887   7.650
 4321POPC   NC315935  39.250   2.717   9.450
 4321POPC   PO415936  39.216   2.757   9.150
 4321POPC   GL115937  39.189   2.724   8.850
 4321POPC   GL215938  39.229   2.613   8.850
 4321POPC   C1A15939  39.261   2.769   8.550
 4321POPC   D2A15940  39.216   2.730   8.250
 4321POPC   C3A15941  39.247   2.730   7.950
 4321POPC   C4A15942  39.234   2.770   7.650
 4321POPC   C1B15943  39.287   2.523   8.550
 4321POPC   C2B15944  39.292   2.538   8.250
 4321POPC   C3B15945  39.294   2.482   7.950
 4321POPC   C4B15946  39.303   2.475   7.650
 4322POPC   NC315947  12.855  41.555   9.450
 4322POPC   PO415948  12.884  41.537   9.150
 4322POPC   GL115949  12.894  41.592   8.850
 4322POPC   GL215950  12.799  41.668   8.850
 4322POPC   C1A15951  12.854  41.530   8.550
 4322POPC   D2A15952  12.857  41.524   8.250
 4322POPC   C3A15953  12.899  41.543   7.950
 4322POPC   C4A15954  12.829  41.596   7.650
 4322POPC   C1B15955  12.678  41.773   8.550
 4322POPC   C2B15956  12.737  41.762   8.250
 4322POPC   C3B15957  12.683  41.786   7.950
 4322POPC   C4B15958  12.765  41.796   7.650
 4323POPC   NC315959  33.837  21.411   9.450
 4323POPC   PO415960  33.836  21.424   9.150
 4323POPC   GL115961  33.835  21.350   8.850
 4323POPC   GL215962  33.758  21.483   8.850
 4323POPC   C1A15963  33.802  21.356   8.550
 4323POPC   D2A15964  33.796  21.383   8.250
 4323POPC   C3A15965  33.848  21.344   7.950
 4323POPC   C4A15966  33.794  21.403   7.650
 4323POPC   C1B15967  33.612  21.596   8.550
 4323POPC   C2B15968  33.605  21.585   8.250
 4323POPC   C3B15969  33.642  21.608   7.950
 4323POPC   C4B15970  33.639  21.583   7.650
 4324POPC   NC315971  12.889  17.488   9.450
 4324POPC   PO415972  12.807  17.503   9.150
 4324POPC   GL115973  12.898  17.509   8.850
 4324POPC   GL215974  12.680  17.484   8.850
 4324POPC   C1A15975  12.811  17.471   8.550
 4324POPC   D2A15976  12.810  17.498   8.250
 4324POPC   C3A15977  12.829  17.551   7.950
 4324POPC   C4A15978  12.840  17.546   7.650
 4324POPC   C1B15979  12.606  17.527   8.550
 4324POPC   C2B15980  12.560  17.555   8.250
 4324POPC   C3B15981  12.650  17.555   7.950
 4324POPC   C4B15982  12.634  17.531   7.650
 4325POPC   NC315983  26.011  39.234   9.450
 4325POPC   PO415984  26.069  39.201   9.150
 4325POPC   GL115985  26.012  39.263   8.850
 4325POPC   GL215986  26.044  39.344   8.850
 4325POPC   C1A15987  26.017  39.228   8.550
 4325POPC   D2A15988  26.060  39.248   8.250
 4325POPC   C3A15989  26.023  39.248   7.950
 4325POPC   C4A15990  26.008  39.227   7.650
 4325POPC   C1B15991  26.158  39.501   8.550
 4325POPC   C2B15992  26.099  39.484   8.250
 4325POPC   C3B15993  26.138  39.497   7.950
 4325POPC   C4B15994  26.133  39.433   7.650
 4326POPC   NC315995  42.294  29.177   9.450
 4326POPC   PO415996  42.369  29.177   9.150
 4326POPC   GL115997  42.376  29.110   8.850
 4326POPC   GL215998  42.189  29.112   8.850
 4326POPC   C1A15999  42.362  29.110   8.550
 4326POPC   D2A16000  42.324  29.105   8.250
 4326POPC   C3A16001  42.291  29.118   7.950
 4326POPC   C4A16002  42.312  29.195   7.650
 4326POPC   C1B16003  42.097  29.002   8.550
 4326POPC   C2B16004  42.176  29.048   8.250
 4326POPC   C3B16005  42.103  29.009   7.950
 4326POPC   C4B16006  42.113  28.991   7.650
 4327POPC   NC316007  36.905  43.084   9.450
 4327POPC   PO416008  36.868  43.135   9.150
 4327POPC   GL116009  36.872  43.076   8.850
 4327POPC   GL216010  37.008  43.040   8.850
 4327POPC   C1A16011  36.906  43.122   8.550
 4327POPC   D2A16012  36.884  43.155   8.250
 4327POPC   C3A16013  36.904  43.096   7.950
 4327POPC   C4A16014  36.936  43.086   7.650
 4327POPC   C1B16015  37.101  43.034   8.550
 4327POPC   C2B16016  37.158  42.979   8.250
 4327POPC   C3B16017  37.175  43.016   7.950
 4327POPC   C4B16018  37.141  42.992   7.650
 4328POPC   NC316019  11.337  31.508   9.450
 4328POPC   PO416020  11.345  31.463   9.150
 4328POPC   GL116021  11.288  31.469   8.850
 4328POPC   GL216022  11.299  31.347   8.850
 4328POPC   C1A16023  11.275  31.475   8.550
 4328POPC   D2A16024  11.305  31.506   8.250
 4328POPC   C3A16025  11.286  31.490   7.950
 4328POPC   C4A16026  11.270  31.496   7.650
 4328POPC   C1B16027  11.335  31.250   8.550
 4328POPC   C2B16028  11.296  31.224   8.250
 4328POPC   C3B16029  11.297  31.224   7.950
 4328POPC   C4B16030  11.333  31.183   7.650
 4329POPC   NC316031  31.445  15.157   9.450
 4329POPC   PO416032  31.440  15.210   9.150
 4329POPC   GL116033  31.480  15.209   8.850
 4329POPC   GL216034  31.542  15.278   8.850
 4329POPC   C1A16035  31.478  15.133   8.550
 4329POPC   D2A16036  31.449  15.193   8.250
 4329POPC   C3A16037  31.511  15.217   7.950
 4329POPC   C4A16038  31.506  15.198   7.650
 4329POPC   C1B16039  31.698  15.272   8.550
 4329POPC   C2B16040  31.738  15.324   8.250
 4329POPC   C3B16041  31.674  15.298   7.950
 4329POPC   C4B16042  31.669  15.300   7.650
 4330POPC   NC316043  26.819  10.486   9.450
 4330POPC   PO416044  26.846  10.552   9.150
 4330POPC   GL116045  26.788  10.504   8.850
 4330POPC   GL216046  26.690  10.604   8.850
 4330POPC   C1A16047  26.810  10.568   8.550
 4330POPC   D2A16048  26.837  10.568   8.250
 4330POPC   C3A16049  26.864  10.475   7.950
 4330POPC   C4A16050  26.802  10.490   7.650
 4330POPC   C1B16051  26.645  10.700   8.550
 4330POPC   C2B16052  26.638  10.729   8.250
 4330POPC   C3B16053  26.600  10.742   7.950
 4330POPC   C4B16054  26.651  10.752   7.650
 4331POPC   NC316055  14.366  25.250   9.450
 4331POPC   PO416056  14.427  25.306   9.150
 4331POPC   GL116057  14.433  25.230   8.850
 4331POPC   GL216058  14.274  25.375   8.850
 4331POPC   C1A16059  14.359  25.288   8.550
 4331POPC   D2A16060  14.392  25.233   8.250
 4331POPC   C3A16061  14.424  25.222   7.950
 4331POPC   C4A16062  14.370  25.251   7.650
 4331POPC   C1B16063  14.166  25.385   8.550
 4331POPC   C2B16064  14.199  25.419   8.250
 4331POPC   C3B16065  14.195  25.383   7.950
 4331POPC   C4B16066  14.227  25.367   7.650
 4332POPC   NC316067  12.859   4.294   9.450
 4332POPC   PO416068  12.845   4.360   9.150
 4332POPC   GL116069  12.892   4.277   8.850
 4332POPC   GL216070  12.921   4.288   8.850
 4332POPC   C1A16071  12.816   4.293   8.550
 4332POPC   D2A16072  12.888   4.289   8.250
 4332POPC   C3A16073  12.855   4.286   7.950
 4332POPC   C4A16074  12.865   4.268   7.650
 4332POPC   C1B16075  13.098   4.199   8.550
 4332POPC   C2B16076  13.138   4.279   8.250
 4332POPC   C3B16077  13.113   4.230   7.950
 4332POPC   C4B16078  13.055   4.265   7.650
 4333POPC   NC316079   6.596   0.400   9.450
 4333POPC   PO416080   6.662   0.413   9.150
 4333POPC   GL116081   6.607   0.447   8.850
 4333POPC   GL216082   6.719   0.505   8.850
 4333POPC   C1A16083   6.608   0.429   8.550
 4333POPC   D2A16084   6.610   0.417   8.250
 4333POPC   C3A16085   6.695   0.395   7.950
 4333POPC   C4A16086   6.650   0.409   7.650
 4333POPC   C1B16087   6.852   0.535   8.550
 4333POPC   C2B16088   6.843   0.467   8.250
 4333POPC   C3B16089   6.909   0.531   7.950
 4333POPC   C4B16090   6.887   0.529   7.650
 4334POPC   NC316091  39.984  17.525   9.450
 4334POPC   PO416092  40.013  17.527   9.150
 4334POPC   GL116093  39.993  17.557   8.850
 4334POPC   GL216094  39.920  17.503   8.850
 4334POPC   C1A16095  40.055  17.542   8.550
 4334POPC   D2A16096  40.020  17.533   8.250
 4334POPC   C3A16097  40.015  17.533   7.950
 4334POPC   C4A16098  39.982  17.527   7.650
 4334POPC   C1B16099  39.805  17.453   8.550
 4334POPC   C2B16100  39.760  17.427   8.250
 4334POPC   C3B16101  39.741  17.449   7.950
 4334POPC   C4B16102  39.720  17.439   7.650
 4335POPC   NC316103  12.854  40.748   9.450
 4335POPC   PO416104  12.822  40.821   9.150
 4335POPC   GL116105  12.857  40.769   8.850
 4335POPC   GL216106  12.956  40.862   8.850
 4335POPC   C1A16107  12.869  40.751   8.550
 4335POPC   D2A16108  12.831  40.785   8.250
 4335POPC   C3A16109  12.818  40.768   7.950
 4335POPC   C4A16110  12.849  40.819   7.650
 4335POPC   C1B16111  13.095  40.904   8.550
 4335POPC   C2B16112  13.061  40.923   8.250
 4335POPC   C3B16113  13.047  40.888   7.950
 4335POPC   C4B16114  13.062  40.900   7.650
 4336POPC   NC316115   1.262  33.022   9.450
 4336POPC   PO416116   1.172  33.074   9.150
 4336POPC   GL116117   1.256  33.040   8.850
 4336POPC   GL216118   1.276  33.147   8.850
 4336POPC   C1A16119   1.166  33.004   8.550
 4336POPC   D2A16120   1.176  33.051   8.250
 4336POPC   C3A16121   1.207  32.988   7.950
 4336POPC   C4A16122   1.244  33.006   7.650
 4336POPC   C1B16123   1.216  33.277   8.550
 4336POPC   C2B16124   1.212  33.312   8.250
 4336POPC   C3B16125   1.262  33.252   7.950
 4336POPC   C4B16126   1.254  33.247   7.650
 4337POPC   NC316127   3.543  28.337   9.450
 4337POPC   PO416128   3.557  28.339   9.150
 4337POPC   GL116129   3.537  28.392   8.850
 4337POPC   GL216130   3.690  28.373   8.850
 4337POPC   C1A16131   3.513  28.406   8.550
 4337POPC   D2A16132   3.587  28.367   8.250
 4337POPC   C3A16133   3.530  28.414   7.950
 4337POPC   C4A16134   3.530  28.393   7.650
 4337POPC   C1B16135   3.774  28.416   8.550
 4337POPC   C2B16136   3.815  28.370   8.250
 4337POPC   C3B16137   3.806  28.392   7.950
 4337POPC   C4B16138   3.835  28.433   7.650
 4338POPC   NC316139  36.910  14.372   9.450
 4338POPC   PO416140  36.865  14.364   9.150
 4338POPC   GL116141  36.878  14.386   8.850
 4338POPC   GL216142  37.006  14.417   8.850
 4338POPC   C1A16143  36.876  14.443   8.550
 4338POPC   D2A16144  36.907  14.407   8.250
 4338POPC   C3A16145  36.867  14.437   7.950
 4338POPC   C4A16146  36.898  14.374   7.650
 4338POPC   C1B16147  37.085  14.514   8.550
 4338POPC   C2B16148  37.117  14.519   8.250
 4338POPC   C3B16149  37.157  14.466   7.950
 4338POPC   C4B16150  37.167  14.505   7.650
 4339POPC   NC316151  43.869  42.360   9.450
 4339POPC   PO416152  43.846  42.297   9.150
 4339POPC   GL116153  43.929  42.377   8.850
 4339POPC   GL216154  43.818  42.497   8.850
 4339POPC   C1A16155  43.916  42.353   8.550
 4339POPC   D2A16156  43.900  42.310   8.250
 4339POPC   C3A16157  43.902  42.314   7.950
 4339POPC   C4A16158  43.910  42.322   7.650
 4339POPC   C1B16159  43.793  42.569   8.550
 4339POPC   C2B16160  43.777  42.609   8.250
 4339POPC   C3B16161  43.754  42.557   7.950
 4339POPC   C4B16162  43.765  42.535   7.650
 4340POPC   NC316163  40.819  33.060   9.450
 4340POPC   PO416164  40.792  33.024   9.150
 4340POPC   GL116165  40.808  33.026   8.850
 4340POPC   GL216166  40.847  33.081   8.850
 4340POPC   C1A16167  40.758  32.989   8.550
 4340POPC   D2A16168  40.824  33.007   8.250
 4340POPC   C3A16169  40.756  33.062   7.950
 4340POPC   C4A16170  40.800  32.976   7.650
 4340POPC   C1B16171  40.949  33.153   8.550
 4340POPC   C2B16172  40.979  33.145   8.250
 4340POPC   C3B16173  41.019  33.202   7.950
 4340POPC   C4B16174  41.026  33.195   7.650
 4341POPC   NC316175   1.210  36.949   9.450
 4341POPC   PO416176   1.248  36.899   9.150
 4341POPC   GL116177   1.220  36.896   8.850
 4341POPC   GL216178   1.129  36.929   8.850
 4341POPC   C1A16179   1.173  36.925   8.550
 4341POPC   D2A16180   1.165  36.952   8.250
 4341POPC   C3A16181   1.194  36.953   7.950
 4341POPC   C4A16182   1.220  36.923   7.650
 4341POPC   C1B16183   0.997  37.001   8.550
 4341POPC   C2B16184   0.983  37.017   8.250
 4341POPC   C3B16185   0.947  37.011   7.950
 4341POPC   C4B16186   0.953  37.027   7.650
 4342POPC   NC316187  12.096  43.083   9.450
 4342POPC   PO416188  12.049  43.099   9.150
 4342POPC   GL116189  12.045  43.145   8.850
 4342POPC   GL216190  12.191  43.121   8.850
 4342POPC   C1A16191  12.056  43.061   8.550
 4342POPC   D2A16192  12.102  43.115   8.250
 4342POPC   C3A16193  12.100  43.088   7.950
 4342POPC   C4A16194  12.064  43.086   7.650
 4342POPC   C1B16195  12.304  43.167   8.550
 4342POPC   C2B16196  12.299  43.176   8.250
 4342POPC   C3B16197  12.370  43.112   7.950
 4342POPC   C4B16198  12.302  43.156   7.650
 4343POPC   NC316199   4.308  25.255   9.450
 4343POPC   PO416200   4.298  25.233   9.150
 4343POPC   GL116201   4.360  25.237   8.850
 4343POPC   GL216202   4.333  25.389   8.850
 4343POPC   C1A16203   4.317  25.274   8.550
 4343POPC   D2A16204   4.270  25.296   8.250
 4343POPC   C3A16205   4.326  25.294   7.950
 4343POPC   C4A16206   4.280  25.251   7.650
 4343POPC   C1B16207   4.402  25.541   8.550
 4343POPC   C2B16208   4.422  25.519   8.250
 4343POPC   C3B16209   4.395  25.554   7.950
 4343POPC   C4B16210   4.430  25.464   7.650
 4344POPC   NC316211  27.625  29.879   9.450
 4344POPC   PO416212  27.623  29.970   9.150
 4344POPC   GL116213  27.585  29.907   8.850
 4344POPC   GL216214  27.452  29.964   8.850
 4344POPC   C1A16215  27.591  29.879   8.550
 4344POPC   D2A16216  27.546  29.923   8.250
 4344POPC   C3A16217  27.590  29.935   7.950
 4344POPC   C4A16218  27.571  29.888   7.650
 4344POPC   C1B16219  27.358  29.945   8.550
 4344POPC   C2B16220  27.318  29.941   8.250
 4344POPC   C3B16221  27.397  29.990   7.950
 4344POPC   C4B16222  27.378  29.955   7.650
 4345POPC   NC316223   0.444   0.467   9.450
 4345POPC   PO416224   0.446   0.454   9.150
 4345POPC   GL116225   0.429   0.389   8.850
 4345POPC   GL216226   0.591   0.438   8.850
 4345POPC   C1A16227   0.467   0.468   8.550
 4345POPC   D2A16228   0.448   0.487   8.250
 4345POPC   C3A16229   0.421   0.419   7.950
 4345POPC   C4A16230   0.476   0.399   7.650
 4345POPC   C1B16231   0.670   0.415   8.550
 4345POPC   C2B16232   0.683   0.414   8.250
 4345POPC   C3B16233   0.642   0.452   7.950
 4345POPC   C4B16234   0.651   0.474   7.650
 4346POPC   NC316235  19.038   7.388   9.450
 4346POPC   PO416236  19.031   7.374   9.150
 4346POPC   GL116237  19.042   7.433   8.850
 4346POPC   GL216238  19.095   7.339   8.850
 4346POPC   C1A16239  19.105   7.468   8.550
 4346POPC   D2A16240  19.040   7.420   8.250
 4346POPC   C3A16241  19.055   7.410   7.950
 4346POPC   C4A16242  19.043   7.406   7.650
 4346POPC   C1B16243  19.125   7.215   8.550
 4346POPC   C2B16244  19.140   7.222   8.250
 4346POPC   C3B16245  19.058   7.220   7.950
 4346POPC   C4B16246  19.099   7.214   7.650
 4347POPC   NC316247  22.192  43.063   9.450
 4347POPC   PO416248  22.192  43.111   9.150
 4347POPC   GL116249  22.154  43.156   8.850
 4347POPC   GL216250  22.238  43.096   8.850
 4347POPC   C1A16251  22.166  43.140   8.550
 4347POPC   D2A16252  22.122  43.092   8.250
 4347POPC   C3A16253  22.150  43.064   7.950
 4347POPC   C4A16254  22.175  43.117   7.650
 4347POPC   C1B16255  22.389  43.159   8.550
 4347POPC   C2B16256  22.397  43.211   8.250
 4347POPC   C3B16257  22.375  43.128   7.950
 4347POPC   C4B16258  22.395  43.121   7.650
 4348POPC   NC316259  19.813  34.597   9.450
 4348POPC   PO416260  19.807  34.589   9.150
 4348POPC   GL116261  19.881  34.609   8.850
 4348POPC   GL216262  20.002  34.623   8.850
 4348POPC   C1A16263  19.866  34.542   8.550
 4348POPC   D2A16264  19.790  34.576   8.250
 4348POPC   C3A16265  19.835  34.604   7.950
 4348POPC   C4A16266  19.850  34.618   7.650
 4348POPC   C1B16267  20.119  34.646   8.550
 4348POPC   C2B16268  20.105  34.686   8.250
 4348POPC   C3B16269  20.096  34.706   7.950
 4348POPC   C4B16270  20.098  34.668   7.650
 4349POPC   NC316271  11.273   7.428   9.450
 4349POPC   PO416272  11.341   7.446   9.150
 4349POPC   GL116273  11.250   7.450   8.850
 4349POPC   GL216274  11.305   7.554   8.850
 4349POPC   C1A16275  11.287   7.393   8.550
 4349POPC   D2A16276  11.313   7.464   8.250
 4349POPC   C3A16277  11.342   7.401   7.950
 4349POPC   C4A16278  11.314   7.445   7.650
 4349POPC   C1B16279  11.218   7.646   8.550
 4349POPC   C2B16280  11.163   7.690   8.250
 4349POPC   C3B16281  11.166   7.646   7.950
 4349POPC   C4B16282  11.237   7.651   7.650
 4350POPC   NC316283  23.713  30.720   9.450
 4350POPC   PO416284  23.762  30.666   9.150
 4350POPC   GL116285  23.736  30.744   8.850
 4350POPC   GL216286  23.781  30.704   8.850
 4350POPC   C1A16287  23.698  30.663   8.550
 4350POPC   D2A16288  23.713  30.666   8.250
 4350POPC   C3A16289  23.698  30.703   7.950
 4350POPC   C4A16290  23.739  30.675   7.650
 4350POPC   C1B16291  23.946  30.845   8.550
 4350POPC   C2B16292  23.951  30.844   8.250
 4350POPC   C3B16293  23.966  30.785   7.950
 4350POPC   C4B16294  23.893  30.778   7.650
 4351POPC   NC316295   6.669  29.107   9.450
 4351POPC   PO416296   6.602  29.194   9.150
 4351POPC   GL116297   6.676  29.124   8.850
 4351POPC   GL216298   6.699  29.220   8.850
 4351POPC   C1A16299   6.673  29.169   8.550
 4351POPC   D2A16300   6.625  29.145   8.250
 4351POPC   C3A16301   6.600  29.112   7.950
 4351POPC   C4A16302   6.658  29.173   7.650
 4351POPC   C1B16303   6.855  29.338   8.550
 4351POPC   C2B16304   6.867  29.293   8.250
 4351POPC   C3B16305   6.854  29.352   7.950
 4351POPC   C4B16306   6.848  29.362   7.650
 4352POPC   NC316307   9.772  17.551   9.450
 4352POPC   PO416308   9.756  17.495   9.150
 4352POPC   GL116309   9.732  17.519   8.850
 4352POPC   GL216310   9.914  17.472   8.850
 4352POPC   C1A16311   9.758  17.492   8.550
 4352POPC   D2A16312   9.702  17.504   8.250
 4352POPC   C3A16313   9.745  17.466   7.950
 4352POPC   C4A16314   9.798  17.494   7.650
 4352POPC   C1B16315   9.985  17.468   8.550
 4352POPC   C2B16316   9.974  17.461   8.250
 4352POPC   C3B16317   9.979  17.394   7.950
 4352POPC   C4B16318   9.950  17.389   7.650
 4353POPC   NC316319  25.244  11.331   9.450
 4353POPC   PO416320  25.282  11.290   9.150
 4353POPC   GL116321  25.239  11.340   8.850
 4353POPC   GL216322  25.305  11.166   8.850
 4353POPC   C1A16323  25.240  11.296   8.550
 4353POPC   D2A16324  25.246  11.345   8.250
 4353POPC   C3A16325  25.270  11.334   7.950
 4353POPC   C4A16326  25.251  11.349   7.650
 4353POPC   C1B16327  25.347  11.058   8.550
 4353POPC   C2B16328  25.259  11.031   8.250
 4353POPC   C3B16329  25.283  11.018   7.950
 4353POPC   C4B16330  25.281  11.084   7.650
 4354POPC   NC316331  43.877   4.321   9.450
 4354POPC   PO416332  43.851   4.360   9.150
 4354POPC   GL116333  43.914   4.294   8.850
 4354POPC   GL216334  43.801   4.186   8.850
 4354POPC   C1A16335  43.881   4.354   8.550
 4354POPC   D2A16336  43.929   4.324   8.250
 4354POPC   C3A16337  43.919   4.316   7.950
 4354POPC   C4A16338  43.902   4.360   7.650
 4354POPC   C1B16339  43.808   4.073   8.550
 4354POPC   C2B16340  43.797   4.127   8.250
 4354POPC   C3B16341  43.834   4.049   7.950
 4354POPC   C4B16342  43.795   4.048   7.650
 4355POPC   NC316343  38.407  35.319   9.450
 4355POPC   PO416344  38.479  35.363   9.150
 4355POPC   GL116345  38.463  35.380   8.850
 4355POPC   GL216346  38.577  35.366   8.850
 4355POPC   C1A16347  38.465  35.337   8.550
 4355POPC   D2A16348  38.472  35.375   8.250
 4355POPC   C3A16349  38.411  35.310   7.950
 4355POPC   C4A16350  38.472  35.359   7.650
 4355POPC   C1B16351  38.661  35.354   8.550
 4355POPC   C2B16352  38.748  35.317   8.250
 4355POPC   C3B16353  38.700  35.336   7.950
 4355POPC   C4B16354  38.666  35.367   7.650
 4356POPC   NC316355  38.480  37.651   9.450
 4356POPC   PO416356  38.430  37.691   9.150
 4356POPC   GL116357  38.407  37.669   8.850
 4356POPC   GL216358  38.491  37.529   8.850
 4356POPC   C1A16359  38.477  37.712   8.550
 4356POPC   D2A16360  38.482  37.662   8.250
 4356POPC   C3A16361  38.475  37.630   7.950
 4356POPC   C4A16362  38.499  37.674   7.650
 4356POPC   C1B16363  38.554  37.424   8.550
 4356POPC   C2B16364  38.528  37.462   8.250
 4356POPC   C3B16365  38.561  37.504   7.950
 4356POPC   C4B16366  38.535  37.488   7.650
 4357POPC   NC316367   8.160  15.130   9.450
 4357POPC   PO416368   8.235  15.149   9.150
 4357POPC   GL116369   8.184  15.212   8.850
 4357POPC   GL216370   8.236  15.120   8.850
 4357POPC   C1A16371   8.211  15.161   8.550
 4357POPC   D2A16372   8.212  15.157   8.250
 4357POPC   C3A16373   8.235  15.197   7.950
 4357POPC   C4A16374   8.177  15.205   7.650
 4357POPC   C1B16375   8.348  15.021   8.550
 4357POPC   C2B16376   8.381  15.017   8.250
 4357POPC   C3B16377   8.410  15.031   7.950
 4357POPC   C4B16378   8.376  15.003   7.650
 4358POPC   NC316379  23.677  19.879   9.450
 4358POPC   PO416380  23.742  19.822   9.150
 4358POPC   GL116381  23.671  19.811   8.850
 4358POPC   GL216382  23.698  19.669   8.850
 4358POPC   C1A16383  23.746  19.831   8.550
 4358POPC   D2A16384  23.744  19.809   8.250
 4358POPC   C3A16385  23.712  19.834   7.950
 4358POPC   C4A16386  23.757  19.881   7.650
 4358POPC   C1B16387  23.723  19.618   8.550
 4358POPC   C2B16388  23.772  19.583   8.250
 4358POPC   C3B16389  23.787  19.586   7.950
 4358POPC   C4B16390  23.783  19.610   7.650
 4359POPC   NC316391  15.183  24.489   9.450
 4359POPC   PO416392  15.197  24.538   9.150
 4359POPC   GL116393  15.158  24.491   8.850
 4359POPC   GL216394  15.174  24.401   8.850
 4359POPC   C1A16395  15.190  24.477   8.550
 4359POPC   D2A16396  15.222  24.518   8.250
 4359POPC   C3A16397  15.162  24.501   7.950
 4359POPC   C4A16398  15.208  24.456   7.650
 4359POPC   C1B16399  15.200  24.282   8.550
 4359POPC   C2B16400  15.209  24.200   8.250
 4359POPC   C3B16401  15.231  24.286   7.950
 4359POPC   C4B16402  15.235  24.236   7.650
 4360POPC   NC316403  18.260  32.278   9.450
 4360POPC   PO416404  18.282  32.268   9.150
 4360POPC   GL116405  18.241  32.200   8.850
 4360POPC   GL216406  18.258  32.411   8.850
 4360POPC   C1A16407  18.288  32.292   8.550
 4360POPC   D2A16408  18.321  32.216   8.250
 4360POPC   C3A16409  18.265  32.297   7.950
 4360POPC   C4A16410  18.298  32.253   7.650
 4360POPC   C1B16411  18.203  32.453   8.550
 4360POPC   C2B16412  18.266  32.501   8.250
 4360POPC   C3B16413  18.209  32.528   7.950
 4360POPC   C4B16414  18.210  32.449   7.650
 4361POPC   NC316415  40.811  27.623   9.450
 4361POPC   PO416416  40.796  27.604   9.150
 4361POPC   GL116417  40.832  27.598   8.850
 4361POPC   GL216418  40.825  27.447   8.850
 4361POPC   C1A16419  40.739  27.557   8.550
 4361POPC   D2A16420  40.824  27.622   8.250
 4361POPC   C3A16421  40.830  27.549   7.950
 4361POPC   C4A16422  40.780  27.556   7.650
 4361POPC   C1B16423  40.877  27.421   8.550
 4361POPC   C2B16424  40.904  27.378   8.250
 4361POPC   C3B16425  40.952  27.392   7.950
 4361POPC   C4B16426  40.922  27.386   7.650
 4362POPC   NC316427  30.648  43.880   9.450
 4362POPC   PO416428  30.663  43.884   9.150
 4362POPC   GL116429  30.696  43.927   8.850
 4362POPC   GL216430  30.622  43.995   8.850
 4362POPC   C1A16431  30.736  43.857   8.550
 4362POPC   D2A16432  30.697  43.916   8.250
 4362POPC   C3A16433  30.666  43.917   7.950
 4362POPC   C4A16434  30.697  43.839   7.650
 4362POPC   C1B16435  30.568  44.111   8.550
 4362POPC   C2B16436  30.639  44.082   8.250
 4362POPC   C3B16437  30.643  44.131   7.950
 4362POPC   C4B16438  30.647  44.091   7.650
 4363POPC   NC316439  35.340  16.003   9.450
 4363POPC   PO416440  35.355  15.943   9.150
 4363POPC   GL116441  35.400  15.934   8.850
 4363POPC   GL216442  35.235  16.019   8.850
 4363POPC   C1A16443  35.322  15.920   8.550
 4363POPC   D2A16444  35.326  15.924   8.250
 4363POPC   C3A16445  35.392  15.917   7.950
 4363POPC   C4A16446  35.321  15.923   7.650
 4363POPC   C1B16447  35.110  16.088   8.550
 4363POPC   C2B16448  35.109  16.075   8.250
 4363POPC   C3B16449  35.143  16.063   7.950
 4363POPC   C4B16450  35.135  16.104   7.650
 4364POPC   NC316451   6.644  34.580   9.450
 4364POPC   PO416452   6.627  34.582   9.150
 4364POPC   GL116453   6.623  34.591   8.850
 4364POPC   GL216454   6.485  34.566   8.850
 4364POPC   C1A16455   6.667  34.608   8.550
 4364POPC   D2A16456   6.692  34.604   8.250
 4364POPC   C3A16457   6.659  34.590   7.950
 4364POPC   C4A16458   6.640  34.623   7.650
 4364POPC   C1B16459   6.435  34.478   8.550
 4364POPC   C2B16460   6.460  34.442   8.250
 4364POPC   C3B16461   6.461  34.461   7.950
 4364POPC   C4B16462   6.457  34.463   7.650
 4365POPC   NC316463   5.830  40.018   9.450
 4365POPC   PO416464   5.911  40.032   9.150
 4365POPC   GL116465   5.841  40.016   8.850
 4365POPC   GL216466   5.791  39.987   8.850
 4365POPC   C1A16467   5.823  39.999   8.550
 4365POPC   D2A16468   5.846  40.000   8.250
 4365POPC   C3A16469   5.867  39.991   7.950
 4365POPC   C4A16470   5.909  40.057   7.650
 4365POPC   C1B16471   5.570  39.946   8.550
 4365POPC   C2B16472   5.575  40.025   8.250
 4365POPC   C3B16473   5.653  40.031   7.950
 4365POPC   C4B16474   5.573  39.956   7.650
 4366POPC   NC316475  39.190  33.012   9.450
 4366POPC   PO416476  39.217  33.003   9.150
 4366POPC   GL116477  39.250  33.013   8.850
 4366POPC   GL216478  39.073  33.073   8.850
 4366POPC   C1A16479  39.238  33.039   8.550
 4366POPC   D2A16480  39.260  33.024   8.250
 4366POPC   C3A16481  39.276  33.044   7.950
 4366POPC   C4A16482  39.206  33.039   7.650
 4366POPC   C1B16483  39.018  33.032   8.550
 4366POPC   C2B16484  38.977  33.117   8.250
 4366POPC   C3B16485  39.021  33.029   7.950
 4366POPC   C4B16486  39.024  33.055   7.650
 4367POPC   NC316487  16.781  39.209   9.450
 4367POPC   PO416488  16.695  39.202   9.150
 4367POPC   GL116489  16.768  39.212   8.850
 4367POPC   GL216490  16.687  39.095   8.850
 4367POPC   C1A16491  16.713  39.251   8.550
 4367POPC   D2A16492  16.760  39.200   8.250
 4367POPC   C3A16493  16.736  39.203   7.950
 4367POPC   C4A16494  16.726  39.219   7.650
 4367POPC   C1B16495  16.659  39.026   8.550
 4367POPC   C2B16496  16.664  38.962   8.250
 4367POPC   C3B16497  16.600  39.007   7.950
 4367POPC   C4B16498  16.637  39.042   7.650
 4368POPC   NC316499   8.992  25.240   9.450
 4368POPC   PO416500   8.972  25.228   9.150
 4368POPC   GL116501   8.953  25.299   8.850
 4368POPC   GL216502   9.037  25.364   8.850
 4368POPC   C1A16503   8.938  25.280   8.550
 4368POPC   D2A16504   8.991  25.276   8.250
 4368POPC   C3A16505   8.996  25.242   7.950
 4368POPC   C4A16506   8.962  25.242   7.650
 4368POPC   C1B16507   9.228  25.426   8.550
 4368POPC   C2B16508   9.189  25.329   8.250
 4368POPC   C3B16509   9.204  25.415   7.950
 4368POPC   C4B16510   9.170  25.424   7.650
 4369POPC   NC316511  36.132  28.396   9.450
 4369POPC   PO416512  36.155  28.351   9.150
 4369POPC   GL116513  36.135  28.331   8.850
 4369POPC   GL216514  36.168  28.248   8.850
 4369POPC   C1A16515  36.101  28.342   8.550
 4369POPC   D2A16516  36.148  28.371   8.250
 4369POPC   C3A16517  36.136  28.381   7.950
 4369POPC   C4A16518  36.087  28.406   7.650
 4369POPC   C1B16519  36.232  28.157   8.550
 4369POPC   C2B16520  36.285  28.175   8.250
 4369POPC   C3B16521  36.201  28.126   7.950
 4369POPC   C4B16522  36.248  28.184   7.650
 4370POPC   NC316523  31.482  17.488   9.450
 4370POPC   PO416524  31.501  17.533   9.150
 4370POPC   GL116525  31.492  17.494   8.850
 4370POPC   GL216526  31.373  17.397   8.850
 4370POPC   C1A16527  31.437  17.514   8.550
 4370POPC   D2A16528  31.482  17.556   8.250
 4370POPC   C3A16529  31.484  17.524   7.950
 4370POPC   C4A16530  31.478  17.509   7.650
 4370POPC   C1B16531  31.255  17.377   8.550
 4370POPC   C2B16532  31.261  17.424   8.250
 4370POPC   C3B16533  31.303  17.362   7.950
 4370POPC   C4B16534  31.210  17.350   7.650
 4371POPC   NC316535   5.052   6.659   9.450
 4371POPC   PO416536   5.119   6.618   9.150
 4371POPC   GL116537   5.109   6.626   8.850
 4371POPC   GL216538   5.231   6.694   8.850
 4371POPC   C1A16539   5.100   6.611   8.550
 4371POPC   D2A16540   5.119   6.637   8.250
 4371POPC   C3A16541   5.128   6.627   7.950
 4371POPC   C4A16542   5.068   6.636   7.650
 4371POPC   C1B16543   5.291   6.768   8.550
 4371POPC   C2B16544   5.314   6.774   8.250
 4371POPC   C3B16545   5.294   6.783   7.950
 4371POPC   C4B16546   5.295   6.806   7.650
 4372POPC   NC316547  36.930   1.987   9.450
 4372POPC   PO416548  36.872   1.959   9.150
 4372POPC   GL116549  36.862   2.034   8.850
 4372POPC   GL216550  36.826   2.010   8.850
 4372POPC   C1A16551  36.889   2.013   8.550
 4372POPC   D2A16552  36.913   1.979   8.250
 4372POPC   C3A16553  36.902   1.959   7.950
 4372POPC   C4A16554  36.898   2.017   7.650
 4372POPC   C1B16555  36.631   2.002   8.550
 4372POPC   C2B16556  36.617   1.967   8.250
 4372POPC   C3B16557  36.699   1.955   7.950
 4372POPC   C4B16558  36.628   1.933   7.650
 4373POPC   NC316559  40.025  35.327   9.450
 4373POPC   PO416560  40.051  35.323   9.150
 4373POPC   GL116561  40.048  35.349   8.850
 4373POPC   GL216562  39.973  35.268   8.850
 4373POPC   C1A16563  40.044  35.308   8.550
 4373POPC   D2A16564  39.984  35.378   8.250
 4373POPC   C3A16565  40.039  35.344   7.950
 4373POPC   C4A16566  40.011  35.365   7.650
 4373POPC   C1B16567  39.994  35.108   8.550
 4373POPC   C2B16568  40.001  35.059   8.250
 4373POPC   C3B16569  40.011  35.144   7.950
 4373POPC   C4B16570  40.009  35.056   7.650
 4374POPC   NC316571  15.212  37.710   9.450
 4374POPC   PO416572  15.130  37.671   9.150
 4374POPC   GL116573  15.208  37.680   8.850
 4374POPC   GL216574  15.308  37.721   8.850
 4374POPC   C1A16575  15.188  37.658   8.550
 4374POPC   D2A16576  15.202  37.706   8.250
 4374POPC   C3A16577  15.193  37.678   7.950
 4374POPC   C4A16578  15.192  37.721   7.650
 4374POPC   C1B16579  15.426  37.729   8.550
 4374POPC   C2B16580  15.416  37.803   8.250
 4374POPC   C3B16581  15.418  37.730   7.950
 4374POPC   C4B16582  15.361  37.789   7.650
 4375POPC   NC316583  26.815  15.220   9.450
 4375POPC   PO416584  26.839  15.203   9.150
 4375POPC   GL116585  26.772  15.184   8.850
 4375POPC   GL216586  26.872  15.073   8.850
 4375POPC   C1A16587  26.782  15.205   8.550
 4375POPC   D2A16588  26.793  15.140   8.250
 4375POPC   C3A16589  26.809  15.187   7.950
 4375POPC   C4A16590  26.783  15.205   7.650
 4375POPC   C1B16591  26.922  14.950   8.550
 4375POPC   C2B16592  26.864  14.918   8.250
 4375POPC   C3B16593  26.917  14.892   7.950
 4375POPC   C4B16594  26.909  14.894   7.650
 4376POPC   NC316595   9.773  35.342   9.450
 4376POPC   PO416596   9.791  35.385   9.150
 4376POPC   GL116597   9.738  35.364   8.850
 4376POPC   GL216598   9.738  35.514   8.850
 4376POPC   C1A16599   9.704  35.324   8.550
 4376POPC   D2A16600   9.755  35.329   8.250
 4376POPC   C3A16601   9.768  35.390   7.950
 4376POPC   C4A16602   9.767  35.325   7.650
 4376POPC   C1B16603   9.687  35.586   8.550
 4376POPC   C2B16604   9.617  35.604   8.250
 4376POPC   C3B16605   9.700  35.617   7.950
 4376POPC   C4B16606   9.673  35.578   7.650
 4377POPC   NC316607  12.043  12.088   9.450
 4377POPC   PO416608  12.123  12.031   9.150
 4377POPC   GL116609  12.037  12.091   8.850
 4377POPC   GL216610  11.942  12.100   8.850
 4377POPC   C1A16611  12.027  12.081   8.550
 4377POPC   D2A16612  12.039  12.029   8.250
 4377POPC   C3A16613  12.090  12.067   7.950
 4377POPC   C4A16614  12.048  12.040   7.650
 4377POPC   C1B16615  11.888  12.207   8.550
 4377POPC   C2B16616  11.870  12.152   8.250
 4377POPC   C3B16617  11.805  12.169   7.950
 4377POPC   C4B16618  11.860  12.184   7.650
 4378POPC   NC316619   3.587   1.230   9.450
 4378POPC   PO416620   3.555   1.167   9.150
 4378POPC   GL116621   3.561   1.177   8.850
 4378POPC   GL216622   3.453   1.239   8.850
 4378POPC   C1A16623   3.535   1.214   8.550
 4378POPC   D2A16624   3.562   1.248   8.250
 4378POPC   C3A16625   3.554   1.263   7.950
 4378POPC   C4A16626   3.565   1.212   7.650
 4378POPC   C1B16627   3.314   1.288   8.550
 4378POPC   C2B16628   3.319   1.255   8.250
 4378POPC   C3B16629   3.264   1.287   7.950
 4378POPC   C4B16630   3.253   1.260   7.650
 4379POPC   NC316631   9.764  32.275   9.450
 4379POPC   PO416632   9.744  32.289   9.150
 4379POPC   GL116633   9.787  32.294   8.850
 4379POPC   GL216634   9.663  32.273   8.850
 4379POPC   C1A16635   9.757  32.202   8.550
 4379POPC   D2A16636   9.703  32.270   8.250
 4379POPC   C3A16637   9.702  32.200   7.950
 4379POPC   C4A16638   9.782  32.263   7.650
 4379POPC   C1B16639   9.553  32.176   8.550
 4379POPC   C2B16640   9.494  32.174   8.250
 4379POPC   C3B16641   9.475  32.191   7.950
 4379POPC   C4B16642   9.464  32.226   7.650
 4380POPC   NC316643  29.880  41.523   9.450
 4380POPC   PO416644  29.965  41.519   9.150
 4380POPC   GL116645  29.898  41.529   8.850
 4380POPC   GL216646  29.763  41.616   8.850
 4380POPC   C1A16647  29.881  41.551   8.550
 4380POPC   D2A16648  29.893  41.564   8.250
 4380POPC   C3A16649  29.960  41.552   7.950
 4380POPC   C4A16650  29.918  41.570   7.650
 4380POPC   C1B16651  29.717  41.633   8.550
 4380POPC   C2B16652  29.722  41.619   8.250
 4380POPC   C3B16653  29.644  41.589   7.950
 4380POPC   C4B16654  29.668  41.654   7.650
 4381POPC   NC316655  30.732  40.812   9.450
 4381POPC   PO416656  30.677  40.811   9.150
 4381POPC   GL116657  30.737  40.798   8.850
 4381POPC   GL216658  30.665  40.646   8.850
 4381POPC   C1A16659  30.684  40.800   8.550
 4381POPC   D2A16660  30.686  40.793   8.250
 4381POPC   C3A16661  30.734  40.781   7.950
 4381POPC   C4A16662  30.672  40.776   7.650
 4381POPC   C1B16663  30.585  40.548   8.550
 4381POPC   C2B16664  30.593  40.543   8.250
 4381POPC   C3B16665  30.578  40.565   7.950
 4381POPC   C4B16666  30.505  40.572   7.650
 4382POPC   NC316667  16.687  31.509   9.450
 4382POPC   PO416668  16.742  31.444   9.150
 4382POPC   GL116669  16.701  31.425   8.850
 4382POPC   GL216670  16.697  31.315   8.850
 4382POPC   C1A16671  16.695  31.517   8.550
 4382POPC   D2A16672  16.728  31.485   8.250
 4382POPC   C3A16673  16.720  31.497   7.950
 4382POPC   C4A16674  16.740  31.446   7.650
 4382POPC   C1B16675  16.682  31.216   8.550
 4382POPC   C2B16676  16.696  31.254   8.250
 4382POPC   C3B16677  16.625  31.275   7.950
 4382POPC   C4B16678  16.624  31.274   7.650
 4383POPC   NC316679  18.315  20.567   9.450
 4383POPC   PO416680  18.321  20.593   9.150
 4383POPC   GL116681  18.293  20.627   8.850
 4383POPC   GL216682  18.121  20.612   8.850
 4383POPC   C1A16683  18.240  20.641   8.550
 4383POPC   D2A16684  18.280  20.620   8.250
 4383POPC   C3A16685  18.260  20.609   7.950
 4383POPC   C4A16686  18.321  20.614   7.650
 4383POPC   C1B16687  18.089  20.671   8.550
 4383POPC   C2B16688  17.998  20.642   8.250
 4383POPC   C3B16689  18.048  20.701   7.950
 4383POPC   C4B16690  18.074  20.642   7.650
 4384POPC   NC316691  29.902   0.471   9.450
 4384POPC   PO416692  29.902   0.388   9.150
 4384POPC   GL116693  29.907   0.393   8.850
 4384POPC   GL216694  29.789   0.405   8.850
 4384POPC   C1A16695  29.952   0.405   8.550
 4384POPC   D2A16696  29.959   0.437   8.250
 4384POPC   C3A16697  29.878   0.391   7.950
 4384POPC   C4A16698  29.918   0.403   7.650
 4384POPC   C1B16699  29.716   0.475   8.550
 4384POPC   C2B16700  29.654   0.500   8.250
 4384POPC   C3B16701  29.687   0.457   7.950
 4384POPC   C4B16702  29.640   0.491   7.650
 4385POPC   NC316703  11.307   5.117   9.450
 4385POPC   PO416704  11.250   5.074   9.150
 4385POPC   GL116705  11.269   5.082   8.850
 4385POPC   GL216706  11.201   5.165   8.850
 4385POPC   C1A16707  11.314   5.136   8.550
 4385POPC   D2A16708  11.271   5.089   8.250
 4385POPC   C3A16709  11.284   5.092   7.950
 4385POPC   C4A16710  11.267   5.119   7.650
 4385POPC   C1B16711  11.078   5.317   8.550
 4385POPC   C2B16712  11.158   5.250   8.250
 4385POPC   C3B16713  11.159   5.221   7.950
 4385POPC   C4B16714  11.074   5.264   7.650
 4386POPC   NC316715  15.228  39.971   9.450
 4386POPC   PO416716  15.143  40.016   9.150
 4386POPC   GL116717  15.133  40.047   8.850
 4386POPC   GL216718  15.217  40.166   8.850
 4386POPC   C1A16719  15.159  39.984   8.550
 4386POPC   D2A16720  15.148  40.045   8.250
 4386POPC   C3A16721  15.192  39.998   7.950
 4386POPC   C4A16722  15.203  40.034   7.650
 4386POPC   C1B16723  15.289  40.285   8.550
 4386POPC   C2B16724  15.308  40.249   8.250
 4386POPC   C3B16725  15.239  40.221   7.950
 4386POPC   C4B16726  15.226  40.210   7.650
 4387POPC   NC316727  36.943  11.296   9.450
 4387POPC   PO416728  36.945  11.265   9.150
 4387POPC   GL116729  36.928  11.259   8.850
 4387POPC   GL216730  36.771  11.355   8.850
 4387POPC   C1A16731  36.894  11.280   8.550
 4387POPC   D2A16732  36.900  11.335   8.250
 4387POPC   C3A16733  36.880  11.328   7.950
 4387POPC   C4A16734  36.904  11.340   7.650
 4387POPC   C1B16735  36.653  11.323   8.550
 4387POPC   C2B16736  36.651  11.282   8.250
 4387POPC   C3B16737  36.689  11.279   7.950
 4387POPC   C4B16738  36.621  11.332   7.650
 4388POPC   NC316739  22.905   8.196   9.450
 4388POPC   PO416740  22.977   8.199   9.150
 4388POPC   GL116741  22.939   8.201   8.850
 4388POPC   GL216742  22.871   8.241   8.850
 4388POPC   C1A16743  22.891   8.243   8.550
 4388POPC   D2A16744  22.932   8.162   8.250
 4388POPC   C3A16745  22.949   8.151   7.950
 4388POPC   C4A16746  22.935   8.204   7.650
 4388POPC   C1B16747  22.701   8.313   8.550
 4388POPC   C2B16748  22.720   8.329   8.250
 4388POPC   C3B16749  22.667   8.282   7.950
 4388POPC   C4B16750  22.699   8.284   7.650
 4389POPC   NC316751  22.953  34.528   9.450
 4389POPC   PO416752  22.943  34.532   9.150
 4389POPC   GL116753  22.978  34.618   8.850
 4389POPC   GL216754  23.105  34.562   8.850
 4389POPC   C1A16755  22.978  34.592   8.550
 4389POPC   D2A16756  22.951  34.609   8.250
 4389POPC   C3A16757  22.981  34.603   7.950
 4389POPC   C4A16758  22.890  34.604   7.650
 4389POPC   C1B16759  23.221  34.524   8.550
 4389POPC   C2B16760  23.206  34.498   8.250
 4389POPC   C3B16761  23.149  34.485   7.950
 4389POPC   C4B16762  23.191  34.512   7.650
 4390POPC   NC316763  30.652  33.051   9.450
 4390POPC   PO416764  30.705  33.023   9.150
 4390POPC   GL116765  30.697  32.982   8.850
 4390POPC   GL216766  30.835  33.004   8.850
 4390POPC   C1A16767  30.697  33.029   8.550
 4390POPC   D2A16768  30.736  33.007   8.250
 4390POPC   C3A16769  30.711  32.988   7.950
 4390POPC   C4A16770  30.660  33.001   7.650
 4390POPC   C1B16771  30.922  32.974   8.550
 4390POPC   C2B16772  30.915  32.979   8.250
 4390POPC   C3B16773  30.956  32.944   7.950
 4390POPC   C4B16774  30.971  33.010   7.650
 4391POPC   NC316775  33.833   5.846   9.450
 4391POPC   PO416776  33.793   5.894   9.150
 4391POPC   GL116777  33.764   5.904   8.850
 4391POPC   GL216778  33.695   5.917   8.850
 4391POPC   C1A16779  33.793   5.893   8.550
 4391POPC   D2A16780  33.827   5.891   8.250
 4391POPC   C3A16781  33.767   5.904   7.950
 4391POPC   C4A16782  33.773   5.888   7.650
 4391POPC   C1B16783  33.596   5.960   8.550
 4391POPC   C2B16784  33.570   5.965   8.250
 4391POPC   C3B16785  33.559   5.929   7.950
 4391POPC   C4B16786  33.523   5.956   7.650
 4392POPC   NC316787  29.183  25.297   9.450
 4392POPC   PO416788  29.172  25.236   9.150
 4392POPC   GL116789  29.146  25.248   8.850
 4392POPC   GL216790  29.175  25.148   8.850
 4392POPC   C1A16791  29.141  25.276   8.550
 4392POPC   D2A16792  29.115  25.286   8.250
 4392POPC   C3A16793  29.115  25.298   7.950
 4392POPC   C4A16794  29.136  25.284   7.650
 4392POPC   C1B16795  29.308  25.061   8.550
 4392POPC   C2B16796  29.268  25.088   8.250
 4392POPC   C3B16797  29.245  25.046   7.950
 4392POPC   C4B16798  29.285  25.014   7.650
 4393POPC   NC316799   6.661  18.242   9.450
 4393POPC   PO416800   6.641  18.316   9.150
 4393POPC   GL116801   6.607  18.309   8.850
 4393POPC   GL216802   6.604  18.393   8.850
 4393POPC   C1A16803   6.682  18.310   8.550
 4393POPC   D2A16804   6.610  18.235   8.250
 4393POPC   C3A16805   6.619  18.258   7.950
 4393POPC   C4A16806   6.623  18.301   7.650
 4393POPC   C1B16807   6.503  18.462   8.550
 4393POPC   C2B16808   6.473  18.464   8.250
 4393POPC   C3B16809   6.534  18.547   7.950
 4393POPC   C4B16810   6.509  18.468   7.650
 4394POPC   NC316811  32.296  12.122   9.450
 4394POPC   PO416812  32.277  12.059   9.150
 4394POPC   GL116813  32.287  12.101   8.850
 4394POPC   GL216814  32.272  11.923   8.850
 4394POPC   C1A16815  32.279  12.116   8.550
 4394POPC   D2A16816  32.253  12.080   8.250
 4394POPC   C3A16817  32.247  12.118   7.950
 4394POPC   C4A16818  32.240  12.073   7.650
 4394POPC   C1B16819  32.286  11.787   8.550
 4394POPC   C2B16820  32.241  11.787   8.250
 4394POPC   C3B16821  32.284  11.851   7.950
 4394POPC   C4B16822  32.248  11.781   7.650
 4395POPC   NC316823  18.277  18.273   9.450
 4395POPC   PO416824  18.289  18.251   9.150
 4395POPC   GL116825  18.298  18.267   8.850
 4395POPC   GL216826  18.388  18.430   8.850
 4395POPC   C1A16827  18.316  18.331   8.550
 4395POPC   D2A16828  18.288  18.272   8.250
 4395POPC   C3A16829  18.332  18.276   7.950
 4395POPC   C4A16830  18.331  18.254   7.650
 4395POPC   C1B16831  18.455  18.505   8.550
 4395POPC   C2B16832  18.412  18.456   8.250
 4395POPC   C3B16833  18.461  18.464   7.950
 4395POPC   C4B16834  18.436  18.506   7.650
 4396POPC   NC316835   8.214  28.403   9.450
 4396POPC   PO416836   8.237  28.374   9.150
 4396POPC   GL116837   8.186  28.400   8.850
 4396POPC   GL216838   8.204  28.234   8.850
 4396POPC   C1A16839   8.233  28.415   8.550
 4396POPC   D2A16840   8.171  28.401   8.250
 4396POPC   C3A16841   8.198  28.362   7.950
 4396POPC   C4A16842   8.217  28.392   7.650
 4396POPC   C1B16843   8.189  28.104   8.550
 4396POPC   C2B16844   8.161  28.150   8.250
 4396POPC   C3B16845   8.153  28.089   7.950
 4396POPC   C4B16846   8.240  28.091   7.650
 4397POPC   NC316847  29.132  19.833   9.450
 4397POPC   PO416848  29.163  19.794   9.150
 4397POPC   GL116849  29.110  19.849   8.850
 4397POPC   GL216850  29.196  19.918   8.850
 4397POPC   C1A16851  29.184  19.790   8.550
 4397POPC   D2A16852  29.162  19.845   8.250
 4397POPC   C3A16853  29.146  19.858   7.950
 4397POPC   C4A16854  29.157  19.838   7.650
 4397POPC   C1B16855  29.387  19.963   8.550
 4397POPC   C2B16856  29.388  19.986   8.250
 4397POPC   C3B16857  29.303  19.984   7.950
 4397POPC   C4B16858  29.337  19.993   7.650
 4398POPC   NC316859  21.418  11.295   9.450
 4398POPC   PO416860  21.365  11.342   9.150
 4398POPC   GL116861  21.432  11.318   8.850
 4398POPC   GL216862  21.216  11.255   8.850
 4398POPC   C1A16863  21.365  11.293   8.550
 4398POPC   D2A16864  21.427  11.336   8.250
 4398POPC   C3A16865  21.424  11.331   7.950
 4398POPC   C4A16866  21.351  11.271   7.650
 4398POPC   C1B16867  21.101  11.337   8.550
 4398POPC   C2B16868  21.181  11.307   8.250
 4398POPC   C3B16869  21.106  11.339   7.950
 4398POPC   C4B16870  21.090  11.282   7.650
 4399POPC   NC316871   7.455  30.672   9.450
 4399POPC   PO416872   7.449  30.660   9.150
 4399POPC   GL116873   7.397  30.706   8.850
 4399POPC   GL216874   7.260  30.725   8.850
 4399POPC   C1A16875   7.470  30.705   8.550
 4399POPC   D2A16876   7.406  30.707   8.250
 4399POPC   C3A16877   7.463  30.678   7.950
 4399POPC   C4A16878   7.469  30.723   7.650
 4399POPC   C1B16879   7.132  30.653   8.550
 4399POPC   C2B16880   7.200  30.701   8.250
 4399POPC   C3B16881   7.163  30.685   7.950
 4399POPC   C4B16882   7.138  30.662   7.650
 4400POPC   NC316883  30.708   4.339   9.450
 4400POPC   PO416884  30.702   4.354   9.150
 4400POPC   GL116885  30.746   4.349   8.850
 4400POPC   GL216886  30.805   4.301   8.850
 4400POPC   C1A16887  30.732   4.296   8.550
 4400POPC   D2A16888  30.689   4.308   8.250
 4400POPC   C3A16889  30.684   4.364   7.950
 4400POPC   C4A16890  30.672   4.331   7.650
 4400POPC   C1B16891  30.898   4.356   8.550
 4400POPC   C2B16892  30.923   4.371   8.250
 4400POPC   C3B16893  30.912   4.339   7.950
 4400POPC   C4B16894  30.898   4.337   7.650
 4401POPC   NC316895  44.657   1.190   9.450
 4401POPC   PO416896  44.659   1.241   9.150
 4401POPC   GL116897  44.683   1.195   8.850
 4401POPC   GL216898  44.671   1.296   8.850
 4401POPC   C1A16899  44.685   1.251   8.550
 4401POPC   D2A16900  44.659   1.227   8.250
 4401POPC   C3A16901  44.647   1.217   7.950
 4401POPC   C4A16902  44.695   1.199   7.650
 4401POPC   C1B16903  44.826   1.448   8.550
 4401POPC   C2B16904  44.783   1.466   8.250
 4401POPC   C3B16905  44.735   1.408   7.950
 4401POPC   C4B16906  44.728   1.431   7.650
 4402POPC   NC316907  24.479   5.103   9.450
 4402POPC   PO416908  24.505   5.091   9.150
 4402POPC   GL116909  24.458   5.072   8.850
 4402POPC   GL216910  24.453   5.189   8.850
 4402POPC   C1A16911  24.446   5.088   8.550
 4402POPC   D2A16912  24.444   5.099   8.250
 4402POPC   C3A16913  24.532   5.050   7.950
 4402POPC   C4A16914  24.493   5.052   7.650
 4402POPC   C1B16915  24.462   5.343   8.550
 4402POPC   C2B16916  24.466   5.293   8.250
 4402POPC   C3B16917  24.463   5.288   7.950
 4402POPC   C4B16918  24.447   5.318   7.650
 4403POPC   NC316919  36.092  13.673   9.450
 4403POPC   PO416920  36.122  13.638   9.150
 4403POPC   GL116921  36.164  13.657   8.850
 4403POPC   GL216922  35.968  13.553   8.850
 4403POPC   C1A16923  36.095  13.639   8.550
 4403POPC   D2A16924  36.101  13.620   8.250
 4403POPC   C3A16925  36.155  13.585   7.950
 4403POPC   C4A16926  36.107  13.595   7.650
 4403POPC   C1B16927  35.912  13.499   8.550
 4403POPC   C2B16928  35.889  13.575   8.250
 4403POPC   C3B16929  35.889  13.526   7.950
 4403POPC   C4B16930  35.881  13.558   7.650
 4404POPC   NC316931  23.703  15.188   9.450
 4404POPC   PO416932  23.743  15.207   9.150
 4404POPC   GL116933  23.685  15.214   8.850
 4404POPC   GL216934  23.801  15.282   8.850
 4404POPC   C1A16935  23.674  15.221   8.550
 4404POPC   D2A16936  23.669  15.172   8.250
 4404POPC   C3A16937  23.742  15.225   7.950
 4404POPC   C4A16938  23.684  15.196   7.650
 4404POPC   C1B16939  23.950  15.392   8.550
 4404POPC   C2B16940  23.860  15.312   8.250
 4404POPC   C3B16941  23.927  15.299   7.950
 4404POPC   C4B16942  23.880  15.328   7.650
 4405POPC   NC316943  41.571  26.054   9.450
 4405POPC   PO416944  41.584  26.040   9.150
 4405POPC   GL116945  41.527  26.017   8.850
 4405POPC   GL216946  41.471  26.058   8.850
 4405POPC   C1A16947  41.586  26.069   8.550
 4405POPC   D2A16948  41.541  26.046   8.250
 4405POPC   C3A16949  41.546  26.068   7.950
 4405POPC   C4A16950  41.516  26.011   7.650
 4405POPC   C1B16951  41.356  25.994   8.550
 4405POPC   C2B16952  41.280  26.021   8.250
 4405POPC   C3B16953  41.362  26.032   7.950
 4405POPC   C4B16954  41.281  26.027   7.650
 4406POPC   NC316955  43.897   8.180   9.450
 4406POPC   PO416956  43.868   8.176   9.150
 4406POPC   GL116957  43.934   8.217   8.850
 4406POPC   GL216958  43.785   8.297   8.850
 4406POPC   C1A16959  43.870   8.234   8.550
 4406POPC   D2A16960  43.920   8.236   8.250
 4406POPC   C3A16961  43.837   8.152   7.950
 4406POPC   C4A16962  43.894   8.243   7.650
 4406POPC   C1B16963  43.651   8.344   8.550
 4406POPC   C2B16964  43.706   8.361   8.250
 4406POPC   C3B16965  43.715   8.317   7.950
 4406POPC   C4B16966  43.634   8.322   7.650
 4407POPC   NC316967  19.820  28.339   9.450
 4407POPC   PO416968  19.879  28.353   9.150
 4407POPC   GL116969  19.857  28.340   8.850
 4407POPC   GL216970  19.978  28.379   8.850
 4407POPC   C1A16971  19.865  28.390   8.550
 4407POPC   D2A16972  19.808  28.352   8.250
 4407POPC   C3A16973  19.821  28.397   7.950
 4407POPC   C4A16974  19.820  28.385   7.650
 4407POPC   C1B16975  20.093  28.373   8.550
 4407POPC   C2B16976  20.061  28.353   8.250
 4407POPC   C3B16977  20.126  28.357   7.950
 4407POPC   C4B16978  20.106  28.403   7.650
 4408POPC   NC316979   3.568  33.766   9.450
 4408POPC   PO416980   3.578  33.771   9.150
 4408POPC   GL116981   3.528  33.770   8.850
 4408POPC   GL216982   3.611  33.751   8.850
 4408POPC   C1A16983   3.542  33.757   8.550
 4408POPC   D2A16984   3.588  33.754   8.250
 4408POPC   C3A16985   3.576  33.816   7.950
 4408POPC   C4A16986   3.573  33.759   7.650
 4408POPC   C1B16987   3.766  33.693   8.550
 4408POPC   C2B16988   3.807  33.683   8.250
 4408POPC   C3B16989   3.789  33.726   7.950
 4408POPC   C4B16990   3.812  33.737   7.650
 4409POPC   NC316991  22.963  10.512   9.450
 4409POPC   PO416992  22.942  10.553   9.150
 4409POPC   GL116993  22.979  10.474   8.850
 4409POPC   GL216994  22.858  10.647   8.850
 4409POPC   C1A16995  22.920  10.546   8.550
 4409POPC   D2A16996  22.894  10.569   8.250
 4409POPC   C3A16997  22.915  10.539   7.950
 4409POPC   C4A16998  22.938  10.558   7.650
 4409POPC   C1B16999  22.836  10.716   8.550
 4409POPC   C2B17000  22.907  10.768   8.250
 4409POPC   C3B17001  22.838  10.760   7.950
 4409POPC   C4B17002  22.916  10.814   7.650
 4410POPC   NC317003  15.949  40.821   9.450
 4410POPC   PO417004  15.986  40.823   9.150
 4410POPC   GL117005  15.996  40.776   8.850
 4410POPC   GL217006  15.845  40.694   8.850
 4410POPC   C1A17007  15.955  40.768   8.550
 4410POPC   D2A17008  15.989  40.733   8.250
 4410POPC   C3A17009  15.923  40.823   7.950
 4410POPC   C4A17010  15.982  40.773   7.650
 4410POPC   C1B17011  15.814  40.565   8.550
 4410POPC   C2B17012  15.814  40.546   8.250
 4410POPC   C3B17013  15.803  40.548   7.950
 4410POPC   C4B17014  15.857  40.536   7.650
 4411POPC   NC317015  32.211  34.561   9.450
 4411POPC   PO417016  32.223  34.617   9.150
 4411POPC   GL117017  32.281  34.564   8.850
 4411POPC   GL217018  32.354  34.621   8.850
 4411POPC   C1A17019  32.284  34.588   8.550
 4411POPC   D2A17020  32.286  34.617   8.250
 4411POPC   C3A17021  32.271  34.531   7.950
 4411POPC   C4A17022  32.295  34.546   7.650
 4411POPC   C1B17023  32.437  34.674   8.550
 4411POPC   C2B17024  32.417  34.738   8.250
 4411POPC   C3B17025  32.432  34.697   7.950
 4411POPC   C4B17026  32.471  34.680   7.650
 4412POPC   NC317027   6.602   1.259   9.450
 4412POPC   PO417028   6.684   1.219   9.150
 4412POPC   GL117029   6.664   1.211   8.850
 4412POPC   GL217030   6.592   1.125   8.850
 4412POPC   C1A17031   6.650   1.244   8.550
 4412POPC   D2A17032   6.603   1.252   8.250
 4412POPC   C3A17033   6.687   1.252   7.950
 4412POPC   C4A17034   6.604   1.244   7.650
 4412POPC   C1B17035   6.500   1.084   8.550
 4412POPC   C2B17036   6.501   1.047   8.250
 4412POPC   C3B17037   6.465   1.039   7.950
 4412POPC   C4B17038   6.439   1.005   7.650
 4413POPC   NC317039  15.176  20.564   9.450
 4413POPC   PO417040  15.138  20.579   9.150
 4413POPC   GL117041  15.205  20.657   8.850
 4413POPC   GL217042  15.305  20.601   8.850
 4413POPC   C1A17043  15.218  20.638   8.550
 4413POPC   D2A17044  15.195  20.579   8.250
 4413POPC   C3A17045  15.205  20.565   7.950
 4413POPC   C4A17046  15.185  20.639   7.650
 4413POPC   C1B17047  15.460  20.607   8.550
 4413POPC   C2B17048  15.462  20.613   8.250
 4413POPC   C3B17049  15.379  20.563   7.950
 4413POPC   C4B17050  15.422  20.585   7.650
 4414POPC   NC317051   6.633  12.084   9.450
 4414POPC   PO417052   6.662  12.053   9.150
 4414POPC   GL117053   6.610  12.055   8.850
 4414POPC   GL217054   6.542  12.094   8.850
 4414POPC   C1A17055   6.596  12.098   8.550
 4414POPC   D2A17056   6.636  12.093   8.250
 4414POPC   C3A17057   6.674  12.125   7.950
 4414POPC   C4A17058   6.612  12.125   7.650
 4414POPC   C1B17059   6.395  12.181   8.550
 4414POPC   C2B17060   6.430  12.192   8.250
 4414POPC   C3B17061   6.411  12.177   7.950
 4414POPC   C4B17062   6.401  12.233   7.650
 4415POPC   NC317063   0.441  14.452   9.450
 4415POPC   PO417064   0.442  14.388   9.150
 4415POPC   GL117065   0.424  14.360   8.850
 4415POPC   GL217066   0.290  14.372   8.850
 4415POPC   C1A17067   0.413  14.390   8.550
 4415POPC   D2A17068   0.401  14.412   8.250
 4415POPC   C3A17069   0.438  14.396   7.950
 4415POPC   C4A17070   0.414  14.413   7.650
 4415POPC   C1B17071   0.199  14.332   8.550
 4415POPC   C2B17072   0.175  14.298   8.250
 4415POPC   C3B17073   0.166  14.341   7.950
 4415POPC   C4B17074   0.208  14.337   7.650
 4416POPC   NC317075  12.047  33.816   9.450
 4416POPC   PO417076  12.110  33.822   9.150
 4416POPC   GL117077  12.029  33.773   8.850
 4416POPC   GL217078  12.009  33.699   8.850
 4416POPC   C1A17079  12.108  33.774   8.550
 4416POPC   D2A17080  12.072  33.778   8.250
 4416POPC   C3A17081  12.093  33.782   7.950
 4416POPC   C4A17082  12.099  33.810   7.650
 4416POPC   C1B17083  11.990  33.531   8.550
 4416POPC   C2B17084  12.076  33.574   8.250
 4416POPC   C3B17085  12.068  33.556   7.950
 4416POPC   C4B17086  12.054  33.556   7.650
 4417POPC   NC317087  43.123  34.619   9.450
 4417POPC   PO417088  43.108  34.616   9.150
 4417POPC   GL117089  43.069  34.597   8.850
 4417POPC   GL217090  43.257  34.522   8.850
 4417POPC   C1A17091  43.086  34.591   8.550
 4417POPC   D2A17092  43.134  34.530   8.250
 4417POPC   C3A17093  43.118  34.570   7.950
 4417POPC   C4A17094  43.067  34.594   7.650
 4417POPC   C1B17095  43.391  34.470   8.550
 4417POPC   C2B17096  43.332  34.514   8.250
 4417POPC   C3B17097  43.387  34.494   7.950
 4417POPC   C4B17098  43.326  34.512   7.650
 4418POPC   NC317099  39.962  40.779   9.450
 4418POPC   PO417100  39.986  40.820   9.150
 4418POPC   GL117101  39.978  40.792   8.850
 4418POPC   GL217102  39.882  40.899   8.850
 4418POPC   C1A17103  39.995  40.795   8.550
 4418POPC   D2A17104  40.028  40.753   8.250
 4418POPC   C3A17105  40.001  40.794   7.950
 4418POPC   C4A17106  39.960  40.787   7.650
 4418POPC   C1B17107  39.845  41.020   8.550
 4418POPC   C2B17108  39.844  41.031   8.250
 4418POPC   C3B17109  39.834  40.947   7.950
 4418POPC   C4B17110  39.877  40.985   7.650
 4419POPC   NC317111  39.224  18.287   9.450
 4419POPC   PO417112  39.214  18.237   9.150
 4419POPC   GL117113  39.228  18.323   8.850
 4419POPC   GL217114  39.311  18.342   8.850
 4419POPC   C1A17115  39.208  18.318   8.550
 4419POPC   D2A17116  39.214  18.269   8.250
 4419POPC   C3A17117  39.224  18.239   7.950
 4419POPC   C4A17118  39.215  18.332   7.650
 4419POPC   C1B17119  39.405  18.509   8.550
 4419POPC   C2B17120  39.408  18.436   8.250
 4419POPC   C3B17121  39.443  18.498   7.950
 4419POPC   C4B17122  39.372  18.430   7.650
 4420POPC   NC317123   0.481  44.617   9.450
 4420POPC   PO417124   0.413  44.620   9.150
 4420POPC   GL117125   0.417  44.612   8.850
 4420POPC   GL217126   0.371  44.784   8.850
 4420POPC   C1A17127   0.390  44.694   8.550
 4420POPC   D2A17128   0.462  44.648   8.250
 4420POPC   C3A17129   0.446  44.654   7.950
 4420POPC   C4A17130   0.408  44.700   7.650
 4420POPC   C1B17131   0.323  44.818   8.550
 4420POPC   C2B17132   0.309  44.853   8.250
 4420POPC   C3B17133   0.305  44.847   7.950
 4420POPC   C4B17134   0.305  44.872   7.650
 4421POPC   NC317135  12.837   0.479   9.450
 4421POPC   PO417136  12.823   0.461   9.150
 4421POPC   GL117137  12.900   0.405   8.850
 4421POPC   GL217138  12.840   0.285   8.850
 4421POPC   C1A17139  12.896   0.431   8.550
 4421POPC   D2A17140  12.853   0.394   8.250
 4421POPC   C3A17141  12.829   0.428   7.950
 4421POPC   C4A17142  12.822   0.464   7.650
 4421POPC   C1B17143  12.837   0.190   8.550
 4421POPC   C2B17144  12.833   0.200   8.250
 4421POPC   C3B17145  12.745   0.233   7.950
 4421POPC   C4B17146  12.757   0.160   7.650
 4422POPC   NC317147  27.621   5.045   9.450
 4422POPC   PO417148  27.566   5.130   9.150
 4422POPC   GL117149  27.606   5.114   8.850
 4422POPC   GL217150  27.615   5.255   8.850
 4422POPC   C1A17151  27.560   5.075   8.550
 4422POPC   D2A17152  27.620   5.139   8.250
 4422POPC   C3A17153  27.559   5.049   7.950
 4422POPC   C4A17154  27.569   5.082   7.650
 4422POPC   C1B17155  27.589   5.341   8.550
 4422POPC   C2B17156  27.533   5.328   8.250
 4422POPC   C3B17157  27.579   5.338   7.950
 4422POPC   C4B17158  27.587   5.365   7.650
 4423POPC   NC317159  41.546  43.913   9.450
 4423POPC   PO417160  41.562  43.923   9.150
 4423POPC   GL117161  41.581  43.845   8.850
 4423POPC   GL217162  41.553  44.047   8.850
 4423POPC   C1A17163  41.597  43.935   8.550
 4423POPC   D2A17164  41.570  43.911   8.250
 4423POPC   C3A17165  41.565  43.926   7.950
 4423POPC   C4A17166  41.549  43.934   7.650
 4423POPC   C1B17167  41.660  44.122   8.550
 4423POPC   C2B17168  41.615  44.082   8.250
 4423POPC   C3B17169  41.611  44.095   7.950
 4423POPC   C4B17170  41.593  44.102   7.650
 4424POPC   NC317171  26.056  12.089   9.450
 4424POPC   PO417172  26.049  12.119   9.150
 4424POPC   GL117173  26.021  12.068   8.850
 4424POPC   GL217174  26.016  11.960   8.850
 4424POPC   C1A17175  26.062  12.121   8.550
 4424POPC   D2A17176  26.070  12.072   8.250
 4424POPC   C3A17177  26.001  12.049   7.950
 4424POPC   C4A17178  26.008  12.071   7.650
 4424POPC   C1B17179  25.978  11.799   8.550
 4424POPC   C2B17180  25.935  11.814   8.250
 4424POPC   C3B17181  25.954  11.799   7.950
 4424POPC   C4B17182  25.912  11.837   7.650
 4425POPC   NC317183  29.924  10.540   9.450
 4425POPC   PO417184  29.875  10.554   9.150
 4425POPC   GL117185  29.912  10.479   8.850
 4425POPC   GL217186  29.759  10.453   8.850
 4425POPC   C1A17187  29.919  10.500   8.550
 4425POPC   D2A17188  29.958  10.495   8.250
 4425POPC   C3A17189  29.945  10.556   7.950
 4425POPC   C4A17190  29.946  10.564   7.650
 4425POPC   C1B17191  29.694  10.483   8.550
 4425POPC   C2B17192  29.656  10.450   8.250
 4425POPC   C3B17193  29.725  10.480   7.950
 4425POPC   C4B17194  29.721  10.417   7.650
 4426POPC   NC317195   8.230  17.514   9.450
 4426POPC   PO417196   8.217  17.526   9.150
 4426POPC   GL117197   8.213  17.463   8.850
 4426POPC   GL217198   8.290  17.574   8.850
 4426POPC   C1A17199   8.147  17.541   8.550
 4426POPC   D2A17200   8.191  17.545   8.250
 4426POPC   C3A17201   8.181  17.527   7.950
 4426POPC   C4A17202   8.158  17.524   7.650
 4426POPC   C1B17203   8.336  17.648   8.550
 4426POPC   C2B17204   8.411  17.704   8.250
 4426POPC   C3B17205   8.393  17.696   7.950
 4426POPC   C4B17206   8.399  17.672   7.650
 4427POPC   NC317207  39.186  36.088   9.450
 4427POPC   PO417208  39.279  36.173   9.150
 4427POPC   GL117209  39.199  36.154   8.850
 4427POPC   GL217210  39.333  36.286   8.850
 4427POPC   C1A17211  39.258  36.110   8.550
 4427POPC   D2A17212  39.224  36.100   8.250
 4427POPC   C3A17213  39.243  36.122   7.950
 4427POPC   C4A17214  39.191  36.173   7.650
 4427POPC   C1B17215  39.321  36.401   8.550
 4427POPC   C2B17216  39.315  36.403   8.250
 4427POPC   C3B17217  39.384  36.305   7.950
 4427POPC   C4B17218  39.380  36.313   7.650
 4428POPC   NC317219  36.948  32.248   9.450
 4428POPC   PO417220  36.950  32.285   9.150
 4428POPC   GL117221  36.900  32.285   8.850
 4428POPC   GL217222  36.860  32.373   8.850
 4428POPC   C1A17223  36.879  32.227   8.550
 4428POPC   D2A17224  36.871  32.216   8.250
 4428POPC   C3A17225  36.889  32.233   7.950
 4428POPC   C4A17226  36.866  32.295   7.650
 4428POPC   C1B17227  36.734  32.387   8.550
 4428POPC   C2B17228  36.774  32.474   8.250
 4428POPC   C3B17229  36.703  32.462   7.950
 4428POPC   C4B17230  36.736  32.430   7.650
 4429POPC   NC317231  42.327   8.161   9.450
 4429POPC   PO417232  42.298   8.235   9.150
 4429POPC   GL117233  42.305   8.223   8.850
 4429POPC   GL217234  42.317   8.340   8.850
 4429POPC   C1A17235  42.313   8.233   8.550
 4429POPC   D2A17236  42.305   8.211   8.250
 4429POPC   C3A17237  42.330   8.222   7.950
 4429POPC   C4A17238  42.382   8.219   7.650
 4429POPC   C1B17239  42.234   8.445   8.550
 4429POPC   C2B17240  42.309   8.406   8.250
 4429POPC   C3B17241  42.257   8.451   7.950
 4429POPC   C4B17242  42.262   8.444   7.650
 4430POPC   NC317243  18.240  15.981   9.450
 4430POPC   PO417244  18.255  15.907   9.150
 4430POPC   GL117245  18.233  15.998   8.850
 4430POPC   GL217246  18.145  16.008   8.850
 4430POPC   C1A17247  18.239  15.960   8.550
 4430POPC   D2A17248  18.327  15.945   8.250
 4430POPC   C3A17249  18.321  15.939   7.950
 4430POPC   C4A17250  18.267  15.944   7.650
 4430POPC   C1B17251  18.095  16.041   8.550
 4430POPC   C2B17252  18.014  16.038   8.250
 4430POPC   C3B17253  18.035  15.999   7.950
 4430POPC   C4B17254  18.068  16.066   7.650
 4431POPC   NC317255  25.251   0.400   9.450
 4431POPC   PO417256  25.296   0.473   9.150
 4431POPC   GL117257  25.312   0.471   8.850
 4431POPC   GL217258  25.202   0.334   8.850
 4431POPC   C1A17259  25.315   0.475   8.550
 4431POPC   D2A17260  25.217   0.427   8.250
 4431POPC   C3A17261  25.220   0.417   7.950
 4431POPC   C4A17262  25.300   0.476   7.650
 4431POPC   C1B17263  25.196   0.185   8.550
 4431POPC   C2B17264  25.201   0.166   8.250
 4431POPC   C3B17265  25.182   0.236   7.950
 4431POPC   C4B17266  25.211   0.141   7.650
 4432POPC   NC317267  33.012  33.017   9.450
 4432POPC   PO417268  33.038  32.994   9.150
 4432POPC   GL117269  33.015  33.045   8.850
 4432POPC   GL217270  32.888  33.099   8.850
 4432POPC   C1A17271  33.018  33.074   8.550
 4432POPC   D2A17272  33.049  33.037   8.250
 4432POPC   C3A17273  33.035  33.032   7.950
 4432POPC   C4A17274  33.026  33.037   7.650
 4432POPC   C1B17275  32.821  33.078   8.550
 4432POPC   C2B17276  32.773  33.107   8.250
 4432POPC   C3B17277  32.753  33.094   7.950
 4432POPC   C4B17278  32.795  33.124   7.650
 4433POPC   NC317279  33.776   8.171   9.450
 4433POPC   PO417280  33.760   8.210   9.150
 4433POPC   GL117281  33.842   8.180   8.850
 4433POPC   GL217282  33.691   8.307   8.850
 4433POPC   C1A17283  33.828   8.244   8.550
 4433POPC   D2A17284  33.801   8.198   8.250
 4433POPC   C3A17285  33.800   8.214   7.950
 4433POPC   C4A17286  33.786   8.242   7.650
 4433POPC   C1B17287  33.645   8.360   8.550
 4433POPC   C2B17288  33.589   8.346   8.250
 4433POPC   C3B17289  33.628   8.364   7.950
 4433POPC   C4B17290  33.580   8.357   7.650
 4434POPC   NC317291  44.630  15.172   9.450
 4434POPC   PO417292  44.708  15.206   9.150
 4434POPC   GL117293  44.618  15.222   8.850
 4434POPC   GL217294  44.514  15.165   8.850
 4434POPC   C1A17295  44.702  15.208   8.550
 4434POPC   D2A17296  44.695  15.168   8.250
 4434POPC   C3A17297  44.684  15.149   7.950
 4434POPC   C4A17298  44.627  15.171   7.650
 4434POPC   C1B17299  44.428  15.107   8.550
 4434POPC   C2B17300  44.443  15.127   8.250
 4434POPC   C3B17301  44.417  15.112   7.950
 4434POPC   C4B17302  44.417  15.194   7.650
 4435POPC   NC317303  39.193   5.100   9.450
 4435POPC   PO417304  39.234   5.127   9.150
 4435POPC   GL117305  39.276   5.143   8.850
 4435POPC   GL217306  39.333   5.004   8.850
 4435POPC   C1A17307  39.200   5.110   8.550
 4435POPC   D2A17308  39.187   5.086   8.250
 4435POPC   C3A17309  39.228   5.098   7.950
 4435POPC   C4A17310  39.215   5.108   7.650
 4435POPC   C1B17311  39.391   4.826   8.550
 4435POPC   C2B17312  39.299   4.916   8.250
 4435POPC   C3B17313  39.389   4.854   7.950
 4435POPC   C4B17314  39.367   4.834   7.650
 4436POPC   NC317315  43.092   5.899   9.450
 4436POPC   PO417316  43.076   5.852   9.150
 4436POPC   GL117317  43.159   5.845   8.850
 4436POPC   GL217318  43.210   5.848   8.850
 4436POPC   C1A17319  43.080   5.890   8.550
 4436POPC   D2A17320  43.119   5.848   8.250
 4436POPC   C3A17321  43.104   5.896   7.950
 4436POPC   C4A17322  43.096   5.863   7.650
 4436POPC   C1B17323  43.343   5.755   8.550
 4436POPC   C2B17324  43.279   5.750   8.250
 4436POPC   C3B17325  43.363   5.683   7.950
 4436POPC   C4B17326  43.326   5.749   7.650
 4437POPC   NC317327  18.282  17.470   9.450
 4437POPC   PO417328  18.255  17.541   9.150
 4437POPC   GL117329  18.309  17.515   8.850
 4437POPC   GL217330  18.129  17.478   8.850
 4437POPC   C1A17331  18.250  17.503   8.550
 4437POPC   D2A17332  18.270  17.536   8.250
 4437POPC   C3A17333  18.247  17.461   7.950
 4437POPC   C4A17334  18.245  17.536   7.650
 4437POPC   C1B17335  18.045  17.376   8.550
 4437POPC   C2B17336  18.068  17.370   8.250
 4437POPC   C3B17337  18.070  17.365   7.950
 4437POPC   C4B17338  18.030  17.446   7.650
 4438POPC   NC317339  26.050  43.916   9.450
 4438POPC   PO417340  25.997  43.893   9.150
 4438POPC   GL117341  26.073  43.880   8.850
 4438POPC   GL217342  26.063  43.758   8.850
 4438POPC   C1A17343  26.074  43.842   8.550
 4438POPC   D2A17344  26.064  43.873   8.250
 4438POPC   C3A17345  26.042  43.886   7.950
 4438POPC   C4A17346  26.032  43.843   7.650
 4438POPC   C1B17347  26.066  43.610   8.550
 4438POPC   C2B17348  26.032  43.640   8.250
 4438POPC   C3B17349  26.061  43.597   7.950
 4438POPC   C4B17350  26.059  43.640   7.650
 4439POPC   NC317351  15.919   1.225   9.450
 4439POPC   PO417352  15.980   1.237   9.150
 4439POPC   GL117353  15.967   1.217   8.850
 4439POPC   GL217354  15.849   1.273   8.850
 4439POPC   C1A17355  15.993   1.245   8.550
 4439POPC   D2A17356  15.920   1.239   8.250
 4439POPC   C3A17357  15.961   1.181   7.950
 4439POPC   C4A17358  15.953   1.240   7.650
 4439POPC   C1B17359  15.749   1.216   8.550
 4439POPC   C2B17360  15.705   1.223   8.250
 4439POPC   C3B17361  15.710   1.242   7.950
 4439POPC   C4B17362  15.664   1.253   7.650
 4440POPC   NC317363  32.274  42.294   9.450
 4440POPC   PO417364  32.270  42.359   9.150
 4440POPC   GL117365  32.295  42.304   8.850
 4440POPC   GL217366  32.363  42.302   8.850
 4440POPC   C1A17367  32.218  42.292   8.550
 4440POPC   D2A17368  32.213  42.331   8.250
 4440POPC   C3A17369  32.268  42.299   7.950
 4440POPC   C4A17370  32.206  42.299   7.650
 4440POPC   C1B17371  32.507  42.211   8.550
 4440POPC   C2B17372  32.439  42.216   8.250
 4440POPC   C3B17373  32.430  42.219   7.950
 4440POPC   C4B17374  32.516  42.271   7.650
 4441POPC   NC317375  14.393  15.922   9.450
 4441POPC   PO417376  14.390  15.947   9.150
 4441POPC   GL117377  14.447  15.986   8.850
 4441POPC   GL217378  14.480  16.006   8.850
 4441POPC   C1A17379  14.370  15.931   8.550
 4441POPC   D2A17380  14.411  15.976   8.250
 4441POPC   C3A17381  14.374  15.935   7.950
 4441POPC   C4A17382  14.393  15.976   7.650
 4441POPC   C1B17383  14.642  15.996   8.550
 4441POPC   C2B17384  14.643  16.017   8.250
 4441POPC   C3B17385  14.675  15.950   7.950
 4441POPC   C4B17386  14.620  15.976   7.650
 4442POPC   NC317387   8.204  22.153   9.450
 4442POPC   PO417388   8.174  22.199   9.150
 4442POPC   GL117389   8.220  22.200   8.850
 4442POPC   GL217390   8.046  22.069   8.850
 4442POPC   C1A17391   8.220  22.159   8.550
 4442POPC   D2A17392   8.191  22.197   8.250
 4442POPC   C3A17393   8.179  22.126   7.950
 4442POPC   C4A17394   8.195  22.144   7.650
 4442POPC   C1B17395   8.007  22.010   8.550
 4442POPC   C2B17396   7.995  22.026   8.250
 4442POPC   C3B17397   8.000  22.021   7.950
 4442POPC   C4B17398   7.979  22.006   7.650
 4443POPC   NC317399  28.323  36.165   9.450
 4443POPC   PO417400  28.329  36.162   9.150
 4443POPC   GL117401  28.375  36.113   8.850
 4443POPC   GL217402  28.242  36.089   8.850
 4443POPC   C1A17403  28.334  36.167   8.550
 4443POPC   D2A17404  28.355  36.096   8.250
 4443POPC   C3A17405  28.398  36.111   7.950
 4443POPC   C4A17406  28.372  36.129   7.650
 4443POPC   C1B17407  28.093  36.108   8.550
 4443POPC   C2B17408  28.096  36.094   8.250
 4443POPC   C3B17409  28.147  36.053   7.950
 4443POPC   C4B17410  28.154  36.068   7.650
 4444POPC   NC317411  33.815   2.788   9.450
 4444POPC   PO417412  33.820   2.793   9.150
 4444POPC   GL117413  33.835   2.768   8.850
 4444POPC   GL217414  33.655   2.862   8.850
 4444POPC   C1A17415  33.774   2.779   8.550
 4444POPC   D2A17416  33.786   2.777   8.250
 4444POPC   C3A17417  33.844   2.783   7.950
 4444POPC   C4A17418  33.770   2.718   7.650
 4444POPC   C1B17419  33.591   2.895   8.550
 4444POPC   C2B17420  33.605   2.947   8.250
 4444POPC   C3B17421  33.645   2.957   7.950
 4444POPC   C4B17422  33.582   2.924   7.650
 4445POPC   NC317423  40.746  22.200   9.450
 4445POPC   PO417424  40.745  22.206   9.150
 4445POPC   GL117425  40.786  22.206   8.850
 4445POPC   GL217426  40.866  22.049   8.850
 4445POPC   C1A17427  40.790  22.199   8.550
 4445POPC   D2A17428  40.828  22.120   8.250
 4445POPC   C3A17429  40.734  22.140   7.950
 4445POPC   C4A17430  40.789  22.137   7.650
 4445POPC   C1B17431  40.860  21.975   8.550
 4445POPC   C2B17432  40.841  21.977   8.250
 4445POPC   C3B17433  40.826  21.906   7.950
 4445POPC   C4B17434  40.896  21.948   7.650
 4446POPC   NC317435  16.696   9.760   9.450
 4446POPC   PO417436  16.748   9.797   9.150
 4446POPC   GL117437  16.717   9.785   8.850
 4446POPC   GL217438  16.591   9.797   8.850
 4446POPC   C1A17439  16.716   9.753   8.550
 4446POPC   D2A17440  16.769   9.721   8.250
 4446POPC   C3A17441  16.749   9.699   7.950
 4446POPC   C4A17442  16.703   9.782   7.650
 4446POPC   C1B17443  16.496   9.775   8.550
 4446POPC   C2B17444  16.437   9.830   8.250
 4446POPC   C3B17445  16.517   9.773   7.950
 4446POPC   C4B17446  16.525   9.835   7.650
 4447POPC   NC317447  36.912  43.862   9.450
 4447POPC   PO417448  36.898  43.899   9.150
 4447POPC   GL117449  36.942  43.837   8.850
 4447POPC   GL217450  36.861  43.941   8.850
 4447POPC   C1A17451  36.891  43.893   8.550
 4447POPC   D2A17452  36.866  43.933   8.250
 4447POPC   C3A17453  36.916  43.891   7.950
 4447POPC   C4A17454  36.940  43.883   7.650
 4447POPC   C1B17455  36.739  44.073   8.550
 4447POPC   C2B17456  36.720  44.057   8.250
 4447POPC   C3B17457  36.745  44.035   7.950
 4447POPC   C4B17458  36.726  44.029   7.650
 4448POPC   NC317459  10.509   8.231   9.450
 4448POPC   PO417460  10.495   8.233   9.150
 4448POPC   GL117461  10.574   8.163   8.850
 4448POPC   GL217462  10.553   8.119   8.850
 4448POPC   C1A17463  10.537   8.153   8.550
 4448POPC   D2A17464  10.488   8.242   8.250
 4448POPC   C3A17465  10.530   8.196   7.950
 4448POPC   C4A17466  10.492   8.226   7.650
 4448POPC   C1B17467  10.578   7.951   8.550
 4448POPC   C2B17468  10.578   7.995   8.250
 4448POPC   C3B17469  10.617   7.932   7.950
 4448POPC   C4B17470  10.632   7.995   7.650
 4449POPC   NC317471   7.426  39.975   9.450
 4449POPC   PO417472   7.438  40.046   9.150
 4449POPC   GL117473   7.452  40.052   8.850
 4449POPC   GL217474   7.347  40.154   8.850
 4449POPC   C1A17475   7.412  40.008   8.550
 4449POPC   D2A17476   7.461  40.043   8.250
 4449POPC   C3A17477   7.434  40.047   7.950
 4449POPC   C4A17478   7.444  40.004   7.650
 4449POPC   C1B17479   7.266  40.172   8.550
 4449POPC   C2B17480   7.287  40.260   8.250
 4449POPC   C3B17481   7.240  40.242   7.950
 4449POPC   C4B17482   7.290  40.173   7.650
 4450POPC   NC317483  23.749  11.274   9.450
 4450POPC   PO417484  23.700  11.333   9.150
 4450POPC   GL117485  23.729  11.280   8.850
 4450POPC   GL217486  23.658  11.411   8.850
 4450POPC   C1A17487  23.684  11.340   8.550
 4450POPC   D2A17488  23.757  11.348   8.250
 4450POPC   C3A17489  23.699  11.332   7.950
 4450POPC   C4A17490  23.668  11.294   7.650
 4450POPC   C1B17491  23.533  11.498   8.550
 4450POPC   C2B17492  23.579  11.486   8.250
 4450POPC   C3B17493  23.535  11.483   7.950
 4450POPC   C4B17494  23.535  11.514   7.650
 4451POPC   NC317495   5.055   8.199   9.450
 4451POPC   PO417496   5.123   8.207   9.150
 4451POPC   GL117497   5.111   8.228   8.850
 4451POPC   GL217498   5.180   8.104   8.850
 4451POPC   C1A17499   5.098   8.155   8.550
 4451POPC   D2A17500   5.119   8.230   8.250
 4451POPC   C3A17501   5.080   8.200   7.950
 4451POPC   C4A17502   5.099   8.172   7.650
 4451POPC   C1B17503   5.286   8.035   8.550
 4451POPC   C2B17504   5.260   7.962   8.250
 4451POPC   C3B17505   5.196   8.030   7.950
 4451POPC   C4B17506   5.226   7.993   7.650
 4452POPC   NC317507  16.697  34.570   9.450
 4452POPC   PO417508  16.727  34.577   9.150
 4452POPC   GL117509  16.741  34.554   8.850
 4452POPC   GL217510  16.571  34.572   8.850
 4452POPC   C1A17511  16.691  34.554   8.550
 4452POPC   D2A17512  16.700  34.563   8.250
 4452POPC   C3A17513  16.730  34.550   7.950
 4452POPC   C4A17514  16.687  34.589   7.650
 4452POPC   C1B17515  16.450  34.478   8.550
 4452POPC   C2B17516  16.463  34.475   8.250
 4452POPC   C3B17517  16.452  34.458   7.950
 4452POPC   C4B17518  16.466  34.467   7.650
 4453POPC   NC317519  23.737   6.679   9.450
 4453POPC   PO417520  23.755   6.603   9.150
 4453POPC   GL117521  23.707   6.689   8.850
 4453POPC   GL217522  23.821   6.551   8.850
 4453POPC   C1A17523  23.762   6.675   8.550
 4453POPC   D2A17524  23.703   6.661   8.250
 4453POPC   C3A17525  23.709   6.661   7.950
 4453POPC   C4A17526  23.735   6.667   7.650
 4453POPC   C1B17527  23.855   6.486   8.550
 4453POPC   C2B17528  23.841   6.448   8.250
 4453POPC   C3B17529  23.816   6.474   7.950
 4453POPC   C4B17530  23.815   6.436   7.650
 4454POPC   NC317531  39.194  22.916   9.450
 4454POPC   PO417532  39.267  22.974   9.150
 4454POPC   GL117533  39.242  22.963   8.850
 4454POPC   GL217534  39.395  22.989   8.850
 4454POPC   C1A17535  39.214  22.923   8.550
 4454POPC   D2A17536  39.262  22.965   8.250
 4454POPC   C3A17537  39.211  22.945   7.950
 4454POPC   C4A17538  39.206  22.900   7.650
 4454POPC   C1B17539  39.496  23.021   8.550
 4454POPC   C2B17540  39.474  22.955   8.250
 4454POPC   C3B17541  39.474  23.009   7.950
 4454POPC   C4B17542  39.472  23.038   7.650
 4455POPC   NC317543  32.279  29.186   9.450
 4455POPC   PO417544  32.259  29.135   9.150
 4455POPC   GL117545  32.236  29.124   8.850
 4455POPC   GL217546  32.170  29.000   8.850
 4455POPC   C1A17547  32.263  29.164   8.550
 4455POPC   D2A17548  32.251  29.163   8.250
 4455POPC   C3A17549  32.211  29.141   7.950
 4455POPC   C4A17550  32.252  29.123   7.650
 4455POPC   C1B17551  32.112  28.886   8.550
 4455POPC   C2B17552  32.183  28.956   8.250
 4455POPC   C3B17553  32.118  28.908   7.950
 4455POPC   C4B17554  32.163  28.873   7.650
 4456POPC   NC317555  22.205  29.917   9.450
 4456POPC   PO417556  22.186  29.887   9.150
 4456POPC   GL117557  22.169  29.949   8.850
 4456POPC   GL217558  22.045  29.979   8.850
 4456POPC   C1A17559  22.170  29.936   8.550
 4456POPC   D2A17560  22.136  29.942   8.250
 4456POPC   C3A17561  22.209  29.947   7.950
 4456POPC   C4A17562  22.119  29.884   7.650
 4456POPC   C1B17563  22.012  30.069   8.550
 4456POPC   C2B17564  21.979  30.102   8.250
 4456POPC   C3B17565  22.018  30.047   7.950
 4456POPC   C4B17566  22.023  30.105   7.650
 4457POPC   NC317567  16.758  18.236   9.450
 4457POPC   PO417568  16.692  18.329   9.150
 4457POPC   GL117569  16.754  18.269   8.850
 4457POPC   GL217570  16.878  18.333   8.850
 4457POPC   C1A17571  16.710  18.251   8.550
 4457POPC   D2A17572  16.700  18.275   8.250
 4457POPC   C3A17573  16.685  18.256   7.950
 4457POPC   C4A17574  16.737  18.250   7.650
 4457POPC   C1B17575  16.976  18.444   8.550
 4457POPC   C2B17576  16.968  18.463   8.250
 4457POPC   C3B17577  16.892  18.463   7.950
 4457POPC   C4B17578  16.959  18.428   7.650
 4458POPC   NC317579  36.173  43.131   9.450
 4458POPC   PO417580  36.129  43.122   9.150
 4458POPC   GL117581  36.150  43.116   8.850
 4458POPC   GL217582  36.206  43.034   8.850
 4458POPC   C1A17583  36.174  43.104   8.550
 4458POPC   D2A17584  36.112  43.132   8.250
 4458POPC   C3A17585  36.083  43.159   7.950
 4458POPC   C4A17586  36.123  43.069   7.650
 4458POPC   C1B17587  36.346  42.942   8.550
 4458POPC   C2B17588  36.319  42.931   8.250
 4458POPC   C3B17589  36.333  42.991   7.950
 4458POPC   C4B17590  36.369  43.001   7.650
 4459POPC   NC317591  13.627  27.590   9.450
 4459POPC   PO417592  13.636  27.560   9.150
 4459POPC   GL117593  13.637  27.573   8.850
 4459POPC   GL217594  13.684  27.713   8.850
 4459POPC   C1A17595  13.663  27.633   8.550
 4459POPC   D2A17596  13.665  27.623   8.250
 4459POPC   C3A17597  13.612  27.598   7.950
 4459POPC   C4A17598  13.631  27.592   7.650
 4459POPC   C1B17599  13.851  27.709   8.550
 4459POPC   C2B17600  13.858  27.740   8.250
 4459POPC   C3B17601  13.850  27.715   7.950
 4459POPC   C4B17602  13.798  27.703   7.650
 4460POPC   NC317603  36.878  35.383   9.450
 4460POPC   PO417604  36.940  35.378   9.150
 4460POPC   GL117605  36.879  35.327   8.850
 4460POPC   GL217606  36.741  35.316   8.850
 4460POPC   C1A17607  36.911  35.314   8.550
 4460POPC   D2A17608  36.883  35.382   8.250
 4460POPC   C3A17609  36.902  35.313   7.950
 4460POPC   C4A17610  36.925  35.333   7.650
 4460POPC   C1B17611  36.624  35.263   8.550
 4460POPC   C2B17612  36.627  35.294   8.250
 4460POPC   C3B17613  36.717  35.270   7.950
 4460POPC   C4B17614  36.671  35.269   7.650
 4461POPC   NC317615   7.411  20.646   9.450
 4461POPC   PO417616   7.373  20.657   9.150
 4461POPC   GL117617   7.452  20.651   8.850
 4461POPC   GL217618   7.505  20.531   8.850
 4461POPC   C1A17619   7.434  20.564   8.550
 4461POPC   D2A17620   7.470  20.567   8.250
 4461POPC   C3A17621   7.414  20.592   7.950
 4461POPC   C4A17622   7.393  20.645   7.650
 4461POPC   C1B17623   7.658  20.496   8.550
 4461POPC   C2B17624   7.686  20.452   8.250
 4461POPC   C3B17625   7.677  20.525   7.950
 4461POPC   C4B17626   7.645  20.471   7.650
 4462POPC   NC317627  17.464   1.201   9.450
 4462POPC   PO417628  17.526   1.240   9.150
 4462POPC   GL117629  17.475   1.186   8.850
 4462POPC   GL217630  17.403   1.286   8.850
 4462POPC   C1A17631  17.469   1.181   8.550
 4462POPC   D2A17632  17.496   1.194   8.250
 4462POPC   C3A17633  17.514   1.211   7.950
 4462POPC   C4A17634  17.528   1.224   7.650
 4462POPC   C1B17635  17.308   1.303   8.550
 4462POPC   C2B17636  17.307   1.269   8.250
 4462POPC   C3B17637  17.248   1.302   7.950
 4462POPC   C4B17638  17.280   1.300   7.650
 4463POPC   NC317639  36.162  25.269   9.450
 4463POPC   PO417640  36.146  25.241   9.150
 4463POPC   GL117641  36.150  25.258   8.850
 4463POPC   GL217642  36.193  25.345   8.850
 4463POPC   C1A17643  36.165  25.233   8.550
 4463POPC   D2A17644  36.113  25.241   8.250
 4463POPC   C3A17645  36.159  25.309   7.950
 4463POPC   C4A17646  36.094  25.306   7.650
 4463POPC   C1B17647  36.354  25.461   8.550
 4463POPC   C2B17648  36.331  25.453   8.250
 4463POPC   C3B17649  36.376  25.372   7.950
 4463POPC   C4B17650  36.329  25.369   7.650
 4464POPC   NC317651  23.684   5.143   9.450
 4464POPC   PO417652  23.679   5.053   9.150
 4464POPC   GL117653  23.675   5.134   8.850
 4464POPC   GL217654  23.717   4.925   8.850
 4464POPC   C1A17655  23.762   5.091   8.550
 4464POPC   D2A17656  23.761   5.128   8.250
 4464POPC   C3A17657  23.683   5.078   7.950
 4464POPC   C4A17658  23.753   5.058   7.650
 4464POPC   C1B17659  23.824   4.892   8.550
 4464POPC   C2B17660  23.820   4.878   8.250
 4464POPC   C3B17661  23.787   4.857   7.950
 4464POPC   C4B17662  23.769   4.851   7.650
 4465POPC   NC317663  26.794  33.061   9.450
 4465POPC   PO417664  26.797  33.001   9.150
 4465POPC   GL117665  26.836  33.059   8.850
 4465POPC   GL217666  26.929  33.075   8.850
 4465POPC   C1A17667  26.859  33.063   8.550
 4465POPC   D2A17668  26.856  33.026   8.250
 4465POPC   C3A17669  26.867  33.038   7.950
 4465POPC   C4A17670  26.856  32.987   7.650
 4465POPC   C1B17671  26.993  33.162   8.550
 4465POPC   C2B17672  27.000  33.216   8.250
 4465POPC   C3B17673  26.972  33.141   7.950
 4465POPC   C4B17674  26.996  33.156   7.650
 4466POPC   NC317675   2.748   6.691   9.450
 4466POPC   PO417676   2.718   6.667   9.150
 4466POPC   GL117677   2.774   6.613   8.850
 4466POPC   GL217678   2.675   6.648   8.850
 4466POPC   C1A17679   2.771   6.693   8.550
 4466POPC   D2A17680   2.751   6.648   8.250
 4466POPC   C3A17681   2.806   6.631   7.950
 4466POPC   C4A17682   2.731   6.690   7.650
 4466POPC   C1B17683   2.538   6.695   8.550
 4466POPC   C2B17684   2.573   6.716   8.250
 4466POPC   C3B17685   2.501   6.708   7.950
 4466POPC   C4B17686   2.541   6.711   7.650
 4467POPC   NC317687   8.937  10.530   9.450
 4467POPC   PO417688   8.924  10.552   9.150
 4467POPC   GL117689   8.944  10.567   8.850
 4467POPC   GL217690   9.038  10.663   8.850
 4467POPC   C1A17691   9.003  10.507   8.550
 4467POPC   D2A17692   8.956  10.499   8.250
 4467POPC   C3A17693   9.019  10.544   7.950
 4467POPC   C4A17694   8.976  10.475   7.650
 4467POPC   C1B17695   9.104  10.711   8.550
 4467POPC   C2B17696   9.074  10.787   8.250
 4467POPC   C3B17697   9.111  10.701   7.950
 4467POPC   C4B17698   9.067  10.752   7.650
 4468POPC   NC317699   9.735  13.660   9.450
 4468POPC   PO417700   9.788  13.616   9.150
 4468POPC   GL117701   9.700  13.597   8.850
 4468POPC   GL217702   9.658  13.636   8.850
 4468POPC   C1A17703   9.730  13.625   8.550
 4468POPC   D2A17704   9.762  13.619   8.250
 4468POPC   C3A17705   9.731  13.623   7.950
 4468POPC   C4A17706   9.750  13.635   7.650
 4468POPC   C1B17707   9.530  13.727   8.550
 4468POPC   C2B17708   9.540  13.758   8.250
 4468POPC   C3B17709   9.539  13.689   7.950
 4468POPC   C4B17710   9.512  13.764   7.650
 4469POPC   NC317711  30.708  18.263   9.450
 4469POPC   PO417712  30.667  18.296   9.150
 4469POPC   GL117713  30.720  18.313   8.850
 4469POPC   GL217714  30.752  18.113   8.850
 4469POPC   C1A17715  30.740  18.240   8.550
 4469POPC   D2A17716  30.728  18.324   8.250
 4469POPC   C3A17717  30.723  18.252   7.950
 4469POPC   C4A17718  30.724  18.291   7.650
 4469POPC   C1B17719  30.719  17.999   8.550
 4469POPC   C2B17720  30.724  18.011   8.250
 4469POPC   C3B17721  30.731  17.990   7.950
 4469POPC   C4B17722  30.763  18.054   7.650
 4470POPC   NC317723  13.587  23.732   9.450
 4470POPC   PO417724  13.655  23.756   9.150
 4470POPC   GL117725  13.676  23.733   8.850
 4470POPC   GL217726  13.657  23.627   8.850
 4470POPC   C1A17727  13.637  23.707   8.550
 4470POPC   D2A17728  13.674  23.748   8.250
 4470POPC   C3A17729  13.638  23.763   7.950
 4470POPC   C4A17730  13.665  23.741   7.650
 4470POPC   C1B17731  13.650  23.494   8.550
 4470POPC   C2B17732  13.669  23.482   8.250
 4470POPC   C3B17733  13.578  23.449   7.950
 4470POPC   C4B17734  13.660  23.425   7.650
 4471POPC   NC317735  32.289  33.779   9.450
 4471POPC   PO417736  32.215  33.775   9.150
 4471POPC   GL117737  32.263  33.757   8.850
 4471POPC   GL217738  32.302  33.651   8.850
 4471POPC   C1A17739  32.282  33.772   8.550
 4471POPC   D2A17740  32.214  33.758   8.250
 4471POPC   C3A17741  32.217  33.847   7.950
 4471POPC   C4A17742  32.265  33.835   7.650
 4471POPC   C1B17743  32.363  33.618   8.550
 4471POPC   C2B17744  32.411  33.608   8.250
 4471POPC   C3B17745  32.357  33.617   7.950
 4471POPC   C4B17746  32.381  33.611   7.650
 4472POPC   NC317747  10.522  26.851   9.450
 4472POPC   PO417748  10.573  26.865   9.150
 4472POPC   GL117749  10.566  26.799   8.850
 4472POPC   GL217750  10.423  26.898   8.850
 4472POPC   C1A17751  10.476  26.791   8.550
 4472POPC   D2A17752  10.570  26.855   8.250
 4472POPC   C3A17753  10.554  26.841   7.950
 4472POPC   C4A17754  10.528  26.861   7.650
 4472POPC   C1B17755  10.322  26.951   8.550
 4472POPC   C2B17756  10.369  27.013   8.250
 4472POPC   C3B17757  10.366  26.956   7.950
 4472POPC   C4B17758  10.306  26.944   7.650
 4473POPC   NC317759  24.486  44.696   9.450
 4473POPC   PO417760  24.526  44.700   9.150
 4473POPC   GL117761  24.478  44.638   8.850
 4473POPC   GL217762  24.517  44.593   8.850
 4473POPC   C1A17763  24.524  44.703   8.550
 4473POPC   D2A17764  24.505  44.653   8.250
 4473POPC   C3A17765  24.445  44.620   7.950
 4473POPC   C4A17766  24.503  44.693   7.650
 4473POPC   C1B17767  24.594  44.389   8.550
 4473POPC   C2B17768  24.559  44.473   8.250
 4473POPC   C3B17769  24.630  44.412   7.950
 4473POPC   C4B17770  24.602  44.465   7.650
 4474POPC   NC317771  30.673  33.766   9.450
 4474POPC   PO417772  30.722  33.782   9.150
 4474POPC   GL117773  30.707  33.833   8.850
 4474POPC   GL217774  30.598  33.853   8.850
 4474POPC   C1A17775  30.660  33.811   8.550
 4474POPC   D2A17776  30.720  33.850   8.250
 4474POPC   C3A17777  30.656  33.809   7.950
 4474POPC   C4A17778  30.721  33.803   7.650
 4474POPC   C1B17779  30.495  33.882   8.550
 4474POPC   C2B17780  30.439  33.829   8.250
 4474POPC   C3B17781  30.450  33.911   7.950
 4474POPC   C4B17782  30.418  33.822   7.650
 4475POPC   NC317783  19.883   8.221   9.450
 4475POPC   PO417784  19.863   8.237   9.150
 4475POPC   GL117785  19.810   8.179   8.850
 4475POPC   GL217786  19.715   8.258   8.850
 4475POPC   C1A17787  19.844   8.204   8.550
 4475POPC   D2A17788  19.872   8.178   8.250
 4475POPC   C3A17789  19.837   8.244   7.950
 4475POPC   C4A17790  19.845   8.160   7.650
 4475POPC   C1B17791  19.654   8.297   8.550
 4475POPC   C2B17792  19.599   8.336   8.250
 4475POPC   C3B17793  19.597   8.314   7.950
 4475POPC   C4B17794  19.595   8.350   7.650
 4476POPC   NC317795   4.288  26.858   9.450
 4476POPC   PO417796   4.302  26.820   9.150
 4476POPC   GL117797   4.269  26.815   8.850
 4476POPC   GL217798   4.258  26.946   8.850
 4476POPC   C1A17799   4.334  26.772   8.550
 4476POPC   D2A17800   4.323  26.798   8.250
 4476POPC   C3A17801   4.329  26.859   7.950
 4476POPC   C4A17802   4.326  26.800   7.650
 4476POPC   C1B17803   4.286  27.030   8.550
 4476POPC   C2B17804   4.288  27.063   8.250
 4476POPC   C3B17805   4.251  27.100   7.950
 4476POPC   C4B17806   4.276  27.034   7.650
 4477POPC   NC317807  12.087  31.461   9.450
 4477POPC   PO417808  12.093  31.441   9.150
 4477POPC   GL117809  12.101  31.508   8.850
 4477POPC   GL217810  11.964  31.425   8.850
 4477POPC   C1A17811  12.041  31.447   8.550
 4477POPC   D2A17812  12.070  31.479   8.250
 4477POPC   C3A17813  12.107  31.428   7.950
 4477POPC   C4A17814  12.109  31.492   7.650
 4477POPC   C1B17815  11.928  31.330   8.550
 4477POPC   C2B17816  11.860  31.341   8.250
 4477POPC   C3B17817  11.873  31.309   7.950
 4477POPC   C4B17818  11.927  31.278   7.650
 4478POPC   NC317819  23.664  17.459   9.450
 4478POPC   PO417820  23.717  17.551   9.150
 4478POPC   GL117821  23.712  17.467   8.850
 4478POPC   GL217822  23.553  17.503   8.850
 4478POPC   C1A17823  23.686  17.498   8.550
 4478POPC   D2A17824  23.690  17.475   8.250
 4478POPC   C3A17825  23.685  17.542   7.950
 4478POPC   C4A17826  23.678  17.499   7.650
 4478POPC   C1B17827  23.498  17.510   8.550
 4478POPC   C2B17828  23.515  17.456   8.250
 4478POPC   C3B17829  23.427  17.436   7.950
 4478POPC   C4B17830  23.493  17.503   7.650
 4479POPC   NC317831  44.675  34.614   9.450
 4479POPC   PO417832  44.635  34.616   9.150
 4479POPC   GL117833  44.702  34.534   8.850
 4479POPC   GL217834  44.683  34.692   8.850
 4479POPC   C1A17835  44.629  34.619   8.550
 4479POPC   D2A17836  44.619  34.566   8.250
 4479POPC   C3A17837  44.700  34.597   7.950
 4479POPC   C4A17838  44.685  34.543   7.650
 4479POPC   C1B17839  44.752  34.827   8.550
 4479POPC   C2B17840  44.744  34.772   8.250
 4479POPC   C3B17841  44.783  34.785   7.950
 4479POPC   C4B17842  44.743  34.825   7.650
 4480POPC   NC317843   9.002  26.087   9.450
 4480POPC   PO417844   9.021  26.031   9.150
 4480POPC   GL117845   8.991  26.054   8.850
 4480POPC   GL217846   8.901  26.143   8.850
 4480POPC   C1A17847   8.978  25.994   8.550
 4480POPC   D2A17848   9.020  26.000   8.250
 4480POPC   C3A17849   9.001  26.025   7.950
 4480POPC   C4A17850   8.941  25.995   7.650
 4480POPC   C1B17851   8.864  26.204   8.550
 4480POPC   C2B17852   8.863  26.242   8.250
 4480POPC   C3B17853   8.807  26.205   7.950
 4480POPC   C4B17854   8.815  26.208   7.650
 4481POPC   NC317855  13.655  38.459   9.450
 4481POPC   PO417856  13.641  38.480   9.150
 4481POPC   GL117857  13.621  38.497   8.850
 4481POPC   GL217858  13.468  38.479   8.850
 4481POPC   C1A17859  13.585  38.501   8.550
 4481POPC   D2A17860  13.677  38.424   8.250
 4481POPC   C3A17861  13.671  38.476   7.950
 4481POPC   C4A17862  13.652  38.447   7.650
 4481POPC   C1B17863  13.333  38.423   8.550
 4481POPC   C2B17864  13.347  38.438   8.250
 4481POPC   C3B17865  13.360  38.446   7.950
 4481POPC   C4B17866  13.363  38.454   7.650
 4482POPC   NC317867  19.829  36.912   9.450
 4482POPC   PO417868  19.880  36.938   9.150
 4482POPC   GL117869  19.829  36.906   8.850
 4482POPC   GL217870  19.731  36.903   8.850
 4482POPC   C1A17871  19.799  36.951   8.550
 4482POPC   D2A17872  19.871  36.912   8.250
 4482POPC   C3A17873  19.858  36.936   7.950
 4482POPC   C4A17874  19.837  36.910   7.650
 4482POPC   C1B17875  19.611  36.900   8.550
 4482POPC   C2B17876  19.632  36.947   8.250
 4482POPC   C3B17877  19.602  36.998   7.950
 4482POPC   C4B17878  19.570  36.909   7.650
 4483POPC   NC317879  41.524  24.456   9.450
 4483POPC   PO417880  41.586  24.508   9.150
 4483POPC   GL117881  41.595  24.479   8.850
 4483POPC   GL217882  41.436  24.441   8.850
 4483POPC   C1A17883  41.594  24.456   8.550
 4483POPC   D2A17884  41.569  24.531   8.250
 4483POPC   C3A17885  41.512  24.476   7.950
 4483POPC   C4A17886  41.514  24.523   7.650
 4483POPC   C1B17887  41.311  24.531   8.550
 4483POPC   C2B17888  41.301  24.490   8.250
 4483POPC   C3B17889  41.341  24.507   7.950
 4483POPC   C4B17890  41.267  24.437   7.650
 4484POPC   NC317891  42.330   3.562   9.450
 4484POPC   PO417892  42.308   3.536   9.150
 4484POPC   GL117893  42.370   3.572   8.850
 4484POPC   GL217894  42.398   3.424   8.850
 4484POPC   C1A17895  42.383   3.513   8.550
 4484POPC   D2A17896  42.292   3.513   8.250
 4484POPC   C3A17897  42.305   3.562   7.950
 4484POPC   C4A17898  42.293   3.549   7.650
 4484POPC   C1B17899  42.529   3.386   8.550
 4484POPC   C2B17900  42.561   3.416   8.250
 4484POPC   C3B17901  42.540   3.337   7.950
 4484POPC   C4B17902  42.517   3.368   7.650
 4485POPC   NC317903  28.321  23.753   9.450
 4485POPC   PO417904  28.371  23.705   9.150
 4485POPC   GL117905  28.327  23.700   8.850
 4485POPC   GL217906  28.365  23.785   8.850
 4485POPC   C1A17907  28.346  23.722   8.550
 4485POPC   D2A17908  28.367  23.738   8.250
 4485POPC   C3A17909  28.337  23.752   7.950
 4485POPC   C4A17910  28.360  23.743   7.650
 4485POPC   C1B17911  28.230  23.951   8.550
 4485POPC   C2B17912  28.244  23.892   8.250
 4485POPC   C3B17913  28.262  23.961   7.950
 4485POPC   C4B17914  28.223  23.970   7.650
 4486POPC   NC317915  12.860  15.970   9.450
 4486POPC   PO417916  12.808  15.920   9.150
 4486POPC   GL117917  12.833  15.916   8.850
 4486POPC   GL217918  13.019  16.026   8.850
 4486POPC   C1A17919  12.853  15.960   8.550
 4486POPC   D2A17920  12.874  15.996   8.250
 4486POPC   C3A17921  12.812  15.928   7.950
 4486POPC   C4A17922  12.816  15.945   7.650
 4486POPC   C1B17923  13.056  15.970   8.550
 4486POPC   C2B17924  13.092  16.030   8.250
 4486POPC   C3B17925  13.057  15.996   7.950
 4486POPC   C4B17926  13.049  16.038   7.650
 4487POPC   NC317927  12.040  43.886   9.450
 4487POPC   PO417928  12.035  43.905   9.150
 4487POPC   GL117929  12.066  43.838   8.850
 4487POPC   GL217930  11.993  43.817   8.850
 4487POPC   C1A17931  12.097  43.864   8.550
 4487POPC   D2A17932  12.089  43.853   8.250
 4487POPC   C3A17933  12.035  43.841   7.950
 4487POPC   C4A17934  12.045  43.908   7.650
 4487POPC   C1B17935  11.910  43.686   8.550
 4487POPC   C2B17936  11.934  43.649   8.250
 4487POPC   C3B17937  11.912  43.703   7.950
 4487POPC   C4B17938  11.933  43.652   7.650
 4488POPC   NC317939  31.462  30.689   9.450
 4488POPC   PO417940  31.430  30.703   9.150
 4488POPC   GL117941  31.437  30.696   8.850
 4488POPC   GL217942  31.405  30.790   8.850
 4488POPC   C1A17943  31.521  30.696   8.550
 4488POPC   D2A17944  31.514  30.669   8.250
 4488POPC   C3A17945  31.517  30.711   7.950
 4488POPC   C4A17946  31.482  30.662   7.650
 4488POPC   C1B17947  31.369  30.934   8.550
 4488POPC   C2B17948  31.372  30.970   8.250
 4488POPC   C3B17949  31.350  30.915   7.950
 4488POPC   C4B17950  31.384  30.908   7.650
 4489POPC   NC317951   1.963  13.634   9.450
 4489POPC   PO417952   1.984  13.614   9.150
 4489POPC   GL117953   2.005  13.583   8.850
 4489POPC   GL217954   1.864  13.683   8.850
 4489POPC   C1A17955   2.031  13.649   8.550
 4489POPC   D2A17956   2.005  13.660   8.250
 4489POPC   C3A17957   2.027  13.589   7.950
 4489POPC   C4A17958   1.962  13.644   7.650
 4489POPC   C1B17959   1.778  13.780   8.550
 4489POPC   C2B17960   1.779  13.740   8.250
 4489POPC   C3B17961   1.741  13.774   7.950
 4489POPC   C4B17962   1.729  13.710   7.650
 4490POPC   NC317963   1.992  12.121   9.450
 4490POPC   PO417964   1.999  12.114   9.150
 4490POPC   GL117965   1.989  12.028   8.850
 4490POPC   GL217966   1.846  12.149   8.850
 4490POPC   C1A17967   2.009  12.074   8.550
 4490POPC   D2A17968   1.955  12.122   8.250
 4490POPC   C3A17969   2.018  12.045   7.950
 4490POPC   C4A17970   1.986  12.086   7.650
 4490POPC   C1B17971   1.839  12.202   8.550
 4490POPC   C2B17972   1.837  12.273   8.250
 4490POPC   C3B17973   1.789  12.219   7.950
 4490POPC   C4B17974   1.840  12.272   7.650
 4491POPC   NC317975  37.635  12.086   9.450
 4491POPC   PO417976  37.672  12.101   9.150
 4491POPC   GL117977  37.692  12.051   8.850
 4491POPC   GL217978  37.562  12.026   8.850
 4491POPC   C1A17979  37.702  12.060   8.550
 4491POPC   D2A17980  37.726  12.117   8.250
 4491POPC   C3A17981  37.669  12.053   7.950
 4491POPC   C4A17982  37.637  12.033   7.650
 4491POPC   C1B17983  37.385  12.042   8.550
 4491POPC   C2B17984  37.454  12.058   8.250
 4491POPC   C3B17985  37.429  12.075   7.950
 4491POPC   C4B17986  37.420  12.070   7.650
 4492POPC   NC317987  10.542   1.169   9.450
 4492POPC   PO417988  10.534   1.237   9.150
 4492POPC   GL117989  10.563   1.252   8.850
 4492POPC   GL217990  10.373   1.236   8.850
 4492POPC   C1A17991  10.566   1.244   8.550
 4492POPC   D2A17992  10.517   1.231   8.250
 4492POPC   C3A17993  10.477   1.199   7.950
 4492POPC   C4A17994  10.502   1.259   7.650
 4492POPC   C1B17995  10.311   1.255   8.550
 4492POPC   C2B17996  10.253   1.285   8.250
 4492POPC   C3B17997  10.270   1.212   7.950
 4492POPC   C4B17998  10.300   1.213   7.650
 4493POPC   NC317999  43.102  27.550   9.450
 4493POPC   PO418000  43.106  27.558   9.150
 4493POPC   GL118001  43.135  27.547   8.850
 4493POPC   GL218002  43.167  27.439   8.850
 4493POPC   C1A18003  43.091  27.636   8.550
 4493POPC   D2A18004  43.079  27.549   8.250
 4493POPC   C3A18005  43.140  27.604   7.950
 4493POPC   C4A18006  43.093  27.567   7.650
 4493POPC   C1B18007  43.192  27.311   8.550
 4493POPC   C2B18008  43.223  27.395   8.250
 4493POPC   C3B18009  43.153  27.378   7.950
 4493POPC   C4B18010  43.156  27.334   7.650
 4494POPC   NC318011  26.831   2.784   9.450
 4494POPC   PO418012  26.840   2.784   9.150
 4494POPC   GL118013  26.863   2.726   8.850
 4494POPC   GL218014  26.919   2.750   8.850
 4494POPC   C1A18015  26.782   2.791   8.550
 4494POPC   D2A18016  26.788   2.779   8.250
 4494POPC   C3A18017  26.861   2.739   7.950
 4494POPC   C4A18018  26.780   2.764   7.650
 4494POPC   C1B18019  27.110   2.809   8.550
 4494POPC   C2B18020  27.105   2.811   8.250
 4494POPC   C3B18021  27.030   2.795   7.950
 4494POPC   C4B18022  27.042   2.764   7.650
 4495POPC   NC318023  36.906   8.246   9.450
 4495POPC   PO418024  36.876   8.222   9.150
 4495POPC   GL118025  36.914   8.159   8.850
 4495POPC   GL218026  36.749   8.224   8.850
 4495POPC   C1A18027  36.918   8.170   8.550
 4495POPC   D2A18028  36.951   8.196   8.250
 4495POPC   C3A18029  36.948   8.152   7.950
 4495POPC   C4A18030  36.860   8.198   7.650
 4495POPC   C1B18031  36.650   8.332   8.550
 4495POPC   C2B18032  36.658   8.376   8.250
 4495POPC   C3B18033  36.692   8.352   7.950
 4495POPC   C4B18034  36.651   8.329   7.650
 4496POPC   NC318035  11.320  22.205   9.450
 4496POPC   PO418036  11.340  22.170   9.150
 4496POPC   GL118037  11.308  22.143   8.850
 4496POPC   GL218038  11.423  22.235   8.850
 4496POPC   C1A18039  11.305  22.207   8.550
 4496POPC   D2A18040  11.332  22.131   8.250
 4496POPC   C3A18041  11.324  22.192   7.950
 4496POPC   C4A18042  11.340  22.202   7.650
 4496POPC   C1B18043  11.562  22.326   8.550
 4496POPC   C2B18044  11.538  22.260   8.250
 4496POPC   C3B18045  11.482  22.322   7.950
 4496POPC   C4B18046  11.556  22.256   7.650
 4497POPC   NC318047   2.772  10.564   9.450
 4497POPC   PO418048   2.782  10.494   9.150
 4497POPC   GL118049   2.798  10.546   8.850
 4497POPC   GL218050   2.853  10.577   8.850
 4497POPC   C1A18051   2.722  10.530   8.550
 4497POPC   D2A18052   2.754  10.566   8.250
 4497POPC   C3A18053   2.771  10.547   7.950
 4497POPC   C4A18054   2.740  10.511   7.650
 4497POPC   C1B18055   3.011  10.637   8.550
 4497POPC   C2B18056   3.011  10.559   8.250
 4497POPC   C3B18057   3.025  10.636   7.950
 4497POPC   C4B18058   3.009  10.595   7.650
 4498POPC   NC318059  39.254  29.187   9.450
 4498POPC   PO418060  39.269  29.166   9.150
 4498POPC   GL118061  39.206  29.107   8.850
 4498POPC   GL218062  39.121  29.077   8.850
 4498POPC   C1A18063  39.259  29.178   8.550
 4498POPC   D2A18064  39.239  29.129   8.250
 4498POPC   C3A18065  39.203  29.121   7.950
 4498POPC   C4A18066  39.248  29.107   7.650
 4498POPC   C1B18067  38.958  29.087   8.550
 4498POPC   C2B18068  39.034  29.046   8.250
 4498POPC   C3B18069  38.967  29.119   7.950
 4498POPC   C4B18070  38.951  29.030   7.650
 4499POPC   NC318071  12.053  29.967   9.450
 4499POPC   PO418072  12.085  29.915   9.150
 4499POPC   GL118073  12.034  29.904   8.850
 4499POPC   GL218074  12.082  29.822   8.850
 4499POPC   C1A18075  12.088  29.920   8.550
 4499POPC   D2A18076  12.051  29.964   8.250
 4499POPC   C3A18077  12.077  29.967   7.950
 4499POPC   C4A18078  12.106  29.914   7.650
 4499POPC   C1B18079  12.137  29.697   8.550
 4499POPC   C2B18080  12.197  29.698   8.250
 4499POPC   C3B18081  12.206  29.694   7.950
 4499POPC   C4B18082  12.144  29.655   7.650
 4500POPC   NC318083  18.304   9.739   9.450
 4500POPC   PO418084  18.282   9.775   9.150
 4500POPC   GL118085  18.271   9.709   8.850
 4500POPC   GL218086  18.350   9.804   8.850
 4500POPC   C1A18087  18.279   9.798   8.550
 4500POPC   D2A18088  18.318   9.709   8.250
 4500POPC   C3A18089  18.280   9.751   7.950
 4500POPC   C4A18090  18.277   9.729   7.650
 4500POPC   C1B18091  18.501   9.923   8.550
 4500POPC   C2B18092  18.524   9.934   8.250
 4500POPC   C3B18093  18.504   9.914   7.950
 4500POPC   C4B18094  18.495   9.836   7.650
 4501POPC   NC318095  17.460   8.986   9.450
 4501POPC   PO418096  17.469   8.927   9.150
 4501POPC   GL118097  17.513   8.927   8.850
 4501POPC   GL218098  17.356   8.954   8.850
 4501POPC   C1A18099  17.535   8.931   8.550
 4501POPC   D2A18100  17.517   8.944   8.250
 4501POPC   C3A18101  17.524   8.972   7.950
 4501POPC   C4A18102  17.522   9.002   7.650
 4501POPC   C1B18103  17.250   8.889   8.550
 4501POPC   C2B18104  17.232   8.949   8.250
 4501POPC   C3B18105  17.273   8.933   7.950
 4501POPC   C4B18106  17.294   8.922   7.650
 4502POPC   NC318107  20.644  31.440   9.450
 4502POPC   PO418108  20.653  31.447   9.150
 4502POPC   GL118109  20.636  31.494   8.850
 4502POPC   GL218110  20.591  31.569   8.850
 4502POPC   C1A18111  20.647  31.498   8.550
 4502POPC   D2A18112  20.572  31.494   8.250
 4502POPC   C3A18113  20.633  31.468   7.950
 4502POPC   C4A18114  20.575  31.506   7.650
 4502POPC   C1B18115  20.554  31.670   8.550
 4502POPC   C2B18116  20.518  31.676   8.250
 4502POPC   C3B18117  20.491  31.655   7.950
 4502POPC   C4B18118  20.501  31.740   7.650
 4503POPC   NC318119   7.452  26.026   9.450
 4503POPC   PO418120   7.444  26.050   9.150
 4503POPC   GL118121   7.433  26.029   8.850
 4503POPC   GL218122   7.319  25.993   8.850
 4503POPC   C1A18123   7.445  26.031   8.550
 4503POPC   D2A18124   7.376  25.994   8.250
 4503POPC   C3A18125   7.431  26.039   7.950
 4503POPC   C4A18126   7.380  26.056   7.650
 4503POPC   C1B18127   7.267  25.845   8.550
 4503POPC   C2B18128   7.235  25.857   8.250
 4503POPC   C3B18129   7.231  25.868   7.950
 4503POPC   C4B18130   7.191  25.855   7.650
 4504POPC   NC318131  37.649  17.510   9.450
 4504POPC   PO418132  37.685  17.479   9.150
 4504POPC   GL118133  37.661  17.461   8.850
 4504POPC   GL218134  37.622  17.635   8.850
 4504POPC   C1A18135  37.720  17.478   8.550
 4504POPC   D2A18136  37.639  17.524   8.250
 4504POPC   C3A18137  37.671  17.495   7.950
 4504POPC   C4A18138  37.664  17.470   7.650
 4504POPC   C1B18139  37.620  17.784   8.550
 4504POPC   C2B18140  37.623  17.703   8.250
 4504POPC   C3B18141  37.546  17.775   7.950
 4504POPC   C4B18142  37.551  17.732   7.650
 4505POPC   NC318143   6.627  37.683   9.450
 4505POPC   PO418144   6.692  37.675   9.150
 4505POPC   GL118145   6.676  37.686   8.850
 4505POPC   GL218146   6.559  37.598   8.850
 4505POPC   C1A18147   6.607  37.676   8.550
 4505POPC   D2A18148   6.598  37.640   8.250
 4505POPC   C3A18149   6.611  37.656   7.950
 4505POPC   C4A18150   6.649  37.636   7.650
 4505POPC   C1B18151   6.484  37.459   8.550
 4505POPC   C2B18152   6.563  37.445   8.250
 4505POPC   C3B18153   6.516  37.439   7.950
 4505POPC   C4B18154   6.483  37.424   7.650
 4506POPC   NC318155  18.320  29.967   9.450
 4506POPC   PO418156  18.301  29.908   9.150
 4506POPC   GL118157  18.274  29.921   8.850
 4506POPC   GL218158  18.231  29.791   8.850
 4506POPC   C1A18159  18.238  29.955   8.550
 4506POPC   D2A18160  18.270  29.915   8.250
 4506POPC   C3A18161  18.276  29.958   7.950
 4506POPC   C4A18162  18.320  29.872   7.650
 4506POPC   C1B18163  18.121  29.705   8.550
 4506POPC   C2B18164  18.099  29.674   8.250
 4506POPC   C3B18165  18.091  29.733   7.950
 4506POPC   C4B18166  18.092  29.668   7.650
 4507POPC   NC318167  29.095  39.965   9.450
 4507POPC   PO418168  29.105  40.006   9.150
 4507POPC   GL118169  29.159  39.985   8.850
 4507POPC   GL218170  29.192  40.147   8.850
 4507POPC   C1A18171  29.165  40.000   8.550
 4507POPC   D2A18172  29.133  39.960   8.250
 4507POPC   C3A18173  29.124  40.009   7.950
 4507POPC   C4A18174  29.136  40.035   7.650
 4507POPC   C1B18175  29.195  40.287   8.550
 4507POPC   C2B18176  29.213  40.231   8.250
 4507POPC   C3B18177  29.244  40.243   7.950
 4507POPC   C4B18178  29.271  40.283   7.650
 4508POPC   NC318179  29.876  30.718   9.450
 4508POPC   PO418180  29.960  30.723   9.150
 4508POPC   GL118181  29.873  30.678   8.850
 4508POPC   GL218182  29.808  30.666   8.850
 4508POPC   C1A18183  29.914  30.690   8.550
 4508POPC   D2A18184  29.921  30.672   8.250
 4508POPC   C3A18185  29.893  30.670   7.950
 4508POPC   C4A18186  29.877  30.669   7.650
 4508POPC   C1B18187  29.775  30.550   8.550
 4508POPC   C2B18188  29.767  30.562   8.250
 4508POPC   C3B18189  29.683  30.565   7.950
 4508POPC   C4B18190  29.693  30.519   7.650
 4509POPC   NC318191  43.148  17.460   9.450
 4509POPC   PO418192  43.116  17.545   9.150
 4509POPC   GL118193  43.125  17.475   8.850
 4509POPC   GL218194  42.981  17.446   8.850
 4509POPC   C1A18195  43.156  17.494   8.550
 4509POPC   D2A18196  43.125  17.540   8.250
 4509POPC   C3A18197  43.073  17.461   7.950
 4509POPC   C4A18198  43.139  17.466   7.650
 4509POPC   C1B18199  42.984  17.351   8.550
 4509POPC   C2B18200  42.971  17.346   8.250
 4509POPC   C3B18201  42.973  17.365   7.950
 4509POPC   C4B18202  42.894  17.281   7.650
 4510POPC   NC318203  36.120  16.730   9.450
 4510POPC   PO418204  36.150  16.701   9.150
 4510POPC   GL118205  36.153  16.738   8.850
 4510POPC   GL218206  36.198  16.849   8.850
 4510POPC   C1A18207  36.153  16.707   8.550
 4510POPC   D2A18208  36.135  16.706   8.250
 4510POPC   C3A18209  36.119  16.701   7.950
 4510POPC   C4A18210  36.151  16.758   7.650
 4510POPC   C1B18211  36.251  16.922   8.550
 4510POPC   C2B18212  36.255  16.987   8.250
 4510POPC   C3B18213  36.278  16.924   7.950
 4510POPC   C4B18214  36.245  16.913   7.650
 4511POPC   NC318215  35.320  42.377   9.450
 4511POPC   PO418216  35.318  42.304   9.150
 4511POPC   GL118217  35.389  42.343   8.850
 4511POPC   GL218218  35.330  42.251   8.850
 4511POPC   C1A18219  35.332  42.310   8.550
 4511POPC   D2A18220  35.319  42.347   8.250
 4511POPC   C3A18221  35.311  42.313   7.950
 4511POPC   C4A18222  35.378  42.373   7.650
 4511POPC   C1B18223  35.404  42.064   8.550
 4511POPC   C2B18224  35.350  42.067   8.250
 4511POPC   C3B18225  35.416  42.128   7.950
 4511POPC   C4B18226  35.405  42.065   7.650
 4512POPC   NC318227  41.541   0.420   9.450
 4512POPC   PO418228  41.579   0.431   9.150
 4512POPC   GL118229  41.530   0.390   8.850
 4512POPC   GL218230  41.454   0.565   8.850
 4512POPC   C1A18231  41.601   0.471   8.550
 4512POPC   D2A18232  41.596   0.424   8.250
 4512POPC   C3A18233  41.551   0.476   7.950
 4512POPC   C4A18234  41.520   0.463   7.650
 4512POPC   C1B18235  41.426   0.610   8.550
 4512POPC   C2B18236  41.418   0.601   8.250
 4512POPC   C3B18237  41.356   0.650   7.950
 4512POPC   C4B18238  41.379   0.633   7.650
 4513POPC   NC318239  34.608  33.027   9.450
 4513POPC   PO418240  34.544  33.058   9.150
 4513POPC   GL118241  34.581  33.009   8.850
 4513POPC   GL218242  34.646  33.043   8.850
 4513POPC   C1A18243  34.537  33.042   8.550
 4513POPC   D2A18244  34.544  33.019   8.250
 4513POPC   C3A18245  34.584  32.981   7.950
 4513POPC   C4A18246  34.582  32.989   7.650
 4513POPC   C1B18247  34.798  33.187   8.550
 4513POPC   C2B18248  34.758  33.135   8.250
 4513POPC   C3B18249  34.817  33.173   7.950
 4513POPC   C4B18250  34.803  33.124   7.650
 4514POPC   NC318251  44.709  44.628   9.450
 4514POPC   PO418252  44.703  44.704   9.150
 4514POPC   GL118253  44.630  44.694   8.850
 4514POPC   GL218254  44.738  44.501   8.850
 4514POPC   C1A18255  44.616  44.654   8.550
 4514POPC   D2A18256  44.674  44.622   8.250
 4514POPC   C3A18257  44.636  44.651   7.950
 4514POPC   C4A18258  44.654  44.622   7.650
 4514POPC   C1B18259  44.693  44.399   8.550
 4514POPC   C2B18260  44.722  44.390   8.250
 4514POPC   C3B18261  44.777  44.450   7.950
 4514POPC   C4B18262  44.748  44.404   7.650
 4515POPC   NC318263  35.385  34.597   9.450
 4515POPC   PO418264  35.358  34.605   9.150
 4515POPC   GL118265  35.381  34.623   8.850
 4515POPC   GL218266  35.421  34.698   8.850
 4515POPC   C1A18267  35.336  34.593   8.550
 4515POPC   D2A18268  35.310  34.537   8.250
 4515POPC   C3A18269  35.382  34.577   7.950
 4515POPC   C4A18270  35.383  34.574   7.650
 4515POPC   C1B18271  35.562  34.732   8.550
 4515POPC   C2B18272  35.568  34.758   8.250
 4515POPC   C3B18273  35.553  34.744   7.950
 4515POPC   C4B18274  35.544  34.756   7.650
 4516POPC   NC318275  40.809  28.374   9.450
 4516POPC   PO418276  40.806  28.346   9.150
 4516POPC   GL118277  40.770  28.402   8.850
 4516POPC   GL218278  40.891  28.451   8.850
 4516POPC   C1A18279  40.790  28.402   8.550
 4516POPC   D2A18280  40.800  28.362   8.250
 4516POPC   C3A18281  40.738  28.343   7.950
 4516POPC   C4A18282  40.785  28.364   7.650
 4516POPC   C1B18283  41.035  28.511   8.550
 4516POPC   C2B18284  40.967  28.483   8.250
 4516POPC   C3B18285  41.057  28.456   7.950
 4516POPC   C4B18286  41.037  28.476   7.650
 4517POPC   NC318287  28.352  43.865   9.450
 4517POPC   PO418288  28.418  43.916   9.150
 4517POPC   GL118289  28.396  43.882   8.850
 4517POPC   GL218290  28.465  43.975   8.850
 4517POPC   C1A18291  28.385  43.881   8.550
 4517POPC   D2A18292  28.367  43.919   8.250
 4517POPC   C3A18293  28.371  43.853   7.950
 4517POPC   C4A18294  28.366  43.873   7.650
 4517POPC   C1B18295  28.442  44.070   8.550
 4517POPC   C2B18296  28.442  44.098   8.250
 4517POPC   C3B18297  28.459  44.152   7.950
 4517POPC   C4B18298  28.491  44.070   7.650
 4518POPC   NC318299   9.009  37.688   9.450
 4518POPC   PO418300   9.015  37.652   9.150
 4518POPC   GL118301   8.993  37.699   8.850
 4518POPC   GL218302   9.077  37.765   8.850
 4518POPC   C1A18303   8.951  37.692   8.550
 4518POPC   D2A18304   8.944  37.635   8.250
 4518POPC   C3A18305   8.953  37.688   7.950
 4518POPC   C4A18306   8.953  37.701   7.650
 4518POPC   C1B18307   9.240  37.832   8.550
 4518POPC   C2B18308   9.201  37.787   8.250
 4518POPC   C3B18309   9.233  37.793   7.950
 4518POPC   C4B18310   9.190  37.830   7.650
 4519POPC   NC318311   6.688  21.351   9.450
 4519POPC   PO418312   6.639  21.389   9.150
 4519POPC   GL118313   6.685  21.348   8.850
 4519POPC   GL218314   6.689  21.513   8.850
 4519POPC   C1A18315   6.659  21.370   8.550
 4519POPC   D2A18316   6.680  21.400   8.250
 4519POPC   C3A18317   6.621  21.413   7.950
 4519POPC   C4A18318   6.639  21.377   7.650
 4519POPC   C1B18319   6.764  21.591   8.550
 4519POPC   C2B18320   6.783  21.566   8.250
 4519POPC   C3B18321   6.824  21.604   7.950
 4519POPC   C4B18322   6.810  21.575   7.650
 4520POPC   NC318323  43.875  19.830   9.450
 4520POPC   PO418324  43.846  19.871   9.150
 4520POPC   GL118325  43.854  19.821   8.850
 4520POPC   GL218326  43.791  19.797   8.850
 4520POPC   C1A18327  43.930  19.861   8.550
 4520POPC   D2A18328  43.891  19.855   8.250
 4520POPC   C3A18329  43.857  19.836   7.950
 4520POPC   C4A18330  43.886  19.876   7.650
 4520POPC   C1B18331  43.648  19.801   8.550
 4520POPC   C2B18332  43.590  19.758   8.250
 4520POPC   C3B18333  43.651  19.835   7.950
 4520POPC   C4B18334  43.655  19.754   7.650
 4521POPC   NC318335  27.604  26.060   9.450
 4521POPC   PO418336  27.594  26.004   9.150
 4521POPC   GL118337  27.608  26.023   8.850
 4521POPC   GL218338  27.600  25.881   8.850
 4521POPC   C1A18339  27.637  26.058   8.550
 4521POPC   D2A18340  27.625  26.081   8.250
 4521POPC   C3A18341  27.576  26.051   7.950
 4521POPC   C4A18342  27.615  26.003   7.650
 4521POPC   C1B18343  27.717  25.841   8.550
 4521POPC   C2B18344  27.671  25.818   8.250
 4521POPC   C3B18345  27.729  25.828   7.950
 4521POPC   C4B18346  27.706  25.854   7.650
 4522POPC   NC318347   5.881  20.582   9.450
 4522POPC   PO418348   5.896  20.643   9.150
 4522POPC   GL118349   5.877  20.620   8.850
 4522POPC   GL218350   5.958  20.643   8.850
 4522POPC   C1A18351   5.850  20.606   8.550
 4522POPC   D2A18352   5.865  20.628   8.250
 4522POPC   C3A18353   5.881  20.594   7.950
 4522POPC   C4A18354   5.871  20.566   7.650
 4522POPC   C1B18355   6.101  20.648   8.550
 4522POPC   C2B18356   6.138  20.732   8.250
 4522POPC   C3B18357   6.153  20.668   7.950
 4522POPC   C4B18358   6.143  20.679   7.650
 4523POPC   NC318359  19.020  33.776   9.450
 4523POPC   PO418360  19.018  33.750   9.150
 4523POPC   GL118361  19.034  33.805   8.850
 4523POPC   GL218362  19.145  33.764   8.850
 4523POPC   C1A18363  19.099  33.826   8.550
 4523POPC   D2A18364  19.094  33.842   8.250
 4523POPC   C3A18365  19.051  33.786   7.950
 4523POPC   C4A18366  19.066  33.797   7.650
 4523POPC   C1B18367  19.341  33.856   8.550
 4523POPC   C2B18368  19.349  33.842   8.250
 4523POPC   C3B18369  19.341  33.848   7.950
 4523POPC   C4B18370  19.319  33.840   7.650
 4524POPC   NC318371  19.101  38.410   9.450
 4524POPC   PO418372  19.060  38.448   9.150
 4524POPC   GL118373  19.067  38.420   8.850
 4524POPC   GL218374  18.961  38.534   8.850
 4524POPC   C1A18375  19.083  38.433   8.550
 4524POPC   D2A18376  19.055  38.461   8.250
 4524POPC   C3A18377  19.093  38.469   7.950
 4524POPC   C4A18378  19.108  38.451   7.650
 4524POPC   C1B18379  18.912  38.701   8.550
 4524POPC   C2B18380  18.964  38.645   8.250
 4524POPC   C3B18381  18.966  38.644   7.950
 4524POPC   C4B18382  18.939  38.636   7.650
 4525POPC   NC318383   5.083  36.137   9.450
 4525POPC   PO418384   5.096  36.139   9.150
 4525POPC   GL118385   5.071  36.107   8.850
 4525POPC   GL218386   5.082  36.249   8.850
 4525POPC   C1A18387   5.093  36.079   8.550
 4525POPC   D2A18388   5.045  36.087   8.250
 4525POPC   C3A18389   5.063  36.124   7.950
 4525POPC   C4A18390   5.068  36.088   7.650
 4525POPC   C1B18391   4.994  36.333   8.550
 4525POPC   C2B18392   5.015  36.355   8.250
 4525POPC   C3B18393   5.010  36.300   7.950
 4525POPC   C4B18394   4.941  36.319   7.650
 4526POPC   NC318395   1.251  14.374   9.450
 4526POPC   PO418396   1.253  14.375   9.150
 4526POPC   GL118397   1.182  14.396   8.850
 4526POPC   GL218398   1.313  14.439   8.850
 4526POPC   C1A18399   1.224  14.387   8.550
 4526POPC   D2A18400   1.195  14.442   8.250
 4526POPC   C3A18401   1.216  14.430   7.950
 4526POPC   C4A18402   1.255  14.411   7.650
 4526POPC   C1B18403   1.416  14.422   8.550
 4526POPC   C2B18404   1.480  14.412   8.250
 4526POPC   C3B18405   1.479  14.459   7.950
 4526POPC   C4B18406   1.493  14.438   7.650
 4527POPC   NC318407   5.069  37.644   9.450
 4527POPC   PO418408   5.104  37.709   9.150
 4527POPC   GL118409   5.133  37.665   8.850
 4527POPC   GL218410   5.190  37.619   8.850
 4527POPC   C1A18411   5.115  37.681   8.550
 4527POPC   D2A18412   5.133  37.693   8.250
 4527POPC   C3A18413   5.051  37.709   7.950
 4527POPC   C4A18414   5.124  37.707   7.650
 4527POPC   C1B18415   5.292  37.618   8.550
 4527POPC   C2B18416   5.357  37.605   8.250
 4527POPC   C3B18417   5.289  37.653   7.950
 4527POPC   C4B18418   5.386  37.640   7.650
 4528POPC   NC318419   2.006  42.356   9.450
 4528POPC   PO418420   1.999  42.365   9.150
 4528POPC   GL118421   1.985  42.323   8.850
 4528POPC   GL218422   2.114  42.317   8.850
 4528POPC   C1A18423   2.038  42.299   8.550
 4528POPC   D2A18424   2.018  42.384   8.250
 4528POPC   C3A18425   1.979  42.346   7.950
 4528POPC   C4A18426   1.956  42.286   7.650
 4528POPC   C1B18427   2.281  42.372   8.550
 4528POPC   C2B18428   2.196  42.389   8.250
 4528POPC   C3B18429   2.244  42.389   7.950
 4528POPC   C4B18430   2.210  42.410   7.650
 4529POPC   NC318431  19.087   6.595   9.450
 4529POPC   PO418432  19.055   6.609   9.150
 4529POPC   GL118433  19.044   6.666   8.850
 4529POPC   GL218434  19.146   6.629   8.850
 4529POPC   C1A18435  19.087   6.652   8.550
 4529POPC   D2A18436  19.029   6.660   8.250
 4529POPC   C3A18437  19.037   6.693   7.950
 4529POPC   C4A18438  19.046   6.608   7.650
 4529POPC   C1B18439  19.346   6.675   8.550
 4529POPC   C2B18440  19.347   6.657   8.250
 4529POPC   C3B18441  19.354   6.623   7.950
 4529POPC   C4B18442  19.341   6.692   7.650
 4530POPC   NC318443   2.784   3.522   9.450
 4530POPC   PO418444   2.781   3.504   9.150
 4530POPC   GL118445   2.788   3.507   8.850
 4530POPC   GL218446   2.889   3.557   8.850
 4530POPC   C1A18447   2.768   3.563   8.550
 4530POPC   D2A18448   2.749   3.493   8.250
 4530POPC   C3A18449   2.782   3.492   7.950
 4530POPC   C4A18450   2.750   3.544   7.650
 4530POPC   C1B18451   3.062   3.574   8.550
 4530POPC   C2B18452   2.987   3.595   8.250
 4530POPC   C3B18453   2.982   3.573   7.950
 4530POPC   C4B18454   2.974   3.540   7.650
 4531POPC   NC318455  17.528  31.487   9.450
 4531POPC   PO418456  17.467  31.442   9.150
 4531POPC   GL118457  17.465  31.485   8.850
 4531POPC   GL218458  17.437  31.549   8.850
 4531POPC   C1A18459  17.467  31.482   8.550
 4531POPC   D2A18460  17.480  31.426   8.250
 4531POPC   C3A18461  17.555  31.494   7.950
 4531POPC   C4A18462  17.464  31.511   7.650
 4531POPC   C1B18463  17.328  31.642   8.550
 4531POPC   C2B18464  17.299  31.631   8.250
 4531POPC   C3B18465  17.377  31.613   7.950
 4531POPC   C4B18466  17.363  31.628   7.650
 4532POPC   NC318467  42.367  29.964   9.450
 4532POPC   PO418468  42.337  29.888   9.150
 4532POPC   GL118469  42.374  29.879   8.850
 4532POPC   GL218470  42.345  30.029   8.850
 4532POPC   C1A18471  42.343  29.894   8.550
 4532POPC   D2A18472  42.305  29.906   8.250
 4532POPC   C3A18473  42.294  29.888   7.950
 4532POPC   C4A18474  42.331  29.944   7.650
 4532POPC   C1B18475  42.357  30.154   8.550
 4532POPC   C2B18476  42.295  30.205   8.250
 4532POPC   C3B18477  42.354  30.153   7.950
 4532POPC   C4B18478  42.326  30.191   7.650
 4533POPC   NC318479  41.592  12.882   9.450
 4533POPC   PO418480  41.539  12.840   9.150
 4533POPC   GL118481  41.547  12.872   8.850
 4533POPC   GL218482  41.643  12.976   8.850
 4533POPC   C1A18483  41.522  12.892   8.550
 4533POPC   D2A18484  41.517  12.887   8.250
 4533POPC   C3A18485  41.538  12.821   7.950
 4533POPC   C4A18486  41.559  12.884   7.650
 4533POPC   C1B18487  41.754  13.010   8.550
 4533POPC   C2B18488  41.783  13.009   8.250
 4533POPC   C3B18489  41.766  13.055   7.950
 4533POPC   C4B18490  41.724  13.059   7.650
 4534POPC   NC318491   1.220  42.315   9.450
 4534POPC   PO418492   1.248  42.362   9.150
 4534POPC   GL118493   1.179  42.368   8.850
 4534POPC   GL218494   1.283  42.399   8.850
 4534POPC   C1A18495   1.194  42.367   8.550
 4534POPC   D2A18496   1.192  42.303   8.250
 4534POPC   C3A18497   1.191  42.360   7.950
 4534POPC   C4A18498   1.188  42.305   7.650
 4534POPC   C1B18499   1.446  42.505   8.550
 4534POPC   C2B18500   1.432  42.467   8.250
 4534POPC   C3B18501   1.473  42.505   7.950
 4534POPC   C4B18502   1.398  42.456   7.650
 4535POPC   NC318503  10.508  27.561   9.450
 4535POPC   PO418504  10.520  27.582   9.150
 4535POPC   GL118505  10.521  27.599   8.850
 4535POPC   GL218506  10.693  27.620   8.850
 4535POPC   C1A18507  10.478  27.575   8.550
 4535POPC   D2A18508  10.514  27.571   8.250
 4535POPC   C3A18509  10.572  27.564   7.950
 4535POPC   C4A18510  10.496  27.600   7.650
 4535POPC   C1B18511  10.723  27.668   8.550
 4535POPC   C2B18512  10.797  27.622   8.250
 4535POPC   C3B18513  10.743  27.631   7.950
 4535POPC   C4B18514  10.798  27.619   7.650
 4536POPC   NC318515  28.380  39.190   9.450
 4536POPC   PO418516  28.339  39.264   9.150
 4536POPC   GL118517  28.324  39.249   8.850
 4536POPC   GL218518  28.413  39.116   8.850
 4536POPC   C1A18519  28.349  39.259   8.550
 4536POPC   D2A18520  28.321  39.195   8.250
 4536POPC   C3A18521  28.367  39.263   7.950
 4536POPC   C4A18522  28.338  39.201   7.650
 4536POPC   C1B18523  28.385  38.993   8.550
 4536POPC   C2B18524  28.397  38.968   8.250
 4536POPC   C3B18525  28.436  38.933   7.950
 4536POPC   C4B18526  28.434  38.951   7.650
 4537POPC   NC318527   7.374  21.338   9.450
 4537POPC   PO418528   7.439  21.375   9.150
 4537POPC   GL118529   7.400  21.354   8.850
 4537POPC   GL218530   7.350  21.444   8.850
 4537POPC   C1A18531   7.408  21.354   8.550
 4537POPC   D2A18532   7.431  21.352   8.250
 4537POPC   C3A18533   7.382  21.382   7.950
 4537POPC   C4A18534   7.418  21.393   7.650
 4537POPC   C1B18535   7.235  21.499   8.550
 4537POPC   C2B18536   7.233  21.499   8.250
 4537POPC   C3B18537   7.200  21.462   7.950
 4537POPC   C4B18538   7.216  21.484   7.650
 4538POPC   NC318539   0.392  16.742   9.450
 4538POPC   PO418540   0.423  16.705   9.150
 4538POPC   GL118541   0.466  16.778   8.850
 4538POPC   GL218542   0.538  16.772   8.850
 4538POPC   C1A18543   0.478  16.700   8.550
 4538POPC   D2A18544   0.471  16.773   8.250
 4538POPC   C3A18545   0.429  16.749   7.950
 4538POPC   C4A18546   0.413  16.772   7.650
 4538POPC   C1B18547   0.720  16.748   8.550
 4538POPC   C2B18548   0.658  16.700   8.250
 4538POPC   C3B18549   0.726  16.761   7.950
 4538POPC   C4B18550   0.678  16.772   7.650
 4539POPC   NC318551  35.347   5.120   9.450
 4539POPC   PO418552  35.371   5.108   9.150
 4539POPC   GL118553  35.305   5.119   8.850
 4539POPC   GL218554  35.380   5.239   8.850
 4539POPC   C1A18555  35.314   5.099   8.550
 4539POPC   D2A18556  35.381   5.088   8.250
 4539POPC   C3A18557  35.313   5.134   7.950
 4539POPC   C4A18558  35.310   5.049   7.650
 4539POPC   C1B18559  35.429   5.307   8.550
 4539POPC   C2B18560  35.459   5.282   8.250
 4539POPC   C3B18561  35.495   5.353   7.950
 4539POPC   C4B18562  35.509   5.362   7.650
 4540POPC   NC318563  43.064  26.006   9.450
 4540POPC   PO418564  43.105  26.054   9.150
 4540POPC   GL118565  43.074  26.040   8.850
 4540POPC   GL218566  43.252  25.996   8.850
 4540POPC   C1A18567  43.062  26.025   8.550
 4540POPC   D2A18568  43.071  26.084   8.250
 4540POPC   C3A18569  43.136  26.039   7.950
 4540POPC   C4A18570  43.100  26.037   7.650
 4540POPC   C1B18571  43.391  26.041   8.550
 4540POPC   C2B18572  43.318  25.993   8.250
 4540POPC   C3B18573  43.381  26.029   7.950
 4540POPC   C4B18574  43.321  26.030   7.650
 4541POPC   NC318575  17.487  33.058   9.450
 4541POPC   PO418576  17.503  33.011   9.150
 4541POPC   GL118577  17.541  33.014   8.850
 4541POPC   GL218578  17.380  32.958   8.850
 4541POPC   C1A18579  17.512  33.073   8.550
 4541POPC   D2A18580  17.490  33.039   8.250
 4541POPC   C3A18581  17.547  33.044   7.950
 4541POPC   C4A18582  17.555  33.009   7.650
 4541POPC   C1B18583  17.310  32.973   8.550
 4541POPC   C2B18584  17.243  32.988   8.250
 4541POPC   C3B18585  17.310  32.945   7.950
 4541POPC   C4B18586  17.252  32.993   7.650
 4542POPC   NC318587  22.982  17.458   9.450
 4542POPC   PO418588  22.966  17.540   9.150
 4542POPC   GL118589  22.975  17.466   8.850
 4542POPC   GL218590  22.803  17.455   8.850
 4542POPC   C1A18591  22.949  17.479   8.550
 4542POPC   D2A18592  22.928  17.523   8.250
 4542POPC   C3A18593  22.951  17.524   7.950
 4542POPC   C4A18594  22.900  17.556   7.650
 4542POPC   C1B18595  22.698  17.374   8.550
 4542POPC   C2B18596  22.788  17.390   8.250
 4542POPC   C3B18597  22.724  17.395   7.950
 4542POPC   C4B18598  22.739  17.349   7.650
 4543POPC   NC318599  16.768  22.149   9.450
 4543POPC   PO418600  16.688  22.181   9.150
 4543POPC   GL118601  16.697  22.156   8.850
 4543POPC   GL218602  16.664  22.272   8.850
 4543POPC   C1A18603  16.694  22.158   8.550
 4543POPC   D2A18604  16.726  22.210   8.250
 4543POPC   C3A18605  16.764  22.128   7.950
 4543POPC   C4A18606  16.697  22.134   7.650
 4543POPC   C1B18607  16.490  22.282   8.550
 4543POPC   C2B18608  16.533  22.344   8.250
 4543POPC   C3B18609  16.540  22.354   7.950
 4543POPC   C4B18610  16.498  22.264   7.650
 4544POPC   NC318611  11.276   0.466   9.450
 4544POPC   PO418612  11.329   0.454   9.150
 4544POPC   GL118613  11.268   0.431   8.850
 4544POPC   GL218614  11.254   0.299   8.850
 4544POPC   C1A18615  11.287   0.418   8.550
 4544POPC   D2A18616  11.331   0.452   8.250
 4544POPC   C3A18617  11.286   0.455   7.950
 4544POPC   C4A18618  11.279   0.454   7.650
 4544POPC   C1B18619  11.226   0.213   8.550
 4544POPC   C2B18620  11.156   0.239   8.250
 4544POPC   C3B18621  11.216   0.227   7.950
 4544POPC   C4B18622  11.225   0.245   7.650
 4545POPC   NC318623  33.046  15.150   9.450
 4545POPC   PO418624  33.008  15.130   9.150
 4545POPC   GL118625  33.026  15.179   8.850
 4545POPC   GL218626  33.181  15.229   8.850
 4545POPC   C1A18627  32.988  15.140   8.550
 4545POPC   D2A18628  33.053  15.138   8.250
 4545POPC   C3A18629  33.045  15.174   7.950
 4545POPC   C4A18630  33.062  15.189   7.650
 4545POPC   C1B18631  33.230  15.218   8.550
 4545POPC   C2B18632  33.238  15.183   8.250
 4545POPC   C3B18633  33.277  15.267   7.950
 4545POPC   C4B18634  33.228  15.260   7.650
 4546POPC   NC318635  35.332  11.339   9.450
 4546POPC   PO418636  35.317  11.316   9.150
 4546POPC   GL118637  35.305  11.309   8.850
 4546POPC   GL218638  35.286  11.443   8.850
 4546POPC   C1A18639  35.386  11.342   8.550
 4546POPC   D2A18640  35.362  11.285   8.250
 4546POPC   C3A18641  35.352  11.272   7.950
 4546POPC   C4A18642  35.304  11.326   7.650
 4546POPC   C1B18643  35.299  11.548   8.550
 4546POPC   C2B18644  35.230  11.577   8.250
 4546POPC   C3B18645  35.301  11.500   7.950
 4546POPC   C4B18646  35.297  11.530   7.650
 4547POPC   NC318647  42.305  18.291   9.450
 4547POPC   PO418648  42.330  18.260   9.150
 4547POPC   GL118649  42.342  18.255   8.850
 4547POPC   GL218650  42.468  18.223   8.850
 4547POPC   C1A18651  42.310  18.255   8.550
 4547POPC   D2A18652  42.354  18.280   8.250
 4547POPC   C3A18653  42.286  18.287   7.950
 4547POPC   C4A18654  42.361  18.313   7.650
 4547POPC   C1B18655  42.612  18.196   8.550
 4547POPC   C2B18656  42.609  18.242   8.250
 4547POPC   C3B18657  42.563  18.190   7.950
 4547POPC   C4B18658  42.582  18.221   7.650
 4548POPC   NC318659  15.141  44.661   9.450
 4548POPC   PO418660  15.168  44.658   9.150
 4548POPC   GL118661  15.134  44.695   8.850
 4548POPC   GL218662  15.274  44.738   8.850
 4548POPC   C1A18663  15.144  44.613   8.550
 4548POPC   D2A18664  15.189  44.652   8.250
 4548POPC   C3A18665  15.135  44.644   7.950
 4548POPC   C4A18666  15.179  44.679   7.650
 4548POPC   C1B18667  15.385  44.738   8.550
 4548POPC   C2B18668  15.428  44.743   8.250
 4548POPC   C3B18669  15.403  44.792   7.950
 4548POPC   C4B18670  15.395  44.707   7.650
 4549POPC   NC318671  11.349  24.457   9.450
 4549POPC   PO418672  11.271  24.465   9.150
 4549POPC   GL118673  11.256  24.444   8.850
 4549POPC   GL218674  11.206  24.567   8.850
 4549POPC   C1A18675  11.315  24.468   8.550
 4549POPC   D2A18676  11.319  24.497   8.250
 4549POPC   C3A18677  11.324  24.468   7.950
 4549POPC   C4A18678  11.307  24.497   7.650
 4549POPC   C1B18679  11.207  24.710   8.550
 4549POPC   C2B18680  11.145  24.738   8.250
 4549POPC   C3B18681  11.214  24.694   7.950
 4549POPC   C4B18682  11.168  24.690   7.650
 4550POPC   NC318683  40.796  36.136   9.450
 4550POPC   PO418684  40.740  36.133   9.150
 4550POPC   GL118685  40.781  36.122   8.850
 4550POPC   GL218686  40.817  35.970   8.850
 4550POPC   C1A18687  40.750  36.165   8.550
 4550POPC   D2A18688  40.815  36.099   8.250
 4550POPC   C3A18689  40.747  36.092   7.950
 4550POPC   C4A18690  40.736  36.124   7.650
 4550POPC   C1B18691  40.827  35.846   8.550
 4550POPC   C2B18692  40.845  35.927   8.250
 4550POPC   C3B18693  40.834  35.837   7.950
 4550POPC   C4B18694  40.794  35.858   7.650
 4551POPC   NC318695  37.693  43.865   9.450
 4551POPC   PO418696  37.674  43.877   9.150
 4551POPC   GL118697  37.653  43.867   8.850
 4551POPC   GL218698  37.582  43.779   8.850
 4551POPC   C1A18699  37.654  43.908   8.550
 4551POPC   D2A18700  37.708  43.925   8.250
 4551POPC   C3A18701  37.706  43.901   7.950
 4551POPC   C4A18702  37.723  43.891   7.650
 4551POPC   C1B18703  37.562  43.635   8.550
 4551POPC   C2B18704  37.524  43.704   8.250
 4551POPC   C3B18705  37.524  43.694   7.950
 4551POPC   C4B18706  37.599  43.625   7.650
 4552POPC   NC318707  34.580   5.101   9.450
 4552POPC   PO418708  34.528   5.100   9.150
 4552POPC   GL118709  34.537   5.091   8.850
 4552POPC   GL218710  34.472   5.250   8.850
 4552POPC   C1A18711  34.570   5.081   8.550
 4552POPC   D2A18712  34.575   5.064   8.250
 4552POPC   C3A18713  34.595   5.057   7.950
 4552POPC   C4A18714  34.615   5.099   7.650
 4552POPC   C1B18715  34.432   5.336   8.550
 4552POPC   C2B18716  34.461   5.281   8.250
 4552POPC   C3B18717  34.481   5.301   7.950
 4552POPC   C4B18718  34.503   5.334   7.650
 4553POPC   NC318719  18.329  19.069   9.450
 4553POPC   PO418720  18.301  19.104   9.150
 4553POPC   GL118721  18.267  19.080   8.850
 4553POPC   GL218722  18.323  19.157   8.850
 4553POPC   C1A18723  18.330  19.046   8.550
 4553POPC   D2A18724  18.311  19.025   8.250
 4553POPC   C3A18725  18.304  19.062   7.950
 4553POPC   C4A18726  18.331  19.039   7.650
 4553POPC   C1B18727  18.388  19.265   8.550
 4553POPC   C2B18728  18.377  19.269   8.250
 4553POPC   C3B18729  18.337  19.327   7.950
 4553POPC   C4B18730  18.348  19.249   7.650
 4554POPC   NC318731   8.206  35.340   9.450
 4554POPC   PO418732   8.239  35.319   9.150
 4554POPC   GL118733   8.228  35.336   8.850
 4554POPC   GL218734   8.332  35.389   8.850
 4554POPC   C1A18735   8.194  35.327   8.550
 4554POPC   D2A18736   8.202  35.354   8.250
 4554POPC   C3A18737   8.207  35.344   7.950
 4554POPC   C4A18738   8.194  35.305   7.650
 4554POPC   C1B18739   8.409  35.379   8.550
 4554POPC   C2B18740   8.471  35.329   8.250
 4554POPC   C3B18741   8.413  35.309   7.950
 4554POPC   C4B18742   8.453  35.379   7.650
 4555POPC   NC318743  19.069   1.947   9.450
 4555POPC   PO418744  19.030   2.026   9.150
 4555POPC   GL118745  19.108   1.943   8.850
 4555POPC   GL218746  19.000   1.891   8.850
 4555POPC   C1A18747  19.089   1.956   8.550
 4555POPC   D2A18748  19.014   1.978   8.250
 4555POPC   C3A18749  19.058   1.999   7.950
 4555POPC   C4A18750  19.091   1.990   7.650
 4555POPC   C1B18751  19.007   1.728   8.550
 4555POPC   C2B18752  18.973   1.743   8.250
 4555POPC   C3B18753  18.975   1.718   7.950
 4555POPC   C4B18754  19.000   1.759   7.650
 4556POPC   NC318755  41.512  28.353   9.450
 4556POPC   PO418756  41.512  28.388   9.150
 4556POPC   GL118757  41.608  28.329   8.850
 4556POPC   GL218758  41.519  28.426   8.850
 4556POPC   C1A18759  41.509  28.320   8.550
 4556POPC   D2A18760  41.588  28.386   8.250
 4556POPC   C3A18761  41.539  28.364   7.950
 4556POPC   C4A18762  41.592  28.330   7.650
 4556POPC   C1B18763  41.401  28.605   8.550
 4556POPC   C2B18764  41.436  28.590   8.250
 4556POPC   C3B18765  41.403  28.590   7.950
 4556POPC   C4B18766  41.406  28.547   7.650
 4557POPC   NC318767  37.684  19.012   9.450
 4557POPC   PO418768  37.695  19.009   9.150
 4557POPC   GL118769  37.704  19.081   8.850
 4557POPC   GL218770  37.612  19.166   8.850
 4557POPC   C1A18771  37.660  19.030   8.550
 4557POPC   D2A18772  37.675  19.035   8.250
 4557POPC   C3A18773  37.635  19.010   7.950
 4557POPC   C4A18774  37.729  19.036   7.650
 4557POPC   C1B18775  37.534  19.225   8.550
 4557POPC   C2B18776  37.552  19.265   8.250
 4557POPC   C3B18777  37.502  19.273   7.950
 4557POPC   C4B18778  37.516  19.229   7.650
 4558POPC   NC318779   4.272   5.900   9.450
 4558POPC   PO418780   4.366   5.841   9.150
 4558POPC   GL118781   4.331   5.832   8.850
 4558POPC   GL218782   4.462   5.840   8.850
 4558POPC   C1A18783   4.326   5.877   8.550
 4558POPC   D2A18784   4.274   5.860   8.250
 4558POPC   C3A18785   4.300   5.906   7.950
 4558POPC   C4A18786   4.299   5.881   7.650
 4558POPC   C1B18787   4.578   5.945   8.550
 4558POPC   C2B18788   4.546   5.890   8.250
 4558POPC   C3B18789   4.526   5.918   7.950
 4558POPC   C4B18790   4.516   5.877   7.650
 4559POPC   NC318791  40.023  41.589   9.450
 4559POPC   PO418792  39.975  41.531   9.150
 4559POPC   GL118793  40.000  41.579   8.850
 4559POPC   GL218794  39.995  41.637   8.850
 4559POPC   C1A18795  40.021  41.566   8.550
 4559POPC   D2A18796  40.012  41.590   8.250
 4559POPC   C3A18797  39.994  41.510   7.950
 4559POPC   C4A18798  40.044  41.522   7.650
 4559POPC   C1B18799  40.031  41.805   8.550
 4559POPC   C2B18800  39.998  41.852   8.250
 4559POPC   C3B18801  40.029  41.763   7.950
 4559POPC   C4B18802  39.980  41.828   7.650
 4560POPC   NC318803  11.271  26.049   9.450
 4560POPC   PO418804  11.265  26.049   9.150
 4560POPC   GL118805  11.256  26.059   8.850
 4560POPC   GL218806  11.373  25.888   8.850
 4560POPC   C1A18807  11.332  26.068   8.550
 4560POPC   D2A18808  11.306  26.013   8.250
 4560POPC   C3A18809  11.266  26.083   7.950
 4560POPC   C4A18810  11.260  26.037   7.650
 4560POPC   C1B18811  11.449  25.868   8.550
 4560POPC   C2B18812  11.382  25.776   8.250
 4560POPC   C3B18813  11.365  25.833   7.950
 4560POPC   C4B18814  11.406  25.846   7.650
 4561POPC   NC318815  19.878  15.988   9.450
 4561POPC   PO418816  19.790  15.973   9.150
 4561POPC   GL118817  19.830  15.938   8.850
 4561POPC   GL218818  19.836  15.819   8.850
 4561POPC   C1A18819  19.867  15.990   8.550
 4561POPC   D2A18820  19.817  15.983   8.250
 4561POPC   C3A18821  19.819  15.962   7.950
 4561POPC   C4A18822  19.837  15.917   7.650
 4561POPC   C1B18823  19.821  15.744   8.550
 4561POPC   C2B18824  19.850  15.723   8.250
 4561POPC   C3B18825  19.830  15.730   7.950
 4561POPC   C4B18826  19.822  15.707   7.650
 4562POPC   NC318827   8.242  41.569   9.450
 4562POPC   PO418828   8.212  41.529   9.150
 4562POPC   GL118829   8.165  41.608   8.850
 4562POPC   GL218830   8.189  41.486   8.850
 4562POPC   C1A18831   8.177  41.560   8.550
 4562POPC   D2A18832   8.174  41.509   8.250
 4562POPC   C3A18833   8.164  41.539   7.950
 4562POPC   C4A18834   8.220  41.596   7.650
 4562POPC   C1B18835   8.265  41.316   8.550
 4562POPC   C2B18836   8.273  41.356   8.250
 4562POPC   C3B18837   8.222  41.276   7.950
 4562POPC   C4B18838   8.249  41.300   7.650
 4563POPC   NC318839  31.492  32.998   9.450
 4563POPC   PO418840  31.463  32.996   9.150
 4563POPC   GL118841  31.440  33.020   8.850
 4563POPC   GL218842  31.404  32.964   8.850
 4563POPC   C1A18843  31.490  32.975   8.550
 4563POPC   D2A18844  31.516  32.975   8.250
 4563POPC   C3A18845  31.484  33.010   7.950
 4563POPC   C4A18846  31.460  33.063   7.650
 4563POPC   C1B18847  31.216  32.956   8.550
 4563POPC   C2B18848  31.199  32.932   8.250
 4563POPC   C3B18849  31.222  32.972   7.950
 4563POPC   C4B18850  31.236  32.924   7.650
 4564POPC   NC318851   4.316  12.878   9.450
 4564POPC   PO418852   4.361  12.900   9.150
 4564POPC   GL118853   4.304  12.824   8.850
 4564POPC   GL218854   4.219  12.955   8.850
 4564POPC   C1A18855   4.316  12.872   8.550
 4564POPC   D2A18856   4.318  12.878   8.250
 4564POPC   C3A18857   4.309  12.821   7.950
 4564POPC   C4A18858   4.365  12.847   7.650
 4564POPC   C1B18859   4.201  13.089   8.550
 4564POPC   C2B18860   4.226  13.069   8.250
 4564POPC   C3B18861   4.208  13.085   7.950
 4564POPC   C4B18862   4.212  13.116   7.650
 4565POPC   NC318863  19.062  22.195   9.450
 4565POPC   PO418864  19.020  22.161   9.150
 4565POPC   GL118865  19.064  22.194   8.850
 4565POPC   GL218866  18.959  22.019   8.850
 4565POPC   C1A18867  19.064  22.166   8.550
 4565POPC   D2A18868  19.070  22.189   8.250
 4565POPC   C3A18869  19.018  22.156   7.950
 4565POPC   C4A18870  19.084  22.130   7.650
 4565POPC   C1B18871  18.943  21.962   8.550
 4565POPC   C2B18872  18.887  21.967   8.250
 4565POPC   C3B18873  18.899  21.914   7.950
 4565POPC   C4B18874  18.958  21.996   7.650
 4566POPC   NC318875   3.532  43.903   9.450
 4566POPC   PO418876   3.499  43.869   9.150
 4566POPC   GL118877   3.504  43.872   8.850
 4566POPC   GL218878   3.385  43.949   8.850
 4566POPC   C1A18879   3.502  43.852   8.550
 4566POPC   D2A18880   3.575  43.881   8.250
 4566POPC   C3A18881   3.582  43.902   7.950
 4566POPC   C4A18882   3.557  43.888   7.650
 4566POPC   C1B18883   3.312  43.956   8.550
 4566POPC   C2B18884   3.302  43.965   8.250
 4566POPC   C3B18885   3.252  43.954   7.950
 4566POPC   C4B18886   3.313  43.930   7.650
 4567POPC   NC318887   2.803  11.329   9.450
 4567POPC   PO418888   2.810  11.331   9.150
 4567POPC   GL118889   2.761  11.295   8.850
 4567POPC   GL218890   2.730  11.446   8.850
 4567POPC   C1A18891   2.762  11.269   8.550
 4567POPC   D2A18892   2.773  11.261   8.250
 4567POPC   C3A18893   2.770  11.319   7.950
 4567POPC   C4A18894   2.737  11.300   7.650
 4567POPC   C1B18895   2.810  11.547   8.550
 4567POPC   C2B18896   2.840  11.574   8.250
 4567POPC   C3B18897   2.839  11.515   7.950
 4567POPC   C4B18898   2.789  11.554   7.650
 4568POPC   NC318899   0.434  25.280   9.450
 4568POPC   PO418900   0.449  25.310   9.150
 4568POPC   GL118901   0.455  25.311   8.850
 4568POPC   GL218902   0.335  25.201   8.850
 4568POPC   C1A18903   0.469  25.262   8.550
 4568POPC   D2A18904   0.445  25.308   8.250
 4568POPC   C3A18905   0.473  25.223   7.950
 4568POPC   C4A18906   0.458  25.236   7.650
 4568POPC   C1B18907   0.242  25.175   8.550
 4568POPC   C2B18908   0.190  25.158   8.250
 4568POPC   C3B18909   0.183  25.140   7.950
 4568POPC   C4B18910   0.214  25.203   7.650
 4569POPC   NC318911  37.671  20.605   9.450
 4569POPC   PO418912  37.707  20.626   9.150
 4569POPC   GL118913  37.710  20.607   8.850
 4569POPC   GL218914  37.809  20.511   8.850
 4569POPC   C1A18915  37.680  20.572   8.550
 4569POPC   D2A18916  37.725  20.649   8.250
 4569POPC   C3A18917  37.701  20.622   7.950
 4569POPC   C4A18918  37.665  20.592   7.650
 4569POPC   C1B18919  37.921  20.446   8.550
 4569POPC   C2B18920  37.841  20.425   8.250
 4569POPC   C3B18921  37.884  20.465   7.950
 4569POPC   C4B18922  37.919  20.417   7.650
 4570POPC   NC318923   3.498  34.606   9.450
 4570POPC   PO418924   3.532  34.554   9.150
 4570POPC   GL118925   3.506  34.563   8.850
 4570POPC   GL218926   3.616  34.484   8.850
 4570POPC   C1A18927   3.520  34.560   8.550
 4570POPC   D2A18928   3.536  34.621   8.250
 4570POPC   C3A18929   3.524  34.581   7.950
 4570POPC   C4A18930   3.537  34.582   7.650
 4570POPC   C1B18931   3.737  34.392   8.550
 4570POPC   C2B18932   3.756  34.418   8.250
 4570POPC   C3B18933   3.767  34.375   7.950
 4570POPC   C4B18934   3.754  34.387   7.650
 4571POPC   NC318935  14.371  20.610   9.450
 4571POPC   PO418936  14.398  20.648   9.150
 4571POPC   GL118937  14.428  20.653   8.850
 4571POPC   GL218938  14.501  20.510   8.850
 4571POPC   C1A18939  14.427  20.655   8.550
 4571POPC   D2A18940  14.428  20.592   8.250
 4571POPC   C3A18941  14.438  20.614   7.950
 4571POPC   C4A18942  14.444  20.660   7.650
 4571POPC   C1B18943  14.620  20.413   8.550
 4571POPC   C2B18944  14.583  20.439   8.250
 4571POPC   C3B18945  14.594  20.420   7.950
 4571POPC   C4B18946  14.583  20.412   7.650
 4572POPC   NC318947  20.565   5.868   9.450
 4572POPC   PO418948  20.609   5.831   9.150
 4572POPC   GL118949  20.594   5.883   8.850
 4572POPC   GL218950  20.724   5.816   8.850
 4572POPC   C1A18951  20.606   5.847   8.550
 4572POPC   D2A18952  20.565   5.856   8.250
 4572POPC   C3A18953  20.615   5.895   7.950
 4572POPC   C4A18954  20.591   5.835   7.650
 4572POPC   C1B18955  20.827   5.791   8.550
 4572POPC   C2B18956  20.851   5.775   8.250
 4572POPC   C3B18957  20.877   5.765   7.950
 4572POPC   C4B18958  20.819   5.772   7.650
 4573POPC   NC318959  29.963   5.091   9.450
 4573POPC   PO418960  29.929   5.082   9.150
 4573POPC   GL118961  29.970   5.054   8.850
 4573POPC   GL218962  29.903   4.994   8.850
 4573POPC   C1A18963  29.878   5.104   8.550
 4573POPC   D2A18964  29.967   5.107   8.250
 4573POPC   C3A18965  29.879   5.124   7.950
 4573POPC   C4A18966  29.909   5.102   7.650
 4573POPC   C1B18967  29.880   4.804   8.550
 4573POPC   C2B18968  29.904   4.826   8.250
 4573POPC   C3B18969  29.936   4.823   7.950
 4573POPC   C4B18970  29.847   4.839   7.650
 4574POPC   NC318971  25.256  36.889   9.450
 4574POPC   PO418972  25.245  36.918   9.150
 4574POPC   GL118973  25.277  36.927   8.850
 4574POPC   GL218974  25.139  36.919   8.850
 4574POPC   C1A18975  25.223  36.891   8.550
 4574POPC   D2A18976  25.280  36.949   8.250
 4574POPC   C3A18977  25.240  36.861   7.950
 4574POPC   C4A18978  25.291  36.919   7.650
 4574POPC   C1B18979  25.040  36.955   8.550
 4574POPC   C2B18980  25.037  36.973   8.250
 4574POPC   C3B18981  24.985  36.977   7.950
 4574POPC   C4B18982  25.024  37.024   7.650
 4575POPC   NC318983   5.133  39.208   9.450
 4575POPC   PO418984   5.132  39.213   9.150
 4575POPC   GL118985   5.081  39.246   8.850
 4575POPC   GL218986   5.019  39.139   8.850
 4575POPC   C1A18987   5.130  39.245   8.550
 4575POPC   D2A18988   5.067  39.194   8.250
 4575POPC   C3A18989   5.084  39.213   7.950
 4575POPC   C4A18990   5.056  39.267   7.650
 4575POPC   C1B18991   4.890  39.060   8.550
 4575POPC   C2B18992   4.891  39.062   8.250
 4575POPC   C3B18993   4.920  39.091   7.950
 4575POPC   C4B18994   4.940  39.107   7.650
 4576POPC   NC318995  19.040  31.485   9.450
 4576POPC   PO418996  19.047  31.455   9.150
 4576POPC   GL118997  19.084  31.510   8.850
 4576POPC   GL218998  18.911  31.400   8.850
 4576POPC   C1A18999  19.105  31.464   8.550
 4576POPC   D2A19000  19.102  31.424   8.250
 4576POPC   C3A19001  19.082  31.457   7.950
 4576POPC   C4A19002  19.059  31.428   7.650
 4576POPC   C1B19003  18.780  31.438   8.550
 4576POPC   C2B19004  18.792  31.385   8.250
 4576POPC   C3B19005  18.833  31.429   7.950
 4576POPC   C4B19006  18.781  31.465   7.650
 4577POPC   NC319007  28.408  15.132   9.450
 4577POPC   PO419008  28.410  15.221   9.150
 4577POPC   GL119009  28.338  15.184   8.850
 4577POPC   GL219010  28.482  15.236   8.850
 4577POPC   C1A19011  28.385  15.229   8.550
 4577POPC   D2A19012  28.407  15.173   8.250
 4577POPC   C3A19013  28.330  15.156   7.950
 4577POPC   C4A19014  28.357  15.164   7.650
 4577POPC   C1B19015  28.593  15.364   8.550
 4577POPC   C2B19016  28.605  15.339   8.250
 4577POPC   C3B19017  28.600  15.328   7.950
 4577POPC   C4B19018  28.553  15.306   7.650
 4578POPC   NC319019  38.444  13.653   9.450
 4578POPC   PO419020  38.413  13.595   9.150
 4578POPC   GL119021  38.463  13.597   8.850
 4578POPC   GL219022  38.348  13.659   8.850
 4578POPC   C1A19023  38.501  13.610   8.550
 4578POPC   D2A19024  38.411  13.602   8.250
 4578POPC   C3A19025  38.413  13.649   7.950
 4578POPC   C4A19026  38.474  13.675   7.650
 4578POPC   C1B19027  38.202  13.769   8.550
 4578POPC   C2B19028  38.268  13.761   8.250
 4578POPC   C3B19029  38.178  13.689   7.950
 4578POPC   C4B19030  38.213  13.683   7.650
 4579POPC   NC319031  12.097  18.238   9.450
 4579POPC   PO419032  12.044  18.241   9.150
 4579POPC   GL119033  12.115  18.311   8.850
 4579POPC   GL219034  12.019  18.352   8.850
 4579POPC   C1A19035  12.038  18.242   8.550
 4579POPC   D2A19036  12.088  18.284   8.250
 4579POPC   C3A19037  12.038  18.275   7.950
 4579POPC   C4A19038  12.030  18.243   7.650
 4579POPC   C1B19039  11.930  18.452   8.550
 4579POPC   C2B19040  11.912  18.465   8.250
 4579POPC   C3B19041  11.852  18.492   7.950
 4579POPC   C4B19042  11.946  18.456   7.650
 4580POPC   NC319043  30.658   8.245   9.450
 4580POPC   PO419044  30.716   8.162   9.150
 4580POPC   GL119045  30.712   8.160   8.850
 4580POPC   GL219046  30.841   8.151   8.850
 4580POPC   C1A19047  30.656   8.147   8.550
 4580POPC   D2A19048  30.717   8.214   8.250
 4580POPC   C3A19049  30.699   8.149   7.950
 4580POPC   C4A19050  30.660   8.162   7.650
 4580POPC   C1B19051  30.956   8.123   8.550
 4580POPC   C2B19052  30.878   8.080   8.250
 4580POPC   C3B19053  30.948   8.082   7.950
 4580POPC   C4B19054  30.921   8.102   7.650
 4581POPC   NC319055  10.514   3.497   9.450
 4581POPC   PO419056  10.557   3.564   9.150
 4581POPC   GL119057  10.474   3.544   8.850
 4581POPC   GL219058  10.697   3.523   8.850
 4581POPC   C1A19059  10.550   3.582   8.550
 4581POPC   D2A19060  10.537   3.576   8.250
 4581POPC   C3A19061  10.495   3.578   7.950
 4581POPC   C4A19062  10.476   3.531   7.650
 4581POPC   C1B19063  10.774   3.469   8.550
 4581POPC   C2B19064  10.791   3.459   8.250
 4581POPC   C3B19065  10.743   3.511   7.950
 4581POPC   C4B19066  10.788   3.463   7.650
 4582POPC   NC319067   8.978  43.090   9.450
 4582POPC   PO419068   9.009  43.141   9.150
 4582POPC   GL119069   9.020  43.064   8.850
 4582POPC   GL219070   9.011  43.016   8.850
 4582POPC   C1A19071   8.941  43.104   8.550
 4582POPC   D2A19072   9.018  43.155   8.250
 4582POPC   C3A19073   8.929  43.114   7.950
 4582POPC   C4A19074   8.969  43.117   7.650
 4582POPC   C1B19075   9.134  42.933   8.550
 4582POPC   C2B19076   9.052  42.854   8.250
 4582POPC   C3B19077   9.136  42.866   7.950
 4582POPC   C4B19078   9.105  42.937   7.650
 4583POPC   NC319079  34.580  40.747   9.450
 4583POPC   PO419080  34.578  40.821   9.150
 4583POPC   GL119081  34.554  40.803   8.850
 4583POPC   GL219082  34.592  40.633   8.850
 4583POPC   C1A19083  34.532  40.760   8.550
 4583POPC   D2A19084  34.608  40.787   8.250
 4583POPC   C3A19085  34.598  40.794   7.950
 4583POPC   C4A19086  34.539  40.811   7.650
 4583POPC   C1B19087  34.632  40.518   8.550
 4583POPC   C2B19088  34.619  40.580   8.250
 4583POPC   C3B19089  34.620  40.508   7.950
 4583POPC   C4B19090  34.579  40.562   7.650
 4584POPC   NC319091  44.680  42.307   9.450
 4584POPC   PO419092  44.650  42.350   9.150
 4584POPC   GL119093  44.619  42.309   8.850
 4584POPC   GL219094  44.780  42.460   8.850
 4584POPC   C1A19095  44.623  42.340   8.550
 4584POPC   D2A19096  44.628  42.379   8.250
 4584POPC   C3A19097  44.613  42.291   7.950
 4584POPC   C4A19098  44.612  42.356   7.650
 4584POPC   C1B19099  44.828  42.547   8.550
 4584POPC   C2B19100  44.810  42.544   8.250
 4584POPC   C3B19101  44.794  42.509   7.950
 4584POPC   C4B19102  44.829  42.474   7.650
 4585POPC   NC319103   8.225  36.098   9.450
 4585POPC   PO419104   8.246  36.138   9.150
 4585POPC   GL119105   8.167  36.159   8.850
 4585POPC   GL219106   8.273  36.205   8.850
 4585POPC   C1A19107   8.230  36.152   8.550
 4585POPC   D2A19108   8.167  36.090   8.250
 4585POPC   C3A19109   8.222  36.156   7.950
 4585POPC   C4A19110   8.235  36.165   7.650
 4585POPC   C1B19111   8.386  36.252   8.550
 4585POPC   C2B19112   8.384  36.235   8.250
 4585POPC   C3B19113   8.396  36.298   7.950
 4585POPC   C4B19114   8.431  36.219   7.650
 4586POPC   NC319115  29.117  43.106   9.450
 4586POPC   PO419116  29.160  43.067   9.150
 4586POPC   GL119117  29.146  43.159   8.850
 4586POPC   GL219118  29.225  43.097   8.850
 4586POPC   C1A19119  29.127  43.111   8.550
 4586POPC   D2A19120  29.104  43.107   8.250
 4586POPC   C3A19121  29.136  43.144   7.950
 4586POPC   C4A19122  29.174  43.096   7.650
 4586POPC   C1B19123  29.347  43.094   8.550
 4586POPC   C2B19124  29.349  43.079   8.250
 4586POPC   C3B19125  29.430  43.020   7.950
 4586POPC   C4B19126  29.346  43.021   7.650
 4587POPC   NC319127   2.767  40.808   9.450
 4587POPC   PO419128   2.729  40.822   9.150
 4587POPC   GL119129   2.724  40.770   8.850
 4587POPC   GL219130   2.871  40.695   8.850
 4587POPC   C1A19131   2.772  40.809   8.550
 4587POPC   D2A19132   2.739  40.765   8.250
 4587POPC   C3A19133   2.769  40.764   7.950
 4587POPC   C4A19134   2.795  40.832   7.650
 4587POPC   C1B19135   2.918  40.666   8.550
 4587POPC   C2B19136   2.997  40.637   8.250
 4587POPC   C3B19137   2.968  40.649   7.950
 4587POPC   C4B19138   2.929  40.591   7.650
 4588POPC   NC319139  38.491  27.587   9.450
 4588POPC   PO419140  38.432  27.550   9.150
 4588POPC   GL119141  38.491  27.573   8.850
 4588POPC   GL219142  38.459  27.476   8.850
 4588POPC   C1A19143  38.432  27.594   8.550
 4588POPC   D2A19144  38.444  27.596   8.250
 4588POPC   C3A19145  38.442  27.612   7.950
 4588POPC   C4A19146  38.460  27.599   7.650
 4588POPC   C1B19147  38.464  27.381   8.550
 4588POPC   C2B19148  38.436  27.375   8.250
 4588POPC   C3B19149  38.435  27.343   7.950
 4588POPC   C4B19150  38.456  27.364   7.650
 4589POPC   NC319151   6.598  43.924   9.450
 4589POPC   PO419152   6.634  43.934   9.150
 4589POPC   GL119153   6.656  43.862   8.850
 4589POPC   GL219154   6.692  43.934   8.850
 4589POPC   C1A19155   6.595  43.896   8.550
 4589POPC   D2A19156   6.658  43.919   8.250
 4589POPC   C3A19157   6.647  43.854   7.950
 4589POPC   C4A19158   6.632  43.878   7.650
 4589POPC   C1B19159   6.797  44.106   8.550
 4589POPC   C2B19160   6.790  44.099   8.250
 4589POPC   C3B19161   6.867  44.075   7.950
 4589POPC   C4B19162   6.792  44.070   7.650
 4590POPC   NC319163  33.809   4.333   9.450
 4590POPC   PO419164  33.786   4.293   9.150
 4590POPC   GL119165  33.808   4.363   8.850
 4590POPC   GL219166  33.878   4.396   8.850
 4590POPC   C1A19167  33.782   4.286   8.550
 4590POPC   D2A19168  33.762   4.364   8.250
 4590POPC   C3A19169  33.844   4.299   7.950
 4590POPC   C4A19170  33.826   4.280   7.650
 4590POPC   C1B19171  33.968   4.505   8.550
 4590POPC   C2B19172  33.985   4.514   8.250
 4590POPC   C3B19173  33.965   4.527   7.950
 4590POPC   C4B19174  33.999   4.482   7.650
 4591POPC   NC319175  34.561  41.509   9.450
 4591POPC   PO419176  34.596  41.583   9.150
 4591POPC   GL119177  34.574  41.597   8.850
 4591POPC   GL219178  34.427  41.516   8.850
 4591POPC   C1A19179  34.613  41.597   8.550
 4591POPC   D2A19180  34.617  41.605   8.250
 4591POPC   C3A19181  34.583  41.598   7.950
 4591POPC   C4A19182  34.570  41.586   7.650
 4591POPC   C1B19183  34.413  41.379   8.550
 4591POPC   C2B19184  34.338  41.407   8.250
 4591POPC   C3B19185  34.328  41.457   7.950
 4591POPC   C4B19186  34.351  41.436   7.650
 4592POPC   NC319187  18.245  35.374   9.450
 4592POPC   PO419188  18.332  35.346   9.150
 4592POPC   GL119189  18.290  35.396   8.850
 4592POPC   GL219190  18.188  35.204   8.850
 4592POPC   C1A19191  18.282  35.330   8.550
 4592POPC   D2A19192  18.286  35.349   8.250
 4592POPC   C3A19193  18.330  35.393   7.950
 4592POPC   C4A19194  18.303  35.388   7.650
 4592POPC   C1B19195  18.127  35.135   8.550
 4592POPC   C2B19196  18.137  35.159   8.250
 4592POPC   C3B19197  18.087  35.158   7.950
 4592POPC   C4B19198  18.154  35.190   7.650
 4593POPC   NC319199  12.888  21.396   9.450
 4593POPC   PO419200  12.879  21.414   9.150
 4593POPC   GL119201  12.833  21.408   8.850
 4593POPC   GL219202  12.735  21.395   8.850
 4593POPC   C1A19203  12.889  21.358   8.550
 4593POPC   D2A19204  12.836  21.416   8.250
 4593POPC   C3A19205  12.835  21.419   7.950
 4593POPC   C4A19206  12.892  21.391   7.650
 4593POPC   C1B19207  12.559  21.362   8.550
 4593POPC   C2B19208  12.622  21.369   8.250
 4593POPC   C3B19209  12.651  21.428   7.950
 4593POPC   C4B19210  12.612  21.384   7.650
 4594POPC   NC319211   5.877  15.955   9.450
 4594POPC   PO419212   5.911  15.945   9.150
 4594POPC   GL119213   5.848  15.976   8.850
 4594POPC   GL219214   5.763  15.875   8.850
 4594POPC   C1A19215   5.840  15.943   8.550
 4594POPC   D2A19216   5.845  15.934   8.250
 4594POPC   C3A19217   5.849  15.984   7.950
 4594POPC   C4A19218   5.899  15.995   7.650
 4594POPC   C1B19219   5.716  15.690   8.550
 4594POPC   C2B19220   5.791  15.696   8.250
 4594POPC   C3B19221   5.785  15.723   7.950
 4594POPC   C4B19222   5.781  15.724   7.650
 4595POPC   NC319223  35.306   9.780   9.450
 4595POPC   PO419224  35.382   9.762   9.150
 4595POPC   GL119225  35.393   9.791   8.850
 4595POPC   GL219226  35.252   9.655   8.850
 4595POPC   C1A19227  35.385   9.732   8.550
 4595POPC   D2A19228  35.354   9.716   8.250
 4595POPC   C3A19229  35.344   9.761   7.950
 4595POPC   C4A19230  35.350   9.730   7.650
 4595POPC   C1B19231  35.157   9.634   8.550
 4595POPC   C2B19232  35.129   9.645   8.250
 4595POPC   C3B19233  35.164   9.574   7.950
 4595POPC   C4B19234  35.181   9.592   7.650
 4596POPC   NC319235  19.023  29.123   9.450
 4596POPC   PO419236  19.099  29.166   9.150
 4596POPC   GL119237  19.048  29.109   8.850
 4596POPC   GL219238  19.019  29.057   8.850
 4596POPC   C1A19239  19.021  29.171   8.550
 4596POPC   D2A19240  19.046  29.166   8.250
 4596POPC   C3A19241  19.020  29.131   7.950
 4596POPC   C4A19242  19.023  29.106   7.650
 4596POPC   C1B19243  18.908  28.889   8.550
 4596POPC   C2B19244  18.930  28.939   8.250
 4596POPC   C3B19245  18.995  28.917   7.950
 4596POPC   C4B19246  18.946  28.910   7.650
 4597POPC   NC319247  12.045  25.992   9.450
 4597POPC   PO419248  12.071  26.006   9.150
 4597POPC   GL119249  12.081  26.042   8.850
 4597POPC   GL219250  12.134  26.195   8.850
 4597POPC   C1A19251  12.116  26.012   8.550
 4597POPC   D2A19252  12.062  26.058   8.250
 4597POPC   C3A19253  12.039  26.034   7.950
 4597POPC   C4A19254  12.035  26.056   7.650
 4597POPC   C1B19255  12.120  26.289   8.550
 4597POPC   C2B19256  12.144  26.281   8.250
 4597POPC   C3B19257  12.202  26.273   7.950
 4597POPC   C4B19258  12.128  26.307   7.650
 4598POPC   NC319259  23.763   9.760   9.450
 4598POPC   PO419260  23.747   9.780   9.150
 4598POPC   GL119261  23.738   9.730   8.850
 4598POPC   GL219262  23.757   9.581   8.850
 4598POPC   C1A19263  23.676   9.733   8.550
 4598POPC   D2A19264  23.672   9.729   8.250
 4598POPC   C3A19265  23.762   9.732   7.950
 4598POPC   C4A19266  23.737   9.761   7.650
 4598POPC   C1B19267  23.711   9.507   8.550
 4598POPC   C2B19268  23.694   9.457   8.250
 4598POPC   C3B19269  23.722   9.485   7.950
 4598POPC   C4B19270  23.700   9.503   7.650
 4599POPC   NC319271  26.805  13.595   9.450
 4599POPC   PO419272  26.843  13.646   9.150
 4599POPC   GL119273  26.826  13.651   8.850
 4599POPC   GL219274  26.835  13.456   8.850
 4599POPC   C1A19275  26.793  13.620   8.550
 4599POPC   D2A19276  26.787  13.603   8.250
 4599POPC   C3A19277  26.827  13.645   7.950
 4599POPC   C4A19278  26.845  13.606   7.650
 4599POPC   C1B19279  26.744  13.369   8.550
 4599POPC   C2B19280  26.790  13.349   8.250
 4599POPC   C3B19281  26.790  13.412   7.950
 4599POPC   C4B19282  26.790  13.368   7.650
 4600POPC   NC319283  33.072  43.099   9.450
 4600POPC   PO419284  33.061  43.146   9.150
 4600POPC   GL119285  32.995  43.090   8.850
 4600POPC   GL219286  32.914  42.999   8.850
 4600POPC   C1A19287  33.059  43.150   8.550
 4600POPC   D2A19288  33.000  43.088   8.250
 4600POPC   C3A19289  33.051  43.127   7.950
 4600POPC   C4A19290  32.996  43.132   7.650
 4600POPC   C1B19291  32.850  42.953   8.550
 4600POPC   C2B19292  32.886  42.898   8.250
 4600POPC   C3B19293  32.828  42.961   7.950
 4600POPC   C4B19294  32.859  42.877   7.650
 4601POPC   NC319295  40.053  16.705   9.450
 4601POPC   PO419296  39.973  16.715   9.150
 4601POPC   GL119297  39.999  16.695   8.850
 4601POPC   GL219298  39.929  16.615   8.850
 4601POPC   C1A19299  40.002  16.740   8.550
 4601POPC   D2A19300  39.976  16.779   8.250
 4601POPC   C3A19301  39.988  16.743   7.950
 4601POPC   C4A19302  40.000  16.732   7.650
 4601POPC   C1B19303  39.826  16.527   8.550
 4601POPC   C2B19304  39.809  16.560   8.250
 4601POPC   C3B19305  39.850  16.555   7.950
 4601POPC   C4B19306  39.805  16.503   7.650
 4602POPC   NC319307  22.931  44.623   9.450
 4602POPC   PO419308  22.909  44.687   9.150
 4602POPC   GL119309  22.988  44.657   8.850
 4602POPC   GL219310  22.966  44.777   8.850
 4602POPC   C1A19311  22.903  44.646   8.550
 4602POPC   D2A19312  22.946  44.620   8.250
 4602POPC   C3A19313  22.924  44.690   7.950
 4602POPC   C4A19314  22.964  44.660   7.650
 4602POPC   C1B19315  23.050  44.881   8.550
 4602POPC   C2B19316  23.082  44.832   8.250
 4602POPC   C3B19317  23.080  44.896   7.950
 4602POPC   C4B19318  23.046  44.832   7.650
 4603POPC   NC319319  24.472   0.478   9.450
 4603POPC   PO419320  24.443   0.449   9.150
 4603POPC   GL119321  24.508   0.415   8.850
 4603POPC   GL219322  24.597   0.448   8.850
 4603POPC   C1A19323  24.518   0.435   8.550
 4603POPC   D2A19324  24.532   0.414   8.250
 4603POPC   C3A19325  24.450   0.434   7.950
 4603POPC   C4A19326  24.473   0.392   7.650
 4603POPC   C1B19327  24.775   0.326   8.550
 4603POPC   C2B19328  24.689   0.419   8.250
 4603POPC   C3B19329  24.738   0.394   7.950
 4603POPC   C4B19330  24.711   0.338   7.650
 4604POPC   NC319331  26.815  26.073   9.450
 4604POPC   PO419332  26.822  26.021   9.150
 4604POPC   GL119333  26.838  26.019   8.850
 4604POPC   GL219334  26.785  26.117   8.850
 4604POPC   C1A19335  26.775  25.992   8.550
 4604POPC   D2A19336  26.805  26.077   8.250
 4604POPC   C3A19337  26.831  26.069   7.950
 4604POPC   C4A19338  26.793  26.082   7.650
 4604POPC   C1B19339  26.620  26.240   8.550
 4604POPC   C2B19340  26.640  26.260   8.250
 4604POPC   C3B19341  26.677  26.240   7.950
 4604POPC   C4B19342  26.675  26.203   7.650
 4605POPC   NC319343  22.204  26.019   9.450
 4605POPC   PO419344  22.187  26.006   9.150
 4605POPC   GL119345  22.194  26.033   8.850
 4605POPC   GL219346  22.309  26.091   8.850
 4605POPC   C1A19347  22.154  26.051   8.550
 4605POPC   D2A19348  22.170  26.039   8.250
 4605POPC   C3A19349  22.192  25.992   7.950
 4605POPC   C4A19350  22.209  26.034   7.650
 4605POPC   C1B19351  22.418  26.132   8.550
 4605POPC   C2B19352  22.403  26.128   8.250
 4605POPC   C3B19353  22.374  26.082   7.950
 4605POPC   C4B19354  22.372  26.092   7.650
 4606POPC   NC319355  30.676  29.173   9.450
 4606POPC   PO419356  30.725  29.111   9.150
 4606POPC   GL119357  30.720  29.166   8.850
 4606POPC   GL219358  30.560  29.173   8.850
 4606POPC   C1A19359  30.673  29.190   8.550
 4606POPC   D2A19360  30.647  29.186   8.250
 4606POPC   C3A19361  30.650  29.129   7.950
 4606POPC   C4A19362  30.745  29.172   7.650
 4606POPC   C1B19363  30.419  29.173   8.550
 4606POPC   C2B19364  30.485  29.198   8.250
 4606POPC   C3B19365  30.479  29.208   7.950
 4606POPC   C4B19366  30.411  29.143   7.650
 4607POPC   NC319367  35.327   1.170   9.450
 4607POPC   PO419368  35.342   1.185   9.150
 4607POPC   GL119369  35.343   1.220   8.850
 4607POPC   GL219370  35.493   1.308   8.850
 4607POPC   C1A19371  35.401   1.172   8.550
 4607POPC   D2A19372  35.304   1.242   8.250
 4607POPC   C3A19373  35.312   1.186   7.950
 4607POPC   C4A19374  35.373   1.209   7.650
 4607POPC   C1B19375  35.533   1.314   8.550
 4607POPC   C2B19376  35.572   1.324   8.250
 4607POPC   C3B19377  35.570   1.336   7.950
 4607POPC   C4B19378  35.568   1.380   7.650
 4608POPC   NC319379  13.592  19.101   9.450
 4608POPC   PO419380  13.653  19.078   9.150
 4608POPC   GL119381  13.656  19.056   8.850
 4608POPC   GL219382  13.517  19.117   8.850
 4608POPC   C1A19383  13.609  19.073   8.550
 4608POPC   D2A19384  13.656  19.015   8.250
 4608POPC   C3A19385  13.642  19.044   7.950
 4608POPC   C4A19386  13.606  19.077   7.650
 4608POPC   C1B19387  13.445  19.273   8.550
 4608POPC   C2B19388  13.484  19.286   8.250
 4608POPC   C3B19389  13.436  19.273   7.950
 4608POPC   C4B19390  13.463  19.221   7.650
 4609POPC   NC319391  34.600  30.719   9.450
 4609POPC   PO419392  34.586  30.734   9.150
 4609POPC   GL119393  34.598  30.692   8.850
 4609POPC   GL219394  34.597  30.612   8.850
 4609POPC   C1A19395  34.536  30.649   8.550
 4609POPC   D2A19396  34.584  30.738   8.250
 4609POPC   C3A19397  34.597  30.723   7.950
 4609POPC   C4A19398  34.590  30.739   7.650
 4609POPC   C1B19399  34.704  30.441   8.550
 4609POPC   C2B19400  34.651  30.437   8.250
 4609POPC   C3B19401  34.722  30.492   7.950
 4609POPC   C4B19402  34.646  30.497   7.650
 4610POPC   NC319403   2.787  40.021   9.450
 4610POPC   PO419404   2.777  40.023   9.150
 4610POPC   GL119405   2.743  39.976   8.850
 4610POPC   GL219406   2.709  40.133   8.850
 4610POPC   C1A19407   2.780  40.005   8.550
 4610POPC   D2A19408   2.767  40.045   8.250
 4610POPC   C3A19409   2.737  39.990   7.950
 4610POPC   C4A19410   2.752  40.046   7.650
 4610POPC   C1B19411   2.615  40.255   8.550
 4610POPC   C2B19412   2.617  40.190   8.250
 4610POPC   C3B19413   2.645  40.170   7.950
 4610POPC   C4B19414   2.668  40.215   7.650
 4611POPC   NC319415  24.494  37.697   9.450
 4611POPC   PO419416  24.483  37.692   9.150
 4611POPC   GL119417  24.537  37.657   8.850
 4611POPC   GL219418  24.353  37.668   8.850
 4611POPC   C1A19419  24.516  37.636   8.550
 4611POPC   D2A19420  24.523  37.726   8.250
 4611POPC   C3A19421  24.489  37.682   7.950
 4611POPC   C4A19422  24.482  37.671   7.650
 4611POPC   C1B19423  24.275  37.717   8.550
 4611POPC   C2B19424  24.213  37.765   8.250
 4611POPC   C3B19425  24.216  37.688   7.950
 4611POPC   C4B19426  24.248  37.737   7.650
 4612POPC   NC319427  37.709  40.815   9.450
 4612POPC   PO419428  37.711  40.812   9.150
 4612POPC   GL119429  37.711  40.743   8.850
 4612POPC   GL219430  37.602  40.709   8.850
 4612POPC   C1A19431  37.651  40.776   8.550
 4612POPC   D2A19432  37.702  40.783   8.250
 4612POPC   C3A19433  37.662  40.807   7.950
 4612POPC   C4A19434  37.729  40.806   7.650
 4612POPC   C1B19435  37.443  40.658   8.550
 4612POPC   C2B19436  37.421  40.687   8.250
 4612POPC   C3B19437  37.482  40.734   7.950
 4612POPC   C4B19438  37.460  40.697   7.650
 4613POPC   NC319439  28.413  28.408   9.450
 4613POPC   PO419440  28.324  28.352   9.150
 4613POPC   GL119441  28.342  28.344   8.850
 4613POPC   GL219442  28.313  28.268   8.850
 4613POPC   C1A19443  28.361  28.407   8.550
 4613POPC   D2A19444  28.334  28.336   8.250
 4613POPC   C3A19445  28.399  28.351   7.950
 4613POPC   C4A19446  28.339  28.340   7.650
 4613POPC   C1B19447  28.178  28.216   8.550
 4613POPC   C2B19448  28.150  28.173   8.250
 4613POPC   C3B19449  28.136  28.250   7.950
 4613POPC   C4B19450  28.128  28.193   7.650
 4614POPC   NC319451  17.496  20.655   9.450
 4614POPC   PO419452  17.524  20.567   9.150
 4614POPC   GL119453  17.486  20.580   8.850
 4614POPC   GL219454  17.486  20.554   8.850
 4614POPC   C1A19455  17.459  20.563   8.550
 4614POPC   D2A19456  17.477  20.589   8.250
 4614POPC   C3A19457  17.520  20.599   7.950
 4614POPC   C4A19458  17.474  20.600   7.650
 4614POPC   C1B19459  17.356  20.368   8.550
 4614POPC   C2B19460  17.365  20.431   8.250
 4614POPC   C3B19461  17.353  20.393   7.950
 4614POPC   C4B19462  17.399  20.407   7.650
 4615POPC   NC319463  22.935   0.433   9.450
 4615POPC   PO419464  22.975   0.408   9.150
 4615POPC   GL119465  22.897   0.394   8.850
 4615POPC   GL219466  22.954   0.319   8.850
 4615POPC   C1A19467  22.896   0.487   8.550
 4615POPC   D2A19468  22.909   0.476   8.250
 4615POPC   C3A19469  22.980   0.458   7.950
 4615POPC   C4A19470  22.968   0.392   7.650
 4615POPC   C1B19471  23.110   0.194   8.550
 4615POPC   C2B19472  23.079   0.258   8.250
 4615POPC   C3B19473  23.073   0.174   7.950
 4615POPC   C4B19474  23.065   0.248   7.650
 4616POPC   NC319475  16.733  12.123   9.450
 4616POPC   PO419476  16.772  12.121   9.150
 4616POPC   GL119477  16.685  12.114   8.850
 4616POPC   GL219478  16.776  11.962   8.850
 4616POPC   C1A19479  16.733  12.078   8.550
 4616POPC   D2A19480  16.763  12.082   8.250
 4616POPC   C3A19481  16.691  12.124   7.950
 4616POPC   C4A19482  16.772  12.051   7.650
 4616POPC   C1B19483  16.801  11.892   8.550
 4616POPC   C2B19484  16.866  11.890   8.250
 4616POPC   C3B19485  16.790  11.844   7.950
 4616POPC   C4B19486  16.817  11.815   7.650
 4617POPC   NC319487  29.097  29.879   9.450
 4617POPC   PO419488  29.190  29.889   9.150
 4617POPC   GL119489  29.143  29.884   8.850
 4617POPC   GL219490  29.085  30.042   8.850
 4617POPC   C1A19491  29.142  29.909   8.550
 4617POPC   D2A19492  29.120  29.962   8.250
 4617POPC   C3A19493  29.125  29.917   7.950
 4617POPC   C4A19494  29.155  29.946   7.650
 4617POPC   C1B19495  29.075  30.143   8.550
 4617POPC   C2B19496  29.116  30.146   8.250
 4617POPC   C3B19497  29.112  30.173   7.950
 4617POPC   C4B19498  29.082  30.194   7.650
 4618POPC   NC319499   7.381  24.491   9.450
 4618POPC   PO419500   7.403  24.520   9.150
 4618POPC   GL119501   7.415  24.495   8.850
 4618POPC   GL219502   7.392  24.342   8.850
 4618POPC   C1A19503   7.378  24.465   8.550
 4618POPC   D2A19504   7.375  24.521   8.250
 4618POPC   C3A19505   7.417  24.524   7.950
 4618POPC   C4A19506   7.427  24.455   7.650
 4618POPC   C1B19507   7.271  24.308   8.550
 4618POPC   C2B19508   7.278  24.225   8.250
 4618POPC   C3B19509   7.348  24.241   7.950
 4618POPC   C4B19510   7.270  24.224   7.650
 4619POPC   NC319511  15.911  22.122   9.450
 4619POPC   PO419512  15.939  22.195   9.150
 4619POPC   GL119513  15.988  22.190   8.850
 4619POPC   GL219514  16.076  22.126   8.850
 4619POPC   C1A19515  15.914  22.175   8.550
 4619POPC   D2A19516  15.991  22.164   8.250
 4619POPC   C3A19517  15.994  22.127   7.950
 4619POPC   C4A19518  15.985  22.209   7.650
 4619POPC   C1B19519  16.166  22.127   8.550
 4619POPC   C2B19520  16.178  22.119   8.250
 4619POPC   C3B19521  16.236  22.069   7.950
 4619POPC   C4B19522  16.202  22.147   7.650
 4620POPC   NC319523  34.572  10.517   9.450
 4620POPC   PO419524  34.598  10.506   9.150
 4620POPC   GL119525  34.576  10.565   8.850
 4620POPC   GL219526  34.628  10.603   8.850
 4620POPC   C1A19527  34.564  10.526   8.550
 4620POPC   D2A19528  34.536  10.492   8.250
 4620POPC   C3A19529  34.585  10.525   7.950
 4620POPC   C4A19530  34.584  10.496   7.650
 4620POPC   C1B19531  34.639  10.782   8.550
 4620POPC   C2B19532  34.700  10.713   8.250
 4620POPC   C3B19533  34.671  10.773   7.950
 4620POPC   C4B19534  34.622  10.744   7.650
 4621POPC   NC319535  36.901  27.571   9.450
 4621POPC   PO419536  36.911  27.561   9.150
 4621POPC   GL119537  36.942  27.558   8.850
 4621POPC   GL219538  36.941  27.490   8.850
 4621POPC   C1A19539  36.916  27.613   8.550
 4621POPC   D2A19540  36.951  27.579   8.250
 4621POPC   C3A19541  36.928  27.590   7.950
 4621POPC   C4A19542  36.920  27.549   7.650
 4621POPC   C1B19543  36.863  27.344   8.550
 4621POPC   C2B19544  36.925  27.362   8.250
 4621POPC   C3B19545  36.928  27.373   7.950
 4621POPC   C4B19546  36.863  27.314   7.650
 4622POPC   NC319547  12.036  42.370   9.450
 4622POPC   PO419548  12.072  42.313   9.150
 4622POPC   GL119549  12.116  42.301   8.850
 4622POPC   GL219550  11.984  42.237   8.850
 4622POPC   C1A19551  12.046  42.346   8.550
 4622POPC   D2A19552  12.032  42.338   8.250
 4622POPC   C3A19553  12.111  42.292   7.950
 4622POPC   C4A19554  12.031  42.297   7.650
 4622POPC   C1B19555  11.883  42.188   8.550
 4622POPC   C2B19556  11.875  42.141   8.250
 4622POPC   C3B19557  11.956  42.111   7.950
 4622POPC   C4B19558  11.959  42.134   7.650
 4623POPC   NC319559  16.002  37.646   9.450
 4623POPC   PO419560  16.004  37.674   9.150
 4623POPC   GL119561  15.910  37.687   8.850
 4623POPC   GL219562  15.916  37.541   8.850
 4623POPC   C1A19563  15.912  37.640   8.550
 4623POPC   D2A19564  15.929  37.723   8.250
 4623POPC   C3A19565  15.910  37.715   7.950
 4623POPC   C4A19566  15.942  37.655   7.650
 4623POPC   C1B19567  15.750  37.530   8.550
 4623POPC   C2B19568  15.774  37.487   8.250
 4623POPC   C3B19569  15.755  37.513   7.950
 4623POPC   C4B19570  15.763  37.541   7.650
 4624POPC   NC319571  42.334   9.733   9.450
 4624POPC   PO419572  42.376   9.760   9.150
 4624POPC   GL119573  42.338   9.760   8.850
 4624POPC   GL219574  42.216   9.678   8.850
 4624POPC   C1A19575  42.376   9.705   8.550
 4624POPC   D2A19576  42.323   9.711   8.250
 4624POPC   C3A19577  42.316   9.779   7.950
 4624POPC   C4A19578  42.322   9.733   7.650
 4624POPC   C1B19579  42.095   9.627   8.550
 4624POPC   C2B19580  42.147   9.600   8.250
 4624POPC   C3B19581  42.187   9.577   7.950
 4624POPC   C4B19582  42.155   9.584   7.650
 4625POPC   NC319583  30.690  22.185   9.450
 4625POPC   PO419584  30.712  22.125   9.150
 4625POPC   GL119585  30.672  22.135   8.850
 4625POPC   GL219586  30.750  22.283   8.850
 4625POPC   C1A19587  30.679  22.170   8.550
 4625POPC   D2A19588  30.728  22.198   8.250
 4625POPC   C3A19589  30.675  22.202   7.950
 4625POPC   C4A19590  30.712  22.175   7.650
 4625POPC   C1B19591  30.740  22.371   8.550
 4625POPC   C2B19592  30.776  22.436   8.250
 4625POPC   C3B19593  30.760  22.350   7.950
 4625POPC   C4B19594  30.827  22.432   7.650
 4626POPC   NC319595   0.468  15.996   9.450
 4626POPC   PO419596   0.449  15.912   9.150
 4626POPC   GL119597   0.396  15.925   8.850
 4626POPC   GL219598   0.528  16.102   8.850
 4626POPC   C1A19599   0.477  15.910   8.550
 4626POPC   D2A19600   0.442  15.906   8.250
 4626POPC   C3A19601   0.483  15.939   7.950
 4626POPC   C4A19602   0.400  15.915   7.650
 4626POPC   C1B19603   0.568  16.170   8.550
 4626POPC   C2B19604   0.614  16.206   8.250
 4626POPC   C3B19605   0.553  16.168   7.950
 4626POPC   C4B19606   0.569  16.154   7.650
 4627POPC   NC319607  31.512  12.081   9.450
 4627POPC   PO419608  31.430  12.031   9.150
 4627POPC   GL119609  31.509  12.113   8.850
 4627POPC   GL219610  31.549  12.011   8.850
 4627POPC   C1A19611  31.503  12.050   8.550
 4627POPC   D2A19612  31.482  12.101   8.250
 4627POPC   C3A19613  31.512  12.042   7.950
 4627POPC   C4A19614  31.487  12.033   7.650
 4627POPC   C1B19615  31.605  11.844   8.550
 4627POPC   C2B19616  31.634  11.882   8.250
 4627POPC   C3B19617  31.628  11.839   7.950
 4627POPC   C4B19618  31.567  11.870   7.650
 4628POPC   NC319619  16.766  29.888   9.450
 4628POPC   PO419620  16.691  29.879   9.150
 4628POPC   GL119621  16.735  29.910   8.850
 4628POPC   GL219622  16.795  29.894   8.850
 4628POPC   C1A19623  16.780  29.902   8.550
 4628POPC   D2A19624  16.745  29.963   8.250
 4628POPC   C3A19625  16.726  29.892   7.950
 4628POPC   C4A19626  16.776  29.905   7.650
 4628POPC   C1B19627  16.954  29.757   8.550
 4628POPC   C2B19628  16.956  29.785   8.250
 4628POPC   C3B19629  16.976  29.798   7.950
 4628POPC   C4B19630  16.943  29.842   7.650
 4629POPC   NC319631  25.289  36.124   9.450
 4629POPC   PO419632  25.306  36.161   9.150
 4629POPC   GL119633  25.249  36.103   8.850
 4629POPC   GL219634  25.180  36.021   8.850
 4629POPC   C1A19635  25.264  36.142   8.550
 4629POPC   D2A19636  25.247  36.119   8.250
 4629POPC   C3A19637  25.234  36.093   7.950
 4629POPC   C4A19638  25.229  36.151   7.650
 4629POPC   C1B19639  25.139  35.921   8.550
 4629POPC   C2B19640  25.159  35.855   8.250
 4629POPC   C3B19641  25.166  35.914   7.950
 4629POPC   C4B19642  25.139  35.903   7.650
 4630POPC   NC319643   6.619  22.163   9.450
 4630POPC   PO419644   6.636  22.163   9.150
 4630POPC   GL119645   6.627  22.185   8.850
 4630POPC   GL219646   6.586  22.089   8.850
 4630POPC   C1A19647   6.664  22.152   8.550
 4630POPC   D2A19648   6.662  22.118   8.250
 4630POPC   C3A19649   6.600  22.153   7.950
 4630POPC   C4A19650   6.654  22.186   7.650
 4630POPC   C1B19651   6.446  21.972   8.550
 4630POPC   C2B19652   6.423  21.969   8.250
 4630POPC   C3B19653   6.463  21.987   7.950
 4630POPC   C4B19654   6.483  22.029   7.650
 4631POPC   NC319655  37.674  31.425   9.450
 4631POPC   PO419656  37.712  31.461   9.150
 4631POPC   GL119657  37.664  31.432   8.850
 4631POPC   GL219658  37.540  31.464   8.850
 4631POPC   C1A19659  37.679  31.441   8.550
 4631POPC   D2A19660  37.693  31.499   8.250
 4631POPC   C3A19661  37.700  31.496   7.950
 4631POPC   C4A19662  37.647  31.425   7.650
 4631POPC   C1B19663  37.423  31.502   8.550
 4631POPC   C2B19664  37.387  31.555   8.250
 4631POPC   C3B19665  37.437  31.503   7.950
 4631POPC   C4B19666  37.455  31.506   7.650
 4632POPC   NC319667   8.175  19.042   9.450
 4632POPC   PO419668   8.192  19.042   9.150
 4632POPC   GL119669   8.227  19.041   8.850
 4632POPC   GL219670   8.170  18.968   8.850
 4632POPC   C1A19671   8.202  19.098   8.550
 4632POPC   D2A19672   8.149  19.065   8.250
 4632POPC   C3A19673   8.203  19.049   7.950
 4632POPC   C4A19674   8.208  19.071   7.650
 4632POPC   C1B19675   8.129  18.795   8.550
 4632POPC   C2B19676   8.142  18.801   8.250
 4632POPC   C3B19677   8.116  18.825   7.950
 4632POPC   C4B19678   8.074  18.818   7.650
 4633POPC   NC319679  24.466  15.219   9.450
 4633POPC   PO419680  24.511  15.217   9.150
 4633POPC   GL119681  24.525  15.201   8.850
 4633POPC   GL219682  24.615  15.188   8.850
 4633POPC   C1A19683  24.481  15.144   8.550
 4633POPC   D2A19684  24.458  15.227   8.250
 4633POPC   C3A19685  24.440  15.168   7.950
 4633POPC   C4A19686  24.452  15.184   7.650
 4633POPC   C1B19687  24.764  15.221   8.550
 4633POPC   C2B19688  24.732  15.162   8.250
 4633POPC   C3B19689  24.741  15.235   7.950
 4633POPC   C4B19690  24.756  15.233   7.650
 4634POPC   NC319691   6.656  12.817   9.450
 4634POPC   PO419692   6.642  12.874   9.150
 4634POPC   GL119693   6.603  12.885   8.850
 4634POPC   GL219694   6.752  12.773   8.850
 4634POPC   C1A19695   6.618  12.893   8.550
 4634POPC   D2A19696   6.660  12.893   8.250
 4634POPC   C3A19697   6.628  12.828   7.950
 4634POPC   C4A19698   6.656  12.847   7.650
 4634POPC   C1B19699   6.833  12.698   8.550
 4634POPC   C2B19700   6.790  12.645   8.250
 4634POPC   C3B19701   6.786  12.667   7.950
 4634POPC   C4B19702   6.816  12.639   7.650
 4635POPC   NC319703  44.640  39.968   9.450
 4635POPC   PO419704  44.628  39.965   9.150
 4635POPC   GL119705  44.659  39.987   8.850
 4635POPC   GL219706  44.746  39.934   8.850
 4635POPC   C1A19707  44.634  39.961   8.550
 4635POPC   D2A19708  44.679  40.052   8.250
 4635POPC   C3A19709  44.669  40.031   7.950
 4635POPC   C4A19710  44.660  39.977   7.650
 4635POPC   C1B19711  44.816  39.839   8.550
 4635POPC   C2B19712  44.806  39.801   8.250
 4635POPC   C3B19713  44.789  39.783   7.950
 4635POPC   C4B19714  44.835  39.763   7.650
 4636POPC   NC319715  22.177   5.868   9.450
 4636POPC   PO419716  22.148   5.875   9.150
 4636POPC   GL119717  22.203   5.911   8.850
 4636POPC   GL219718  22.123   6.036   8.850
 4636POPC   C1A19719  22.163   5.907   8.550
 4636POPC   D2A19720  22.137   5.870   8.250
 4636POPC   C3A19721  22.125   5.897   7.950
 4636POPC   C4A19722  22.212   5.826   7.650
 4636POPC   C1B19723  22.076   6.092   8.550
 4636POPC   C2B19724  22.106   6.083   8.250
 4636POPC   C3B19725  22.085   6.104   7.950
 4636POPC   C4B19726  22.092   6.150   7.650
 4637POPC   NC319727  35.326  26.013   9.450
 4637POPC   PO419728  35.390  26.088   9.150
 4637POPC   GL119729  35.365  26.000   8.850
 4637POPC   GL219730  35.230  26.043   8.850
 4637POPC   C1A19731  35.353  26.042   8.550
 4637POPC   D2A19732  35.337  26.030   8.250
 4637POPC   C3A19733  35.379  26.014   7.950
 4637POPC   C4A19734  35.314  26.036   7.650
 4637POPC   C1B19735  35.061  26.014   8.550
 4637POPC   C2B19736  35.062  26.032   8.250
 4637POPC   C3B19737  35.068  26.041   7.950
 4637POPC   C4B19738  35.135  26.025   7.650
 4638POPC   NC319739  34.571  21.372   9.450
 4638POPC   PO419740  34.576  21.403   9.150
 4638POPC   GL119741  34.543  21.342   8.850
 4638POPC   GL219742  34.645  21.267   8.850
 4638POPC   C1A19743  34.625  21.374   8.550
 4638POPC   D2A19744  34.574  21.370   8.250
 4638POPC   C3A19745  34.529  21.409   7.950
 4638POPC   C4A19746  34.551  21.413   7.650
 4638POPC   C1B19747  34.715  21.207   8.550
 4638POPC   C2B19748  34.758  21.191   8.250
 4638POPC   C3B19749  34.764  21.195   7.950
 4638POPC   C4B19750  34.805  21.198   7.650
 4639POPC   NC319751  34.597  27.557   9.450
 4639POPC   PO419752  34.530  27.633   9.150
 4639POPC   GL119753  34.626  27.561   8.850
 4639POPC   GL219754  34.513  27.715   8.850
 4639POPC   C1A19755  34.528  27.571   8.550
 4639POPC   D2A19756  34.601  27.546   8.250
 4639POPC   C3A19757  34.593  27.566   7.950
 4639POPC   C4A19758  34.527  27.584   7.650
 4639POPC   C1B19759  34.513  27.872   8.550
 4639POPC   C2B19760  34.521  27.809   8.250
 4639POPC   C3B19761  34.483  27.857   7.950
 4639POPC   C4B19762  34.486  27.826   7.650
 4640POPC   NC319763  15.170  32.214   9.450
 4640POPC   PO419764  15.133  32.242   9.150
 4640POPC   GL119765  15.181  32.201   8.850
 4640POPC   GL219766  15.180  32.145   8.850
 4640POPC   C1A19767  15.149  32.237   8.550
 4640POPC   D2A19768  15.133  32.254   8.250
 4640POPC   C3A19769  15.148  32.215   7.950
 4640POPC   C4A19770  15.166  32.209   7.650
 4640POPC   C1B19771  15.197  32.038   8.550
 4640POPC   C2B19772  15.139  31.967   8.250
 4640POPC   C3B19773  15.225  31.956   7.950
 4640POPC   C4B19774  15.211  31.969   7.650
 4641POPC   NC319775  33.022   6.603   9.450
 4641POPC   PO419776  33.017   6.687   9.150
 4641POPC   GL119777  33.000   6.669   8.850
 4641POPC   GL219778  32.900   6.624   8.850
 4641POPC   C1A19779  32.997   6.619   8.550
 4641POPC   D2A19780  33.073   6.632   8.250
 4641POPC   C3A19781  33.062   6.625   7.950
 4641POPC   C4A19782  33.017   6.621   7.650
 4641POPC   C1B19783  32.833   6.485   8.550
 4641POPC   C2B19784  32.795   6.488   8.250
 4641POPC   C3B19785  32.817   6.540   7.950
 4641POPC   C4B19786  32.789   6.478   7.650
 4642POPC   NC319787   2.007  43.845   9.450
 4642POPC   PO419788   2.017  43.840   9.150
 4642POPC   GL119789   1.950  43.883   8.850
 4642POPC   GL219790   1.888  43.785   8.850
 4642POPC   C1A19791   2.001  43.893   8.550
 4642POPC   D2A19792   1.952  43.840   8.250
 4642POPC   C3A19793   2.007  43.866   7.950
 4642POPC   C4A19794   1.945  43.909   7.650
 4642POPC   C1B19795   1.754  43.706   8.550
 4642POPC   C2B19796   1.827  43.695   8.250
 4642POPC   C3B19797   1.819  43.691   7.950
 4642POPC   C4B19798   1.739  43.767   7.650
 4643POPC   NC319799  36.095  41.560   9.450
 4643POPC   PO419800  36.079  41.532   9.150
 4643POPC   GL119801  36.140  41.587   8.850
 4643POPC   GL219802  36.275  41.566   8.850
 4643POPC   C1A19803  36.095  41.580   8.550
 4643POPC   D2A19804  36.123  41.592   8.250
 4643POPC   C3A19805  36.134  41.583   7.950
 4643POPC   C4A19806  36.133  41.565   7.650
 4643POPC   C1B19807  36.392  41.551   8.550
 4643POPC   C2B19808  36.396  41.585   8.250
 4643POPC   C3B19809  36.396  41.508   7.950
 4643POPC   C4B19810  36.423  41.521   7.650
 4644POPC   NC319811  11.292  34.539   9.450
 4644POPC   PO419812  11.319  34.544   9.150
 4644POPC   GL119813  11.282  34.615   8.850
 4644POPC   GL219814  11.185  34.663   8.850
 4644POPC   C1A19815  11.308  34.570   8.550
 4644POPC   D2A19816  11.334  34.607   8.250
 4644POPC   C3A19817  11.301  34.594   7.950
 4644POPC   C4A19818  11.278  34.620   7.650
 4644POPC   C1B19819  11.076  34.695   8.550
 4644POPC   C2B19820  11.078  34.701   8.250
 4644POPC   C3B19821  11.085  34.700   7.950
 4644POPC   C4B19822  11.119  34.661   7.650
 4645POPC   NC319823  27.585  12.081   9.450
 4645POPC   PO419824  27.612  12.102   9.150
 4645POPC   GL119825  27.586  12.051   8.850
 4645POPC   GL219826  27.661  11.987   8.850
 4645POPC   C1A19827  27.640  12.117   8.550
 4645POPC   D2A19828  27.554  12.125   8.250
 4645POPC   C3A19829  27.615  12.070   7.950
 4645POPC   C4A19830  27.581  12.058   7.650
 4645POPC   C1B19831  27.733  11.867   8.550
 4645POPC   C2B19832  27.819  11.936   8.250
 4645POPC   C3B19833  27.746  11.939   7.950
 4645POPC   C4B19834  27.808  11.936   7.650
 4646POPC   NC319835  40.754  29.097   9.450
 4646POPC   PO419836  40.756  29.153   9.150
 4646POPC   GL119837  40.746  29.120   8.850
 4646POPC   GL219838  40.706  29.011   8.850
 4646POPC   C1A19839  40.816  29.130   8.550
 4646POPC   D2A19840  40.779  29.150   8.250
 4646POPC   C3A19841  40.742  29.177   7.950
 4646POPC   C4A19842  40.771  29.137   7.650
 4646POPC   C1B19843  40.622  28.964   8.550
 4646POPC   C2B19844  40.593  28.980   8.250
 4646POPC   C3B19845  40.654  28.938   7.950
 4646POPC   C4B19846  40.640  28.917   7.650
 4647POPC   NC319847   5.895  15.216   9.450
 4647POPC   PO419848   5.875  15.223   9.150
 4647POPC   GL119849   5.892  15.213   8.850
 4647POPC   GL219850   5.930  15.100   8.850
 4647POPC   C1A19851   5.839  15.209   8.550
 4647POPC   D2A19852   5.865  15.220   8.250
 4647POPC   C3A19853   5.870  15.132   7.950
 4647POPC   C4A19854   5.879  15.139   7.650
 4647POPC   C1B19855   6.095  15.001   8.550
 4647POPC   C2B19856   6.065  14.963   8.250
 4647POPC   C3B19857   6.035  15.003   7.950
 4647POPC   C4B19858   6.093  15.041   7.650
 4648POPC   NC319859  36.086  40.738   9.450
 4648POPC   PO419860  36.143  40.816   9.150
 4648POPC   GL119861  36.084  40.736   8.850
 4648POPC   GL219862  36.028  40.779   8.850
 4648POPC   C1A19863  36.144  40.753   8.550
 4648POPC   D2A19864  36.173  40.800   8.250
 4648POPC   C3A19865  36.130  40.797   7.950
 4648POPC   C4A19866  36.127  40.794   7.650
 4648POPC   C1B19867  35.848  40.911   8.550
 4648POPC   C2B19868  35.911  40.833   8.250
 4648POPC   C3B19869  35.902  40.888   7.950
 4648POPC   C4B19870  35.942  40.877   7.650
 4649POPC   NC319871  11.258   5.883   9.450
 4649POPC   PO419872  11.317   5.853   9.150
 4649POPC   GL119873  11.261   5.914   8.850
 4649POPC   GL219874  11.225   5.715   8.850
 4649POPC   C1A19875  11.268   5.872   8.550
 4649POPC   D2A19876  11.316   5.836   8.250
 4649POPC   C3A19877  11.314   5.849   7.950
 4649POPC   C4A19878  11.324   5.841   7.650
 4649POPC   C1B19879  11.173   5.641   8.550
 4649POPC   C2B19880  11.258   5.630   8.250
 4649POPC   C3B19881  11.171   5.670   7.950
 4649POPC   C4B19882  11.203   5.601   7.650
 4650POPC   NC319883  42.308  44.655   9.450
 4650POPC   PO419884  42.323  44.666   9.150
 4650POPC   GL119885  42.311  44.701   8.850
 4650POPC   GL219886  42.390  44.749   8.850
 4650POPC   C1A19887  42.289  44.669   8.550
 4650POPC   D2A19888  42.367  44.620   8.250
 4650POPC   C3A19889  42.296  44.665   7.950
 4650POPC   C4A19890  42.348  44.674   7.650
 4650POPC   C1B19891  42.492  44.830   8.550
 4650POPC   C2B19892  42.443  44.835   8.250
 4650POPC   C3B19893  42.439  44.874   7.950
 4650POPC   C4B19894  42.484  44.834   7.650
 4651POPC   NC319895  35.361   4.300   9.450
 4651POPC   PO419896  35.327   4.352   9.150
 4651POPC   GL119897  35.364   4.347   8.850
 4651POPC   GL219898  35.457   4.360   8.850
 4651POPC   C1A19899  35.348   4.269   8.550
 4651POPC   D2A19900  35.361   4.294   8.250
 4651POPC   C3A19901  35.320   4.292   7.950
 4651POPC   C4A19902  35.388   4.307   7.650
 4651POPC   C1B19903  35.637   4.337   8.550
 4651POPC   C2B19904  35.571   4.354   8.250
 4651POPC   C3B19905  35.568   4.292   7.950
 4651POPC   C4B19906  35.560   4.288   7.650
 4652POPC   NC319907   5.078  40.823   9.450
 4652POPC   PO419908   5.140  40.763   9.150
 4652POPC   GL119909   5.048  40.744   8.850
 4652POPC   GL219910   5.170  40.785   8.850
 4652POPC   C1A19911   5.139  40.796   8.550
 4652POPC   D2A19912   5.108  40.753   8.250
 4652POPC   C3A19913   5.104  40.775   7.950
 4652POPC   C4A19914   5.044  40.769   7.650
 4652POPC   C1B19915   5.281  40.860   8.550
 4652POPC   C2B19916   5.337  40.845   8.250
 4652POPC   C3B19917   5.363  40.819   7.950
 4652POPC   C4B19918   5.319  40.841   7.650
 4653POPC   NC319919  23.682  43.895   9.450
 4653POPC   PO419920  23.757  43.900   9.150
 4653POPC   GL119921  23.734  43.907   8.850
 4653POPC   GL219922  23.859  43.916   8.850
 4653POPC   C1A19923  23.739  43.912   8.550
 4653POPC   D2A19924  23.688  43.895   8.250
 4653POPC   C3A19925  23.747  43.926   7.950
 4653POPC   C4A19926  23.672  43.882   7.650
 4653POPC   C1B19927  23.966  43.916   8.550
 4653POPC   C2B19928  23.969  43.930   8.250
 4653POPC   C3B19929  23.978  43.968   7.950
 4653POPC   C4B19930  23.990  43.967   7.650
 4654POPC   NC319931   5.129  17.548   9.450
 4654POPC   PO419932   5.142  17.513   9.150
 4654POPC   GL119933   5.133  17.476   8.850
 4654POPC   GL219934   5.085  17.598   8.850
 4654POPC   C1A19935   5.049  17.550   8.550
 4654POPC   D2A19936   5.135  17.526   8.250
 4654POPC   C3A19937   5.114  17.469   7.950
 4654POPC   C4A19938   5.107  17.483   7.650
 4654POPC   C1B19939   5.134  17.757   8.550
 4654POPC   C2B19940   5.183  17.732   8.250
 4654POPC   C3B19941   5.184  17.790   7.950
 4654POPC   C4B19942   5.154  17.738   7.650
 4655POPC   NC319943  40.792  13.592   9.450
 4655POPC   PO419944  40.808  13.615   9.150
 4655POPC   GL119945  40.739  13.579   8.850
 4655POPC   GL219946  40.755  13.513   8.850
 4655POPC   C1A19947  40.751  13.617   8.550
 4655POPC   D2A19948  40.751  13.652   8.250
 4655POPC   C3A19949  40.802  13.673   7.950
 4655POPC   C4A19950  40.826  13.658   7.650
 4655POPC   C1B19951  40.842  13.374   8.550
 4655POPC   C2B19952  40.758  13.411   8.250
 4655POPC   C3B19953  40.814  13.360   7.950
 4655POPC   C4B19954  40.806  13.395   7.650
 4656POPC   NC319955  15.228  17.525   9.450
 4656POPC   PO419956  15.176  17.527   9.150
 4656POPC   GL119957  15.181  17.496   8.850
 4656POPC   GL219958  15.203  17.633   8.850
 4656POPC   C1A19959  15.134  17.539   8.550
 4656POPC   D2A19960  15.152  17.541   8.250
 4656POPC   C3A19961  15.161  17.525   7.950
 4656POPC   C4A19962  15.151  17.552   7.650
 4656POPC   C1B19963  15.175  17.802   8.550
 4656POPC   C2B19964  15.113  17.733   8.250
 4656POPC   C3B19965  15.143  17.772   7.950
 4656POPC   C4B19966  15.195  17.785   7.650
 4657POPC   NC319967  33.054  38.423   9.450
 4657POPC   PO419968  33.006  38.419   9.150
 4657POPC   GL119969  33.030  38.426   8.850
 4657POPC   GL219970  33.061  38.592   8.850
 4657POPC   C1A19971  33.048  38.449   8.550
 4657POPC   D2A19972  33.068  38.447   8.250
 4657POPC   C3A19973  33.002  38.442   7.950
 4657POPC   C4A19974  33.001  38.450   7.650
 4657POPC   C1B19975  33.086  38.734   8.550
 4657POPC   C2B19976  33.023  38.711   8.250
 4657POPC   C3B19977  33.072  38.661   7.950
 4657POPC   C4B19978  33.088  38.665   7.650
 4658POPC   NC319979  17.478   2.750   9.450
 4658POPC   PO419980  17.494   2.794   9.150
 4658POPC   GL119981  17.543   2.775   8.850
 4658POPC   GL219982  17.561   2.863   8.850
 4658POPC   C1A19983  17.459   2.779   8.550
 4658POPC   D2A19984  17.496   2.792   8.250
 4658POPC   C3A19985  17.502   2.756   7.950
 4658POPC   C4A19986  17.487   2.758   7.650
 4658POPC   C1B19987  17.742   2.868   8.550
 4658POPC   C2B19988  17.694   2.905   8.250
 4658POPC   C3B19989  17.702   2.882   7.950
 4658POPC   C4B19990  17.754   2.908   7.650
 4659POPC   NC319991  31.490  25.308   9.450
 4659POPC   PO419992  31.502  25.270   9.150
 4659POPC   GL119993  31.485  25.257   8.850
 4659POPC   GL219994  31.318  25.290   8.850
 4659POPC   C1A19995  31.435  25.287   8.550
 4659POPC   D2A19996  31.497  25.248   8.250
 4659POPC   C3A19997  31.504  25.290   7.950
 4659POPC   C4A19998  31.509  25.242   7.650
 4659POPC   C1B19999  31.212  25.310   8.550
 4659POPC   C2B20000  31.209  25.342   8.250
 4659POPC   C3B20001  31.208  25.322   7.950
 4659POPC   C4B20002  31.185  25.371   7.650
 4660POPC   NC320003  37.650  33.068   9.450
 4660POPC   PO420004  37.675  33.043   9.150
 4660POPC   GL120005  37.705  32.989   8.850
 4660POPC   GL220006  37.582  33.033   8.850
 4660POPC   C1A20007  37.721  33.020   8.550
 4660POPC   D2A20008  37.699  32.997   8.250
 4660POPC   C3A20009  37.641  33.040   7.950
 4660POPC   C4A20010  37.648  32.990   7.650
 4660POPC   C1B20011  37.475  32.907   8.550
 4660POPC   C2B20012  37.464  32.953   8.250
 4660POPC   C3B20013  37.485  32.964   7.950
 4660POPC   C4B20014  37.470  32.926   7.650
 4661POPC   NC320015  41.598  25.229   9.450
 4661POPC   PO420016  41.539  25.282   9.150
 4661POPC   GL120017  41.509  25.219   8.850
 4661POPC   GL220018  41.465  25.185   8.850
 4661POPC   C1A20019  41.532  25.254   8.550
 4661POPC   D2A20020  41.589  25.250   8.250
 4661POPC   C3A20021  41.584  25.227   7.950
 4661POPC   C4A20022  41.573  25.297   7.650
 4661POPC   C1B20023  41.367  25.173   8.550
 4661POPC   C2B20024  41.287  25.149   8.250
 4661POPC   C3B20025  41.308  25.209   7.950
 4661POPC   C4B20026  41.277  25.230   7.650
 4662POPC   NC320027  42.325  28.369   9.450
 4662POPC   PO420028  42.328  28.358   9.150
 4662POPC   GL120029  42.308  28.321   8.850
 4662POPC   GL220030  42.210  28.424   8.850
 4662POPC   C1A20031  42.361  28.360   8.550
 4662POPC   D2A20032  42.377  28.383   8.250
 4662POPC   C3A20033  42.370  28.349   7.950
 4662POPC   C4A20034  42.322  28.406   7.650
 4662POPC   C1B20035  42.226  28.541   8.550
 4662POPC   C2B20036  42.197  28.586   8.250
 4662POPC   C3B20037  42.207  28.533   7.950
 4662POPC   C4B20038  42.209  28.529   7.650
 4663POPC   NC320039  14.408  44.642   9.450
 4663POPC   PO420040  14.355  44.644   9.150
 4663POPC   GL120041  14.404  44.672   8.850
 4663POPC   GL220042  14.380  44.837   8.850
 4663POPC   C1A20043  14.410  44.656   8.550
 4663POPC   D2A20044  14.356  44.665   8.250
 4663POPC   C3A20045  14.450  44.651   7.950
 4663POPC   C4A20046  14.437  44.685   7.650
 4663POPC   C1B20047  14.431  44.914   8.550
 4663POPC   C2B20048  14.423  44.926   8.250
 4663POPC   C3B20049  14.394  44.886   7.950
 4663POPC   C4B20050  14.425  44.900   7.650
 4664POPC   NC320051   4.340  26.074   9.450
 4664POPC   PO420052   4.327  26.018   9.150
 4664POPC   GL120053   4.337  25.993   8.850
 4664POPC   GL220054   4.215  26.065   8.850
 4664POPC   C1A20055   4.307  26.045   8.550
 4664POPC   D2A20056   4.316  26.018   8.250
 4664POPC   C3A20057   4.288  26.045   7.950
 4664POPC   C4A20058   4.301  26.010   7.650
 4664POPC   C1B20059   4.042  25.987   8.550
 4664POPC   C2B20060   4.057  26.044   8.250
 4664POPC   C3B20061   4.036  25.999   7.950
 4664POPC   C4B20062   4.068  26.036   7.650
 4665POPC   NC320063  20.659  43.930   9.450
 4665POPC   PO420064  20.655  43.867   9.150
 4665POPC   GL120065  20.586  43.839   8.850
 4665POPC   GL220066  20.710  43.966   8.850
 4665POPC   C1A20067  20.579  43.927   8.550
 4665POPC   D2A20068  20.651  43.922   8.250
 4665POPC   C3A20069  20.611  43.892   7.950
 4665POPC   C4A20070  20.652  43.876   7.650
 4665POPC   C1B20071  20.815  44.066   8.550
 4665POPC   C2B20072  20.830  44.063   8.250
 4665POPC   C3B20073  20.758  44.075   7.950
 4665POPC   C4B20074  20.848  44.020   7.650
 4666POPC   NC320075  15.940  19.830   9.450
 4666POPC   PO420076  15.915  19.803   9.150
 4666POPC   GL120077  15.951  19.827   8.850
 4666POPC   GL220078  15.937  19.727   8.850
 4666POPC   C1A20079  15.938  19.791   8.550
 4666POPC   D2A20080  15.982  19.788   8.250
 4666POPC   C3A20081  15.934  19.800   7.950
 4666POPC   C4A20082  15.965  19.880   7.650
 4666POPC   C1B20083  15.958  19.576   8.550
 4666POPC   C2B20084  15.998  19.612   8.250
 4666POPC   C3B20085  15.987  19.601   7.950
 4666POPC   C4B20086  16.003  19.627   7.650
 4667POPC   NC320087  21.377  15.152   9.450
 4667POPC   PO420088  21.341  15.137   9.150
 4667POPC   GL120089  21.360  15.155   8.850
 4667POPC   GL220090  21.507  15.175   8.850
 4667POPC   C1A20091  21.435  15.148   8.550
 4667POPC   D2A20092  21.422  15.157   8.250
 4667POPC   C3A20093  21.371  15.179   7.950
 4667POPC   C4A20094  21.392  15.188   7.650
 4667POPC   C1B20095  21.587  15.180   8.550
 4667POPC   C2B20096  21.585  15.257   8.250
 4667POPC   C3B20097  21.594  15.225   7.950
 4667POPC   C4B20098  21.586  15.260   7.650
 4668POPC   NC320099  33.784  34.565   9.450
 4668POPC   PO420100  33.837  34.543   9.150
 4668POPC   GL120101  33.754  34.565   8.850
 4668POPC   GL220102  33.884  34.566   8.850
 4668POPC   C1A20103  33.788  34.566   8.550
 4668POPC   D2A20104  33.822  34.559   8.250
 4668POPC   C3A20105  33.785  34.612   7.950
 4668POPC   C4A20106  33.802  34.625   7.650
 4668POPC   C1B20107  34.039  34.551   8.550
 4668POPC   C2B20108  34.032  34.634   8.250
 4668POPC   C3B20109  34.086  34.557   7.950
 4668POPC   C4B20110  34.009  34.578   7.650
 4669POPC   NC320111  10.481  43.070   9.450
 4669POPC   PO420112  10.565  43.155   9.150
 4669POPC   GL120113  10.510  43.131   8.850
 4669POPC   GL220114  10.418  43.030   8.850
 4669POPC   C1A20115  10.522  43.119   8.550
 4669POPC   D2A20116  10.545  43.143   8.250
 4669POPC   C3A20117  10.515  43.124   7.950
 4669POPC   C4A20118  10.500  43.130   7.650
 4669POPC   C1B20119  10.271  43.014   8.550
 4669POPC   C2B20120  10.321  43.009   8.250
 4669POPC   C3B20121  10.339  43.012   7.950
 4669POPC   C4B20122  10.300  42.938   7.650
 4670POPC   NC320123  14.369  36.913   9.450
 4670POPC   PO420124  14.383  36.882   9.150
 4670POPC   GL120125  14.433  36.934   8.850
 4670POPC   GL220126  14.553  36.828   8.850
 4670POPC   C1A20127  14.448  36.864   8.550
 4670POPC   D2A20128  14.449  36.862   8.250
 4670POPC   C3A20129  14.356  36.931   7.950
 4670POPC   C4A20130  14.398  36.870   7.650
 4670POPC   C1B20131  14.568  36.728   8.550
 4670POPC   C2B20132  14.583  36.800   8.250
 4670POPC   C3B20133  14.582  36.772   7.950
 4670POPC   C4B20134  14.557  36.710   7.650
 4671POPC   NC320135  40.804   1.959   9.450
 4671POPC   PO420136  40.822   2.031   9.150
 4671POPC   GL120137  40.806   1.976   8.850
 4671POPC   GL220138  40.654   1.896   8.850
 4671POPC   C1A20139  40.812   1.941   8.550
 4671POPC   D2A20140  40.823   1.940   8.250
 4671POPC   C3A20141  40.766   1.994   7.950
 4671POPC   C4A20142  40.765   1.979   7.650
 4671POPC   C1B20143  40.588   1.760   8.550
 4671POPC   C2B20144  40.607   1.787   8.250
 4671POPC   C3B20145  40.634   1.772   7.950
 4671POPC   C4B20146  40.578   1.786   7.650
 4672POPC   NC320147   8.955  36.159   9.450
 4672POPC   PO420148   8.939  36.116   9.150
 4672POPC   GL120149   9.013  36.168   8.850
 4672POPC   GL220150   8.833  36.068   8.850
 4672POPC   C1A20151   8.936  36.140   8.550
 4672POPC   D2A20152   9.020  36.114   8.250
 4672POPC   C3A20153   8.998  36.139   7.950
 4672POPC   C4A20154   9.009  36.117   7.650
 4672POPC   C1B20155   8.766  36.023   8.550
 4672POPC   C2B20156   8.724  36.077   8.250
 4672POPC   C3B20157   8.748  36.086   7.950
 4672POPC   C4B20158   8.755  36.115   7.650
 4673POPC   NC320159  11.253  33.770   9.450
 4673POPC   PO420160  11.290  33.762   9.150
 4673POPC   GL120161  11.295  33.809   8.850
 4673POPC   GL220162  11.271  33.655   8.850
 4673POPC   C1A20163  11.314  33.783   8.550
 4673POPC   D2A20164  11.256  33.773   8.250
 4673POPC   C3A20165  11.254  33.832   7.950
 4673POPC   C4A20166  11.346  33.834   7.650
 4673POPC   C1B20167  11.161  33.605   8.550
 4673POPC   C2B20168  11.141  33.631   8.250
 4673POPC   C3B20169  11.187  33.599   7.950
 4673POPC   C4B20170  11.182  33.562   7.650
 4674POPC   NC320171   4.363  22.184   9.450
 4674POPC   PO420172   4.303  22.175   9.150
 4674POPC   GL120173   4.357  22.203   8.850
 4674POPC   GL220174   4.302  22.267   8.850
 4674POPC   C1A20175   4.320  22.196   8.550
 4674POPC   D2A20176   4.314  22.120   8.250
 4674POPC   C3A20177   4.301  22.178   7.950
 4674POPC   C4A20178   4.310  22.154   7.650
 4674POPC   C1B20179   4.190  22.390   8.550
 4674POPC   C2B20180   4.239  22.438   8.250
 4674POPC   C3B20181   4.176  22.362   7.950
 4674POPC   C4B20182   4.243  22.435   7.650
 4675POPC   NC320183  13.622  12.823   9.450
 4675POPC   PO420184  13.669  12.802   9.150
 4675POPC   GL120185  13.662  12.896   8.850
 4675POPC   GL220186  13.679  12.799   8.850
 4675POPC   C1A20187  13.614  12.865   8.550
 4675POPC   D2A20188  13.593  12.882   8.250
 4675POPC   C3A20189  13.609  12.805   7.950
 4675POPC   C4A20190  13.631  12.840   7.650
 4675POPC   C1B20191  13.773  12.673   8.550
 4675POPC   C2B20192  13.732  12.600   8.250
 4675POPC   C3B20193  13.756  12.619   7.950
 4675POPC   C4B20194  13.811  12.622   7.650
 4676POPC   NC320195  26.030  20.617   9.450
 4676POPC   PO420196  26.063  20.616   9.150
 4676POPC   GL120197  26.008  20.634   8.850
 4676POPC   GL220198  25.997  20.448   8.850
 4676POPC   C1A20199  26.039  20.561   8.550
 4676POPC   D2A20200  26.073  20.616   8.250
 4676POPC   C3A20201  26.080  20.611   7.950
 4676POPC   C4A20202  25.992  20.620   7.650
 4676POPC   C1B20203  25.916  20.412   8.550
 4676POPC   C2B20204  25.976  20.387   8.250
 4676POPC   C3B20205  25.956  20.396   7.950
 4676POPC   C4B20206  25.980  20.335   7.650
 4677POPC   NC320207   7.387  22.946   9.450
 4677POPC   PO420208   7.408  22.917   9.150
 4677POPC   GL120209   7.393  22.929   8.850
 4677POPC   GL220210   7.356  22.839   8.850
 4677POPC   C1A20211   7.417  22.935   8.550
 4677POPC   D2A20212   7.418  22.918   8.250
 4677POPC   C3A20213   7.441  22.900   7.950
 4677POPC   C4A20214   7.381  22.919   7.650
 4677POPC   C1B20215   7.244  22.743   8.550
 4677POPC   C2B20216   7.260  22.831   8.250
 4677POPC   C3B20217   7.218  22.824   7.950
 4677POPC   C4B20218   7.267  22.820   7.650
 4678POPC   NC320219  25.258  29.916   9.450
 4678POPC   PO420220  25.308  29.896   9.150
 4678POPC   GL120221  25.301  29.956   8.850
 4678POPC   GL220222  25.153  29.866   8.850
 4678POPC   C1A20223  25.220  29.905   8.550
 4678POPC   D2A20224  25.281  29.888   8.250
 4678POPC   C3A20225  25.249  29.969   7.950
 4678POPC   C4A20226  25.261  29.917   7.650
 4678POPC   C1B20227  24.974  29.862   8.550
 4678POPC   C2B20228  24.978  29.851   8.250
 4678POPC   C3B20229  25.005  29.826   7.950
 4678POPC   C4B20230  24.993  29.832   7.650
 4679POPC   NC320231  32.233  35.379   9.450
 4679POPC   PO420232  32.239  35.331   9.150
 4679POPC   GL120233  32.205  35.351   8.850
 4679POPC   GL220234  32.328  35.484   8.850
 4679POPC   C1A20235  32.284  35.309   8.550
 4679POPC   D2A20236  32.297  35.307   8.250
 4679POPC   C3A20237  32.244  35.356   7.950
 4679POPC   C4A20238  32.250  35.365   7.650
 4679POPC   C1B20239  32.432  35.585   8.550
 4679POPC   C2B20240  32.443  35.571   8.250
 4679POPC   C3B20241  32.431  35.519   7.950
 4679POPC   C4B20242  32.391  35.587   7.650
 4680POPC   NC320243  30.667  16.751   9.450
 4680POPC   PO420244  30.716  16.694   9.150
 4680POPC   GL120245  30.712  16.740   8.850
 4680POPC   GL220246  30.565  16.652   8.850
 4680POPC   C1A20247  30.730  16.686   8.550
 4680POPC   D2A20248  30.674  16.778   8.250
 4680POPC   C3A20249  30.704  16.711   7.950
 4680POPC   C4A20250  30.673  16.686   7.650
 4680POPC   C1B20251  30.548  16.576   8.550
 4680POPC   C2B20252  30.513  16.542   8.250
 4680POPC   C3B20253  30.541  16.525   7.950
 4680POPC   C4B20254  30.516  16.588   7.650
 4681POPC   NC320255   2.001  16.683   9.450
 4681POPC   PO420256   1.969  16.733   9.150
 4681POPC   GL120257   1.949  16.749   8.850
 4681POPC   GL220258   1.949  16.589   8.850
 4681POPC   C1A20259   1.952  16.726   8.550
 4681POPC   D2A20260   2.011  16.758   8.250
 4681POPC   C3A20261   2.038  16.700   7.950
 4681POPC   C4A20262   1.973  16.735   7.650
 4681POPC   C1B20263   1.842  16.549   8.550
 4681POPC   C2B20264   1.892  16.513   8.250
 4681POPC   C3B20265   1.891  16.509   7.950
 4681POPC   C4B20266   1.854  16.476   7.650
 4682POPC   NC320267  31.441   9.000   9.450
 4682POPC   PO420268  31.489   8.956   9.150
 4682POPC   GL120269  31.481   8.996   8.850
 4682POPC   GL220270  31.490   9.065   8.850
 4682POPC   C1A20271  31.517   8.950   8.550
 4682POPC   D2A20272  31.483   9.018   8.250
 4682POPC   C3A20273  31.432   8.933   7.950
 4682POPC   C4A20274  31.424   8.995   7.650
 4682POPC   C1B20275  31.581   9.243   8.550
 4682POPC   C2B20276  31.594   9.168   8.250
 4682POPC   C3B20277  31.550   9.238   7.950
 4682POPC   C4B20278  31.605   9.223   7.650
 4683POPC   NC320279   9.775  25.231   9.450
 4683POPC   PO420280   9.714  25.308   9.150
 4683POPC   GL120281   9.774  25.287   8.850
 4683POPC   GL220282   9.740  25.350   8.850
 4683POPC   C1A20283   9.754  25.262   8.550
 4683POPC   D2A20284   9.720  25.267   8.250
 4683POPC   C3A20285   9.742  25.268   7.950
 4683POPC   C4A20286   9.766  25.299   7.650
 4683POPC   C1B20287   9.646  25.484   8.550
 4683POPC   C2B20288   9.614  25.465   8.250
 4683POPC   C3B20289   9.614  25.468   7.950
 4683POPC   C4B20290   9.591  25.474   7.650
 4684POPC   NC320291   0.426  17.467   9.450
 4684POPC   PO420292   0.464  17.461   9.150
 4684POPC   GL120293   0.461  17.553   8.850
 4684POPC   GL220294   0.365  17.525   8.850
 4684POPC   C1A20295   0.467  17.546   8.550
 4684POPC   D2A20296   0.391  17.514   8.250
 4684POPC   C3A20297   0.395  17.468   7.950
 4684POPC   C4A20298   0.395  17.553   7.650
 4684POPC   C1B20299   0.233  17.599   8.550
 4684POPC   C2B20300   0.213  17.655   8.250
 4684POPC   C3B20301   0.188  17.653   7.950
 4684POPC   C4B20302   0.161  17.586   7.650
 4685POPC   NC320303  12.051  15.190   9.450
 4685POPC   PO420304  12.058  15.224   9.150
 4685POPC   GL120305  12.068  15.213   8.850
 4685POPC   GL220306  12.058  15.343   8.850
 4685POPC   C1A20307  12.111  15.162   8.550
 4685POPC   D2A20308  12.040  15.227   8.250
 4685POPC   C3A20309  12.027  15.161   7.950
 4685POPC   C4A20310  12.042  15.194   7.650
 4685POPC   C1B20311  12.073  15.429   8.550
 4685POPC   C2B20312  12.117  15.422   8.250
 4685POPC   C3B20313  12.067  15.477   7.950
 4685POPC   C4B20314  12.115  15.461   7.650
 4686POPC   NC320315  43.928   8.999   9.450
 4686POPC   PO420316  43.885   8.986   9.150
 4686POPC   GL120317  43.845   8.999   8.850
 4686POPC   GL220318  43.792   8.856   8.850
 4686POPC   C1A20319  43.874   8.966   8.550
 4686POPC   D2A20320  43.845   9.003   8.250
 4686POPC   C3A20321  43.905   8.955   7.950
 4686POPC   C4A20322  43.848   8.946   7.650
 4686POPC   C1B20323  43.683   8.808   8.550
 4686POPC   C2B20324  43.721   8.777   8.250
 4686POPC   C3B20325  43.691   8.751   7.950
 4686POPC   C4B20326  43.705   8.781   7.650
 4687POPC   NC320327  26.800  28.346   9.450
 4687POPC   PO420328  26.797  28.323   9.150
 4687POPC   GL120329  26.855  28.396   8.850
 4687POPC   GL220330  26.836  28.530   8.850
 4687POPC   C1A20331  26.827  28.333   8.550
 4687POPC   D2A20332  26.776  28.369   8.250
 4687POPC   C3A20333  26.805  28.357   7.950
 4687POPC   C4A20334  26.793  28.411   7.650
 4687POPC   C1B20335  26.739  28.593   8.550
 4687POPC   C2B20336  26.792  28.623   8.250
 4687POPC   C3B20337  26.783  28.651   7.950
 4687POPC   C4B20338  26.722  28.660   7.650
 4688POPC   NC320339  18.301  43.132   9.450
 4688POPC   PO420340  18.254  43.136   9.150
 4688POPC   GL120341  18.323  43.065   8.850
 4688POPC   GL220342  18.393  43.146   8.850
 4688POPC   C1A20343  18.311  43.102   8.550
 4688POPC   D2A20344  18.234  43.085   8.250
 4688POPC   C3A20345  18.308  43.080   7.950
 4688POPC   C4A20346  18.256  43.099   7.650
 4688POPC   C1B20347  18.578  43.129   8.550
 4688POPC   C2B20348  18.510  43.130   8.250
 4688POPC   C3B20349  18.518  43.090   7.950
 4688POPC   C4B20350  18.520  43.135   7.650
 4689POPC   NC320351   3.514  16.747   9.450
 4689POPC   PO420352   3.584  16.713   9.150
 4689POPC   GL120353   3.524  16.697   8.850
 4689POPC   GL220354   3.579  16.607   8.850
 4689POPC   C1A20355   3.552  16.758   8.550
 4689POPC   D2A20356   3.527  16.775   8.250
 4689POPC   C3A20357   3.540  16.780   7.950
 4689POPC   C4A20358   3.542  16.772   7.650
 4689POPC   C1B20359   3.698  16.556   8.550
 4689POPC   C2B20360   3.686  16.570   8.250
 4689POPC   C3B20361   3.696  16.529   7.950
 4689POPC   C4B20362   3.738  16.551   7.650
 4690POPC   NC320363  29.935  13.677   9.450
 4690POPC   PO420364  29.969  13.633   9.150
 4690POPC   GL120365  29.962  13.631   8.850
 4690POPC   GL220366  29.907  13.513   8.850
 4690POPC   C1A20367  29.959  13.615   8.550
 4690POPC   D2A20368  29.940  13.648   8.250
 4690POPC   C3A20369  29.936  13.640   7.950
 4690POPC   C4A20370  29.879  13.646   7.650
 4690POPC   C1B20371  29.841  13.428   8.550
 4690POPC   C2B20372  29.879  13.378   8.250
 4690POPC   C3B20373  29.878  13.342   7.950
 4690POPC   C4B20374  29.853  13.368   7.650
 4691POPC   NC320375  11.275  29.104   9.450
 4691POPC   PO420376  11.323  29.102   9.150
 4691POPC   GL120377  11.266  29.167   8.850
 4691POPC   GL220378  11.356  29.239   8.850
 4691POPC   C1A20379  11.317  29.147   8.550
 4691POPC   D2A20380  11.262  29.120   8.250
 4691POPC   C3A20381  11.319  29.162   7.950
 4691POPC   C4A20382  11.260  29.174   7.650
 4691POPC   C1B20383  11.467  29.319   8.550
 4691POPC   C2B20384  11.458  29.317   8.250
 4691POPC   C3B20385  11.483  29.318   7.950
 4691POPC   C4B20386  11.477  29.359   7.650
 4692POPC   NC320387   0.393  18.302   9.450
 4692POPC   PO420388   0.397  18.332   9.150
 4692POPC   GL120389   0.433  18.236   8.850
 4692POPC   GL220390   0.304  18.297   8.850
 4692POPC   C1A20391   0.402  18.288   8.550
 4692POPC   D2A20392   0.460  18.246   8.250
 4692POPC   C3A20393   0.392  18.328   7.950
 4692POPC   C4A20394   0.399  18.266   7.650
 4692POPC   C1B20395   0.180  18.311   8.550
 4692POPC   C2B20396   0.157  18.398   8.250
 4692POPC   C3B20397   0.244  18.353   7.950
 4692POPC   C4B20398   0.197  18.335   7.650
 4693POPC   NC320399  26.009  43.094   9.450
 4693POPC   PO420400  26.055  43.078   9.150
 4693POPC   GL120401  26.088  43.147   8.850
 4693POPC   GL220402  25.972  43.227   8.850
 4693POPC   C1A20403  25.991  43.127   8.550
 4693POPC   D2A20404  26.028  43.133   8.250
 4693POPC   C3A20405  26.030  43.104   7.950
 4693POPC   C4A20406  26.053  43.151   7.650
 4693POPC   C1B20407  25.861  43.269   8.550
 4693POPC   C2B20408  25.822  43.283   8.250
 4693POPC   C3B20409  25.898  43.303   7.950
 4693POPC   C4B20410  25.904  43.309   7.650
 4694POPC   NC320411   2.791  38.469   9.450
 4694POPC   PO420412   2.798  38.444   9.150
 4694POPC   GL120413   2.771  38.436   8.850
 4694POPC   GL220414   2.667  38.566   8.850
 4694POPC   C1A20415   2.756  38.442   8.550
 4694POPC   D2A20416   2.815  38.492   8.250
 4694POPC   C3A20417   2.730  38.449   7.950
 4694POPC   C4A20418   2.721  38.429   7.650
 4694POPC   C1B20419   2.586  38.632   8.550
 4694POPC   C2B20420   2.662  38.622   8.250
 4694POPC   C3B20421   2.680  38.709   7.950
 4694POPC   C4B20422   2.662  38.676   7.650
 4695POPC   NC320423  33.030   8.181   9.450
 4695POPC   PO420424  33.066   8.242   9.150
 4695POPC   GL120425  32.977   8.196   8.850
 4695POPC   GL220426  33.107   8.060   8.850
 4695POPC   C1A20427  33.032   8.196   8.550
 4695POPC   D2A20428  33.028   8.150   8.250
 4695POPC   C3A20429  33.058   8.206   7.950
 4695POPC   C4A20430  32.987   8.245   7.650
 4695POPC   C1B20431  33.209   7.969   8.550
 4695POPC   C2B20432  33.214   7.984   8.250
 4695POPC   C3B20433  33.138   8.007   7.950
 4695POPC   C4B20434  33.154   8.027   7.650
 4696POPC   NC320435  33.056  17.497   9.450
 4696POPC   PO420436  33.003  17.527   9.150
 4696POPC   GL120437  33.049  17.553   8.850
 4696POPC   GL220438  33.060  17.403   8.850
 4696POPC   C1A20439  33.015  17.515   8.550
 4696POPC   D2A20440  33.074  17.487   8.250
 4696POPC   C3A20441  33.031  17.502   7.950
 4696POPC   C4A20442  33.073  17.521   7.650
 4696POPC   C1B20443  33.177  17.298   8.550
 4696POPC   C2B20444  33.114  17.306   8.250
 4696POPC   C3B20445  33.198  17.273   7.950
 4696POPC   C4B20446  33.132  17.320   7.650
 4697POPC   NC320447  12.107  38.438   9.450
 4697POPC   PO420448  12.092  38.484   9.150
 4697POPC   GL120449  12.076  38.448   8.850
 4697POPC   GL220450  12.110  38.587   8.850
 4697POPC   C1A20451  12.057  38.441   8.550
 4697POPC   D2A20452  12.027  38.458   8.250
 4697POPC   C3A20453  12.118  38.504   7.950
 4697POPC   C4A20454  12.032  38.412   7.650
 4697POPC   C1B20455  12.105  38.736   8.550
 4697POPC   C2B20456  12.055  38.700   8.250
 4697POPC   C3B20457  12.066  38.745   7.950
 4697POPC   C4B20458  12.025  38.686   7.650
 4698POPC   NC320459  13.612  36.863   9.450
 4698POPC   PO420460  13.628  36.921   9.150
 4698POPC   GL120461  13.677  36.953   8.850
 4698POPC   GL220462  13.691  36.743   8.850
 4698POPC   C1A20463  13.675  36.943   8.550
 4698POPC   D2A20464  13.676  36.916   8.250
 4698POPC   C3A20465  13.618  36.889   7.950
 4698POPC   C4A20466  13.633  36.885   7.650
 4698POPC   C1B20467  13.681  36.634   8.550
 4698POPC   C2B20468  13.709  36.616   8.250
 4698POPC   C3B20469  13.671  36.651   7.950
 4698POPC   C4B20470  13.716  36.697   7.650
 4699POPC   NC320471  24.472  11.335   9.450
 4699POPC   PO420472  24.499  11.265   9.150
 4699POPC   GL120473  24.473  11.267   8.850
 4699POPC   GL220474  24.318  11.238   8.850
 4699POPC   C1A20475  24.538  11.313   8.550
 4699POPC   D2A20476  24.491  11.291   8.250
 4699POPC   C3A20477  24.488  11.325   7.950
 4699POPC   C4A20478  24.513  11.344   7.650
 4699POPC   C1B20479  24.195  11.220   8.550
 4699POPC   C2B20480  24.268  11.250   8.250
 4699POPC   C3B20481  24.238  11.270   7.950
 4699POPC   C4B20482  24.277  11.289   7.650
 4700POPC   NC320483  39.249  17.462   9.450
 4700POPC   PO420484  39.192  17.479   9.150
 4700POPC   GL120485  39.253  17.514   8.850
 4700POPC   GL220486  39.356  17.487   8.850
 4700POPC   C1A20487  39.280  17.498   8.550
 4700POPC   D2A20488  39.260  17.525   8.250
 4700POPC   C3A20489  39.237  17.457   7.950
 4700POPC   C4A20490  39.255  17.482   7.650
 4700POPC   C1B20491  39.484  17.459   8.550
 4700POPC   C2B20492  39.453  17.536   8.250
 4700POPC   C3B20493  39.486  17.481   7.950
 4700POPC   C4B20494  39.514  17.493   7.650
 4701POPC   NC320495  26.008  40.034   9.450
 4701POPC   PO420496  26.080  40.016   9.150
 4701POPC   GL120497  26.089  40.010   8.850
 4701POPC   GL220498  25.952  40.030   8.850
 4701POPC   C1A20499  26.033  40.043   8.550
 4701POPC   D2A20500  26.062  40.030   8.250
 4701POPC   C3A20501  26.012  40.019   7.950
 4701POPC   C4A20502  26.009  39.989   7.650
 4701POPC   C1B20503  25.809  40.033   8.550
 4701POPC   C2B20504  25.840  40.029   8.250
 4701POPC   C3B20505  25.820  40.038   7.950
 4701POPC   C4B20506  25.818  40.030   7.650
 4702POPC   NC320507  17.525  39.250   9.450
 4702POPC   PO420508  17.473  39.223   9.150
 4702POPC   GL120509  17.476  39.235   8.850
 4702POPC   GL220510  17.456  39.328   8.850
 4702POPC   C1A20511  17.531  39.215   8.550
 4702POPC   D2A20512  17.546  39.261   8.250
 4702POPC   C3A20513  17.466  39.274   7.950
 4702POPC   C4A20514  17.522  39.272   7.650
 4702POPC   C1B20515  17.347  39.438   8.550
 4702POPC   C2B20516  17.350  39.444   8.250
 4702POPC   C3B20517  17.356  39.357   7.950
 4702POPC   C4B20518  17.327  39.386   7.650
 4703POPC   NC320519   8.227  40.736   9.450
 4703POPC   PO420520   8.152  40.766   9.150
 4703POPC   GL120521   8.228  40.824   8.850
 4703POPC   GL220522   8.239  40.838   8.850
 4703POPC   C1A20523   8.181  40.800   8.550
 4703POPC   D2A20524   8.230  40.775   8.250
 4703POPC   C3A20525   8.240  40.798   7.950
 4703POPC   C4A20526   8.194  40.830   7.650
 4703POPC   C1B20527   8.415  40.987   8.550
 4703POPC   C2B20528   8.384  40.982   8.250
 4703POPC   C3B20529   8.327  40.912   7.950
 4703POPC   C4B20530   8.335  40.944   7.650
 4704POPC   NC320531   1.238  17.534   9.450
 4704POPC   PO420532   1.257  17.538   9.150
 4704POPC   GL120533   1.176  17.483   8.850
 4704POPC   GL220534   1.300  17.554   8.850
 4704POPC   C1A20535   1.239  17.472   8.550
 4704POPC   D2A20536   1.263  17.469   8.250
 4704POPC   C3A20537   1.185  17.508   7.950
 4704POPC   C4A20538   1.239  17.535   7.650
 4704POPC   C1B20539   1.451  17.566   8.550
 4704POPC   C2B20540   1.470  17.560   8.250
 4704POPC   C3B20541   1.414  17.566   7.950
 4704POPC   C4B20542   1.425  17.543   7.650
 4705POPC   NC320543  15.159  34.574   9.450
 4705POPC   PO420544  15.208  34.541   9.150
 4705POPC   GL120545  15.192  34.544   8.850
 4705POPC   GL220546  15.218  34.669   8.850
 4705POPC   C1A20547  15.136  34.529   8.550
 4705POPC   D2A20548  15.183  34.575   8.250
 4705POPC   C3A20549  15.227  34.557   7.950
 4705POPC   C4A20550  15.221  34.577   7.650
 4705POPC   C1B20551  15.194  34.872   8.550
 4705POPC   C2B20552  15.174  34.804   8.250
 4705POPC   C3B20553  15.152  34.777   7.950
 4705POPC   C4B20554  15.128  34.851   7.650
 4706POPC   NC320555  29.888  15.958   9.450
 4706POPC   PO420556  29.892  15.956   9.150
 4706POPC   GL120557  29.945  15.930   8.850
 4706POPC   GL220558  29.793  15.976   8.850
 4706POPC   C1A20559  29.946  15.983   8.550
 4706POPC   D2A20560  29.882  15.961   8.250
 4706POPC   C3A20561  29.880  15.987   7.950
 4706POPC   C4A20562  29.927  15.996   7.650
 4706POPC   C1B20563  29.657  16.092   8.550
 4706POPC   C2B20564  29.740  16.102   8.250
 4706POPC   C3B20565  29.717  16.093   7.950
 4706POPC   C4B20566  29.723  16.060   7.650
 4707POPC   NC320567  11.267  12.094   9.450
 4707POPC   PO420568  11.325  12.061   9.150
 4707POPC   GL120569  11.327  12.052   8.850
 4707POPC   GL220570  11.247  11.972   8.850
 4707POPC   C1A20571  11.287  12.121   8.550
 4707POPC   D2A20572  11.267  12.110   8.250
 4707POPC   C3A20573  11.318  12.090   7.950
 4707POPC   C4A20574  11.292  12.124   7.650
 4707POPC   C1B20575  11.203  11.859   8.550
 4707POPC   C2B20576  11.257  11.818   8.250
 4707POPC   C3B20577  11.250  11.865   7.950
 4707POPC   C4B20578  11.186  11.865   7.650
 4708POPC   NC320579  41.522  30.711   9.450
 4708POPC   PO420580  41.596  30.736   9.150
 4708POPC   GL120581  41.574  30.704   8.850
 4708POPC   GL220582  41.487  30.844   8.850
 4708POPC   C1A20583  41.605  30.670   8.550
 4708POPC   D2A20584  41.555  30.693   8.250
 4708POPC   C3A20585  41.529  30.674   7.950
 4708POPC   C4A20586  41.523  30.678   7.650
 4708POPC   C1B20587  41.466  30.951   8.550
 4708POPC   C2B20588  41.546  30.907   8.250
 4708POPC   C3B20589  41.456  30.935   7.950
 4708POPC   C4B20590  41.476  30.937   7.650
 4709POPC   NC320591   1.256   5.904   9.450
 4709POPC   PO420592   1.191   5.874   9.150
 4709POPC   GL120593   1.175   5.854   8.850
 4709POPC   GL220594   1.226   5.770   8.850
 4709POPC   C1A20595   1.225   5.859   8.550
 4709POPC   D2A20596   1.239   5.870   8.250
 4709POPC   C3A20597   1.252   5.825   7.950
 4709POPC   C4A20598   1.187   5.869   7.650
 4709POPC   C1B20599   1.225   5.589   8.550
 4709POPC   C2B20600   1.154   5.584   8.250
 4709POPC   C3B20601   1.197   5.622   7.950
 4709POPC   C4B20602   1.141   5.595   7.650
 4710POPC   NC320603  18.288  40.768   9.450
 4710POPC   PO420604  18.270  40.829   9.150
 4710POPC   GL120605  18.323  40.745   8.850
 4710POPC   GL220606  18.453  40.829   8.850
 4710POPC   C1A20607  18.315  40.804   8.550
 4710POPC   D2A20608  18.315  40.750   8.250
 4710POPC   C3A20609  18.296  40.791   7.950
 4710POPC   C4A20610  18.274  40.772   7.650
 4710POPC   C1B20611  18.481  40.811   8.550
 4710POPC   C2B20612  18.560  40.879   8.250
 4710POPC   C3B20613  18.549  40.807   7.950
 4710POPC   C4B20614  18.477  40.833   7.650
 4711POPC   NC320615   1.229   0.402   9.450
 4711POPC   PO420616   1.233   0.467   9.150
 4711POPC   GL120617   1.255   0.436   8.850
 4711POPC   GL220618   1.144   0.335   8.850
 4711POPC   C1A20619   1.238   0.484   8.550
 4711POPC   D2A20620   1.183   0.459   8.250
 4711POPC   C3A20621   1.194   0.406   7.950
 4711POPC   C4A20622   1.251   0.395   7.650
 4711POPC   C1B20623   0.987   0.301   8.550
 4711POPC   C2B20624   1.022   0.249   8.250
 4711POPC   C3B20625   1.015   0.270   7.950
 4711POPC   C4B20626   0.988   0.292   7.650
 4712POPC   NC320627   9.766  16.685   9.450
 4712POPC   PO420628   9.713  16.741   9.150
 4712POPC   GL120629   9.706  16.694   8.850
 4712POPC   GL220630   9.619  16.739   8.850
 4712POPC   C1A20631   9.746  16.701   8.550
 4712POPC   D2A20632   9.767  16.759   8.250
 4712POPC   C3A20633   9.790  16.700   7.950
 4712POPC   C4A20634   9.727  16.750   7.650
 4712POPC   C1B20635   9.451  16.775   8.550
 4712POPC   C2B20636   9.484  16.791   8.250
 4712POPC   C3B20637   9.541  16.806   7.950
 4712POPC   C4B20638   9.486  16.731   7.650
 4713POPC   NC320639   2.753  36.081   9.450
 4713POPC   PO420640   2.759  36.127   9.150
 4713POPC   GL120641   2.783  36.164   8.850
 4713POPC   GL220642   2.852  36.054   8.850
 4713POPC   C1A20643   2.723  36.091   8.550
 4713POPC   D2A20644   2.747  36.108   8.250
 4713POPC   C3A20645   2.723  36.143   7.950
 4713POPC   C4A20646   2.776  36.104   7.650
 4713POPC   C1B20647   2.972  36.040   8.550
 4713POPC   C2B20648   3.013  36.054   8.250
 4713POPC   C3B20649   3.057  36.094   7.950
 4713POPC   C4B20650   3.028  36.030   7.650
 4714POPC   NC320651  26.831  37.654   9.450
 4714POPC   PO420652  26.867  37.728   9.150
 4714POPC   GL120653  26.785  37.692   8.850
 4714POPC   GL220654  26.970  37.679   8.850
 4714POPC   C1A20655  26.862  37.699   8.550
 4714POPC   D2A20656  26.848  37.665   8.250
 4714POPC   C3A20657  26.773  37.655   7.950
 4714POPC   C4A20658  26.856  37.635   7.650
 4714POPC   C1B20659  27.078  37.693   8.550
 4714POPC   C2B20660  27.098  37.658   8.250
 4714POPC   C3B20661  27.060  37.618   7.950
 4714POPC   C4B20662  27.029  37.682   7.650
 4715POPC   NC320663  38.452  34.597   9.450
 4715POPC   PO420664  38.441  34.578   9.150
 4715POPC   GL120665  38.444  34.566   8.850
 4715POPC   GL220666  38.593  34.570   8.850
 4715POPC   C1A20667  38.422  34.569   8.550
 4715POPC   D2A20668  38.476  34.618   8.250
 4715POPC   C3A20669  38.442  34.560   7.950
 4715POPC   C4A20670  38.437  34.608   7.650
 4715POPC   C1B20671  38.675  34.614   8.550
 4715POPC   C2B20672  38.684  34.615   8.250
 4715POPC   C3B20673  38.742  34.573   7.950
 4715POPC   C4B20674  38.698  34.586   7.650
 4716POPC   NC320675  26.020  12.876   9.450
 4716POPC   PO420676  26.046  12.884   9.150
 4716POPC   GL120677  26.027  12.886   8.850
 4716POPC   GL220678  26.144  12.835   8.850
 4716POPC   C1A20679  26.017  12.857   8.550
 4716POPC   D2A20680  26.006  12.859   8.250
 4716POPC   C3A20681  26.070  12.807   7.950
 4716POPC   C4A20682  26.077  12.863   7.650
 4716POPC   C1B20683  26.257  12.898   8.550
 4716POPC   C2B20684  26.314  12.942   8.250
 4716POPC   C3B20685  26.252  12.883   7.950
 4716POPC   C4B20686  26.311  12.871   7.650
 4717POPC   NC320687  29.147  37.640   9.450
 4717POPC   PO420688  29.141  37.707   9.150
 4717POPC   GL120689  29.146  37.727   8.850
 4717POPC   GL220690  29.131  37.816   8.850
 4717POPC   C1A20691  29.139  37.716   8.550
 4717POPC   D2A20692  29.182  37.718   8.250
 4717POPC   C3A20693  29.145  37.672   7.950
 4717POPC   C4A20694  29.191  37.635   7.650
 4717POPC   C1B20695  29.178  37.908   8.550
 4717POPC   C2B20696  29.191  37.886   8.250
 4717POPC   C3B20697  29.222  37.925   7.950
 4717POPC   C4B20698  29.238  37.939   7.650
 4718POPC   NC320699  37.690  42.332   9.450
 4718POPC   PO420700  37.645  42.352   9.150
 4718POPC   GL120701  37.656  42.298   8.850
 4718POPC   GL220702  37.796  42.330   8.850
 4718POPC   C1A20703  37.728  42.342   8.550
 4718POPC   D2A20704  37.724  42.373   8.250
 4718POPC   C3A20705  37.636  42.356   7.950
 4718POPC   C4A20706  37.693  42.343   7.650
 4718POPC   C1B20707  37.940  42.239   8.550
 4718POPC   C2B20708  37.940  42.259   8.250
 4718POPC   C3B20709  37.870  42.263   7.950
 4718POPC   C4B20710  37.868  42.276   7.650
 4719POPC   NC320711  13.616  16.706   9.450
 4719POPC   PO420712  13.661  16.780   9.150
 4719POPC   GL120713  13.659  16.699   8.850
 4719POPC   GL220714  13.605  16.606   8.850
 4719POPC   C1A20715  13.668  16.731   8.550
 4719POPC   D2A20716  13.607  16.752   8.250
 4719POPC   C3A20717  13.588  16.723   7.950
 4719POPC   C4A20718  13.612  16.752   7.650
 4719POPC   C1B20719  13.554  16.452   8.550
 4719POPC   C2B20720  13.554  16.516   8.250
 4719POPC   C3B20721  13.532  16.472   7.950
 4719POPC   C4B20722  13.562  16.511   7.650
 4720POPC   NC320723   5.886  26.847   9.450
 4720POPC   PO420724   5.910  26.820   9.150
 4720POPC   GL120725   5.879  26.793   8.850
 4720POPC   GL220726   5.853  26.712   8.850
 4720POPC   C1A20727   5.891  26.863   8.550
 4720POPC   D2A20728   5.867  26.783   8.250
 4720POPC   C3A20729   5.851  26.832   7.950
 4720POPC   C4A20730   5.840  26.840   7.650
 4720POPC   C1B20731   5.895  26.551   8.550
 4720POPC   C2B20732   5.914  26.538   8.250
 4720POPC   C3B20733   5.938  26.537   7.950
 4720POPC   C4B20734   5.878  26.526   7.650
 4721POPC   NC320735   5.836  22.954   9.450
 4721POPC   PO420736   5.893  22.985   9.150
 4721POPC   GL120737   5.851  22.907   8.850
 4721POPC   GL220738   5.896  22.860   8.850
 4721POPC   C1A20739   5.893  22.925   8.550
 4721POPC   D2A20740   5.839  22.950   8.250
 4721POPC   C3A20741   5.855  22.914   7.950
 4721POPC   C4A20742   5.879  22.927   7.650
 4721POPC   C1B20743   5.834  22.683   8.550
 4721POPC   C2B20744   5.880  22.729   8.250
 4721POPC   C3B20745   5.865  22.664   7.950
 4721POPC   C4B20746   5.843  22.681   7.650
 4722POPC   NC320747  11.312  18.236   9.450
 4722POPC   PO420748  11.334  18.264   9.150
 4722POPC   GL120749  11.307  18.278   8.850
 4722POPC   GL220750  11.207  18.195   8.850
 4722POPC   C1A20751  11.273  18.270   8.550
 4722POPC   D2A20752  11.348  18.331   8.250
 4722POPC   C3A20753  11.288  18.309   7.950
 4722POPC   C4A20754  11.300  18.257   7.650
 4722POPC   C1B20755  11.118  18.114   8.550
 4722POPC   C2B20756  11.094  18.069   8.250
 4722POPC   C3B20757  11.179  18.063   7.950
 4722POPC   C4B20758  11.169  18.128   7.650
 4723POPC   NC320759  11.302  12.889   9.450
 4723POPC   PO420760  11.276  12.892   9.150
 4723POPC   GL120761  11.335  12.869   8.850
 4723POPC   GL220762  11.175  12.859   8.850
 4723POPC   C1A20763  11.339  12.866   8.550
 4723POPC   D2A20764  11.329  12.804   8.250
 4723POPC   C3A20765  11.349  12.833   7.950
 4723POPC   C4A20766  11.315  12.806   7.650
 4723POPC   C1B20767  11.103  12.904   8.550
 4723POPC   C2B20768  11.082  12.929   8.250
 4723POPC   C3B20769  11.066  12.942   7.950
 4723POPC   C4B20770  11.024  12.972   7.650
 4724POPC   NC320771  43.926   9.734   9.450
 4724POPC   PO420772  43.877   9.736   9.150
 4724POPC   GL120773  43.876   9.775   8.850
 4724POPC   GL220774  44.008   9.723   8.850
 4724POPC   C1A20775  43.842   9.789   8.550
 4724POPC   D2A20776  43.890   9.779   8.250
 4724POPC   C3A20777  43.886   9.773   7.950
 4724POPC   C4A20778  43.847   9.765   7.650
 4724POPC   C1B20779  44.132   9.619   8.550
 4724POPC   C2B20780  44.049   9.595   8.250
 4724POPC   C3B20781  44.059   9.627   7.950
 4724POPC   C4B20782  44.076   9.622   7.650
 4725POPC   NC320783  36.098   0.463   9.450
 4725POPC   PO420784  36.151   0.485   9.150
 4725POPC   GL120785  36.155   0.455   8.850
 4725POPC   GL220786  36.209   0.308   8.850
 4725POPC   C1A20787  36.173   0.407   8.550
 4725POPC   D2A20788  36.150   0.415   8.250
 4725POPC   C3A20789  36.141   0.442   7.950
 4725POPC   C4A20790  36.091   0.471   7.650
 4725POPC   C1B20791  36.250   0.179   8.550
 4725POPC   C2B20792  36.197   0.246   8.250
 4725POPC   C3B20793  36.267   0.254   7.950
 4725POPC   C4B20794  36.269   0.245   7.650
 4726POPC   NC320795  24.473  43.915   9.450
 4726POPC   PO420796  24.530  43.902   9.150
 4726POPC   GL120797  24.535  43.877   8.850
 4726POPC   GL220798  24.352  43.804   8.850
 4726POPC   C1A20799  24.442  43.857   8.550
 4726POPC   D2A20800  24.490  43.931   8.250
 4726POPC   C3A20801  24.466  43.915   7.950
 4726POPC   C4A20802  24.518  43.841   7.650
 4726POPC   C1B20803  24.237  43.746   8.550
 4726POPC   C2B20804  24.288  43.746   8.250
 4726POPC   C3B20805  24.297  43.754   7.950
 4726POPC   C4B20806  24.280  43.737   7.650
 4727POPC   NC320807  32.239   1.233   9.450
 4727POPC   PO420808  32.229   1.183   9.150
 4727POPC   GL120809  32.233   1.220   8.850
 4727POPC   GL220810  32.138   1.159   8.850
 4727POPC   C1A20811  32.289   1.175   8.550
 4727POPC   D2A20812  32.216   1.201   8.250
 4727POPC   C3A20813  32.205   1.241   7.950
 4727POPC   C4A20814  32.199   1.184   7.650
 4727POPC   C1B20815  32.033   1.038   8.550
 4727POPC   C2B20816  32.002   1.032   8.250
 4727POPC   C3B20817  32.005   1.092   7.950
 4727POPC   C4B20818  32.079   1.064   7.650
 4728POPC   NC320819   2.789  33.758   9.450
 4728POPC   PO420820   2.813  33.846   9.150
 4728POPC   GL120821   2.742  33.755   8.850
 4728POPC   GL220822   2.668  33.674   8.850
 4728POPC   C1A20823   2.737  33.786   8.550
 4728POPC   D2A20824   2.748  33.762   8.250
 4728POPC   C3A20825   2.803  33.849   7.950
 4728POPC   C4A20826   2.794  33.760   7.650
 4728POPC   C1B20827   2.646  33.537   8.550
 4728POPC   C2B20828   2.628  33.624   8.250
 4728POPC   C3B20829   2.681  33.626   7.950
 4728POPC   C4B20830   2.654  33.621   7.650
 4729POPC   NC320831  20.583  34.596   9.450
 4729POPC   PO420832  20.566  34.536   9.150
 4729POPC   GL120833  20.621  34.592   8.850
 4729POPC   GL220834  20.561  34.696   8.850
 4729POPC   C1A20835  20.598  34.535   8.550
 4729POPC   D2A20836  20.573  34.602   8.250
 4729POPC   C3A20837  20.593  34.531   7.950
 4729POPC   C4A20838  20.571  34.571   7.650
 4729POPC   C1B20839  20.554  34.845   8.550
 4729POPC   C2B20840  20.572  34.859   8.250
 4729POPC   C3B20841  20.577  34.861   7.950
 4729POPC   C4B20842  20.560  34.826   7.650
 4730POPC   NC320843  11.318  27.634   9.450
 4730POPC   PO420844  11.337  27.575   9.150
 4730POPC   GL120845  11.318  27.573   8.850
 4730POPC   GL220846  11.416  27.623   8.850
 4730POPC   C1A20847  11.285  27.595   8.550
 4730POPC   D2A20848  11.257  27.634   8.250
 4730POPC   C3A20849  11.259  27.578   7.950
 4730POPC   C4A20850  11.315  27.635   7.650
 4730POPC   C1B20851  11.564  27.615   8.550
 4730POPC   C2B20852  11.557  27.650   8.250
 4730POPC   C3B20853  11.521  27.609   7.950
 4730POPC   C4B20854  11.535  27.573   7.650
 4731POPC   NC320855  29.121  44.643   9.450
 4731POPC   PO420856  29.116  44.684   9.150
 4731POPC   GL120857  29.132  44.712   8.850
 4731POPC   GL220858  29.311  44.657   8.850
 4731POPC   C1A20859  29.164  44.666   8.550
 4731POPC   D2A20860  29.180  44.620   8.250
 4731POPC   C3A20861  29.115  44.661   7.950
 4731POPC   C4A20862  29.127  44.670   7.650
 4731POPC   C1B20863  29.407  44.648   8.550
 4731POPC   C2B20864  29.426  44.630   8.250
 4731POPC   C3B20865  29.376  44.664   7.950
 4731POPC   C4B20866  29.417  44.613   7.650
 4732POPC   NC320867  43.159   1.978   9.450
 4732POPC   PO420868  43.145   2.017   9.150
 4732POPC   GL120869  43.066   1.989   8.850
 4732POPC   GL220870  43.198   2.124   8.850
 4732POPC   C1A20871  43.144   1.981   8.550
 4732POPC   D2A20872  43.104   2.018   8.250
 4732POPC   C3A20873  43.128   1.996   7.950
 4732POPC   C4A20874  43.103   2.033   7.650
 4732POPC   C1B20875  43.154   2.221   8.550
 4732POPC   C2B20876  43.155   2.262   8.250
 4732POPC   C3B20877  43.168   2.225   7.950
 4732POPC   C4B20878  43.156   2.238   7.650
 4733POPC   NC320879  19.108  18.280   9.450
 4733POPC   PO420880  19.048  18.280   9.150
 4733POPC   GL120881  19.022  18.238   8.850
 4733POPC   GL220882  19.161  18.414   8.850
 4733POPC   C1A20883  19.095  18.276   8.550
 4733POPC   D2A20884  19.064  18.300   8.250
 4733POPC   C3A20885  19.066  18.251   7.950
 4733POPC   C4A20886  19.060  18.273   7.650
 4733POPC   C1B20887  19.207  18.540   8.550
 4733POPC   C2B20888  19.138  18.466   8.250
 4733POPC   C3B20889  19.135  18.538   7.950
 4733POPC   C4B20890  19.200  18.489   7.650
 4734POPC   NC320891   8.204  43.142   9.450
 4734POPC   PO420892   8.196  43.107   9.150
 4734POPC   GL120893   8.165  43.127   8.850
 4734POPC   GL220894   8.110  43.105   8.850
 4734POPC   C1A20895   8.191  43.106   8.550
 4734POPC   D2A20896   8.196  43.109   8.250
 4734POPC   C3A20897   8.202  43.143   7.950
 4734POPC   C4A20898   8.173  43.140   7.650
 4734POPC   C1B20899   7.964  43.118   8.550
 4734POPC   C2B20900   7.924  43.128   8.250
 4734POPC   C3B20901   7.987  43.099   7.950
 4734POPC   C4B20902   7.902  43.059   7.650
 4735POPC   NC320903   0.440  24.456   9.450
 4735POPC   PO420904   0.448  24.473   9.150
 4735POPC   GL120905   0.390  24.522   8.850
 4735POPC   GL220906   0.293  24.431   8.850
 4735POPC   C1A20907   0.466  24.496   8.550
 4735POPC   D2A20908   0.449  24.534   8.250
 4735POPC   C3A20909   0.391  24.539   7.950
 4735POPC   C4A20910   0.462  24.462   7.650
 4735POPC   C1B20911   0.206  24.504   8.550
 4735POPC   C2B20912   0.184  24.456   8.250
 4735POPC   C3B20913   0.149  24.474   7.950
 4735POPC   C4B20914   0.236  24.443   7.650
 4736POPC   NC320915  19.877  30.718   9.450
 4736POPC   PO420916  19.800  30.699   9.150
 4736POPC   GL120917  19.794  30.666   8.850
 4736POPC   GL220918  19.883  30.777   8.850
 4736POPC   C1A20919  19.801  30.682   8.550
 4736POPC   D2A20920  19.884  30.731   8.250
 4736POPC   C3A20921  19.795  30.653   7.950
 4736POPC   C4A20922  19.829  30.676   7.650
 4736POPC   C1B20923  19.952  30.938   8.550
 4736POPC   C2B20924  19.888  30.965   8.250
 4736POPC   C3B20925  19.900  30.918   7.950
 4736POPC   C4B20926  19.923  30.917   7.650
 4737POPC   NC320927  43.100  36.147   9.450
 4737POPC   PO420928  43.157  36.140   9.150
 4737POPC   GL120929  43.156  36.099   8.850
 4737POPC   GL220930  42.993  36.070   8.850
 4737POPC   C1A20931  43.086  36.162   8.550
 4737POPC   D2A20932  43.153  36.145   8.250
 4737POPC   C3A20933  43.115  36.118   7.950
 4737POPC   C4A20934  43.132  36.172   7.650
 4737POPC   C1B20935  42.952  35.879   8.550
 4737POPC   C2B20936  42.924  35.919   8.250
 4737POPC   C3B20937  42.966  35.944   7.950
 4737POPC   C4B20938  42.998  35.967   7.650
 4738POPC   NC320939   4.364  44.652   9.450
 4738POPC   PO420940   4.307  44.638   9.150
 4738POPC   GL120941   4.297  44.706   8.850
 4738POPC   GL220942   4.170  44.674   8.850
 4738POPC   C1A20943   4.284  44.684   8.550
 4738POPC   D2A20944   4.351  44.626   8.250
 4738POPC   C3A20945   4.346  44.691   7.950
 4738POPC   C4A20946   4.319  44.709   7.650
 4738POPC   C1B20947   4.097  44.754   8.550
 4738POPC   C2B20948   4.071  44.708   8.250
 4738POPC   C3B20949   4.051  44.729   7.950
 4738POPC   C4B20950   4.034  44.730   7.650
 4739POPC   NC320951  18.304  38.502   9.450
 4739POPC   PO420952  18.264  38.437   9.150
 4739POPC   GL120953  18.294  38.430   8.850
 4739POPC   GL220954  18.250  38.341   8.850
 4739POPC   C1A20955  18.261  38.488   8.550
 4739POPC   D2A20956  18.279  38.434   8.250
 4739POPC   C3A20957  18.257  38.489   7.950
 4739POPC   C4A20958  18.320  38.479   7.650
 4739POPC   C1B20959  18.183  38.229   8.550
 4739POPC   C2B20960  18.108  38.207   8.250
 4739POPC   C3B20961  18.151  38.289   7.950
 4739POPC   C4B20962  18.173  38.207   7.650
 4740POPC   NC320963  36.867  10.487   9.450
 4740POPC   PO420964  36.859  10.534   9.150
 4740POPC   GL120965  36.858  10.497   8.850
 4740POPC   GL220966  36.861  10.663   8.850
 4740POPC   C1A20967  36.885  10.483   8.550
 4740POPC   D2A20968  36.923  10.528   8.250
 4740POPC   C3A20969  36.893  10.531   7.950
 4740POPC   C4A20970  36.921  10.534   7.650
 4740POPC   C1B20971  36.808  10.756   8.550
 4740POPC   C2B20972  36.760  10.784   8.250
 4740POPC   C3B20973  36.842  10.783   7.950
 4740POPC   C4B20974  36.821  10.724   7.650
 4741POPC   NC320975  25.307   9.788   9.450
 4741POPC   PO420976  25.221   9.751   9.150
 4741POPC   GL120977  25.310   9.700   8.850
 4741POPC   GL220978  25.257   9.587   8.850
 4741POPC   C1A20979  25.295   9.735   8.550
 4741POPC   D2A20980  25.288   9.740   8.250
 4741POPC   C3A20981  25.295   9.783   7.950
 4741POPC   C4A20982  25.220   9.735   7.650
 4741POPC   C1B20983  25.234   9.458   8.550
 4741POPC   C2B20984  25.318   9.509   8.250
 4741POPC   C3B20985  25.307   9.511   7.950
 4741POPC   C4B20986  25.255   9.488   7.650
 4742POPC   NC320987  23.726  19.103   9.450
 4742POPC   PO420988  23.681  19.028   9.150
 4742POPC   GL120989  23.725  19.071   8.850
 4742POPC   GL220990  23.832  19.032   8.850
 4742POPC   C1A20991  23.722  19.107   8.550
 4742POPC   D2A20992  23.736  19.011   8.250
 4742POPC   C3A20993  23.686  19.030   7.950
 4742POPC   C4A20994  23.707  19.035   7.650
 4742POPC   C1B20995  23.988  19.077   8.550
 4742POPC   C2B20996  23.980  19.083   8.250
 4742POPC   C3B20997  24.002  19.080   7.950
 4742POPC   C4B20998  23.998  19.080   7.650
 4743POPC   NC320999  36.917  13.597   9.450
 4743POPC   PO421000  36.875  13.677   9.150
 4743POPC   GL121001  36.858  13.632   8.850
 4743POPC   GL221002  36.798  13.619   8.850
 4743POPC   C1A21003  36.914  13.608   8.550
 4743POPC   D2A21004  36.915  13.596   8.250
 4743POPC   C3A21005  36.893  13.608   7.950
 4743POPC   C4A21006  36.933  13.634   7.650
 4743POPC   C1B21007  36.698  13.667   8.550
 4743POPC   C2B21008  36.680  13.610   8.250
 4743POPC   C3B21009  36.637  13.602   7.950
 4743POPC   C4B21010  36.652  13.623   7.650
 4744POPC   NC321011  16.725   8.208   9.450
 4744POPC   PO421012  16.746   8.176   9.150
 4744POPC   GL121013  16.737   8.164   8.850
 4744POPC   GL221014  16.620   8.270   8.850
 4744POPC   C1A21015  16.707   8.240   8.550
 4744POPC   D2A21016  16.766   8.164   8.250
 4744POPC   C3A21017  16.712   8.178   7.950
 4744POPC   C4A21018  16.698   8.191   7.650
 4744POPC   C1B21019  16.526   8.401   8.550
 4744POPC   C2B21020  16.553   8.377   8.250
 4744POPC   C3B21021  16.509   8.334   7.950
 4744POPC   C4B21022  16.588   8.379   7.650
 4745POPC   NC321023   9.003  38.503   9.450
 4745POPC   PO421024   8.941  38.478   9.150
 4745POPC   GL121025   8.995  38.471   8.850
 4745POPC   GL221026   9.130  38.451   8.850
 4745POPC   C1A21027   8.965  38.494   8.550
 4745POPC   D2A21028   8.961  38.420   8.250
 4745POPC   C3A21029   8.973  38.418   7.950
 4745POPC   C4A21030   9.022  38.475   7.650
 4745POPC   C1B21031   9.214  38.438   8.550
 4745POPC   C2B21032   9.227  38.411   8.250
 4745POPC   C3B21033   9.197  38.406   7.950
 4745POPC   C4B21034   9.204  38.382   7.650
 4746POPC   NC321035  29.892  16.753   9.450
 4746POPC   PO421036  29.940  16.739   9.150
 4746POPC   GL121037  29.903  16.781   8.850
 4746POPC   GL221038  30.016  16.816   8.850
 4746POPC   C1A21039  29.951  16.716   8.550
 4746POPC   D2A21040  29.937  16.776   8.250
 4746POPC   C3A21041  29.872  16.737   7.950
 4746POPC   C4A21042  29.896  16.774   7.650
 4746POPC   C1B21043  30.095  16.889   8.550
 4746POPC   C2B21044  30.106  16.867   8.250
 4746POPC   C3B21045  30.111  16.827   7.950
 4746POPC   C4B21046  30.175  16.830   7.650
 4747POPC   NC321047  43.848  15.189   9.450
 4747POPC   PO421048  43.847  15.180   9.150
 4747POPC   GL121049  43.867  15.208   8.850
 4747POPC   GL221050  43.872  15.254   8.850
 4747POPC   C1A21051  43.863  15.174   8.550
 4747POPC   D2A21052  43.862  15.184   8.250
 4747POPC   C3A21053  43.840  15.185   7.950
 4747POPC   C4A21054  43.841  15.169   7.650
 4747POPC   C1B21055  43.808  15.409   8.550
 4747POPC   C2B21056  43.792  15.417   8.250
 4747POPC   C3B21057  43.816  15.396   7.950
 4747POPC   C4B21058  43.819  15.403   7.650
 4748POPC   NC321059  23.743  31.451   9.450
 4748POPC   PO421060  23.691  31.460   9.150
 4748POPC   GL121061  23.718  31.512   8.850
 4748POPC   GL221062  23.782  31.359   8.850
 4748POPC   C1A21063  23.701  31.502   8.550
 4748POPC   D2A21064  23.734  31.451   8.250
 4748POPC   C3A21065  23.743  31.468   7.950
 4748POPC   C4A21066  23.703  31.424   7.650
 4748POPC   C1B21067  23.759  31.226   8.550
 4748POPC   C2B21068  23.791  31.192   8.250
 4748POPC   C3B21069  23.729  31.261   7.950
 4748POPC   C4B21070  23.738  31.209   7.650
 4749POPC   NC321071  22.988  22.143   9.450
 4749POPC   PO421072  22.958  22.121   9.150
 4749POPC   GL121073  22.948  22.126   8.850
 4749POPC   GL221074  22.915  22.008   8.850
 4749POPC   C1A21075  22.979  22.134   8.550
 4749POPC   D2A21076  22.988  22.204   8.250
 4749POPC   C3A21077  22.961  22.208   7.950
 4749POPC   C4A21078  22.935  22.132   7.650
 4749POPC   C1B21079  22.775  21.936   8.550
 4749POPC   C2B21080  22.756  22.001   8.250
 4749POPC   C3B21081  22.846  21.957   7.950
 4749POPC   C4B21082  22.832  21.944   7.650
 4750POPC   NC321083  27.592   3.539   9.450
 4750POPC   PO421084  27.609   3.574   9.150
 4750POPC   GL121085  27.567   3.492   8.850
 4750POPC   GL221086  27.656   3.617   8.850
 4750POPC   C1A21087  27.631   3.587   8.550
 4750POPC   D2A21088  27.601   3.535   8.250
 4750POPC   C3A21089  27.557   3.512   7.950
 4750POPC   C4A21090  27.572   3.513   7.650
 4750POPC   C1B21091  27.720   3.766   8.550
 4750POPC   C2B21092  27.812   3.688   8.250
 4750POPC   C3B21093  27.773   3.741   7.950
 4750POPC   C4B21094  27.807   3.705   7.650
 4751POPC   NC321095   0.421  39.963   9.450
 4751POPC   PO421096   0.397  39.972   9.150
 4751POPC   GL121097   0.446  40.049   8.850
 4751POPC   GL221098   0.325  40.066   8.850
 4751POPC   C1A21099   0.459  39.968   8.550
 4751POPC   D2A21100   0.449  39.970   8.250
 4751POPC   C3A21101   0.406  40.050   7.950
 4751POPC   C4A21102   0.424  40.054   7.650
 4751POPC   C1B21103   0.280  40.211   8.550
 4751POPC   C2B21104   0.236  40.158   8.250
 4751POPC   C3B21105   0.240  40.217   7.950
 4751POPC   C4B21106   0.281  40.208   7.650
 4752POPC   NC321107  43.910  27.639   9.450
 4752POPC   PO421108  43.847  27.564   9.150
 4752POPC   GL121109  43.930  27.584   8.850
 4752POPC   GL221110  43.892  27.513   8.850
 4752POPC   C1A21111  43.905  27.587   8.550
 4752POPC   D2A21112  43.921  27.602   8.250
 4752POPC   C3A21113  43.869  27.552   7.950
 4752POPC   C4A21114  43.922  27.552   7.650
 4752POPC   C1B21115  43.958  27.333   8.550
 4752POPC   C2B21116  43.996  27.407   8.250
 4752POPC   C3B21117  43.993  27.388   7.950
 4752POPC   C4B21118  43.951  27.332   7.650
 4753POPC   NC321119  16.762  20.584   9.450
 4753POPC   PO421120  16.755  20.647   9.150
 4753POPC   GL121121  16.732  20.567   8.850
 4753POPC   GL221122  16.804  20.509   8.850
 4753POPC   C1A21123  16.683  20.600   8.550
 4753POPC   D2A21124  16.705  20.648   8.250
 4753POPC   C3A21125  16.706  20.607   7.950
 4753POPC   C4A21126  16.711  20.649   7.650
 4753POPC   C1B21127  16.741  20.396   8.550
 4753POPC   C2B21128  16.793  20.355   8.250
 4753POPC   C3B21129  16.739  20.343   7.950
 4753POPC   C4B21130  16.818  20.319   7.650
 4754POPC   NC321131  13.657   9.002   9.450
 4754POPC   PO421132  13.616   9.002   9.150
 4754POPC   GL121133  13.622   8.931   8.850
 4754POPC   GL221134  13.657   8.859   8.850
 4754POPC   C1A21135  13.599   9.021   8.550
 4754POPC   D2A21136  13.619   8.927   8.250
 4754POPC   C3A21137  13.666   9.001   7.950
 4754POPC   C4A21138  13.617   9.016   7.650
 4754POPC   C1B21139  13.722   8.741   8.550
 4754POPC   C2B21140  13.756   8.736   8.250
 4754POPC   C3B21141  13.727   8.720   7.950
 4754POPC   C4B21142  13.764   8.777   7.650
 4755POPC   NC321143  29.105  24.492   9.450
 4755POPC   PO421144  29.141  24.470   9.150
 4755POPC   GL121145  29.189  24.458   8.850
 4755POPC   GL221146  29.291  24.516   8.850
 4755POPC   C1A21147  29.095  24.525   8.550
 4755POPC   D2A21148  29.100  24.524   8.250
 4755POPC   C3A21149  29.139  24.475   7.950
 4755POPC   C4A21150  29.179  24.503   7.650
 4755POPC   C1B21151  29.438  24.453   8.550
 4755POPC   C2B21152  29.405  24.486   8.250
 4755POPC   C3B21153  29.437  24.442   7.950
 4755POPC   C4B21154  29.392  24.468   7.650
 4756POPC   NC321155   9.774   1.204   9.450
 4756POPC   PO421156   9.762   1.224   9.150
 4756POPC   GL121157   9.790   1.237   8.850
 4756POPC   GL221158   9.640   1.155   8.850
 4756POPC   C1A21159   9.705   1.189   8.550
 4756POPC   D2A21160   9.742   1.184   8.250
 4756POPC   C3A21161   9.710   1.236   7.950
 4756POPC   C4A21162   9.778   1.225   7.650
 4756POPC   C1B21163   9.499   1.061   8.550
 4756POPC   C2B21164   9.554   1.114   8.250
 4756POPC   C3B21165   9.496   1.062   7.950
 4756POPC   C4B21166   9.512   1.124   7.650
 4757POPC   NC321167  33.802  22.174   9.450
 4757POPC   PO421168  33.800  22.175   9.150
 4757POPC   GL121169  33.762  22.165   8.850
 4757POPC   GL221170  33.852  22.086   8.850
 4757POPC   C1A21171  33.809  22.124   8.550
 4757POPC   D2A21172  33.825  22.147   8.250
 4757POPC   C3A21173  33.761  22.207   7.950
 4757POPC   C4A21174  33.806  22.183   7.650
 4757POPC   C1B21175  33.942  21.902   8.550
 4757POPC   C2B21176  33.917  21.916   8.250
 4757POPC   C3B21177  33.897  21.968   7.950
 4757POPC   C4B21178  33.927  21.968   7.650
 4758POPC   NC321179  22.204  13.669   9.450
 4758POPC   PO421180  22.119  13.644   9.150
 4758POPC   GL121181  22.120  13.657   8.850
 4758POPC   GL221182  22.071  13.541   8.850
 4758POPC   C1A21183  22.166  13.648   8.550
 4758POPC   D2A21184  22.181  13.654   8.250
 4758POPC   C3A21185  22.149  13.663   7.950
 4758POPC   C4A21186  22.153  13.654   7.650
 4758POPC   C1B21187  21.943  13.506   8.550
 4758POPC   C2B21188  21.941  13.521   8.250
 4758POPC   C3B21189  21.931  13.489   7.950
 4758POPC   C4B21190  21.945  13.492   7.650
 4759POPC   NC321191  35.351  14.384   9.450
 4759POPC   PO421192  35.390  14.442   9.150
 4759POPC   GL121193  35.367  14.374   8.850
 4759POPC   GL221194  35.402  14.357   8.850
 4759POPC   C1A21195  35.398  14.411   8.550
 4759POPC   D2A21196  35.365  14.390   8.250
 4759POPC   C3A21197  35.378  14.420   7.950
 4759POPC   C4A21198  35.339  14.410   7.650
 4759POPC   C1B21199  35.558  14.282   8.550
 4759POPC   C2B21200  35.501  14.256   8.250
 4759POPC   C3B21201  35.558  14.229   7.950
 4759POPC   C4B21202  35.561  14.249   7.650
 4760POPC   NC321203  40.832  12.086   9.450
 4760POPC   PO421204  40.766  12.101   9.150
 4760POPC   GL121205  40.784  12.095   8.850
 4760POPC   GL221206  40.875  12.038   8.850
 4760POPC   C1A21207  40.817  12.056   8.550
 4760POPC   D2A21208  40.808  12.111   8.250
 4760POPC   C3A21209  40.827  12.070   7.950
 4760POPC   C4A21210  40.820  12.109   7.650
 4760POPC   C1B21211  41.055  12.050   8.550
 4760POPC   C2B21212  41.073  12.015   8.250
 4760POPC   C3B21213  41.025  12.075   7.950
 4760POPC   C4B21214  41.053  12.070   7.650
 4761POPC   NC321215  29.152  22.172   9.450
 4761POPC   PO421216  29.124  22.116   9.150
 4761POPC   GL121217  29.108  22.133   8.850
 4761POPC   GL221218  29.125  22.084   8.850
 4761POPC   C1A21219  29.186  22.137   8.550
 4761POPC   D2A21220  29.109  22.131   8.250
 4761POPC   C3A21221  29.131  22.168   7.950
 4761POPC   C4A21222  29.188  22.161   7.650
 4761POPC   C1B21223  29.162  21.884   8.550
 4761POPC   C2B21224  29.162  21.879   8.250
 4761POPC   C3B21225  29.198  21.913   7.950
 4761POPC   C4B21226  29.195  21.919   7.650
 4762POPC   NC321227  13.584   9.789   9.450
 4762POPC   PO421228  13.606   9.725   9.150
 4762POPC   GL121229  13.656   9.792   8.850
 4762POPC   GL221230  13.504   9.796   8.850
 4762POPC   C1A21231  13.643   9.783   8.550
 4762POPC   D2A21232  13.614   9.766   8.250
 4762POPC   C3A21233  13.599   9.764   7.950
 4762POPC   C4A21234  13.594   9.714   7.650
 4762POPC   C1B21235  13.353   9.768   8.550
 4762POPC   C2B21236  13.348   9.830   8.250
 4762POPC   C3B21237  13.351   9.828   7.950
 4762POPC   C4B21238  13.354   9.832   7.650
 4763POPC   NC321239  17.459  21.417   9.450
 4763POPC   PO421240  17.548  21.387   9.150
 4763POPC   GL121241  17.507  21.376   8.850
 4763POPC   GL221242  17.345  21.412   8.850
 4763POPC   C1A21243  17.472  21.385   8.550
 4763POPC   D2A21244  17.501  21.357   8.250
 4763POPC   C3A21245  17.524  21.421   7.950
 4763POPC   C4A21246  17.457  21.405   7.650
 4763POPC   C1B21247  17.208  21.371   8.550
 4763POPC   C2B21248  17.306  21.382   8.250
 4763POPC   C3B21249  17.248  21.350   7.950
 4763POPC   C4B21250  17.231  21.417   7.650
 4764POPC   NC321251  12.893  19.844   9.450
 4764POPC   PO421252  12.893  19.803   9.150
 4764POPC   GL121253  12.837  19.822   8.850
 4764POPC   GL221254  12.905  19.679   8.850
 4764POPC   C1A21255  12.842  19.868   8.550
 4764POPC   D2A21256  12.899  19.822   8.250
 4764POPC   C3A21257  12.851  19.828   7.950
 4764POPC   C4A21258  12.839  19.866   7.650
 4764POPC   C1B21259  12.924  19.645   8.550
 4764POPC   C2B21260  12.902  19.550   8.250
 4764POPC   C3B21261  12.927  19.599   7.950
 4764POPC   C4B21262  12.890  19.548   7.650
 4765POPC   NC321263  38.410  16.001   9.450
 4765POPC   PO421264  38.491  15.943   9.150
 4765POPC   GL121265  38.453  15.970   8.850
 4765POPC   GL221266  38.509  15.870   8.850
 4765POPC   C1A21267  38.449  15.917   8.550
 4765POPC   D2A21268  38.473  15.968   8.250
 4765POPC   C3A21269  38.407  15.981   7.950
 4765POPC   C4A21270  38.499  15.966   7.650
 4765POPC   C1B21271  38.532  15.748   8.550
 4765POPC   C2B21272  38.519  15.673   8.250
 4765POPC   C3B21273  38.526  15.755   7.950
 4765POPC   C4B21274  38.501  15.667   7.650
 4766POPC   NC321275  17.495  36.136   9.450
 4766POPC   PO421276  17.481  36.135   9.150
 4766POPC   GL121277  17.541  36.174   8.850
 4766POPC   GL221278  17.576  36.240   8.850
 4766POPC   C1A21279  17.538  36.175   8.550
 4766POPC   D2A21280  17.517  36.106   8.250
 4766POPC   C3A21281  17.541  36.084   7.950
 4766POPC   C4A21282  17.505  36.087   7.650
 4766POPC   C1B21283  17.635  36.309   8.550
 4766POPC   C2B21284  17.700  36.370   8.250
 4766POPC   C3B21285  17.710  36.364   7.950
 4766POPC   C4B21286  17.663  36.276   7.650
 4767POPC   NC321287  40.747  12.815   9.450
 4767POPC   PO421288  40.807  12.888   9.150
 4767POPC   GL121289  40.781  12.874   8.850
 4767POPC   GL221290  40.812  12.951   8.850
 4767POPC   C1A21291  40.813  12.819   8.550
 4767POPC   D2A21292  40.798  12.879   8.250
 4767POPC   C3A21293  40.768  12.877   7.950
 4767POPC   C4A21294  40.743  12.838   7.650
 4767POPC   C1B21295  40.937  13.105   8.550
 4767POPC   C2B21296  40.946  13.058   8.250
 4767POPC   C3B21297  40.877  13.030   7.950
 4767POPC   C4B21298  40.946  13.058   7.650
 4768POPC   NC321299  33.755   3.566   9.450
 4768POPC   PO421300  33.763   3.546   9.150
 4768POPC   GL121301  33.765   3.502   8.850
 4768POPC   GL221302  33.946   3.533   8.850
 4768POPC   C1A21303  33.842   3.503   8.550
 4768POPC   D2A21304  33.843   3.499   8.250
 4768POPC   C3A21305  33.792   3.556   7.950
 4768POPC   C4A21306  33.812   3.516   7.650
 4768POPC   C1B21307  34.055   3.534   8.550
 4768POPC   C2B21308  34.098   3.544   8.250
 4768POPC   C3B21309  34.038   3.504   7.950
 4768POPC   C4B21310  34.081   3.576   7.650
 4769POPC   NC321311  19.025  28.384   9.450
 4769POPC   PO421312  19.075  28.361   9.150
 4769POPC   GL121313  19.097  28.332   8.850
 4769POPC   GL221314  19.123  28.303   8.850
 4769POPC   C1A21315  19.024  28.408   8.550
 4769POPC   D2A21316  19.013  28.332   8.250
 4769POPC   C3A21317  19.042  28.396   7.950
 4769POPC   C4A21318  19.071  28.395   7.650
 4769POPC   C1B21319  19.220  28.187   8.550
 4769POPC   C2B21320  19.259  28.179   8.250
 4769POPC   C3B21321  19.189  28.210   7.950
 4769POPC   C4B21322  19.183  28.187   7.650
 4770POPC   NC321323  28.349  43.101   9.450
 4770POPC   PO421324  28.370  43.128   9.150
 4770POPC   GL121325  28.408  43.117   8.850
 4770POPC   GL221326  28.524  43.159   8.850
 4770POPC   C1A21327  28.383  43.157   8.550
 4770POPC   D2A21328  28.409  43.138   8.250
 4770POPC   C3A21329  28.406  43.160   7.950
 4770POPC   C4A21330  28.388  43.082   7.650
 4770POPC   C1B21331  28.652  43.081   8.550
 4770POPC   C2B21332  28.665  43.140   8.250
 4770POPC   C3B21333  28.609  43.138   7.950
 4770POPC   C4B21334  28.649  43.155   7.650
 4771POPC   NC321335  39.229   1.231   9.450
 4771POPC   PO421336  39.224   1.211   9.150
 4771POPC   GL121337  39.254   1.263   8.850
 4771POPC   GL221338  39.237   1.321   8.850
 4771POPC   C1A21339  39.203   1.233   8.550
 4771POPC   D2A21340  39.268   1.228   8.250
 4771POPC   C3A21341  39.204   1.264   7.950
 4771POPC   C4A21342  39.232   1.248   7.650
 4771POPC   C1B21343  39.249   1.433   8.550
 4771POPC   C2B21344  39.321   1.435   8.250
 4771POPC   C3B21345  39.284   1.500   7.950
 4771POPC   C4B21346  39.263   1.478   7.650
 4772POPC   NC321347  33.788  22.967   9.450
 4772POPC   PO421348  33.850  22.954   9.150
 4772POPC   GL121349  33.758  22.965   8.850
 4772POPC   GL221350  33.765  23.081   8.850
 4772POPC   C1A21351  33.828  22.919   8.550
 4772POPC   D2A21352  33.775  22.982   8.250
 4772POPC   C3A21353  33.810  22.918   7.950
 4772POPC   C4A21354  33.754  22.894   7.650
 4772POPC   C1B21355  33.714  23.183   8.550
 4772POPC   C2B21356  33.672  23.165   8.250
 4772POPC   C3B21357  33.677  23.190   7.950
 4772POPC   C4B21358  33.663  23.197   7.650
 4773POPC   NC321359  34.532  29.151   9.450
 4773POPC   PO421360  34.598  29.164   9.150
 4773POPC   GL121361  34.614  29.175   8.850
 4773POPC   GL221362  34.603  29.278   8.850
 4773POPC   C1A21363  34.534  29.147   8.550
 4773POPC   D2A21364  34.554  29.182   8.250
 4773POPC   C3A21365  34.607  29.131   7.950
 4773POPC   C4A21366  34.597  29.175   7.650
 4773POPC   C1B21367  34.605  29.384   8.550
 4773POPC   C2B21368  34.662  29.401   8.250
 4773POPC   C3B21369  34.570  29.438   7.950
 4773POPC   C4B21370  34.660  29.386   7.650
 4774POPC   NC321371  11.305  17.474   9.450
 4774POPC   PO421372  11.315  17.517   9.150
 4774POPC   GL121373  11.284  17.529   8.850
 4774POPC   GL221374  11.193  17.554   8.850
 4774POPC   C1A21375  11.298  17.459   8.550
 4774POPC   D2A21376  11.271  17.484   8.250
 4774POPC   C3A21377  11.316  17.531   7.950
 4774POPC   C4A21378  11.273  17.458   7.650
 4774POPC   C1B21379  11.094  17.643   8.550
 4774POPC   C2B21380  11.118  17.566   8.250
 4774POPC   C3B21381  11.105  17.629   7.950
 4774POPC   C4B21382  11.095  17.585   7.650
 4775POPC   NC321383   4.366  29.885   9.450
 4775POPC   PO421384   4.273  29.927   9.150
 4775POPC   GL121385   4.357  29.910   8.850
 4775POPC   GL221386   4.253  29.808   8.850
 4775POPC   C1A21387   4.366  29.889   8.550
 4775POPC   D2A21388   4.277  29.960   8.250
 4775POPC   C3A21389   4.310  29.876   7.950
 4775POPC   C4A21390   4.307  29.965   7.650
 4775POPC   C1B21391   4.209  29.742   8.550
 4775POPC   C2B21392   4.167  29.703   8.250
 4775POPC   C3B21393   4.184  29.747   7.950
 4775POPC   C4B21394   4.203  29.708   7.650
 4776POPC   NC321395   2.812  36.882   9.450
 4776POPC   PO421396   2.766  36.882   9.150
 4776POPC   GL121397   2.766  36.931   8.850
 4776POPC   GL221398   2.615  36.883   8.850
 4776POPC   C1A21399   2.806  36.940   8.550
 4776POPC   D2A21400   2.750  36.908   8.250
 4776POPC   C3A21401   2.764  36.937   7.950
 4776POPC   C4A21402   2.768  36.862   7.650
 4776POPC   C1B21403   2.531  36.896   8.550
 4776POPC   C2B21404   2.502  36.849   8.250
 4776POPC   C3B21405   2.545  36.804   7.950
 4776POPC   C4B21406   2.542  36.871   7.650
 4777POPC   NC321407  35.312  30.681   9.450
 4777POPC   PO421408  35.333  30.726   9.150
 4777POPC   GL121409  35.362  30.696   8.850
 4777POPC   GL221410  35.274  30.706   8.850
 4777POPC   C1A21411  35.370  30.661   8.550
 4777POPC   D2A21412  35.384  30.684   8.250
 4777POPC   C3A21413  35.304  30.677   7.950
 4777POPC   C4A21414  35.317  30.739   7.650
 4777POPC   C1B21415  35.091  30.604   8.550
 4777POPC   C2B21416  35.063  30.594   8.250
 4777POPC   C3B21417  35.125  30.592   7.950
 4777POPC   C4B21418  35.109  30.646   7.650
 4778POPC   NC321419  16.731  21.433   9.450
 4778POPC   PO421420  16.735  21.401   9.150
 4778POPC   GL121421  16.713  21.337   8.850
 4778POPC   GL221422  16.709  21.477   8.850
 4778POPC   C1A21423  16.694  21.374   8.550
 4778POPC   D2A21424  16.764  21.427   8.250
 4778POPC   C3A21425  16.696  21.413   7.950
 4778POPC   C4A21426  16.716  21.424   7.650
 4778POPC   C1B21427  16.727  21.670   8.550
 4778POPC   C2B21428  16.702  21.617   8.250
 4778POPC   C3B21429  16.697  21.599   7.950
 4778POPC   C4B21430  16.653  21.642   7.650
 4779POPC   NC321431   8.996  32.211   9.450
 4779POPC   PO421432   9.013  32.224   9.150
 4779POPC   GL121433   9.008  32.208   8.850
 4779POPC   GL221434   9.011  32.376   8.850
 4779POPC   C1A21435   9.003  32.207   8.550
 4779POPC   D2A21436   8.973  32.222   8.250
 4779POPC   C3A21437   9.012  32.200   7.950
 4779POPC   C4A21438   8.968  32.293   7.650
 4779POPC   C1B21439   9.155  32.424   8.550
 4779POPC   C2B21440   9.087  32.409   8.250
 4779POPC   C3B21441   9.139  32.460   7.950
 4779POPC   C4B21442   9.082  32.464   7.650
 4780POPC   NC321443  36.937  34.579   9.450
 4780POPC   PO421444  36.865  34.566   9.150
 4780POPC   GL121445  36.914  34.569   8.850
 4780POPC   GL221446  36.767  34.648   8.850
 4780POPC   C1A21447  36.892  34.551   8.550
 4780POPC   D2A21448  36.926  34.613   8.250
 4780POPC   C3A21449  36.914  34.530   7.950
 4780POPC   C4A21450  36.936  34.570   7.650
 4780POPC   C1B21451  36.709  34.760   8.550
 4780POPC   C2B21452  36.735  34.706   8.250
 4780POPC   C3B21453  36.694  34.724   7.950
 4780POPC   C4B21454  36.757  34.734   7.650
 4781POPC   NC321455  19.047   0.461   9.450
 4781POPC   PO421456  19.107   0.394   9.150
 4781POPC   GL121457  19.032   0.473   8.850
 4781POPC   GL221458  19.053   0.324   8.850
 4781POPC   C1A21459  19.026   0.398   8.550
 4781POPC   D2A21460  19.026   0.478   8.250
 4781POPC   C3A21461  19.066   0.436   7.950
 4781POPC   C4A21462  19.049   0.438   7.650
 4781POPC   C1B21463  19.075   0.222   8.550
 4781POPC   C2B21464  19.076   0.196   8.250
 4781POPC   C3B21465  19.101   0.211   7.950
 4781POPC   C4B21466  19.075   0.234   7.650
 4782POPC   NC321467   0.461  39.263   9.450
 4782POPC   PO421468   0.400  39.195   9.150
 4782POPC   GL121469   0.426  39.207   8.850
 4782POPC   GL221470   0.377  39.263   8.850
 4782POPC   C1A21471   0.435  39.262   8.550
 4782POPC   D2A21472   0.444  39.200   8.250
 4782POPC   C3A21473   0.467  39.260   7.950
 4782POPC   C4A21474   0.459  39.242   7.650
 4782POPC   C1B21475   0.221  39.366   8.550
 4782POPC   C2B21476   0.257  39.326   8.250
 4782POPC   C3B21477   0.188  39.305   7.950
 4782POPC   C4B21478   0.196  39.361   7.650
 4783POPC   NC321479  29.182  20.635   9.450
 4783POPC   PO421480  29.106  20.656   9.150
 4783POPC   GL121481  29.117  20.572   8.850
 4783POPC   GL221482  29.177  20.460   8.850
 4783POPC   C1A21483  29.139  20.630   8.550
 4783POPC   D2A21484  29.195  20.620   8.250
 4783POPC   C3A21485  29.142  20.609   7.950
 4783POPC   C4A21486  29.186  20.642   7.650
 4783POPC   C1B21487  29.141  20.387   8.550
 4783POPC   C2B21488  29.144  20.337   8.250
 4783POPC   C3B21489  29.129  20.401   7.950
 4783POPC   C4B21490  29.178  20.352   7.650
 4784POPC   NC321491  12.852   6.654   9.450
 4784POPC   PO421492  12.855   6.689   9.150
 4784POPC   GL121493  12.858   6.685   8.850
 4784POPC   GL221494  13.007   6.627   8.850
 4784POPC   C1A21495  12.866   6.638   8.550
 4784POPC   D2A21496  12.899   6.680   8.250
 4784POPC   C3A21497  12.815   6.689   7.950
 4784POPC   C4A21498  12.848   6.658   7.650
 4784POPC   C1B21499  13.071   6.615   8.550
 4784POPC   C2B21500  13.099   6.619   8.250
 4784POPC   C3B21501  13.102   6.626   7.950
 4784POPC   C4B21502  13.102   6.621   7.650
 4785POPC   NC321503  18.292  36.134   9.450
 4785POPC   PO421504  18.299  36.172   9.150
 4785POPC   GL121505  18.312  36.112   8.850
 4785POPC   GL221506  18.259  36.204   8.850
 4785POPC   C1A21507  18.268  36.083   8.550
 4785POPC   D2A21508  18.292  36.103   8.250
 4785POPC   C3A21509  18.263  36.148   7.950
 4785POPC   C4A21510  18.240  36.158   7.650
 4785POPC   C1B21511  18.269  36.407   8.550
 4785POPC   C2B21512  18.321  36.369   8.250
 4785POPC   C3B21513  18.296  36.380   7.950
 4785POPC   C4B21514  18.274  36.375   7.650
 4786POPC   NC321515  22.890  26.038   9.450
 4786POPC   PO421516  22.898  25.999   9.150
 4786POPC   GL121517  22.984  26.072   8.850
 4786POPC   GL221518  23.042  26.136   8.850
 4786POPC   C1A21519  22.978  26.005   8.550
 4786POPC   D2A21520  22.931  26.013   8.250
 4786POPC   C3A21521  22.949  26.062   7.950
 4786POPC   C4A21522  22.964  26.067   7.650
 4786POPC   C1B21523  23.083  26.218   8.550
 4786POPC   C2B21524  23.097  26.289   8.250
 4786POPC   C3B21525  23.106  26.293   7.950
 4786POPC   C4B21526  23.053  26.235   7.650
 4787POPC   NC321527  31.510   6.631   9.450
 4787POPC   PO421528  31.454   6.622   9.150
 4787POPC   GL121529  31.489   6.633   8.850
 4787POPC   GL221530  31.333   6.634   8.850
 4787POPC   C1A21531  31.499   6.637   8.550
 4787POPC   D2A21532  31.464   6.645   8.250
 4787POPC   C3A21533  31.509   6.603   7.950
 4787POPC   C4A21534  31.430   6.654   7.650
 4787POPC   C1B21535  31.240   6.577   8.550
 4787POPC   C2B21536  31.283   6.520   8.250
 4787POPC   C3B21537  31.208   6.488   7.950
 4787POPC   C4B21538  31.268   6.521   7.650
 4788POPC   NC321539  42.292  25.242   9.450
 4788POPC   PO421540  42.285  25.263   9.150
 4788POPC   GL121541  42.338  25.251   8.850
 4788POPC   GL221542  42.333  25.427   8.850
 4788POPC   C1A21543  42.352  25.230   8.550
 4788POPC   D2A21544  42.301  25.234   8.250
 4788POPC   C3A21545  42.349  25.268   7.950
 4788POPC   C4A21546  42.298  25.282   7.650
 4788POPC   C1B21547  42.265  25.519   8.550
 4788POPC   C2B21548  42.234  25.497   8.250
 4788POPC   C3B21549  42.252  25.462   7.950
 4788POPC   C4B21550  42.235  25.473   7.650
 4789POPC   NC321551  10.544   6.653   9.450
 4789POPC   PO421552  10.530   6.663   9.150
 4789POPC   GL121553  10.560   6.654   8.850
 4789POPC   GL221554  10.442   6.673   8.850
 4789POPC   C1A21555  10.530   6.629   8.550
 4789POPC   D2A21556  10.540   6.659   8.250
 4789POPC   C3A21557  10.532   6.603   7.950
 4789POPC   C4A21558  10.480   6.630   7.650
 4789POPC   C1B21559  10.351   6.786   8.550
 4789POPC   C2B21560  10.332   6.812   8.250
 4789POPC   C3B21561  10.365   6.821   7.950
 4789POPC   C4B21562  10.361   6.815   7.650
 4790POPC   NC321563  10.486   2.739   9.450
 4790POPC   PO421564  10.483   2.754   9.150
 4790POPC   GL121565  10.548   2.778   8.850
 4790POPC   GL221566  10.582   2.689   8.850
 4790POPC   C1A21567  10.541   2.743   8.550
 4790POPC   D2A21568  10.488   2.812   8.250
 4790POPC   C3A21569  10.512   2.748   7.950
 4790POPC   C4A21570  10.500   2.764   7.650
 4790POPC   C1B21571  10.608   2.480   8.550
 4790POPC   C2B21572  10.637   2.534   8.250
 4790POPC   C3B21573  10.552   2.538   7.950
 4790POPC   C4B21574  10.624   2.501   7.650
 4791POPC   NC321575  42.292   1.230   9.450
 4791POPC   PO421576  42.303   1.166   9.150
 4791POPC   GL121577  42.313   1.197   8.850
 4791POPC   GL221578  42.463   1.160   8.850
 4791POPC   C1A21579  42.363   1.173   8.550
 4791POPC   D2A21580  42.365   1.176   8.250
 4791POPC   C3A21581  42.306   1.263   7.950
 4791POPC   C4A21582  42.383   1.196   7.650
 4791POPC   C1B21583  42.520   1.027   8.550
 4791POPC   C2B21584  42.483   0.986   8.250
 4791POPC   C3B21585  42.514   1.061   7.950
 4791POPC   C4B21586  42.541   1.064   7.650
 4792POPC   NC321587   1.188   7.376   9.450
 4792POPC   PO421588   1.257   7.373   9.150
 4792POPC   GL121589   1.261   7.428   8.850
 4792POPC   GL221590   1.247   7.317   8.850
 4792POPC   C1A21591   1.244   7.383   8.550
 4792POPC   D2A21592   1.170   7.400   8.250
 4792POPC   C3A21593   1.213   7.376   7.950
 4792POPC   C4A21594   1.181   7.414   7.650
 4792POPC   C1B21595   1.162   7.217   8.550
 4792POPC   C2B21596   1.182   7.167   8.250
 4792POPC   C3B21597   1.168   7.198   7.950
 4792POPC   C4B21598   1.205   7.150   7.650
 4793POPC   NC321599  33.056  23.697   9.450
 4793POPC   PO421600  33.045  23.702   9.150
 4793POPC   GL121601  33.053  23.719   8.850
 4793POPC   GL221602  32.997  23.636   8.850
 4793POPC   C1A21603  33.061  23.691   8.550
 4793POPC   D2A21604  33.008  23.680   8.250
 4793POPC   C3A21605  32.986  23.726   7.950
 4793POPC   C4A21606  33.065  23.746   7.650
 4793POPC   C1B21607  32.979  23.487   8.550
 4793POPC   C2B21608  32.999  23.477   8.250
 4793POPC   C3B21609  32.958  23.458   7.950
 4793POPC   C4B21610  32.947  23.489   7.650
 4794POPC   NC321611  29.104  19.098   9.450
 4794POPC   PO421612  29.123  19.037   9.150
 4794POPC   GL121613  29.162  19.041   8.850
 4794POPC   GL221614  29.079  19.000   8.850
 4794POPC   C1A21615  29.106  19.027   8.550
 4794POPC   D2A21616  29.186  19.099   8.250
 4794POPC   C3A21617  29.135  19.024   7.950
 4794POPC   C4A21618  29.102  19.069   7.650
 4794POPC   C1B21619  28.973  18.952   8.550
 4794POPC   C2B21620  28.901  18.905   8.250
 4794POPC   C3B21621  28.966  18.970   7.950
 4794POPC   C4B21622  28.892  18.918   7.650
 4795POPC   NC321623  15.947  39.971   9.450
 4795POPC   PO421624  15.981  40.014   9.150
 4795POPC   GL121625  15.916  40.027   8.850
 4795POPC   GL221626  16.011  39.870   8.850
 4795POPC   C1A21627  15.986  39.966   8.550
 4795POPC   D2A21628  16.002  39.966   8.250
 4795POPC   C3A21629  15.962  40.015   7.950
 4795POPC   C4A21630  15.995  40.034   7.650
 4795POPC   C1B21631  16.007  39.776   8.550
 4795POPC   C2B21632  15.964  39.772   8.250
 4795POPC   C3B21633  16.039  39.767   7.950
 4795POPC   C4B21634  16.007  39.788   7.650
 4796POPC   NC321635  36.079  20.617   9.450
 4796POPC   PO421636  36.117  20.627   9.150
 4796POPC   GL121637  36.121  20.587   8.850
 4796POPC   GL221638  36.043  20.542   8.850
 4796POPC   C1A21639  36.128  20.596   8.550
 4796POPC   D2A21640  36.173  20.627   8.250
 4796POPC   C3A21641  36.108  20.636   7.950
 4796POPC   C4A21642  36.154  20.577   7.650
 4796POPC   C1B21643  36.036  20.416   8.550
 4796POPC   C2B21644  36.017  20.388   8.250
 4796POPC   C3B21645  36.025  20.424   7.950
 4796POPC   C4B21646  36.003  20.369   7.650
 4797POPC   NC321647  25.226  13.620   9.450
 4797POPC   PO421648  25.246  13.582   9.150
 4797POPC   GL121649  25.305  13.659   8.850
 4797POPC   GL221650  25.325  13.699   8.850
 4797POPC   C1A21651  25.309  13.642   8.550
 4797POPC   D2A21652  25.268  13.594   8.250
 4797POPC   C3A21653  25.243  13.580   7.950
 4797POPC   C4A21654  25.235  13.671   7.650
 4797POPC   C1B21655  25.368  13.837   8.550
 4797POPC   C2B21656  25.366  13.879   8.250
 4797POPC   C3B21657  25.384  13.863   7.950
 4797POPC   C4B21658  25.370  13.825   7.650
 4798POPC   NC321659  24.508  13.605   9.450
 4798POPC   PO421660  24.449  13.614   9.150
 4798POPC   GL121661  24.495  13.676   8.850
 4798POPC   GL221662  24.614  13.572   8.850
 4798POPC   C1A21663  24.520  13.603   8.550
 4798POPC   D2A21664  24.450  13.597   8.250
 4798POPC   C3A21665  24.453  13.629   7.950
 4798POPC   C4A21666  24.467  13.658   7.650
 4798POPC   C1B21667  24.740  13.589   8.550
 4798POPC   C2B21668  24.695  13.620   8.250
 4798POPC   C3B21669  24.774  13.592   7.950
 4798POPC   C4B21670  24.765  13.572   7.650
 4799POPC   NC321671   9.781   2.751   9.450
 4799POPC   PO421672   9.737   2.739   9.150
 4799POPC   GL121673   9.753   2.742   8.850
 4799POPC   GL221674   9.610   2.686   8.850
 4799POPC   C1A21675   9.777   2.735   8.550
 4799POPC   D2A21676   9.718   2.758   8.250
 4799POPC   C3A21677   9.757   2.800   7.950
 4799POPC   C4A21678   9.749   2.740   7.650
 4799POPC   C1B21679   9.518   2.661   8.550
 4799POPC   C2B21680   9.493   2.634   8.250
 4799POPC   C3B21681   9.473   2.652   7.950
 4799POPC   C4B21682   9.464   2.642   7.650
 4800POPC   NC321683   4.326  36.089   9.450
 4800POPC   PO421684   4.336  36.124   9.150
 4800POPC   GL121685   4.322  36.158   8.850
 4800POPC   GL221686   4.168  36.140   8.850
 4800POPC   C1A21687   4.281  36.159   8.550
 4800POPC   D2A21688   4.292  36.101   8.250
 4800POPC   C3A21689   4.337  36.121   7.950
 4800POPC   C4A21690   4.304  36.162   7.650
 4800POPC   C1B21691   4.071  36.188   8.550
 4800POPC   C2B21692   4.082  36.164   8.250
 4800POPC   C3B21693   4.104  36.169   7.950
 4800POPC   C4B21694   4.079  36.158   7.650
 4801POPC   NC321695  32.202  15.156   9.450
 4801POPC   PO421696  32.205  15.184   9.150
 4801POPC   GL121697  32.246  15.161   8.850
 4801POPC   GL221698  32.371  15.236   8.850
 4801POPC   C1A21699  32.235  15.203   8.550
 4801POPC   D2A21700  32.283  15.149   8.250
 4801POPC   C3A21701  32.286  15.168   7.950
 4801POPC   C4A21702  32.217  15.170   7.650
 4801POPC   C1B21703  32.534  15.215   8.550
 4801POPC   C2B21704  32.503  15.227   8.250
 4801POPC   C3B21705  32.526  15.238   7.950
 4801POPC   C4B21706  32.521  15.253   7.650
 4802POPC   NC321707   6.648  42.335   9.450
 4802POPC   PO421708   6.607  42.379   9.150
 4802POPC   GL121709   6.645  42.350   8.850
 4802POPC   GL221710   6.739  42.413   8.850
 4802POPC   C1A21711   6.607  42.351   8.550
 4802POPC   D2A21712   6.604  42.373   8.250
 4802POPC   C3A21713   6.690  42.298   7.950
 4802POPC   C4A21714   6.649  42.327   7.650
 4802POPC   C1B21715   6.796  42.560   8.550
 4802POPC   C2B21716   6.782  42.486   8.250
 4802POPC   C3B21717   6.811  42.465   7.950
 4802POPC   C4B21718   6.781  42.555   7.650
 4803POPC   NC321719  38.449  29.117   9.450
 4803POPC   PO421720  38.431  29.128   9.150
 4803POPC   GL121721  38.438  29.150   8.850
 4803POPC   GL221722  38.372  29.163   8.850
 4803POPC   C1A21723  38.495  29.115   8.550
 4803POPC   D2A21724  38.449  29.125   8.250
 4803POPC   C3A21725  38.458  29.099   7.950
 4803POPC   C4A21726  38.478  29.186   7.650
 4803POPC   C1B21727  38.242  29.119   8.550
 4803POPC   C2B21728  38.161  29.102   8.250
 4803POPC   C3B21729  38.163  29.106   7.950
 4803POPC   C4B21730  38.161  29.069   7.650
 4804POPC   NC321731  42.331  10.546   9.450
 4804POPC   PO421732  42.382  10.530   9.150
 4804POPC   GL121733  42.367  10.549   8.850
 4804POPC   GL221734  42.400  10.581   8.850
 4804POPC   C1A21735  42.332  10.548   8.550
 4804POPC   D2A21736  42.288  10.487   8.250
 4804POPC   C3A21737  42.358  10.548   7.950
 4804POPC   C4A21738  42.355  10.542   7.650
 4804POPC   C1B21739  42.559  10.737   8.550
 4804POPC   C2B21740  42.501  10.717   8.250
 4804POPC   C3B21741  42.546  10.652   7.950
 4804POPC   C4B21742  42.554  10.659   7.650
 4805POPC   NC321743  20.660   2.813   9.450
 4805POPC   PO421744  20.643   2.792   9.150
 4805POPC   GL121745  20.602   2.770   8.850
 4805POPC   GL221746  20.751   2.880   8.850
 4805POPC   C1A21747  20.644   2.753   8.550
 4805POPC   D2A21748  20.654   2.798   8.250
 4805POPC   C3A21749  20.658   2.732   7.950
 4805POPC   C4A21750  20.604   2.730   7.650
 4805POPC   C1B21751  20.826   2.914   8.550
 4805POPC   C2B21752  20.798   2.974   8.250
 4805POPC   C3B21753  20.845   2.916   7.950
 4805POPC   C4B21754  20.775   2.951   7.650
 4806POPC   NC321755   3.587  12.854   9.450
 4806POPC   PO421756   3.575  12.895   9.150
 4806POPC   GL121757   3.571  12.864   8.850
 4806POPC   GL221758   3.459  12.903   8.850
 4806POPC   C1A21759   3.492  12.900   8.550
 4806POPC   D2A21760   3.497  12.860   8.250
 4806POPC   C3A21761   3.586  12.883   7.950
 4806POPC   C4A21762   3.589  12.877   7.650
 4806POPC   C1B21763   3.313  12.876   8.550
 4806POPC   C2B21764   3.255  12.887   8.250
 4806POPC   C3B21765   3.259  12.847   7.950
 4806POPC   C4B21766   3.270  12.917   7.650
 4807POPC   NC321767  22.149  10.484   9.450
 4807POPC   PO421768  22.186  10.480   9.150
 4807POPC   GL121769  22.149  10.573   8.850
 4807POPC   GL221770  22.046  10.567   8.850
 4807POPC   C1A21771  22.185  10.537   8.550
 4807POPC   D2A21772  22.154  10.546   8.250
 4807POPC   C3A21773  22.168  10.528   7.950
 4807POPC   C4A21774  22.148  10.518   7.650
 4807POPC   C1B21775  21.892  10.546   8.550
 4807POPC   C2B21776  21.942  10.548   8.250
 4807POPC   C3B21777  21.893  10.557   7.950
 4807POPC   C4B21778  21.938  10.509   7.650
 4808POPC   NC321779  12.898  15.154   9.450
 4808POPC   PO421780  12.891  15.157   9.150
 4808POPC   GL121781  12.841  15.158   8.850
 4808POPC   GL221782  12.905  15.107   8.850
 4808POPC   C1A21783  12.858  15.186   8.550
 4808POPC   D2A21784  12.851  15.196   8.250
 4808POPC   C3A21785  12.822  15.162   7.950
 4808POPC   C4A21786  12.881  15.140   7.650
 4808POPC   C1B21787  12.979  14.930   8.550
 4808POPC   C2B21788  12.990  14.991   8.250
 4808POPC   C3B21789  13.003  14.939   7.950
 4808POPC   C4B21790  12.928  14.904   7.650
 4809POPC   NC321791  33.007   5.853   9.450
 4809POPC   PO421792  32.977   5.864   9.150
 4809POPC   GL121793  33.036   5.913   8.850
 4809POPC   GL221794  32.952   5.956   8.850
 4809POPC   C1A21795  33.042   5.887   8.550
 4809POPC   D2A21796  33.070   5.912   8.250
 4809POPC   C3A21797  32.994   5.842   7.950
 4809POPC   C4A21798  32.980   5.891   7.650
 4809POPC   C1B21799  32.853   5.993   8.550
 4809POPC   C2B21800  32.830   6.017   8.250
 4809POPC   C3B21801  32.791   6.048   7.950
 4809POPC   C4B21802  32.837   5.976   7.650
 4810POPC   NC321803  28.352  17.551   9.450
 4810POPC   PO421804  28.324  17.471   9.150
 4810POPC   GL121805  28.341  17.490   8.850
 4810POPC   GL221806  28.218  17.559   8.850
 4810POPC   C1A21807  28.391  17.534   8.550
 4810POPC   D2A21808  28.394  17.479   8.250
 4810POPC   C3A21809  28.414  17.457   7.950
 4810POPC   C4A21810  28.400  17.491   7.650
 4810POPC   C1B21811  28.158  17.583   8.550
 4810POPC   C2B21812  28.133  17.653   8.250
 4810POPC   C3B21813  28.093  17.604   7.950
 4810POPC   C4B21814  28.137  17.643   7.650
 4811POPC   NC321815  36.156  30.733   9.450
 4811POPC   PO421816  36.109  30.701   9.150
 4811POPC   GL121817  36.155  30.698   8.850
 4811POPC   GL221818  36.012  30.697   8.850
 4811POPC   C1A21819  36.088  30.706   8.550
 4811POPC   D2A21820  36.104  30.743   8.250
 4811POPC   C3A21821  36.172  30.694   7.950
 4811POPC   C4A21822  36.106  30.721   7.650
 4811POPC   C1B21823  35.917  30.763   8.550
 4811POPC   C2B21824  35.850  30.691   8.250
 4811POPC   C3B21825  35.888  30.695   7.950
 4811POPC   C4B21826  35.872  30.690   7.650
 4812POPC   NC321827  42.327  30.742   9.450
 4812POPC   PO421828  42.361  30.654   9.150
 4812POPC   GL121829  42.344  30.745   8.850
 4812POPC   GL221830  42.403  30.752   8.850
 4812POPC   C1A21831  42.305  30.739   8.550
 4812POPC   D2A21832  42.342  30.685   8.250
 4812POPC   C3A21833  42.301  30.744   7.950
 4812POPC   C4A21834  42.310  30.693   7.650
 4812POPC   C1B21835  42.595  30.830   8.550
 4812POPC   C2B21836  42.512  30.838   8.250
 4812POPC   C3B21837  42.589  30.794   7.950
 4812POPC   C4B21838  42.591  30.835   7.650
 4813POPC   NC321839  15.189   8.988   9.450
 4813POPC   PO421840  15.185   8.930   9.150
 4813POPC   GL121841  15.212   8.985   8.850
 4813POPC   GL221842  15.082   9.082   8.850
 4813POPC   C1A21843  15.184   8.983   8.550
 4813POPC   D2A21844  15.146   9.002   8.250
 4813POPC   C3A21845  15.206   8.996   7.950
 4813POPC   C4A21846  15.195   9.003   7.650
 4813POPC   C1B21847  15.059   9.215   8.550
 4813POPC   C2B21848  15.053   9.167   8.250
 4813POPC   C3B21849  15.059   9.138   7.950
 4813POPC   C4B21850  15.091   9.216   7.650
 4814POPC   NC321851  38.472  43.843   9.450
 4814POPC   PO421852  38.415  43.852   9.150
 4814POPC   GL121853  38.454  43.878   8.850
 4814POPC   GL221854  38.540  43.950   8.850
 4814POPC   C1A21855  38.466  43.866   8.550
 4814POPC   D2A21856  38.406  43.867   8.250
 4814POPC   C3A21857  38.445  43.866   7.950
 4814POPC   C4A21858  38.502  43.862   7.650
 4814POPC   C1B21859  38.657  43.926   8.550
 4814POPC   C2B21860  38.698  43.963   8.250
 4814POPC   C3B21861  38.730  43.951   7.950
 4814POPC   C4B21862  38.700  43.945   7.650
 4815POPC   NC321863  37.729  32.264   9.450
 4815POPC   PO421864  37.667  32.287   9.150
 4815POPC   GL121865  37.630  32.273   8.850
 4815POPC   GL221866  37.561  32.219   8.850
 4815POPC   C1A21867  37.703  32.232   8.550
 4815POPC   D2A21868  37.673  32.223   8.250
 4815POPC   C3A21869  37.662  32.243   7.950
 4815POPC   C4A21870  37.682  32.224   7.650
 4815POPC   C1B21871  37.418  32.289   8.550
 4815POPC   C2B21872  37.420  32.245   8.250
 4815POPC   C3B21873  37.402  32.276   7.950
 4815POPC   C4B21874  37.438  32.261   7.650
 4816POPC   NC321875  18.299  22.128   9.450
 4816POPC   PO421876  18.317  22.179   9.150
 4816POPC   GL121877  18.236  22.207   8.850
 4816POPC   GL221878  18.402  22.130   8.850
 4816POPC   C1A21879  18.264  22.154   8.550
 4816POPC   D2A21880  18.321  22.120   8.250
 4816POPC   C3A21881  18.261  22.211   7.950
 4816POPC   C4A21882  18.311  22.125   7.650
 4816POPC   C1B21883  18.530  22.074   8.550
 4816POPC   C2B21884  18.491  22.068   8.250
 4816POPC   C3B21885  18.543  22.102   7.950
 4816POPC   C4B21886  18.503  22.127   7.650
 4817POPC   NC321887  12.831   2.015   9.450
 4817POPC   PO421888  12.860   2.033   9.150
 4817POPC   GL121889  12.824   1.970   8.850
 4817POPC   GL221890  12.976   1.892   8.850
 4817POPC   C1A21891  12.848   1.993   8.550
 4817POPC   D2A21892  12.809   2.027   8.250
 4817POPC   C3A21893  12.901   1.991   7.950
 4817POPC   C4A21894  12.875   1.978   7.650
 4817POPC   C1B21895  13.117   1.902   8.550
 4817POPC   C2B21896  13.042   1.826   8.250
 4817POPC   C3B21897  13.062   1.891   7.950
 4817POPC   C4B21898  13.049   1.852   7.650
 4818POPC   NC321899  17.482  28.351   9.450
 4818POPC   PO421900  17.530  28.387   9.150
 4818POPC   GL121901  17.522  28.393   8.850
 4818POPC   GL221902  17.548  28.522   8.850
 4818POPC   C1A21903  17.543  28.359   8.550
 4818POPC   D2A21904  17.472  28.412   8.250
 4818POPC   C3A21905  17.484  28.417   7.950
 4818POPC   C4A21906  17.511  28.373   7.650
 4818POPC   C1B21907  17.590  28.573   8.550
 4818POPC   C2B21908  17.555  28.617   8.250
 4818POPC   C3B21909  17.531  28.642   7.950
 4818POPC   C4B21910  17.551  28.634   7.650
 4819POPC   NC321911  34.532  15.972   9.450
 4819POPC   PO421912  34.569  15.928   9.150
 4819POPC   GL121913  34.560  15.982   8.850
 4819POPC   GL221914  34.518  15.895   8.850
 4819POPC   C1A21915  34.526  15.932   8.550
 4819POPC   D2A21916  34.599  15.999   8.250
 4819POPC   C3A21917  34.547  15.934   7.950
 4819POPC   C4A21918  34.547  15.984   7.650
 4819POPC   C1B21919  34.355  15.790   8.550
 4819POPC   C2B21920  34.342  15.843   8.250
 4819POPC   C3B21921  34.367  15.850   7.950
 4819POPC   C4B21922  34.414  15.799   7.650
 4820POPC   NC321923  38.415  44.681   9.450
 4820POPC   PO421924  38.451  44.624   9.150
 4820POPC   GL121925  38.419  44.674   8.850
 4820POPC   GL221926  38.329  44.787   8.850
 4820POPC   C1A21927  38.474  44.640   8.550
 4820POPC   D2A21928  38.457  44.690   8.250
 4820POPC   C3A21929  38.442  44.644   7.950
 4820POPC   C4A21930  38.456  44.643   7.650
 4820POPC   C1B21931  38.286  44.854   8.550
 4820POPC   C2B21932  38.236  44.879   8.250
 4820POPC   C3B21933  38.312  44.797   7.950
 4820POPC   C4B21934  38.258  44.795   7.650
 4821POPC   NC321935  22.972  29.953   9.450
 4821POPC   PO421936  22.925  29.906   9.150
 4821POPC   GL121937  22.889  29.874   8.850
 4821POPC   GL221938  22.871  29.996   8.850
 4821POPC   C1A21939  22.953  29.898   8.550
 4821POPC   D2A21940  22.947  29.922   8.250
 4821POPC   C3A21941  22.953  29.896   7.950
 4821POPC   C4A21942  22.926  29.872   7.650
 4821POPC   C1B21943  22.776  30.112   8.550
 4821POPC   C2B21944  22.831  30.113   8.250
 4821POPC   C3B21945  22.788  30.136   7.950
 4821POPC   C4B21946  22.773  30.100   7.650
 4822POPC   NC321947   7.386   5.902   9.450
 4822POPC   PO421948   7.456   5.864   9.150
 4822POPC   GL121949   7.446   5.829   8.850
 4822POPC   GL221950   7.384   5.765   8.850
 4822POPC   C1A21951   7.421   5.892   8.550
 4822POPC   D2A21952   7.468   5.837   8.250
 4822POPC   C3A21953   7.376   5.894   7.950
 4822POPC   C4A21954   7.401   5.859   7.650
 4822POPC   C1B21955   7.323   5.632   8.550
 4822POPC   C2B21956   7.269   5.624   8.250
 4822POPC   C3B21957   7.269   5.638   7.950
 4822POPC   C4B21958   7.233   5.666   7.650
 4823POPC   NC321959  20.563  29.874   9.450
 4823POPC   PO421960  20.563  29.910   9.150
 4823POPC   GL121961  20.564  29.927   8.850
 4823POPC   GL221962  20.676  29.811   8.850
 4823POPC   C1A21963  20.627  29.953   8.550
 4823POPC   D2A21964  20.654  29.913   8.250
 4823POPC   C3A21965  20.574  29.892   7.950
 4823POPC   C4A21966  20.656  29.952   7.650
 4823POPC   C1B21967  20.710  29.727   8.550
 4823POPC   C2B21968  20.777  29.709   8.250
 4823POPC   C3B21969  20.762  29.675   7.950
 4823POPC   C4B21970  20.755  29.663   7.650
 4824POPC   NC321971  43.913  36.944   9.450
 4824POPC   PO421972  43.917  36.942   9.150
 4824POPC   GL121973  43.935  36.913   8.850
 4824POPC   GL221974  43.991  36.968   8.850
 4824POPC   C1A21975  43.923  36.889   8.550
 4824POPC   D2A21976  43.904  36.948   8.250
 4824POPC   C3A21977  43.923  36.872   7.950
 4824POPC   C4A21978  43.890  36.939   7.650
 4824POPC   C1B21979  44.035  37.133   8.550
 4824POPC   C2B21980  44.014  37.107   8.250
 4824POPC   C3B21981  44.050  37.093   7.950
 4824POPC   C4B21982  44.001  37.119   7.650
 4825POPC   NC321983  21.410  10.500   9.450
 4825POPC   PO421984  21.391  10.561   9.150
 4825POPC   GL121985  21.378  10.562   8.850
 4825POPC   GL221986  21.278  10.517   8.850
 4825POPC   C1A21987  21.415  10.544   8.550
 4825POPC   D2A21988  21.401  10.479   8.250
 4825POPC   C3A21989  21.370  10.547   7.950
 4825POPC   C4A21990  21.391  10.528   7.650
 4825POPC   C1B21991  21.160  10.394   8.550
 4825POPC   C2B21992  21.190  10.424   8.250
 4825POPC   C3B21993  21.195  10.468   7.950
 4825POPC   C4B21994  21.124  10.404   7.650
 4826POPC   NC321995  35.335  29.953   9.450
 4826POPC   PO421996  35.313  29.964   9.150
 4826POPC   GL121997  35.382  29.964   8.850
 4826POPC   GL221998  35.445  29.819   8.850
 4826POPC   C1A21999  35.359  29.903   8.550
 4826POPC   D2A22000  35.307  29.902   8.250
 4826POPC   C3A22001  35.307  29.873   7.950
 4826POPC   C4A22002  35.318  29.879   7.650
 4826POPC   C1B22003  35.590  29.785   8.550
 4826POPC   C2B22004  35.575  29.737   8.250
 4826POPC   C3B22005  35.598  29.756   7.950
 4826POPC   C4B22006  35.534  29.780   7.650
 4827POPC   NC322007  29.109  41.571   9.450
 4827POPC   PO422008  29.100  41.567   9.150
 4827POPC   GL122009  29.159  41.522   8.850
 4827POPC   GL222010  29.077  41.626   8.850
 4827POPC   C1A22011  29.191  41.595   8.550
 4827POPC   D2A22012  29.131  41.549   8.250
 4827POPC   C3A22013  29.192  41.509   7.950
 4827POPC   C4A22014  29.128  41.526   7.650
 4827POPC   C1B22015  28.970  41.740   8.550
 4827POPC   C2B22016  28.923  41.694   8.250
 4827POPC   C3B22017  28.922  41.682   7.950
 4827POPC   C4B22018  28.912  41.685   7.650
 4828POPC   NC322019  19.842  41.545   9.450
 4828POPC   PO422020  19.802  41.543   9.150
 4828POPC   GL122021  19.837  41.542   8.850
 4828POPC   GL222022  19.894  41.714   8.850
 4828POPC   C1A22023  19.822  41.536   8.550
 4828POPC   D2A22024  19.857  41.604   8.250
 4828POPC   C3A22025  19.879  41.594   7.950
 4828POPC   C4A22026  19.839  41.572   7.650
 4828POPC   C1B22027  19.827  41.821   8.550
 4828POPC   C2B22028  19.911  41.817   8.250
 4828POPC   C3B22029  19.829  41.783   7.950
 4828POPC   C4B22030  19.831  41.853   7.650
 4829POPC   NC322031  28.360  15.911   9.450
 4829POPC   PO422032  28.386  15.920   9.150
 4829POPC   GL122033  28.365  15.992   8.850
 4829POPC   GL222034  28.440  16.077   8.850
 4829POPC   C1A22035  28.347  15.989   8.550
 4829POPC   D2A22036  28.327  15.980   8.250
 4829POPC   C3A22037  28.409  15.941   7.950
 4829POPC   C4A22038  28.391  15.934   7.650
 4829POPC   C1B22039  28.426  16.174   8.550
 4829POPC   C2B22040  28.385  16.201   8.250
 4829POPC   C3B22041  28.454  16.243   7.950
 4829POPC   C4B22042  28.387  16.183   7.650
 4830POPC   NC322043  40.057   8.944   9.450
 4830POPC   PO422044  39.983   8.973   9.150
 4830POPC   GL122045  40.042   9.003   8.850
 4830POPC   GL222046  39.896   9.043   8.850
 4830POPC   C1A22047  40.029   8.949   8.550
 4830POPC   D2A22048  40.004   8.992   8.250
 4830POPC   C3A22049  40.036   9.014   7.950
 4830POPC   C4A22050  40.001   8.967   7.650
 4830POPC   C1B22051  39.808   9.134   8.550
 4830POPC   C2B22052  39.760   9.121   8.250
 4830POPC   C3B22053  39.829   9.086   7.950
 4830POPC   C4B22054  39.845   9.114   7.650
 4831POPC   NC322055  28.372  12.037   9.450
 4831POPC   PO422056  28.340  12.062   9.150
 4831POPC   GL122057  28.342  12.075   8.850
 4831POPC   GL222058  28.420  12.221   8.850
 4831POPC   C1A22059  28.389  12.108   8.550
 4831POPC   D2A22060  28.383  12.093   8.250
 4831POPC   C3A22061  28.419  12.099   7.950
 4831POPC   C4A22062  28.359  12.099   7.650
 4831POPC   C1B22063  28.460  12.358   8.550
 4831POPC   C2B22064  28.468  12.280   8.250
 4831POPC   C3B22065  28.394  12.327   7.950
 4831POPC   C4B22066  28.440  12.319   7.650
 4832POPC   NC322067   5.866  36.888   9.450
 4832POPC   PO422068   5.838  36.902   9.150
 4832POPC   GL122069   5.849  36.901   8.850
 4832POPC   GL222070   5.903  37.035   8.850
 4832POPC   C1A22071   5.895  36.869   8.550
 4832POPC   D2A22072   5.837  36.918   8.250
 4832POPC   C3A22073   5.909  36.856   7.950
 4832POPC   C4A22074   5.884  36.856   7.650
 4832POPC   C1B22075   5.850  37.106   8.550
 4832POPC   C2B22076   5.807  37.175   8.250
 4832POPC   C3B22077   5.891  37.200   7.950
 4832POPC   C4B22078   5.878  37.122   7.650
 4833POPC   NC322079  22.157   1.240   9.450
 4833POPC   PO422080  22.147   1.182   9.150
 4833POPC   GL122081  22.158   1.241   8.850
 4833POPC   GL222082  22.148   1.284   8.850
 4833POPC   C1A22083  22.187   1.188   8.550
 4833POPC   D2A22084  22.197   1.255   8.250
 4833POPC   C3A22085  22.184   1.263   7.950
 4833POPC   C4A22086  22.138   1.235   7.650
 4833POPC   C1B22087  22.054   1.422   8.550
 4833POPC   C2B22088  22.048   1.453   8.250
 4833POPC   C3B22089  22.049   1.452   7.950
 4833POPC   C4B22090  22.048   1.457   7.650
 4834POPC   NC322091   2.779  15.982   9.450
 4834POPC   PO422092   2.743  15.978   9.150
 4834POPC   GL122093   2.765  15.995   8.850
 4834POPC   GL222094   2.660  15.888   8.850
 4834POPC   C1A22095   2.790  15.972   8.550
 4834POPC   D2A22096   2.765  15.940   8.250
 4834POPC   C3A22097   2.717  15.913   7.950
 4834POPC   C4A22098   2.791  15.913   7.650
 4834POPC   C1B22099   2.584  15.747   8.550
 4834POPC   C2B22100   2.585  15.775   8.250
 4834POPC   C3B22101   2.631  15.776   7.950
 4834POPC   C4B22102   2.576  15.788   7.650
 4835POPC   NC322103  34.533  11.327   9.450
 4835POPC   PO422104  34.579  11.305   9.150
 4835POPC   GL122105  34.587  11.339   8.850
 4835POPC   GL222106  34.671  11.287   8.850
 4835POPC   C1A22107  34.550  11.286   8.550
 4835POPC   D2A22108  34.600  11.272   8.250
 4835POPC   C3A22109  34.526  11.266   7.950
 4835POPC   C4A22110  34.568  11.299   7.650
 4835POPC   C1B22111  34.786  11.338   8.550
 4835POPC   C2B22112  34.803  11.271   8.250
 4835POPC   C3B22113  34.845  11.322   7.950
 4835POPC   C4B22114  34.777  11.329   7.650
 4836POPC   NC322115  13.610   1.174   9.450
 4836POPC   PO422116  13.634   1.241   9.150
 4836POPC   GL122117  13.607   1.231   8.850
 4836POPC   GL222118  13.768   1.311   8.850
 4836POPC   C1A22119  13.635   1.195   8.550
 4836POPC   D2A22120  13.621   1.187   8.250
 4836POPC   C3A22121  13.579   1.182   7.950
 4836POPC   C4A22122  13.666   1.189   7.650
 4836POPC   C1B22123  13.818   1.290   8.550
 4836POPC   C2B22124  13.895   1.355   8.250
 4836POPC   C3B22125  13.844   1.325   7.950
 4836POPC   C4B22126  13.866   1.301   7.650
 4837POPC   NC322127  22.184  27.591   9.450
 4837POPC   PO422128  22.178  27.595   9.150
 4837POPC   GL122129  22.202  27.588   8.850
 4837POPC   GL222130  22.108  27.690   8.850
 4837POPC   C1A22131  22.133  27.545   8.550
 4837POPC   D2A22132  22.124  27.626   8.250
 4837POPC   C3A22133  22.201  27.580   7.950
 4837POPC   C4A22134  22.117  27.643   7.650
 4837POPC   C1B22135  22.039  27.749   8.550
 4837POPC   C2B22136  21.984  27.767   8.250
 4837POPC   C3B22137  21.995  27.843   7.950
 4837POPC   C4B22138  22.021  27.841   7.650
 4838POPC   NC322139  12.810   5.125   9.450
 4838POPC   PO422140  12.831   5.117   9.150
 4838POPC   GL122141  12.842   5.129   8.850
 4838POPC   GL222142  12.772   5.033   8.850
 4838POPC   C1A22143  12.880   5.073   8.550
 4838POPC   D2A22144  12.818   5.080   8.250
 4838POPC   C3A22145  12.819   5.142   7.950
 4838POPC   C4A22146  12.881   5.088   7.650
 4838POPC   C1B22147  12.649   5.066   8.550
 4838POPC   C2B22148  12.620   5.084   8.250
 4838POPC   C3B22149  12.622   5.026   7.950
 4838POPC   C4B22150  12.637   5.025   7.650
 4839POPC   NC322151  12.843   5.899   9.450
 4839POPC   PO422152  12.869   5.919   9.150
 4839POPC   GL122153  12.824   5.914   8.850
 4839POPC   GL222154  12.743   5.987   8.850
 4839POPC   C1A22155  12.896   5.828   8.550
 4839POPC   D2A22156  12.839   5.910   8.250
 4839POPC   C3A22157  12.824   5.905   7.950
 4839POPC   C4A22158  12.849   5.885   7.650
 4839POPC   C1B22159  12.756   6.090   8.550
 4839POPC   C2B22160  12.727   6.070   8.250
 4839POPC   C3B22161  12.772   6.098   7.950
 4839POPC   C4B22162  12.687   6.069   7.650
 4840POPC   NC322163  39.990  32.990   9.450
 4840POPC   PO422164  40.033  33.055   9.150
 4840POPC   GL122165  40.037  32.979   8.850
 4840POPC   GL222166  40.023  32.940   8.850
 4840POPC   C1A22167  39.971  33.025   8.550
 4840POPC   D2A22168  39.988  32.987   8.250
 4840POPC   C3A22169  39.995  33.073   7.950
 4840POPC   C4A22170  39.984  33.026   7.650
 4840POPC   C1B22171  39.918  32.784   8.550
 4840POPC   C2B22172  39.977  32.821   8.250
 4840POPC   C3B22173  39.916  32.825   7.950
 4840POPC   C4B22174  39.954  32.754   7.650
 4841POPC   NC322175  42.353  19.090   9.450
 4841POPC   PO422176  42.366  19.037   9.150
 4841POPC   GL122177  42.347  19.045   8.850
 4841POPC   GL222178  42.279  18.951   8.850
 4841POPC   C1A22179  42.378  19.103   8.550
 4841POPC   D2A22180  42.348  19.029   8.250
 4841POPC   C3A22181  42.362  19.057   7.950
 4841POPC   C4A22182  42.334  19.091   7.650
 4841POPC   C1B22183  42.224  18.910   8.550
 4841POPC   C2B22184  42.170  18.887   8.250
 4841POPC   C3B22185  42.206  18.878   7.950
 4841POPC   C4B22186  42.211  18.819   7.650
 4842POPC   NC322187   1.252   5.095   9.450
 4842POPC   PO422188   1.209   5.092   9.150
 4842POPC   GL122189   1.207   5.050   8.850
 4842POPC   GL222190   1.202   4.966   8.850
 4842POPC   C1A22191   1.171   5.126   8.550
 4842POPC   D2A22192   1.193   5.075   8.250
 4842POPC   C3A22193   1.194   5.107   7.950
 4842POPC   C4A22194   1.169   5.066   7.650
 4842POPC   C1B22195   1.135   4.879   8.550
 4842POPC   C2B22196   1.079   4.847   8.250
 4842POPC   C3B22197   1.142   4.828   7.950
 4842POPC   C4B22198   1.122   4.905   7.650
 4843POPC   NC322199   4.357  34.531   9.450
 4843POPC   PO422200   4.331  34.613   9.150
 4843POPC   GL122201   4.320  34.611   8.850
 4843POPC   GL222202   4.179  34.606   8.850
 4843POPC   C1A22203   4.277  34.529   8.550
 4843POPC   D2A22204   4.271  34.617   8.250
 4843POPC   C3A22205   4.366  34.549   7.950
 4843POPC   C4A22206   4.361  34.616   7.650
 4843POPC   C1B22207   4.088  34.627   8.550
 4843POPC   C2B22208   4.054  34.618   8.250
 4843POPC   C3B22209   4.097  34.668   7.950
 4843POPC   C4B22210   4.074  34.618   7.650
 4844POPC   NC322211  36.164   5.843   9.450
 4844POPC   PO422212  36.154   5.826   9.150
 4844POPC   GL122213  36.099   5.852   8.850
 4844POPC   GL222214  36.238   5.921   8.850
 4844POPC   C1A22215  36.103   5.846   8.550
 4844POPC   D2A22216  36.078   5.844   8.250
 4844POPC   C3A22217  36.160   5.913   7.950
 4844POPC   C4A22218  36.079   5.880   7.650
 4844POPC   C1B22219  36.360   5.896   8.550
 4844POPC   C2B22220  36.378   5.938   8.250
 4844POPC   C3B22221  36.375   5.956   7.950
 4844POPC   C4B22222  36.346   5.941   7.650
 4845POPC   NC322223   8.226  14.405   9.450
 4845POPC   PO422224   8.169  14.378   9.150
 4845POPC   GL122225   8.218  14.359   8.850
 4845POPC   GL222226   8.303  14.307   8.850
 4845POPC   C1A22227   8.209  14.428   8.550
 4845POPC   D2A22228   8.223  14.444   8.250
 4845POPC   C3A22229   8.195  14.416   7.950
 4845POPC   C4A22230   8.231  14.399   7.650
 4845POPC   C1B22231   8.348  14.270   8.550
 4845POPC   C2B22232   8.410  14.270   8.250
 4845POPC   C3B22233   8.369  14.254   7.950
 4845POPC   C4B22234   8.366  14.234   7.650
 4846POPC   NC322235   1.209  39.965   9.450
 4846POPC   PO422236   1.225  40.021   9.150
 4846POPC   GL122237   1.220  39.968   8.850
 4846POPC   GL222238   1.223  40.146   8.850
 4846POPC   C1A22239   1.246  40.025   8.550
 4846POPC   D2A22240   1.186  39.975   8.250
 4846POPC   C3A22241   1.199  40.014   7.950
 4846POPC   C4A22242   1.169  39.965   7.650
 4846POPC   C1B22243   1.185  40.259   8.550
 4846POPC   C2B22244   1.098  40.227   8.250
 4846POPC   C3B22245   1.097  40.197   7.950
 4846POPC   C4B22246   1.118  40.267   7.650
 4847POPC   NC322247  25.227  37.701   9.450
 4847POPC   PO422248  25.259  37.729   9.150
 4847POPC   GL122249  25.258  37.708   8.850
 4847POPC   GL222250  25.240  37.571   8.850
 4847POPC   C1A22251  25.225  37.635   8.550
 4847POPC   D2A22252  25.245  37.693   8.250
 4847POPC   C3A22253  25.223  37.726   7.950
 4847POPC   C4A22254  25.274  37.724   7.650
 4847POPC   C1B22255  25.201  37.445   8.550
 4847POPC   C2B22256  25.192  37.416   8.250
 4847POPC   C3B22257  25.138  37.418   7.950
 4847POPC   C4B22258  25.214  37.455   7.650
 4848POPC   NC322259  28.339  30.704   9.450
 4848POPC   PO422260  28.322  30.713   9.150
 4848POPC   GL122261  28.411  30.701   8.850
 4848POPC   GL222262  28.234  30.792   8.850
 4848POPC   C1A22263  28.341  30.745   8.550
 4848POPC   D2A22264  28.360  30.657   8.250
 4848POPC   C3A22265  28.340  30.733   7.950
 4848POPC   C4A22266  28.383  30.725   7.650
 4848POPC   C1B22267  28.206  30.811   8.550
 4848POPC   C2B22268  28.223  30.862   8.250
 4848POPC   C3B22269  28.160  30.889   7.950
 4848POPC   C4B22270  28.156  30.879   7.650
 4849POPC   NC322271  25.238  39.273   9.450
 4849POPC   PO422272  25.283  39.278   9.150
 4849POPC   GL122273  25.266  39.266   8.850
 4849POPC   GL222274  25.302  39.069   8.850
 4849POPC   C1A22275  25.248  39.269   8.550
 4849POPC   D2A22276  25.239  39.237   8.250
 4849POPC   C3A22277  25.228  39.278   7.950
 4849POPC   C4A22278  25.237  39.225   7.650
 4849POPC   C1B22279  25.270  38.982   8.550
 4849POPC   C2B22280  25.265  38.995   8.250
 4849POPC   C3B22281  25.280  38.972   7.950
 4849POPC   C4B22282  25.306  38.992   7.650
 4850POPC   NC322283   1.192  30.699   9.450
 4850POPC   PO422284   1.234  30.722   9.150
 4850POPC   GL122285   1.173  30.661   8.850
 4850POPC   GL222286   1.086  30.723   8.850
 4850POPC   C1A22287   1.236  30.740   8.550
 4850POPC   D2A22288   1.216  30.665   8.250
 4850POPC   C3A22289   1.230  30.730   7.950
 4850POPC   C4A22290   1.244  30.712   7.650
 4850POPC   C1B22291   0.915  30.735   8.550
 4850POPC   C2B22292   0.944  30.715   8.250
 4850POPC   C3B22293   0.997  30.664   7.950
 4850POPC   C4B22294   0.990  30.697   7.650
 4851POPC   NC322295  29.948  32.294   9.450
 4851POPC   PO422296  29.969  32.239   9.150
 4851POPC   GL122297  29.940  32.291   8.850
 4851POPC   GL222298  29.840  32.123   8.850
 4851POPC   C1A22299  29.889  32.251   8.550
 4851POPC   D2A22300  29.947  32.228   8.250
 4851POPC   C3A22301  29.944  32.221   7.950
 4851POPC   C4A22302  29.940  32.291   7.650
 4851POPC   C1B22303  29.713  32.055   8.550
 4851POPC   C2B22304  29.725  32.023   8.250
 4851POPC   C3B22305  29.797  32.074   7.950
 4851POPC   C4B22306  29.801  32.097   7.650
 4852POPC   NC322307  22.935  11.339   9.450
 4852POPC   PO422308  22.907  11.320   9.150
 4852POPC   GL122309  22.974  11.260   8.850
 4852POPC   GL222310  23.045  11.210   8.850
 4852POPC   C1A22311  22.937  11.320   8.550
 4852POPC   D2A22312  22.951  11.250   8.250
 4852POPC   C3A22313  22.968  11.262   7.950
 4852POPC   C4A22314  22.976  11.339   7.650
 4852POPC   C1B22315  23.137  11.218   8.550
 4852POPC   C2B22316  23.142  11.185   8.250
 4852POPC   C3B22317  23.138  11.236   7.950
 4852POPC   C4B22318  23.166  11.203   7.650
 4853POPC   NC322319  14.411   3.575   9.450
 4853POPC   PO422320  14.400   3.591   9.150
 4853POPC   GL122321  14.397   3.582   8.850
 4853POPC   GL222322  14.428   3.662   8.850
 4853POPC   C1A22323  14.391   3.546   8.550
 4853POPC   D2A22324  14.395   3.499   8.250
 4853POPC   C3A22325  14.413   3.584   7.950
 4853POPC   C4A22326  14.370   3.495   7.650
 4853POPC   C1B22327  14.503   3.736   8.550
 4853POPC   C2B22328  14.528   3.714   8.250
 4853POPC   C3B22329  14.504   3.762   7.950
 4853POPC   C4B22330  14.490   3.732   7.650
 4854POPC   NC322331  11.277  41.574   9.450
 4854POPC   PO422332  11.300  41.554   9.150
 4854POPC   GL122333  11.287  41.532   8.850
 4854POPC   GL222334  11.181  41.477   8.850
 4854POPC   C1A22335  11.260  41.607   8.550
 4854POPC   D2A22336  11.277  41.509   8.250
 4854POPC   C3A22337  11.267  41.530   7.950
 4854POPC   C4A22338  11.268  41.584   7.650
 4854POPC   C1B22339  11.096  41.474   8.550
 4854POPC   C2B22340  11.063  41.460   8.250
 4854POPC   C3B22341  11.063  41.441   7.950
 4854POPC   C4B22342  11.040  41.466   7.650
 4855POPC   NC322343   5.100  41.604   9.450
 4855POPC   PO422344   5.071  41.597   9.150
 4855POPC   GL122345   5.098  41.563   8.850
 4855POPC   GL222346   5.246  41.574   8.850
 4855POPC   C1A22347   5.139  41.525   8.550
 4855POPC   D2A22348   5.059  41.514   8.250
 4855POPC   C3A22349   5.044  41.534   7.950
 4855POPC   C4A22350   5.138  41.572   7.650
 4855POPC   C1B22351   5.369  41.582   8.550
 4855POPC   C2B22352   5.383  41.560   8.250
 4855POPC   C3B22353   5.308  41.531   7.950
 4855POPC   C4B22354   5.306  41.520   7.650
 4856POPC   NC322355  24.478   6.654   9.450
 4856POPC   PO422356  24.442   6.613   9.150
 4856POPC   GL122357  24.446   6.599   8.850
 4856POPC   GL222358  24.528   6.789   8.850
 4856POPC   C1A22359  24.444   6.688   8.550
 4856POPC   D2A22360  24.499   6.632   8.250
 4856POPC   C3A22361  24.479   6.638   7.950
 4856POPC   C4A22362  24.486   6.692   7.650
 4856POPC   C1B22363  24.495   6.901   8.550
 4856POPC   C2B22364  24.448   6.895   8.250
 4856POPC   C3B22365  24.458   6.931   7.950
 4856POPC   C4B22366  24.454   6.924   7.650
 4857POPC   NC322367  37.675  12.877   9.450
 4857POPC   PO422368  37.689  12.848   9.150
 4857POPC   GL122369  37.671  12.885   8.850
 4857POPC   GL222370  37.681  12.930   8.850
 4857POPC   C1A22371  37.674  12.881   8.550
 4857POPC   D2A22372  37.647  12.844   8.250
 4857POPC   C3A22373  37.683  12.802   7.950
 4857POPC   C4A22374  37.672  12.872   7.650
 4857POPC   C1B22375  37.596  13.055   8.550
 4857POPC   C2B22376  37.568  13.114   8.250
 4857POPC   C3B22377  37.620  13.136   7.950
 4857POPC   C4B22378  37.636  13.107   7.650
 4858POPC   NC322379  19.023  39.201   9.450
 4858POPC   PO422380  19.084  39.223   9.150
 4858POPC   GL122381  19.010  39.227   8.850
 4858POPC   GL222382  19.149  39.257   8.850
 4858POPC   C1A22383  19.033  39.262   8.550
 4858POPC   D2A22384  19.106  39.229   8.250
 4858POPC   C3A22385  19.031  39.199   7.950
 4858POPC   C4A22386  19.064  39.203   7.650
 4858POPC   C1B22387  19.282  39.274   8.550
 4858POPC   C2B22388  19.263  39.325   8.250
 4858POPC   C3B22389  19.343  39.317   7.950
 4858POPC   C4B22390  19.342  39.323   7.650
 4859POPC   NC322391  22.165  14.446   9.450
 4859POPC   PO422392  22.198  14.430   9.150
 4859POPC   GL122393  22.161  14.417   8.850
 4859POPC   GL222394  22.178  14.559   8.850
 4859POPC   C1A22395  22.209  14.423   8.550
 4859POPC   D2A22396  22.161  14.371   8.250
 4859POPC   C3A22397  22.203  14.417   7.950
 4859POPC   C4A22398  22.165  14.355   7.650
 4859POPC   C1B22399  22.245  14.615   8.550
 4859POPC   C2B22400  22.187  14.696   8.250
 4859POPC   C3B22401  22.180  14.624   7.950
 4859POPC   C4B22402  22.240  14.645   7.650
 4860POPC   NC322403   5.107  29.124   9.450
 4860POPC   PO422404   5.083  29.170   9.150
 4860POPC   GL122405   5.130  29.181   8.850
 4860POPC   GL222406   4.959  29.098   8.850
 4860POPC   C1A22407   5.091  29.180   8.550
 4860POPC   D2A22408   5.049  29.176   8.250
 4860POPC   C3A22409   5.114  29.173   7.950
 4860POPC   C4A22410   5.086  29.124   7.650
 4860POPC   C1B22411   4.833  29.113   8.550
 4860POPC   C2B22412   4.800  29.180   8.250
 4860POPC   C3B22413   4.872  29.143   7.950
 4860POPC   C4B22414   4.867  29.187   7.650
 4861POPC   NC322415  22.182   8.964   9.450
 4861POPC   PO422416  22.134   8.974   9.150
 4861POPC   GL122417  22.147   8.991   8.850
 4861POPC   GL222418  22.063   9.010   8.850
 4861POPC   C1A22419  22.125   9.006   8.550
 4861POPC   D2A22420  22.151   9.019   8.250
 4861POPC   C3A22421  22.200   8.966   7.950
 4861POPC   C4A22422  22.186   8.999   7.650
 4861POPC   C1B22423  21.966   9.023   8.550
 4861POPC   C2B22424  21.917   9.040   8.250
 4861POPC   C3B22425  21.919   9.041   7.950
 4861POPC   C4B22426  21.934   9.028   7.650
 4862POPC   NC322427   6.641  36.093   9.450
 4862POPC   PO422428   6.658  36.168   9.150
 4862POPC   GL122429   6.647  36.165   8.850
 4862POPC   GL222430   6.694  36.268   8.850
 4862POPC   C1A22431   6.645  36.092   8.550
 4862POPC   D2A22432   6.681  36.172   8.250
 4862POPC   C3A22433   6.622  36.166   7.950
 4862POPC   C4A22434   6.605  36.133   7.650
 4862POPC   C1B22435   6.670  36.425   8.550
 4862POPC   C2B22436   6.685  36.393   8.250
 4862POPC   C3B22437   6.644  36.395   7.950
 4862POPC   C4B22438   6.644  36.393   7.650
 4863POPC   NC322439  12.863  12.065   9.450
 4863POPC   PO422440  12.892  12.038   9.150
 4863POPC   GL122441  12.867  12.028   8.850
 4863POPC   GL222442  12.711  12.179   8.850
 4863POPC   C1A22443  12.842  12.119   8.550
 4863POPC   D2A22444  12.847  12.114   8.250
 4863POPC   C3A22445  12.857  12.076   7.950
 4863POPC   C4A22446  12.889  12.076   7.650
 4863POPC   C1B22447  12.692  12.232   8.550
 4863POPC   C2B22448  12.622  12.208   8.250
 4863POPC   C3B22449  12.646  12.282   7.950
 4863POPC   C4B22450  12.690  12.221   7.650
 4864POPC   NC322451  26.046   1.190   9.450
 4864POPC   PO422452  26.062   1.202   9.150
 4864POPC   GL122453  26.043   1.218   8.850
 4864POPC   GL222454  26.097   1.307   8.850
 4864POPC   C1A22455  26.018   1.215   8.550
 4864POPC   D2A22456  26.065   1.251   8.250
 4864POPC   C3A22457  26.050   1.217   7.950
 4864POPC   C4A22458  26.065   1.172   7.650
 4864POPC   C1B22459  26.213   1.395   8.550
 4864POPC   C2B22460  26.161   1.448   8.250
 4864POPC   C3B22461  26.143   1.442   7.950
 4864POPC   C4B22462  26.169   1.382   7.650
 4865POPC   NC322463   0.394  30.674   9.450
 4865POPC   PO422464   0.440  30.689   9.150
 4865POPC   GL122465   0.458  30.736   8.850
 4865POPC   GL222466   0.310  30.597   8.850
 4865POPC   C1A22467   0.413  30.709   8.550
 4865POPC   D2A22468   0.466  30.649   8.250
 4865POPC   C3A22469   0.399  30.746   7.950
 4865POPC   C4A22470   0.418  30.655   7.650
 4865POPC   C1B22471   0.260  30.492   8.550
 4865POPC   C2B22472   0.226  30.513   8.250
 4865POPC   C3B22473   0.306  30.502   7.950
 4865POPC   C4B22474   0.265  30.546   7.650
 4866POPC   NC322475  26.810  32.235   9.450
 4866POPC   PO422476  26.803  32.262   9.150
 4866POPC   GL122477  26.772  32.257   8.850
 4866POPC   GL222478  26.895  32.247   8.850
 4866POPC   C1A22479  26.826  32.216   8.550
 4866POPC   D2A22480  26.851  32.265   8.250
 4866POPC   C3A22481  26.826  32.264   7.950
 4866POPC   C4A22482  26.806  32.287   7.650
 4866POPC   C1B22483  27.084  32.162   8.550
 4866POPC   C2B22484  27.086  32.143   8.250
 4866POPC   C3B22485  27.088  32.185   7.950
 4866POPC   C4B22486  27.042  32.136   7.650
 4867POPC   NC322487  24.528  36.122   9.450
 4867POPC   PO422488  24.517  36.088   9.150
 4867POPC   GL122489  24.451  36.131   8.850
 4867POPC   GL222490  24.420  36.043   8.850
 4867POPC   C1A22491  24.441  36.129   8.550
 4867POPC   D2A22492  24.466  36.081   8.250
 4867POPC   C3A22493  24.528  36.110   7.950
 4867POPC   C4A22494  24.512  36.082   7.650
 4867POPC   C1B22495  24.339  35.933   8.550
 4867POPC   C2B22496  24.312  35.972   8.250
 4867POPC   C3B22497  24.278  35.991   7.950
 4867POPC   C4B22498  24.272  35.930   7.650
 4868POPC   NC322499   9.767  38.456   9.450
 4868POPC   PO422500   9.744  38.503   9.150
 4868POPC   GL122501   9.729  38.442   8.850
 4868POPC   GL222502   9.664  38.344   8.850
 4868POPC   C1A22503   9.764  38.440   8.550
 4868POPC   D2A22504   9.702  38.440   8.250
 4868POPC   C3A22505   9.767  38.436   7.950
 4868POPC   C4A22506   9.725  38.410   7.650
 4868POPC   C1B22507   9.575  38.280   8.550
 4868POPC   C2B22508   9.625  38.303   8.250
 4868POPC   C3B22509   9.546  38.298   7.950
 4868POPC   C4B22510   9.583  38.254   7.650
 4869POPC   NC322511  21.403  30.718   9.450
 4869POPC   PO422512  21.418  30.660   9.150
 4869POPC   GL122513  21.414  30.721   8.850
 4869POPC   GL222514  21.280  30.758   8.850
 4869POPC   C1A22515  21.365  30.660   8.550
 4869POPC   D2A22516  21.374  30.703   8.250
 4869POPC   C3A22517  21.360  30.669   7.950
 4869POPC   C4A22518  21.373  30.728   7.650
 4869POPC   C1B22519  21.238  30.834   8.550
 4869POPC   C2B22520  21.192  30.868   8.250
 4869POPC   C3B22521  21.253  30.899   7.950
 4869POPC   C4B22522  21.242  30.875   7.650
 4870POPC   NC322523  33.011  29.902   9.450
 4870POPC   PO422524  33.072  29.946   9.150
 4870POPC   GL122525  33.065  29.916   8.850
 4870POPC   GL222526  33.109  29.966   8.850
 4870POPC   C1A22527  33.020  29.949   8.550
 4870POPC   D2A22528  33.061  29.894   8.250
 4870POPC   C3A22529  33.068  29.927   7.950
 4870POPC   C4A22530  32.990  29.916   7.650
 4870POPC   C1B22531  33.159  30.123   8.550
 4870POPC   C2B22532  33.159  30.139   8.250
 4870POPC   C3B22533  33.211  30.117   7.950
 4870POPC   C4B22534  33.197  30.062   7.650
 4871POPC   NC322535  38.478  24.532   9.450
 4871POPC   PO422536  38.490  24.503   9.150
 4871POPC   GL122537  38.426  24.488   8.850
 4871POPC   GL222538  38.374  24.495   8.850
 4871POPC   C1A22539  38.438  24.480   8.550
 4871POPC   D2A22540  38.460  24.463   8.250
 4871POPC   C3A22541  38.411  24.478   7.950
 4871POPC   C4A22542  38.429  24.511   7.650
 4871POPC   C1B22543  38.204  24.615   8.550
 4871POPC   C2B22544  38.273  24.571   8.250
 4871POPC   C3B22545  38.231  24.577   7.950
 4871POPC   C4B22546  38.241  24.546   7.650
 4872POPC   NC322547  42.328  15.996   9.450
 4872POPC   PO422548  42.310  15.996   9.150
 4872POPC   GL122549  42.376  15.979   8.850
 4872POPC   GL222550  42.246  16.082   8.850
 4872POPC   C1A22551  42.351  15.919   8.550
 4872POPC   D2A22552  42.342  15.944   8.250
 4872POPC   C3A22553  42.321  15.994   7.950
 4872POPC   C4A22554  42.287  15.976   7.650
 4872POPC   C1B22555  42.236  16.135   8.550
 4872POPC   C2B22556  42.209  16.169   8.250
 4872POPC   C3B22557  42.217  16.172   7.950
 4872POPC   C4B22558  42.250  16.150   7.650
 4873POPC   NC322559  32.243  27.597   9.450
 4873POPC   PO422560  32.289  27.601   9.150
 4873POPC   GL122561  32.278  27.603   8.850
 4873POPC   GL222562  32.388  27.542   8.850
 4873POPC   C1A22563  32.215  27.639   8.550
 4873POPC   D2A22564  32.231  27.633   8.250
 4873POPC   C3A22565  32.252  27.611   7.950
 4873POPC   C4A22566  32.253  27.643   7.650
 4873POPC   C1B22567  32.439  27.426   8.550
 4873POPC   C2B22568  32.402  27.465   8.250
 4873POPC   C3B22569  32.404  27.441   7.950
 4873POPC   C4B22570  32.474  27.455   7.650
 4874POPC   NC322571  40.795  44.630   9.450
 4874POPC   PO422572  40.831  44.684   9.150
 4874POPC   GL122573  40.821  44.671   8.850
 4874POPC   GL222574  40.745  44.754   8.850
 4874POPC   C1A22575  40.833  44.702   8.550
 4874POPC   D2A22576  40.786  44.685   8.250
 4874POPC   C3A22577  40.826  44.684   7.950
 4874POPC   C4A22578  40.815  44.629   7.650
 4874POPC   C1B22579  40.697  44.902   8.550
 4874POPC   C2B22580  40.648  44.892   8.250
 4874POPC   C3B22581  40.708  44.897   7.950
 4874POPC   C4B22582  40.696  44.842   7.650
 4875POPC   NC322583  11.292  32.262   9.450
 4875POPC   PO422584  11.251  32.200   9.150
 4875POPC   GL122585  11.251  32.289   8.850
 4875POPC   GL222586  11.376  32.288   8.850
 4875POPC   C1A22587  11.317  32.213   8.550
 4875POPC   D2A22588  11.314  32.232   8.250
 4875POPC   C3A22589  11.347  32.199   7.950
 4875POPC   C4A22590  11.349  32.223   7.650
 4875POPC   C1B22591  11.501  32.340   8.550
 4875POPC   C2B22592  11.522  32.312   8.250
 4875POPC   C3B22593  11.571  32.371   7.950
 4875POPC   C4B22594  11.488  32.366   7.650
 4876POPC   NC322595  33.846  39.270   9.450
 4876POPC   PO422596  33.790  39.182   9.150
 4876POPC   GL122597  33.764  39.244   8.850
 4876POPC   GL222598  33.728  39.314   8.850
 4876POPC   C1A22599  33.770  39.275   8.550
 4876POPC   D2A22600  33.833  39.183   8.250
 4876POPC   C3A22601  33.844  39.190   7.950
 4876POPC   C4A22602  33.758  39.204   7.650
 4876POPC   C1B22603  33.570  39.319   8.550
 4876POPC   C2B22604  33.520  39.339   8.250
 4876POPC   C3B22605  33.593  39.316   7.950
 4876POPC   C4B22606  33.530  39.328   7.650
 4877POPC   NC322607   5.902  23.728   9.450
 4877POPC   PO422608   5.890  23.687   9.150
 4877POPC   GL122609   5.888  23.752   8.850
 4877POPC   GL222610   5.959  23.844   8.850
 4877POPC   C1A22611   5.917  23.719   8.550
 4877POPC   D2A22612   5.911  23.722   8.250
 4877POPC   C3A22613   5.884  23.665   7.950
 4877POPC   C4A22614   5.913  23.762   7.650
 4877POPC   C1B22615   5.951  23.957   8.550
 4877POPC   C2B22616   6.024  23.925   8.250
 4877POPC   C3B22617   5.941  23.952   7.950
 4877POPC   C4B22618   6.015  23.925   7.650
 4878POPC   NC322619   9.768  19.095   9.450
 4878POPC   PO422620   9.724  19.048   9.150
 4878POPC   GL122621   9.719  19.106   8.850
 4878POPC   GL222622   9.823  18.907   8.850
 4878POPC   C1A22623   9.698  19.029   8.550
 4878POPC   D2A22624   9.704  19.047   8.250
 4878POPC   C3A22625   9.715  19.071   7.950
 4878POPC   C4A22626   9.775  19.063   7.650
 4878POPC   C1B22627   9.789  18.775   8.550
 4878POPC   C2B22628   9.846  18.812   8.250
 4878POPC   C3B22629   9.804  18.782   7.950
 4878POPC   C4B22630   9.805  18.855   7.650
 4879POPC   NC322631  15.979  43.865   9.450
 4879POPC   PO422632  15.992  43.880   9.150
 4879POPC   GL122633  15.931  43.861   8.850
 4879POPC   GL222634  16.049  43.902   8.850
 4879POPC   C1A22635  15.928  43.846   8.550
 4879POPC   D2A22636  15.973  43.861   8.250
 4879POPC   C3A22637  15.985  43.903   7.950
 4879POPC   C4A22638  15.921  43.928   7.650
 4879POPC   C1B22639  16.173  43.920   8.550
 4879POPC   C2B22640  16.175  43.893   8.250
 4879POPC   C3B22641  16.203  43.969   7.950
 4879POPC   C4B22642  16.206  43.938   7.650
 4880POPC   NC322643   1.973  15.140   9.450
 4880POPC   PO422644   2.023  15.131   9.150
 4880POPC   GL122645   1.991  15.177   8.850
 4880POPC   GL222646   1.884  15.227   8.850
 4880POPC   C1A22647   2.022  15.214   8.550
 4880POPC   D2A22648   2.001  15.205   8.250
 4880POPC   C3A22649   1.943  15.184   7.950
 4880POPC   C4A22650   2.024  15.228   7.650
 4880POPC   C1B22651   1.774  15.313   8.550
 4880POPC   C2B22652   1.809  15.296   8.250
 4880POPC   C3B22653   1.801  15.273   7.950
 4880POPC   C4B22654   1.749  15.233   7.650
 4881POPC   NC322655  30.743  22.947   9.450
 4881POPC   PO422656  30.674  22.915   9.150
 4881POPC   GL122657  30.684  22.974   8.850
 4881POPC   GL222658  30.706  22.864   8.850
 4881POPC   C1A22659  30.669  22.975   8.550
 4881POPC   D2A22660  30.683  22.946   8.250
 4881POPC   C3A22661  30.731  22.931   7.950
 4881POPC   C4A22662  30.700  22.922   7.650
 4881POPC   C1B22663  30.603  22.716   8.550
 4881POPC   C2B22664  30.621  22.713   8.250
 4881POPC   C3B22665  30.649  22.681   7.950
 4881POPC   C4B22666  30.611  22.681   7.650
 4882POPC   NC322667  37.695  15.137   9.450
 4882POPC   PO422668  37.706  15.229   9.150
 4882POPC   GL122669  37.646  15.193   8.850
 4882POPC   GL222670  37.534  15.135   8.850
 4882POPC   C1A22671  37.663  15.203   8.550
 4882POPC   D2A22672  37.711  15.162   8.250
 4882POPC   C3A22673  37.638  15.184   7.950
 4882POPC   C4A22674  37.664  15.140   7.650
 4882POPC   C1B22675  37.457  15.152   8.550
 4882POPC   C2B22676  37.414  15.231   8.250
 4882POPC   C3B22677  37.450  15.222   7.950
 4882POPC   C4B22678  37.457  15.211   7.650
 4883POPC   NC322679   2.763   2.758   9.450
 4883POPC   PO422680   2.790   2.731   9.150
 4883POPC   GL122681   2.757   2.730   8.850
 4883POPC   GL222682   2.884   2.677   8.850
 4883POPC   C1A22683   2.789   2.721   8.550
 4883POPC   D2A22684   2.726   2.744   8.250
 4883POPC   C3A22685   2.720   2.752   7.950
 4883POPC   C4A22686   2.805   2.813   7.650
 4883POPC   C1B22687   2.929   2.626   8.550
 4883POPC   C2B22688   2.923   2.607   8.250
 4883POPC   C3B22689   2.996   2.586   7.950
 4883POPC   C4B22690   2.966   2.582   7.650
 4884POPC   NC322691  29.880  40.012   9.450
 4884POPC   PO422692  29.928  39.977   9.150
 4884POPC   GL122693  29.878  40.049   8.850
 4884POPC   GL222694  29.955  40.145   8.850
 4884POPC   C1A22695  29.943  40.024   8.550
 4884POPC   D2A22696  29.875  39.978   8.250
 4884POPC   C3A22697  29.959  40.004   7.950
 4884POPC   C4A22698  29.887  40.043   7.650
 4884POPC   C1B22699  29.929  40.285   8.550
 4884POPC   C2B22700  29.959  40.244   8.250
 4884POPC   C3B22701  29.925  40.294   7.950
 4884POPC   C4B22702  29.955  40.287   7.650
 4885POPC   NC322703  12.086  19.835   9.450
 4885POPC   PO422704  12.106  19.835   9.150
 4885POPC   GL122705  12.096  19.809   8.850
 4885POPC   GL222706  12.040  19.917   8.850
 4885POPC   C1A22707  12.101  19.836   8.550
 4885POPC   D2A22708  12.122  19.843   8.250
 4885POPC   C3A22709  12.040  19.852   7.950
 4885POPC   C4A22710  12.088  19.796   7.650
 4885POPC   C1B22711  12.019  20.092   8.550
 4885POPC   C2B22712  12.022  20.024   8.250
 4885POPC   C3B22713  11.943  20.033   7.950
 4885POPC   C4B22714  11.972  20.099   7.650
 4886POPC   NC322715  23.725  43.101   9.450
 4886POPC   PO422716  23.743  43.138   9.150
 4886POPC   GL122717  23.704  43.065   8.850
 4886POPC   GL222718  23.613  43.211   8.850
 4886POPC   C1A22719  23.708  43.159   8.550
 4886POPC   D2A22720  23.731  43.061   8.250
 4886POPC   C3A22721  23.714  43.105   7.950
 4886POPC   C4A22722  23.761  43.106   7.650
 4886POPC   C1B22723  23.643  43.287   8.550
 4886POPC   C2B22724  23.585  43.309   8.250
 4886POPC   C3B22725  23.595  43.377   7.950
 4886POPC   C4B22726  23.587  43.375   7.650
 4887POPC   NC322727  13.580  24.481   9.450
 4887POPC   PO422728  13.613  24.462   9.150
 4887POPC   GL122729  13.630  24.455   8.850
 4887POPC   GL222730  13.705  24.468   8.850
 4887POPC   C1A22731  13.621  24.451   8.550
 4887POPC   D2A22732  13.598  24.530   8.250
 4887POPC   C3A22733  13.586  24.514   7.950
 4887POPC   C4A22734  13.630  24.472   7.650
 4887POPC   C1B22735  13.863  24.318   8.550
 4887POPC   C2B22736  13.811  24.349   8.250
 4887POPC   C3B22737  13.827  24.332   7.950
 4887POPC   C4B22738  13.815  24.395   7.650
 4888POPC   NC322739  41.511  18.310   9.450
 4888POPC   PO422740  41.576  18.318   9.150
 4888POPC   GL122741  41.600  18.246   8.850
 4888POPC   GL222742  41.607  18.418   8.850
 4888POPC   C1A22743  41.529  18.301   8.550
 4888POPC   D2A22744  41.564  18.293   8.250
 4888POPC   C3A22745  41.565  18.329   7.950
 4888POPC   C4A22746  41.582  18.306   7.650
 4888POPC   C1B22747  41.642  18.545   8.550
 4888POPC   C2B22748  41.673  18.490   8.250
 4888POPC   C3B22749  41.699  18.499   7.950
 4888POPC   C4B22750  41.652  18.492   7.650
 4889POPC   NC322751  30.696   2.749   9.450
 4889POPC   PO422752  30.722   2.751   9.150
 4889POPC   GL122753  30.704   2.736   8.850
 4889POPC   GL222754  30.770   2.634   8.850
 4889POPC   C1A22755  30.680   2.733   8.550
 4889POPC   D2A22756  30.745   2.797   8.250
 4889POPC   C3A22757  30.701   2.779   7.950
 4889POPC   C4A22758  30.726   2.806   7.650
 4889POPC   C1B22759  30.721   2.535   8.550
 4889POPC   C2B22760  30.700   2.499   8.250
 4889POPC   C3B22761  30.784   2.502   7.950
 4889POPC   C4B22762  30.783   2.522   7.650
 4890POPC   NC322763  15.204  25.226   9.450
 4890POPC   PO422764  15.141  25.247   9.150
 4890POPC   GL122765  15.187  25.258   8.850
 4890POPC   GL222766  15.328  25.186   8.850
 4890POPC   C1A22767  15.199  25.265   8.550
 4890POPC   D2A22768  15.201  25.220   8.250
 4890POPC   C3A22769  15.200  25.287   7.950
 4890POPC   C4A22770  15.131  25.283   7.650
 4890POPC   C1B22771  15.414  25.241   8.550
 4890POPC   C2B22772  15.435  25.151   8.250
 4890POPC   C3B22773  15.462  25.154   7.950
 4890POPC   C4B22774  15.373  25.167   7.650
 4891POPC   NC322775  36.150   4.310   9.450
 4891POPC   PO422776  36.164   4.338   9.150
 4891POPC   GL122777  36.139   4.318   8.850
 4891POPC   GL222778  36.029   4.368   8.850
 4891POPC   C1A22779  36.082   4.286   8.550
 4891POPC   D2A22780  36.091   4.302   8.250
 4891POPC   C3A22781  36.092   4.289   7.950
 4891POPC   C4A22782  36.128   4.298   7.650
 4891POPC   C1B22783  35.954   4.500   8.550
 4891POPC   C2B22784  35.948   4.466   8.250
 4891POPC   C3B22785  35.954   4.527   7.950
 4891POPC   C4B22786  35.955   4.479   7.650
 4892POPC   NC322787  16.697  23.751   9.450
 4892POPC   PO422788  16.730  23.733   9.150
 4892POPC   GL122789  16.766  23.668   8.850
 4892POPC   GL222790  16.720  23.599   8.850
 4892POPC   C1A22791  16.750  23.747   8.550
 4892POPC   D2A22792  16.710  23.721   8.250
 4892POPC   C3A22793  16.751  23.676   7.950
 4892POPC   C4A22794  16.754  23.713   7.650
 4892POPC   C1B22795  16.767  23.502   8.550
 4892POPC   C2B22796  16.824  23.516   8.250
 4892POPC   C3B22797  16.804  23.507   7.950
 4892POPC   C4B22798  16.805  23.436   7.650
 4893POPC   NC322799  20.609  41.525   9.450
 4893POPC   PO422800  20.642  41.605   9.150
 4893POPC   GL122801  20.568  41.541   8.850
 4893POPC   GL222802  20.695  41.509   8.850
 4893POPC   C1A22803  20.639  41.535   8.550
 4893POPC   D2A22804  20.577  41.587   8.250
 4893POPC   C3A22805  20.590  41.587   7.950
 4893POPC   C4A22806  20.572  41.529   7.650
 4893POPC   C1B22807  20.813  41.583   8.550
 4893POPC   C2B22808  20.853  41.535   8.250
 4893POPC   C3B22809  20.892  41.519   7.950
 4893POPC   C4B22810  20.869  41.576   7.650
 4894POPC   NC322811   5.138  12.868   9.450
 4894POPC   PO422812   5.045  12.840   9.150
 4894POPC   GL122813   5.064  12.892   8.850
 4894POPC   GL222814   4.969  12.957   8.850
 4894POPC   C1A22815   5.067  12.807   8.550
 4894POPC   D2A22816   5.138  12.869   8.250
 4894POPC   C3A22817   5.111  12.879   7.950
 4894POPC   C4A22818   5.124  12.852   7.650
 4894POPC   C1B22819   4.881  12.980   8.550
 4894POPC   C2B22820   4.832  12.944   8.250
 4894POPC   C3B22821   4.860  12.989   7.950
 4894POPC   C4B22822   4.851  12.997   7.650
 4895POPC   NC322823  17.523  36.936   9.450
 4895POPC   PO422824  17.506  36.864   9.150
 4895POPC   GL122825  17.537  36.897   8.850
 4895POPC   GL222826  17.473  36.991   8.850
 4895POPC   C1A22827  17.543  36.887   8.550
 4895POPC   D2A22828  17.510  36.860   8.250
 4895POPC   C3A22829  17.487  36.903   7.950
 4895POPC   C4A22830  17.513  36.927   7.650
 4895POPC   C1B22831  17.523  37.114   8.550
 4895POPC   C2B22832  17.523  37.199   8.250
 4895POPC   C3B22833  17.537  37.194   7.950
 4895POPC   C4B22834  17.514  37.114   7.650
 4896POPC   NC322835  28.347   3.536   9.450
 4896POPC   PO422836  28.340   3.508   9.150
 4896POPC   GL122837  28.322   3.571   8.850
 4896POPC   GL222838  28.355   3.702   8.850
 4896POPC   C1A22839  28.375   3.589   8.550
 4896POPC   D2A22840  28.401   3.572   8.250
 4896POPC   C3A22841  28.349   3.565   7.950
 4896POPC   C4A22842  28.401   3.575   7.650
 4896POPC   C1B22843  28.372   3.767   8.550
 4896POPC   C2B22844  28.289   3.821   8.250
 4896POPC   C3B22845  28.292   3.817   7.950
 4896POPC   C4B22846  28.382   3.786   7.650
 4897POPC   NC322847  27.600  40.746   9.450
 4897POPC   PO422848  27.625  40.755   9.150
 4897POPC   GL122849  27.552  40.744   8.850
 4897POPC   GL222850  27.520  40.919   8.850
 4897POPC   C1A22851  27.552  40.790   8.550
 4897POPC   D2A22852  27.548  40.793   8.250
 4897POPC   C3A22853  27.614  40.735   7.950
 4897POPC   C4A22854  27.624  40.811   7.650
 4897POPC   C1B22855  27.548  41.002   8.550
 4897POPC   C2B22856  27.567  40.974   8.250
 4897POPC   C3B22857  27.521  41.029   7.950
 4897POPC   C4B22858  27.551  40.978   7.650
 4898POPC   NC322859   3.557  38.446   9.450
 4898POPC   PO422860   3.512  38.462   9.150
 4898POPC   GL122861   3.556  38.440   8.850
 4898POPC   GL222862   3.688  38.389   8.850
 4898POPC   C1A22863   3.551  38.437   8.550
 4898POPC   D2A22864   3.563  38.417   8.250
 4898POPC   C3A22865   3.514  38.494   7.950
 4898POPC   C4A22866   3.533  38.467   7.650
 4898POPC   C1B22867   3.747  38.367   8.550
 4898POPC   C2B22868   3.785  38.374   8.250
 4898POPC   C3B22869   3.769  38.347   7.950
 4898POPC   C4B22870   3.732  38.341   7.650
 4899POPC   NC322871  15.184  42.365   9.450
 4899POPC   PO422872  15.192  42.362   9.150
 4899POPC   GL122873  15.175  42.358   8.850
 4899POPC   GL222874  15.149  42.245   8.850
 4899POPC   C1A22875  15.172  42.302   8.550
 4899POPC   D2A22876  15.144  42.327   8.250
 4899POPC   C3A22877  15.219  42.347   7.950
 4899POPC   C4A22878  15.221  42.289   7.650
 4899POPC   C1B22879  15.196  42.045   8.550
 4899POPC   C2B22880  15.255  42.133   8.250
 4899POPC   C3B22881  15.175  42.097   7.950
 4899POPC   C4B22882  15.188  42.097   7.650
 4900POPC   NC322883  12.105   3.577   9.450
 4900POPC   PO422884  12.066   3.496   9.150
 4900POPC   GL122885  12.052   3.505   8.850
 4900POPC   GL222886  11.985   3.557   8.850
 4900POPC   C1A22887  12.071   3.545   8.550
 4900POPC   D2A22888  12.048   3.498   8.250
 4900POPC   C3A22889  12.091   3.507   7.950
 4900POPC   C4A22890  12.077   3.536   7.650
 4900POPC   C1B22891  11.823   3.637   8.550
 4900POPC   C2B22892  11.855   3.668   8.250
 4900POPC   C3B22893  11.801   3.624   7.950
 4900POPC   C4B22894  11.833   3.637   7.650
 4901POPC   NC322895  38.428   1.258   9.450
 4901POPC   PO422896  38.489   1.193   9.150
 4901POPC   GL122897  38.487   1.239   8.850
 4901POPC   GL222898  38.600   1.233   8.850
 4901POPC   C1A22899  38.446   1.203   8.550
 4901POPC   D2A22900  38.479   1.219   8.250
 4901POPC   C3A22901  38.456   1.188   7.950
 4901POPC   C4A22902  38.453   1.212   7.650
 4901POPC   C1B22903  38.735   1.152   8.550
 4901POPC   C2B22904  38.651   1.165   8.250
 4901POPC   C3B22905  38.714   1.178   7.950
 4901POPC   C4B22906  38.735   1.170   7.650
 4902POPC   NC322907   8.971   1.247   9.450
 4902POPC   PO422908   9.000   1.200   9.150
 4902POPC   GL122909   9.013   1.252   8.850
 4902POPC   GL222910   8.855   1.145   8.850
 4902POPC   C1A22911   8.992   1.258   8.550
 4902POPC   D2A22912   9.008   1.172   8.250
 4902POPC   C3A22913   8.963   1.198   7.950
 4902POPC   C4A22914   9.003   1.219   7.650
 4902POPC   C1B22915   8.811   0.978   8.550
 4902POPC   C2B22916   8.771   1.001   8.250
 4902POPC   C3B22917   8.854   0.989   7.950
 4902POPC   C4B22918   8.835   1.022   7.650
 4903POPC   NC322919  19.786  20.587   9.450
 4903POPC   PO422920  19.821  20.584   9.150
 4903POPC   GL122921  19.788  20.595   8.850
 4903POPC   GL222922  19.710  20.678   8.850
 4903POPC   C1A22923  19.856  20.652   8.550
 4903POPC   D2A22924  19.830  20.655   8.250
 4903POPC   C3A22925  19.832  20.568   7.950
 4903POPC   C4A22926  19.843  20.651   7.650
 4903POPC   C1B22927  19.548  20.695   8.550
 4903POPC   C2B22928  19.641  20.692   8.250
 4903POPC   C3B22929  19.578  20.669   7.950
 4903POPC   C4B22930  19.608  20.685   7.650
 4904POPC   NC322931  26.070  24.501   9.450
 4904POPC   PO422932  26.028  24.485   9.150
 4904POPC   GL122933  26.079  24.491   8.850
 4904POPC   GL222934  25.989  24.588   8.850
 4904POPC   C1A22935  26.056  24.494   8.550
 4904POPC   D2A22936  26.044  24.445   8.250
 4904POPC   C3A22937  26.035  24.456   7.950
 4904POPC   C4A22938  26.035  24.523   7.650
 4904POPC   C1B22939  25.931  24.707   8.550
 4904POPC   C2B22940  25.960  24.694   8.250
 4904POPC   C3B22941  25.991  24.757   7.950
 4904POPC   C4B22942  25.964  24.708   7.650
 4905POPC   NC322943   5.904   0.449   9.450
 4905POPC   PO422944   5.875   0.431   9.150
 4905POPC   GL122945   5.850   0.400   8.850
 4905POPC   GL222946   5.766   0.382   8.850
 4905POPC   C1A22947   5.893   0.424   8.550
 4905POPC   D2A22948   5.852   0.442   8.250
 4905POPC   C3A22949   5.835   0.445   7.950
 4905POPC   C4A22950   5.820   0.422   7.650
 4905POPC   C1B22951   5.689   0.285   8.550
 4905POPC   C2B22952   5.696   0.274   8.250
 4905POPC   C3B22953   5.682   0.268   7.950
 4905POPC   C4B22954   5.643   0.328   7.650
 4906POPC   NC322955  15.946  44.639   9.450
 4906POPC   PO422956  15.928  44.623   9.150
 4906POPC   GL122957  15.974  44.697   8.850
 4906POPC   GL222958  15.865  44.711   8.850
 4906POPC   C1A22959  15.963  44.694   8.550
 4906POPC   D2A22960  15.922  44.615   8.250
 4906POPC   C3A22961  15.923  44.631   7.950
 4906POPC   C4A22962  15.979  44.668   7.650
 4906POPC   C1B22963  15.787  44.793   8.550
 4906POPC   C2B22964  15.727  44.799   8.250
 4906POPC   C3B22965  15.791  44.779   7.950
 4906POPC   C4B22966  15.755  44.809   7.650
 4907POPC   NC322967  44.710  27.554   9.450
 4907POPC   PO422968  44.646  27.621   9.150
 4907POPC   GL122969  44.632  27.619   8.850
 4907POPC   GL222970  44.804  27.580   8.850
 4907POPC   C1A22971  44.659  27.570   8.550
 4907POPC   D2A22972  44.660  27.638   8.250
 4907POPC   C3A22973  44.709  27.637   7.950
 4907POPC   C4A22974  44.693  27.568   7.650
 4907POPC   C1B22975  44.950  27.522   8.550
 4907POPC   C2B22976  44.943  27.512   8.250
 4907POPC   C3B22977  44.935  27.526   7.950
 4907POPC   C4B22978  44.861  27.540   7.650
 4908POPC   NC322979  14.418  34.600   9.450
 4908POPC   PO422980  14.415  34.574   9.150
 4908POPC   GL122981  14.391  34.589   8.850
 4908POPC   GL222982  14.306  34.470   8.850
 4908POPC   C1A22983  14.390  34.558   8.550
 4908POPC   D2A22984  14.449  34.526   8.250
 4908POPC   C3A22985  14.373  34.590   7.950
 4908POPC   C4A22986  14.449  34.545   7.650
 4908POPC   C1B22987  14.258  34.397   8.550
 4908POPC   C2B22988  14.266  34.405   8.250
 4908POPC   C3B22989  14.257  34.313   7.950
 4908POPC   C4B22990  14.237  34.381   7.650
 4909POPC   NC322991  25.253  43.160   9.450
 4909POPC   PO422992  25.273  43.140   9.150
 4909POPC   GL122993  25.261  43.066   8.850
 4909POPC   GL222994  25.171  43.143   8.850
 4909POPC   C1A22995  25.294  43.099   8.550
 4909POPC   D2A22996  25.311  43.071   8.250
 4909POPC   C3A22997  25.303  43.119   7.950
 4909POPC   C4A22998  25.314  43.104   7.650
 4909POPC   C1B22999  25.005  43.207   8.550
 4909POPC   C2B23000  25.053  43.281   8.250
 4909POPC   C3B23001  25.026  43.227   7.950
 4909POPC   C4B23002  25.082  43.252   7.650
 4910POPC   NC323003  29.927   9.738   9.450
 4910POPC   PO423004  29.956   9.789   9.150
 4910POPC   GL123005  29.966   9.765   8.850
 4910POPC   GL223006  29.990   9.644   8.850
 4910POPC   C1A23007  29.921   9.752   8.550
 4910POPC   D2A23008  29.910   9.728   8.250
 4910POPC   C3A23009  29.873   9.772   7.950
 4910POPC   C4A23010  29.921   9.776   7.650
 4910POPC   C1B23011  30.077   9.503   8.550
 4910POPC   C2B23012  30.058   9.556   8.250
 4910POPC   C3B23013  30.016   9.498   7.950
 4910POPC   C4B23014  30.083   9.521   7.650
 4911POPC   NC323015  13.591  44.697   9.450
 4911POPC   PO423016  13.586  44.665   9.150
 4911POPC   GL123017  13.641  44.695   8.850
 4911POPC   GL223018  13.542  44.649   8.850
 4911POPC   C1A23019  13.604  44.656   8.550
 4911POPC   D2A23020  13.665  44.672   8.250
 4911POPC   C3A23021  13.667  44.625   7.950
 4911POPC   C4A23022  13.618  44.705   7.650
 4911POPC   C1B23023  13.429  44.610   8.550
 4911POPC   C2B23024  13.413  44.614   8.250
 4911POPC   C3B23025  13.376  44.604   7.950
 4911POPC   C4B23026  13.433  44.624   7.650
 4912POPC   NC323027  17.535  23.674   9.450
 4912POPC   PO423028  17.506  23.715   9.150
 4912POPC   GL123029  17.498  23.721   8.850
 4912POPC   GL223030  17.551  23.564   8.850
 4912POPC   C1A23031  17.556  23.705   8.550
 4912POPC   D2A23032  17.509  23.727   8.250
 4912POPC   C3A23033  17.464  23.708   7.950
 4912POPC   C4A23034  17.467  23.692   7.650
 4912POPC   C1B23035  17.617  23.501   8.550
 4912POPC   C2B23036  17.627  23.555   8.250
 4912POPC   C3B23037  17.657  23.495   7.950
 4912POPC   C4B23038  17.669  23.458   7.650
 4913POPC   NC323039  43.105  33.837   9.450
 4913POPC   PO423040  43.138  33.843   9.150
 4913POPC   GL123041  43.080  33.769   8.850
 4913POPC   GL223042  42.955  33.877   8.850
 4913POPC   C1A23043  43.062  33.763   8.550
 4913POPC   D2A23044  43.089  33.828   8.250
 4913POPC   C3A23045  43.104  33.766   7.950
 4913POPC   C4A23046  43.134  33.770   7.650
 4913POPC   C1B23047  42.866  33.866   8.550
 4913POPC   C2B23048  42.869  33.890   8.250
 4913POPC   C3B23049  42.898  33.888   7.950
 4913POPC   C4B23050  42.829  33.859   7.650
 4914POPC   NC323051   2.759  17.492   9.450
 4914POPC   PO423052   2.796  17.475   9.150
 4914POPC   GL123053   2.716  17.509   8.850
 4914POPC   GL223054   2.735  17.681   8.850
 4914POPC   C1A23055   2.793  17.459   8.550
 4914POPC   D2A23056   2.774  17.555   8.250
 4914POPC   C3A23057   2.756  17.533   7.950
 4914POPC   C4A23058   2.790  17.472   7.650
 4914POPC   C1B23059   2.743  17.795   8.550
 4914POPC   C2B23060   2.747  17.790   8.250
 4914POPC   C3B23061   2.790  17.710   7.950
 4914POPC   C4B23062   2.788  17.794   7.650
 4915POPC   NC323063   8.167  13.613   9.450
 4915POPC   PO423064   8.196  13.596   9.150
 4915POPC   GL123065   8.237  13.579   8.850
 4915POPC   GL223066   8.086  13.692   8.850
 4915POPC   C1A23067   8.201  13.661   8.550
 4915POPC   D2A23068   8.234  13.636   8.250
 4915POPC   C3A23069   8.176  13.590   7.950
 4915POPC   C4A23070   8.195  13.608   7.650
 4915POPC   C1B23071   8.030  13.792   8.550
 4915POPC   C2B23072   8.060  13.853   8.250
 4915POPC   C3B23073   8.089  13.843   7.950
 4915POPC   C4B23074   8.046  13.805   7.650
 4916POPC   NC323075  38.429  22.942   9.450
 4916POPC   PO423076  38.418  22.918   9.150
 4916POPC   GL123077  38.481  22.972   8.850
 4916POPC   GL223078  38.597  23.030   8.850
 4916POPC   C1A23079  38.492  22.904   8.550
 4916POPC   D2A23080  38.406  22.951   8.250
 4916POPC   C3A23081  38.502  22.935   7.950
 4916POPC   C4A23082  38.467  22.921   7.650
 4916POPC   C1B23083  38.664  23.095   8.550
 4916POPC   C2B23084  38.629  23.021   8.250
 4916POPC   C3B23085  38.635  23.079   7.950
 4916POPC   C4B23086  38.681  23.037   7.650
 4917POPC   NC323087  28.397   4.279   9.450
 4917POPC   PO423088  28.367   4.354   9.150
 4917POPC   GL123089  28.393   4.320   8.850
 4917POPC   GL223090  28.231   4.254   8.850
 4917POPC   C1A23091  28.320   4.322   8.550
 4917POPC   D2A23092  28.348   4.338   8.250
 4917POPC   C3A23093  28.333   4.358   7.950
 4917POPC   C4A23094  28.396   4.273   7.650
 4917POPC   C1B23095  28.151   4.154   8.550
 4917POPC   C2B23096  28.180   4.193   8.250
 4917POPC   C3B23097  28.150   4.118   7.950
 4917POPC   C4B23098  28.223   4.170   7.650
 4918POPC   NC323099  39.215  10.494   9.450
 4918POPC   PO423100  39.187  10.481   9.150
 4918POPC   GL123101  39.273  10.482   8.850
 4918POPC   GL223102  39.287  10.421   8.850
 4918POPC   C1A23103  39.196  10.552   8.550
 4918POPC   D2A23104  39.182  10.523   8.250
 4918POPC   C3A23105  39.262  10.567   7.950
 4918POPC   C4A23106  39.271  10.497   7.650
 4918POPC   C1B23107  39.427  10.334   8.550
 4918POPC   C2B23108  39.399  10.404   8.250
 4918POPC   C3B23109  39.396  10.342   7.950
 4918POPC   C4B23110  39.431  10.380   7.650
 4919POPC   NC323111   4.289  28.320   9.450
 4919POPC   PO423112   4.298  28.402   9.150
 4919POPC   GL123113   4.348  28.375   8.850
 4919POPC   GL223114   4.277  28.219   8.850
 4919POPC   C1A23115   4.279  28.320   8.550
 4919POPC   D2A23116   4.324  28.344   8.250
 4919POPC   C3A23117   4.360  28.416   7.950
 4919POPC   C4A23118   4.291  28.352   7.650
 4919POPC   C1B23119   4.163  28.123   8.550
 4919POPC   C2B23120   4.153  28.168   8.250
 4919POPC   C3B23121   4.139  28.217   7.950
 4919POPC   C4B23122   4.199  28.168   7.650
 4920POPC   NC323123  12.881  14.387   9.450
 4920POPC   PO423124  12.866  14.438   9.150
 4920POPC   GL123125  12.835  14.378   8.850
 4920POPC   GL223126  12.868  14.487   8.850
 4920POPC   C1A23127  12.845  14.444   8.550
 4920POPC   D2A23128  12.886  14.447   8.250
 4920POPC   C3A23129  12.875  14.422   7.950
 4920POPC   C4A23130  12.847  14.385   7.650
 4920POPC   C1B23131  12.823  14.621   8.550
 4920POPC   C2B23132  12.823  14.612   8.250
 4920POPC   C3B23133  12.788  14.661   7.950
 4920POPC   C4B23134  12.784  14.701   7.650
 4921POPC   NC323135  26.069  22.900   9.450
 4921POPC   PO423136  26.074  22.908   9.150
 4921POPC   GL123137  26.055  22.944   8.850
 4921POPC   GL223138  26.090  22.835   8.850
 4921POPC   C1A23139  26.008  22.939   8.550
 4921POPC   D2A23140  26.017  22.956   8.250
 4921POPC   C3A23141  26.051  22.894   7.950
 4921POPC   C4A23142  26.028  22.895   7.650
 4921POPC   C1B23143  26.067  22.686   8.550
 4921POPC   C2B23144  26.072  22.676   8.250
 4921POPC   C3B23145  26.065  22.687   7.950
 4921POPC   C4B23146  26.120  22.649   7.650
 4922POPC   NC323147  41.533  31.447   9.450
 4922POPC   PO423148  41.603  31.446   9.150
 4922POPC   GL123149  41.581  31.461   8.850
 4922POPC   GL223150  41.451  31.442   8.850
 4922POPC   C1A23151  41.554  31.514   8.550
 4922POPC   D2A23152  41.596  31.474   8.250
 4922POPC   C3A23153  41.585  31.457   7.950
 4922POPC   C4A23154  41.606  31.519   7.650
 4922POPC   C1B23155  41.320  31.444   8.550
 4922POPC   C2B23156  41.260  31.480   8.250
 4922POPC   C3B23157  41.304  31.514   7.950
 4922POPC   C4B23158  41.297  31.488   7.650
 4923POPC   NC323159  21.372  44.623   9.450
 4923POPC   PO423160  21.411  44.663   9.150
 4923POPC   GL123161  21.351  44.645   8.850
 4923POPC   GL223162  21.420  44.820   8.850
 4923POPC   C1A23163  21.378  44.655   8.550
 4923POPC   D2A23164  21.429  44.623   8.250
 4923POPC   C3A23165  21.354  44.645   7.950
 4923POPC   C4A23166  21.358  44.704   7.650
 4923POPC   C1B23167  21.475  44.895   8.550
 4923POPC   C2B23168  21.414  44.951   8.250
 4923POPC   C3B23169  21.433  44.908   7.950
 4923POPC   C4B23170  21.418  44.899   7.650
 4924POPC   NC323171   4.316   8.934   9.450
 4924POPC   PO423172   4.303   8.978   9.150
 4924POPC   GL123173   4.298   8.996   8.850
 4924POPC   GL223174   4.375   8.883   8.850
 4924POPC   C1A23175   4.307   8.947   8.550
 4924POPC   D2A23176   4.281   9.002   8.250
 4924POPC   C3A23177   4.344   9.022   7.950
 4924POPC   C4A23178   4.295   8.974   7.650
 4924POPC   C1B23179   4.421   8.779   8.550
 4924POPC   C2B23180   4.439   8.788   8.250
 4924POPC   C3B23181   4.444   8.738   7.950
 4924POPC   C4B23182   4.471   8.751   7.650
 4925POPC   NC323183  26.007  42.313   9.450
 4925POPC   PO423184  26.015  42.374   9.150
 4925POPC   GL123185  26.054  42.302   8.850
 4925POPC   GL223186  26.128  42.360   8.850
 4925POPC   C1A23187  26.070  42.379   8.550
 4925POPC   D2A23188  25.992  42.358   8.250
 4925POPC   C3A23189  26.089  42.372   7.950
 4925POPC   C4A23190  26.029  42.367   7.650
 4925POPC   C1B23191  26.290  42.476   8.550
 4925POPC   C2B23192  26.195  42.452   8.250
 4925POPC   C3B23193  26.192  42.469   7.950
 4925POPC   C4B23194  26.207  42.456   7.650
 4926POPC   NC323195  33.809   7.432   9.450
 4926POPC   PO423196  33.793   7.435   9.150
 4926POPC   GL123197  33.834   7.381   8.850
 4926POPC   GL223198  33.871   7.300   8.850
 4926POPC   C1A23199  33.786   7.465   8.550
 4926POPC   D2A23200  33.846   7.459   8.250
 4926POPC   C3A23201  33.789   7.433   7.950
 4926POPC   C4A23202  33.822   7.412   7.650
 4926POPC   C1B23203  33.855   7.191   8.550
 4926POPC   C2B23204  33.916   7.203   8.250
 4926POPC   C3B23205  33.894   7.170   7.950
 4926POPC   C4B23206  33.887   7.213   7.650
 4927POPC   NC323207   1.951   8.990   9.450
 4927POPC   PO423208   2.029   9.009   9.150
 4927POPC   GL123209   2.037   9.015   8.850
 4927POPC   GL223210   2.026   8.837   8.850
 4927POPC   C1A23211   1.995   9.006   8.550
 4927POPC   D2A23212   1.999   8.924   8.250
 4927POPC   C3A23213   2.021   9.019   7.950
 4927POPC   C4A23214   2.001   9.020   7.650
 4927POPC   C1B23215   2.061   8.678   8.550
 4927POPC   C2B23216   2.013   8.755   8.250
 4927POPC   C3B23217   2.077   8.759   7.950
 4927POPC   C4B23218   1.991   8.759   7.650
 4928POPC   NC323219  15.188  16.722   9.450
 4928POPC   PO423220  15.172  16.774   9.150
 4928POPC   GL123221  15.189  16.702   8.850
 4928POPC   GL223222  15.284  16.625   8.850
 4928POPC   C1A23223  15.191  16.736   8.550
 4928POPC   D2A23224  15.185  16.767   8.250
 4928POPC   C3A23225  15.197  16.715   7.950
 4928POPC   C4A23226  15.170  16.708   7.650
 4928POPC   C1B23227  15.365  16.532   8.550
 4928POPC   C2B23228  15.371  16.544   8.250
 4928POPC   C3B23229  15.314  16.511   7.950
 4928POPC   C4B23230  15.296  16.522   7.650
 4929POPC   NC323231   9.762  34.622   9.450
 4929POPC   PO423232   9.709  34.599   9.150
 4929POPC   GL123233   9.797  34.614   8.850
 4929POPC   GL223234   9.807  34.715   8.850
 4929POPC   C1A23235   9.759  34.601   8.550
 4929POPC   D2A23236   9.734  34.580   8.250
 4929POPC   C3A23237   9.786  34.594   7.950
 4929POPC   C4A23238   9.727  34.591   7.650
 4929POPC   C1B23239   9.940  34.806   8.550
 4929POPC   C2B23240   9.900  34.802   8.250
 4929POPC   C3B23241   9.943  34.809   7.950
 4929POPC   C4B23242   9.892  34.764   7.650
 4930POPC   NC323243  39.246  33.806   9.450
 4930POPC   PO423244  39.219  33.770   9.150
 4930POPC   GL123245  39.181  33.820   8.850
 4930POPC   GL223246  39.329  33.911   8.850
 4930POPC   C1A23247  39.221  33.751   8.550
 4930POPC   D2A23248  39.200  33.779   8.250
 4930POPC   C3A23249  39.201  33.827   7.950
 4930POPC   C4A23250  39.210  33.786   7.650
 4930POPC   C1B23251  39.302  34.012   8.550
 4930POPC   C2B23252  39.321  34.068   8.250
 4930POPC   C3B23253  39.357  34.055   7.950
 4930POPC   C4B23254  39.318  34.058   7.650
 4931POPC   NC323255  24.510  22.948   9.450
 4931POPC   PO423256  24.452  22.973   9.150
 4931POPC   GL123257  24.460  22.970   8.850
 4931POPC   GL223258  24.467  23.078   8.850
 4931POPC   C1A23259  24.526  22.896   8.550
 4931POPC   D2A23260  24.501  22.918   8.250
 4931POPC   C3A23261  24.487  22.953   7.950
 4931POPC   C4A23262  24.475  22.963   7.650
 4931POPC   C1B23263  24.427  23.154   8.550
 4931POPC   C2B23264  24.432  23.206   8.250
 4931POPC   C3B23265  24.503  23.214   7.950
 4931POPC   C4B23266  24.481  23.188   7.650
 4932POPC   NC323267  26.826  12.088   9.450
 4932POPC   PO423268  26.849  12.073   9.150
 4932POPC   GL123269  26.783  12.068   8.850
 4932POPC   GL223270  26.691  12.042   8.850
 4932POPC   C1A23271  26.819  12.093   8.550
 4932POPC   D2A23272  26.774  12.073   8.250
 4932POPC   C3A23273  26.822  12.031   7.950
 4932POPC   C4A23274  26.841  12.044   7.650
 4932POPC   C1B23275  26.607  11.951   8.550
 4932POPC   C2B23276  26.561  11.960   8.250
 4932POPC   C3B23277  26.555  11.909   7.950
 4932POPC   C4B23278  26.561  11.906   7.650
 4933POPC   NC323279  16.781   8.947   9.450
 4933POPC   PO423280  16.688   9.017   9.150
 4933POPC   GL123281  16.706   8.947   8.850
 4933POPC   GL223282  16.795   9.086   8.850
 4933POPC   C1A23283  16.712   8.927   8.550
 4933POPC   D2A23284  16.725   8.982   8.250
 4933POPC   C3A23285  16.769   9.015   7.950
 4933POPC   C4A23286  16.778   8.929   7.650
 4933POPC   C1B23287  16.774   9.239   8.550
 4933POPC   C2B23288  16.768   9.254   8.250
 4933POPC   C3B23289  16.771   9.246   7.950
 4933POPC   C4B23290  16.822   9.176   7.650
 4934POPC   NC323291   7.438  25.291   9.450
 4934POPC   PO423292   7.462  25.284   9.150
 4934POPC   GL123293   7.378  25.217   8.850
 4934POPC   GL223294   7.538  25.322   8.850
 4934POPC   C1A23295   7.402  25.301   8.550
 4934POPC   D2A23296   7.440  25.259   8.250
 4934POPC   C3A23297   7.447  25.307   7.950
 4934POPC   C4A23298   7.413  25.284   7.650
 4934POPC   C1B23299   7.563  25.459   8.550
 4934POPC   C2B23300   7.616  25.412   8.250
 4934POPC   C3B23301   7.588  25.393   7.950
 4934POPC   C4B23302   7.639  25.432   7.650
 4935POPC   NC323303   8.153  25.232   9.450
 4935POPC   PO423304   8.147  25.266   9.150
 4935POPC   GL123305   8.241  25.236   8.850
 4935POPC   GL223306   8.302  25.272   8.850
 4935POPC   C1A23307   8.172  25.252   8.550
 4935POPC   D2A23308   8.168  25.302   8.250
 4935POPC   C3A23309   8.156  25.282   7.950
 4935POPC   C4A23310   8.162  25.289   7.650
 4935POPC   C1B23311   8.409  25.185   8.550
 4935POPC   C2B23312   8.402  25.217   8.250
 4935POPC   C3B23313   8.454  25.208   7.950
 4935POPC   C4B23314   8.437  25.245   7.650
 4936POPC   NC323315  13.653  19.791   9.450
 4936POPC   PO423316  13.591  19.865   9.150
 4936POPC   GL123317  13.599  19.866   8.850
 4936POPC   GL223318  13.584  19.879   8.850
 4936POPC   C1A23319  13.635  19.807   8.550
 4936POPC   D2A23320  13.585  19.846   8.250
 4936POPC   C3A23321  13.645  19.875   7.950
 4936POPC   C4A23322  13.633  19.850   7.650
 4936POPC   C1B23323  13.487  20.039   8.550
 4936POPC   C2B23324  13.493  19.969   8.250
 4936POPC   C3B23325  13.448  20.062   7.950
 4936POPC   C4B23326  13.419  20.040   7.650
 4937POPC   NC323327  19.788   2.022   9.450
 4937POPC   PO423328  19.859   1.984   9.150
 4937POPC   GL123329  19.883   1.987   8.850
 4937POPC   GL223330  19.790   1.905   8.850
 4937POPC   C1A23331  19.791   1.943   8.550
 4937POPC   D2A23332  19.847   1.969   8.250
 4937POPC   C3A23333  19.787   1.973   7.950
 4937POPC   C4A23334  19.785   1.994   7.650
 4937POPC   C1B23335  19.868   1.717   8.550
 4937POPC   C2B23336  19.829   1.747   8.250
 4937POPC   C3B23337  19.849   1.780   7.950
 4937POPC   C4B23338  19.829   1.753   7.650
 4938POPC   NC323339  15.201  26.029   9.450
 4938POPC   PO423340  15.151  26.024   9.150
 4938POPC   GL123341  15.177  26.067   8.850
 4938POPC   GL223342  15.105  26.128   8.850
 4938POPC   C1A23343  15.226  26.086   8.550
 4938POPC   D2A23344  15.206  26.074   8.250
 4938POPC   C3A23345  15.195  26.074   7.950
 4938POPC   C4A23346  15.205  26.013   7.650
 4938POPC   C1B23347  15.096  26.281   8.550
 4938POPC   C2B23348  15.077  26.239   8.250
 4938POPC   C3B23349  15.115  26.250   7.950
 4938POPC   C4B23350  15.066  26.249   7.650
 4939POPC   NC323351  10.527  26.074   9.450
 4939POPC   PO423352  10.525  26.016   9.150
 4939POPC   GL123353  10.480  26.052   8.850
 4939POPC   GL223354  10.435  25.920   8.850
 4939POPC   C1A23355  10.475  26.016   8.550
 4939POPC   D2A23356  10.489  25.996   8.250
 4939POPC   C3A23357  10.529  25.996   7.950
 4939POPC   C4A23358  10.500  26.017   7.650
 4939POPC   C1B23359  10.376  25.790   8.550
 4939POPC   C2B23360  10.395  25.828   8.250
 4939POPC   C3B23361  10.404  25.861   7.950
 4939POPC   C4B23362  10.407  25.815   7.650
 4940POPC   NC323363   1.998  35.324   9.450
 4940POPC   PO423364   2.015  35.367   9.150
 4940POPC   GL123365   1.945  35.312   8.850
 4940POPC   GL223366   2.130  35.271   8.850
 4940POPC   C1A23367   1.963  35.324   8.550
 4940POPC   D2A23368   2.028  35.318   8.250
 4940POPC   C3A23369   2.010  35.321   7.950
 4940POPC   C4A23370   2.036  35.337   7.650
 4940POPC   C1B23371   2.167  35.194   8.550
 4940POPC   C2B23372   2.152  35.209   8.250
 4940POPC   C3B23373   2.208  35.207   7.950
 4940POPC   C4B23374   2.189  35.225   7.650
 4941POPC   NC323375   2.802   4.345   9.450
 4941POPC   PO423376   2.738   4.293   9.150
 4941POPC   GL123377   2.718   4.363   8.850
 4941POPC   GL223378   2.629   4.273   8.850
 4941POPC   C1A23379   2.751   4.268   8.550
 4941POPC   D2A23380   2.806   4.330   8.250
 4941POPC   C3A23381   2.737   4.331   7.950
 4941POPC   C4A23382   2.798   4.340   7.650
 4941POPC   C1B23383   2.486   4.360   8.550
 4941POPC   C2B23384   2.514   4.285   8.250
 4941POPC   C3B23385   2.564   4.306   7.950
 4941POPC   C4B23386   2.483   4.336   7.650
 4942POPC   NC323387   4.348  43.154   9.450
 4942POPC   PO423388   4.336  43.080   9.150
 4942POPC   GL123389   4.317  43.134   8.850
 4942POPC   GL223390   4.326  43.250   8.850
 4942POPC   C1A23391   4.278  43.087   8.550
 4942POPC   D2A23392   4.364  43.107   8.250
 4942POPC   C3A23393   4.270  43.130   7.950
 4942POPC   C4A23394   4.298  43.118   7.650
 4942POPC   C1B23395   4.371  43.300   8.550
 4942POPC   C2B23396   4.399  43.338   8.250
 4942POPC   C3B23397   4.357  43.321   7.950
 4942POPC   C4B23398   4.442  43.315   7.650
 4943POPC   NC323399  26.784  33.811   9.450
 4943POPC   PO423400  26.781  33.783   9.150
 4943POPC   GL123401  26.851  33.807   8.850
 4943POPC   GL223402  26.906  33.860   8.850
 4943POPC   C1A23403  26.832  33.815   8.550
 4943POPC   D2A23404  26.860  33.835   8.250
 4943POPC   C3A23405  26.800  33.796   7.950
 4943POPC   C4A23406  26.783  33.838   7.650
 4943POPC   C1B23407  27.039  33.806   8.550
 4943POPC   C2B23408  27.014  33.897   8.250
 4943POPC   C3B23409  27.038  33.830   7.950
 4943POPC   C4B23410  27.078  33.879   7.650
 4944POPC   NC323411  20.628   8.979   9.450
 4944POPC   PO423412  20.583   9.006   9.150
 4944POPC   GL123413  20.641   8.997   8.850
 4944POPC   GL223414  20.726   9.014   8.850
 4944POPC   C1A23415  20.649   9.000   8.550
 4944POPC   D2A23416  20.564   9.020   8.250
 4944POPC   C3A23417  20.647   8.932   7.950
 4944POPC   C4A23418  20.636   9.009   7.650
 4944POPC   C1B23419  20.855   8.976   8.550
 4944POPC   C2B23420  20.879   8.967   8.250
 4944POPC   C3B23421  20.874   8.972   7.950
 4944POPC   C4B23422  20.837   8.982   7.650
 4945POPC   NC323423  17.462   7.414   9.450
 4945POPC   PO423424  17.487   7.376   9.150
 4945POPC   GL123425  17.521   7.373   8.850
 4945POPC   GL223426  17.394   7.350   8.850
 4945POPC   C1A23427  17.477   7.460   8.550
 4945POPC   D2A23428  17.520   7.459   8.250
 4945POPC   C3A23429  17.473   7.445   7.950
 4945POPC   C4A23430  17.532   7.371   7.650
 4945POPC   C1B23431  17.401   7.256   8.550
 4945POPC   C2B23432  17.363   7.185   8.250
 4945POPC   C3B23433  17.328   7.243   7.950
 4945POPC   C4B23434  17.377   7.263   7.650
 4946POPC   NC323435  25.306  17.517   9.450
 4946POPC   PO423436  25.304  17.463   9.150
 4946POPC   GL123437  25.220  17.502   8.850
 4946POPC   GL223438  25.112  17.467   8.850
 4946POPC   C1A23439  25.284  17.496   8.550
 4946POPC   D2A23440  25.280  17.493   8.250
 4946POPC   C3A23441  25.225  17.548   7.950
 4946POPC   C4A23442  25.310  17.543   7.650
 4946POPC   C1B23443  24.980  17.386   8.550
 4946POPC   C2B23444  25.001  17.437   8.250
 4946POPC   C3B23445  25.026  17.401   7.950
 4946POPC   C4B23446  25.019  17.422   7.650
 4947POPC   NC323447  36.858  12.875   9.450
 4947POPC   PO423448  36.863  12.819   9.150
 4947POPC   GL123449  36.917  12.821   8.850
 4947POPC   GL223450  36.755  12.857   8.850
 4947POPC   C1A23451  36.869  12.870   8.550
 4947POPC   D2A23452  36.925  12.850   8.250
 4947POPC   C3A23453  36.863  12.859   7.950
 4947POPC   C4A23454  36.884  12.872   7.650
 4947POPC   C1B23455  36.716  12.922   8.550
 4947POPC   C2B23456  36.696  12.949   8.250
 4947POPC   C3B23457  36.699  12.904   7.950
 4947POPC   C4B23458  36.711  12.996   7.650
 4948POPC   NC323459  40.778   6.666   9.450
 4948POPC   PO423460  40.783   6.630   9.150
 4948POPC   GL123461  40.753   6.688   8.850
 4948POPC   GL223462  40.841   6.598   8.850
 4948POPC   C1A23463  40.802   6.693   8.550
 4948POPC   D2A23464  40.832   6.608   8.250
 4948POPC   C3A23465  40.786   6.633   7.950
 4948POPC   C4A23466  40.812   6.607   7.650
 4948POPC   C1B23467  40.909   6.445   8.550
 4948POPC   C2B23468  40.999   6.414   8.250
 4948POPC   C3B23469  40.953   6.420   7.950
 4948POPC   C4B23470  40.984   6.453   7.650
 4949POPC   NC323471  33.008  12.123   9.450
 4949POPC   PO423472  33.029  12.063   9.150
 4949POPC   GL123473  33.041  12.044   8.850
 4949POPC   GL223474  32.940  12.079   8.850
 4949POPC   C1A23475  33.057  12.034   8.550
 4949POPC   D2A23476  33.004  12.038   8.250
 4949POPC   C3A23477  33.047  12.080   7.950
 4949POPC   C4A23478  32.978  12.039   7.650
 4949POPC   C1B23479  32.758  12.120   8.550
 4949POPC   C2B23480  32.740  12.197   8.250
 4949POPC   C3B23481  32.800  12.147   7.950
 4949POPC   C4B23482  32.825  12.112   7.650
 4950POPC   NC323483  39.244  36.865   9.450
 4950POPC   PO423484  39.205  36.942   9.150
 4950POPC   GL123485  39.223  36.862   8.850
 4950POPC   GL223486  39.401  36.903   8.850
 4950POPC   C1A23487  39.262  36.946   8.550
 4950POPC   D2A23488  39.246  36.865   8.250
 4950POPC   C3A23489  39.247  36.880   7.950
 4950POPC   C4A23490  39.196  36.900   7.650
 4950POPC   C1B23491  39.446  36.911   8.550
 4950POPC   C2B23492  39.459  36.887   8.250
 4950POPC   C3B23493  39.519  36.959   7.950
 4950POPC   C4B23494  39.484  36.917   7.650
 4951POPC   NC323495  32.294  15.926   9.450
 4951POPC   PO423496  32.242  15.930   9.150
 4951POPC   GL123497  32.248  15.913   8.850
 4951POPC   GL223498  32.397  15.872   8.850
 4951POPC   C1A23499  32.254  15.991   8.550
 4951POPC   D2A23500  32.278  15.988   8.250
 4951POPC   C3A23501  32.209  15.994   7.950
 4951POPC   C4A23502  32.280  15.960   7.650
 4951POPC   C1B23503  32.434  15.843   8.550
 4951POPC   C2B23504  32.503  15.809   8.250
 4951POPC   C3B23505  32.421  15.861   7.950
 4951POPC   C4B23506  32.458  15.807   7.650
 4952POPC   NC323507  29.183  23.739   9.450
 4952POPC   PO423508  29.161  23.719   9.150
 4952POPC   GL123509  29.110  23.696   8.850
 4952POPC   GL223510  29.250  23.695   8.850
 4952POPC   C1A23511  29.155  23.668   8.550
 4952POPC   D2A23512  29.171  23.716   8.250
 4952POPC   C3A23513  29.096  23.751   7.950
 4952POPC   C4A23514  29.112  23.706   7.650
 4952POPC   C1B23515  29.414  23.757   8.550
 4952POPC   C2B23516  29.341  23.780   8.250
 4952POPC   C3B23517  29.432  23.780   7.950
 4952POPC   C4B23518  29.411  23.795   7.650
 4953POPC   NC323519  21.409   9.784   9.450
 4953POPC   PO423520  21.340   9.769   9.150
 4953POPC   GL123521  21.340   9.784   8.850
 4953POPC   GL223522  21.299   9.713   8.850
 4953POPC   C1A23523  21.347   9.790   8.550
 4953POPC   D2A23524  21.360   9.776   8.250
 4953POPC   C3A23525  21.337   9.700   7.950
 4953POPC   C4A23526  21.427   9.699   7.650
 4953POPC   C1B23527  21.175   9.746   8.550
 4953POPC   C2B23528  21.140   9.745   8.250
 4953POPC   C3B23529  21.142   9.795   7.950
 4953POPC   C4B23530  21.175   9.727   7.650
 4954POPC   NC323531  43.154   2.793   9.450
 4954POPC   PO423532  43.089   2.737   9.150
 4954POPC   GL123533  43.143   2.728   8.850
 4954POPC   GL223534  43.192   2.719   8.850
 4954POPC   C1A23535  43.066   2.762   8.550
 4954POPC   D2A23536  43.142   2.739   8.250
 4954POPC   C3A23537  43.092   2.745   7.950
 4954POPC   C4A23538  43.105   2.787   7.650
 4954POPC   C1B23539  43.340   2.724   8.550
 4954POPC   C2B23540  43.346   2.787   8.250
 4954POPC   C3B23541  43.362   2.772   7.950
 4954POPC   C4B23542  43.397   2.808   7.650
 4955POPC   NC323543  15.956  41.588   9.450
 4955POPC   PO423544  15.956  41.532   9.150
 4955POPC   GL123545  15.912  41.520   8.850
 4955POPC   GL223546  16.037  41.481   8.850
 4955POPC   C1A23547  15.976  41.558   8.550
 4955POPC   D2A23548  15.931  41.601   8.250
 4955POPC   C3A23549  15.970  41.537   7.950
 4955POPC   C4A23550  15.996  41.552   7.650
 4955POPC   C1B23551  16.082  41.366   8.550
 4955POPC   C2B23552  16.083  41.336   8.250
 4955POPC   C3B23553  16.107  41.301   7.950
 4955POPC   C4B23554  16.091  41.390   7.650
 4956POPC   NC323555   9.016  18.249   9.450
 4956POPC   PO423556   8.976  18.306   9.150
 4956POPC   GL123557   8.949  18.330   8.850
 4956POPC   GL223558   8.804  18.328   8.850
 4956POPC   C1A23559   9.021  18.300   8.550
 4956POPC   D2A23560   8.929  18.285   8.250
 4956POPC   C3A23561   8.986  18.308   7.950
 4956POPC   C4A23562   8.948  18.252   7.650
 4956POPC   C1B23563   8.757  18.375   8.550
 4956POPC   C2B23564   8.745  18.376   8.250
 4956POPC   C3B23565   8.771  18.387   7.950
 4956POPC   C4B23566   8.736  18.321   7.650
 4957POPC   NC323567   8.166  15.952   9.450
 4957POPC   PO423568   8.198  15.915   9.150
 4957POPC   GL123569   8.174  15.908   8.850
 4957POPC   GL223570   8.196  16.046   8.850
 4957POPC   C1A23571   8.183  15.939   8.550
 4957POPC   D2A23572   8.192  15.919   8.250
 4957POPC   C3A23573   8.188  16.001   7.950
 4957POPC   C4A23574   8.150  15.928   7.650
 4957POPC   C1B23575   8.110  16.150   8.550
 4957POPC   C2B23576   8.082  16.226   8.250
 4957POPC   C3B23577   8.139  16.172   7.950
 4957POPC   C4B23578   8.152  16.160   7.650
 4958POPC   NC323579  37.685  34.587   9.450
 4958POPC   PO423580  37.668  34.564   9.150
 4958POPC   GL123581  37.657  34.551   8.850
 4958POPC   GL223582  37.595  34.461   8.850
 4958POPC   C1A23583  37.687  34.539   8.550
 4958POPC   D2A23584  37.679  34.565   8.250
 4958POPC   C3A23585  37.726  34.579   7.950
 4958POPC   C4A23586  37.649  34.567   7.650
 4958POPC   C1B23587  37.549  34.346   8.550
 4958POPC   C2B23588  37.541  34.401   8.250
 4958POPC   C3B23589  37.522  34.378   7.950
 4958POPC   C4B23590  37.515  34.394   7.650
 4959POPC   NC323591  25.995  14.365   9.450
 4959POPC   PO423592  26.073  14.383   9.150
 4959POPC   GL123593  26.018  14.398   8.850
 4959POPC   GL223594  26.027  14.545   8.850
 4959POPC   C1A23595  26.072  14.402   8.550
 4959POPC   D2A23596  26.054  14.394   8.250
 4959POPC   C3A23597  26.086  14.360   7.950
 4959POPC   C4A23598  26.062  14.430   7.650
 4959POPC   C1B23599  25.979  14.691   8.550
 4959POPC   C2B23600  25.980  14.687   8.250
 4959POPC   C3B23601  26.013  14.670   7.950
 4959POPC   C4B23602  25.959  14.678   7.650
 4960POPC   NC323603  26.853  43.886   9.450
 4960POPC   PO423604  26.855  43.853   9.150
 4960POPC   GL123605  26.792  43.864   8.850
 4960POPC   GL223606  26.927  43.970   8.850
 4960POPC   C1A23607  26.791  43.928   8.550
 4960POPC   D2A23608  26.772  43.899   8.250
 4960POPC   C3A23609  26.858  43.851   7.950
 4960POPC   C4A23610  26.793  43.836   7.650
 4960POPC   C1B23611  27.037  44.089   8.550
 4960POPC   C2B23612  26.963  44.005   8.250
 4960POPC   C3B23613  27.023  44.096   7.950
 4960POPC   C4B23614  27.052  44.083   7.650
 4961POPC   NC323615  42.373   0.464   9.450
 4961POPC   PO423616  42.299   0.418   9.150
 4961POPC   GL123617  42.290   0.440   8.850
 4961POPC   GL223618  42.456   0.541   8.850
 4961POPC   C1A23619  42.360   0.405   8.550
 4961POPC   D2A23620  42.289   0.424   8.250
 4961POPC   C3A23621  42.296   0.435   7.950
 4961POPC   C4A23622  42.374   0.405   7.650
 4961POPC   C1B23623  42.529   0.540   8.550
 4961POPC   C2B23624  42.584   0.537   8.250
 4961POPC   C3B23625  42.565   0.569   7.950
 4961POPC   C4B23626  42.563   0.541   7.650
 4962POPC   NC323627  29.958  26.035   9.450
 4962POPC   PO423628  29.927  26.026   9.150
 4962POPC   GL123629  29.943  26.003   8.850
 4962POPC   GL223630  29.759  26.085   8.850
 4962POPC   C1A23631  29.930  26.064   8.550
 4962POPC   D2A23632  29.927  25.993   8.250
 4962POPC   C3A23633  29.915  26.050   7.950
 4962POPC   C4A23634  29.946  26.021   7.650
 4962POPC   C1B23635  29.634  26.051   8.550
 4962POPC   C2B23636  29.636  26.005   8.250
 4962POPC   C3B23637  29.695  25.997   7.950
 4962POPC   C4B23638  29.641  25.995   7.650
 4963POPC   NC323639  24.483  35.327   9.450
 4963POPC   PO423640  24.519  35.356   9.150
 4963POPC   GL123641  24.504  35.304   8.850
 4963POPC   GL223642  24.492  35.254   8.850
 4963POPC   C1A23643  24.534  35.386   8.550
 4963POPC   D2A23644  24.470  35.339   8.250
 4963POPC   C3A23645  24.502  35.374   7.950
 4963POPC   C4A23646  24.440  35.327   7.650
 4963POPC   C1B23647  24.386  35.118   8.550
 4963POPC   C2B23648  24.416  35.137   8.250
 4963POPC   C3B23649  24.387  35.145   7.950
 4963POPC   C4B23650  24.402  35.147   7.650
 4964POPC   NC323651   8.923   8.172   9.450
 4964POPC   PO423652   8.986   8.221   9.150
 4964POPC   GL123653   8.952   8.165   8.850
 4964POPC   GL223654   8.872   8.317   8.850
 4964POPC   C1A23655   9.000   8.199   8.550
 4964POPC   D2A23656   8.973   8.207   8.250
 4964POPC   C3A23657   9.002   8.209   7.950
 4964POPC   C4A23658   9.021   8.237   7.650
 4964POPC   C1B23659   8.757   8.382   8.550
 4964POPC   C2B23660   8.773   8.403   8.250
 4964POPC   C3B23661   8.827   8.375   7.950
 4964POPC   C4B23662   8.782   8.397   7.650
 4965POPC   NC323663  16.731  38.427   9.450
 4965POPC   PO423664  16.754  38.468   9.150
 4965POPC   GL123665  16.721  38.458   8.850
 4965POPC   GL223666  16.850  38.475   8.850
 4965POPC   C1A23667  16.712  38.438   8.550
 4965POPC   D2A23668  16.741  38.442   8.250
 4965POPC   C3A23669  16.712  38.463   7.950
 4965POPC   C4A23670  16.690  38.471   7.650
 4965POPC   C1B23671  16.922  38.582   8.550
 4965POPC   C2B23672  16.970  38.550   8.250
 4965POPC   C3B23673  16.948  38.623   7.950
 4965POPC   C4B23674  16.960  38.539   7.650
 4966POPC   NC323675   5.097  22.167   9.450
 4966POPC   PO423676   5.056  22.143   9.150
 4966POPC   GL123677   5.048  22.196   8.850
 4966POPC   GL223678   4.964  22.178   8.850
 4966POPC   C1A23679   5.114  22.177   8.550
 4966POPC   D2A23680   5.142  22.155   8.250
 4966POPC   C3A23681   5.133  22.143   7.950
 4966POPC   C4A23682   5.050  22.127   7.650
 4966POPC   C1B23683   4.911  22.303   8.550
 4966POPC   C2B23684   4.924  22.341   8.250
 4966POPC   C3B23685   4.894  22.281   7.950
 4966POPC   C4B23686   4.867  22.342   7.650
 4967POPC   NC323687  27.543  33.005   9.450
 4967POPC   PO423688  27.585  33.004   9.150
 4967POPC   GL123689  27.573  33.003   8.850
 4967POPC   GL223690  27.434  33.071   8.850
 4967POPC   C1A23691  27.618  32.989   8.550
 4967POPC   D2A23692  27.583  33.073   8.250
 4967POPC   C3A23693  27.581  33.003   7.950
 4967POPC   C4A23694  27.618  33.052   7.650
 4967POPC   C1B23695  27.391  33.069   8.550
 4967POPC   C2B23696  27.402  33.084   8.250
 4967POPC   C3B23697  27.374  33.062   7.950
 4967POPC   C4B23698  27.359  33.141   7.650
 4968POPC   NC323699  37.701   5.050   9.450
 4968POPC   PO423700  37.703   5.064   9.150
 4968POPC   GL123701  37.668   5.060   8.850
 4968POPC   GL223702  37.575   5.189   8.850
 4968POPC   C1A23703  37.697   5.136   8.550
 4968POPC   D2A23704  37.686   5.142   8.250
 4968POPC   C3A23705  37.688   5.122   7.950
 4968POPC   C4A23706  37.661   5.134   7.650
 4968POPC   C1B23707  37.491   5.234   8.550
 4968POPC   C2B23708  37.500   5.254   8.250
 4968POPC   C3B23709  37.538   5.234   7.950
 4968POPC   C4B23710  37.546   5.317   7.650
 4969POPC   NC323711  11.282   9.788   9.450
 4969POPC   PO423712  11.339   9.758   9.150
 4969POPC   GL123713  11.251   9.797   8.850
 4969POPC   GL223714  11.152   9.757   8.850
 4969POPC   C1A23715  11.257   9.721   8.550
 4969POPC   D2A23716  11.349   9.709   8.250
 4969POPC   C3A23717  11.303   9.733   7.950
 4969POPC   C4A23718  11.302   9.746   7.650
 4969POPC   C1B23719  11.032   9.713   8.550
 4969POPC   C2B23720  11.096   9.685   8.250
 4969POPC   C3B23721  11.057   9.673   7.950
 4969POPC   C4B23722  11.063   9.640   7.650
 4970POPC   NC323723  18.239  16.725   9.450
 4970POPC   PO423724  18.247  16.761   9.150
 4970POPC   GL123725  18.296  16.688   8.850
 4970POPC   GL223726  18.192  16.774   8.850
 4970POPC   C1A23727  18.325  16.696   8.550
 4970POPC   D2A23728  18.322  16.694   8.250
 4970POPC   C3A23729  18.252  16.728   7.950
 4970POPC   C4A23730  18.257  16.756   7.650
 4970POPC   C1B23731  18.089  16.870   8.550
 4970POPC   C2B23732  18.137  16.905   8.250
 4970POPC   C3B23733  18.080  16.850   7.950
 4970POPC   C4B23734  18.039  16.843   7.650
 4971POPC   NC323735  33.772  36.153   9.450
 4971POPC   PO423736  33.818  36.081   9.150
 4971POPC   GL123737  33.806  36.092   8.850
 4971POPC   GL223738  33.723  36.082   8.850
 4971POPC   C1A23739  33.764  36.162   8.550
 4971POPC   D2A23740  33.826  36.151   8.250
 4971POPC   C3A23741  33.793  36.143   7.950
 4971POPC   C4A23742  33.768  36.109   7.650
 4971POPC   C1B23743  33.616  35.941   8.550
 4971POPC   C2B23744  33.574  35.936   8.250
 4971POPC   C3B23745  33.618  35.948   7.950
 4971POPC   C4B23746  33.585  35.975   7.650
 4972POPC   NC323747  40.015   3.499   9.450
 4972POPC   PO423748  40.024   3.547   9.150
 4972POPC   GL123749  39.999   3.584   8.850
 4972POPC   GL223750  39.951   3.464   8.850
 4972POPC   C1A23751  40.050   3.526   8.550
 4972POPC   D2A23752  40.049   3.517   8.250
 4972POPC   C3A23753  40.042   3.492   7.950
 4972POPC   C4A23754  39.989   3.574   7.650
 4972POPC   C1B23755  39.834   3.415   8.550
 4972POPC   C2B23756  39.780   3.430   8.250
 4972POPC   C3B23757  39.803   3.372   7.950
 4972POPC   C4B23758  39.826   3.372   7.650
 4973POPC   NC323759  40.829  32.289   9.450
 4973POPC   PO423760  40.759  32.289   9.150
 4973POPC   GL123761  40.827  32.211   8.850
 4973POPC   GL223762  40.888  32.260   8.850
 4973POPC   C1A23763  40.766  32.261   8.550
 4973POPC   D2A23764  40.824  32.220   8.250
 4973POPC   C3A23765  40.811  32.217   7.950
 4973POPC   C4A23766  40.823  32.246   7.650
 4973POPC   C1B23767  41.013  32.185   8.550
 4973POPC   C2B23768  40.982  32.191   8.250
 4973POPC   C3B23769  41.037  32.152   7.950
 4973POPC   C4B23770  41.016  32.203   7.650
 4974POPC   NC323771  27.561   1.230   9.450
 4974POPC   PO423772  27.633   1.261   9.150
 4974POPC   GL123773  27.612   1.167   8.850
 4974POPC   GL223774  27.644   1.081   8.850
 4974POPC   C1A23775  27.591   1.230   8.550
 4974POPC   D2A23776  27.637   1.258   8.250
 4974POPC   C3A23777  27.605   1.254   7.950
 4974POPC   C4A23778  27.558   1.211   7.650
 4974POPC   C1B23779  27.723   0.982   8.550
 4974POPC   C2B23780  27.763   1.033   8.250
 4974POPC   C3B23781  27.731   1.014   7.950
 4974POPC   C4B23782  27.696   1.013   7.650
 4975POPC   NC323783  21.338  12.874   9.450
 4975POPC   PO423784  21.352  12.884   9.150
 4975POPC   GL123785  21.362  12.833   8.850
 4975POPC   GL223786  21.556  12.784   8.850
 4975POPC   C1A23787  21.348  12.852   8.550
 4975POPC   D2A23788  21.379  12.850   8.250
 4975POPC   C3A23789  21.425  12.899   7.950
 4975POPC   C4A23790  21.374  12.849   7.650
 4975POPC   C1B23791  21.667  12.842   8.550
 4975POPC   C2B23792  21.651  12.804   8.250
 4975POPC   C3B23793  21.612  12.774   7.950
 4975POPC   C4B23794  21.662  12.838   7.650
 4976POPC   NC323795  22.211   2.016   9.450
 4976POPC   PO423796  22.125   1.982   9.150
 4976POPC   GL123797  22.116   1.944   8.850
 4976POPC   GL223798  22.277   2.031   8.850
 4976POPC   C1A23799  22.115   2.018   8.550
 4976POPC   D2A23800  22.173   1.990   8.250
 4976POPC   C3A23801  22.179   1.994   7.950
 4976POPC   C4A23802  22.194   1.981   7.650
 4976POPC   C1B23803  22.394   2.169   8.550
 4976POPC   C2B23804  22.322   2.128   8.250
 4976POPC   C3B23805  22.349   2.095   7.950
 4976POPC   C4B23806  22.339   2.150   7.650
 4977POPC   NC323807  29.193  35.385   9.450
 4977POPC   PO423808  29.178  35.376   9.150
 4977POPC   GL123809  29.128  35.352   8.850
 4977POPC   GL223810  29.180  35.411   8.850
 4977POPC   C1A23811  29.159  35.332   8.550
 4977POPC   D2A23812  29.169  35.365   8.250
 4977POPC   C3A23813  29.148  35.321   7.950
 4977POPC   C4A23814  29.111  35.372   7.650
 4977POPC   C1B23815  29.252  35.500   8.550
 4977POPC   C2B23816  29.264  35.520   8.250
 4977POPC   C3B23817  29.279  35.514   7.950
 4977POPC   C4B23818  29.268  35.577   7.650
 4978POPC   NC323819  19.844  44.682   9.450
 4978POPC   PO423820  19.802  44.644   9.150
 4978POPC   GL123821  19.790  44.667   8.850
 4978POPC   GL223822  19.759  44.569   8.850
 4978POPC   C1A23823  19.863  44.665   8.550
 4978POPC   D2A23824  19.874  44.624   8.250
 4978POPC   C3A23825  19.867  44.710   7.950
 4978POPC   C4A23826  19.815  44.646   7.650
 4978POPC   C1B23827  19.621  44.480   8.550
 4978POPC   C2B23828  19.662  44.492   8.250
 4978POPC   C3B23829  19.653  44.470   7.950
 4978POPC   C4B23830  19.685  44.486   7.650
 4979POPC   NC323831   1.960  11.255   9.450
 4979POPC   PO423832   2.031  11.257   9.150
 4979POPC   GL123833   1.956  11.297   8.850
 4979POPC   GL223834   1.889  11.414   8.850
 4979POPC   C1A23835   1.984  11.275   8.550
 4979POPC   D2A23836   2.036  11.333   8.250
 4979POPC   C3A23837   2.038  11.270   7.950
 4979POPC   C4A23838   1.995  11.271   7.650
 4979POPC   C1B23839   1.792  11.454   8.550
 4979POPC   C2B23840   1.838  11.429   8.250
 4979POPC   C3B23841   1.761  11.437   7.950
 4979POPC   C4B23842   1.816  11.483   7.650
 4980POPC   NC323843   2.749  44.669   9.450
 4980POPC   PO423844   2.718  44.709   9.150
 4980POPC   GL123845   2.792  44.619   8.850
 4980POPC   GL223846   2.788  44.765   8.850
 4980POPC   C1A23847   2.802  44.675   8.550
 4980POPC   D2A23848   2.725  44.686   8.250
 4980POPC   C3A23849   2.794  44.622   7.950
 4980POPC   C4A23850   2.723  44.637   7.650
 4980POPC   C1B23851   2.717  44.904   8.550
 4980POPC   C2B23852   2.777  44.929   8.250
 4980POPC   C3B23853   2.710  44.936   7.950
 4980POPC   C4B23854   2.682  44.934   7.650
 4981POPC   NC323855  15.962  33.820   9.450
 4981POPC   PO423856  15.973  33.838   9.150
 4981POPC   GL123857  15.993  33.822   8.850
 4981POPC   GL223858  16.039  33.716   8.850
 4981POPC   C1A23859  15.947  33.765   8.550
 4981POPC   D2A23860  15.939  33.800   8.250
 4981POPC   C3A23861  15.946  33.785   7.950
 4981POPC   C4A23862  15.926  33.764   7.650
 4981POPC   C1B23863  16.049  33.602   8.550
 4981POPC   C2B23864  16.060  33.569   8.250
 4981POPC   C3B23865  16.034  33.567   7.950
 4981POPC   C4B23866  16.082  33.618   7.650
 4982POPC   NC323867  18.331  19.854   9.450
 4982POPC   PO423868  18.278  19.838   9.150
 4982POPC   GL123869  18.278  19.882   8.850
 4982POPC   GL223870  18.240  19.708   8.850
 4982POPC   C1A23871  18.243  19.862   8.550
 4982POPC   D2A23872  18.251  19.837   8.250
 4982POPC   C3A23873  18.319  19.884   7.950
 4982POPC   C4A23874  18.292  19.870   7.650
 4982POPC   C1B23875  18.205  19.601   8.550
 4982POPC   C2B23876  18.187  19.633   8.250
 4982POPC   C3B23877  18.180  19.585   7.950
 4982POPC   C4B23878  18.265  19.560   7.650
 4983POPC   NC323879   8.244  30.722   9.450
 4983POPC   PO423880   8.180  30.668   9.150
 4983POPC   GL123881   8.243  30.697   8.850
 4983POPC   GL223882   8.257  30.760   8.850
 4983POPC   C1A23883   8.232  30.733   8.550
 4983POPC   D2A23884   8.239  30.715   8.250
 4983POPC   C3A23885   8.198  30.724   7.950
 4983POPC   C4A23886   8.176  30.739   7.650
 4983POPC   C1B23887   8.355  30.871   8.550
 4983POPC   C2B23888   8.351  30.851   8.250
 4983POPC   C3B23889   8.396  30.880   7.950
 4983POPC   C4B23890   8.416  30.850   7.650
 4984POPC   NC323891   1.960   2.782   9.450
 4984POPC   PO423892   1.973   2.762   9.150
 4984POPC   GL123893   2.039   2.779   8.850
 4984POPC   GL223894   2.133   2.747   8.850
 4984POPC   C1A23895   2.026   2.747   8.550
 4984POPC   D2A23896   2.029   2.810   8.250
 4984POPC   C3A23897   1.991   2.789   7.950
 4984POPC   C4A23898   1.954   2.808   7.650
 4984POPC   C1B23899   2.230   2.659   8.550
 4984POPC   C2B23900   2.223   2.673   8.250
 4984POPC   C3B23901   2.245   2.621   7.950
 4984POPC   C4B23902   2.166   2.600   7.650
 4985POPC   NC323903  39.965  26.066   9.450
 4985POPC   PO423904  39.967  26.021   9.150
 4985POPC   GL123905  39.984  25.998   8.850
 4985POPC   GL223906  39.885  26.115   8.850
 4985POPC   C1A23907  39.975  26.025   8.550
 4985POPC   D2A23908  39.986  26.038   8.250
 4985POPC   C3A23909  40.017  26.039   7.950
 4985POPC   C4A23910  40.016  26.070   7.650
 4985POPC   C1B23911  39.802  26.138   8.550
 4985POPC   C2B23912  39.766  26.115   8.250
 4985POPC   C3B23913  39.757  26.090   7.950
 4985POPC   C4B23914  39.752  26.075   7.650
 4986POPC   NC323915  31.515  27.589   9.450
 4986POPC   PO423916  31.462  27.545   9.150
 4986POPC   GL123917  31.512  27.605   8.850
 4986POPC   GL223918  31.426  27.489   8.850
 4986POPC   C1A23919  31.452  27.567   8.550
 4986POPC   D2A23920  31.521  27.548   8.250
 4986POPC   C3A23921  31.427  27.585   7.950
 4986POPC   C4A23922  31.474  27.613   7.650
 4986POPC   C1B23923  31.387  27.324   8.550
 4986POPC   C2B23924  31.443  27.342   8.250
 4986POPC   C3B23925  31.429  27.363   7.950
 4986POPC   C4B23926  31.385  27.312   7.650
 4987POPC   NC323927  33.848  43.907   9.450
 4987POPC   PO423928  33.763  43.854   9.150
 4987POPC   GL123929  33.790  43.934   8.850
 4987POPC   GL223930  33.773  43.799   8.850
 4987POPC   C1A23931  33.792  43.921   8.550
 4987POPC   D2A23932  33.755  43.842   8.250
 4987POPC   C3A23933  33.835  43.891   7.950
 4987POPC   C4A23934  33.767  43.912   7.650
 4987POPC   C1B23935  33.731  43.663   8.550
 4987POPC   C2B23936  33.743  43.635   8.250
 4987POPC   C3B23937  33.729  43.652   7.950
 4987POPC   C4B23938  33.780  43.688   7.650
 4988POPC   NC323939   2.778  15.156   9.450
 4988POPC   PO423940   2.791  15.172   9.150
 4988POPC   GL123941   2.757  15.182   8.850
 4988POPC   GL223942   2.707  15.114   8.850
 4988POPC   C1A23943   2.753  15.163   8.550
 4988POPC   D2A23944   2.761  15.136   8.250
 4988POPC   C3A23945   2.797  15.190   7.950
 4988POPC   C4A23946   2.794  15.185   7.650
 4988POPC   C1B23947   2.556  14.972   8.550
 4988POPC   C2B23948   2.597  15.022   8.250
 4988POPC   C3B23949   2.586  14.972   7.950
 4988POPC   C4B23950   2.584  14.978   7.650
 4989POPC   NC323951   8.192  10.571   9.450
 4989POPC   PO423952   8.200  10.504   9.150
 4989POPC   GL123953   8.198  10.527   8.850
 4989POPC   GL223954   8.051  10.493   8.850
 4989POPC   C1A23955   8.223  10.512   8.550
 4989POPC   D2A23956   8.199  10.528   8.250
 4989POPC   C3A23957   8.199  10.485   7.950
 4989POPC   C4A23958   8.207  10.533   7.650
 4989POPC   C1B23959   8.038  10.330   8.550
 4989POPC   C2B23960   7.965  10.320   8.250
 4989POPC   C3B23961   8.003  10.332   7.950
 4989POPC   C4B23962   8.024  10.347   7.650
 4990POPC   NC323963   5.096  42.356   9.450
 4990POPC   PO423964   5.043  42.293   9.150
 4990POPC   GL123965   5.138  42.344   8.850
 4990POPC   GL223966   5.077  42.194   8.850
 4990POPC   C1A23967   5.099  42.322   8.550
 4990POPC   D2A23968   5.089  42.373   8.250
 4990POPC   C3A23969   5.130  42.344   7.950
 4990POPC   C4A23970   5.095  42.384   7.650
 4990POPC   C1B23971   4.987  42.063   8.550
 4990POPC   C2B23972   5.003  42.114   8.250
 4990POPC   C3B23973   5.012  42.049   7.950
 4990POPC   C4B23974   5.005  42.116   7.650
 4991POPC   NC323975   3.538  30.736   9.450
 4991POPC   PO423976   3.553  30.731   9.150
 4991POPC   GL123977   3.515  30.741   8.850
 4991POPC   GL223978   3.552  30.600   8.850
 4991POPC   C1A23979   3.513  30.685   8.550
 4991POPC   D2A23980   3.504  30.708   8.250
 4991POPC   C3A23981   3.556  30.737   7.950
 4991POPC   C4A23982   3.548  30.680   7.650
 4991POPC   C1B23983   3.547  30.478   8.550
 4991POPC   C2B23984   3.597  30.422   8.250
 4991POPC   C3B23985   3.592  30.488   7.950
 4991POPC   C4B23986   3.606  30.492   7.650
 4992POPC   NC323987  44.641  25.225   9.450
 4992POPC   PO423988  44.623  25.282   9.150
 4992POPC   GL123989  44.700  25.231   8.850
 4992POPC   GL223990  44.792  25.234   8.850
 4992POPC   C1A23991  44.672  25.306   8.550
 4992POPC   D2A23992  44.619  25.276   8.250
 4992POPC   C3A23993  44.684  25.255   7.950
 4992POPC   C4A23994  44.660  25.301   7.650
 4992POPC   C1B23995  44.853  25.184   8.550
 4992POPC   C2B23996  44.924  25.182   8.250
 4992POPC   C3B23997  44.884  25.135   7.950
 4992POPC   C4B23998  44.852  25.177   7.650
 4993POPC   NC323999  32.213  40.739   9.450
 4993POPC   PO424000  32.259  40.765   9.150
 4993POPC   GL124001  32.273  40.825   8.850
 4993POPC   GL224002  32.158  40.747   8.850
 4993POPC   C1A24003  32.234  40.820   8.550
 4993POPC   D2A24004  32.287  40.793   8.250
 4993POPC   C3A24005  32.245  40.763   7.950
 4993POPC   C4A24006  32.277  40.808   7.650
 4993POPC   C1B24007  32.010  40.751   8.550
 4993POPC   C2B24008  32.035  40.767   8.250
 4993POPC   C3B24009  32.050  40.747   7.950
 4993POPC   C4B24010  32.013  40.687   7.650
 4994POPC   NC324011  40.043   5.834   9.450
 4994POPC   PO424012  40.039   5.899   9.150
 4994POPC   GL124013  39.973   5.845   8.850
 4994POPC   GL224014  39.898   5.872   8.850
 4994POPC   C1A24015  40.030   5.825   8.550
 4994POPC   D2A24016  39.971   5.863   8.250
 4994POPC   C3A24017  40.043   5.856   7.950
 4994POPC   C4A24018  39.958   5.868   7.650
 4994POPC   C1B24019  39.744   5.881   8.550
 4994POPC   C2B24020  39.761   5.951   8.250
 4994POPC   C3B24021  39.781   5.928   7.950
 4994POPC   C4B24022  39.782   5.861   7.650
 4995POPC   NC324023  40.805  43.917   9.450
 4995POPC   PO424024  40.744  43.870   9.150
 4995POPC   GL124025  40.821  43.909   8.850
 4995POPC   GL224026  40.879  43.940   8.850
 4995POPC   C1A24027  40.781  43.930   8.550
 4995POPC   D2A24028  40.787  43.908   8.250
 4995POPC   C3A24029  40.813  43.931   7.950
 4995POPC   C4A24030  40.829  43.925   7.650
 4995POPC   C1B24031  40.946  44.093   8.550
 4995POPC   C2B24032  40.958  44.021   8.250
 4995POPC   C3B24033  41.023  44.034   7.950
 4995POPC   C4B24034  40.998  44.034   7.650
 4996POPC   NC324035  27.583  21.430   9.450
 4996POPC   PO424036  27.610  21.364   9.150
 4996POPC   GL124037  27.575  21.433   8.850
 4996POPC   GL224038  27.514  21.461   8.850
 4996POPC   C1A24039  27.572  21.366   8.550
 4996POPC   D2A24040  27.576  21.429   8.250
 4996POPC   C3A24041  27.628  21.378   7.950
 4996POPC   C4A24042  27.635  21.429   7.650
 4996POPC   C1B24043  27.529  21.623   8.550
 4996POPC   C2B24044  27.459  21.612   8.250
 4996POPC   C3B24045  27.450  21.573   7.950
 4996POPC   C4B24046  27.531  21.579   7.650
 4997POPC   NC324047   6.605  10.532   9.450
 4997POPC   PO424048   6.639  10.489   9.150
 4997POPC   GL124049   6.621  10.529   8.850
 4997POPC   GL224050   6.810  10.535   8.850
 4997POPC   C1A24051   6.614  10.498   8.550
 4997POPC   D2A24052   6.669  10.553   8.250
 4997POPC   C3A24053   6.687  10.558   7.950
 4997POPC   C4A24054   6.689  10.567   7.650
 4997POPC   C1B24055   6.841  10.653   8.550
 4997POPC   C2B24056   6.846  10.626   8.250
 4997POPC   C3B24057   6.836  10.566   7.950
 4997POPC   C4B24058   6.924  10.610   7.650
 4998POPC   NC324059   8.934   2.755   9.450
 4998POPC   PO424060   8.963   2.766   9.150
 4998POPC   GL124061   9.011   2.761   8.850
 4998POPC   GL224062   8.987   2.877   8.850
 4998POPC   C1A24063   9.003   2.775   8.550
 4998POPC   D2A24064   8.931   2.754   8.250
 4998POPC   C3A24065   8.968   2.723   7.950
 4998POPC   C4A24066   8.941   2.793   7.650
 4998POPC   C1B24067   8.974   2.987   8.550
 4998POPC   C2B24068   8.963   2.998   8.250
 4998POPC   C3B24069   8.903   3.058   7.950
 4998POPC   C4B24070   8.930   3.001   7.650
 4999POPC   NC324071   2.730  25.217   9.450
 4999POPC   PO424072   2.784  25.223   9.150
 4999POPC   GL124073   2.812  25.312   8.850
 4999POPC   GL224074   2.697  25.354   8.850
 4999POPC   C1A24075   2.796  25.312   8.550
 4999POPC   D2A24076   2.801  25.219   8.250
 4999POPC   C3A24077   2.758  25.277   7.950
 4999POPC   C4A24078   2.769  25.298   7.650
 4999POPC   C1B24079   2.772  25.504   8.550
 4999POPC   C2B24080   2.723  25.537   8.250
 4999POPC   C3B24081   2.752  25.464   7.950
 4999POPC   C4B24082   2.737  25.484   7.650
 5000POPC   NC324083  40.746  35.400   9.450
 5000POPC   PO424084  40.783  35.348   9.150
 5000POPC   GL124085  40.792  35.328   8.850
 5000POPC   GL224086  40.624  35.334   8.850
 5000POPC   C1A24087  40.749  35.312   8.550
 5000POPC   D2A24088  40.788  35.372   8.250
 5000POPC   C3A24089  40.737  35.346   7.950
 5000POPC   C4A24090  40.756  35.393   7.650
 5000POPC   C1B24091  40.572  35.228   8.550
 5000POPC   C2B24092  40.571  35.305   8.250
 5000POPC   C3B24093  40.574  35.231   7.950
 5000POPC   C4B24094  40.523  35.235   7.650
 5001POPC   NC324095   5.136   4.344   9.450
 5001POPC   PO424096   5.052   4.316   9.150
 5001POPC   GL124097   5.059   4.358   8.850
 5001POPC   GL224098   5.123   4.425   8.850
 5001POPC   C1A24099   5.092   4.290   8.550
 5001POPC   D2A24100   5.131   4.352   8.250
 5001POPC   C3A24101   5.111   4.304   7.950
 5001POPC   C4A24102   5.137   4.316   7.650
 5001POPC   C1B24103   5.214   4.549   8.550
 5001POPC   C2B24104   5.250   4.571   8.250
 5001POPC   C3B24105   5.275   4.555   7.950
 5001POPC   C4B24106   5.254   4.549   7.650
 5002POPC   NC324107   1.208  37.653   9.450
 5002POPC   PO424108   1.249  37.640   9.150
 5002POPC   GL124109   1.219  37.656   8.850
 5002POPC   GL224110   1.142  37.557   8.850
 5002POPC   C1A24111   1.173  37.663   8.550
 5002POPC   D2A24112   1.213  37.700   8.250
 5002POPC   C3A24113   1.240  37.709   7.950
 5002POPC   C4A24114   1.232  37.648   7.650
 5002POPC   C1B24115   1.204  37.401   8.550
 5002POPC   C2B24116   1.135  37.404   8.250
 5002POPC   C3B24117   1.144  37.419   7.950
 5002POPC   C4B24118   1.181  37.469   7.650
 5003POPC   NC324119  38.485  23.681   9.450
 5003POPC   PO424120  38.474  23.739   9.150
 5003POPC   GL124121  38.414  23.761   8.850
 5003POPC   GL224122  38.290  23.711   8.850
 5003POPC   C1A24123  38.458  23.734   8.550
 5003POPC   D2A24124  38.412  23.738   8.250
 5003POPC   C3A24125  38.479  23.692   7.950
 5003POPC   C4A24126  38.465  23.700   7.650
 5003POPC   C1B24127  38.207  23.618   8.550
 5003POPC   C2B24128  38.253  23.633   8.250
 5003POPC   C3B24129  38.224  23.583   7.950
 5003POPC   C4B24130  38.208  23.674   7.650
 5004POPC   NC324131  44.660  17.527   9.450
 5004POPC   PO424132  44.694  17.472   9.150
 5004POPC   GL124133  44.647  17.511   8.850
 5004POPC   GL224134  44.513  17.598   8.850
 5004POPC   C1A24135  44.642  17.545   8.550
 5004POPC   D2A24136  44.710  17.467   8.250
 5004POPC   C3A24137  44.620  17.466   7.950
 5004POPC   C4A24138  44.683  17.490   7.650
 5004POPC   C1B24139  44.464  17.568   8.550
 5004POPC   C2B24140  44.476  17.607   8.250
 5004POPC   C3B24141  44.452  17.646   7.950
 5004POPC   C4B24142  44.472  17.557   7.650
 5005POPC   NC324143  37.719  25.257   9.450
 5005POPC   PO424144  37.634  25.275   9.150
 5005POPC   GL124145  37.665  25.237   8.850
 5005POPC   GL224146  37.537  25.289   8.850
 5005POPC   C1A24147  37.690  25.264   8.550
 5005POPC   D2A24148  37.633  25.300   8.250
 5005POPC   C3A24149  37.643  25.256   7.950
 5005POPC   C4A24150  37.680  25.243   7.650
 5005POPC   C1B24151  37.430  25.265   8.550
 5005POPC   C2B24152  37.387  25.273   8.250
 5005POPC   C3B24153  37.468  25.229   7.950
 5005POPC   C4B24154  37.437  25.236   7.650
 5006POPC   NC324155  42.371  43.075   9.450
 5006POPC   PO424156  42.335  43.150   9.150
 5006POPC   GL124157  42.302  43.100   8.850
 5006POPC   GL224158  42.447  43.104   8.850
 5006POPC   C1A24159  42.369  43.097   8.550
 5006POPC   D2A24160  42.289  43.088   8.250
 5006POPC   C3A24161  42.323  43.107   7.950
 5006POPC   C4A24162  42.361  43.069   7.650
 5006POPC   C1B24163  42.545  43.116   8.550
 5006POPC   C2B24164  42.561  43.113   8.250
 5006POPC   C3B24165  42.579  43.105   7.950
 5006POPC   C4B24166  42.564  43.117   7.650
 5007POPC   NC324167  36.920  26.777   9.450
 5007POPC   PO424168  36.907  26.810   9.150
 5007POPC   GL124169  36.897  26.809   8.850
 5007POPC   GL224170  36.990  26.821   8.850
 5007POPC   C1A24171  36.948  26.823   8.550
 5007POPC   D2A24172  36.948  26.859   8.250
 5007POPC   C3A24173  36.858  26.794   7.950
 5007POPC   C4A24174  36.861  26.851   7.650
 5007POPC   C1B24175  37.177  26.868   8.550
 5007POPC   C2B24176  37.111  26.816   8.250
 5007POPC   C3B24177  37.183  26.803   7.950
 5007POPC   C4B24178  37.188  26.812   7.650
 5008POPC   NC324179   0.410  31.472   9.450
 5008POPC   PO424180   0.388  31.481   9.150
 5008POPC   GL124181   0.391  31.472   8.850
 5008POPC   GL224182   0.356  31.442   8.850
 5008POPC   C1A24183   0.470  31.456   8.550
 5008POPC   D2A24184   0.475  31.432   8.250
 5008POPC   C3A24185   0.432  31.508   7.950
 5008POPC   C4A24186   0.453  31.449   7.650
 5008POPC   C1B24187   0.205  31.313   8.550
 5008POPC   C2B24188   0.194  31.304   8.250
 5008POPC   C3B24189   0.237  31.346   7.950
 5008POPC   C4B24190   0.248  31.366   7.650
 5009POPC   NC324191  26.842  11.341   9.450
 5009POPC   PO424192  26.813  11.336   9.150
 5009POPC   GL124193  26.848  11.314   8.850
 5009POPC   GL224194  26.714  11.223   8.850
 5009POPC   C1A24195  26.858  11.303   8.550
 5009POPC   D2A24196  26.800  11.311   8.250
 5009POPC   C3A24197  26.810  11.335   7.950
 5009POPC   C4A24198  26.810  11.319   7.650
 5009POPC   C1B24199  26.637  11.112   8.550
 5009POPC   C2B24200  26.617  11.201   8.250
 5009POPC   C3B24201  26.631  11.186   7.950
 5009POPC   C4B24202  26.644  11.191   7.650
 5010POPC   NC324203   7.406  23.732   9.450
 5010POPC   PO424204   7.428  23.689   9.150
 5010POPC   GL124205   7.443  23.763   8.850
 5010POPC   GL224206   7.510  23.645   8.850
 5010POPC   C1A24207   7.428  23.713   8.550
 5010POPC   D2A24208   7.419  23.752   8.250
 5010POPC   C3A24209   7.445  23.679   7.950
 5010POPC   C4A24210   7.420  23.729   7.650
 5010POPC   C1B24211   7.667  23.545   8.550
 5010POPC   C2B24212   7.670  23.582   8.250
 5010POPC   C3B24213   7.620  23.559   7.950
 5010POPC   C4B24214   7.631  23.562   7.650
 5011POPC   NC324215   2.726   2.000   9.450
 5011POPC   PO424216   2.756   2.037   9.150
 5011POPC   GL124217   2.787   1.969   8.850
 5011POPC   GL224218   2.601   2.007   8.850
 5011POPC   C1A24219   2.736   2.020   8.550
 5011POPC   D2A24220   2.765   2.038   8.250
 5011POPC   C3A24221   2.744   2.028   7.950
 5011POPC   C4A24222   2.754   1.973   7.650
 5011POPC   C1B24223   2.547   2.026   8.550
 5011POPC   C2B24224   2.550   2.071   8.250
 5011POPC   C3B24225   2.483   2.017   7.950
 5011POPC   C4B24226   2.567   2.066   7.650
 5012POPC   NC324227  26.007  15.943   9.450
 5012POPC   PO424228  26.028  15.997   9.150
 5012POPC   GL124229  26.000  15.974   8.850
 5012POPC   GL224230  25.983  16.020   8.850
 5012POPC   C1A24231  26.084  15.971   8.550
 5012POPC   D2A24232  26.066  15.977   8.250
 5012POPC   C3A24233  25.992  15.948   7.950
 5012POPC   C4A24234  26.087  15.964   7.650
 5012POPC   C1B24235  25.969  16.160   8.550
 5012POPC   C2B24236  25.898  16.126   8.250
 5012POPC   C3B24237  25.900  16.148   7.950
 5012POPC   C4B24238  25.908  16.172   7.650
 5013POPC   NC324239   7.419  33.772   9.450
 5013POPC   PO424240   7.448  33.795   9.150
 5013POPC   GL124241   7.383  33.835   8.850
 5013POPC   GL224242   7.475  33.768   8.850
 5013POPC   C1A24243   7.450  33.763   8.550
 5013POPC   D2A24244   7.461  33.782   8.250
 5013POPC   C3A24245   7.455  33.792   7.950
 5013POPC   C4A24246   7.426  33.774   7.650
 5013POPC   C1B24247   7.641  33.628   8.550
 5013POPC   C2B24248   7.590  33.627   8.250
 5013POPC   C3B24249   7.588  33.658   7.950
 5013POPC   C4B24250   7.581  33.638   7.650
 5014POPC   NC324251  12.098  36.158   9.450
 5014POPC   PO424252  12.057  36.094   9.150
 5014POPC   GL124253  12.079  36.081   8.850
 5014POPC   GL224254  12.168  36.197   8.850
 5014POPC   C1A24255  12.027  36.111   8.550
 5014POPC   D2A24256  12.105  36.102   8.250
 5014POPC   C3A24257  12.033  36.131   7.950
 5014POPC   C4A24258  12.080  36.085   7.650
 5014POPC   C1B24259  12.245  36.304   8.550
 5014POPC   C2B24260  12.282  36.321   8.250
 5014POPC   C3B24261  12.210  36.334   7.950
 5014POPC   C4B24262  12.266  36.335   7.650
 5015POPC   NC324263  24.535  17.510   9.450
 5015POPC   PO424264  24.443  17.491   9.150
 5015POPC   GL124265  24.503  17.477   8.850
 5015POPC   GL224266  24.340  17.542   8.850
 5015POPC   C1A24267  24.492  17.552   8.550
 5015POPC   D2A24268  24.492  17.499   8.250
 5015POPC   C3A24269  24.508  17.548   7.950
 5015POPC   C4A24270  24.471  17.493   7.650
 5015POPC   C1B24271  24.209  17.456   8.550
 5015POPC   C2B24272  24.197  17.505   8.250
 5015POPC   C3B24273  24.246  17.548   7.950
 5015POPC   C4B24274  24.271  17.484   7.650
 5016POPC   NC324275  24.532  29.921   9.450
 5016POPC   PO424276  24.484  29.937   9.150
 5016POPC   GL124277  24.512  29.936   8.850
 5016POPC   GL224278  24.370  30.011   8.850
 5016POPC   C1A24279  24.488  29.873   8.550
 5016POPC   D2A24280  24.460  29.873   8.250
 5016POPC   C3A24281  24.487  29.902   7.950
 5016POPC   C4A24282  24.444  29.933   7.650
 5016POPC   C1B24283  24.259  30.067   8.550
 5016POPC   C2B24284  24.237  30.038   8.250
 5016POPC   C3B24285  24.298  30.080   7.950
 5016POPC   C4B24286  24.233  30.035   7.650
 5017POPC   NC324287  33.060   8.966   9.450
 5017POPC   PO424288  33.044   9.011   9.150
 5017POPC   GL124289  33.040   8.952   8.850
 5017POPC   GL224290  32.874   8.930   8.850
 5017POPC   C1A24291  32.996   8.990   8.550
 5017POPC   D2A24292  33.017   8.978   8.250
 5017POPC   C3A24293  33.053   8.999   7.950
 5017POPC   C4A24294  32.986   8.980   7.650
 5017POPC   C1B24295  32.801   8.967   8.550
 5017POPC   C2B24296  32.754   8.948   8.250
 5017POPC   C3B24297  32.732   8.938   7.950
 5017POPC   C4B24298  32.812   8.922   7.650
 5018POPC   NC324299  26.857  39.220   9.450
 5018POPC   PO424300  26.774  39.244   9.150
 5018POPC   GL124301  26.791  39.195   8.850
 5018POPC   GL224302  26.764  39.082   8.850
 5018POPC   C1A24303  26.854  39.202   8.550
 5018POPC   D2A24304  26.833  39.190   8.250
 5018POPC   C3A24305  26.819  39.227   7.950
 5018POPC   C4A24306  26.791  39.204   7.650
 5018POPC   C1B24307  26.834  38.981   8.550
 5018POPC   C2B24308  26.813  39.026   8.250
 5018POPC   C3B24309  26.836  38.933   7.950
 5018POPC   C4B24310  26.760  39.027   7.650
 5019POPC   NC324311  33.007  37.695   9.450
 5019POPC   PO424312  32.981  37.694   9.150
 5019POPC   GL124313  32.980  37.700   8.850
 5019POPC   GL224314  32.900  37.616   8.850
 5019POPC   C1A24315  33.004  37.707   8.550
 5019POPC   D2A24316  32.986  37.670   8.250
 5019POPC   C3A24317  33.020  37.684   7.950
 5019POPC   C4A24318  33.021  37.656   7.650
 5019POPC   C1B24319  32.760  37.608   8.550
 5019POPC   C2B24320  32.835  37.600   8.250
 5019POPC   C3B24321  32.802  37.519   7.950
 5019POPC   C4B24322  32.773  37.585   7.650
 5020POPC   NC324323  24.504   1.239   9.450
 5020POPC   PO424324  24.472   1.228   9.150
 5020POPC   GL124325  24.507   1.184   8.850
 5020POPC   GL224326  24.552   1.290   8.850
 5020POPC   C1A24327  24.452   1.182   8.550
 5020POPC   D2A24328  24.527   1.251   8.250
 5020POPC   C3A24329  24.476   1.251   7.950
 5020POPC   C4A24330  24.440   1.189   7.650
 5020POPC   C1B24331  24.561   1.508   8.550
 5020POPC   C2B24332  24.540   1.512   8.250
 5020POPC   C3B24333  24.470   1.458   7.950
 5020POPC   C4B24334  24.513   1.498   7.650
 5021POPC   NC324335  27.544  36.915   9.450
 5021POPC   PO424336  27.586  36.870   9.150
 5021POPC   GL124337  27.561  36.894   8.850
 5021POPC   GL224338  27.685  36.974   8.850
 5021POPC   C1A24339  27.587  36.920   8.550
 5021POPC   D2A24340  27.585  36.906   8.250
 5021POPC   C3A24341  27.548  36.935   7.950
 5021POPC   C4A24342  27.595  36.912   7.650
 5021POPC   C1B24343  27.695  37.094   8.550
 5021POPC   C2B24344  27.687  37.148   8.250
 5021POPC   C3B24345  27.691  37.130   7.950
 5021POPC   C4B24346  27.763  37.093   7.650
 5022POPC   NC324347  21.353  14.397   9.450
 5022POPC   PO424348  21.395  14.448   9.150
 5022POPC   GL124349  21.344  14.362   8.850
 5022POPC   GL224350  21.332  14.251   8.850
 5022POPC   C1A24351  21.395  14.443   8.550
 5022POPC   D2A24352  21.431  14.396   8.250
 5022POPC   C3A24353  21.427  14.445   7.950
 5022POPC   C4A24354  21.403  14.441   7.650
 5022POPC   C1B24355  21.292  14.242   8.550
 5022POPC   C2B24356  21.274  14.191   8.250
 5022POPC   C3B24357  21.242  14.205   7.950
 5022POPC   C4B24358  21.273  14.185   7.650
 5023POPC   NC324359  13.578  43.078   9.450
 5023POPC   PO424360  13.637  43.135   9.150
 5023POPC   GL124361  13.664  43.153   8.850
 5023POPC   GL224362  13.625  43.245   8.850
 5023POPC   C1A24363  13.649  43.129   8.550
 5023POPC   D2A24364  13.655  43.106   8.250
 5023POPC   C3A24365  13.672  43.136   7.950
 5023POPC   C4A24366  13.637  43.096   7.650
 5023POPC   C1B24367  13.562  43.312   8.550
 5023POPC   C2B24368  13.610  43.330   8.250
 5023POPC   C3B24369  13.535  43.312   7.950
 5023POPC   C4B24370  13.554  43.389   7.650
 5024POPC   NC324371  27.567  43.097   9.450
 5024POPC   PO424372  27.594  43.065   9.150
 5024POPC   GL124373  27.635  43.151   8.850
 5024POPC   GL224374  27.649  43.185   8.850
 5024POPC   C1A24375  27.579  43.095   8.550
 5024POPC   D2A24376  27.609  43.122   8.250
 5024POPC   C3A24377  27.560  43.095   7.950
 5024POPC   C4A24378  27.643  43.139   7.650
 5024POPC   C1B24379  27.701  43.344   8.550
 5024POPC   C2B24380  27.703  43.315   8.250
 5024POPC   C3B24381  27.715  43.286   7.950
 5024POPC   C4B24382  27.696  43.383   7.650
 5025POPC   NC324383   9.780  15.177   9.450
 5025POPC   PO424384   9.722  15.144   9.150
 5025POPC   GL124385   9.785  15.202   8.850
 5025POPC   GL224386   9.677  15.226   8.850
 5025POPC   C1A24387   9.796  15.160   8.550
 5025POPC   D2A24388   9.714  15.173   8.250
 5025POPC   C3A24389   9.716  15.140   7.950
 5025POPC   C4A24390   9.739  15.205   7.650
 5025POPC   C1B24391   9.542  15.331   8.550
 5025POPC   C2B24392   9.512  15.368   8.250
 5025POPC   C3B24393   9.528  15.345   7.950
 5025POPC   C4B24394   9.529  15.310   7.650
 5026POPC   NC324395  33.804  43.152   9.450
 5026POPC   PO424396  33.824  43.156   9.150
 5026POPC   GL124397  33.812  43.150   8.850
 5026POPC   GL224398  33.968  43.029   8.850
 5026POPC   C1A24399  33.814  43.107   8.550
 5026POPC   D2A24400  33.782  43.151   8.250
 5026POPC   C3A24401  33.783  43.093   7.950
 5026POPC   C4A24402  33.757  43.075   7.650
 5026POPC   C1B24403  34.001  43.017   8.550
 5026POPC   C2B24404  34.083  43.017   8.250
 5026POPC   C3B24405  34.040  43.047   7.950
 5026POPC   C4B24406  34.041  43.054   7.650
 5027POPC   NC324407  12.084  41.569   9.450
 5027POPC   PO424408  12.037  41.516   9.150
 5027POPC   GL124409  12.126  41.604   8.850
 5027POPC   GL224410  12.021  41.635   8.850
 5027POPC   C1A24411  12.031  41.565   8.550
 5027POPC   D2A24412  12.062  41.550   8.250
 5027POPC   C3A24413  12.123  41.522   7.950
 5027POPC   C4A24414  12.064  41.554   7.650
 5027POPC   C1B24415  11.991  41.808   8.550
 5027POPC   C2B24416  12.020  41.773   8.250
 5027POPC   C3B24417  12.003  41.810   7.950
 5027POPC   C4B24418  11.962  41.799   7.650
 5028POPC   NC324419  44.690  18.266   9.450
 5028POPC   PO424420  44.663  18.250   9.150
 5028POPC   GL124421  44.677  18.283   8.850
 5028POPC   GL224422  44.663  18.394   8.850
 5028POPC   C1A24423  44.617  18.283   8.550
 5028POPC   D2A24424  44.660  18.233   8.250
 5028POPC   C3A24425  44.702  18.308   7.950
 5028POPC   C4A24426  44.706  18.276   7.650
 5028POPC   C1B24427  44.790  18.561   8.550
 5028POPC   C2B24428  44.764  18.484   8.250
 5028POPC   C3B24429  44.711  18.479   7.950
 5028POPC   C4B24430  44.722  18.478   7.650
 5029POPC   NC324431   7.392  37.709   9.450
 5029POPC   PO424432   7.379  37.725   9.150
 5029POPC   GL124433   7.469  37.709   8.850
 5029POPC   GL224434   7.373  37.562   8.850
 5029POPC   C1A24435   7.397  37.685   8.550
 5029POPC   D2A24436   7.447  37.705   8.250
 5029POPC   C3A24437   7.460  37.722   7.950
 5029POPC   C4A24438   7.465  37.688   7.650
 5029POPC   C1B24439   7.384  37.401   8.550
 5029POPC   C2B24440   7.370  37.445   8.250
 5029POPC   C3B24441   7.386  37.438   7.950
 5029POPC   C4B24442   7.322  37.411   7.650
 5030POPC   NC324443   6.632  29.940   9.450
 5030POPC   PO424444   6.690  29.912   9.150
 5030POPC   GL124445   6.596  29.880   8.850
 5030POPC   GL224446   6.665  29.815   8.850
 5030POPC   C1A24447   6.611  29.934   8.550
 5030POPC   D2A24448   6.603  29.921   8.250
 5030POPC   C3A24449   6.639  29.939   7.950
 5030POPC   C4A24450   6.691  29.953   7.650
 5030POPC   C1B24451   6.664  29.668   8.550
 5030POPC   C2B24452   6.664  29.689   8.250
 5030POPC   C3B24453   6.580  29.696   7.950
 5030POPC   C4B24454   6.623  29.659   7.650
 5031POPC   NC324455  26.850  23.733   9.450
 5031POPC   PO424456  26.806  23.695   9.150
 5031POPC   GL124457  26.836  23.760   8.850
 5031POPC   GL224458  26.862  23.578   8.850
 5031POPC   C1A24459  26.860  23.731   8.550
 5031POPC   D2A24460  26.792  23.707   8.250
 5031POPC   C3A24461  26.840  23.694   7.950
 5031POPC   C4A24462  26.802  23.723   7.650
 5031POPC   C1B24463  26.930  23.507   8.550
 5031POPC   C2B24464  26.912  23.450   8.250
 5031POPC   C3B24465  26.914  23.443   7.950
 5031POPC   C4B24466  26.877  23.475   7.650
 5032POPC   NC324467   9.720  20.564   9.450
 5032POPC   PO424468   9.759  20.572   9.150
 5032POPC   GL124469   9.705  20.566   8.850
 5032POPC   GL224470   9.712  20.521   8.850
 5032POPC   C1A24471   9.781  20.600   8.550
 5032POPC   D2A24472   9.755  20.589   8.250
 5032POPC   C3A24473   9.758  20.628   7.950
 5032POPC   C4A24474   9.707  20.635   7.650
 5032POPC   C1B24475   9.681  20.400   8.550
 5032POPC   C2B24476   9.714  20.409   8.250
 5032POPC   C3B24477   9.703  20.339   7.950
 5032POPC   C4B24478   9.691  20.336   7.650
 5033POPC   NC324479  35.342  43.870   9.450
 5033POPC   PO424480  35.400  43.846   9.150
 5033POPC   GL124481  35.312  43.903   8.850
 5033POPC   GL224482  35.422  44.042   8.850
 5033POPC   C1A24483  35.336  43.927   8.550
 5033POPC   D2A24484  35.316  43.933   8.250
 5033POPC   C3A24485  35.354  43.891   7.950
 5033POPC   C4A24486  35.402  43.855   7.650
 5033POPC   C1B24487  35.482  44.110   8.550
 5033POPC   C2B24488  35.476  44.120   8.250
 5033POPC   C3B24489  35.444  44.104   7.950
 5033POPC   C4B24490  35.491  44.145   7.650
 5034POPC   NC324491  44.641  32.982   9.450
 5034POPC   PO424492  44.686  33.014   9.150
 5034POPC   GL124493  44.673  33.030   8.850
 5034POPC   GL224494  44.699  32.898   8.850
 5034POPC   C1A24495  44.662  33.063   8.550
 5034POPC   D2A24496  44.624  32.987   8.250
 5034POPC   C3A24497  44.649  33.070   7.950
 5034POPC   C4A24498  44.689  33.071   7.650
 5034POPC   C1B24499  44.823  32.840   8.550
 5034POPC   C2B24500  44.741  32.775   8.250
 5034POPC   C3B24501  44.830  32.768   7.950
 5034POPC   C4B24502  44.801  32.808   7.650
 5035POPC   NC324503  36.113   2.761   9.450
 5035POPC   PO424504  36.165   2.793   9.150
 5035POPC   GL124505  36.148   2.761   8.850
 5035POPC   GL224506  36.106   2.900   8.850
 5035POPC   C1A24507  36.170   2.749   8.550
 5035POPC   D2A24508  36.159   2.723   8.250
 5035POPC   C3A24509  36.171   2.785   7.950
 5035POPC   C4A24510  36.159   2.789   7.650
 5035POPC   C1B24511  36.053   2.970   8.550
 5035POPC   C2B24512  36.091   3.048   8.250
 5035POPC   C3B24513  36.062   3.041   7.950
 5035POPC   C4B24514  36.045   2.972   7.650
 5036POPC   NC324515   5.895   1.214   9.450
 5036POPC   PO424516   5.849   1.180   9.150
 5036POPC   GL124517   5.880   1.252   8.850
 5036POPC   GL224518   5.766   1.225   8.850
 5036POPC   C1A24519   5.836   1.222   8.550
 5036POPC   D2A24520   5.844   1.207   8.250
 5036POPC   C3A24521   5.897   1.206   7.950
 5036POPC   C4A24522   5.918   1.231   7.650
 5036POPC   C1B24523   5.657   1.113   8.550
 5036POPC   C2B24524   5.593   1.192   8.250
 5036POPC   C3B24525   5.595   1.197   7.950
 5036POPC   C4B24526   5.622   1.173   7.650
 5037POPC   NC324527  15.227  33.850   9.450
 5037POPC   PO424528  15.143  33.810   9.150
 5037POPC   GL124529  15.215  33.818   8.850
 5037POPC   GL224530  15.241  33.729   8.850
 5037POPC   C1A24531  15.175  33.836   8.550
 5037POPC   D2A24532  15.148  33.781   8.250
 5037POPC   C3A24533  15.170  33.800   7.950
 5037POPC   C4A24534  15.195  33.794   7.650
 5037POPC   C1B24535  15.383  33.617   8.550
 5037POPC   C2B24536  15.381  33.644   8.250
 5037POPC   C3B24537  15.360  33.566   7.950
 5037POPC   C4B24538  15.380  33.658   7.650
 5038POPC   NC324539   1.252   1.966   9.450
 5038POPC   PO424540   1.239   1.967   9.150
 5038POPC   GL124541   1.197   1.983   8.850
 5038POPC   GL224542   1.144   1.874   8.850
 5038POPC   C1A24543   1.243   1.998   8.550
 5038POPC   D2A24544   1.184   1.957   8.250
 5038POPC   C3A24545   1.189   2.037   7.950
 5038POPC   C4A24546   1.167   1.989   7.650
 5038POPC   C1B24547   1.029   1.878   8.550
 5038POPC   C2B24548   1.002   1.878   8.250
 5038POPC   C3B24549   0.999   1.847   7.950
 5038POPC   C4B24550   1.006   1.853   7.650
 5039POPC   NC324551  33.006  26.774   9.450
 5039POPC   PO424552  33.032  26.867   9.150
 5039POPC   GL124553  33.065  26.795   8.850
 5039POPC   GL224554  33.100  26.905   8.850
 5039POPC   C1A24555  33.039  26.826   8.550
 5039POPC   D2A24556  33.033  26.823   8.250
 5039POPC   C3A24557  33.065  26.836   7.950
 5039POPC   C4A24558  33.008  26.836   7.650
 5039POPC   C1B24559  33.272  26.899   8.550
 5039POPC   C2B24560  33.247  26.960   8.250
 5039POPC   C3B24561  33.213  26.929   7.950
 5039POPC   C4B24562  33.292  26.936   7.650
 5040POPC   NC324563  44.666  24.456   9.450
 5040POPC   PO424564  44.695  24.508   9.150
 5040POPC   GL124565  44.697  24.453   8.850
 5040POPC   GL224566  44.770  24.463   8.850
 5040POPC   C1A24567  44.658  24.499   8.550
 5040POPC   D2A24568  44.638  24.526   8.250
 5040POPC   C3A24569  44.692  24.538   7.950
 5040POPC   C4A24570  44.631  24.462   7.650
 5040POPC   C1B24571  44.889  24.518   8.550
 5040POPC   C2B24572  44.958  24.516   8.250
 5040POPC   C3B24573  44.863  24.540   7.950
 5040POPC   C4B24574  44.947  24.480   7.650
 5041POPC   NC324575   8.989  19.042   9.450
 5041POPC   PO424576   9.011  19.077   9.150
 5041POPC   GL124577   8.930  19.044   8.850
 5041POPC   GL224578   8.803  18.994   8.850
 5041POPC   C1A24579   8.967  19.055   8.550
 5041POPC   D2A24580   8.987  19.072   8.250
 5041POPC   C3A24581   8.927  19.100   7.950
 5041POPC   C4A24582   8.991  19.039   7.650
 5041POPC   C1B24583   8.729  19.038   8.550
 5041POPC   C2B24584   8.739  18.993   8.250
 5041POPC   C3B24585   8.774  19.030   7.950
 5041POPC   C4B24586   8.729  19.020   7.650
 5042POPC   NC324587  21.419  34.577   9.450
 5042POPC   PO424588  21.434  34.542   9.150
 5042POPC   GL124589  21.349  34.597   8.850
 5042POPC   GL224590  21.406  34.741   8.850
 5042POPC   C1A24591  21.386  34.586   8.550
 5042POPC   D2A24592  21.425  34.559   8.250
 5042POPC   C3A24593  21.391  34.555   7.950
 5042POPC   C4A24594  21.410  34.603   7.650
 5042POPC   C1B24595  21.441  34.860   8.550
 5042POPC   C2B24596  21.451  34.854   8.250
 5042POPC   C3B24597  21.468  34.774   7.950
 5042POPC   C4B24598  21.462  34.859   7.650
 5043POPC   NC324599  32.271   0.441   9.450
 5043POPC   PO424600  32.276   0.411   9.150
 5043POPC   GL124601  32.219   0.446   8.850
 5043POPC   GL224602  32.104   0.439   8.850
 5043POPC   C1A24603  32.229   0.464   8.550
 5043POPC   D2A24604  32.246   0.407   8.250
 5043POPC   C3A24605  32.208   0.462   7.950
 5043POPC   C4A24606  32.295   0.466   7.650
 5043POPC   C1B24607  32.012   0.516   8.550
 5043POPC   C2B24608  32.037   0.477   8.250
 5043POPC   C3B24609  32.050   0.493   7.950
 5043POPC   C4B24610  32.045   0.509   7.650
 5044POPC   NC324611  34.620  31.482   9.450
 5044POPC   PO424612  34.614  31.464   9.150
 5044POPC   GL124613  34.579  31.446   8.850
 5044POPC   GL224614  34.660  31.397   8.850
 5044POPC   C1A24615  34.538  31.482   8.550
 5044POPC   D2A24616  34.576  31.510   8.250
 5044POPC   C3A24617  34.623  31.469   7.950
 5044POPC   C4A24618  34.614  31.486   7.650
 5044POPC   C1B24619  34.846  31.375   8.550
 5044POPC   C2B24620  34.852  31.355   8.250
 5044POPC   C3B24621  34.832  31.385   7.950
 5044POPC   C4B24622  34.823  31.388   7.650
 5045POPC   NC324623  40.817  30.704   9.450
 5045POPC   PO424624  40.782  30.746   9.150
 5045POPC   GL124625  40.759  30.725   8.850
 5045POPC   GL224626  40.766  30.552   8.850
 5045POPC   C1A24627  40.793  30.682   8.550
 5045POPC   D2A24628  40.750  30.661   8.250
 5045POPC   C3A24629  40.825  30.698   7.950
 5045POPC   C4A24630  40.818  30.654   7.650
 5045POPC   C1B24631  40.810  30.463   8.550
 5045POPC   C2B24632  40.762  30.475   8.250
 5045POPC   C3B24633  40.843  30.400   7.950
 5045POPC   C4B24634  40.747  30.475   7.650
 5046POPC   NC324635  42.327  20.572   9.450
 5046POPC   PO424636  42.325  20.564   9.150
 5046POPC   GL124637  42.337  20.604   8.850
 5046POPC   GL224638  42.234  20.552   8.850
 5046POPC   C1A24639  42.340  20.645   8.550
 5046POPC   D2A24640  42.335  20.629   8.250
 5046POPC   C3A24641  42.302  20.617   7.950
 5046POPC   C4A24642  42.306  20.576   7.650
 5046POPC   C1B24643  42.222  20.424   8.550
 5046POPC   C2B24644  42.225  20.447   8.250
 5046POPC   C3B24645  42.188  20.354   7.950
 5046POPC   C4B24646  42.157  20.396   7.650
 5047POPC   NC324647  33.842  10.499   9.450
 5047POPC   PO424648  33.775  10.545   9.150
 5047POPC   GL124649  33.777  10.477   8.850
 5047POPC   GL224650  33.710  10.500   8.850
 5047POPC   C1A24651  33.822  10.525   8.550
 5047POPC   D2A24652  33.806  10.512   8.250
 5047POPC   C3A24653  33.803  10.564   7.950
 5047POPC   C4A24654  33.778  10.564   7.650
 5047POPC   C1B24655  33.523  10.619   8.550
 5047POPC   C2B24656  33.559  10.603   8.250
 5047POPC   C3B24657  33.513  10.523   7.950
 5047POPC   C4B24658  33.524  10.617   7.650
 5048POPC   NC324659  33.800  39.961   9.450
 5048POPC   PO424660  33.815  39.999   9.150
 5048POPC   GL124661  33.815  39.999   8.850
 5048POPC   GL224662  33.964  40.026   8.850
 5048POPC   C1A24663  33.822  39.961   8.550
 5048POPC   D2A24664  33.843  39.977   8.250
 5048POPC   C3A24665  33.843  40.036   7.950
 5048POPC   C4A24666  33.793  40.008   7.650
 5048POPC   C1B24667  34.091  39.963   8.550
 5048POPC   C2B24668  34.076  39.932   8.250
 5048POPC   C3B24669  33.998  39.952   7.950
 5048POPC   C4B24670  34.039  39.955   7.650
 5049POPC   NC324671  40.751  29.966   9.450
 5049POPC   PO424672  40.787  29.938   9.150
 5049POPC   GL124673  40.793  29.913   8.850
 5049POPC   GL224674  40.928  29.839   8.850
 5049POPC   C1A24675  40.824  29.936   8.550
 5049POPC   D2A24676  40.760  29.907   8.250
 5049POPC   C3A24677  40.741  29.906   7.950
 5049POPC   C4A24678  40.747  29.964   7.650
 5049POPC   C1B24679  40.948  29.747   8.550
 5049POPC   C2B24680  40.973  29.796   8.250
 5049POPC   C3B24681  40.929  29.776   7.950
 5049POPC   C4B24682  40.933  29.780   7.650
 5050POPC   NC324683  30.665  29.953   9.450
 5050POPC   PO424684  30.678  29.962   9.150
 5050POPC   GL124685  30.722  29.932   8.850
 5050POPC   GL224686  30.560  29.976   8.850
 5050POPC   C1A24687  30.675  29.953   8.550
 5050POPC   D2A24688  30.703  29.884   8.250
 5050POPC   C3A24689  30.701  29.969   7.950
 5050POPC   C4A24690  30.679  29.963   7.650
 5050POPC   C1B24691  30.499  30.086   8.550
 5050POPC   C2B24692  30.554  30.080   8.250
 5050POPC   C3B24693  30.532  30.132   7.950
 5050POPC   C4B24694  30.473  30.085   7.650
 5051POPC   NC324695  31.456  43.137   9.450
 5051POPC   PO424696  31.440  43.067   9.150
 5051POPC   GL124697  31.493  43.148   8.850
 5051POPC   GL224698  31.485  43.234   8.850
 5051POPC   C1A24699  31.497  43.098   8.550
 5051POPC   D2A24700  31.466  43.080   8.250
 5051POPC   C3A24701  31.487  43.130   7.950
 5051POPC   C4A24702  31.519  43.099   7.650
 5051POPC   C1B24703  31.428  43.355   8.550
 5051POPC   C2B24704  31.401  43.335   8.250
 5051POPC   C3B24705  31.374  43.372   7.950
 5051POPC   C4B24706  31.392  43.353   7.650
 5052POPC   NC324707  41.600   7.399   9.450
 5052POPC   PO424708  41.575   7.456   9.150
 5052POPC   GL124709  41.535   7.409   8.850
 5052POPC   GL224710  41.605   7.317   8.850
 5052POPC   C1A24711  41.534   7.427   8.550
 5052POPC   D2A24712  41.608   7.420   8.250
 5052POPC   C3A24713  41.543   7.371   7.950
 5052POPC   C4A24714  41.558   7.394   7.650
 5052POPC   C1B24715  41.735   7.252   8.550
 5052POPC   C2B24716  41.745   7.204   8.250
 5052POPC   C3B24717  41.698   7.207   7.950
 5052POPC   C4B24718  41.706   7.196   7.650
 5053POPC   NC324719  29.120  11.289   9.450
 5053POPC   PO424720  29.170  11.309   9.150
 5053POPC   GL124721  29.165  11.268   8.850
 5053POPC   GL224722  29.027  11.308   8.850
 5053POPC   C1A24723  29.166  11.306   8.550
 5053POPC   D2A24724  29.101  11.293   8.250
 5053POPC   C3A24725  29.103  11.255   7.950
 5053POPC   C4A24726  29.188  11.286   7.650
 5053POPC   C1B24727  28.898  11.296   8.550
 5053POPC   C2B24728  28.926  11.338   8.250
 5053POPC   C3B24729  28.891  11.257   7.950
 5053POPC   C4B24730  28.929  11.333   7.650
 5054POPC   NC324731   7.389  44.647   9.450
 5054POPC   PO424732   7.452  44.674   9.150
 5054POPC   GL124733   7.427  44.655   8.850
 5054POPC   GL224734   7.271  44.690   8.850
 5054POPC   C1A24735   7.458  44.667   8.550
 5054POPC   D2A24736   7.410  44.641   8.250
 5054POPC   C3A24737   7.409  44.708   7.950
 5054POPC   C4A24738   7.441  44.635   7.650
 5054POPC   C1B24739   7.122  44.673   8.550
 5054POPC   C2B24740   7.124  44.612   8.250
 5054POPC   C3B24741   7.137  44.622   7.950
 5054POPC   C4B24742   7.191  44.703   7.650
 5055POPC   NC324743  12.845  11.279   9.450
 5055POPC   PO424744  12.818  11.262   9.150
 5055POPC   GL124745  12.811  11.322   8.850
 5055POPC   GL224746  12.855  11.431   8.850
 5055POPC   C1A24747  12.827  11.346   8.550
 5055POPC   D2A24748  12.858  11.268   8.250
 5055POPC   C3A24749  12.805  11.302   7.950
 5055POPC   C4A24750  12.810  11.269   7.650
 5055POPC   C1B24751  12.776  11.507   8.550
 5055POPC   C2B24752  12.781  11.543   8.250
 5055POPC   C3B24753  12.773  11.545   7.950
 5055POPC   C4B24754  12.819  11.580   7.650
 5056POPC   NC324755  19.842  38.413   9.450
 5056POPC   PO424756  19.816  38.449   9.150
 5056POPC   GL124757  19.826  38.432   8.850
 5056POPC   GL224758  19.891  38.531   8.850
 5056POPC   C1A24759  19.858  38.414   8.550
 5056POPC   D2A24760  19.838  38.481   8.250
 5056POPC   C3A24761  19.838  38.414   7.950
 5056POPC   C4A24762  19.880  38.483   7.650
 5056POPC   C1B24763  20.006  38.690   8.550
 5056POPC   C2B24764  19.945  38.627   8.250
 5056POPC   C3B24765  19.959  38.625   7.950
 5056POPC   C4B24766  19.981  38.670   7.650
 5057POPC   NC324767  37.652   2.743   9.450
 5057POPC   PO424768  37.725   2.747   9.150
 5057POPC   GL124769  37.675   2.761   8.850
 5057POPC   GL224770  37.592   2.683   8.850
 5057POPC   C1A24771  37.712   2.807   8.550
 5057POPC   D2A24772  37.665   2.795   8.250
 5057POPC   C3A24773  37.699   2.768   7.950
 5057POPC   C4A24774  37.636   2.730   7.650
 5057POPC   C1B24775  37.454   2.648   8.550
 5057POPC   C2B24776  37.526   2.634   8.250
 5057POPC   C3B24777  37.479   2.566   7.950
 5057POPC   C4B24778  37.443   2.563   7.650
 5058POPC   NC324779  38.406  21.338   9.450
 5058POPC   PO424780  38.410  21.407   9.150
 5058POPC   GL124781  38.459  21.366   8.850
 5058POPC   GL224782  38.510  21.219   8.850
 5058POPC   C1A24783  38.494  21.411   8.550
 5058POPC   D2A24784  38.464  21.387   8.250
 5058POPC   C3A24785  38.495  21.426   7.950
 5058POPC   C4A24786  38.479  21.347   7.650
 5058POPC   C1B24787  38.471  21.167   8.550
 5058POPC   C2B24788  38.491  21.171   8.250
 5058POPC   C3B24789  38.489  21.180   7.950
 5058POPC   C4B24790  38.508  21.124   7.650
 5059POPC   NC324791  10.489  32.998   9.450
 5059POPC   PO424792  10.561  33.039   9.150
 5059POPC   GL124793  10.550  33.010   8.850
 5059POPC   GL224794  10.694  32.996   8.850
 5059POPC   C1A24795  10.549  33.047   8.550
 5059POPC   D2A24796  10.523  33.044   8.250
 5059POPC   C3A24797  10.551  32.985   7.950
 5059POPC   C4A24798  10.569  33.005   7.650
 5059POPC   C1B24799  10.780  32.964   8.550
 5059POPC   C2B24800  10.725  32.962   8.250
 5059POPC   C3B24801  10.727  32.938   7.950
 5059POPC   C4B24802  10.788  33.017   7.650
 5060POPC   NC324803  12.078   1.176   9.450
 5060POPC   PO424804  12.083   1.253   9.150
 5060POPC   GL124805  12.090   1.181   8.850
 5060POPC   GL224806  12.149   1.312   8.850
 5060POPC   C1A24807  12.097   1.174   8.550
 5060POPC   D2A24808  12.114   1.185   8.250
 5060POPC   C3A24809  12.035   1.181   7.950
 5060POPC   C4A24810  12.118   1.229   7.650
 5060POPC   C1B24811  12.272   1.398   8.550
 5060POPC   C2B24812  12.202   1.415   8.250
 5060POPC   C3B24813  12.202   1.418   7.950
 5060POPC   C4B24814  12.292   1.376   7.650
 5061POPC   NC324815  40.734  15.199   9.450
 5061POPC   PO424816  40.820  15.187   9.150
 5061POPC   GL124817  40.798  15.130   8.850
 5061POPC   GL224818  40.822  15.258   8.850
 5061POPC   C1A24819  40.828  15.228   8.550
 5061POPC   D2A24820  40.762  15.201   8.250
 5061POPC   C3A24821  40.737  15.150   7.950
 5061POPC   C4A24822  40.739  15.211   7.650
 5061POPC   C1B24823  40.944  15.345   8.550
 5061POPC   C2B24824  40.924  15.403   8.250
 5061POPC   C3B24825  40.993  15.377   7.950
 5061POPC   C4B24826  40.998  15.317   7.650
 5062POPC   NC324827  26.058  38.438   9.450
 5062POPC   PO424828  26.043  38.432   9.150
 5062POPC   GL124829  26.083  38.457   8.850
 5062POPC   GL224830  26.211  38.414   8.850
 5062POPC   C1A24831  26.019  38.495   8.550
 5062POPC   D2A24832  26.078  38.423   8.250
 5062POPC   C3A24833  26.030  38.424   7.950
 5062POPC   C4A24834  26.035  38.411   7.650
 5062POPC   C1B24835  26.261  38.453   8.550
 5062POPC   C2B24836  26.283  38.481   8.250
 5062POPC   C3B24837  26.268  38.459   7.950
 5062POPC   C4B24838  26.244  38.410   7.650
 5063POPC   NC324839   6.621  28.392   9.450
 5063POPC   PO424840   6.638  28.389   9.150
 5063POPC   GL124841   6.681  28.353   8.850
 5063POPC   GL224842   6.756  28.506   8.850
 5063POPC   C1A24843   6.681  28.390   8.550
 5063POPC   D2A24844   6.670  28.419   8.250
 5063POPC   C3A24845   6.655  28.325   7.950
 5063POPC   C4A24846   6.636  28.360   7.650
 5063POPC   C1B24847   6.824  28.551   8.550
 5063POPC   C2B24848   6.776  28.550   8.250
 5063POPC   C3B24849   6.846  28.526   7.950
 5063POPC   C4B24850   6.830  28.597   7.650
 5064POPC   NC324851  32.200   7.395   9.450
 5064POPC   PO424852  32.276   7.371   9.150
 5064POPC   GL124853  32.248   7.428   8.850
 5064POPC   GL224854  32.311   7.310   8.850
 5064POPC   C1A24855  32.217   7.407   8.550
 5064POPC   D2A24856  32.203   7.380   8.250
 5064POPC   C3A24857  32.226   7.469   7.950
 5064POPC   C4A24858  32.239   7.433   7.650
 5064POPC   C1B24859  32.355   7.179   8.550
 5064POPC   C2B24860  32.359   7.201   8.250
 5064POPC   C3B24861  32.274   7.177   7.950
 5064POPC   C4B24862  32.288   7.218   7.650
 5065POPC   NC324863  22.905  23.736   9.450
 5065POPC   PO424864  22.985  23.674   9.150
 5065POPC   GL124865  22.904  23.755   8.850
 5065POPC   GL224866  22.888  23.819   8.850
 5065POPC   C1A24867  22.984  23.744   8.550
 5065POPC   D2A24868  22.942  23.763   8.250
 5065POPC   C3A24869  22.945  23.672   7.950
 5065POPC   C4A24870  22.925  23.740   7.650
 5065POPC   C1B24871  22.776  23.853   8.550
 5065POPC   C2B24872  22.738  23.828   8.250
 5065POPC   C3B24873  22.741  23.859   7.950
 5065POPC   C4B24874  22.719  23.889   7.650
 5066POPC   NC324875  40.791  23.667   9.450
 5066POPC   PO424876  40.798  23.734   9.150
 5066POPC   GL124877  40.788  23.722   8.850
 5066POPC   GL224878  40.713  23.776   8.850
 5066POPC   C1A24879  40.773  23.750   8.550
 5066POPC   D2A24880  40.790  23.691   8.250
 5066POPC   C3A24881  40.818  23.671   7.950
 5066POPC   C4A24882  40.816  23.716   7.650
 5066POPC   C1B24883  40.593  23.815   8.550
 5066POPC   C2B24884  40.556  23.826   8.250
 5066POPC   C3B24885  40.553  23.797   7.950
 5066POPC   C4B24886  40.604  23.813   7.650
 5067POPC   NC324887   9.779  30.707   9.450
 5067POPC   PO424888   9.732  30.726   9.150
 5067POPC   GL124889   9.770  30.741   8.850
 5067POPC   GL224890   9.854  30.689   8.850
 5067POPC   C1A24891   9.743  30.742   8.550
 5067POPC   D2A24892   9.778  30.733   8.250
 5067POPC   C3A24893   9.733  30.664   7.950
 5067POPC   C4A24894   9.752  30.738   7.650
 5067POPC   C1B24895  10.015  30.704   8.550
 5067POPC   C2B24896   9.980  30.679   8.250
 5067POPC   C3B24897  10.012  30.667   7.950
 5067POPC   C4B24898   9.950  30.653   7.650
 5068POPC   NC324899  16.773  43.153   9.450
 5068POPC   PO424900  16.768  43.074   9.150
 5068POPC   GL124901  16.713  43.111   8.850
 5068POPC   GL224902  16.590  43.171   8.850
 5068POPC   C1A24903  16.760  43.076   8.550
 5068POPC   D2A24904  16.761  43.149   8.250
 5068POPC   C3A24905  16.743  43.076   7.950
 5068POPC   C4A24906  16.761  43.129   7.650
 5068POPC   C1B24907  16.484  43.263   8.550
 5068POPC   C2B24908  16.515  43.265   8.250
 5068POPC   C3B24909  16.567  43.245   7.950
 5068POPC   C4B24910  16.490  43.263   7.650
 5069POPC   NC324911  23.729   8.200   9.450
 5069POPC   PO424912  23.673   8.183   9.150
 5069POPC   GL124913  23.740   8.241   8.850
 5069POPC   GL224914  23.822   8.260   8.850
 5069POPC   C1A24915  23.745   8.199   8.550
 5069POPC   D2A24916  23.692   8.225   8.250
 5069POPC   C3A24917  23.696   8.207   7.950
 5069POPC   C4A24918  23.718   8.231   7.650
 5069POPC   C1B24919  23.879   8.403   8.550
 5069POPC   C2B24920  23.904   8.402   8.250
 5069POPC   C3B24921  23.909   8.368   7.950
 5069POPC   C4B24922  23.880   8.375   7.650
 5070POPC   NC324923  34.614  15.185   9.450
 5070POPC   PO424924  34.613  15.213   9.150
 5070POPC   GL124925  34.526  15.149   8.850
 5070POPC   GL224926  34.695  15.285   8.850
 5070POPC   C1A24927  34.596  15.181   8.550
 5070POPC   D2A24928  34.532  15.150   8.250
 5070POPC   C3A24929  34.608  15.157   7.950
 5070POPC   C4A24930  34.529  15.191   7.650
 5070POPC   C1B24931  34.773  15.337   8.550
 5070POPC   C2B24932  34.701  15.395   8.250
 5070POPC   C3B24933  34.701  15.390   7.950
 5070POPC   C4B24934  34.790  15.406   7.650
 5071POPC   NC324935   5.112  36.879   9.450
 5071POPC   PO424936   5.141  36.892   9.150
 5071POPC   GL124937   5.142  36.942   8.850
 5071POPC   GL224938   5.215  37.047   8.850
 5071POPC   C1A24939   5.136  36.925   8.550
 5071POPC   D2A24940   5.096  36.865   8.250
 5071POPC   C3A24941   5.083  36.895   7.950
 5071POPC   C4A24942   5.071  36.940   7.650
 5071POPC   C1B24943   5.251  37.086   8.550
 5071POPC   C2B24944   5.220  37.117   8.250
 5071POPC   C3B24945   5.278  37.140   7.950
 5071POPC   C4B24946   5.282  37.108   7.650
 5072POPC   NC324947   3.578   2.040   9.450
 5072POPC   PO424948   3.547   2.004   9.150
 5072POPC   GL124949   3.517   2.003   8.850
 5072POPC   GL224950   3.591   1.919   8.850
 5072POPC   C1A24951   3.509   1.966   8.550
 5072POPC   D2A24952   3.527   2.018   8.250
 5072POPC   C3A24953   3.565   1.985   7.950
 5072POPC   C4A24954   3.514   2.018   7.650
 5072POPC   C1B24955   3.706   1.756   8.550
 5072POPC   C2B24956   3.663   1.741   8.250
 5072POPC   C3B24957   3.626   1.726   7.950
 5072POPC   C4B24958   3.647   1.724   7.650
 5073POPC   NC324959  29.129  15.988   9.450
 5073POPC   PO424960  29.122  15.990   9.150
 5073POPC   GL124961  29.105  15.965   8.850
 5073POPC   GL224962  29.226  16.033   8.850
 5073POPC   C1A24963  29.128  15.916   8.550
 5073POPC   D2A24964  29.140  15.932   8.250
 5073POPC   C3A24965  29.194  15.995   7.950
 5073POPC   C4A24966  29.191  16.005   7.650
 5073POPC   C1B24967  29.394  16.120   8.550
 5073POPC   C2B24968  29.343  16.061   8.250
 5073POPC   C3B24969  29.371  16.091   7.950
 5073POPC   C4B24970  29.312  16.122   7.650
 5074POPC   NC324971  13.643  22.195   9.450
 5074POPC   PO424972  13.652  22.121   9.150
 5074POPC   GL124973  13.579  22.170   8.850
 5074POPC   GL224974  13.737  22.130   8.850
 5074POPC   C1A24975  13.607  22.170   8.550
 5074POPC   D2A24976  13.649  22.116   8.250
 5074POPC   C3A24977  13.597  22.211   7.950
 5074POPC   C4A24978  13.647  22.134   7.650
 5074POPC   C1B24979  13.900  22.175   8.550
 5074POPC   C2B24980  13.840  22.179   8.250
 5074POPC   C3B24981  13.901  22.195   7.950
 5074POPC   C4B24982  13.904  22.201   7.650
 5075POPC   NC324983   7.422   7.398   9.450
 5075POPC   PO424984   7.468   7.436   9.150
 5075POPC   GL124985   7.439   7.374   8.850
 5075POPC   GL224986   7.543   7.399   8.850
 5075POPC   C1A24987   7.384   7.446   8.550
 5075POPC   D2A24988   7.377   7.469   8.250
 5075POPC   C3A24989   7.396   7.376   7.950
 5075POPC   C4A24990   7.450   7.382   7.650
 5075POPC   C1B24991   7.671   7.483   8.550
 5075POPC   C2B24992   7.655   7.464   8.250
 5075POPC   C3B24993   7.622   7.418   7.950
 5075POPC   C4B24994   7.715   7.415   7.650
 5076POPC   NC324995  24.491  12.823   9.450
 5076POPC   PO424996  24.499  12.819   9.150
 5076POPC   GL124997  24.538  12.819   8.850
 5076POPC   GL224998  24.613  12.887   8.850
 5076POPC   C1A24999  24.498  12.845   8.550
 5076POPC   D2A25000  24.497  12.824   8.250
 5076POPC   C3A25001  24.478  12.869   7.950
 5076POPC   C4A25002  24.490  12.820   7.650
 5076POPC   C1B25003  24.750  12.895   8.550
 5076POPC   C2B25004  24.730  12.852   8.250
 5076POPC   C3B25005  24.762  12.874   7.950
 5076POPC   C4B25006  24.761  12.874   7.650
 5077POPC   NC325007  16.731  15.155   9.450
 5077POPC   PO425008  16.719  15.148   9.150
 5077POPC   GL125009  16.765  15.226   8.850
 5077POPC   GL225010  16.714  15.274   8.850
 5077POPC   C1A25011  16.769  15.194   8.550
 5077POPC   D2A25012  16.719  15.147   8.250
 5077POPC   C3A25013  16.769  15.185   7.950
 5077POPC   C4A25014  16.684  15.192   7.650
 5077POPC   C1B25015  16.834  15.411   8.550
 5077POPC   C2B25016  16.816  15.437   8.250
 5077POPC   C3B25017  16.775  15.435   7.950
 5077POPC   C4B25018  16.741  15.392   7.650
 5078POPC   NC325019  22.137  44.704   9.450
 5078POPC   PO425020  22.141  44.710   9.150
 5078POPC   GL125021  22.124  44.668   8.850
 5078POPC   GL225022  22.152  44.501   8.850
 5078POPC   C1A25023  22.147  44.697   8.550
 5078POPC   D2A25024  22.185  44.615   8.250
 5078POPC   C3A25025  22.207  44.660   7.950
 5078POPC   C4A25026  22.206  44.634   7.650
 5078POPC   C1B25027  22.196  44.442   8.550
 5078POPC   C2B25028  22.122  44.442   8.250
 5078POPC   C3B25029  22.171  44.427   7.950
 5078POPC   C4B25030  22.118  44.421   7.650
 5079POPC   NC325031  36.161  34.568   9.450
 5079POPC   PO425032  36.123  34.547   9.150
 5079POPC   GL125033  36.166  34.573   8.850
 5079POPC   GL225034  35.990  34.591   8.850
 5079POPC   C1A25035  36.081  34.532   8.550
 5079POPC   D2A25036  36.107  34.557   8.250
 5079POPC   C3A25037  36.106  34.607   7.950
 5079POPC   C4A25038  36.111  34.573   7.650
 5079POPC   C1B25039  35.880  34.666   8.550
 5079POPC   C2B25040  35.870  34.646   8.250
 5079POPC   C3B25041  35.919  34.648   7.950
 5079POPC   C4B25042  35.843  34.644   7.650
 5080POPC   NC325043  34.578   8.221   9.450
 5080POPC   PO425044  34.574   8.230   9.150
 5080POPC   GL125045  34.588   8.186   8.850
 5080POPC   GL225046  34.659   8.131   8.850
 5080POPC   C1A25047  34.558   8.216   8.550
 5080POPC   D2A25048  34.622   8.190   8.250
 5080POPC   C3A25049  34.529   8.229   7.950
 5080POPC   C4A25050  34.600   8.241   7.650
 5080POPC   C1B25051  34.817   8.160   8.550
 5080POPC   C2B25052  34.817   8.166   8.250
 5080POPC   C3B25053  34.870   8.185   7.950
 5080POPC   C4B25054  34.843   8.157   7.650
 5081POPC   NC325055  27.618  20.594   9.450
 5081POPC   PO425056  27.563  20.582   9.150
 5081POPC   GL125057  27.573  20.620   8.850
 5081POPC   GL225058  27.580  20.535   8.850
 5081POPC   C1A25059  27.547  20.642   8.550
 5081POPC   D2A25060  27.571  20.588   8.250
 5081POPC   C3A25061  27.640  20.567   7.950
 5081POPC   C4A25062  27.596  20.598   7.650
 5081POPC   C1B25063  27.533  20.357   8.550
 5081POPC   C2B25064  27.514  20.340   8.250
 5081POPC   C3B25065  27.440  20.370   7.950
 5081POPC   C4B25066  27.459  20.412   7.650
 5082POPC   NC325067  40.044  21.355   9.450
 5082POPC   PO425068  40.034  21.357   9.150
 5082POPC   GL125069  40.002  21.340   8.850
 5082POPC   GL225070  40.112  21.362   8.850
 5082POPC   C1A25071  40.057  21.393   8.550
 5082POPC   D2A25072  40.031  21.379   8.250
 5082POPC   C3A25073  40.035  21.431   7.950
 5082POPC   C4A25074  40.023  21.354   7.650
 5082POPC   C1B25075  40.207  21.329   8.550
 5082POPC   C2B25076  40.230  21.282   8.250
 5082POPC   C3B25077  40.277  21.323   7.950
 5082POPC   C4B25078  40.227  21.360   7.650
 5083POPC   NC325079  32.266  31.522   9.450
 5083POPC   PO425080  32.243  31.449   9.150
 5083POPC   GL125081  32.247  31.460   8.850
 5083POPC   GL225082  32.411  31.470   8.850
 5083POPC   C1A25083  32.240  31.459   8.550
 5083POPC   D2A25084  32.258  31.432   8.250
 5083POPC   C3A25085  32.220  31.468   7.950
 5083POPC   C4A25086  32.256  31.498   7.650
 5083POPC   C1B25087  32.506  31.367   8.550
 5083POPC   C2B25088  32.523  31.362   8.250
 5083POPC   C3B25089  32.430  31.383   7.950
 5083POPC   C4B25090  32.504  31.417   7.650
 5084POPC   NC325091   8.153   3.571   9.450
 5084POPC   PO425092   8.147   3.560   9.150
 5084POPC   GL125093   8.175   3.553   8.850
 5084POPC   GL225094   8.092   3.553   8.850
 5084POPC   C1A25095   8.170   3.498   8.550
 5084POPC   D2A25096   8.217   3.516   8.250
 5084POPC   C3A25097   8.171   3.568   7.950
 5084POPC   C4A25098   8.246   3.509   7.650
 5084POPC   C1B25099   7.958   3.556   8.550
 5084POPC   C2B25100   7.899   3.554   8.250
 5084POPC   C3B25101   7.990   3.538   7.950
 5084POPC   C4B25102   7.972   3.548   7.650
 5085POPC   NC325103   1.228  32.247   9.450
 5085POPC   PO425104   1.226  32.212   9.150
 5085POPC   GL125105   1.223  32.238   8.850
 5085POPC   GL225106   1.246  32.360   8.850
 5085POPC   C1A25107   1.206  32.281   8.550
 5085POPC   D2A25108   1.216  32.221   8.250
 5085POPC   C3A25109   1.229  32.246   7.950
 5085POPC   C4A25110   1.208  32.290   7.650
 5085POPC   C1B25111   1.298  32.432   8.550
 5085POPC   C2B25112   1.363  32.501   8.250
 5085POPC   C3B25113   1.324  32.495   7.950
 5085POPC   C4B25114   1.311  32.509   7.650
 5086POPC   NC325115  10.561  38.425   9.450
 5086POPC   PO425116  10.530  38.503   9.150
 5086POPC   GL125117  10.558  38.444   8.850
 5086POPC   GL225118  10.454  38.376   8.850
 5086POPC   C1A25119  10.502  38.466   8.550
 5086POPC   D2A25120  10.539  38.476   8.250
 5086POPC   C3A25121  10.532  38.498   7.950
 5086POPC   C4A25122  10.497  38.494   7.650
 5086POPC   C1B25123  10.474  38.256   8.550
 5086POPC   C2B25124  10.506  38.233   8.250
 5086POPC   C3B25125  10.433  38.201   7.950
 5086POPC   C4B25126  10.452  38.226   7.650
 5087POPC   NC325127   1.985   6.607   9.450
 5087POPC   PO425128   1.948   6.603   9.150
 5087POPC   GL125129   1.973   6.625   8.850
 5087POPC   GL225130   2.104   6.659   8.850
 5087POPC   C1A25131   1.975   6.600   8.550
 5087POPC   D2A25132   1.969   6.629   8.250
 5087POPC   C3A25133   2.037   6.670   7.950
 5087POPC   C4A25134   2.036   6.627   7.650
 5087POPC   C1B25135   2.196   6.663   8.550
 5087POPC   C2B25136   2.192   6.602   8.250
 5087POPC   C3B25137   2.261   6.651   7.950
 5087POPC   C4B25138   2.218   6.581   7.650
 5088POPC   NC325139   4.329  19.100   9.450
 5088POPC   PO425140   4.273  19.017   9.150
 5088POPC   GL125141   4.331  19.065   8.850
 5088POPC   GL225142   4.454  19.140   8.850
 5088POPC   C1A25143   4.312  19.046   8.550
 5088POPC   D2A25144   4.362  19.068   8.250
 5088POPC   C3A25145   4.299  19.067   7.950
 5088POPC   C4A25146   4.355  19.043   7.650
 5088POPC   C1B25147   4.466  19.224   8.550
 5088POPC   C2B25148   4.515  19.233   8.250
 5088POPC   C3B25149   4.494  19.218   7.950
 5088POPC   C4B25150   4.476  19.251   7.650
 5089POPC   NC325151  10.542  17.503   9.450
 5089POPC   PO425152  10.480  17.499   9.150
 5089POPC   GL125153  10.500  17.520   8.850
 5089POPC   GL225154  10.438  17.504   8.850
 5089POPC   C1A25155  10.565  17.480   8.550
 5089POPC   D2A25156  10.504  17.486   8.250
 5089POPC   C3A25157  10.503  17.469   7.950
 5089POPC   C4A25158  10.569  17.469   7.650
 5089POPC   C1B25159  10.303  17.590   8.550
 5089POPC   C2B25160  10.257  17.504   8.250
 5089POPC   C3B25161  10.322  17.547   7.950
 5089POPC   C4B25162  10.268  17.516   7.650
 5090POPC   NC325163  31.480  32.251   9.450
 5090POPC   PO425164  31.435  32.205   9.150
 5090POPC   GL125165  31.439  32.252   8.850
 5090POPC   GL225166  31.572  32.378   8.850
 5090POPC   C1A25167  31.504  32.268   8.550
 5090POPC   D2A25168  31.470  32.224   8.250
 5090POPC   C3A25169  31.440  32.223   7.950
 5090POPC   C4A25170  31.498  32.202   7.650
 5090POPC   C1B25171  31.636  32.428   8.550
 5090POPC   C2B25172  31.672  32.391   8.250
 5090POPC   C3B25173  31.640  32.485   7.950
 5090POPC   C4B25174  31.594  32.445   7.650
 5091POPC   NC325175  42.286   2.029   9.450
 5091POPC   PO425176  42.299   2.011   9.150
 5091POPC   GL125177  42.341   2.027   8.850
 5091POPC   GL225178  42.270   2.073   8.850
 5091POPC   C1A25179  42.323   1.963   8.550
 5091POPC   D2A25180  42.305   2.011   8.250
 5091POPC   C3A25181  42.316   1.959   7.950
 5091POPC   C4A25182  42.304   1.947   7.650
 5091POPC   C1B25183  42.123   2.183   8.550
 5091POPC   C2B25184  42.196   2.151   8.250
 5091POPC   C3B25185  42.171   2.135   7.950
 5091POPC   C4B25186  42.169   2.177   7.650
 5092POPC   NC325187  37.700   2.004   9.450
 5092POPC   PO425188  37.721   1.993   9.150
 5092POPC   GL125189  37.705   2.038   8.850
 5092POPC   GL225190  37.763   1.893   8.850
 5092POPC   C1A25191  37.693   1.958   8.550
 5092POPC   D2A25192  37.670   2.008   8.250
 5092POPC   C3A25193  37.723   1.961   7.950
 5092POPC   C4A25194  37.644   1.991   7.650
 5092POPC   C1B25195  37.858   1.809   8.550
 5092POPC   C2B25196  37.926   1.858   8.250
 5092POPC   C3B25197  37.908   1.883   7.950
 5092POPC   C4B25198  37.843   1.889   7.650
 5093POPC   NC325199  27.554  39.213   9.450
 5093POPC   PO425200  27.632  39.233   9.150
 5093POPC   GL125201  27.559  39.279   8.850
 5093POPC   GL225202  27.653  39.113   8.850
 5093POPC   C1A25203  27.627  39.230   8.550
 5093POPC   D2A25204  27.591  39.270   8.250
 5093POPC   C3A25205  27.580  39.193   7.950
 5093POPC   C4A25206  27.624  39.216   7.650
 5093POPC   C1B25207  27.604  38.938   8.550
 5093POPC   C2B25208  27.673  38.965   8.250
 5093POPC   C3B25209  27.659  38.997   7.950
 5093POPC   C4B25210  27.595  38.940   7.650
 5094POPC   NC325211  43.852  44.635   9.450
 5094POPC   PO425212  43.882  44.638   9.150
 5094POPC   GL125213  43.925  44.702   8.850
 5094POPC   GL225214  43.787  44.716   8.850
 5094POPC   C1A25215  43.904  44.637   8.550
 5094POPC   D2A25216  43.931  44.623   8.250
 5094POPC   C3A25217  43.847  44.687   7.950
 5094POPC   C4A25218  43.883  44.675   7.650
 5094POPC   C1B25219  43.635  44.816   8.550
 5094POPC   C2B25220  43.690  44.814   8.250
 5094POPC   C3B25221  43.674  44.785   7.950
 5094POPC   C4B25222  43.647  44.772   7.650
 5095POPC   NC325223  26.085  23.737   9.450
 5095POPC   PO425224  26.033  23.749   9.150
 5095POPC   GL125225  26.044  23.723   8.850
 5095POPC   GL225226  25.910  23.814   8.850
 5095POPC   C1A25227  26.088  23.688   8.550
 5095POPC   D2A25228  26.088  23.730   8.250
 5095POPC   C3A25229  26.017  23.700   7.950
 5095POPC   C4A25230  26.038  23.715   7.650
 5095POPC   C1B25231  25.910  23.854   8.550
 5095POPC   C2B25232  25.821  23.891   8.250
 5095POPC   C3B25233  25.913  23.926   7.950
 5095POPC   C4B25234  25.831  23.891   7.650
 5096POPC   NC325235   5.107   5.045   9.450
 5096POPC   PO425236   5.118   5.065   9.150
 5096POPC   GL125237   5.120   5.133   8.850
 5096POPC   GL225238   5.242   5.113   8.850
 5096POPC   C1A25239   5.059   5.077   8.550
 5096POPC   D2A25240   5.130   5.087   8.250
 5096POPC   C3A25241   5.059   5.055   7.950
 5096POPC   C4A25242   5.137   5.098   7.650
 5096POPC   C1B25243   5.269   5.198   8.550
 5096POPC   C2B25244   5.311   5.156   8.250
 5096POPC   C3B25245   5.287   5.191   7.950
 5096POPC   C4B25246   5.280   5.230   7.650
 5097POPC   NC325247  12.063  11.255   9.450
 5097POPC   PO425248  12.038  11.305   9.150
 5097POPC   GL125249  12.059  11.287   8.850
 5097POPC   GL225250  11.992  11.360   8.850
 5097POPC   C1A25251  12.039  11.267   8.550
 5097POPC   D2A25252  12.087  11.251   8.250
 5097POPC   C3A25253  12.032  11.304   7.950
 5097POPC   C4A25254  12.091  11.283   7.650
 5097POPC   C1B25255  11.818  11.380   8.550
 5097POPC   C2B25256  11.815  11.336   8.250
 5097POPC   C3B25257  11.855  11.336   7.950
 5097POPC   C4B25258  11.816  11.380   7.650
 5098POPC   NC325259  25.303  43.895   9.450
 5098POPC   PO425260  25.306  43.909   9.150
 5098POPC   GL125261  25.301  43.868   8.850
 5098POPC   GL225262  25.097  43.870   8.850
 5098POPC   C1A25263  25.259  43.928   8.550
 5098POPC   D2A25264  25.262  43.875   8.250
 5098POPC   C3A25265  25.310  43.919   7.950
 5098POPC   C4A25266  25.275  43.893   7.650
 5098POPC   C1B25267  25.045  43.867   8.550
 5098POPC   C2B25268  25.039  43.854   8.250
 5098POPC   C3B25269  24.990  43.841   7.950
 5098POPC   C4B25270  24.982  43.869   7.650
 5099POPC   NC325271   9.778  42.314   9.450
 5099POPC   PO425272   9.764  42.370   9.150
 5099POPC   GL125273   9.785  42.334   8.850
 5099POPC   GL225274   9.769  42.250   8.850
 5099POPC   C1A25275   9.790  42.312   8.550
 5099POPC   D2A25276   9.710  42.343   8.250
 5099POPC   C3A25277   9.716  42.366   7.950
 5099POPC   C4A25278   9.760  42.328   7.650
 5099POPC   C1B25279   9.831  42.070   8.550
 5099POPC   C2B25280   9.898  42.100   8.250
 5099POPC   C3B25281   9.815  42.065   7.950
 5099POPC   C4B25282   9.900  42.139   7.650
 5100POPC   NC325283   7.468  41.584   9.450
 5100POPC   PO425284   7.443  41.550   9.150
 5100POPC   GL125285   7.424  41.520   8.850
 5100POPC   GL225286   7.270  41.564   8.850
 5100POPC   C1A25287   7.393  41.555   8.550
 5100POPC   D2A25288   7.434  41.536   8.250
 5100POPC   C3A25289   7.372  41.542   7.950
 5100POPC   C4A25290   7.430  41.554   7.650
 5100POPC   C1B25291   7.207  41.500   8.550
 5100POPC   C2B25292   7.143  41.444   8.250
 5100POPC   C3B25293   7.154  41.487   7.950
 5100POPC   C4B25294   7.179  41.497   7.650
 5101POPC   NC325295  18.251  10.526   9.450
 5101POPC   PO425296  18.272  10.546   9.150
 5101POPC   GL125297  18.291  10.497   8.850
 5101POPC   GL225298  18.317  10.423   8.850
 5101POPC   C1A25299  18.242  10.515   8.550
 5101POPC   D2A25300  18.279  10.476   8.250
 5101POPC   C3A25301  18.238  10.505   7.950
 5101POPC   C4A25302  18.318  10.545   7.650
 5101POPC   C1B25303  18.339  10.246   8.550
 5101POPC   C2B25304  18.294  10.241   8.250
 5101POPC   C3B25305  18.351  10.290   7.950
 5101POPC   C4B25306  18.353  10.281   7.650
 5102POPC   NC325307   8.173   5.901   9.450
 5102POPC   PO425308   8.172   5.859   9.150
 5102POPC   GL125309   8.151   5.907   8.850
 5102POPC   GL225310   8.279   5.772   8.850
 5102POPC   C1A25311   8.208   5.911   8.550
 5102POPC   D2A25312   8.176   5.853   8.250
 5102POPC   C3A25313   8.162   5.895   7.950
 5102POPC   C4A25314   8.179   5.819   7.650
 5102POPC   C1B25315   8.417   5.724   8.550
 5102POPC   C2B25316   8.452   5.776   8.250
 5102POPC   C3B25317   8.394   5.756   7.950
 5102POPC   C4B25318   8.432   5.732   7.650
 5103POPC   NC325319  23.745  10.552   9.450
 5103POPC   PO425320  23.682  10.482   9.150
 5103POPC   GL125321  23.696  10.526   8.850
 5103POPC   GL225322  23.622  10.422   8.850
 5103POPC   C1A25323  23.736  10.514   8.550
 5103POPC   D2A25324  23.726  10.492   8.250
 5103POPC   C3A25325  23.698  10.478   7.950
 5103POPC   C4A25326  23.689  10.555   7.650
 5103POPC   C1B25327  23.467  10.357   8.550
 5103POPC   C2B25328  23.525  10.353   8.250
 5103POPC   C3B25329  23.536  10.364   7.950
 5103POPC   C4B25330  23.509  10.429   7.650
 5104POPC   NC325331  14.375  26.846   9.450
 5104POPC   PO425332  14.439  26.816   9.150
 5104POPC   GL125333  14.440  26.805   8.850
 5104POPC   GL225334  14.435  26.696   8.850
 5104POPC   C1A25335  14.427  26.810   8.550
 5104POPC   D2A25336  14.448  26.773   8.250
 5104POPC   C3A25337  14.449  26.817   7.950
 5104POPC   C4A25338  14.373  26.824   7.650
 5104POPC   C1B25339  14.459  26.569   8.550
 5104POPC   C2B25340  14.394  26.540   8.250
 5104POPC   C3B25341  14.462  26.577   7.950
 5104POPC   C4B25342  14.423  26.549   7.650
 5105POPC   NC325343  13.616   7.436   9.450
 5105POPC   PO425344  13.584   7.440   9.150
 5105POPC   GL125345  13.615   7.382   8.850
 5105POPC   GL225346  13.604   7.250   8.850
 5105POPC   C1A25347  13.628   7.390   8.550
 5105POPC   D2A25348  13.624   7.406   8.250
 5105POPC   C3A25349  13.598   7.438   7.950
 5105POPC   C4A25350  13.611   7.376   7.650
 5105POPC   C1B25351  13.632   7.143   8.550
 5105POPC   C2B25352  13.680   7.154   8.250
 5105POPC   C3B25353  13.637   7.202   7.950
 5105POPC   C4B25354  13.618   7.211   7.650
 5106POPC   NC325355   5.876  36.089   9.450
 5106POPC   PO425356   5.847  36.168   9.150
 5106POPC   GL125357   5.870  36.087   8.850
 5106POPC   GL225358   6.021  36.113   8.850
 5106POPC   C1A25359   5.864  36.121   8.550
 5106POPC   D2A25360   5.871  36.160   8.250
 5106POPC   C3A25361   5.870  36.122   7.950
 5106POPC   C4A25362   5.839  36.094   7.650
 5106POPC   C1B25363   6.160  36.042   8.550
 5106POPC   C2B25364   6.071  36.028   8.250
 5106POPC   C3B25365   6.126  36.121   7.950
 5106POPC   C4B25366   6.150  36.096   7.650
 5107POPC   NC325367   7.452  28.369   9.450
 5107POPC   PO425368   7.391  28.418   9.150
 5107POPC   GL125369   7.457  28.364   8.850
 5107POPC   GL225370   7.435  28.220   8.850
 5107POPC   C1A25371   7.404  28.388   8.550
 5107POPC   D2A25372   7.428  28.332   8.250
 5107POPC   C3A25373   7.424  28.340   7.950
 5107POPC   C4A25374   7.388  28.397   7.650
 5107POPC   C1B25375   7.477  28.163   8.550
 5107POPC   C2B25376   7.531  28.136   8.250
 5107POPC   C3B25377   7.552  28.120   7.950
 5107POPC   C4B25378   7.555  28.111   7.650
 5108POPC   NC325379  14.395  36.093   9.450
 5108POPC   PO425380  14.397  36.098   9.150
 5108POPC   GL125381  14.357  36.160   8.850
 5108POPC   GL225382  14.256  36.056   8.850
 5108POPC   C1A25383  14.388  36.123   8.550
 5108POPC   D2A25384  14.430  36.143   8.250
 5108POPC   C3A25385  14.409  36.109   7.950
 5108POPC   C4A25386  14.387  36.142   7.650
 5108POPC   C1B25387  14.205  36.009   8.550
 5108POPC   C2B25388  14.152  36.043   8.250
 5108POPC   C3B25389  14.200  36.068   7.950
 5108POPC   C4B25390  14.133  36.077   7.650
 5109POPC   NC325391  26.862   1.261   9.450
 5109POPC   PO425392  26.830   1.208   9.150
 5109POPC   GL125393  26.821   1.250   8.850
 5109POPC   GL225394  26.788   1.100   8.850
 5109POPC   C1A25395  26.779   1.196   8.550
 5109POPC   D2A25396  26.854   1.187   8.250
 5109POPC   C3A25397  26.797   1.241   7.950
 5109POPC   C4A25398  26.837   1.213   7.650
 5109POPC   C1B25399  26.764   0.928   8.550
 5109POPC   C2B25400  26.798   1.000   8.250
 5109POPC   C3B25401  26.824   1.005   7.950
 5109POPC   C4B25402  26.844   0.993   7.650
 5110POPC   NC325403  27.642  16.760   9.450
 5110POPC   PO425404  27.629  16.729   9.150
 5110POPC   GL125405  27.552  16.716   8.850
 5110POPC   GL225406  27.748  16.703   8.850
 5110POPC   C1A25407  27.544  16.716   8.550
 5110POPC   D2A25408  27.611  16.702   8.250
 5110POPC   C3A25409  27.560  16.701   7.950
 5110POPC   C4A25410  27.544  16.731   7.650
 5110POPC   C1B25411  27.873  16.696   8.550
 5110POPC   C2B25412  27.862  16.723   8.250
 5110POPC   C3B25413  27.810  16.748   7.950
 5110POPC   C4B25414  27.891  16.702   7.650
 5111POPC   NC325415  20.644  20.596   9.450
 5111POPC   PO425416  20.660  20.572   9.150
 5111POPC   GL125417  20.568  20.566   8.850
 5111POPC   GL225418  20.511  20.593   8.850
 5111POPC   C1A25419  20.580  20.591   8.550
 5111POPC   D2A25420  20.640  20.620   8.250
 5111POPC   C3A25421  20.658  20.585   7.950
 5111POPC   C4A25422  20.660  20.614   7.650
 5111POPC   C1B25423  20.396  20.539   8.550
 5111POPC   C2B25424  20.347  20.521   8.250
 5111POPC   C3B25425  20.352  20.601   7.950
 5111POPC   C4B25426  20.407  20.575   7.650
 5112POPC   NC325427   0.414   7.455   9.450
 5112POPC   PO425428   0.458   7.419   9.150
 5112POPC   GL125429   0.468   7.405   8.850
 5112POPC   GL225430   0.607   7.472   8.850
 5112POPC   C1A25431   0.416   7.431   8.550
 5112POPC   D2A25432   0.419   7.448   8.250
 5112POPC   C3A25433   0.406   7.444   7.950
 5112POPC   C4A25434   0.473   7.418   7.650
 5112POPC   C1B25435   0.652   7.499   8.550
 5112POPC   C2B25436   0.652   7.448   8.250
 5112POPC   C3B25437   0.676   7.417   7.950
 5112POPC   C4B25438   0.693   7.441   7.650
 5113POPC   NC325439  19.839  29.919   9.450
 5113POPC   PO425440  19.798  29.969   9.150
 5113POPC   GL125441  19.871  29.920   8.850
 5113POPC   GL225442  19.856  29.802   8.850
 5113POPC   C1A25443  19.822  29.941   8.550
 5113POPC   D2A25444  19.882  29.945   8.250
 5113POPC   C3A25445  19.856  29.878   7.950
 5113POPC   C4A25446  19.864  29.966   7.650
 5113POPC   C1B25447  19.836  29.714   8.550
 5113POPC   C2B25448  19.802  29.721   8.250
 5113POPC   C3B25449  19.808  29.642   7.950
 5113POPC   C4B25450  19.761  29.646   7.650
 5114POPC   NC325451  10.566  10.514   9.450
 5114POPC   PO425452  10.503  10.550   9.150
 5114POPC   GL125453  10.476  10.532   8.850
 5114POPC   GL225454  10.504  10.687   8.850
 5114POPC   C1A25455  10.550  10.536   8.550
 5114POPC   D2A25456  10.537  10.507   8.250
 5114POPC   C3A25457  10.479  10.514   7.950
 5114POPC   C4A25458  10.544  10.511   7.650
 5114POPC   C1B25459  10.484  10.788   8.550
 5114POPC   C2B25460  10.419  10.751   8.250
 5114POPC   C3B25461  10.470  10.792   7.950
 5114POPC   C4B25462  10.431  10.719   7.650
 5115POPC   NC325463  25.231  18.262   9.450
 5115POPC   PO425464  25.281  18.307   9.150
 5115POPC   GL125465  25.225  18.269   8.850
 5115POPC   GL225466  25.354  18.306   8.850
 5115POPC   C1A25467  25.309  18.305   8.550
 5115POPC   D2A25468  25.219  18.304   8.250
 5115POPC   C3A25469  25.295  18.264   7.950
 5115POPC   C4A25470  25.226  18.247   7.650
 5115POPC   C1B25471  25.507  18.306   8.550
 5115POPC   C2B25472  25.492  18.324   8.250
 5115POPC   C3B25473  25.556  18.310   7.950
 5115POPC   C4B25474  25.560  18.275   7.650
 5116POPC   NC325475  17.556  34.588   9.450
 5116POPC   PO425476  17.481  34.534   9.150
 5116POPC   GL125477  17.507  34.613   8.850
 5116POPC   GL225478  17.431  34.501   8.850
 5116POPC   C1A25479  17.504  34.570   8.550
 5116POPC   D2A25480  17.522  34.602   8.250
 5116POPC   C3A25481  17.537  34.586   7.950
 5116POPC   C4A25482  17.544  34.622   7.650
 5116POPC   C1B25483  17.302  34.442   8.550
 5116POPC   C2B25484  17.251  34.419   8.250
 5116POPC   C3B25485  17.325  34.470   7.950
 5116POPC   C4B25486  17.335  34.427   7.650
 5117POPC   NC325487  25.236  22.920   9.450
 5117POPC   PO425488  25.234  22.939   9.150
 5117POPC   GL125489  25.248  22.927   8.850
 5117POPC   GL225490  25.361  22.820   8.850
 5117POPC   C1A25491  25.302  22.900   8.550
 5117POPC   D2A25492  25.219  22.919   8.250
 5117POPC   C3A25493  25.305  22.903   7.950
 5117POPC   C4A25494  25.282  22.935   7.650
 5117POPC   C1B25495  25.445  22.708   8.550
 5117POPC   C2B25496  25.462  22.770   8.250
 5117POPC   C3B25497  25.402  22.767   7.950
 5117POPC   C4B25498  25.464  22.717   7.650
 5118POPC   NC325499  26.076  34.541   9.450
 5118POPC   PO425500  26.065  34.577   9.150
 5118POPC   GL125501  26.032  34.552   8.850
 5118POPC   GL225502  25.886  34.539   8.850
 5118POPC   C1A25503  26.041  34.557   8.550
 5118POPC   D2A25504  26.002  34.596   8.250
 5118POPC   C3A25505  26.028  34.553   7.950
 5118POPC   C4A25506  26.068  34.612   7.650
 5118POPC   C1B25507  25.753  34.552   8.550
 5118POPC   C2B25508  25.817  34.489   8.250
 5118POPC   C3B25509  25.807  34.523   7.950
 5118POPC   C4B25510  25.762  34.506   7.650
 5119POPC   NC325511  12.876  36.170   9.450
 5119POPC   PO425512  12.826  36.103   9.150
 5119POPC   GL125513  12.897  36.113   8.850
 5119POPC   GL225514  12.765  36.222   8.850
 5119POPC   C1A25515  12.829  36.114   8.550
 5119POPC   D2A25516  12.900  36.168   8.250
 5119POPC   C3A25517  12.859  36.144   7.950
 5119POPC   C4A25518  12.872  36.108   7.650
 5119POPC   C1B25519  12.636  36.328   8.550
 5119POPC   C2B25520  12.636  36.249   8.250
 5119POPC   C3B25521  12.684  36.251   7.950
 5119POPC   C4B25522  12.670  36.311   7.650
 5120POPC   NC325523  22.199  17.518   9.450
 5120POPC   PO425524  22.173  17.519   9.150
 5120POPC   GL125525  22.166  17.488   8.850
 5120POPC   GL225526  22.139  17.597   8.850
 5120POPC   C1A25527  22.134  17.502   8.550
 5120POPC   D2A25528  22.136  17.496   8.250
 5120POPC   C3A25529  22.133  17.508   7.950
 5120POPC   C4A25530  22.116  17.523   7.650
 5120POPC   C1B25531  22.167  17.783   8.550
 5120POPC   C2B25532  22.106  17.782   8.250
 5120POPC   C3B25533  22.139  17.801   7.950
 5120POPC   C4B25534  22.087  17.731   7.650
 5121POPC   NC325535  23.735  42.310   9.450
 5121POPC   PO425536  23.750  42.310   9.150
 5121POPC   GL125537  23.689  42.347   8.850
 5121POPC   GL225538  23.617  42.361   8.850
 5121POPC   C1A25539  23.684  42.349   8.550
 5121POPC   D2A25540  23.731  42.292   8.250
 5121POPC   C3A25541  23.749  42.315   7.950
 5121POPC   C4A25542  23.687  42.356   7.650
 5121POPC   C1B25543  23.497  42.446   8.550
 5121POPC   C2B25544  23.534  42.411   8.250
 5121POPC   C3B25545  23.479  42.467   7.950
 5121POPC   C4B25546  23.453  42.408   7.650
 5122POPC   NC325547  36.081  33.847   9.450
 5122POPC   PO425548  36.150  33.830   9.150
 5122POPC   GL125549  36.134  33.767   8.850
 5122POPC   GL225550  36.199  33.856   8.850
 5122POPC   C1A25551  36.111  33.779   8.550
 5122POPC   D2A25552  36.107  33.787   8.250
 5122POPC   C3A25553  36.080  33.775   7.950
 5122POPC   C4A25554  36.157  33.756   7.650
 5122POPC   C1B25555  36.297  33.985   8.550
 5122POPC   C2B25556  36.260  33.939   8.250
 5122POPC   C3B25557  36.300  33.983   7.950
 5122POPC   C4B25558  36.260  33.946   7.650
 5123POPC   NC325559  10.503  19.851   9.450
 5123POPC   PO425560  10.515  19.838   9.150
 5123POPC   GL125561  10.499  19.815   8.850
 5123POPC   GL225562  10.649  19.907   8.850
 5123POPC   C1A25563  10.572  19.846   8.550
 5123POPC   D2A25564  10.563  19.843   8.250
 5123POPC   C3A25565  10.510  19.806   7.950
 5123POPC   C4A25566  10.478  19.851   7.650
 5123POPC   C1B25567  10.755  19.968   8.550
 5123POPC   C2B25568  10.789  19.944   8.250
 5123POPC   C3B25569  10.790  19.945   7.950
 5123POPC   C4B25570  10.798  19.917   7.650
 5124POPC   NC325571  44.618  28.407   9.450
 5124POPC   PO425572  44.701  28.324   9.150
 5124POPC   GL125573  44.623  28.351   8.850
 5124POPC   GL225574  44.731  28.209   8.850
 5124POPC   C1A25575  44.660  28.394   8.550
 5124POPC   D2A25576  44.627  28.385   8.250
 5124POPC   C3A25577  44.656  28.399   7.950
 5124POPC   C4A25578  44.699  28.380   7.650
 5124POPC   C1B25579  44.716  28.155   8.550
 5124POPC   C2B25580  44.676  28.083   8.250
 5124POPC   C3B25581  44.767  28.083   7.950
 5124POPC   C4B25582  44.748  28.143   7.650
 5125POPC   NC325583  31.483  26.850   9.450
 5125POPC   PO425584  31.522  26.857   9.150
 5125POPC   GL125585  31.478  26.857   8.850
 5125POPC   GL225586  31.410  26.751   8.850
 5125POPC   C1A25587  31.458  26.828   8.550
 5125POPC   D2A25588  31.468  26.774   8.250
 5125POPC   C3A25589  31.467  26.814   7.950
 5125POPC   C4A25590  31.522  26.792   7.650
 5125POPC   C1B25591  31.304  26.633   8.550
 5125POPC   C2B25592  31.337  26.642   8.250
 5125POPC   C3B25593  31.319  26.569   7.950
 5125POPC   C4B25594  31.293  26.647   7.650
 5126POPC   NC325595   4.337  27.550   9.450
 5126POPC   PO425596   4.355  27.594   9.150
 5126POPC   GL125597   4.320  27.628   8.850
 5126POPC   GL225598   4.434  27.490   8.850
 5126POPC   C1A25599   4.293  27.579   8.550
 5126POPC   D2A25600   4.300  27.571   8.250
 5126POPC   C3A25601   4.307  27.594   7.950
 5126POPC   C4A25602   4.347  27.628   7.650
 5126POPC   C1B25603   4.440  27.436   8.550
 5126POPC   C2B25604   4.476  27.349   8.250
 5126POPC   C3B25605   4.479  27.380   7.950
 5126POPC   C4B25606   4.432  27.370   7.650
 5127POPC   NC325607  29.933   5.821   9.450
 5127POPC   PO425608  29.894   5.824   9.150
 5127POPC   GL125609  29.969   5.837   8.850
 5127POPC   GL225610  30.016   5.877   8.850
 5127POPC   C1A25611  29.957   5.842   8.550
 5127POPC   D2A25612  29.934   5.879   8.250
 5127POPC   C3A25613  29.963   5.841   7.950
 5127POPC   C4A25614  29.965   5.903   7.650
 5127POPC   C1B25615  30.158   5.843   8.550
 5127POPC   C2B25616  30.174   5.796   8.250
 5127POPC   C3B25617  30.197   5.789   7.950
 5127POPC   C4B25618  30.199   5.766   7.650
 5128POPC   NC325619  31.488  36.940   9.450
 5128POPC   PO425620  31.484  36.905   9.150
 5128POPC   GL125621  31.508  36.937   8.850
 5128POPC   GL225622  31.356  36.997   8.850
 5128POPC   C1A25623  31.458  36.948   8.550
 5128POPC   D2A25624  31.441  36.880   8.250
 5128POPC   C3A25625  31.478  36.865   7.950
 5128POPC   C4A25626  31.472  36.939   7.650
 5128POPC   C1B25627  31.286  37.150   8.550
 5128POPC   C2B25628  31.314  37.079   8.250
 5128POPC   C3B25629  31.289  37.097   7.950
 5128POPC   C4B25630  31.358  37.120   7.650
 5129POPC   NC325631   8.243  11.346   9.450
 5129POPC   PO425632   8.202  11.286   9.150
 5129POPC   GL125633   8.244  11.294   8.850
 5129POPC   GL225634   8.108  11.369   8.850
 5129POPC   C1A25635   8.211  11.321   8.550
 5129POPC   D2A25636   8.162  11.326   8.250
 5129POPC   C3A25637   8.220  11.329   7.950
 5129POPC   C4A25638   8.156  11.310   7.650
 5129POPC   C1B25639   8.022  11.388   8.550
 5129POPC   C2B25640   7.955  11.482   8.250
 5129POPC   C3B25641   7.993  11.414   7.950
 5129POPC   C4B25642   8.013  11.405   7.650
 5130POPC   NC325643   8.992  21.372   9.450
 5130POPC   PO425644   8.981  21.373   9.150
 5130POPC   GL125645   8.939  21.338   8.850
 5130POPC   GL225646   9.083  21.370   8.850
 5130POPC   C1A25647   8.975  21.420   8.550
 5130POPC   D2A25648   8.974  21.421   8.250
 5130POPC   C3A25649   8.972  21.344   7.950
 5130POPC   C4A25650   8.976  21.362   7.650
 5130POPC   C1B25651   9.192  21.401   8.550
 5130POPC   C2B25652   9.204  21.407   8.250
 5130POPC   C3B25653   9.194  21.339   7.950
 5130POPC   C4B25654   9.173  21.408   7.650
 5131POPC   NC325655  17.539  30.745   9.450
 5131POPC   PO425656  17.546  30.707   9.150
 5131POPC   GL125657  17.471  30.680   8.850
 5131POPC   GL225658  17.592  30.717   8.850
 5131POPC   C1A25659  17.485  30.663   8.550
 5131POPC   D2A25660  17.547  30.657   8.250
 5131POPC   C3A25661  17.549  30.654   7.950
 5131POPC   C4A25662  17.501  30.719   7.650
 5131POPC   C1B25663  17.795  30.686   8.550
 5131POPC   C2B25664  17.794  30.670   8.250
 5131POPC   C3B25665  17.772  30.703   7.950
 5131POPC   C4B25666  17.794  30.697   7.650
 5132POPC   NC325667  12.839   1.205   9.450
 5132POPC   PO425668  12.880   1.235   9.150
 5132POPC   GL125669  12.886   1.228   8.850
 5132POPC   GL225670  12.928   1.244   8.850
 5132POPC   C1A25671  12.813   1.177   8.550
 5132POPC   D2A25672  12.888   1.211   8.250
 5132POPC   C3A25673  12.895   1.258   7.950
 5132POPC   C4A25674  12.842   1.205   7.650
 5132POPC   C1B25675  13.045   1.305   8.550
 5132POPC   C2B25676  13.032   1.279   8.250
 5132POPC   C3B25677  13.090   1.346   7.950
 5132POPC   C4B25678  13.085   1.301   7.650
 5133POPC   NC325679  37.690  29.194   9.450
 5133POPC   PO425680  37.653  29.186   9.150
 5133POPC   GL125681  37.672  29.132   8.850
 5133POPC   GL225682  37.814  29.112   8.850
 5133POPC   C1A25683  37.656  29.167   8.550
 5133POPC   D2A25684  37.667  29.164   8.250
 5133POPC   C3A25685  37.688  29.159   7.950
 5133POPC   C4A25686  37.691  29.111   7.650
 5133POPC   C1B25687  37.906  29.061   8.550
 5133POPC   C2B25688  37.865  29.069   8.250
 5133POPC   C3B25689  37.921  29.039   7.950
 5133POPC   C4B25690  37.952  29.015   7.650
 5134POPC   NC325691  17.517   9.737   9.450
 5134POPC   PO425692  17.517   9.778   9.150
 5134POPC   GL125693  17.482   9.737   8.850
 5134POPC   GL225694  17.485   9.859   8.850
 5134POPC   C1A25695  17.540   9.745   8.550
 5134POPC   D2A25696  17.503   9.716   8.250
 5134POPC   C3A25697  17.489   9.790   7.950
 5134POPC   C4A25698  17.490   9.724   7.650
 5134POPC   C1B25699  17.499  10.020   8.550
 5134POPC   C2B25700  17.510   9.952   8.250
 5134POPC   C3B25701  17.425  10.021   7.950
 5134POPC   C4B25702  17.440  10.011   7.650
 5135POPC   NC325703   7.419   6.611   9.450
 5135POPC   PO425704   7.448   6.621   9.150
 5135POPC   GL125705   7.396   6.673   8.850
 5135POPC   GL225706   7.303   6.582   8.850
 5135POPC   C1A25707   7.431   6.692   8.550
 5135POPC   D2A25708   7.425   6.629   8.250
 5135POPC   C3A25709   7.461   6.665   7.950
 5135POPC   C4A25710   7.427   6.618   7.650
 5135POPC   C1B25711   7.186   6.517   8.550
 5135POPC   C2B25712   7.161   6.510   8.250
 5135POPC   C3B25713   7.183   6.520   7.950
 5135POPC   C4B25714   7.233   6.501   7.650
 5136POPC   NC325715  30.671   9.771   9.450
 5136POPC   PO425716  30.700   9.727   9.150
 5136POPC   GL125717  30.671   9.726   8.850
 5136POPC   GL225718  30.708   9.662   8.850
 5136POPC   C1A25719  30.687   9.722   8.550
 5136POPC   D2A25720  30.659   9.710   8.250
 5136POPC   C3A25721  30.710   9.704   7.950
 5136POPC   C4A25722  30.736   9.731   7.650
 5136POPC   C1B25723  30.713   9.510   8.550
 5136POPC   C2B25724  30.762   9.508   8.250
 5136POPC   C3B25725  30.679   9.538   7.950
 5136POPC   C4B25726  30.673   9.503   7.650
 5137POPC   NC325727  37.663   0.466   9.450
 5137POPC   PO425728  37.650   0.388   9.150
 5137POPC   GL125729  37.665   0.408   8.850
 5137POPC   GL225730  37.717   0.583   8.850
 5137POPC   C1A25731  37.673   0.461   8.550
 5137POPC   D2A25732  37.673   0.440   8.250
 5137POPC   C3A25733  37.632   0.472   7.950
 5137POPC   C4A25734  37.646   0.475   7.650
 5137POPC   C1B25735  37.693   0.655   8.550
 5137POPC   C2B25736  37.723   0.667   8.250
 5137POPC   C3B25737  37.733   0.641   7.950
 5137POPC   C4B25738  37.669   0.660   7.650
 5138POPC   NC325739   5.068  18.289   9.450
 5138POPC   PO425740   5.124  18.290   9.150
 5138POPC   GL125741   5.143  18.322   8.850
 5138POPC   GL225742   5.028  18.183   8.850
 5138POPC   C1A25743   5.084  18.237   8.550
 5138POPC   D2A25744   5.050  18.264   8.250
 5138POPC   C3A25745   5.131  18.287   7.950
 5138POPC   C4A25746   5.058  18.245   7.650
 5138POPC   C1B25747   4.930  18.057   8.550
 5138POPC   C2B25748   4.970  18.078   8.250
 5138POPC   C3B25749   4.930  18.066   7.950
 5138POPC   C4B25750   4.989  18.034   7.650
 5139POPC   NC325751  39.227  30.658   9.450
 5139POPC   PO425752  39.276  30.655   9.150
 5139POPC   GL125753  39.220  30.710   8.850
 5139POPC   GL225754  39.328  30.593   8.850
 5139POPC   C1A25755  39.252  30.709   8.550
 5139POPC   D2A25756  39.222  30.654   8.250
 5139POPC   C3A25757  39.201  30.718   7.950
 5139POPC   C4A25758  39.215  30.668   7.650
 5139POPC   C1B25759  39.467  30.552   8.550
 5139POPC   C2B25760  39.468  30.516   8.250
 5139POPC   C3B25761  39.432  30.522   7.950
 5139POPC   C4B25762  39.472  30.512   7.650
 5140POPC   NC325763  28.364  40.805   9.450
 5140POPC   PO425764  28.396  40.785   9.150
 5140POPC   GL125765  28.410  40.795   8.850
 5140POPC   GL225766  28.338  40.902   8.850
 5140POPC   C1A25767  28.400  40.741   8.550
 5140POPC   D2A25768  28.328  40.767   8.250
 5140POPC   C3A25769  28.396  40.809   7.950
 5140POPC   C4A25770  28.321  40.810   7.650
 5140POPC   C1B25771  28.303  41.008   8.550
 5140POPC   C2B25772  28.291  40.996   8.250
 5140POPC   C3B25773  28.288  40.978   7.950
 5140POPC   C4B25774  28.316  41.016   7.650
 5141POPC   NC325775  22.113  12.824   9.450
 5141POPC   PO425776  22.180  12.809   9.150
 5141POPC   GL125777  22.207  12.815   8.850
 5141POPC   GL225778  22.032  12.740   8.850
 5141POPC   C1A25779  22.129  12.863   8.550
 5141POPC   D2A25780  22.137  12.838   8.250
 5141POPC   C3A25781  22.133  12.875   7.950
 5141POPC   C4A25782  22.173  12.813   7.650
 5141POPC   C1B25783  21.932  12.678   8.550
 5141POPC   C2B25784  21.928  12.706   8.250
 5141POPC   C3B25785  21.917  12.759   7.950
 5141POPC   C4B25786  21.924  12.756   7.650
 5142POPC   NC325787  30.683  23.745   9.450
 5142POPC   PO425788  30.711  23.702   9.150
 5142POPC   GL125789  30.685  23.699   8.850
 5142POPC   GL225790  30.648  23.610   8.850
 5142POPC   C1A25791  30.673  23.703   8.550
 5142POPC   D2A25792  30.654  23.708   8.250
 5142POPC   C3A25793  30.719  23.735   7.950
 5142POPC   C4A25794  30.729  23.720   7.650
 5142POPC   C1B25795  30.467  23.552   8.550
 5142POPC   C2B25796  30.538  23.550   8.250
 5142POPC   C3B25797  30.471  23.521   7.950
 5142POPC   C4B25798  30.527  23.537   7.650
 5143POPC   NC325799  11.271  14.405   9.450
 5143POPC   PO425800  11.330  14.421   9.150
 5143POPC   GL125801  11.299  14.432   8.850
 5143POPC   GL225802  11.261  14.491   8.850
 5143POPC   C1A25803  11.293  14.433   8.550
 5143POPC   D2A25804  11.259  14.439   8.250
 5143POPC   C3A25805  11.344  14.453   7.950
 5143POPC   C4A25806  11.310  14.385   7.650
 5143POPC   C1B25807  11.151  14.618   8.550
 5143POPC   C2B25808  11.176  14.642   8.250
 5143POPC   C3B25809  11.120  14.553   7.950
 5143POPC   C4B25810  11.145  14.635   7.650
 5144POPC   NC325811   6.621  39.234   9.450
 5144POPC   PO425812   6.690  39.268   9.150
 5144POPC   GL125813   6.688  39.219   8.850
 5144POPC   GL225814   6.796  39.310   8.850
 5144POPC   C1A25815   6.626  39.183   8.550
 5144POPC   D2A25816   6.669  39.255   8.250
 5144POPC   C3A25817   6.659  39.232   7.950
 5144POPC   C4A25818   6.640  39.241   7.650
 5144POPC   C1B25819   6.883  39.355   8.550
 5144POPC   C2B25820   6.888  39.290   8.250
 5144POPC   C3B25821   6.883  39.327   7.950
 5144POPC   C4B25822   6.842  39.304   7.650
 5145POPC   NC325823   9.741  12.864   9.450
 5145POPC   PO425824   9.784  12.880   9.150
 5145POPC   GL125825   9.738  12.878   8.850
 5145POPC   GL225826   9.616  12.853   8.850
 5145POPC   C1A25827   9.708  12.846   8.550
 5145POPC   D2A25828   9.786  12.810   8.250
 5145POPC   C3A25829   9.782  12.814   7.950
 5145POPC   C4A25830   9.718  12.825   7.650
 5145POPC   C1B25831   9.490  12.816   8.550
 5145POPC   C2B25832   9.532  12.825   8.250
 5145POPC   C3B25833   9.459  12.900   7.950
 5145POPC   C4B25834   9.450  12.874   7.650
 5146POPC   NC325835  10.531  39.188   9.450
 5146POPC   PO425836  10.536  39.217   9.150
 5146POPC   GL125837  10.570  39.212   8.850
 5146POPC   GL225838  10.445  39.251   8.850
 5146POPC   C1A25839  10.483  39.185   8.550
 5146POPC   D2A25840  10.496  39.216   8.250
 5146POPC   C3A25841  10.571  39.242   7.950
 5146POPC   C4A25842  10.497  39.228   7.650
 5146POPC   C1B25843  10.324  39.302   8.550
 5146POPC   C2B25844  10.239  39.270   8.250
 5146POPC   C3B25845  10.291  39.293   7.950
 5146POPC   C4B25846  10.286  39.310   7.650
 5147POPC   NC325847  37.664  15.926   9.450
 5147POPC   PO425848  37.671  15.941   9.150
 5147POPC   GL125849  37.655  15.985   8.850
 5147POPC   GL225850  37.721  16.100   8.850
 5147POPC   C1A25851  37.723  15.981   8.550
 5147POPC   D2A25852  37.645  15.905   8.250
 5147POPC   C3A25853  37.709  15.986   7.950
 5147POPC   C4A25854  37.643  15.964   7.650
 5147POPC   C1B25855  37.757  16.195   8.550
 5147POPC   C2B25856  37.709  16.205   8.250
 5147POPC   C3B25857  37.764  16.203   7.950
 5147POPC   C4B25858  37.737  16.226   7.650
 5148POPC   NC325859   0.472   2.744   9.450
 5148POPC   PO425860   0.443   2.791   9.150
 5148POPC   GL125861   0.460   2.727   8.850
 5148POPC   GL225862   0.334   2.734   8.850
 5148POPC   C1A25863   0.472   2.733   8.550
 5148POPC   D2A25864   0.487   2.773   8.250
 5148POPC   C3A25865   0.412   2.788   7.950
 5148POPC   C4A25866   0.420   2.774   7.650
 5148POPC   C1B25867   0.225   2.561   8.550
 5148POPC   C2B25868   0.204   2.581   8.250
 5148POPC   C3B25869   0.197   2.577   7.950
 5148POPC   C4B25870   0.226   2.643   7.650
 5149POPC   NC325871  44.671  29.924   9.450
 5149POPC   PO425872  44.670  29.873   9.150
 5149POPC   GL125873  44.645  29.938   8.850
 5149POPC   GL225874  44.745  30.009   8.850
 5149POPC   C1A25875  44.696  29.882   8.550
 5149POPC   D2A25876  44.708  29.910   8.250
 5149POPC   C3A25877  44.624  29.910   7.950
 5149POPC   C4A25878  44.675  29.880   7.650
 5149POPC   C1B25879  44.855  30.139   8.550
 5149POPC   C2B25880  44.851  30.081   8.250
 5149POPC   C3B25881  44.808  30.107   7.950
 5149POPC   C4B25882  44.860  30.085   7.650
 5150POPC   NC325883  44.621  43.840   9.450
 5150POPC   PO425884  44.678  43.842   9.150
 5150POPC   GL125885  44.680  43.919   8.850
 5150POPC   GL225886  44.775  43.910   8.850
 5150POPC   C1A25887  44.632  43.847   8.550
 5150POPC   D2A25888  44.663  43.883   8.250
 5150POPC   C3A25889  44.659  43.868   7.950
 5150POPC   C4A25890  44.673  43.917   7.650
 5150POPC   C1B25891  44.868  43.975   8.550
 5150POPC   C2B25892  44.882  44.018   8.250
 5150POPC   C3B25893  44.901  44.052   7.950
 5150POPC   C4B25894  44.831  44.031   7.650
 5151POPC   NC325895   9.798  31.451   9.450
 5151POPC   PO425896   9.723  31.501   9.150
 5151POPC   GL125897   9.731  31.424   8.850
 5151POPC   GL225898   9.817  31.421   8.850
 5151POPC   C1A25899   9.794  31.520   8.550
 5151POPC   D2A25900   9.726  31.514   8.250
 5151POPC   C3A25901   9.739  31.459   7.950
 5151POPC   C4A25902   9.716  31.479   7.650
 5151POPC   C1B25903   9.920  31.306   8.550
 5151POPC   C2B25904   9.919  31.351   8.250
 5151POPC   C3B25905   9.948  31.257   7.950
 5151POPC   C4B25906   9.979  31.264   7.650
 5152POPC   NC325907  20.627   6.663   9.450
 5152POPC   PO425908  20.610   6.642   9.150
 5152POPC   GL125909  20.587   6.639   8.850
 5152POPC   GL225910  20.523   6.751   8.850
 5152POPC   C1A25911  20.646   6.668   8.550
 5152POPC   D2A25912  20.629   6.624   8.250
 5152POPC   C3A25913  20.624   6.690   7.950
 5152POPC   C4A25914  20.651   6.662   7.650
 5152POPC   C1B25915  20.550   6.878   8.550
 5152POPC   C2B25916  20.509   6.853   8.250
 5152POPC   C3B25917  20.534   6.863   7.950
 5152POPC   C4B25918  20.459   6.912   7.650
 5153POPC   NC325919   5.100  32.266   9.450
 5153POPC   PO425920   5.090  32.280   9.150
 5153POPC   GL125921   5.132  32.245   8.850
 5153POPC   GL225922   5.002  32.335   8.850
 5153POPC   C1A25923   5.097  32.258   8.550
 5153POPC   D2A25924   5.137  32.221   8.250
 5153POPC   C3A25925   5.048  32.268   7.950
 5153POPC   C4A25926   5.074  32.297   7.650
 5153POPC   C1B25927   4.863  32.381   8.550
 5153POPC   C2B25928   4.897  32.354   8.250
 5153POPC   C3B25929   4.911  32.361   7.950
 5153POPC   C4B25930   4.872  32.385   7.650
 5154POPC   NC325931  19.046  19.015   9.450
 5154POPC   PO425932  19.067  19.047   9.150
 5154POPC   GL125933  19.070  19.086   8.850
 5154POPC   GL225934  19.205  19.091   8.850
 5154POPC   C1A25935  19.087  19.078   8.550
 5154POPC   D2A25936  19.030  19.021   8.250
 5154POPC   C3A25937  19.081  19.040   7.950
 5154POPC   C4A25938  19.106  19.073   7.650
 5154POPC   C1B25939  19.292  19.107   8.550
 5154POPC   C2B25940  19.295  19.082   8.250
 5154POPC   C3B25941  19.324  19.116   7.950
 5154POPC   C4B25942  19.303  19.066   7.650
 5155POPC   NC325943  15.213  14.424   9.450
 5155POPC   PO425944  15.154  14.369   9.150
 5155POPC   GL125945  15.184  14.443   8.850
 5155POPC   GL225946  15.324  14.327   8.850
 5155POPC   C1A25947  15.179  14.411   8.550
 5155POPC   D2A25948  15.140  14.375   8.250
 5155POPC   C3A25949  15.167  14.397   7.950
 5155POPC   C4A25950  15.153  14.403   7.650
 5155POPC   C1B25951  15.411  14.252   8.550
 5155POPC   C2B25952  15.432  14.311   8.250
 5155POPC   C3B25953  15.392  14.336   7.950
 5155POPC   C4B25954  15.377  14.245   7.650
 5156POPC   NC325955  34.612  14.363   9.450
 5156POPC   PO425956  34.607  14.410   9.150
 5156POPC   GL125957  34.599  14.363   8.850
 5156POPC   GL225958  34.718  14.466   8.850
 5156POPC   C1A25959  34.618  14.450   8.550
 5156POPC   D2A25960  34.559  14.436   8.250
 5156POPC   C3A25961  34.547  14.385   7.950
 5156POPC   C4A25962  34.568  14.413   7.650
 5156POPC   C1B25963  34.814  14.586   8.550
 5156POPC   C2B25964  34.800  14.535   8.250
 5156POPC   C3B25965  34.767  14.515   7.950
 5156POPC   C4B25966  34.829  14.507   7.650
 5157POPC   NC325967  40.796  22.919   9.450
 5157POPC   PO425968  40.822  22.982   9.150
 5157POPC   GL125969  40.817  22.922   8.850
 5157POPC   GL225970  40.805  22.820   8.850
 5157POPC   C1A25971  40.749  22.987   8.550
 5157POPC   D2A25972  40.766  22.936   8.250
 5157POPC   C3A25973  40.803  22.908   7.950
 5157POPC   C4A25974  40.794  22.971   7.650
 5157POPC   C1B25975  40.761  22.683   8.550
 5157POPC   C2B25976  40.787  22.700   8.250
 5157POPC   C3B25977  40.799  22.648   7.950
 5157POPC   C4B25978  40.787  22.723   7.650
 5158POPC   NC325979  10.538  12.107   9.450
 5158POPC   PO425980  10.533  12.055   9.150
 5158POPC   GL125981  10.479  12.032   8.850
 5158POPC   GL225982  10.454  12.118   8.850
 5158POPC   C1A25983  10.514  12.093   8.550
 5158POPC   D2A25984  10.488  12.081   8.250
 5158POPC   C3A25985  10.564  12.103   7.950
 5158POPC   C4A25986  10.518  12.121   7.650
 5158POPC   C1B25987  10.348  12.243   8.550
 5158POPC   C2B25988  10.311  12.264   8.250
 5158POPC   C3B25989  10.366  12.251   7.950
 5158POPC   C4B25990  10.341  12.221   7.650
 5159POPC   NC325991  35.304  33.848   9.450
 5159POPC   PO425992  35.315  33.803   9.150
 5159POPC   GL125993  35.354  33.826   8.850
 5159POPC   GL225994  35.379  33.899   8.850
 5159POPC   C1A25995  35.356  33.845   8.550
 5159POPC   D2A25996  35.339  33.793   8.250
 5159POPC   C3A25997  35.316  33.772   7.950
 5159POPC   C4A25998  35.364  33.809   7.650
 5159POPC   C1B25999  35.353  34.081   8.550
 5159POPC   C2B26000  35.281  34.019   8.250
 5159POPC   C3B26001  35.273  34.031   7.950
 5159POPC   C4B26002  35.353  34.014   7.650
 5160POPC   NC326003  23.720   5.888   9.450
 5160POPC   PO426004  23.758   5.906   9.150
 5160POPC   GL126005  23.722   5.835   8.850
 5160POPC   GL226006  23.629   5.714   8.850
 5160POPC   C1A26007  23.721   5.892   8.550
 5160POPC   D2A26008  23.724   5.860   8.250
 5160POPC   C3A26009  23.665   5.889   7.950
 5160POPC   C4A26010  23.716   5.875   7.650
 5160POPC   C1B26011  23.632   5.611   8.550
 5160POPC   C2B26012  23.590   5.688   8.250
 5160POPC   C3B26013  23.644   5.669   7.950
 5160POPC   C4B26014  23.621   5.690   7.650
 5161POPC   NC326015  39.263   5.847   9.450
 5161POPC   PO426016  39.222   5.894   9.150
 5161POPC   GL126017  39.273   5.850   8.850
 5161POPC   GL226018  39.179   6.016   8.850
 5161POPC   C1A26019  39.193   5.903   8.550
 5161POPC   D2A26020  39.262   5.904   8.250
 5161POPC   C3A26021  39.240   5.872   7.950
 5161POPC   C4A26022  39.267   5.878   7.650
 5161POPC   C1B26023  39.215   6.145   8.550
 5161POPC   C2B26024  39.200   6.089   8.250
 5161POPC   C3B26025  39.206   6.126   7.950
 5161POPC   C4B26026  39.195   6.132   7.650
 5162POPC   NC326027  38.497  12.812   9.450
 5162POPC   PO426028  38.435  12.843   9.150
 5162POPC   GL126029  38.498  12.810   8.850
 5162POPC   GL226030  38.506  12.740   8.850
 5162POPC   C1A26031  38.431  12.835   8.550
 5162POPC   D2A26032  38.502  12.880   8.250
 5162POPC   C3A26033  38.406  12.892   7.950
 5162POPC   C4A26034  38.504  12.878   7.650
 5162POPC   C1B26035  38.609  12.650   8.550
 5162POPC   C2B26036  38.590  12.651   8.250
 5162POPC   C3B26037  38.568  12.660   7.950
 5162POPC   C4B26038  38.525  12.649   7.650
 5163POPC   NC326039  18.305  41.568   9.450
 5163POPC   PO426040  18.280  41.514   9.150
 5163POPC   GL126041  18.314  41.574   8.850
 5163POPC   GL226042  18.174  41.427   8.850
 5163POPC   C1A26043  18.259  41.573   8.550
 5163POPC   D2A26044  18.234  41.565   8.250
 5163POPC   C3A26045  18.242  41.521   7.950
 5163POPC   C4A26046  18.263  41.531   7.650
 5163POPC   C1B26047  18.100  41.405   8.550
 5163POPC   C2B26048  18.112  41.351   8.250
 5163POPC   C3B26049  18.163  41.386   7.950
 5163POPC   C4B26050  18.153  41.353   7.650
 5164POPC   NC326051  40.760  18.284   9.450
 5164POPC   PO426052  40.796  18.298   9.150
 5164POPC   GL126053  40.799  18.263   8.850
 5164POPC   GL226054  40.857  18.257   8.850
 5164POPC   C1A26055  40.775  18.250   8.550
 5164POPC   D2A26056  40.807  18.246   8.250
 5164POPC   C3A26057  40.754  18.269   7.950
 5164POPC   C4A26058  40.822  18.270   7.650
 5164POPC   C1B26059  41.014  18.200   8.550
 5164POPC   C2B26060  41.003  18.200   8.250
 5164POPC   C3B26061  40.972  18.139   7.950
 5164POPC   C4B26062  41.022  18.140   7.650
 5165POPC   NC326063  26.005  16.734   9.450
 5165POPC   PO426064  26.025  16.728   9.150
 5165POPC   GL126065  26.085  16.754   8.850
 5165POPC   GL226066  26.207  16.777   8.850
 5165POPC   C1A26067  26.037  16.730   8.550
 5165POPC   D2A26068  26.036  16.761   8.250
 5165POPC   C3A26069  26.081  16.741   7.950
 5165POPC   C4A26070  26.083  16.760   7.650
 5165POPC   C1B26071  26.262  16.818   8.550
 5165POPC   C2B26072  26.280  16.800   8.250
 5165POPC   C3B26073  26.287  16.796   7.950
 5165POPC   C4B26074  26.246  16.791   7.650
 5166POPC   NC326075   8.219  32.255   9.450
 5166POPC   PO426076   8.173  32.235   9.150
 5166POPC   GL126077   8.171  32.222   8.850
 5166POPC   GL226078   8.228  32.423   8.850
 5166POPC   C1A26079   8.236  32.231   8.550
 5166POPC   D2A26080   8.168  32.232   8.250
 5166POPC   C3A26081   8.202  32.243   7.950
 5166POPC   C4A26082   8.188  32.208   7.650
 5166POPC   C1B26083   8.152  32.532   8.550
 5166POPC   C2B26084   8.179  32.548   8.250
 5166POPC   C3B26085   8.193  32.514   7.950
 5166POPC   C4B26086   8.198  32.501   7.650
 5167POPC   NC326087  13.644  17.489   9.450
 5167POPC   PO426088  13.673  17.465   9.150
 5167POPC   GL126089  13.610  17.497   8.850
 5167POPC   GL226090  13.514  17.542   8.850
 5167POPC   C1A26091  13.593  17.533   8.550
 5167POPC   D2A26092  13.648  17.530   8.250
 5167POPC   C3A26093  13.589  17.499   7.950
 5167POPC   C4A26094  13.652  17.522   7.650
 5167POPC   C1B26095  13.378  17.561   8.550
 5167POPC   C2B26096  13.435  17.574   8.250
 5167POPC   C3B26097  13.427  17.551   7.950
 5167POPC   C4B26098  13.427  17.592   7.650
 5168POPC   NC326099  31.510  26.053   9.450
 5168POPC   PO426100  31.427  26.074   9.150
 5168POPC   GL126101  31.513  26.028   8.850
 5168POPC   GL226102  31.334  26.004   8.850
 5168POPC   C1A26103  31.497  26.046   8.550
 5168POPC   D2A26104  31.497  26.013   8.250
 5168POPC   C3A26105  31.443  26.055   7.950
 5168POPC   C4A26106  31.478  25.992   7.650
 5168POPC   C1B26107  31.230  25.933   8.550
 5168POPC   C2B26108  31.206  25.931   8.250
 5168POPC   C3B26109  31.273  25.879   7.950
 5168POPC   C4B26110  31.240  25.881   7.650
 5169POPC   NC326111   4.282   9.794   9.450
 5169POPC   PO426112   4.303   9.710   9.150
 5169POPC   GL126113   4.268   9.775   8.850
 5169POPC   GL226114   4.434   9.655   8.850
 5169POPC   C1A26115   4.332   9.736   8.550
 5169POPC   D2A26116   4.361   9.795   8.250
 5169POPC   C3A26117   4.274   9.718   7.950
 5169POPC   C4A26118   4.342   9.775   7.650
 5169POPC   C1B26119   4.520   9.594   8.550
 5169POPC   C2B26120   4.519   9.581   8.250
 5169POPC   C3B26121   4.505   9.630   7.950
 5169POPC   C4B26122   4.527   9.639   7.650
 5170POPC   NC326123  19.094  29.957   9.450
 5170POPC   PO426124  19.094  29.926   9.150
 5170POPC   GL126125  19.099  29.891   8.850
 5170POPC   GL226126  19.121  29.770   8.850
 5170POPC   C1A26127  19.038  29.887   8.550
 5170POPC   D2A26128  19.036  29.930   8.250
 5170POPC   C3A26129  19.049  29.914   7.950
 5170POPC   C4A26130  19.025  29.950   7.650
 5170POPC   C1B26131  19.157  29.710   8.550
 5170POPC   C2B26132  19.192  29.721   8.250
 5170POPC   C3B26133  19.184  29.680   7.950
 5170POPC   C4B26134  19.165  29.730   7.650
 5171POPC   NC326135  16.754  14.391   9.450
 5171POPC   PO426136  16.704  14.441   9.150
 5171POPC   GL126137  16.755  14.415   8.850
 5171POPC   GL226138  16.856  14.338   8.850
 5171POPC   C1A26139  16.776  14.438   8.550
 5171POPC   D2A26140  16.702  14.438   8.250
 5171POPC   C3A26141  16.704  14.402   7.950
 5171POPC   C4A26142  16.693  14.380   7.650
 5171POPC   C1B26143  16.883  14.194   8.550
 5171POPC   C2B26144  16.893  14.221   8.250
 5171POPC   C3B26145  16.916  14.260   7.950
 5171POPC   C4B26146  16.884  14.276   7.650
 5172POPC   NC326147  27.569  15.179   9.450
 5172POPC   PO426148  27.562  15.174   9.150
 5172POPC   GL126149  27.582  15.175   8.850
 5172POPC   GL226150  27.419  15.193   8.850
 5172POPC   C1A26151  27.549  15.226   8.550
 5172POPC   D2A26152  27.559  15.211   8.250
 5172POPC   C3A26153  27.563  15.155   7.950
 5172POPC   C4A26154  27.594  15.159   7.650
 5172POPC   C1B26155  27.352  15.152   8.550
 5172POPC   C2B26156  27.328  15.163   8.250
 5172POPC   C3B26157  27.310  15.184   7.950
 5172POPC   C4B26158  27.294  15.183   7.650
 5173POPC   NC326159  29.888   1.962   9.450
 5173POPC   PO426160  29.917   1.943   9.150
 5173POPC   GL126161  29.894   2.028   8.850
 5173POPC   GL226162  29.804   2.099   8.850
 5173POPC   C1A26163  29.955   1.994   8.550
 5173POPC   D2A26164  29.962   1.942   8.250
 5173POPC   C3A26165  29.935   1.940   7.950
 5173POPC   C4A26166  29.878   1.941   7.650
 5173POPC   C1B26167  29.740   2.133   8.550
 5173POPC   C2B26168  29.697   2.112   8.250
 5173POPC   C3B26169  29.750   2.161   7.950
 5173POPC   C4B26170  29.688   2.158   7.650
 5174POPC   NC326171  15.208  22.165   9.450
 5174POPC   PO426172  15.215  22.207   9.150
 5174POPC   GL126173  15.209  22.148   8.850
 5174POPC   GL226174  15.292  22.259   8.850
 5174POPC   C1A26175  15.172  22.166   8.550
 5174POPC   D2A26176  15.176  22.176   8.250
 5174POPC   C3A26177  15.199  22.116   7.950
 5174POPC   C4A26178  15.156  22.170   7.650
 5174POPC   C1B26179  15.352  22.337   8.550
 5174POPC   C2B26180  15.289  22.359   8.250
 5174POPC   C3B26181  15.312  22.332   7.950
 5174POPC   C4B26182  15.352  22.339   7.650
 5175POPC   NC326183  36.877  30.673   9.450
 5175POPC   PO426184  36.941  30.733   9.150
 5175POPC   GL126185  36.914  30.691   8.850
 5175POPC   GL226186  36.872  30.537   8.850
 5175POPC   C1A26187  36.904  30.669   8.550
 5175POPC   D2A26188  36.874  30.730   8.250
 5175POPC   C3A26189  36.873  30.659   7.950
 5175POPC   C4A26190  36.890  30.660   7.650
 5175POPC   C1B26191  36.842  30.454   8.550
 5175POPC   C2B26192  36.903  30.458   8.250
 5175POPC   C3B26193  36.895  30.460   7.950
 5175POPC   C4B26194  36.875  30.484   7.650
 5176POPC   NC326195  31.519  44.633   9.450
 5176POPC   PO426196  31.484  44.639   9.150
 5176POPC   GL126197  31.496  44.696   8.850
 5176POPC   GL226198  31.360  44.694   8.850
 5176POPC   C1A26199  31.481  44.663   8.550
 5176POPC   D2A26200  31.474  44.641   8.250
 5176POPC   C3A26201  31.492  44.663   7.950
 5176POPC   C4A26202  31.511  44.701   7.650
 5176POPC   C1B26203  31.195  44.693   8.550
 5176POPC   C2B26204  31.197  44.696   8.250
 5176POPC   C3B26205  31.270  44.724   7.950
 5176POPC   C4B26206  31.249  44.670   7.650
 5177POPC   NC326207  43.061  26.788   9.450
 5177POPC   PO426208  43.157  26.793   9.150
 5177POPC   GL126209  43.107  26.781   8.850
 5177POPC   GL226210  43.244  26.937   8.850
 5177POPC   C1A26211  43.136  26.843   8.550
 5177POPC   D2A26212  43.082  26.784   8.250
 5177POPC   C3A26213  43.137  26.798   7.950
 5177POPC   C4A26214  43.066  26.839   7.650
 5177POPC   C1B26215  43.362  26.954   8.550
 5177POPC   C2B26216  43.328  26.921   8.250
 5177POPC   C3B26217  43.358  26.933   7.950
 5177POPC   C4B26218  43.361  26.931   7.650
 5178POPC   NC326219   5.820  19.816   9.450
 5178POPC   PO426220   5.835  19.789   9.150
 5178POPC   GL126221   5.885  19.877   8.850
 5178POPC   GL226222   5.946  19.757   8.850
 5178POPC   C1A26223   5.877  19.819   8.550
 5178POPC   D2A26224   5.906  19.837   8.250
 5178POPC   C3A26225   5.912  19.847   7.950
 5178POPC   C4A26226   5.841  19.857   7.650
 5178POPC   C1B26227   6.121  19.713   8.550
 5178POPC   C2B26228   6.116  19.739   8.250
 5178POPC   C3B26229   6.133  19.716   7.950
 5178POPC   C4B26230   6.091  19.732   7.650
 5179POPC   NC326231  11.348   8.925   9.450
 5179POPC   PO426232  11.339   9.020   9.150
 5179POPC   GL126233  11.298   8.993   8.850
 5179POPC   GL226234  11.225   8.960   8.850
 5179POPC   C1A26235  11.321   8.928   8.550
 5179POPC   D2A26236  11.292   8.986   8.250
 5179POPC   C3A26237  11.333   8.935   7.950
 5179POPC   C4A26238  11.256   8.976   7.650
 5179POPC   C1B26239  11.101   8.911   8.550
 5179POPC   C2B26240  11.041   8.942   8.250
 5179POPC   C3B26241  11.062   8.908   7.950
 5179POPC   C4B26242  11.024   8.853   7.650
 5180POPC   NC326243  25.225   6.604   9.450
 5180POPC   PO426244  25.231   6.600   9.150
 5180POPC   GL126245  25.297   6.613   8.850
 5180POPC   GL226246  25.363   6.649   8.850
 5180POPC   C1A26247  25.236   6.637   8.550
 5180POPC   D2A26248  25.262   6.647   8.250
 5180POPC   C3A26249  25.278   6.637   7.950
 5180POPC   C4A26250  25.238   6.651   7.650
 5180POPC   C1B26251  25.538   6.520   8.550
 5180POPC   C2B26252  25.482   6.511   8.250
 5180POPC   C3B26253  25.528   6.591   7.950
 5180POPC   C4B26254  25.471   6.594   7.650
 5181POPC   NC326255   0.410  36.106   9.450
 5181POPC   PO426256   0.466  36.098   9.150
 5181POPC   GL126257   0.409  36.172   8.850
 5181POPC   GL226258   0.269  36.110   8.850
 5181POPC   C1A26259   0.426  36.153   8.550
 5181POPC   D2A26260   0.452  36.111   8.250
 5181POPC   C3A26261   0.414  36.169   7.950
 5181POPC   C4A26262   0.421  36.151   7.650
 5181POPC   C1B26263   0.183  36.112   8.550
 5181POPC   C2B26264   0.150  36.095   8.250
 5181POPC   C3B26265   0.177  36.115   7.950
 5181POPC   C4B26266   0.210  36.134   7.650
 5182POPC   NC326267  41.601   9.710   9.450
 5182POPC   PO426268  41.544   9.703   9.150
 5182POPC   GL126269  41.592   9.767   8.850
 5182POPC   GL226270  41.723   9.778   8.850
 5182POPC   C1A26271  41.552   9.744   8.550
 5182POPC   D2A26272  41.602   9.715   8.250
 5182POPC   C3A26273  41.548   9.702   7.950
 5182POPC   C4A26274  41.547   9.776   7.650
 5182POPC   C1B26275  41.772   9.785   8.550
 5182POPC   C2B26276  41.794   9.796   8.250
 5182POPC   C3B26277  41.792   9.799   7.950
 5182POPC   C4B26278  41.812   9.833   7.650
 5183POPC   NC326279  19.862   2.774   9.450
 5183POPC   PO426280  19.814   2.776   9.150
 5183POPC   GL126281  19.881   2.734   8.850
 5183POPC   GL226282  19.731   2.638   8.850
 5183POPC   C1A26283  19.884   2.742   8.550
 5183POPC   D2A26284  19.827   2.759   8.250
 5183POPC   C3A26285  19.812   2.743   7.950
 5183POPC   C4A26286  19.828   2.758   7.650
 5183POPC   C1B26287  19.671   2.538   8.550
 5183POPC   C2B26288  19.640   2.595   8.250
 5183POPC   C3B26289  19.704   2.622   7.950
 5183POPC   C4B26290  19.723   2.594   7.650
 5184POPC   NC326291   8.978  34.577   9.450
 5184POPC   PO426292   8.940  34.599   9.150
 5184POPC   GL126293   8.966  34.604   8.850
 5184POPC   GL226294   8.901  34.729   8.850
 5184POPC   C1A26295   8.939  34.591   8.550
 5184POPC   D2A26296   8.990  34.544   8.250
 5184POPC   C3A26297   8.991  34.616   7.950
 5184POPC   C4A26298   8.991  34.574   7.650
 5184POPC   C1B26299   8.920  34.820   8.550
 5184POPC   C2B26300   8.883  34.835   8.250
 5184POPC   C3B26301   8.845  34.784   7.950
 5184POPC   C4B26302   8.838  34.783   7.650
 5185POPC   NC326303  20.578   0.411   9.450
 5185POPC   PO426304  20.603   0.455   9.150
 5185POPC   GL126305  20.613   0.392   8.850
 5185POPC   GL226306  20.498   0.376   8.850
 5185POPC   C1A26307  20.562   0.461   8.550
 5185POPC   D2A26308  20.602   0.461   8.250
 5185POPC   C3A26309  20.638   0.454   7.950
 5185POPC   C4A26310  20.627   0.424   7.650
 5185POPC   C1B26311  20.390   0.254   8.550
 5185POPC   C2B26312  20.384   0.295   8.250
 5185POPC   C3B26313  20.435   0.251   7.950
 5185POPC   C4B26314  20.392   0.270   7.650
 5186POPC   NC326315  39.183  43.126   9.450
 5186POPC   PO426316  39.280  43.105   9.150
 5186POPC   GL126317  39.278  43.125   8.850
 5186POPC   GL226318  39.287  42.967   8.850
 5186POPC   C1A26319  39.232  43.121   8.550
 5186POPC   D2A26320  39.275  43.082   8.250
 5186POPC   C3A26321  39.280  43.089   7.950
 5186POPC   C4A26322  39.204  43.151   7.650
 5186POPC   C1B26323  39.343  42.891   8.550
 5186POPC   C2B26324  39.314  42.865   8.250
 5186POPC   C3B26325  39.408  42.910   7.950
 5186POPC   C4B26326  39.330  42.908   7.650
 5187POPC   NC326327  26.798   2.000   9.450
 5187POPC   PO426328  26.797   1.973   9.150
 5187POPC   GL126329  26.785   2.020   8.850
 5187POPC   GL226330  26.812   1.824   8.850
 5187POPC   C1A26331  26.858   2.011   8.550
 5187POPC   D2A26332  26.809   1.996   8.250
 5187POPC   C3A26333  26.823   1.965   7.950
 5187POPC   C4A26334  26.851   2.038   7.650
 5187POPC   C1B26335  26.814   1.691   8.550
 5187POPC   C2B26336  26.790   1.750   8.250
 5187POPC   C3B26337  26.855   1.737   7.950
 5187POPC   C4B26338  26.844   1.704   7.650
 5188POPC   NC326339  32.263   6.669   9.450
 5188POPC   PO426340  32.250   6.643   9.150
 5188POPC   GL126341  32.274   6.626   8.850
 5188POPC   GL226342  32.181   6.738   8.850
 5188POPC   C1A26343  32.214   6.619   8.550
 5188POPC   D2A26344  32.290   6.651   8.250
 5188POPC   C3A26345  32.234   6.643   7.950
 5188POPC   C4A26346  32.229   6.665   7.650
 5188POPC   C1B26347  32.165   6.888   8.550
 5188POPC   C2B26348  32.195   6.903   8.250
 5188POPC   C3B26349  32.124   6.865   7.950
 5188POPC   C4B26350  32.144   6.916   7.650
 5189POPC   NC326351   7.447  15.146   9.450
 5189POPC   PO426352   7.438  15.166   9.150
 5189POPC   GL126353   7.418  15.206   8.850
 5189POPC   GL226354   7.434  15.027   8.850
 5189POPC   C1A26355   7.424  15.195   8.550
 5189POPC   D2A26356   7.403  15.153   8.250
 5189POPC   C3A26357   7.410  15.189   7.950
 5189POPC   C4A26358   7.451  15.191   7.650
 5189POPC   C1B26359   7.381  14.883   8.550
 5189POPC   C2B26360   7.429  14.913   8.250
 5189POPC   C3B26361   7.432  14.955   7.950
 5189POPC   C4B26362   7.458  14.881   7.650
 5190POPC   NC326363  29.110  28.372   9.450
 5190POPC   PO426364  29.140  28.398   9.150
 5190POPC   GL126365  29.145  28.416   8.850
 5190POPC   GL226366  28.970  28.415   8.850
 5190POPC   C1A26367  29.166  28.416   8.550
 5190POPC   D2A26368  29.136  28.366   8.250
 5190POPC   C3A26369  29.166  28.411   7.950
 5190POPC   C4A26370  29.163  28.386   7.650
 5190POPC   C1B26371  28.898  28.356   8.550
 5190POPC   C2B26372  28.905  28.336   8.250
 5190POPC   C3B26373  28.890  28.400   7.950
 5190POPC   C4B26374  28.890  28.403   7.650
 5191POPC   NC326375   2.027  36.093   9.450
 5191POPC   PO426376   1.998  36.119   9.150
 5191POPC   GL126377   1.959  36.126   8.850
 5191POPC   GL226378   1.911  36.048   8.850
 5191POPC   C1A26379   1.963  36.108   8.550
 5191POPC   D2A26380   1.962  36.115   8.250
 5191POPC   C3A26381   2.037  36.119   7.950
 5191POPC   C4A26382   1.955  36.108   7.650
 5191POPC   C1B26383   1.806  35.957   8.550
 5191POPC   C2B26384   1.782  35.922   8.250
 5191POPC   C3B26385   1.798  35.899   7.950
 5191POPC   C4B26386   1.834  35.965   7.650
 5192POPC   NC326387  17.467   8.236   9.450
 5192POPC   PO426388  17.531   8.184   9.150
 5192POPC   GL126389  17.463   8.161   8.850
 5192POPC   GL226390  17.434   8.110   8.850
 5192POPC   C1A26391  17.513   8.164   8.550
 5192POPC   D2A26392  17.510   8.234   8.250
 5192POPC   C3A26393  17.495   8.178   7.950
 5192POPC   C4A26394  17.514   8.230   7.650
 5192POPC   C1B26395  17.344   8.052   8.550
 5192POPC   C2B26396  17.323   8.023   8.250
 5192POPC   C3B26397  17.350   8.015   7.950
 5192POPC   C4B26398  17.269   8.041   7.650
 5193POPC   NC326399  32.297  32.294   9.450
 5193POPC   PO426400  32.284  32.286   9.150
 5193POPC   GL126401  32.268  32.238   8.850
 5193POPC   GL226402  32.190  32.111   8.850
 5193POPC   C1A26403  32.271  32.262   8.550
 5193POPC   D2A26404  32.259  32.259   8.250
 5193POPC   C3A26405  32.270  32.254   7.950
 5193POPC   C4A26406  32.272  32.294   7.650
 5193POPC   C1B26407  32.235  32.042   8.550
 5193POPC   C2B26408  32.237  32.042   8.250
 5193POPC   C3B26409  32.177  31.953   7.950
 5193POPC   C4B26410  32.261  31.970   7.650
 5194POPC   NC326411  15.194   0.459   9.450
 5194POPC   PO426412  15.132   0.413   9.150
 5194POPC   GL126413  15.147   0.473   8.850
 5194POPC   GL226414  15.038   0.313   8.850
 5194POPC   C1A26415  15.222   0.397   8.550
 5194POPC   D2A26416  15.217   0.441   8.250
 5194POPC   C3A26417  15.137   0.440   7.950
 5194POPC   C4A26418  15.171   0.405   7.650
 5194POPC   C1B26419  15.011   0.314   8.550
 5194POPC   C2B26420  15.000   0.251   8.250
 5194POPC   C3B26421  15.010   0.268   7.950
 5194POPC   C4B26422  15.025   0.278   7.650
 5195POPC   NC326423   8.225   1.227   9.450
 5195POPC   PO426424   8.193   1.219   9.150
 5195POPC   GL126425   8.149   1.195   8.850
 5195POPC   GL226426   8.039   1.173   8.850
 5195POPC   C1A26427   8.197   1.180   8.550
 5195POPC   D2A26428   8.215   1.233   8.250
 5195POPC   C3A26429   8.177   1.251   7.950
 5195POPC   C4A26430   8.229   1.256   7.650
 5195POPC   C1B26431   7.973   1.092   8.550
 5195POPC   C2B26432   7.933   1.116   8.250
 5195POPC   C3B26433   7.960   1.104   7.950
 5195POPC   C4B26434   7.980   1.145   7.650
 5196POPC   NC326435  38.451  43.068   9.450
 5196POPC   PO426436  38.450  43.135   9.150
 5196POPC   GL126437  38.503  43.067   8.850
 5196POPC   GL226438  38.519  43.034   8.850
 5196POPC   C1A26439  38.419  43.083   8.550
 5196POPC   D2A26440  38.493  43.134   8.250
 5196POPC   C3A26441  38.470  43.117   7.950
 5196POPC   C4A26442  38.415  43.124   7.650
 5196POPC   C1B26443  38.598  42.869   8.550
 5196POPC   C2B26444  38.572  42.884   8.250
 5196POPC   C3B26445  38.649  42.959   7.950
 5196POPC   C4B26446  38.642  42.900   7.650
 5197POPC   NC326447  33.778  29.887   9.450
 5197POPC   PO426448  33.798  29.960   9.150
 5197POPC   GL126449  33.793  29.934   8.850
 5197POPC   GL226450  33.952  29.896   8.850
 5197POPC   C1A26451  33.803  29.952   8.550
 5197POPC   D2A26452  33.796  29.876   8.250
 5197POPC   C3A26453  33.766  29.878   7.950
 5197POPC   C4A26454  33.821  29.886   7.650
 5197POPC   C1B26455  34.080  29.934   8.550
 5197POPC   C2B26456  34.018  29.911   8.250
 5197POPC   C3B26457  34.067  29.925   7.950
 5197POPC   C4B26458  34.036  29.917   7.650
 5198POPC   NC326459  33.071  19.026   9.450
 5198POPC   PO426460  32.979  19.056   9.150
 5198POPC   GL126461  33.031  19.097   8.850
 5198POPC   GL226462  33.074  18.968   8.850
 5198POPC   C1A26463  33.012  19.031   8.550
 5198POPC   D2A26464  33.000  19.098   8.250
 5198POPC   C3A26465  32.998  19.039   7.950
 5198POPC   C4A26466  33.038  19.032   7.650
 5198POPC   C1B26467  33.152  18.816   8.550
 5198POPC   C2B26468  33.218  18.878   8.250
 5198POPC   C3B26469  33.210  18.874   7.950
 5198POPC   C4B26470  33.196  18.871   7.650
 5199POPC   NC326471  18.269  29.101   9.450
 5199POPC   PO426472  18.329  29.193   9.150
 5199POPC   GL126473  18.254  29.165   8.850
 5199POPC   GL226474  18.393  29.149   8.850
 5199POPC   C1A26475  18.306  29.099   8.550
 5199POPC   D2A26476  18.271  29.185   8.250
 5199POPC   C3A26477  18.245  29.177   7.950
 5199POPC   C4A26478  18.253  29.096   7.650
 5199POPC   C1B26479  18.473  29.188   8.550
 5199POPC   C2B26480  18.551  29.222   8.250
 5199POPC   C3B26481  18.497  29.209   7.950
 5199POPC   C4B26482  18.564  29.204   7.650
 5200POPC   NC326483  36.934  33.795   9.450
 5200POPC   PO426484  36.917  33.848   9.150
 5200POPC   GL126485  36.953  33.792   8.850
 5200POPC   GL226486  37.048  33.841   8.850
 5200POPC   C1A26487  36.919  33.799   8.550
 5200POPC   D2A26488  36.947  33.828   8.250
 5200POPC   C3A26489  36.884  33.753   7.950
 5200POPC   C4A26490  36.943  33.827   7.650
 5200POPC   C1B26491  37.200  33.824   8.550
 5200POPC   C2B26492  37.167  33.816   8.250
 5200POPC   C3B26493  37.132  33.792   7.950
 5200POPC   C4B26494  37.134  33.837   7.650
 5201POPC   NC326495  15.969   8.177   9.450
 5201POPC   PO426496  15.966   8.164   9.150
 5201POPC   GL126497  15.956   8.227   8.850
 5201POPC   GL226498  15.863   8.218   8.850
 5201POPC   C1A26499  15.992   8.160   8.550
 5201POPC   D2A26500  15.998   8.241   8.250
 5201POPC   C3A26501  15.967   8.225   7.950
 5201POPC   C4A26502  15.912   8.207   7.650
 5201POPC   C1B26503  15.690   8.237   8.550
 5201POPC   C2B26504  15.699   8.206   8.250
 5201POPC   C3B26505  15.749   8.213   7.950
 5201POPC   C4B26506  15.688   8.184   7.650
 5202POPC   NC326507  12.057  21.413   9.450
 5202POPC   PO426508  12.098  21.361   9.150
 5202POPC   GL126509  12.046  21.350   8.850
 5202POPC   GL226510  12.250  21.370   8.850
 5202POPC   C1A26511  12.109  21.365   8.550
 5202POPC   D2A26512  12.053  21.374   8.250
 5202POPC   C3A26513  12.110  21.348   7.950
 5202POPC   C4A26514  12.026  21.421   7.650
 5202POPC   C1B26515  12.351  21.329   8.550
 5202POPC   C2B26516  12.326  21.382   8.250
 5202POPC   C3B26517  12.299  21.336   7.950
 5202POPC   C4B26518  12.334  21.384   7.650
 5203POPC   NC326519   7.415  19.058   9.450
 5203POPC   PO426520   7.371  19.022   9.150
 5203POPC   GL126521   7.437  19.012   8.850
 5203POPC   GL226522   7.365  18.951   8.850
 5203POPC   C1A26523   7.414  19.011   8.550
 5203POPC   D2A26524   7.373  19.060   8.250
 5203POPC   C3A26525   7.373  19.023   7.950
 5203POPC   C4A26526   7.427  19.047   7.650
 5203POPC   C1B26527   7.382  18.828   8.550
 5203POPC   C2B26528   7.375  18.805   8.250
 5203POPC   C3B26529   7.360  18.774   7.950
 5203POPC   C4B26530   7.394  18.818   7.650
 5204POPC   NC326531  25.289  39.979   9.450
 5204POPC   PO426532  25.267  40.052   9.150
 5204POPC   GL126533  25.273  40.011   8.850
 5204POPC   GL226534  25.328  39.983   8.850
 5204POPC   C1A26535  25.269  40.002   8.550
 5204POPC   D2A26536  25.230  40.047   8.250
 5204POPC   C3A26537  25.253  39.988   7.950
 5204POPC   C4A26538  25.217  40.049   7.650
 5204POPC   C1B26539  25.520  39.874   8.550
 5204POPC   C2B26540  25.446  39.863   8.250
 5204POPC   C3B26541  25.499  39.898   7.950
 5204POPC   C4B26542  25.477  39.850   7.650
 5205POPC   NC326543  21.422  36.948   9.450
 5205POPC   PO426544  21.410  36.951   9.150
 5205POPC   GL126545  21.336  36.938   8.850
 5205POPC   GL226546  21.363  37.056   8.850
 5205POPC   C1A26547  21.371  36.947   8.550
 5205POPC   D2A26548  21.423  36.865   8.250
 5205POPC   C3A26549  21.431  36.901   7.950
 5205POPC   C4A26550  21.432  36.898   7.650
 5205POPC   C1B26551  21.308  37.139   8.550
 5205POPC   C2B26552  21.266  37.130   8.250
 5205POPC   C3B26553  21.307  37.171   7.950
 5205POPC   C4B26554  21.337  37.136   7.650
 5206POPC   NC326555  10.487  12.860   9.450
 5206POPC   PO426556  10.539  12.846   9.150
 5206POPC   GL126557  10.500  12.899   8.850
 5206POPC   GL226558  10.471  12.942   8.850
 5206POPC   C1A26559  10.487  12.877   8.550
 5206POPC   D2A26560  10.535  12.808   8.250
 5206POPC   C3A26561  10.538  12.815   7.950
 5206POPC   C4A26562  10.538  12.837   7.650
 5206POPC   C1B26563  10.352  13.044   8.550
 5206POPC   C2B26564  10.354  13.053   8.250
 5206POPC   C3B26565  10.306  12.969   7.950
 5206POPC   C4B26566  10.306  13.018   7.650
 5207POPC   NC326567  22.946  28.409   9.450
 5207POPC   PO426568  22.908  28.393   9.150
 5207POPC   GL126569  22.889  28.370   8.850
 5207POPC   GL226570  23.009  28.283   8.850
 5207POPC   C1A26571  22.975  28.412   8.550
 5207POPC   D2A26572  22.960  28.409   8.250
 5207POPC   C3A26573  22.922  28.416   7.950
 5207POPC   C4A26574  22.963  28.390   7.650
 5207POPC   C1B26575  23.149  28.240   8.550
 5207POPC   C2B26576  23.130  28.185   8.250
 5207POPC   C3B26577  23.134  28.223   7.950
 5207POPC   C4B26578  23.151  28.182   7.650
 5208POPC   NC326579  22.947  32.245   9.450
 5208POPC   PO426580  22.937  32.287   9.150
 5208POPC   GL126581  22.947  32.232   8.850
 5208POPC   GL226582  22.793  32.300   8.850
 5208POPC   C1A26583  22.981  32.285   8.550
 5208POPC   D2A26584  22.925  32.269   8.250
 5208POPC   C3A26585  22.931  32.238   7.950
 5208POPC   C4A26586  22.944  32.284   7.650
 5208POPC   C1B26587  22.734  32.252   8.550
 5208POPC   C2B26588  22.689  32.225   8.250
 5208POPC   C3B26589  22.719  32.240   7.950
 5208POPC   C4B26590  22.694  32.247   7.650
 5209POPC   NC326591  10.571  29.971   9.450
 5209POPC   PO426592  10.543  29.885   9.150
 5209POPC   GL126593  10.562  29.940   8.850
 5209POPC   GL226594  10.583  30.035   8.850
 5209POPC   C1A26595  10.536  29.929   8.550
 5209POPC   D2A26596  10.480  29.907   8.250
 5209POPC   C3A26597  10.475  29.969   7.950
 5209POPC   C4A26598  10.475  29.965   7.650
 5209POPC   C1B26599  10.666  30.134   8.550
 5209POPC   C2B26600  10.705  30.133   8.250
 5209POPC   C3B26601  10.662  30.118   7.950
 5209POPC   C4B26602  10.685  30.110   7.650
 5210POPC   NC326603   4.329  37.656   9.450
 5210POPC   PO426604   4.283  37.652   9.150
 5210POPC   GL126605   4.332  37.650   8.850
 5210POPC   GL226606   4.247  37.745   8.850
 5210POPC   C1A26607   4.315  37.662   8.550
 5210POPC   D2A26608   4.330  37.661   8.250
 5210POPC   C3A26609   4.334  37.720   7.950
 5210POPC   C4A26610   4.355  37.655   7.650
 5210POPC   C1B26611   4.140  37.825   8.550
 5210POPC   C2B26612   4.137  37.814   8.250
 5210POPC   C3B26613   4.090  37.816   7.950
 5210POPC   C4B26614   4.119  37.759   7.650
 5211POPC   NC326615  14.393  11.269   9.450
 5211POPC   PO426616  14.369  11.277   9.150
 5211POPC   GL126617  14.451  11.286   8.850
 5211POPC   GL226618  14.298  11.213   8.850
 5211POPC   C1A26619  14.399  11.336   8.550
 5211POPC   D2A26620  14.388  11.325   8.250
 5211POPC   C3A26621  14.406  11.287   7.950
 5211POPC   C4A26622  14.355  11.267   7.650
 5211POPC   C1B26623  14.173  11.143   8.550
 5211POPC   C2B26624  14.160  11.134   8.250
 5211POPC   C3B26625  14.184  11.200   7.950
 5211POPC   C4B26626  14.226  11.151   7.650
 5212POPC   NC326627  40.757  33.791   9.450
 5212POPC   PO426628  40.799  33.770   9.150
 5212POPC   GL126629  40.751  33.836   8.850
 5212POPC   GL226630  40.922  33.859   8.850
 5212POPC   C1A26631  40.809  33.790   8.550
 5212POPC   D2A26632  40.753  33.824   8.250
 5212POPC   C3A26633  40.782  33.801   7.950
 5212POPC   C4A26634  40.762  33.819   7.650
 5212POPC   C1B26635  40.982  33.852   8.550
 5212POPC   C2B26636  41.007  33.894   8.250
 5212POPC   C3B26637  40.997  33.891   7.950
 5212POPC   C4B26638  40.991  33.852   7.650
 5213POPC   NC326639  15.936   2.035   9.450
 5213POPC   PO426640  15.910   1.944   9.150
 5213POPC   GL126641  15.977   1.972   8.850
 5213POPC   GL226642  15.798   1.963   8.850
 5213POPC   C1A26643  15.995   2.015   8.550
 5213POPC   D2A26644  15.979   2.035   8.250
 5213POPC   C3A26645  15.920   1.963   7.950
 5213POPC   C4A26646  15.958   1.966   7.650
 5213POPC   C1B26647  15.716   1.967   8.550
 5213POPC   C2B26648  15.691   1.933   8.250
 5213POPC   C3B26649  15.718   1.966   7.950
 5213POPC   C4B26650  15.679   1.904   7.650
 5214POPC   NC326651  40.053  20.611   9.450
 5214POPC   PO426652  40.001  20.598   9.150
 5214POPC   GL126653  39.983  20.653   8.850
 5214POPC   GL226654  39.990  20.760   8.850
 5214POPC   C1A26655  40.056  20.578   8.550
 5214POPC   D2A26656  40.032  20.639   8.250
 5214POPC   C3A26657  40.046  20.578   7.950
 5214POPC   C4A26658  40.045  20.598   7.650
 5214POPC   C1B26659  40.038  20.813   8.550
 5214POPC   C2B26660  40.050  20.859   8.250
 5214POPC   C3B26661  39.958  20.890   7.950
 5214POPC   C4B26662  39.977  20.817   7.650
 5215POPC   NC326663  11.305  15.912   9.450
 5215POPC   PO426664  11.331  15.939   9.150
 5215POPC   GL126665  11.285  15.997   8.850
 5215POPC   GL226666  11.407  16.093   8.850
 5215POPC   C1A26667  11.300  15.951   8.550
 5215POPC   D2A26668  11.287  15.930   8.250
 5215POPC   C3A26669  11.286  15.944   7.950
 5215POPC   C4A26670  11.306  15.931   7.650
 5215POPC   C1B26671  11.451  16.184   8.550
 5215POPC   C2B26672  11.494  16.170   8.250
 5215POPC   C3B26673  11.449  16.167   7.950
 5215POPC   C4B26674  11.510  16.091   7.650
 5216POPC   NC326675  17.488  24.538   9.450
 5216POPC   PO426676  17.523  24.512   9.150
 5216POPC   GL126677  17.486  24.443   8.850
 5216POPC   GL226678  17.586  24.485   8.850
 5216POPC   C1A26679  17.493  24.490   8.550
 5216POPC   D2A26680  17.487  24.467   8.250
 5216POPC   C3A26681  17.553  24.510   7.950
 5216POPC   C4A26682  17.490  24.489   7.650
 5216POPC   C1B26683  17.788  24.567   8.550
 5216POPC   C2B26684  17.787  24.526   8.250
 5216POPC   C3B26685  17.780  24.490   7.950
 5216POPC   C4B26686  17.780  24.565   7.650
 5217POPC   NC326687   3.577   5.081   9.450
 5217POPC   PO426688   3.560   5.067   9.150
 5217POPC   GL126689   3.537   5.087   8.850
 5217POPC   GL226690   3.448   5.175   8.850
 5217POPC   C1A26691   3.548   5.070   8.550
 5217POPC   D2A26692   3.522   5.114   8.250
 5217POPC   C3A26693   3.591   5.094   7.950
 5217POPC   C4A26694   3.558   5.062   7.650
 5217POPC   C1B26695   3.382   5.296   8.550
 5217POPC   C2B26696   3.327   5.244   8.250
 5217POPC   C3B26697   3.401   5.308   7.950
 5217POPC   C4B26698   3.367   5.281   7.650
 5218POPC   NC326699  30.656  19.026   9.450
 5218POPC   PO426700  30.667  19.078   9.150
 5218POPC   GL126701  30.706  19.039   8.850
 5218POPC   GL226702  30.838  18.939   8.850
 5218POPC   C1A26703  30.648  19.057   8.550
 5218POPC   D2A26704  30.705  19.026   8.250
 5218POPC   C3A26705  30.669  19.022   7.950
 5218POPC   C4A26706  30.673  19.054   7.650
 5218POPC   C1B26707  30.888  18.905   8.550
 5218POPC   C2B26708  30.922  18.890   8.250
 5218POPC   C3B26709  30.874  18.897   7.950
 5218POPC   C4B26710  30.864  18.858   7.650
 5219POPC   NC326711  29.099  13.631   9.450
 5219POPC   PO426712  29.152  13.638   9.150
 5219POPC   GL126713  29.155  13.646   8.850
 5219POPC   GL226714  29.070  13.632   8.850
 5219POPC   C1A26715  29.160  13.579   8.550
 5219POPC   D2A26716  29.120  13.632   8.250
 5219POPC   C3A26717  29.135  13.578   7.950
 5219POPC   C4A26718  29.138  13.659   7.650
 5219POPC   C1B26719  28.918  13.668   8.550
 5219POPC   C2B26720  28.907  13.706   8.250
 5219POPC   C3B26721  28.947  13.709   7.950
 5219POPC   C4B26722  28.909  13.694   7.650
 5220POPC   NC326723   0.426  29.107   9.450
 5220POPC   PO426724   0.486  29.189   9.150
 5220POPC   GL126725   0.470  29.108   8.850
 5220POPC   GL226726   0.536  29.051   8.850
 5220POPC   C1A26727   0.397  29.166   8.550
 5220POPC   D2A26728   0.389  29.132   8.250
 5220POPC   C3A26729   0.451  29.105   7.950
 5220POPC   C4A26730   0.419  29.180   7.650
 5220POPC   C1B26731   0.558  28.960   8.550
 5220POPC   C2B26732   0.556  28.925   8.250
 5220POPC   C3B26733   0.618  29.007   7.950
 5220POPC   C4B26734   0.558  28.978   7.650
 5221POPC   NC326735   3.571  29.961   9.450
 5221POPC   PO426736   3.552  29.888   9.150
 5221POPC   GL126737   3.579  29.873   8.850
 5221POPC   GL226738   3.515  29.832   8.850
 5221POPC   C1A26739   3.530  29.899   8.550
 5221POPC   D2A26740   3.578  29.920   8.250
 5221POPC   C3A26741   3.584  29.881   7.950
 5221POPC   C4A26742   3.537  29.916   7.650
 5221POPC   C1B26743   3.446  29.658   8.550
 5221POPC   C2B26744   3.427  29.705   8.250
 5221POPC   C3B26745   3.405  29.697   7.950
 5221POPC   C4B26746   3.447  29.720   7.650
 5222POPC   NC326747  16.768  33.786   9.450
 5222POPC   PO426748  16.716  33.832   9.150
 5222POPC   GL126749  16.682  33.767   8.850
 5222POPC   GL226750  16.659  33.884   8.850
 5222POPC   C1A26751  16.696  33.800   8.550
 5222POPC   D2A26752  16.687  33.842   8.250
 5222POPC   C3A26753  16.779  33.808   7.950
 5222POPC   C4A26754  16.772  33.785   7.650
 5222POPC   C1B26755  16.653  34.015   8.550
 5222POPC   C2B26756  16.649  34.062   8.250
 5222POPC   C3B26757  16.631  34.072   7.950
 5222POPC   C4B26758  16.648  34.067   7.650
 5223POPC   NC326759  19.058  16.687   9.450
 5223POPC   PO426760  19.101  16.750   9.150
 5223POPC   GL126761  19.051  16.749   8.850
 5223POPC   GL226762  18.973  16.869   8.850
 5223POPC   C1A26763  19.054  16.706   8.550
 5223POPC   D2A26764  19.057  16.684   8.250
 5223POPC   C3A26765  19.071  16.750   7.950
 5223POPC   C4A26766  19.018  16.681   7.650
 5223POPC   C1B26767  18.924  16.918   8.550
 5223POPC   C2B26768  18.859  16.914   8.250
 5223POPC   C3B26769  18.857  16.906   7.950
 5223POPC   C4B26770  18.917  16.928   7.650
 5224POPC   NC326771  42.335  31.466   9.450
 5224POPC   PO426772  42.364  31.450   9.150
 5224POPC   GL126773  42.321  31.459   8.850
 5224POPC   GL226774  42.182  31.403   8.850
 5224POPC   C1A26775  42.383  31.432   8.550
 5224POPC   D2A26776  42.369  31.487   8.250
 5224POPC   C3A26777  42.349  31.508   7.950
 5224POPC   C4A26778  42.319  31.471   7.650
 5224POPC   C1B26779  42.119  31.374   8.550
 5224POPC   C2B26780  42.082  31.323   8.250
 5224POPC   C3B26781  42.082  31.357   7.950
 5224POPC   C4B26782  42.088  31.362   7.650
 5225POPC   NC326783  34.606  16.776   9.450
 5225POPC   PO426784  34.608  16.749   9.150
 5225POPC   GL126785  34.622  16.768   8.850
 5225POPC   GL226786  34.543  16.635   8.850
 5225POPC   C1A26787  34.624  16.756   8.550
 5225POPC   D2A26788  34.541  16.708   8.250
 5225POPC   C3A26789  34.575  16.744   7.950
 5225POPC   C4A26790  34.620  16.704   7.650
 5225POPC   C1B26791  34.449  16.510   8.550
 5225POPC   C2B26792  34.446  16.511   8.250
 5225POPC   C3B26793  34.456  16.492   7.950
 5225POPC   C4B26794  34.423  16.532   7.650
 5226POPC   NC326795   8.953  30.650   9.450
 5226POPC   PO426796   8.990  30.666   9.150
 5226POPC   GL126797   8.993  30.732   8.850
 5226POPC   GL226798   9.049  30.527   8.850
 5226POPC   C1A26799   8.994  30.699   8.550
 5226POPC   D2A26800   8.972  30.700   8.250
 5226POPC   C3A26801   8.990  30.720   7.950
 5226POPC   C4A26802   8.985  30.687   7.650
 5226POPC   C1B26803   8.991  30.452   8.550
 5226POPC   C2B26804   9.006  30.476   8.250
 5226POPC   C3B26805   9.046  30.413   7.950
 5226POPC   C4B26806   9.070  30.452   7.650
 5227POPC   NC326807   3.517  40.826   9.450
 5227POPC   PO426808   3.579  40.773   9.150
 5227POPC   GL126809   3.524  40.761   8.850
 5227POPC   GL226810   3.606  40.703   8.850
 5227POPC   C1A26811   3.581  40.734   8.550
 5227POPC   D2A26812   3.493  40.815   8.250
 5227POPC   C3A26813   3.581  40.830   7.950
 5227POPC   C4A26814   3.535  40.765   7.650
 5227POPC   C1B26815   3.545  40.560   8.550
 5227POPC   C2B26816   3.572  40.545   8.250
 5227POPC   C3B26817   3.579  40.579   7.950
 5227POPC   C4B26818   3.622  40.540   7.650
 5228POPC   NC326819   5.887  37.679   9.450
 5228POPC   PO426820   5.908  37.659   9.150
 5228POPC   GL126821   5.912  37.683   8.850
 5228POPC   GL226822   5.956  37.580   8.850
 5228POPC   C1A26823   5.864  37.671   8.550
 5228POPC   D2A26824   5.918  37.671   8.250
 5228POPC   C3A26825   5.868  37.672   7.950
 5228POPC   C4A26826   5.886  37.724   7.650
 5228POPC   C1B26827   5.971  37.451   8.550
 5228POPC   C2B26828   5.919  37.422   8.250
 5228POPC   C3B26829   5.958  37.459   7.950
 5228POPC   C4B26830   5.959  37.428   7.650
 5229POPC   NC326831  43.100  19.027   9.450
 5229POPC   PO426832  43.137  19.015   9.150
 5229POPC   GL126833  43.079  19.067   8.850
 5229POPC   GL226834  43.185  19.003   8.850
 5229POPC   C1A26835  43.146  19.016   8.550
 5229POPC   D2A26836  43.135  19.069   8.250
 5229POPC   C3A26837  43.125  19.050   7.950
 5229POPC   C4A26838  43.121  19.084   7.650
 5229POPC   C1B26839  43.399  18.995   8.550
 5229POPC   C2B26840  43.388  19.043   8.250
 5229POPC   C3B26841  43.392  18.995   7.950
 5229POPC   C4B26842  43.348  19.063   7.650
 5230POPC   NC326843  16.690  35.399   9.450
 5230POPC   PO426844  16.732  35.304   9.150
 5230POPC   GL126845  16.706  35.308   8.850
 5230POPC   GL226846  16.730  35.524   8.850
 5230POPC   C1A26847  16.685  35.353   8.550
 5230POPC   D2A26848  16.724  35.321   8.250
 5230POPC   C3A26849  16.704  35.372   7.950
 5230POPC   C4A26850  16.766  35.370   7.650
 5230POPC   C1B26851  16.801  35.574   8.550
 5230POPC   C2B26852  16.785  35.645   8.250
 5230POPC   C3B26853  16.757  35.585   7.950
 5230POPC   C4B26854  16.711  35.591   7.650
 5231POPC   NC326855   1.189  15.916   9.450
 5231POPC   PO426856   1.233  16.005   9.150
 5231POPC   GL126857   1.208  15.935   8.850
 5231POPC   GL226858   1.297  16.113   8.850
 5231POPC   C1A26859   1.246  15.945   8.550
 5231POPC   D2A26860   1.173  15.998   8.250
 5231POPC   C3A26861   1.239  15.912   7.950
 5231POPC   C4A26862   1.219  15.975   7.650
 5231POPC   C1B26863   1.339  16.162   8.550
 5231POPC   C2B26864   1.280  16.143   8.250
 5231POPC   C3B26865   1.267  16.153   7.950
 5231POPC   C4B26866   1.275  16.139   7.650
 5232POPC   NC326867  41.518   5.140   9.450
 5232POPC   PO426868  41.551   5.130   9.150
 5232POPC   GL126869  41.605   5.045   8.850
 5232POPC   GL226870  41.681   5.211   8.850
 5232POPC   C1A26871  41.542   5.120   8.550
 5232POPC   D2A26872  41.555   5.063   8.250
 5232POPC   C3A26873  41.579   5.106   7.950
 5232POPC   C4A26874  41.553   5.066   7.650
 5232POPC   C1B26875  41.799   5.285   8.550
 5232POPC   C2B26876  41.793   5.269   8.250
 5232POPC   C3B26877  41.725   5.244   7.950
 5232POPC   C4B26878  41.765   5.270   7.650
 5233POPC   NC326879  26.091   6.683   9.450
 5233POPC   PO426880  25.997   6.649   9.150
 5233POPC   GL126881  26.051   6.601   8.850
 5233POPC   GL226882  26.132   6.521   8.850
 5233POPC   C1A26883  26.013   6.641   8.550
 5233POPC   D2A26884  26.026   6.605   8.250
 5233POPC   C3A26885  26.023   6.663   7.950
 5233POPC   C4A26886  26.046   6.682   7.650
 5233POPC   C1B26887  26.117   6.455   8.550
 5233POPC   C2B26888  26.105   6.378   8.250
 5233POPC   C3B26889  26.115   6.451   7.950
 5233POPC   C4B26890  26.138   6.438   7.650
 5234POPC   NC326891  36.083   1.952   9.450
 5234POPC   PO426892  36.164   2.016   9.150
 5234POPC   GL126893  36.153   2.031   8.850
 5234POPC   GL226894  36.216   2.091   8.850
 5234POPC   C1A26895  36.128   1.986   8.550
 5234POPC   D2A26896  36.094   1.993   8.250
 5234POPC   C3A26897  36.090   1.944   7.950
 5234POPC   C4A26898  36.114   1.984   7.650
 5234POPC   C1B26899  36.317   2.175   8.550
 5234POPC   C2B26900  36.307   2.211   8.250
 5234POPC   C3B26901  36.290   2.173   7.950
 5234POPC   C4B26902  36.296   2.179   7.650
 5235POPC   NC326903  30.653  12.033   9.450
 5235POPC   PO426904  30.652  12.033   9.150
 5235POPC   GL126905  30.657  12.070   8.850
 5235POPC   GL226906  30.725  11.926   8.850
 5235POPC   C1A26907  30.690  12.082   8.550
 5235POPC   D2A26908  30.707  12.054   8.250
 5235POPC   C3A26909  30.716  12.103   7.950
 5235POPC   C4A26910  30.666  12.089   7.650
 5235POPC   C1B26911  30.839  11.907   8.550
 5235POPC   C2B26912  30.820  11.864   8.250
 5235POPC   C3B26913  30.813  11.910   7.950
 5235POPC   C4B26914  30.860  11.919   7.650
 5236POPC   NC326915  15.934   0.444   9.450
 5236POPC   PO426916  15.934   0.437   9.150
 5236POPC   GL126917  15.997   0.475   8.850
 5236POPC   GL226918  15.801   0.430   8.850
 5236POPC   C1A26919  15.959   0.413   8.550
 5236POPC   D2A26920  15.983   0.403   8.250
 5236POPC   C3A26921  15.967   0.388   7.950
 5236POPC   C4A26922  15.948   0.443   7.650
 5236POPC   C1B26923  15.745   0.446   8.550
 5236POPC   C2B26924  15.713   0.531   8.250
 5236POPC   C3B26925  15.733   0.448   7.950
 5236POPC   C4B26926  15.666   0.460   7.650
 5237POPC   NC326927  23.725  22.912   9.450
 5237POPC   PO426928  23.755  22.972   9.150
 5237POPC   GL126929  23.698  22.913   8.850
 5237POPC   GL226930  23.722  22.827   8.850
 5237POPC   C1A26931  23.693  22.931   8.550
 5237POPC   D2A26932  23.680  22.982   8.250
 5237POPC   C3A26933  23.678  22.938   7.950
 5237POPC   C4A26934  23.670  22.895   7.650
 5237POPC   C1B26935  23.816  22.717   8.550
 5237POPC   C2B26936  23.831  22.648   8.250
 5237POPC   C3B26937  23.748  22.742   7.950
 5237POPC   C4B26938  23.796  22.687   7.650
 5238POPC   NC326939  12.860  19.037   9.450
 5238POPC   PO426940  12.887  19.057   9.150
 5238POPC   GL126941  12.875  19.084   8.850
 5238POPC   GL226942  12.745  19.079   8.850
 5238POPC   C1A26943  12.821  19.081   8.550
 5238POPC   D2A26944  12.819  19.009   8.250
 5238POPC   C3A26945  12.847  19.107   7.950
 5238POPC   C4A26946  12.893  19.062   7.650
 5238POPC   C1B26947  12.604  18.973   8.550
 5238POPC   C2B26948  12.655  18.954   8.250
 5238POPC   C3B26949  12.596  19.007   7.950
 5238POPC   C4B26950  12.622  18.961   7.650
 5239POPC   NC326951  32.992  26.002   9.450
 5239POPC   PO426952  33.017  26.061   9.150
 5239POPC   GL126953  33.039  26.052   8.850
 5239POPC   GL226954  32.994  26.149   8.850
 5239POPC   C1A26955  33.019  26.022   8.550
 5239POPC   D2A26956  33.068  26.059   8.250
 5239POPC   C3A26957  33.005  26.052   7.950
 5239POPC   C4A26958  33.000  26.053   7.650
 5239POPC   C1B26959  32.884  26.256   8.550
 5239POPC   C2B26960  32.908  26.300   8.250
 5239POPC   C3B26961  32.920  26.230   7.950
 5239POPC   C4B26962  32.934  26.201   7.650
 5240POPC   NC326963  12.051   9.765   9.450
 5240POPC   PO426964  12.105   9.730   9.150
 5240POPC   GL126965  12.031   9.759   8.850
 5240POPC   GL226966  12.072   9.589   8.850
 5240POPC   C1A26967  12.124   9.707   8.550
 5240POPC   D2A26968  12.050   9.715   8.250
 5240POPC   C3A26969  12.105   9.764   7.950
 5240POPC   C4A26970  12.060   9.720   7.650
 5240POPC   C1B26971  12.153   9.549   8.550
 5240POPC   C2B26972  12.155   9.474   8.250
 5240POPC   C3B26973  12.115   9.556   7.950
 5240POPC   C4B26974  12.151   9.528   7.650
 5241POPC   NC326975  11.269   8.238   9.450
 5241POPC   PO426976  11.321   8.161   9.150
 5241POPC   GL126977  11.336   8.151   8.850
 5241POPC   GL226978  11.358   8.125   8.850
 5241POPC   C1A26979  11.300   8.227   8.550
 5241POPC   D2A26980  11.285   8.160   8.250
 5241POPC   C3A26981  11.315   8.200   7.950
 5241POPC   C4A26982  11.285   8.190   7.650
 5241POPC   C1B26983  11.362   7.977   8.550
 5241POPC   C2B26984  11.422   8.011   8.250
 5241POPC   C3B26985  11.428   7.994   7.950
 5241POPC   C4B26986  11.444   8.010   7.650
 5242POPC   NC326987  17.490  35.365   9.450
 5242POPC   PO426988  17.555  35.348   9.150
 5242POPC   GL126989  17.505  35.345   8.850
 5242POPC   GL226990  17.409  35.389   8.850
 5242POPC   C1A26991  17.532  35.341   8.550
 5242POPC   D2A26992  17.516  35.361   8.250
 5242POPC   C3A26993  17.518  35.332   7.950
 5242POPC   C4A26994  17.538  35.396   7.650
 5242POPC   C1B26995  17.316  35.501   8.550
 5242POPC   C2B26996  17.275  35.523   8.250
 5242POPC   C3B26997  17.277  35.545   7.950
 5242POPC   C4B26998  17.352  35.464   7.650
 5243POPC   NC326999  12.870  23.750   9.450
 5243POPC   PO427000  12.902  23.721   9.150
 5243POPC   GL127001  12.858  23.734   8.850
 5243POPC   GL227002  12.940  23.594   8.850
 5243POPC   C1A27003  12.850  23.702   8.550
 5243POPC   D2A27004  12.863  23.724   8.250
 5243POPC   C3A27005  12.814  23.687   7.950
 5243POPC   C4A27006  12.818  23.729   7.650
 5243POPC   C1B27007  13.003  23.537   8.550
 5243POPC   C2B27008  12.958  23.529   8.250
 5243POPC   C3B27009  12.963  23.509   7.950
 5243POPC   C4B27010  13.030  23.460   7.650
 5244POPC   NC327011  38.422   5.093   9.450
 5244POPC   PO427012  38.477   5.139   9.150
 5244POPC   GL127013  38.478   5.091   8.850
 5244POPC   GL227014  38.559   5.126   8.850
 5244POPC   C1A27015  38.442   5.089   8.550
 5244POPC   D2A27016  38.485   5.071   8.250
 5244POPC   C3A27017  38.435   5.089   7.950
 5244POPC   C4A27018  38.438   5.119   7.650
 5244POPC   C1B27019  38.740   5.110   8.550
 5244POPC   C2B27020  38.718   5.089   8.250
 5244POPC   C3B27021  38.660   5.048   7.950
 5244POPC   C4B27022  38.728   5.105   7.650
 5245POPC   NC327023   5.120  26.036   9.450
 5245POPC   PO427024   5.098  26.033   9.150
 5245POPC   GL127025   5.049  26.036   8.850
 5245POPC   GL227026   5.051  25.918   8.850
 5245POPC   C1A27027   5.110  25.992   8.550
 5245POPC   D2A27028   5.094  26.088   8.250
 5245POPC   C3A27029   5.059  26.068   7.950
 5245POPC   C4A27030   5.121  26.076   7.650
 5245POPC   C1B27031   4.981  25.848   8.550
 5245POPC   C2B27032   4.995  25.811   8.250
 5245POPC   C3B27033   4.948  25.795   7.950
 5245POPC   C4B27034   4.970  25.790   7.650
 5246POPC   NC327035  19.021  32.233   9.450
 5246POPC   PO427036  19.040  32.230   9.150
 5246POPC   GL127037  19.106  32.276   8.850
 5246POPC   GL227038  19.037  32.150   8.850
 5246POPC   C1A27039  19.040  32.245   8.550
 5246POPC   D2A27040  19.079  32.222   8.250
 5246POPC   C3A27041  19.017  32.209   7.950
 5246POPC   C4A27042  19.087  32.215   7.650
 5246POPC   C1B27043  19.081  32.050   8.550
 5246POPC   C2B27044  19.110  31.971   8.250
 5246POPC   C3B27045  19.094  32.032   7.950
 5246POPC   C4B27046  19.123  31.961   7.650
 5247POPC   NC327047  15.931  10.477   9.450
 5247POPC   PO427048  15.994  10.482   9.150
 5247POPC   GL127049  15.942  10.527   8.850
 5247POPC   GL227050  15.951  10.636   8.850
 5247POPC   C1A27051  15.906  10.538   8.550
 5247POPC   D2A27052  15.993  10.523   8.250
 5247POPC   C3A27053  15.941  10.549   7.950
 5247POPC   C4A27054  15.913  10.479   7.650
 5247POPC   C1B27055  15.925  10.760   8.550
 5247POPC   C2B27056  15.836  10.811   8.250
 5247POPC   C3B27057  15.840  10.739   7.950
 5247POPC   C4B27058  15.906  10.779   7.650
 5248POPC   NC327059  26.053   5.093   9.450
 5248POPC   PO427060  26.068   5.051   9.150
 5248POPC   GL127061  26.059   5.071   8.850
 5248POPC   GL227062  25.869   5.033   8.850
 5248POPC   C1A27063  26.016   5.056   8.550
 5248POPC   D2A27064  26.047   5.133   8.250
 5248POPC   C3A27065  26.010   5.077   7.950
 5248POPC   C4A27066  26.047   5.068   7.650
 5248POPC   C1B27067  25.806   5.003   8.550
 5248POPC   C2B27068  25.793   5.087   8.250
 5248POPC   C3B27069  25.775   5.029   7.950
 5248POPC   C4B27070  25.747   5.026   7.650
 5249POPC   NC327071  15.984  18.317   9.450
 5249POPC   PO427072  15.999  18.247   9.150
 5249POPC   GL127073  15.916  18.328   8.850
 5249POPC   GL227074  15.862  18.342   8.850
 5249POPC   C1A27075  15.974  18.269   8.550
 5249POPC   D2A27076  15.946  18.254   8.250
 5249POPC   C3A27077  15.968  18.315   7.950
 5249POPC   C4A27078  16.004  18.255   7.650
 5249POPC   C1B27079  15.736  18.334   8.550
 5249POPC   C2B27080  15.752  18.405   8.250
 5249POPC   C3B27081  15.697  18.345   7.950
 5249POPC   C4B27082  15.755  18.347   7.650
 5250POPC   NC327083  19.803   3.540   9.450
 5250POPC   PO427084  19.848   3.494   9.150
 5250POPC   GL127085  19.866   3.524   8.850
 5250POPC   GL227086  19.926   3.552   8.850
 5250POPC   C1A27087  19.823   3.560   8.550
 5250POPC   D2A27088  19.789   3.591   8.250
 5250POPC   C3A27089  19.878   3.521   7.950
 5250POPC   C4A27090  19.842   3.507   7.650
 5250POPC   C1B27091  20.077   3.578   8.550
 5250POPC   C2B27092  20.114   3.620   8.250
 5250POPC   C3B27093  20.073   3.605   7.950
 5250POPC   C4B27094  20.079   3.564   7.650
 5251POPC   NC327095  12.095   5.902   9.450
 5251POPC   PO427096  12.035   5.845   9.150
 5251POPC   GL127097  12.094   5.897   8.850
 5251POPC   GL227098  12.152   5.924   8.850
 5251POPC   C1A27099  12.067   5.914   8.550
 5251POPC   D2A27100  12.121   5.896   8.250
 5251POPC   C3A27101  12.074   5.823   7.950
 5251POPC   C4A27102  12.076   5.901   7.650
 5251POPC   C1B27103  12.357   5.871   8.550
 5251POPC   C2B27104  12.304   5.917   8.250
 5251POPC   C3B27105  12.357   5.851   7.950
 5251POPC   C4B27106  12.303   5.846   7.650
 5252POPC   NC327107  26.778  15.947   9.450
 5252POPC   PO427108  26.841  15.909   9.150
 5252POPC   GL127109  26.840  15.906   8.850
 5252POPC   GL227110  26.832  15.827   8.850
 5252POPC   C1A27111  26.856  15.915   8.550
 5252POPC   D2A27112  26.800  15.983   8.250
 5252POPC   C3A27113  26.779  15.984   7.950
 5252POPC   C4A27114  26.823  15.975   7.650
 5252POPC   C1B27115  26.838  15.687   8.550
 5252POPC   C2B27116  26.897  15.744   8.250
 5252POPC   C3B27117  26.884  15.706   7.950
 5252POPC   C4B27118  26.924  15.738   7.650
 5253POPC   NC327119  13.587  18.235   9.450
 5253POPC   PO427120  13.624  18.237   9.150
 5253POPC   GL127121  13.598  18.308   8.850
 5253POPC   GL227122  13.611  18.392   8.850
 5253POPC   C1A27123  13.648  18.310   8.550
 5253POPC   D2A27124  13.629  18.309   8.250
 5253POPC   C3A27125  13.667  18.245   7.950
 5253POPC   C4A27126  13.642  18.323   7.650
 5253POPC   C1B27127  13.572  18.527   8.550
 5253POPC   C2B27128  13.653  18.544   8.250
 5253POPC   C3B27129  13.579  18.563   7.950
 5253POPC   C4B27130  13.590  18.572   7.650
 5254POPC   NC327131  35.303  23.758   9.450
 5254POPC   PO427132  35.321  23.741   9.150
 5254POPC   GL127133  35.384  23.695   8.850
 5254POPC   GL227134  35.250  23.706   8.850
 5254POPC   C1A27135  35.325  23.692   8.550
 5254POPC   D2A27136  35.320  23.727   8.250
 5254POPC   C3A27137  35.359  23.746   7.950
 5254POPC   C4A27138  35.340  23.687   7.650
 5254POPC   C1B27139  35.117  23.650   8.550
 5254POPC   C2B27140  35.138  23.636   8.250
 5254POPC   C3B27141  35.166  23.648   7.950
 5254POPC   C4B27142  35.142  23.622   7.650
 5255POPC   NC327143  30.721   0.485   9.450
 5255POPC   PO427144  30.658   0.435   9.150
 5255POPC   GL127145  30.746   0.445   8.850
 5255POPC   GL227146  30.843   0.485   8.850
 5255POPC   C1A27147  30.708   0.469   8.550
 5255POPC   D2A27148  30.737   0.476   8.250
 5255POPC   C3A27149  30.690   0.435   7.950
 5255POPC   C4A27150  30.743   0.410   7.650
 5255POPC   C1B27151  30.924   0.468   8.550
 5255POPC   C2B27152  30.918   0.483   8.250
 5255POPC   C3B27153  30.963   0.455   7.950
 5255POPC   C4B27154  30.975   0.462   7.650
 5256POPC   NC327155  29.927  20.584   9.450
 5256POPC   PO427156  29.921  20.623   9.150
 5256POPC   GL127157  29.939  20.579   8.850
 5256POPC   GL227158  30.066  20.545   8.850
 5256POPC   C1A27159  29.916  20.583   8.550
 5256POPC   D2A27160  29.924  20.618   8.250
 5256POPC   C3A27161  29.910  20.649   7.950
 5256POPC   C4A27162  29.921  20.655   7.650
 5256POPC   C1B27163  30.123  20.597   8.550
 5256POPC   C2B27164  30.200  20.592   8.250
 5256POPC   C3B27165  30.118  20.617   7.950
 5256POPC   C4B27166  30.141  20.525   7.650
 5257POPC   NC327167   6.633  30.668   9.450
 5257POPC   PO427168   6.653  30.728   9.150
 5257POPC   GL127169   6.599  30.729   8.850
 5257POPC   GL227170   6.708  30.635   8.850
 5257POPC   C1A27171   6.686  30.724   8.550
 5257POPC   D2A27172   6.624  30.738   8.250
 5257POPC   C3A27173   6.656  30.699   7.950
 5257POPC   C4A27174   6.627  30.727   7.650
 5257POPC   C1B27175   6.873  30.536   8.550
 5257POPC   C2B27176   6.875  30.604   8.250
 5257POPC   C3B27177   6.904  30.531   7.950
 5257POPC   C4B27178   6.903  30.597   7.650
 5258POPC   NC327179  10.492  40.773   9.450
 5258POPC   PO427180  10.524  40.813   9.150
 5258POPC   GL127181  10.573  40.741   8.850
 5258POPC   GL227182  10.636  40.789   8.850
 5258POPC   C1A27183  10.490  40.816   8.550
 5258POPC   D2A27184  10.548  40.758   8.250
 5258POPC   C3A27185  10.514  40.740   7.950
 5258POPC   C4A27186  10.542  40.764   7.650
 5258POPC   C1B27187  10.808  40.910   8.550
 5258POPC   C2B27188  10.764  40.863   8.250
 5258POPC   C3B27189  10.740  40.852   7.950
 5258POPC   C4B27190  10.722  40.849   7.650
 5259POPC   NC327191   5.064   2.807   9.450
 5259POPC   PO427192   5.084   2.810   9.150
 5259POPC   GL127193   5.075   2.727   8.850
 5259POPC   GL227194   5.183   2.870   8.850
 5259POPC   C1A27195   5.115   2.729   8.550
 5259POPC   D2A27196   5.103   2.777   8.250
 5259POPC   C3A27197   5.106   2.744   7.950
 5259POPC   C4A27198   5.063   2.791   7.650
 5259POPC   C1B27199   5.197   2.988   8.550
 5259POPC   C2B27200   5.178   3.004   8.250
 5259POPC   C3B27201   5.176   2.967   7.950
 5259POPC   C4B27202   5.195   3.002   7.650
 5260POPC   NC327203   3.559  10.509   9.450
 5260POPC   PO427204   3.555  10.567   9.150
 5260POPC   GL127205   3.579  10.504   8.850
 5260POPC   GL227206   3.678  10.619   8.850
 5260POPC   C1A27207   3.506  10.505   8.550
 5260POPC   D2A27208   3.498  10.526   8.250
 5260POPC   C3A27209   3.590  10.525   7.950
 5260POPC   C4A27210   3.568  10.493   7.650
 5260POPC   C1B27211   3.777  10.588   8.550
 5260POPC   C2B27212   3.789  10.621   8.250
 5260POPC   C3B27213   3.798  10.640   7.950
 5260POPC   C4B27214   3.733  10.632   7.650
 5261POPC   NC327215  25.229  24.514   9.450
 5261POPC   PO427216  25.226  24.513   9.150
 5261POPC   GL127217  25.312  24.473   8.850
 5261POPC   GL227218  25.108  24.544   8.850
 5261POPC   C1A27219  25.312  24.453   8.550
 5261POPC   D2A27220  25.288  24.468   8.250
 5261POPC   C3A27221  25.226  24.535   7.950
 5261POPC   C4A27222  25.225  24.476   7.650
 5261POPC   C1B27223  25.040  24.522   8.550
 5261POPC   C2B27224  25.008  24.555   8.250
 5261POPC   C3B27225  25.020  24.515   7.950
 5261POPC   C4B27226  25.046  24.531   7.650
 5262POPC   NC327227   8.931   0.431   9.450
 5262POPC   PO427228   8.996   0.391   9.150
 5262POPC   GL127229   8.971   0.485   8.850
 5262POPC   GL227230   8.869   0.554   8.850
 5262POPC   C1A27231   8.987   0.392   8.550
 5262POPC   D2A27232   8.930   0.454   8.250
 5262POPC   C3A27233   8.974   0.398   7.950
 5262POPC   C4A27234   8.967   0.439   7.650
 5262POPC   C1B27235   8.866   0.621   8.550
 5262POPC   C2B27236   8.894   0.684   8.250
 5262POPC   C3B27237   8.870   0.677   7.950
 5262POPC   C4B27238   8.888   0.647   7.650
 5263POPC   NC327239   7.379  39.200   9.450
 5263POPC   PO427240   7.402  39.207   9.150
 5263POPC   GL127241   7.448  39.234   8.850
 5263POPC   GL227242   7.287  39.204   8.850
 5263POPC   C1A27243   7.390  39.201   8.550
 5263POPC   D2A27244   7.439  39.224   8.250
 5263POPC   C3A27245   7.434  39.280   7.950
 5263POPC   C4A27246   7.396  39.217   7.650
 5263POPC   C1B27247   7.205  39.195   8.550
 5263POPC   C2B27248   7.144  39.176   8.250
 5263POPC   C3B27249   7.154  39.265   7.950
 5263POPC   C4B27250   7.219  39.213   7.650
 5264POPC   NC327251   5.832  40.798   9.450
 5264POPC   PO427252   5.848  40.815   9.150
 5264POPC   GL127253   5.825  40.742   8.850
 5264POPC   GL227254   5.883  40.680   8.850
 5264POPC   C1A27255   5.879  40.781   8.550
 5264POPC   D2A27256   5.891  40.747   8.250
 5264POPC   C3A27257   5.836  40.800   7.950
 5264POPC   C4A27258   5.861  40.813   7.650
 5264POPC   C1B27259   5.914  40.543   8.550
 5264POPC   C2B27260   5.971  40.508   8.250
 5264POPC   C3B27261   5.962  40.494   7.950
 5264POPC   C4B27262   5.907  40.530   7.650
 5265POPC   NC327263   4.270  24.474   9.450
 5265POPC   PO427264   4.330  24.528   9.150
 5265POPC   GL127265   4.367  24.449   8.850
 5265POPC   GL227266   4.484  24.509   8.850
 5265POPC   C1A27267   4.345  24.489   8.550
 5265POPC   D2A27268   4.359  24.524   8.250
 5265POPC   C3A27269   4.286  24.513   7.950
 5265POPC   C4A27270   4.308  24.466   7.650
 5265POPC   C1B27271   4.520  24.505   8.550
 5265POPC   C2B27272   4.533  24.517   8.250
 5265POPC   C3B27273   4.567  24.526   7.950
 5265POPC   C4B27274   4.557  24.528   7.650
 5266POPC   NC327275  38.478   2.812   9.450
 5266POPC   PO427276  38.501   2.752   9.150
 5266POPC   GL127277  38.467   2.791   8.850
 5266POPC   GL227278  38.585   2.761   8.850
 5266POPC   C1A27279  38.470   2.735   8.550
 5266POPC   D2A27280  38.413   2.758   8.250
 5266POPC   C3A27281  38.492   2.803   7.950
 5266POPC   C4A27282  38.465   2.768   7.650
 5266POPC   C1B27283  38.730   2.765   8.550
 5266POPC   C2B27284  38.699   2.767   8.250
 5266POPC   C3B27285  38.738   2.740   7.950
 5266POPC   C4B27286  38.688   2.751   7.650
 5267POPC   NC327287  19.062  30.708   9.450
 5267POPC   PO427288  19.049  30.660   9.150
 5267POPC   GL127289  19.077  30.665   8.850
 5267POPC   GL227290  19.106  30.560   8.850
 5267POPC   C1A27291  19.056  30.691   8.550
 5267POPC   D2A27292  19.029  30.647   8.250
 5267POPC   C3A27293  19.099  30.661   7.950
 5267POPC   C4A27294  19.091  30.718   7.650
 5267POPC   C1B27295  19.217  30.517   8.550
 5267POPC   C2B27296  19.237  30.539   8.250
 5267POPC   C3B27297  19.235  30.462   7.950
 5267POPC   C4B27298  19.245  30.549   7.650
 5268POPC   NC327299  42.356  36.920   9.450
 5268POPC   PO427300  42.373  36.932   9.150
 5268POPC   GL127301  42.338  36.855   8.850
 5268POPC   GL227302  42.371  37.010   8.850
 5268POPC   C1A27303  42.305  36.909   8.550
 5268POPC   D2A27304  42.330  36.922   8.250
 5268POPC   C3A27305  42.311  36.915   7.950
 5268POPC   C4A27306  42.313  36.933   7.650
 5268POPC   C1B27307  42.292  37.120   8.550
 5268POPC   C2B27308  42.387  37.165   8.250
 5268POPC   C3B27309  42.332  37.169   7.950
 5268POPC   C4B27310  42.377  37.161   7.650
 5269POPC   NC327311  15.917  25.228   9.450
 5269POPC   PO427312  16.003  25.233   9.150
 5269POPC   GL127313  15.929  25.257   8.850
 5269POPC   GL227314  15.933  25.354   8.850
 5269POPC   C1A27315  15.988  25.293   8.550
 5269POPC   D2A27316  15.997  25.235   8.250
 5269POPC   C3A27317  15.941  25.315   7.950
 5269POPC   C4A27318  15.928  25.307   7.650
 5269POPC   C1B27319  15.870  25.462   8.550
 5269POPC   C2B27320  15.876  25.501   8.250
 5269POPC   C3B27321  15.841  25.487   7.950
 5269POPC   C4B27322  15.897  25.532   7.650
 5270POPC   NC327323  11.270   1.944   9.450
 5270POPC   PO427324  11.336   1.954   9.150
 5270POPC   GL127325  11.280   1.947   8.850
 5270POPC   GL227326  11.414   1.951   8.850
 5270POPC   C1A27327  11.323   2.029   8.550
 5270POPC   D2A27328  11.283   1.971   8.250
 5270POPC   C3A27329  11.269   2.026   7.950
 5270POPC   C4A27330  11.317   2.010   7.650
 5270POPC   C1B27331  11.529   1.816   8.550
 5270POPC   C2B27332  11.470   1.797   8.250
 5270POPC   C3B27333  11.448   1.822   7.950
 5270POPC   C4B27334  11.499   1.856   7.650
 5271POPC   NC327335   3.541  13.581   9.450
 5271POPC   PO427336   3.560  13.593   9.150
 5271POPC   GL127337   3.557  13.609   8.850
 5271POPC   GL227338   3.587  13.729   8.850
 5271POPC   C1A27339   3.539  13.591   8.550
 5271POPC   D2A27340   3.567  13.661   8.250
 5271POPC   C3A27341   3.572  13.632   7.950
 5271POPC   C4A27342   3.555  13.610   7.650
 5271POPC   C1B27343   3.610  13.844   8.550
 5271POPC   C2B27344   3.662  13.894   8.250
 5271POPC   C3B27345   3.621  13.834   7.950
 5271POPC   C4B27346   3.648  13.840   7.650
 5272POPC   NC327347  39.210  28.356   9.450
 5272POPC   PO427348  39.187  28.414   9.150
 5272POPC   GL127349  39.272  28.364   8.850
 5272POPC   GL227350  39.258  28.476   8.850
 5272POPC   C1A27351  39.187  28.409   8.550
 5272POPC   D2A27352  39.198  28.392   8.250
 5272POPC   C3A27353  39.239  28.377   7.950
 5272POPC   C4A27354  39.256  28.404   7.650
 5272POPC   C1B27355  39.173  28.599   8.550
 5272POPC   C2B27356  39.203  28.581   8.250
 5272POPC   C3B27357  39.158  28.595   7.950
 5272POPC   C4B27358  39.194  28.606   7.650
 5273POPC   NC327359  36.911  41.527   9.450
 5273POPC   PO427360  36.894  41.554   9.150
 5273POPC   GL127361  36.926  41.523   8.850
 5273POPC   GL227362  36.884  41.685   8.850
 5273POPC   C1A27363  36.872  41.522   8.550
 5273POPC   D2A27364  36.867  41.563   8.250
 5273POPC   C3A27365  36.893  41.510   7.950
 5273POPC   C4A27366  36.905  41.525   7.650
 5273POPC   C1B27367  36.912  41.848   8.550
 5273POPC   C2B27368  36.962  41.816   8.250
 5273POPC   C3B27369  36.944  41.798   7.950
 5273POPC   C4B27370  36.922  41.796   7.650
 5274POPC   NC327371  19.829  19.053   9.450
 5274POPC   PO427372  19.801  19.055   9.150
 5274POPC   GL127373  19.793  19.097   8.850
 5274POPC   GL227374  19.855  19.162   8.850
 5274POPC   C1A27375  19.879  19.037   8.550
 5274POPC   D2A27376  19.854  19.097   8.250
 5274POPC   C3A27377  19.866  19.066   7.950
 5274POPC   C4A27378  19.853  19.043   7.650
 5274POPC   C1B27379  19.827  19.289   8.550
 5274POPC   C2B27380  19.867  19.305   8.250
 5274POPC   C3B27381  19.823  19.275   7.950
 5274POPC   C4B27382  19.903  19.334   7.650
 5275POPC   NC327383  19.054  36.864   9.450
 5275POPC   PO427384  19.054  36.874   9.150
 5275POPC   GL127385  19.093  36.940   8.850
 5275POPC   GL227386  19.065  36.784   8.850
 5275POPC   C1A27387  19.044  36.891   8.550
 5275POPC   D2A27388  19.034  36.894   8.250
 5275POPC   C3A27389  19.094  36.881   7.950
 5275POPC   C4A27390  19.012  36.932   7.650
 5275POPC   C1B27391  19.103  36.665   8.550
 5275POPC   C2B27392  19.065  36.658   8.250
 5275POPC   C3B27393  19.086  36.699   7.950
 5275POPC   C4B27394  19.041  36.700   7.650
 5276POPC   NC327395  44.683  30.671   9.450
 5276POPC   PO427396  44.626  30.729   9.150
 5276POPC   GL127397  44.670  30.672   8.850
 5276POPC   GL227398  44.583  30.707   8.850
 5276POPC   C1A27399  44.656  30.730   8.550
 5276POPC   D2A27400  44.676  30.648   8.250
 5276POPC   C3A27401  44.691  30.700   7.950
 5276POPC   C4A27402  44.626  30.686   7.650
 5276POPC   C1B27403  44.387  30.761   8.550
 5276POPC   C2B27404  44.410  30.767   8.250
 5276POPC   C3B27405  44.384  30.826   7.950
 5276POPC   C4B27406  44.452  30.767   7.650
 5277POPC   NC327407  43.859   2.773   9.450
 5277POPC   PO427408  43.843   2.803   9.150
 5277POPC   GL127409  43.871   2.746   8.850
 5277POPC   GL227410  43.834   2.654   8.850
 5277POPC   C1A27411  43.927   2.761   8.550
 5277POPC   D2A27412  43.877   2.754   8.250
 5277POPC   C3A27413  43.873   2.795   7.950
 5277POPC   C4A27414  43.874   2.797   7.650
 5277POPC   C1B27415  43.805   2.533   8.550
 5277POPC   C2B27416  43.814   2.574   8.250
 5277POPC   C3B27417  43.821   2.484   7.950
 5277POPC   C4B27418  43.785   2.528   7.650
 5278POPC   NC327419   5.876  34.556   9.450
 5278POPC   PO427420   5.881  34.600   9.150
 5278POPC   GL127421   5.824  34.620   8.850
 5278POPC   GL227422   5.783  34.660   8.850
 5278POPC   C1A27423   5.904  34.554   8.550
 5278POPC   D2A27424   5.869  34.535   8.250
 5278POPC   C3A27425   5.832  34.611   7.950
 5278POPC   C4A27426   5.869  34.612   7.650
 5278POPC   C1B27427   5.739  34.842   8.550
 5278POPC   C2B27428   5.753  34.773   8.250
 5278POPC   C3B27429   5.738  34.832   7.950
 5278POPC   C4B27430   5.750  34.757   7.650
 5279POPC   NC327431  30.651  12.861   9.450
 5279POPC   PO427432  30.715  12.877   9.150
 5279POPC   GL127433  30.683  12.885   8.850
 5279POPC   GL227434  30.741  12.730   8.850
 5279POPC   C1A27435  30.739  12.900   8.550
 5279POPC   D2A27436  30.721  12.847   8.250
 5279POPC   C3A27437  30.707  12.853   7.950
 5279POPC   C4A27438  30.737  12.840   7.650
 5279POPC   C1B27439  30.790  12.663   8.550
 5279POPC   C2B27440  30.768  12.633   8.250
 5279POPC   C3B27441  30.770  12.568   7.950
 5279POPC   C4B27442  30.752  12.588   7.650
 5280POPC   NC327443  18.251  43.925   9.450
 5280POPC   PO427444  18.252  43.935   9.150
 5280POPC   GL127445  18.326  43.918   8.850
 5280POPC   GL227446  18.276  43.795   8.850
 5280POPC   C1A27447  18.317  43.898   8.550
 5280POPC   D2A27448  18.331  43.858   8.250
 5280POPC   C3A27449  18.243  43.929   7.950
 5280POPC   C4A27450  18.254  43.845   7.650
 5280POPC   C1B27451  18.279  43.672   8.550
 5280POPC   C2B27452  18.274  43.690   8.250
 5280POPC   C3B27453  18.276  43.621   7.950
 5280POPC   C4B27454  18.256  43.625   7.650
 5281POPC   NC327455  22.191  32.226   9.450
 5281POPC   PO427456  22.138  32.231   9.150
 5281POPC   GL127457  22.142  32.214   8.850
 5281POPC   GL227458  22.280  32.273   8.850
 5281POPC   C1A27459  22.135  32.226   8.550
 5281POPC   D2A27460  22.178  32.295   8.250
 5281POPC   C3A27461  22.151  32.218   7.950
 5281POPC   C4A27462  22.133  32.279   7.650
 5281POPC   C1B27463  22.368  32.258   8.550
 5281POPC   C2B27464  22.421  32.288   8.250
 5281POPC   C3B27465  22.431  32.323   7.950
 5281POPC   C4B27466  22.395  32.316   7.650
 5282POPC   NC327467   2.027  26.841   9.450
 5282POPC   PO427468   2.035  26.780   9.150
 5282POPC   GL127469   2.028  26.785   8.850
 5282POPC   GL227470   2.125  26.839   8.850
 5282POPC   C1A27471   2.034  26.786   8.550
 5282POPC   D2A27472   2.024  26.822   8.250
 5282POPC   C3A27473   1.980  26.840   7.950
 5282POPC   C4A27474   2.017  26.808   7.650
 5282POPC   C1B27475   2.228  26.819   8.550
 5282POPC   C2B27476   2.262  26.791   8.250
 5282POPC   C3B27477   2.267  26.789   7.950
 5282POPC   C4B27478   2.279  26.869   7.650
 5283POPC   NC327479   4.329  39.972   9.450
 5283POPC   PO427480   4.339  39.979   9.150
 5283POPC   GL127481   4.351  39.993   8.850
 5283POPC   GL227482   4.241  40.123   8.850
 5283POPC   C1A27483   4.319  39.978   8.550
 5283POPC   D2A27484   4.355  39.977   8.250
 5283POPC   C3A27485   4.270  40.045   7.950
 5283POPC   C4A27486   4.314  39.973   7.650
 5283POPC   C1B27487   4.165  40.192   8.550
 5283POPC   C2B27488   4.164  40.169   8.250
 5283POPC   C3B27489   4.122  40.160   7.950
 5283POPC   C4B27490   4.176  40.236   7.650
 5284POPC   NC327491   5.855   8.221   9.450
 5284POPC   PO427492   5.897   8.218   9.150
 5284POPC   GL127493   5.877   8.232   8.850
 5284POPC   GL227494   5.963   8.209   8.850
 5284POPC   C1A27495   5.835   8.154   8.550
 5284POPC   D2A27496   5.833   8.190   8.250
 5284POPC   C3A27497   5.914   8.176   7.950
 5284POPC   C4A27498   5.856   8.158   7.650
 5284POPC   C1B27499   6.135   8.176   8.550
 5284POPC   C2B27500   6.149   8.147   8.250
 5284POPC   C3B27501   6.124   8.195   7.950
 5284POPC   C4B27502   6.071   8.182   7.650
 5285POPC   NC327503   1.257   4.310   9.450
 5285POPC   PO427504   1.202   4.276   9.150
 5285POPC   GL127505   1.172   4.334   8.850
 5285POPC   GL227506   1.271   4.462   8.850
 5285POPC   C1A27507   1.251   4.270   8.550
 5285POPC   D2A27508   1.252   4.269   8.250
 5285POPC   C3A27509   1.216   4.353   7.950
 5285POPC   C4A27510   1.245   4.366   7.650
 5285POPC   C1B27511   1.249   4.541   8.550
 5285POPC   C2B27512   1.298   4.582   8.250
 5285POPC   C3B27513   1.314   4.525   7.950
 5285POPC   C4B27514   1.332   4.588   7.650
 5286POPC   NC327515   7.431   3.511   9.450
 5286POPC   PO427516   7.424   3.496   9.150
 5286POPC   GL127517   7.392   3.569   8.850
 5286POPC   GL227518   7.586   3.467   8.850
 5286POPC   C1A27519   7.402   3.584   8.550
 5286POPC   D2A27520   7.405   3.576   8.250
 5286POPC   C3A27521   7.427   3.497   7.950
 5286POPC   C4A27522   7.459   3.567   7.650
 5286POPC   C1B27523   7.704   3.481   8.550
 5286POPC   C2B27524   7.686   3.500   8.250
 5286POPC   C3B27525   7.631   3.535   7.950
 5286POPC   C4B27526   7.640   3.523   7.650
 5287POPC   NC327527  21.391  15.974   9.450
 5287POPC   PO427528  21.436  15.942   9.150
 5287POPC   GL127529  21.419  15.907   8.850
 5287POPC   GL227530  21.502  16.057   8.850
 5287POPC   C1A27531  21.401  15.991   8.550
 5287POPC   D2A27532  21.407  15.971   8.250
 5287POPC   C3A27533  21.351  15.951   7.950
 5287POPC   C4A27534  21.433  15.985   7.650
 5287POPC   C1B27535  21.550  16.195   8.550
 5287POPC   C2B27536  21.553  16.158   8.250
 5287POPC   C3B27537  21.495  16.122   7.950
 5287POPC   C4B27538  21.538  16.192   7.650
 5288POPC   NC327539   3.540   5.824   9.450
 5288POPC   PO427540   3.543   5.844   9.150
 5288POPC   GL127541   3.564   5.839   8.850
 5288POPC   GL227542   3.398   5.856   8.850
 5288POPC   C1A27543   3.577   5.916   8.550
 5288POPC   D2A27544   3.521   5.843   8.250
 5288POPC   C3A27545   3.571   5.845   7.950
 5288POPC   C4A27546   3.515   5.832   7.650
 5288POPC   C1B27547   3.304   5.754   8.550
 5288POPC   C2B27548   3.331   5.701   8.250
 5288POPC   C3B27549   3.364   5.798   7.950
 5288POPC   C4B27550   3.353   5.705   7.650
 5289POPC   NC327551  23.714  23.761   9.450
 5289POPC   PO427552  23.718  23.740   9.150
 5289POPC   GL127553  23.692  23.751   8.850
 5289POPC   GL227554  23.825  23.767   8.850
 5289POPC   C1A27555  23.697  23.720   8.550
 5289POPC   D2A27556  23.673  23.729   8.250
 5289POPC   C3A27557  23.672  23.727   7.950
 5289POPC   C4A27558  23.727  23.758   7.650
 5289POPC   C1B27559  23.831  23.945   8.550
 5289POPC   C2B27560  23.921  23.882   8.250
 5289POPC   C3B27561  23.878  23.931   7.950
 5289POPC   C4B27562  23.918  23.943   7.650
 5290POPC   NC327563   8.972  29.121   9.450
 5290POPC   PO427564   8.926  29.116   9.150
 5290POPC   GL127565   8.940  29.105   8.850
 5290POPC   GL227566   9.099  29.184   8.850
 5290POPC   C1A27567   8.995  29.121   8.550
 5290POPC   D2A27568   8.954  29.133   8.250
 5290POPC   C3A27569   8.979  29.172   7.950
 5290POPC   C4A27570   8.922  29.131   7.650
 5290POPC   C1B27571   9.193  29.170   8.550
 5290POPC   C2B27572   9.189  29.154   8.250
 5290POPC   C3B27573   9.249  29.135   7.950
 5290POPC   C4B27574   9.212  29.192   7.650
 5291POPC   NC327575  25.252   7.423   9.450
 5291POPC   PO427576  25.315   7.454   9.150
 5291POPC   GL127577  25.233   7.409   8.850
 5291POPC   GL227578  25.264   7.551   8.850
 5291POPC   C1A27579  25.276   7.401   8.550
 5291POPC   D2A27580  25.310   7.377   8.250
 5291POPC   C3A27581  25.265   7.450   7.950
 5291POPC   C4A27582  25.286   7.427   7.650
 5291POPC   C1B27583  25.253   7.680   8.550
 5291POPC   C2B27584  25.205   7.699   8.250
 5291POPC   C3B27585  25.214   7.690   7.950
 5291POPC   C4B27586  25.235   7.695   7.650
 5292POPC   NC327587   3.500  31.490   9.450
 5292POPC   PO427588   3.510  31.502   9.150
 5292POPC   GL127589   3.573  31.515   8.850
 5292POPC   GL227590   3.591  31.641   8.850
 5292POPC   C1A27591   3.525  31.480   8.550
 5292POPC   D2A27592   3.585  31.459   8.250
 5292POPC   C3A27593   3.575  31.522   7.950
 5292POPC   C4A27594   3.542  31.510   7.650
 5292POPC   C1B27595   3.552  31.726   8.550
 5292POPC   C2B27596   3.635  31.669   8.250
 5292POPC   C3B27597   3.560  31.732   7.950
 5292POPC   C4B27598   3.548  31.735   7.650
 5293POPC   NC327599  20.590  40.764   9.450
 5293POPC   PO427600  20.615  40.752   9.150
 5293POPC   GL127601  20.563  40.806   8.850
 5293POPC   GL227602  20.572  40.696   8.850
 5293POPC   C1A27603  20.619  40.737   8.550
 5293POPC   D2A27604  20.635  40.767   8.250
 5293POPC   C3A27605  20.590  40.772   7.950
 5293POPC   C4A27606  20.574  40.812   7.650
 5293POPC   C1B27607  20.575  40.491   8.550
 5293POPC   C2B27608  20.633  40.490   8.250
 5293POPC   C3B27609  20.609  40.541   7.950
 5293POPC   C4B27610  20.567  40.552   7.650
 5294POPC   NC327611  29.891  21.399   9.450
 5294POPC   PO427612  29.948  21.401   9.150
 5294POPC   GL127613  29.942  21.417   8.850
 5294POPC   GL227614  29.964  21.529   8.850
 5294POPC   C1A27615  29.945  21.418   8.550
 5294POPC   D2A27616  29.888  21.435   8.250
 5294POPC   C3A27617  29.946  21.422   7.950
 5294POPC   C4A27618  29.947  21.392   7.650
 5294POPC   C1B27619  29.892  21.679   8.550
 5294POPC   C2B27620  29.960  21.652   8.250
 5294POPC   C3B27621  29.961  21.672   7.950
 5294POPC   C4B27622  29.970  21.617   7.650
 5295POPC   NC327623  26.791  17.461   9.450
 5295POPC   PO427624  26.826  17.529   9.150
 5295POPC   GL127625  26.853  17.550   8.850
 5295POPC   GL227626  26.929  17.601   8.850
 5295POPC   C1A27627  26.850  17.496   8.550
 5295POPC   D2A27628  26.866  17.546   8.250
 5295POPC   C3A27629  26.781  17.517   7.950
 5295POPC   C4A27630  26.806  17.526   7.650
 5295POPC   C1B27631  27.060  17.612   8.550
 5295POPC   C2B27632  27.085  17.592   8.250
 5295POPC   C3B27633  27.063  17.560   7.950
 5295POPC   C4B27634  27.001  17.649   7.650
 5296POPC   NC327635   1.206  44.676   9.450
 5296POPC   PO427636   1.191  44.613   9.150
 5296POPC   GL127637   1.229  44.667   8.850
 5296POPC   GL227638   1.166  44.613   8.850
 5296POPC   C1A27639   1.185  44.706   8.550
 5296POPC   D2A27640   1.263  44.705   8.250
 5296POPC   C3A27641   1.263  44.681   7.950
 5296POPC   C4A27642   1.189  44.639   7.650
 5296POPC   C1B27643   1.066  44.540   8.550
 5296POPC   C2B27644   1.041  44.516   8.250
 5296POPC   C3B27645   0.982  44.463   7.950
 5296POPC   C4B27646   1.066  44.493   7.650
 5297POPC   NC327647  26.007   4.342   9.450
 5297POPC   PO427648  26.044   4.345   9.150
 5297POPC   GL127649  26.057   4.366   8.850
 5297POPC   GL227650  26.137   4.312   8.850
 5297POPC   C1A27651  26.026   4.280   8.550
 5297POPC   D2A27652  26.051   4.337   8.250
 5297POPC   C3A27653  26.072   4.297   7.950
 5297POPC   C4A27654  26.058   4.276   7.650
 5297POPC   C1B27655  26.278   4.381   8.550
 5297POPC   C2B27656  26.282   4.355   8.250
 5297POPC   C3B27657  26.246   4.386   7.950
 5297POPC   C4B27658  26.296   4.319   7.650
 5298POPC   NC327659  27.625  43.929   9.450
 5298POPC   PO427660  27.583  43.929   9.150
 5298POPC   GL127661  27.633  43.903   8.850
 5298POPC   GL227662  27.627  44.038   8.850
 5298POPC   C1A27663  27.559  43.888   8.550
 5298POPC   D2A27664  27.569  43.917   8.250
 5298POPC   C3A27665  27.560  43.894   7.950
 5298POPC   C4A27666  27.584  43.921   7.650
 5298POPC   C1B27667  27.621  44.112   8.550
 5298POPC   C2B27668  27.621  44.128   8.250
 5298POPC   C3B27669  27.591  44.088   7.950
 5298POPC   C4B27670  27.565  44.096   7.650
 5299POPC   NC327671   4.315  12.080   9.450
 5299POPC   PO427672   4.333  12.037   9.150
 5299POPC   GL127673   4.317  12.047   8.850
 5299POPC   GL227674   4.472  12.088   8.850
 5299POPC   C1A27675   4.279  12.105   8.550
 5299POPC   D2A27676   4.312  12.090   8.250
 5299POPC   C3A27677   4.352  12.038   7.950
 5299POPC   C4A27678   4.336  12.125   7.650
 5299POPC   C1B27679   4.540  12.154   8.550
 5299POPC   C2B27680   4.548  12.179   8.250
 5299POPC   C3B27681   4.513  12.170   7.950
 5299POPC   C4B27682   4.567  12.189   7.650
 5300POPC   NC327683   6.650   7.411   9.450
 5300POPC   PO427684   6.684   7.386   9.150
 5300POPC   GL127685   6.633   7.411   8.850
 5300POPC   GL227686   6.486   7.370   8.850
 5300POPC   C1A27687   6.667   7.431   8.550
 5300POPC   D2A27688   6.672   7.461   8.250
 5300POPC   C3A27689   6.598   7.396   7.950
 5300POPC   C4A27690   6.661   7.452   7.650
 5300POPC   C1B27691   6.464   7.305   8.550
 5300POPC   C2B27692   6.431   7.299   8.250
 5300POPC   C3B27693   6.381   7.278   7.950
 5300POPC   C4B27694   6.441   7.293   7.650
 5301POPC   NC327695  33.051  32.228   9.450
 5301POPC   PO427696  32.982  32.289   9.150
 5301POPC   GL127697  33.005  32.264   8.850
 5301POPC   GL227698  33.134  32.176   8.850
 5301POPC   C1A27699  33.059  32.212   8.550
 5301POPC   D2A27700  33.060  32.217   8.250
 5301POPC   C3A27701  33.064  32.261   7.950
 5301POPC   C4A27702  33.005  32.219   7.650
 5301POPC   C1B27703  33.214  32.116   8.550
 5301POPC   C2B27704  33.229  32.194   8.250
 5301POPC   C3B27705  33.302  32.136   7.950
 5301POPC   C4B27706  33.296  32.199   7.650
 5302POPC   NC327707  37.714   5.908   9.450
 5302POPC   PO427708  37.728   5.881   9.150
 5302POPC   GL127709  37.721   5.885   8.850
 5302POPC   GL227710  37.702   5.984   8.850
 5302POPC   C1A27711  37.691   5.911   8.550
 5302POPC   D2A27712  37.714   5.834   8.250
 5302POPC   C3A27713  37.680   5.905   7.950
 5302POPC   C4A27714  37.678   5.874   7.650
 5302POPC   C1B27715  37.678   6.113   8.550
 5302POPC   C2B27716  37.641   6.094   8.250
 5302POPC   C3B27717  37.645   6.144   7.950
 5302POPC   C4B27718  37.622   6.069   7.650
 5303POPC   NC327719  12.042  10.541   9.450
 5303POPC   PO427720  12.043  10.502   9.150
 5303POPC   GL127721  12.057  10.543   8.850
 5303POPC   GL227722  12.063  10.632   8.850
 5303POPC   C1A27723  12.106  10.483   8.550
 5303POPC   D2A27724  12.087  10.506   8.250
 5303POPC   C3A27725  12.051  10.549   7.950
 5303POPC   C4A27726  12.107  10.554   7.650
 5303POPC   C1B27727  11.994  10.784   8.550
 5303POPC   C2B27728  12.013  10.727   8.250
 5303POPC   C3B27729  11.969  10.729   7.950
 5303POPC   C4B27730  11.918  10.769   7.650
 5304POPC   NC327731  32.226  11.324   9.450
 5304POPC   PO427732  32.266  11.345   9.150
 5304POPC   GL127733  32.230  11.256   8.850
 5304POPC   GL227734  32.203  11.432   8.850
 5304POPC   C1A27735  32.234  11.286   8.550
 5304POPC   D2A27736  32.262  11.322   8.250
 5304POPC   C3A27737  32.282  11.282   7.950
 5304POPC   C4A27738  32.297  11.311   7.650
 5304POPC   C1B27739  32.067  11.507   8.550
 5304POPC   C2B27740  32.097  11.535   8.250
 5304POPC   C3B27741  32.059  11.469   7.950
 5304POPC   C4B27742  32.115  11.527   7.650
 5305POPC   NC327743  17.471  43.868   9.450
 5305POPC   PO427744  17.542  43.922   9.150
 5305POPC   GL127745  17.526  43.844   8.850
 5305POPC   GL227746  17.432  43.739   8.850
 5305POPC   C1A27747  17.555  43.852   8.550
 5305POPC   D2A27748  17.504  43.910   8.250
 5305POPC   C3A27749  17.537  43.840   7.950
 5305POPC   C4A27750  17.472  43.932   7.650
 5305POPC   C1B27751  17.471  43.610   8.550
 5305POPC   C2B27752  17.411  43.625   8.250
 5305POPC   C3B27753  17.426  43.614   7.950
 5305POPC   C4B27754  17.489  43.659   7.650
 5306POPC   NC327755  36.086  15.220   9.450
 5306POPC   PO427756  36.089  15.168   9.150
 5306POPC   GL127757  36.156  15.174   8.850
 5306POPC   GL227758  36.256  15.320   8.850
 5306POPC   C1A27759  36.124  15.179   8.550
 5306POPC   D2A27760  36.110  15.157   8.250
 5306POPC   C3A27761  36.095  15.164   7.950
 5306POPC   C4A27762  36.139  15.147   7.650
 5306POPC   C1B27763  36.252  15.399   8.550
 5306POPC   C2B27764  36.341  15.400   8.250
 5306POPC   C3B27765  36.267  15.311   7.950
 5306POPC   C4B27766  36.278  15.382   7.650
 5307POPC   NC327767   8.163   4.305   9.450
 5307POPC   PO427768   8.239   4.324   9.150
 5307POPC   GL127769   8.230   4.323   8.850
 5307POPC   GL227770   8.304   4.234   8.850
 5307POPC   C1A27771   8.228   4.325   8.550
 5307POPC   D2A27772   8.238   4.295   8.250
 5307POPC   C3A27773   8.238   4.324   7.950
 5307POPC   C4A27774   8.164   4.302   7.650
 5307POPC   C1B27775   8.313   4.076   8.550
 5307POPC   C2B27776   8.273   4.059   8.250
 5307POPC   C3B27777   8.283   4.094   7.950
 5307POPC   C4B27778   8.359   4.098   7.650
 5308POPC   NC327779   7.408  27.568   9.450
 5308POPC   PO427780   7.392  27.551   9.150
 5308POPC   GL127781   7.433  27.567   8.850
 5308POPC   GL227782   7.580  27.616   8.850
 5308POPC   C1A27783   7.440  27.612   8.550
 5308POPC   D2A27784   7.464  27.587   8.250
 5308POPC   C3A27785   7.399  27.554   7.950
 5308POPC   C4A27786   7.400  27.596   7.650
 5308POPC   C1B27787   7.632  27.618   8.550
 5308POPC   C2B27788   7.670  27.632   8.250
 5308POPC   C3B27789   7.675  27.616   7.950
 5308POPC   C4B27790   7.683  27.580   7.650
 5309POPC   NC327791  14.407  17.517   9.450
 5309POPC   PO427792  14.377  17.519   9.150
 5309POPC   GL127793  14.427  17.550   8.850
 5309POPC   GL227794  14.447  17.557   8.850
 5309POPC   C1A27795  14.407  17.500   8.550
 5309POPC   D2A27796  14.371  17.508   8.250
 5309POPC   C3A27797  14.354  17.489   7.950
 5309POPC   C4A27798  14.444  17.458   7.650
 5309POPC   C1B27799  14.551  17.689   8.550
 5309POPC   C2B27800  14.541  17.739   8.250
 5309POPC   C3B27801  14.559  17.660   7.950
 5309POPC   C4B27802  14.555  17.740   7.650
 5310POPC   NC327803  26.847  30.737   9.450
 5310POPC   PO427804  26.850  30.744   9.150
 5310POPC   GL127805  26.800  30.697   8.850
 5310POPC   GL227806  26.807  30.822   8.850
 5310POPC   C1A27807  26.785  30.746   8.550
 5310POPC   D2A27808  26.803  30.668   8.250
 5310POPC   C3A27809  26.832  30.738   7.950
 5310POPC   C4A27810  26.811  30.666   7.650
 5310POPC   C1B27811  26.740  30.881   8.550
 5310POPC   C2B27812  26.740  30.889   8.250
 5310POPC   C3B27813  26.669  30.950   7.950
 5310POPC   C4B27814  26.662  30.956   7.650
 5311POPC   NC327815  22.941   5.089   9.450
 5311POPC   PO427816  22.968   5.075   9.150
 5311POPC   GL127817  22.968   5.114   8.850
 5311POPC   GL227818  22.892   5.015   8.850
 5311POPC   C1A27819  22.894   5.085   8.550
 5311POPC   D2A27820  22.967   5.094   8.250
 5311POPC   C3A27821  22.937   5.047   7.950
 5311POPC   C4A27822  22.942   5.100   7.650
 5311POPC   C1B27823  22.969   4.815   8.550
 5311POPC   C2B27824  22.960   4.794   8.250
 5311POPC   C3B27825  22.899   4.825   7.950
 5311POPC   C4B27826  22.946   4.883   7.650
 5312POPC   NC327827  40.051  15.153   9.450
 5312POPC   PO427828  40.026  15.166   9.150
 5312POPC   GL127829  40.017  15.209   8.850
 5312POPC   GL227830  39.882  15.142   8.850
 5312POPC   C1A27831  40.038  15.222   8.550
 5312POPC   D2A27832  39.963  15.137   8.250
 5312POPC   C3A27833  40.049  15.210   7.950
 5312POPC   C4A27834  39.958  15.221   7.650
 5312POPC   C1B27835  39.745  15.099   8.550
 5312POPC   C2B27836  39.751  15.188   8.250
 5312POPC   C3B27837  39.746  15.170   7.950
 5312POPC   C4B27838  39.769  15.124   7.650
 5313POPC   NC327839  34.608   9.008   9.450
 5313POPC   PO427840  34.625   8.971   9.150
 5313POPC   GL127841  34.555   8.975   8.850
 5313POPC   GL227842  34.430   9.036   8.850
 5313POPC   C1A27843  34.550   8.976   8.550
 5313POPC   D2A27844  34.539   8.956   8.250
 5313POPC   C3A27845  34.581   8.991   7.950
 5313POPC   C4A27846  34.592   8.989   7.650
 5313POPC   C1B27847  34.299   9.036   8.550
 5313POPC   C2B27848  34.313   9.018   8.250
 5313POPC   C3B27849  34.302   9.058   7.950
 5313POPC   C4B27850  34.307   8.999   7.650
 5314POPC   NC327851  40.814   4.363   9.450
 5314POPC   PO427852  40.743   4.357   9.150
 5314POPC   GL127853  40.812   4.271   8.850
 5314POPC   GL227854  40.661   4.238   8.850
 5314POPC   C1A27855  40.753   4.335   8.550
 5314POPC   D2A27856  40.739   4.334   8.250
 5314POPC   C3A27857  40.787   4.350   7.950
 5314POPC   C4A27858  40.770   4.289   7.650
 5314POPC   C1B27859  40.563   4.153   8.550
 5314POPC   C2B27860  40.546   4.119   8.250
 5314POPC   C3B27861  40.590   4.118   7.950
 5314POPC   C4B27862  40.634   4.136   7.650
 5315POPC   NC327863  42.293   5.116   9.450
 5315POPC   PO427864  42.326   5.101   9.150
 5315POPC   GL127865  42.339   5.108   8.850
 5315POPC   GL227866  42.478   5.096   8.850
 5315POPC   C1A27867  42.335   5.115   8.550
 5315POPC   D2A27868  42.288   5.057   8.250
 5315POPC   C3A27869  42.378   5.093   7.950
 5315POPC   C4A27870  42.310   5.088   7.650
 5315POPC   C1B27871  42.579   5.228   8.550
 5315POPC   C2B27872  42.583   5.186   8.250
 5315POPC   C3B27873  42.615   5.176   7.950
 5315POPC   C4B27874  42.537   5.189   7.650
 5316POPC   NC327875  21.399  29.173   9.450
 5316POPC   PO427876  21.415  29.151   9.150
 5316POPC   GL127877  21.403  29.157   8.850
 5316POPC   GL227878  21.302  29.250   8.850
 5316POPC   C1A27879  21.390  29.151   8.550
 5316POPC   D2A27880  21.425  29.134   8.250
 5316POPC   C3A27881  21.354  29.193   7.950
 5316POPC   C4A27882  21.423  29.121   7.650
 5316POPC   C1B27883  21.235  29.318   8.550
 5316POPC   C2B27884  21.258  29.408   8.250
 5316POPC   C3B27885  21.260  29.396   7.950
 5316POPC   C4B27886  21.220  29.388   7.650
 5317POPC   NC327887  28.387  18.303   9.450
 5317POPC   PO427888  28.369  18.278   9.150
 5317POPC   GL127889  28.361  18.242   8.850
 5317POPC   GL227890  28.425  18.423   8.850
 5317POPC   C1A27891  28.370  18.257   8.550
 5317POPC   D2A27892  28.368  18.299   8.250
 5317POPC   C3A27893  28.339  18.295   7.950
 5317POPC   C4A27894  28.357  18.261   7.650
 5317POPC   C1B27895  28.480  18.464   8.550
 5317POPC   C2B27896  28.534  18.474   8.250
 5317POPC   C3B27897  28.537  18.477   7.950
 5317POPC   C4B27898  28.557  18.456   7.650
 5318POPC   NC327899  37.697   1.224   9.450
 5318POPC   PO427900  37.709   1.177   9.150
 5318POPC   GL127901  37.677   1.259   8.850
 5318POPC   GL227902  37.764   1.348   8.850
 5318POPC   C1A27903  37.701   1.259   8.550
 5318POPC   D2A27904  37.664   1.258   8.250
 5318POPC   C3A27905  37.640   1.253   7.950
 5318POPC   C4A27906  37.680   1.172   7.650
 5318POPC   C1B27907  37.792   1.392   8.550
 5318POPC   C2B27908  37.765   1.448   8.250
 5318POPC   C3B27909  37.781   1.466   7.950
 5318POPC   C4B27910  37.783   1.477   7.650
 5319POPC   NC327911   7.453  32.271   9.450
 5319POPC   PO427912   7.391  32.228   9.150
 5319POPC   GL127913   7.465  32.260   8.850
 5319POPC   GL227914   7.499  32.294   8.850
 5319POPC   C1A27915   7.442  32.283   8.550
 5319POPC   D2A27916   7.389  32.294   8.250
 5319POPC   C3A27917   7.380  32.211   7.950
 5319POPC   C4A27918   7.416  32.279   7.650
 5319POPC   C1B27919   7.656  32.354   8.550
 5319POPC   C2B27920   7.607  32.361   8.250
 5319POPC   C3B27921   7.585  32.369   7.950
 5319POPC   C4B27922   7.611  32.422   7.650
 5320POPC   NC327923  39.265   7.444   9.450
 5320POPC   PO427924  39.276   7.424   9.150
 5320POPC   GL127925  39.234   7.442   8.850
 5320POPC   GL227926  39.233   7.513   8.850
 5320POPC   C1A27927  39.235   7.460   8.550
 5320POPC   D2A27928  39.215   7.460   8.250
 5320POPC   C3A27929  39.278   7.417   7.950
 5320POPC   C4A27930  39.212   7.433   7.650
 5320POPC   C1B27931  39.181   7.626   8.550
 5320POPC   C2B27932  39.229   7.686   8.250
 5320POPC   C3B27933  39.234   7.659   7.950
 5320POPC   C4B27934  39.183   7.626   7.650
 5321POPC   NC327935  30.743  28.329   9.450
 5321POPC   PO427936  30.742  28.373   9.150
 5321POPC   GL127937  30.732  28.320   8.850
 5321POPC   GL227938  30.667  28.277   8.850
 5321POPC   C1A27939  30.730  28.347   8.550
 5321POPC   D2A27940  30.691  28.323   8.250
 5321POPC   C3A27941  30.735  28.405   7.950
 5321POPC   C4A27942  30.650  28.371   7.650
 5321POPC   C1B27943  30.751  28.140   8.550
 5321POPC   C2B27944  30.709  28.170   8.250
 5321POPC   C3B27945  30.744  28.143   7.950
 5321POPC   C4B27946  30.682  28.128   7.650
 5322POPC   NC327947   0.393  26.792   9.450
 5322POPC   PO427948   0.477  26.835   9.150
 5322POPC   GL127949   0.397  26.838   8.850
 5322POPC   GL227950   0.497  26.885   8.850
 5322POPC   C1A27951   0.411  26.782   8.550
 5322POPC   D2A27952   0.419  26.857   8.250
 5322POPC   C3A27953   0.428  26.831   7.950
 5322POPC   C4A27954   0.405  26.805   7.650
 5322POPC   C1B27955   0.593  26.943   8.550
 5322POPC   C2B27956   0.650  26.980   8.250
 5322POPC   C3B27957   0.672  27.004   7.950
 5322POPC   C4B27958   0.609  26.943   7.650
 5323POPC   NC327959  33.044  20.614   9.450
 5323POPC   PO427960  33.073  20.583   9.150
 5323POPC   GL127961  33.037  20.629   8.850
 5323POPC   GL227962  33.110  20.619   8.850
 5323POPC   C1A27963  33.048  20.631   8.550
 5323POPC   D2A27964  33.019  20.605   8.250
 5323POPC   C3A27965  32.977  20.606   7.950
 5323POPC   C4A27966  33.032  20.569   7.650
 5323POPC   C1B27967  33.265  20.684   8.550
 5323POPC   C2B27968  33.282  20.681   8.250
 5323POPC   C3B27969  33.220  20.670   7.950
 5323POPC   C4B27970  33.203  20.719   7.650
 5324POPC   NC327971  40.035  44.703   9.450
 5324POPC   PO427972  40.031  44.695   9.150
 5324POPC   GL127973  39.975  44.638   8.850
 5324POPC   GL227974  39.855  44.650   8.850
 5324POPC   C1A27975  39.969  44.619   8.550
 5324POPC   D2A27976  39.981  44.673   8.250
 5324POPC   C3A27977  39.989  44.612   7.950
 5324POPC   C4A27978  39.983  44.699   7.650
 5324POPC   C1B27979  39.747  44.568   8.550
 5324POPC   C2B27980  39.828  44.559   8.250
 5324POPC   C3B27981  39.774  44.541   7.950
 5324POPC   C4B27982  39.747  44.561   7.650
 5325POPC   NC327983  18.259  23.705   9.450
 5325POPC   PO427984  18.320  23.702   9.150
 5325POPC   GL127985  18.244  23.692   8.850
 5325POPC   GL227986  18.268  23.856   8.850
 5325POPC   C1A27987  18.276  23.739   8.550
 5325POPC   D2A27988  18.332  23.696   8.250
 5325POPC   C3A27989  18.316  23.708   7.950
 5325POPC   C4A27990  18.295  23.699   7.650
 5325POPC   C1B27991  18.173  23.982   8.550
 5325POPC   C2B27992  18.239  23.982   8.250
 5325POPC   C3B27993  18.193  23.914   7.950
 5325POPC   C4B27994  18.186  23.912   7.650
 5326POPC   NC327995   9.769  43.845   9.450
 5326POPC   PO427996   9.724  43.927   9.150
 5326POPC   GL127997   9.766  43.917   8.850
 5326POPC   GL227998   9.670  43.765   8.850
 5326POPC   C1A27999   9.745  43.846   8.550
 5326POPC   D2A28000   9.789  43.862   8.250
 5326POPC   C3A28001   9.778  43.898   7.950
 5326POPC   C4A28002   9.716  43.910   7.650
 5326POPC   C1B28003   9.582  43.715   8.550
 5326POPC   C2B28004   9.622  43.717   8.250
 5326POPC   C3B28005   9.638  43.720   7.950
 5326POPC   C4B28006   9.641  43.637   7.650
 5327POPC   NC328007   6.649  19.039   9.450
 5327POPC   PO428008   6.628  19.073   9.150
 5327POPC   GL128009   6.667  19.015   8.850
 5327POPC   GL228010   6.658  19.196   8.850
 5327POPC   C1A28011   6.620  19.070   8.550
 5327POPC   D2A28012   6.615  19.013   8.250
 5327POPC   C3A28013   6.674  19.074   7.950
 5327POPC   C4A28014   6.601  19.059   7.650
 5327POPC   C1B28015   6.647  19.260   8.550
 5327POPC   C2B28016   6.707  19.255   8.250
 5327POPC   C3B28017   6.710  19.255   7.950
 5327POPC   C4B28018   6.684  19.331   7.650
 5328POPC   NC328019   1.234  43.141   9.450
 5328POPC   PO428020   1.198  43.088   9.150
 5328POPC   GL128021   1.191  43.077   8.850
 5328POPC   GL228022   1.244  43.036   8.850
 5328POPC   C1A28023   1.180  43.088   8.550
 5328POPC   D2A28024   1.237  43.141   8.250
 5328POPC   C3A28025   1.207  43.071   7.950
 5328POPC   C4A28026   1.252  43.142   7.650
 5328POPC   C1B28027   1.268  42.850   8.550
 5328POPC   C2B28028   1.342  42.876   8.250
 5328POPC   C3B28029   1.328  42.917   7.950
 5328POPC   C4B28030   1.323  42.869   7.650
 5329POPC   NC328031   8.957  24.529   9.450
 5329POPC   PO428032   9.020  24.504   9.150
 5329POPC   GL128033   8.975  24.495   8.850
 5329POPC   GL228034   8.867  24.522   8.850
 5329POPC   C1A28035   8.963  24.469   8.550
 5329POPC   D2A28036   8.998  24.497   8.250
 5329POPC   C3A28037   8.929  24.445   7.950
 5329POPC   C4A28038   8.954  24.470   7.650
 5329POPC   C1B28039   8.793  24.563   8.550
 5329POPC   C2B28040   8.735  24.620   8.250
 5329POPC   C3B28041   8.786  24.650   7.950
 5329POPC   C4B28042   8.765  24.589   7.650
 5330POPC   NC328043  14.372  18.284   9.450
 5330POPC   PO428044  14.364  18.277   9.150
 5330POPC   GL128045  14.452  18.302   8.850
 5330POPC   GL228046  14.249  18.277   8.850
 5330POPC   C1A28047  14.415  18.257   8.550
 5330POPC   D2A28048  14.423  18.281   8.250
 5330POPC   C3A28049  14.445  18.270   7.950
 5330POPC   C4A28050  14.369  18.264   7.650
 5330POPC   C1B28051  14.184  18.248   8.550
 5330POPC   C2B28052  14.180  18.251   8.250
 5330POPC   C3B28053  14.107  18.305   7.950
 5330POPC   C4B28054  14.134  18.306   7.650
 5331POPC   NC328055  31.519  28.376   9.450
 5331POPC   PO428056  31.518  28.371   9.150
 5331POPC   GL128057  31.454  28.320   8.850
 5331POPC   GL228058  31.473  28.268   8.850
 5331POPC   C1A28059  31.519  28.415   8.550
 5331POPC   D2A28060  31.465  28.394   8.250
 5331POPC   C3A28061  31.453  28.349   7.950
 5331POPC   C4A28062  31.488  28.372   7.650
 5331POPC   C1B28063  31.560  28.137   8.550
 5331POPC   C2B28064  31.540  28.099   8.250
 5331POPC   C3B28065  31.535  28.159   7.950
 5331POPC   C4B28066  31.518  28.111   7.650
 5332POPC   NC328067  11.341  21.419   9.450
 5332POPC   PO428068  11.254  21.427   9.150
 5332POPC   GL128069  11.252  21.338   8.850
 5332POPC   GL228070  11.425  21.370   8.850
 5332POPC   C1A28071  11.326  21.372   8.550
 5332POPC   D2A28072  11.343  21.429   8.250
 5332POPC   C3A28073  11.294  21.420   7.950
 5332POPC   C4A28074  11.309  21.356   7.650
 5332POPC   C1B28075  11.521  21.424   8.550
 5332POPC   C2B28076  11.590  21.353   8.250
 5332POPC   C3B28077  11.514  21.413   7.950
 5332POPC   C4B28078  11.590  21.346   7.650
 5333POPC   NC328079   0.452   5.137   9.450
 5333POPC   PO428080   0.464   5.069   9.150
 5333POPC   GL128081   0.470   5.074   8.850
 5333POPC   GL228082   0.544   4.951   8.850
 5333POPC   C1A28083   0.471   5.081   8.550
 5333POPC   D2A28084   0.478   5.084   8.250
 5333POPC   C3A28085   0.456   5.082   7.950
 5333POPC   C4A28086   0.450   5.116   7.650
 5333POPC   C1B28087   0.573   4.849   8.550
 5333POPC   C2B28088   0.591   4.876   8.250
 5333POPC   C3B28089   0.623   4.889   7.950
 5333POPC   C4B28090   0.623   4.886   7.650
 5334POPC   NC328091   8.238  39.252   9.450
 5334POPC   PO428092   8.193  39.267   9.150
 5334POPC   GL128093   8.175  39.278   8.850
 5334POPC   GL228094   8.313  39.353   8.850
 5334POPC   C1A28095   8.223  39.228   8.550
 5334POPC   D2A28096   8.151  39.198   8.250
 5334POPC   C3A28097   8.193  39.235   7.950
 5334POPC   C4A28098   8.214  39.184   7.650
 5334POPC   C1B28099   8.315  39.475   8.550
 5334POPC   C2B28100   8.321  39.458   8.250
 5334POPC   C3B28101   8.366  39.472   7.950
 5334POPC   C4B28102   8.379  39.476   7.650
 5335POPC   NC328103  33.799  20.584   9.450
 5335POPC   PO428104  33.779  20.652   9.150
 5335POPC   GL128105  33.811  20.647   8.850
 5335POPC   GL228106  33.646  20.640   8.850
 5335POPC   C1A28107  33.778  20.613   8.550
 5335POPC   D2A28108  33.767  20.628   8.250
 5335POPC   C3A28109  33.777  20.560   7.950
 5335POPC   C4A28110  33.779  20.606   7.650
 5335POPC   C1B28111  33.537  20.684   8.550
 5335POPC   C2B28112  33.571  20.744   8.250
 5335POPC   C3B28113  33.582  20.675   7.950
 5335POPC   C4B28114  33.611  20.752   7.650
 5336POPC   NC328115  22.117   9.718   9.450
 5336POPC   PO428116  22.129   9.760   9.150
 5336POPC   GL128117  22.136   9.700   8.850
 5336POPC   GL228118  22.215   9.659   8.850
 5336POPC   C1A28119  22.155   9.767   8.550
 5336POPC   D2A28120  22.132   9.767   8.250
 5336POPC   C3A28121  22.175   9.793   7.950
 5336POPC   C4A28122  22.189   9.760   7.650
 5336POPC   C1B28123  22.330   9.513   8.550
 5336POPC   C2B28124  22.315   9.545   8.250
 5336POPC   C3B28125  22.273   9.583   7.950
 5336POPC   C4B28126  22.262   9.543   7.650
 5337POPC   NC328127   4.336   1.978   9.450
 5337POPC   PO428128   4.277   2.018   9.150
 5337POPC   GL128129   4.281   2.029   8.850
 5337POPC   GL228130   4.256   1.854   8.850
 5337POPC   C1A28131   4.281   2.001   8.550
 5337POPC   D2A28132   4.360   1.992   8.250
 5337POPC   C3A28133   4.347   1.993   7.950
 5337POPC   C4A28134   4.326   1.978   7.650
 5337POPC   C1B28135   4.319   1.742   8.550
 5337POPC   C2B28136   4.264   1.730   8.250
 5337POPC   C3B28137   4.294   1.704   7.950
 5337POPC   C4B28138   4.233   1.761   7.650
 5338POPC   NC328139  38.471  28.373   9.450
 5338POPC   PO428140  38.456  28.381   9.150
 5338POPC   GL128141  38.478  28.350   8.850
 5338POPC   GL228142  38.402  28.253   8.850
 5338POPC   C1A28143  38.451  28.385   8.550
 5338POPC   D2A28144  38.484  28.395   8.250
 5338POPC   C3A28145  38.416  28.381   7.950
 5338POPC   C4A28146  38.500  28.378   7.650
 5338POPC   C1B28147  38.279  28.201   8.550
 5338POPC   C2B28148  38.244  28.234   8.250
 5338POPC   C3B28149  38.299  28.229   7.950
 5338POPC   C4B28150  38.313  28.227   7.650
 5339POPC   NC328151  28.390  11.305   9.450
 5339POPC   PO428152  28.416  11.317   9.150
 5339POPC   GL128153  28.417  11.345   8.850
 5339POPC   GL228154  28.347  11.400   8.850
 5339POPC   C1A28155  28.390  11.258   8.550
 5339POPC   D2A28156  28.364  11.297   8.250
 5339POPC   C3A28157  28.353  11.284   7.950
 5339POPC   C4A28158  28.342  11.289   7.650
 5339POPC   C1B28159  28.195  11.475   8.550
 5339POPC   C2B28160  28.270  11.486   8.250
 5339POPC   C3B28161  28.270  11.496   7.950
 5339POPC   C4B28162  28.240  11.539   7.650
 5340POPC   NC328163  15.222   8.169   9.450
 5340POPC   PO428164  15.179   8.200   9.150
 5340POPC   GL128165  15.170   8.221   8.850
 5340POPC   GL228166  15.127   8.330   8.850
 5340POPC   C1A28167  15.143   8.198   8.550
 5340POPC   D2A28168  15.185   8.191   8.250
 5340POPC   C3A28169  15.215   8.203   7.950
 5340POPC   C4A28170  15.132   8.216   7.650
 5340POPC   C1B28171  15.072   8.400   8.550
 5340POPC   C2B28172  15.095   8.414   8.250
 5340POPC   C3B28173  15.135   8.486   7.950
 5340POPC   C4B28174  15.139   8.413   7.650
 5341POPC   NC328175   1.250   3.580   9.450
 5341POPC   PO428176   1.174   3.585   9.150
 5341POPC   GL128177   1.213   3.494   8.850
 5341POPC   GL228178   1.363   3.454   8.850
 5341POPC   C1A28179   1.210   3.568   8.550
 5341POPC   D2A28180   1.184   3.569   8.250
 5341POPC   C3A28181   1.249   3.528   7.950
 5341POPC   C4A28182   1.263   3.555   7.650
 5341POPC   C1B28183   1.485   3.430   8.550
 5341POPC   C2B28184   1.419   3.463   8.250
 5341POPC   C3B28185   1.457   3.410   7.950
 5341POPC   C4B28186   1.480   3.491   7.650
 5342POPC   NC328187  14.420  30.685   9.450
 5342POPC   PO428188  14.410  30.687   9.150
 5342POPC   GL128189  14.444  30.674   8.850
 5342POPC   GL228190  14.416  30.774   8.850
 5342POPC   C1A28191  14.403  30.685   8.550
 5342POPC   D2A28192  14.356  30.736   8.250
 5342POPC   C3A28193  14.362  30.708   7.950
 5342POPC   C4A28194  14.438  30.732   7.650
 5342POPC   C1B28195  14.486  30.893   8.550
 5342POPC   C2B28196  14.561  30.958   8.250
 5342POPC   C3B28197  14.561  30.946   7.950
 5342POPC   C4B28198  14.565  30.900   7.650
 5343POPC   NC328199  18.289   6.626   9.450
 5343POPC   PO428200  18.270   6.600   9.150
 5343POPC   GL128201  18.240   6.675   8.850
 5343POPC   GL228202  18.263   6.512   8.850
 5343POPC   C1A28203  18.299   6.619   8.550
 5343POPC   D2A28204  18.302   6.626   8.250
 5343POPC   C3A28205  18.246   6.692   7.950
 5343POPC   C4A28206  18.236   6.692   7.650
 5343POPC   C1B28207  18.223   6.386   8.550
 5343POPC   C2B28208  18.201   6.363   8.250
 5343POPC   C3B28209  18.262   6.391   7.950
 5343POPC   C4B28210  18.244   6.427   7.650
 5344POPC   NC328211  36.897  25.245   9.450
 5344POPC   PO428212  36.902  25.277   9.150
 5344POPC   GL128213  36.895  25.271   8.850
 5344POPC   GL228214  36.881  25.132   8.850
 5344POPC   C1A28215  36.857  25.239   8.550
 5344POPC   D2A28216  36.894  25.293   8.250
 5344POPC   C3A28217  36.865  25.312   7.950
 5344POPC   C4A28218  36.870  25.279   7.650
 5344POPC   C1B28219  36.921  25.024   8.550
 5344POPC   C2B28220  36.910  25.065   8.250
 5344POPC   C3B28221  36.982  25.024   7.950
 5344POPC   C4B28222  36.979  25.057   7.650
 5345POPC   NC328223   2.039  34.591   9.450
 5345POPC   PO428224   1.945  34.561   9.150
 5345POPC   GL128225   1.981  34.622   8.850
 5345POPC   GL228226   2.068  34.654   8.850
 5345POPC   C1A28227   1.946  34.564   8.550
 5345POPC   D2A28228   1.971  34.598   8.250
 5345POPC   C3A28229   1.981  34.574   7.950
 5345POPC   C4A28230   1.946  34.540   7.650
 5345POPC   C1B28231   2.164  34.735   8.550
 5345POPC   C2B28232   2.205  34.766   8.250
 5345POPC   C3B28233   2.204  34.796   7.950
 5345POPC   C4B28234   2.120  34.771   7.650
 5346POPC   NC328235  20.619  16.684   9.450
 5346POPC   PO428236  20.613  16.713   9.150
 5346POPC   GL128237  20.634  16.685   8.850
 5346POPC   GL228238  20.496  16.844   8.850
 5346POPC   C1A28239  20.658  16.745   8.550
 5346POPC   D2A28240  20.566  16.683   8.250
 5346POPC   C3A28241  20.618  16.758   7.950
 5346POPC   C4A28242  20.645  16.776   7.650
 5346POPC   C1B28243  20.427  16.870   8.550
 5346POPC   C2B28244  20.492  16.870   8.250
 5346POPC   C3B28245  20.446  16.924   7.950
 5346POPC   C4B28246  20.420  16.950   7.650
 5347POPC   NC328247   1.254  41.603   9.450
 5347POPC   PO428248   1.186  41.520   9.150
 5347POPC   GL128249   1.165  41.606   8.850
 5347POPC   GL228250   1.143  41.614   8.850
 5347POPC   C1A28251   1.230  41.577   8.550
 5347POPC   D2A28252   1.256  41.573   8.250
 5347POPC   C3A28253   1.261  41.595   7.950
 5347POPC   C4A28254   1.245  41.572   7.650
 5347POPC   C1B28255   1.057  41.765   8.550
 5347POPC   C2B28256   1.059  41.802   8.250
 5347POPC   C3B28257   1.031  41.721   7.950
 5347POPC   C4B28258   1.099  41.766   7.650
 5348POPC   NC328259   5.890  24.498   9.450
 5348POPC   PO428260   5.880  24.491   9.150
 5348POPC   GL128261   5.898  24.509   8.850
 5348POPC   GL228262   5.961  24.344   8.850
 5348POPC   C1A28263   5.884  24.493   8.550
 5348POPC   D2A28264   5.895  24.458   8.250
 5348POPC   C3A28265   5.891  24.482   7.950
 5348POPC   C4A28266   5.820  24.490   7.650
 5348POPC   C1B28267   5.956  24.306   8.550
 5348POPC   C2B28268   6.030  24.293   8.250
 5348POPC   C3B28269   6.042  24.255   7.950
 5348POPC   C4B28270   6.003  24.316   7.650
 5349POPC   NC328271  29.959  40.796   9.450
 5349POPC   PO428272  29.935  40.802   9.150
 5349POPC   GL128273  29.933  40.817   8.850
 5349POPC   GL228274  29.982  40.624   8.850
 5349POPC   C1A28275  29.878  40.770   8.550
 5349POPC   D2A28276  29.896  40.767   8.250
 5349POPC   C3A28277  29.891  40.820   7.950
 5349POPC   C4A28278  29.927  40.765   7.650
 5349POPC   C1B28279  29.948  40.546   8.550
 5349POPC   C2B28280  29.929  40.513   8.250
 5349POPC   C3B28281  29.998  40.493   7.950
 5349POPC   C4B28282  29.930  40.522   7.650
 5350POPC   NC328283  39.258  40.040   9.450
 5350POPC   PO428284  39.189  39.978   9.150
 5350POPC   GL128285  39.210  39.984   8.850
 5350POPC   GL228286  39.133  40.119   8.850
 5350POPC   C1A28287  39.215  39.979   8.550
 5350POPC   D2A28288  39.211  39.965   8.250
 5350POPC   C3A28289  39.210  40.018   7.950
 5350POPC   C4A28290  39.228  40.049   7.650
 5350POPC   C1B28291  39.010  40.145   8.550
 5350POPC   C2B28292  38.994  40.205   8.250
 5350POPC   C3B28293  38.994  40.128   7.950
 5350POPC   C4B28294  39.035  40.143   7.650
 5351POPC   NC328295  23.707   8.959   9.450
 5351POPC   PO428296  23.729   9.014   9.150
 5351POPC   GL128297  23.694   8.934   8.850
 5351POPC   GL228298  23.763   9.077   8.850
 5351POPC   C1A28299  23.699   9.007   8.550
 5351POPC   D2A28300  23.718   8.945   8.250
 5351POPC   C3A28301  23.742   9.014   7.950
 5351POPC   C4A28302  23.750   8.998   7.650
 5351POPC   C1B28303  23.854   9.150   8.550
 5351POPC   C2B28304  23.840   9.223   8.250
 5351POPC   C3B28305  23.787   9.202   7.950
 5351POPC   C4B28306  23.868   9.193   7.650
 5352POPC   NC328307   4.272  38.438   9.450
 5352POPC   PO428308   4.327  38.442   9.150
 5352POPC   GL128309   4.303  38.479   8.850
 5352POPC   GL228310   4.277  38.384   8.850
 5352POPC   C1A28311   4.318  38.451   8.550
 5352POPC   D2A28312   4.278  38.440   8.250
 5352POPC   C3A28313   4.276  38.433   7.950
 5352POPC   C4A28314   4.357  38.465   7.650
 5352POPC   C1B28315   4.143  38.298   8.550
 5352POPC   C2B28316   4.149  38.235   8.250
 5352POPC   C3B28317   4.121  38.324   7.950
 5352POPC   C4B28318   4.159  38.307   7.650
 5353POPC   NC328319  12.028  22.899   9.450
 5353POPC   PO428320  12.098  22.915   9.150
 5353POPC   GL128321  12.057  22.914   8.850
 5353POPC   GL228322  12.244  22.945   8.850
 5353POPC   C1A28323  12.096  22.939   8.550
 5353POPC   D2A28324  12.026  22.890   8.250
 5353POPC   C3A28325  12.071  22.970   7.950
 5353POPC   C4A28326  12.085  22.928   7.650
 5353POPC   C1B28327  12.291  23.023   8.550
 5353POPC   C2B28328  12.312  22.998   8.250
 5353POPC   C3B28329  12.319  23.012   7.950
 5353POPC   C4B28330  12.361  23.017   7.650
 5354POPC   NC328331  23.727   7.377   9.450
 5354POPC   PO428332  23.762   7.423   9.150
 5354POPC   GL128333  23.741   7.469   8.850
 5354POPC   GL228334  23.772   7.312   8.850
 5354POPC   C1A28335  23.672   7.415   8.550
 5354POPC   D2A28336  23.757   7.403   8.250
 5354POPC   C3A28337  23.734   7.372   7.950
 5354POPC   C4A28338  23.740   7.446   7.650
 5354POPC   C1B28339  23.846   7.221   8.550
 5354POPC   C2B28340  23.795   7.213   8.250
 5354POPC   C3B28341  23.865   7.225   7.950
 5354POPC   C4B28342  23.832   7.220   7.650
 5355POPC   NC328343  25.274  42.362   9.450
 5355POPC   PO428344  25.285  42.295   9.150
 5355POPC   GL128345  25.280  42.383   8.850
 5355POPC   GL228346  25.304  42.475   8.850
 5355POPC   C1A28347  25.290  42.288   8.550
 5355POPC   D2A28348  25.303  42.363   8.250
 5355POPC   C3A28349  25.267  42.302   7.950
 5355POPC   C4A28350  25.262  42.340   7.650
 5355POPC   C1B28351  25.457  42.538   8.550
 5355POPC   C2B28352  25.438  42.475   8.250
 5355POPC   C3B28353  25.418  42.538   7.950
 5355POPC   C4B28354  25.429  42.481   7.650
 5356POPC   NC328355  33.845  12.053   9.450
 5356POPC   PO428356  33.834  12.083   9.150
 5356POPC   GL128357  33.825  12.092   8.850
 5356POPC   GL228358  33.940  12.166   8.850
 5356POPC   C1A28359  33.831  12.032   8.550
 5356POPC   D2A28360  33.810  12.081   8.250
 5356POPC   C3A28361  33.850  12.061   7.950
 5356POPC   C4A28362  33.802  12.083   7.650
 5356POPC   C1B28363  34.024  12.196   8.550
 5356POPC   C2B28364  34.011  12.255   8.250
 5356POPC   C3B28365  33.992  12.242   7.950
 5356POPC   C4B28366  34.028  12.193   7.650
 5357POPC   NC328367  29.136  40.748   9.450
 5357POPC   PO428368  29.124  40.779   9.150
 5357POPC   GL128369  29.107  40.819   8.850
 5357POPC   GL228370  29.224  40.826   8.850
 5357POPC   C1A28371  29.136  40.808   8.550
 5357POPC   D2A28372  29.154  40.748   8.250
 5357POPC   C3A28373  29.185  40.793   7.950
 5357POPC   C4A28374  29.099  40.790   7.650
 5357POPC   C1B28375  29.356  40.887   8.550
 5357POPC   C2B28376  29.427  40.808   8.250
 5357POPC   C3B28377  29.414  40.852   7.950
 5357POPC   C4B28378  29.357  40.821   7.650
 5358POPC   NC328379  22.967  26.820   9.450
 5358POPC   PO428380  22.975  26.841   9.150
 5358POPC   GL128381  22.978  26.830   8.850
 5358POPC   GL228382  23.055  26.715   8.850
 5358POPC   C1A28383  22.901  26.777   8.550
 5358POPC   D2A28384  22.939  26.803   8.250
 5358POPC   C3A28385  22.921  26.807   7.950
 5358POPC   C4A28386  22.940  26.791   7.650
 5358POPC   C1B28387  23.110  26.598   8.550
 5358POPC   C2B28388  23.152  26.657   8.250
 5358POPC   C3B28389  23.112  26.646   7.950
 5358POPC   C4B28390  23.132  26.615   7.650
 5359POPC   NC328391   7.457   8.924   9.450
 5359POPC   PO428392   7.449   8.990   9.150
 5359POPC   GL128393   7.385   9.014   8.850
 5359POPC   GL228394   7.420   8.844   8.850
 5359POPC   C1A28395   7.407   9.001   8.550
 5359POPC   D2A28396   7.381   8.971   8.250
 5359POPC   C3A28397   7.457   8.949   7.950
 5359POPC   C4A28398   7.396   8.965   7.650
 5359POPC   C1B28399   7.477   8.720   8.550
 5359POPC   C2B28400   7.460   8.690   8.250
 5359POPC   C3B28401   7.494   8.721   7.950
 5359POPC   C4B28402   7.498   8.689   7.650
 5360POPC   NC328403  25.283   2.024   9.450
 5360POPC   PO428404  25.241   2.011   9.150
 5360POPC   GL128405  25.282   1.959   8.850
 5360POPC   GL228406  25.338   1.849   8.850
 5360POPC   C1A28407  25.264   1.971   8.550
 5360POPC   D2A28408  25.309   1.947   8.250
 5360POPC   C3A28409  25.314   1.999   7.950
 5360POPC   C4A28410  25.273   2.018   7.650
 5360POPC   C1B28411  25.374   1.755   8.550
 5360POPC   C2B28412  25.355   1.794   8.250
 5360POPC   C3B28413  25.324   1.764   7.950
 5360POPC   C4B28414  25.346   1.774   7.650
 5361POPC   NC328415  16.773  26.851   9.450
 5361POPC   PO428416  16.765  26.830   9.150
 5361POPC   GL128417  16.767  26.795   8.850
 5361POPC   GL228418  16.868  26.786   8.850
 5361POPC   C1A28419  16.743  26.823   8.550
 5361POPC   D2A28420  16.771  26.857   8.250
 5361POPC   C3A28421  16.689  26.845   7.950
 5361POPC   C4A28422  16.717  26.791   7.650
 5361POPC   C1B28423  16.968  26.760   8.550
 5361POPC   C2B28424  17.009  26.808   8.250
 5361POPC   C3B28425  17.018  26.750   7.950
 5361POPC   C4B28426  16.972  26.715   7.650
 5362POPC   NC328427   2.003  41.602   9.450
 5362POPC   PO428428   1.953  41.538   9.150
 5362POPC   GL128429   1.958  41.596   8.850
 5362POPC   GL228430   2.010  41.669   8.850
 5362POPC   C1A28431   2.017  41.600   8.550
 5362POPC   D2A28432   1.953  41.591   8.250
 5362POPC   C3A28433   2.032  41.604   7.950
 5362POPC   C4A28434   1.941  41.539   7.650
 5362POPC   C1B28435   2.049  41.781   8.550
 5362POPC   C2B28436   2.032  41.851   8.250
 5362POPC   C3B28437   2.016  41.777   7.950
 5362POPC   C4B28438   2.014  41.804   7.650
 5363POPC   NC328439  43.073  15.138   9.450
 5363POPC   PO428440  43.122  15.147   9.150
 5363POPC   GL128441  43.099  15.181   8.850
 5363POPC   GL228442  43.045  15.248   8.850
 5363POPC   C1A28443  43.112  15.222   8.550
 5363POPC   D2A28444  43.099  15.196   8.250
 5363POPC   C3A28445  43.116  15.131   7.950
 5363POPC   C4A28446  43.093  15.226   7.650
 5363POPC   C1B28447  42.906  15.281   8.550
 5363POPC   C2B28448  42.953  15.276   8.250
 5363POPC   C3B28449  42.860  15.328   7.950
 5363POPC   C4B28450  42.949  15.354   7.650
 5364POPC   NC328451   3.570   9.712   9.450
 5364POPC   PO428452   3.552   9.779   9.150
 5364POPC   GL128453   3.578   9.751   8.850
 5364POPC   GL228454   3.675   9.796   8.850
 5364POPC   C1A28455   3.547   9.739   8.550
 5364POPC   D2A28456   3.532   9.718   8.250
 5364POPC   C3A28457   3.579   9.754   7.950
 5364POPC   C4A28458   3.516   9.788   7.650
 5364POPC   C1B28459   3.727   9.895   8.550
 5364POPC   C2B28460   3.783   9.892   8.250
 5364POPC   C3B28461   3.710   9.905   7.950
 5364POPC   C4B28462   3.731   9.900   7.650
 5365POPC   NC328463  29.949  22.138   9.450
 5365POPC   PO428464  29.924  22.123   9.150
 5365POPC   GL128465  29.904  22.185   8.850
 5365POPC   GL228466  29.809  22.200   8.850
 5365POPC   C1A28467  29.966  22.156   8.550
 5365POPC   D2A28468  29.895  22.145   8.250
 5365POPC   C3A28469  29.952  22.157   7.950
 5365POPC   C4A28470  29.932  22.147   7.650
 5365POPC   C1B28471  29.720  22.163   8.550
 5365POPC   C2B28472  29.674  22.142   8.250
 5365POPC   C3B28473  29.654  22.135   7.950
 5365POPC   C4B28474  29.709  22.196   7.650
 5366POPC   NC328475   2.003  40.055   9.450
 5366POPC   PO428476   1.995  39.994   9.150
 5366POPC   GL128477   2.008  39.990   8.850
 5366POPC   GL228478   1.985  40.117   8.850
 5366POPC   C1A28479   2.010  39.970   8.550
 5366POPC   D2A28480   1.975  40.019   8.250
 5366POPC   C3A28481   1.948  39.969   7.950
 5366POPC   C4A28482   1.960  40.050   7.650
 5366POPC   C1B28483   2.006  40.301   8.550
 5366POPC   C2B28484   1.959  40.217   8.250
 5366POPC   C3B28485   2.018  40.305   7.950
 5366POPC   C4B28486   2.005  40.248   7.650
 5367POPC   NC328487   8.185  23.664   9.450
 5367POPC   PO428488   8.163  23.688   9.150
 5367POPC   GL128489   8.243  23.761   8.850
 5367POPC   GL228490   8.076  23.641   8.850
 5367POPC   C1A28491   8.246  23.682   8.550
 5367POPC   D2A28492   8.165  23.747   8.250
 5367POPC   C3A28493   8.177  23.673   7.950
 5367POPC   C4A28494   8.197  23.689   7.650
 5367POPC   C1B28495   8.046  23.536   8.550
 5367POPC   C2B28496   8.047  23.470   8.250
 5367POPC   C3B28497   8.009  23.482   7.950
 5367POPC   C4B28498   8.045  23.513   7.650
 5368POPC   NC328499  38.426  25.245   9.450
 5368POPC   PO428500  38.431  25.256   9.150
 5368POPC   GL128501  38.483  25.311   8.850
 5368POPC   GL228502  38.582  25.332   8.850
 5368POPC   C1A28503  38.499  25.222   8.550
 5368POPC   D2A28504  38.481  25.304   8.250
 5368POPC   C3A28505  38.470  25.232   7.950
 5368POPC   C4A28506  38.431  25.315   7.650
 5368POPC   C1B28507  38.632  25.403   8.550
 5368POPC   C2B28508  38.697  25.383   8.250
 5368POPC   C3B28509  38.635  25.376   7.950
 5368POPC   C4B28510  38.629  25.440   7.650
 5369POPC   NC328511   3.566  19.858   9.450
 5369POPC   PO428512   3.541  19.789   9.150
 5369POPC   GL128513   3.562  19.829   8.850
 5369POPC   GL228514   3.670  19.823   8.850
 5369POPC   C1A28515   3.494  19.862   8.550
 5369POPC   D2A28516   3.550  19.792   8.250
 5369POPC   C3A28517   3.565  19.851   7.950
 5369POPC   C4A28518   3.510  19.810   7.650
 5369POPC   C1B28519   3.819  19.893   8.550
 5369POPC   C2B28520   3.815  19.902   8.250
 5369POPC   C3B28521   3.756  19.894   7.950
 5369POPC   C4B28522   3.784  19.850   7.650
 5370POPC   NC328523  40.768  31.503   9.450
 5370POPC   PO428524  40.830  31.445   9.150
 5370POPC   GL128525  40.757  31.506   8.850
 5370POPC   GL228526  40.876  31.460   8.850
 5370POPC   C1A28527  40.827  31.459   8.550
 5370POPC   D2A28528  40.825  31.479   8.250
 5370POPC   C3A28529  40.800  31.468   7.950
 5370POPC   C4A28530  40.775  31.441   7.650
 5370POPC   C1B28531  41.019  31.400   8.550
 5370POPC   C2B28532  40.977  31.315   8.250
 5370POPC   C3B28533  41.030  31.370   7.950
 5370POPC   C4B28534  40.970  31.373   7.650
 5371POPC   NC328535   8.225   0.443   9.450
 5371POPC   PO428536   8.237   0.439   9.150
 5371POPC   GL128537   8.148   0.417   8.850
 5371POPC   GL228538   8.128   0.532   8.850
 5371POPC   C1A28539   8.156   0.425   8.550
 5371POPC   D2A28540   8.226   0.430   8.250
 5371POPC   C3A28541   8.227   0.388   7.950
 5371POPC   C4A28542   8.173   0.424   7.650
 5371POPC   C1B28543   8.040   0.643   8.550
 5371POPC   C2B28544   8.014   0.637   8.250
 5371POPC   C3B28545   8.050   0.578   7.950
 5371POPC   C4B28546   8.022   0.599   7.650
 5372POPC   NC328547  15.216   1.248   9.450
 5372POPC   PO428548  15.179   1.233   9.150
 5372POPC   GL128549  15.145   1.256   8.850
 5372POPC   GL228550  15.187   1.104   8.850
 5372POPC   C1A28551  15.187   1.186   8.550
 5372POPC   D2A28552  15.178   1.206   8.250
 5372POPC   C3A28553  15.162   1.172   7.950
 5372POPC   C4A28554  15.177   1.250   7.650
 5372POPC   C1B28555  15.153   0.966   8.550
 5372POPC   C2B28556  15.177   0.929   8.250
 5372POPC   C3B28557  15.119   0.922   7.950
 5372POPC   C4B28558  15.146   0.999   7.650
 5373POPC   NC328559  14.403  29.139   9.450
 5373POPC   PO428560  14.393  29.164   9.150
 5373POPC   GL128561  14.443  29.179   8.850
 5373POPC   GL228562  14.493  29.276   8.850
 5373POPC   C1A28563  14.382  29.153   8.550
 5373POPC   D2A28564  14.417  29.184   8.250
 5373POPC   C3A28565  14.438  29.134   7.950
 5373POPC   C4A28566  14.419  29.151   7.650
 5373POPC   C1B28567  14.567  29.311   8.550
 5373POPC   C2B28568  14.612  29.321   8.250
 5373POPC   C3B28569  14.619  29.336   7.950
 5373POPC   C4B28570  14.619  29.334   7.650
 5374POPC   NC328571  14.396  13.613   9.450
 5374POPC   PO428572  14.383  13.602   9.150
 5374POPC   GL128573  14.362  13.586   8.850
 5374POPC   GL228574  14.405  13.550   8.850
 5374POPC   C1A28575  14.432  13.608   8.550
 5374POPC   D2A28576  14.411  13.605   8.250
 5374POPC   C3A28577  14.446  13.595   7.950
 5374POPC   C4A28578  14.381  13.645   7.650
 5374POPC   C1B28579  14.405  13.368   8.550
 5374POPC   C2B28580  14.411  13.428   8.250
 5374POPC   C3B28581  14.358  13.333   7.950
 5374POPC   C4B28582  14.360  13.404   7.650
 5375POPC   NC328583  12.081   9.016   9.450
 5375POPC   PO428584  12.095   9.021   9.150
 5375POPC   GL128585  12.076   8.979   8.850
 5375POPC   GL228586  12.031   8.802   8.850
 5375POPC   C1A28587  12.063   8.933   8.550
 5375POPC   D2A28588  12.029   9.002   8.250
 5375POPC   C3A28589  12.027   8.953   7.950
 5375POPC   C4A28590  12.107   8.979   7.650
 5375POPC   C1B28591  12.028   8.742   8.550
 5375POPC   C2B28592  12.046   8.752   8.250
 5375POPC   C3B28593  12.038   8.775   7.950
 5375POPC   C4B28594  12.061   8.703   7.650
 5376POPC   NC328595  32.226  14.435   9.450
 5376POPC   PO428596  32.290  14.354   9.150
 5376POPC   GL128597  32.224  14.363   8.850
 5376POPC   GL228598  32.245  14.250   8.850
 5376POPC   C1A28599  32.267  14.365   8.550
 5376POPC   D2A28600  32.205  14.420   8.250
 5376POPC   C3A28601  32.260  14.450   7.950
 5376POPC   C4A28602  32.276  14.426   7.650
 5376POPC   C1B28603  32.138  14.210   8.550
 5376POPC   C2B28604  32.154  14.196   8.250
 5376POPC   C3B28605  32.126  14.179   7.950
 5376POPC   C4B28606  32.194  14.129   7.650
 5377POPC   NC328607  36.911  22.192   9.450
 5377POPC   PO428608  36.894  22.209   9.150
 5377POPC   GL128609  36.942  22.186   8.850
 5377POPC   GL228610  36.808  22.191   8.850
 5377POPC   C1A28611  36.871  22.129   8.550
 5377POPC   D2A28612  36.931  22.149   8.250
 5377POPC   C3A28613  36.937  22.126   7.950
 5377POPC   C4A28614  36.884  22.146   7.650
 5377POPC   C1B28615  36.624  22.241   8.550
 5377POPC   C2B28616  36.633  22.200   8.250
 5377POPC   C3B28617  36.622  22.186   7.950
 5377POPC   C4B28618  36.626  22.215   7.650
 5378POPC   NC328619  12.051  16.766   9.450
 5378POPC   PO428620  12.046  16.689   9.150
 5378POPC   GL128621  12.076  16.740   8.850
 5378POPC   GL228622  12.132  16.861   8.850
 5378POPC   C1A28623  12.081  16.689   8.550
 5378POPC   D2A28624  12.037  16.709   8.250
 5378POPC   C3A28625  12.062  16.777   7.950
 5378POPC   C4A28626  12.099  16.711   7.650
 5378POPC   C1B28627  12.249  16.873   8.550
 5378POPC   C2B28628  12.224  16.948   8.250
 5378POPC   C3B28629  12.220  16.872   7.950
 5378POPC   C4B28630  12.211  16.892   7.650
 5379POPC   NC328631  43.097   9.739   9.450
 5379POPC   PO428632  43.158   9.729   9.150
 5379POPC   GL128633  43.142   9.749   8.850
 5379POPC   GL228634  43.008   9.891   8.850
 5379POPC   C1A28635  43.149   9.704   8.550
 5379POPC   D2A28636  43.066   9.779   8.250
 5379POPC   C3A28637  43.094   9.791   7.950
 5379POPC   C4A28638  43.081   9.717   7.650
 5379POPC   C1B28639  42.908   9.939   8.550
 5379POPC   C2B28640  42.951   9.992   8.250
 5379POPC   C3B28641  42.983   9.978   7.950
 5379POPC   C4B28642  42.993   9.971   7.650
 5380POPC   NC328643  40.783  37.638   9.450
 5380POPC   PO428644  40.757  37.663   9.150
 5380POPC   GL128645  40.762  37.700   8.850
 5380POPC   GL228646  40.716  37.622   8.850
 5380POPC   C1A28647  40.772  37.685   8.550
 5380POPC   D2A28648  40.748  37.702   8.250
 5380POPC   C3A28649  40.813  37.661   7.950
 5380POPC   C4A28650  40.818  37.670   7.650
 5380POPC   C1B28651  40.600  37.503   8.550
 5380POPC   C2B28652  40.624  37.433   8.250
 5380POPC   C3B28653  40.650  37.530   7.950
 5380POPC   C4B28654  40.588  37.434   7.650
 5381POPC   NC328655  13.611  40.736   9.450
 5381POPC   PO428656  13.648  40.760   9.150
 5381POPC   GL128657  13.631  40.739   8.850
 5381POPC   GL228658  13.532  40.700   8.850
 5381POPC   C1A28659  13.603  40.806   8.550
 5381POPC   D2A28660  13.599  40.799   8.250
 5381POPC   C3A28661  13.599  40.800   7.950
 5381POPC   C4A28662  13.585  40.768   7.650
 5381POPC   C1B28663  13.392  40.643   8.550
 5381POPC   C2B28664  13.357  40.683   8.250
 5381POPC   C3B28665  13.420  40.639   7.950
 5381POPC   C4B28666  13.364  40.663   7.650
 5382POPC   NC328667   1.979  15.995   9.450
 5382POPC   PO428668   1.981  15.964   9.150
 5382POPC   GL128669   2.013  15.951   8.850
 5382POPC   GL228670   1.964  15.842   8.850
 5382POPC   C1A28671   2.002  15.988   8.550
 5382POPC   D2A28672   2.029  15.994   8.250
 5382POPC   C3A28673   2.034  15.984   7.950
 5382POPC   C4A28674   2.014  15.944   7.650
 5382POPC   C1B28675   1.954  15.717   8.550
 5382POPC   C2B28676   1.989  15.720   8.250
 5382POPC   C3B28677   1.996  15.681   7.950
 5382POPC   C4B28678   1.910  15.724   7.650
 5383POPC   NC328679   5.084  11.254   9.450
 5383POPC   PO428680   5.065  11.293   9.150
 5383POPC   GL128681   5.049  11.273   8.850
 5383POPC   GL228682   5.009  11.213   8.850
 5383POPC   C1A28683   5.122  11.272   8.550
 5383POPC   D2A28684   5.044  11.340   8.250
 5383POPC   C3A28685   5.053  11.277   7.950
 5383POPC   C4A28686   5.076  11.254   7.650
 5383POPC   C1B28687   4.902  11.123   8.550
 5383POPC   C2B28688   4.898  11.131   8.250
 5383POPC   C3B28689   4.937  11.114   7.950
 5383POPC   C4B28690   4.920  11.087   7.650
 5384POPC   NC328691  13.628  31.449   9.450
 5384POPC   PO428692  13.616  31.501   9.150
 5384POPC   GL128693  13.661  31.514   8.850
 5384POPC   GL228694  13.482  31.393   8.850
 5384POPC   C1A28695  13.601  31.492   8.550
 5384POPC   D2A28696  13.608  31.494   8.250
 5384POPC   C3A28697  13.656  31.506   7.950
 5384POPC   C4A28698  13.637  31.477   7.650
 5384POPC   C1B28699  13.381  31.363   8.550
 5384POPC   C2B28700  13.425  31.347   8.250
 5384POPC   C3B28701  13.435  31.323   7.950
 5384POPC   C4B28702  13.361  31.387   7.650
 5385POPC   NC328703   2.720  31.460   9.450
 5385POPC   PO428704   2.793  31.504   9.150
 5385POPC   GL128705   2.802  31.455   8.850
 5385POPC   GL228706   2.698  31.351   8.850
 5385POPC   C1A28707   2.759  31.511   8.550
 5385POPC   D2A28708   2.782  31.423   8.250
 5385POPC   C3A28709   2.770  31.484   7.950
 5385POPC   C4A28710   2.721  31.433   7.650
 5385POPC   C1B28711   2.577  31.298   8.550
 5385POPC   C2B28712   2.562  31.251   8.250
 5385POPC   C3B28713   2.649  31.256   7.950
 5385POPC   C4B28714   2.622  31.291   7.650
 5386POPC   NC328715  44.661  37.705   9.450
 5386POPC   PO428716  44.663  37.672   9.150
 5386POPC   GL128717  44.652  37.666   8.850
 5386POPC   GL228718  44.757  37.621   8.850
 5386POPC   C1A28719  44.673  37.650   8.550
 5386POPC   D2A28720  44.671  37.710   8.250
 5386POPC   C3A28721  44.667  37.681   7.950
 5386POPC   C4A28722  44.685  37.717   7.650
 5386POPC   C1B28723  44.775  37.458   8.550
 5386POPC   C2B28724  44.804  37.462   8.250
 5386POPC   C3B28725  44.789  37.467   7.950
 5386POPC   C4B28726  44.819  37.516   7.650
 5387POPC   NC328727  32.290  13.594   9.450
 5387POPC   PO428728  32.249  13.597   9.150
 5387POPC   GL128729  32.253  13.614   8.850
 5387POPC   GL228730  32.241  13.702   8.850
 5387POPC   C1A28731  32.282  13.676   8.550
 5387POPC   D2A28732  32.282  13.671   8.250
 5387POPC   C3A28733  32.263  13.601   7.950
 5387POPC   C4A28734  32.217  13.580   7.650
 5387POPC   C1B28735  32.181  13.820   8.550
 5387POPC   C2B28736  32.209  13.829   8.250
 5387POPC   C3B28737  32.136  13.904   7.950
 5387POPC   C4B28738  32.146  13.817   7.650
 5388POPC   NC328739   1.165  35.371   9.450
 5388POPC   PO428740   1.255  35.373   9.150
 5388POPC   GL128741   1.183  35.331   8.850
 5388POPC   GL228742   1.220  35.249   8.850
 5388POPC   C1A28743   1.210  35.361   8.550
 5388POPC   D2A28744   1.191  35.346   8.250
 5388POPC   C3A28745   1.251  35.309   7.950
 5388POPC   C4A28746   1.220  35.304   7.650
 5388POPC   C1B28747   1.188  35.074   8.550
 5388POPC   C2B28748   1.284  35.131   8.250
 5388POPC   C3B28749   1.255  35.079   7.950
 5388POPC   C4B28750   1.223  35.151   7.650
 5389POPC   NC328751   3.537  22.987   9.450
 5389POPC   PO428752   3.530  22.939   9.150
 5389POPC   GL128753   3.493  22.902   8.850
 5389POPC   GL228754   3.554  22.843   8.850
 5389POPC   C1A28755   3.567  22.978   8.550
 5389POPC   D2A28756   3.565  22.968   8.250
 5389POPC   C3A28757   3.520  22.955   7.950
 5389POPC   C4A28758   3.561  22.970   7.650
 5389POPC   C1B28759   3.603  22.713   8.550
 5389POPC   C2B28760   3.629  22.655   8.250
 5389POPC   C3B28761   3.579  22.676   7.950
 5389POPC   C4B28762   3.619  22.696   7.650
 5390POPC   NC328763   5.058   0.440   9.450
 5390POPC   PO428764   5.073   0.478   9.150
 5390POPC   GL128765   5.126   0.400   8.850
 5390POPC   GL228766   5.035   0.283   8.850
 5390POPC   C1A28767   5.079   0.437   8.550
 5390POPC   D2A28768   5.076   0.425   8.250
 5390POPC   C3A28769   5.056   0.394   7.950
 5390POPC   C4A28770   5.079   0.395   7.650
 5390POPC   C1B28771   5.029   0.223   8.550
 5390POPC   C2B28772   5.023   0.247   8.250
 5390POPC   C3B28773   4.960   0.191   7.950
 5390POPC   C4B28774   4.970   0.164   7.650
 5391POPC   NC328775  10.546  39.961   9.450
 5391POPC   PO428776  10.524  39.993   9.150
 5391POPC   GL128777  10.525  40.026   8.850
 5391POPC   GL228778  10.401  40.076   8.850
 5391POPC   C1A28779  10.489  39.974   8.550
 5391POPC   D2A28780  10.523  39.961   8.250
 5391POPC   C3A28781  10.506  39.984   7.950
 5391POPC   C4A28782  10.502  40.004   7.650
 5391POPC   C1B28783  10.336  40.205   8.550
 5391POPC   C2B28784  10.395  40.230   8.250
 5391POPC   C3B28785  10.369  40.155   7.950
 5391POPC   C4B28786  10.366  40.197   7.650
 5392POPC   NC328787  36.082  21.357   9.450
 5392POPC   PO428788  36.116  21.403   9.150
 5392POPC   GL128789  36.115  21.418   8.850
 5392POPC   GL228790  36.135  21.301   8.850
 5392POPC   C1A28791  36.127  21.423   8.550
 5392POPC   D2A28792  36.154  21.388   8.250
 5392POPC   C3A28793  36.121  21.351   7.950
 5392POPC   C4A28794  36.122  21.396   7.650
 5392POPC   C1B28795  36.092  21.166   8.550
 5392POPC   C2B28796  36.117  21.097   8.250
 5392POPC   C3B28797  36.132  21.148   7.950
 5392POPC   C4B28798  36.135  21.138   7.650
 5393POPC   NC328799   8.240  42.353   9.450
 5393POPC   PO428800   8.171  42.363   9.150
 5393POPC   GL128801   8.229  42.296   8.850
 5393POPC   GL228802   8.085  42.396   8.850
 5393POPC   C1A28803   8.169  42.343   8.550
 5393POPC   D2A28804   8.147  42.377   8.250
 5393POPC   C3A28805   8.236  42.341   7.950
 5393POPC   C4A28806   8.222  42.295   7.650
 5393POPC   C1B28807   8.033  42.539   8.550
 5393POPC   C2B28808   8.026  42.509   8.250
 5393POPC   C3B28809   8.018  42.565   7.950
 5393POPC   C4B28810   8.013  42.552   7.650
 5394POPC   NC328811  15.157  31.491   9.450
 5394POPC   PO428812  15.191  31.430   9.150
 5394POPC   GL128813  15.228  31.445   8.850
 5394POPC   GL228814  15.252  31.524   8.850
 5394POPC   C1A28815  15.203  31.469   8.550
 5394POPC   D2A28816  15.147  31.488   8.250
 5394POPC   C3A28817  15.184  31.490   7.950
 5394POPC   C4A28818  15.175  31.437   7.650
 5394POPC   C1B28819  15.397  31.520   8.550
 5394POPC   C2B28820  15.452  31.593   8.250
 5394POPC   C3B28821  15.395  31.540   7.950
 5394POPC   C4B28822  15.383  31.516   7.650
 5395POPC   NC328823  20.614   1.962   9.450
 5395POPC   PO428824  20.601   1.989   9.150
 5395POPC   GL128825  20.589   2.005   8.850
 5395POPC   GL228826  20.659   1.906   8.850
 5395POPC   C1A28827  20.608   1.945   8.550
 5395POPC   D2A28828  20.590   2.000   8.250
 5395POPC   C3A28829  20.625   2.004   7.950
 5395POPC   C4A28830  20.595   2.012   7.650
 5395POPC   C1B28831  20.757   1.769   8.550
 5395POPC   C2B28832  20.802   1.829   8.250
 5395POPC   C3B28833  20.737   1.773   7.950
 5395POPC   C4B28834  20.779   1.831   7.650
 5396POPC   NC328835  28.407  29.170   9.450
 5396POPC   PO428836  28.406  29.138   9.150
 5396POPC   GL128837  28.327  29.129   8.850
 5396POPC   GL228838  28.287  29.070   8.850
 5396POPC   C1A28839  28.406  29.148   8.550
 5396POPC   D2A28840  28.390  29.122   8.250
 5396POPC   C3A28841  28.337  29.190   7.950
 5396POPC   C4A28842  28.345  29.187   7.650
 5396POPC   C1B28843  28.131  29.078   8.550
 5396POPC   C2B28844  28.087  29.123   8.250
 5396POPC   C3B28845  28.131  29.132   7.950
 5396POPC   C4B28846  28.080  29.129   7.650
 5397POPC   NC328847  40.802  34.564   9.450
 5397POPC   PO428848  40.752  34.557   9.150
 5397POPC   GL128849  40.785  34.590   8.850
 5397POPC   GL228850  40.813  34.484   8.850
 5397POPC   C1A28851  40.789  34.574   8.550
 5397POPC   D2A28852  40.801  34.616   8.250
 5397POPC   C3A28853  40.799  34.608   7.950
 5397POPC   C4A28854  40.825  34.616   7.650
 5397POPC   C1B28855  40.985  34.426   8.550
 5397POPC   C2B28856  40.954  34.360   8.250
 5397POPC   C3B28857  40.979  34.342   7.950
 5397POPC   C4B28858  40.916  34.417   7.650
 5398POPC   NC328859  14.368  33.009   9.450
 5398POPC   PO428860  14.417  33.039   9.150
 5398POPC   GL128861  14.382  33.043   8.850
 5398POPC   GL228862  14.337  33.063   8.850
 5398POPC   C1A28863  14.366  33.045   8.550
 5398POPC   D2A28864  14.416  32.991   8.250
 5398POPC   C3A28865  14.407  33.019   7.950
 5398POPC   C4A28866  14.443  33.050   7.650
 5398POPC   C1B28867  14.238  33.136   8.550
 5398POPC   C2B28868  14.179  33.197   8.250
 5398POPC   C3B28869  14.194  33.199   7.950
 5398POPC   C4B28870  14.246  33.172   7.650
 5399POPC   NC328871  31.456  12.856   9.450
 5399POPC   PO428872  31.500  12.808   9.150
 5399POPC   GL128873  31.458  12.875   8.850
 5399POPC   GL228874  31.394  12.696   8.850
 5399POPC   C1A28875  31.522  12.835   8.550
 5399POPC   D2A28876  31.466  12.834   8.250
 5399POPC   C3A28877  31.427  12.902   7.950
 5399POPC   C4A28878  31.483  12.880   7.650
 5399POPC   C1B28879  31.371  12.672   8.550
 5399POPC   C2B28880  31.352  12.583   8.250
 5399POPC   C3B28881  31.395  12.586   7.950
 5399POPC   C4B28882  31.339  12.617   7.650
 5400POPC   NC328883  22.988  24.496   9.450
 5400POPC   PO428884  22.901  24.508   9.150
 5400POPC   GL128885  22.923  24.468   8.850
 5400POPC   GL228886  22.840  24.407   8.850
 5400POPC   C1A28887  22.940  24.488   8.550
 5400POPC   D2A28888  22.959  24.474   8.250
 5400POPC   C3A28889  22.916  24.498   7.950
 5400POPC   C4A28890  22.973  24.526   7.650
 5400POPC   C1B28891  22.787  24.290   8.550
 5400POPC   C2B28892  22.865  24.272   8.250
 5400POPC   C3B28893  22.797  24.306   7.950
 5400POPC   C4B28894  22.817  24.280   7.650
 5401POPC   NC328895  22.922  33.037   9.450
 5401POPC   PO428896  22.954  33.015   9.150
 5401POPC   GL128897  22.917  33.037   8.850
 5401POPC   GL228898  23.080  33.003   8.850
 5401POPC   C1A28899  22.952  33.044   8.550
 5401POPC   D2A28900  22.925  32.999   8.250
 5401POPC   C3A28901  22.904  33.053   7.950
 5401POPC   C4A28902  22.964  33.003   7.650
 5401POPC   C1B28903  23.202  32.990   8.550
 5401POPC   C2B28904  23.164  32.972   8.250
 5401POPC   C3B28905  23.156  32.971   7.950
 5401POPC   C4B28906  23.174  32.981   7.650
 5402POPC   NC328907  34.558  18.295   9.450
 5402POPC   PO428908  34.534  18.265   9.150
 5402POPC   GL128909  34.617  18.317   8.850
 5402POPC   GL228910  34.506  18.360   8.850
 5402POPC   C1A28911  34.581  18.248   8.550
 5402POPC   D2A28912  34.550  18.265   8.250
 5402POPC   C3A28913  34.568  18.235   7.950
 5402POPC   C4A28914  34.538  18.248   7.650
 5402POPC   C1B28915  34.376  18.375   8.550
 5402POPC   C2B28916  34.387  18.424   8.250
 5402POPC   C3B28917  34.318  18.382   7.950
 5402POPC   C4B28918  34.359  18.408   7.650
 5403POPC   NC328919  35.359  25.274   9.450
 5403POPC   PO428920  35.380  25.306   9.150
 5403POPC   GL128921  35.316  25.285   8.850
 5403POPC   GL228922  35.191  25.258   8.850
 5403POPC   C1A28923  35.376  25.296   8.550
 5403POPC   D2A28924  35.367  25.285   8.250
 5403POPC   C3A28925  35.335  25.307   7.950
 5403POPC   C4A28926  35.362  25.296   7.650
 5403POPC   C1B28927  35.086  25.155   8.550
 5403POPC   C2B28928  35.143  25.222   8.250
 5403POPC   C3B28929  35.147  25.201   7.950
 5403POPC   C4B28930  35.070  25.182   7.650
 5404POPC   NC328931  26.027  26.068   9.450
 5404POPC   PO428932  26.058  26.056   9.150
 5404POPC   GL128933  26.049  26.090   8.850
 5404POPC   GL228934  25.986  26.176   8.850
 5404POPC   C1A28935  26.016  26.060   8.550
 5404POPC   D2A28936  26.005  26.060   8.250
 5404POPC   C3A28937  26.023  26.032   7.950
 5404POPC   C4A28938  26.081  26.066   7.650
 5404POPC   C1B28939  25.914  26.265   8.550
 5404POPC   C2B28940  25.889  26.265   8.250
 5404POPC   C3B28941  25.914  26.287   7.950
 5404POPC   C4B28942  25.969  26.302   7.650
 5405POPC   NC328943  10.502  28.377   9.450
 5405POPC   PO428944  10.475  28.364   9.150
 5405POPC   GL128945  10.483  28.351   8.850
 5405POPC   GL228946  10.611  28.426   8.850
 5405POPC   C1A28947  10.479  28.385   8.550
 5405POPC   D2A28948  10.552  28.396   8.250
 5405POPC   C3A28949  10.480  28.386   7.950
 5405POPC   C4A28950  10.525  28.413   7.650
 5405POPC   C1B28951  10.710  28.541   8.550
 5405POPC   C2B28952  10.780  28.454   8.250
 5405POPC   C3B28953  10.778  28.480   7.950
 5405POPC   C4B28954  10.764  28.500   7.650
 5406POPC   NC328955  28.352  35.353   9.450
 5406POPC   PO428956  28.364  35.348   9.150
 5406POPC   GL128957  28.370  35.369   8.850
 5406POPC   GL228958  28.455  35.423   8.850
 5406POPC   C1A28959  28.383  35.369   8.550
 5406POPC   D2A28960  28.366  35.329   8.250
 5406POPC   C3A28961  28.378  35.400   7.950
 5406POPC   C4A28962  28.337  35.336   7.650
 5406POPC   C1B28963  28.557  35.496   8.550
 5406POPC   C2B28964  28.535  35.489   8.250
 5406POPC   C3B28965  28.524  35.530   7.950
 5406POPC   C4B28966  28.569  35.524   7.650
 5407POPC   NC328967  25.244  35.361   9.450
 5407POPC   PO428968  25.311  35.327   9.150
 5407POPC   GL128969  25.310  35.371   8.850
 5407POPC   GL228970  25.154  35.455   8.850
 5407POPC   C1A28971  25.260  35.347   8.550
 5407POPC   D2A28972  25.292  35.385   8.250
 5407POPC   C3A28973  25.287  35.368   7.950
 5407POPC   C4A28974  25.244  35.319   7.650
 5407POPC   C1B28975  25.074  35.429   8.550
 5407POPC   C2B28976  25.030  35.516   8.250
 5407POPC   C3B28977  25.006  35.456   7.950
 5407POPC   C4B28978  25.061  35.432   7.650
 5408POPC   NC328979  26.037   9.780   9.450
 5408POPC   PO428980  26.045   9.714   9.150
 5408POPC   GL128981  26.071   9.775   8.850
 5408POPC   GL228982  25.986   9.886   8.850
 5408POPC   C1A28983  26.053   9.791   8.550
 5408POPC   D2A28984  26.010   9.757   8.250
 5408POPC   C3A28985  25.993   9.789   7.950
 5408POPC   C4A28986  26.022   9.782   7.650
 5408POPC   C1B28987  26.028   9.948   8.550
 5408POPC   C2B28988  25.945  10.000   8.250
 5408POPC   C3B28989  25.967   9.965   7.950
 5408POPC   C4B28990  26.019   9.987   7.650
 5409POPC   NC328991  24.540  43.092   9.450
 5409POPC   PO428992  24.466  43.141   9.150
 5409POPC   GL128993  24.527  43.082   8.850
 5409POPC   GL228994  24.482  43.232   8.850
 5409POPC   C1A28995  24.471  43.076   8.550
 5409POPC   D2A28996  24.482  43.070   8.250
 5409POPC   C3A28997  24.486  43.110   7.950
 5409POPC   C4A28998  24.504  43.109   7.650
 5409POPC   C1B28999  24.476  43.303   8.550
 5409POPC   C2B29000  24.398  43.348   8.250
 5409POPC   C3B29001  24.405  43.382   7.950
 5409POPC   C4B29002  24.446  43.349   7.650
 5410POPC   NC329003  28.339  19.836   9.450
 5410POPC   PO429004  28.373  19.862   9.150
 5410POPC   GL129005  28.322  19.799   8.850
 5410POPC   GL229006  28.253  19.795   8.850
 5410POPC   C1A29007  28.410  19.816   8.550
 5410POPC   D2A29008  28.403  19.865   8.250
 5410POPC   C3A29009  28.337  19.819   7.950
 5410POPC   C4A29010  28.371  19.872   7.650
 5410POPC   C1B29011  28.089  19.836   8.550
 5410POPC   C2B29012  28.131  19.748   8.250
 5410POPC   C3B29013  28.090  19.803   7.950
 5410POPC   C4B29014  28.121  19.832   7.650
 5411POPC   NC329015   9.020  26.773   9.450
 5411POPC   PO429016   8.955  26.819   9.150
 5411POPC   GL129017   9.006  26.819   8.850
 5411POPC   GL229018   8.882  26.687   8.850
 5411POPC   C1A29019   8.962  26.839   8.550
 5411POPC   D2A29020   8.978  26.772   8.250
 5411POPC   C3A29021   8.971  26.783   7.950
 5411POPC   C4A29022   8.966  26.837   7.650
 5411POPC   C1B29023   8.829  26.592   8.550
 5411POPC   C2B29024   8.805  26.572   8.250
 5411POPC   C3B29025   8.817  26.634   7.950
 5411POPC   C4B29026   8.839  26.669   7.650
 5412POPC   NC329027  25.224   5.084   9.450
 5412POPC   PO429028  25.235   5.135   9.150
 5412POPC   GL129029  25.291   5.045   8.850
 5412POPC   GL229030  25.373   5.182   8.850
 5412POPC   C1A29031  25.264   5.054   8.550
 5412POPC   D2A29032  25.231   5.060   8.250
 5412POPC   C3A29033  25.258   5.054   7.950
 5412POPC   C4A29034  25.242   5.068   7.650
 5412POPC   C1B29035  25.370   5.307   8.550
 5412POPC   C2B29036  25.380   5.274   8.250
 5412POPC   C3B29037  25.420   5.281   7.950
 5412POPC   C4B29038  25.379   5.332   7.650
 5413POPC   NC329039  17.470  29.180   9.450
 5413POPC   PO429040  17.557  29.144   9.150
 5413POPC   GL129041  17.511  29.194   8.850
 5413POPC   GL229042  17.472  29.021   8.850
 5413POPC   C1A29043  17.520  29.119   8.550
 5413POPC   D2A29044  17.543  29.137   8.250
 5413POPC   C3A29045  17.473  29.136   7.950
 5413POPC   C4A29046  17.525  29.151   7.650
 5413POPC   C1B29047  17.490  28.929   8.550
 5413POPC   C2B29048  17.444  28.856   8.250
 5413POPC   C3B29049  17.473  28.886   7.950
 5413POPC   C4B29050  17.525  28.877   7.650
 5414POPC   NC329051  43.159  29.918   9.450
 5414POPC   PO429052  43.128  29.875   9.150
 5414POPC   GL129053  43.087  29.940   8.850
 5414POPC   GL229054  43.027  30.041   8.850
 5414POPC   C1A29055  43.150  29.884   8.550
 5414POPC   D2A29056  43.127  29.926   8.250
 5414POPC   C3A29057  43.071  29.959   7.950
 5414POPC   C4A29058  43.098  29.964   7.650
 5414POPC   C1B29059  43.054  30.188   8.550
 5414POPC   C2B29060  42.981  30.194   8.250
 5414POPC   C3B29061  42.980  30.123   7.950
 5414POPC   C4B29062  42.977  30.178   7.650
 5415POPC   NC329063  16.733  36.904   9.450
 5415POPC   PO429064  16.728  36.947   9.150
 5415POPC   GL129065  16.714  36.875   8.850
 5415POPC   GL229066  16.832  36.976   8.850
 5415POPC   C1A29067  16.730  36.949   8.550
 5415POPC   D2A29068  16.733  36.921   8.250
 5415POPC   C3A29069  16.766  36.918   7.950
 5415POPC   C4A29070  16.690  36.941   7.650
 5415POPC   C1B29071  16.917  37.090   8.550
 5415POPC   C2B29072  16.935  37.062   8.250
 5415POPC   C3B29073  16.865  37.072   7.950
 5415POPC   C4B29074  16.910  37.062   7.650
 5416POPC   NC329075   0.450  12.803   9.450
 5416POPC   PO429076   0.427  12.898   9.150
 5416POPC   GL129077   0.448  12.851   8.850
 5416POPC   GL229078   0.304  12.741   8.850
 5416POPC   C1A29079   0.388  12.826   8.550
 5416POPC   D2A29080   0.394  12.900   8.250
 5416POPC   C3A29081   0.439  12.883   7.950
 5416POPC   C4A29082   0.416  12.849   7.650
 5416POPC   C1B29083   0.230  12.671   8.550
 5416POPC   C2B29084   0.229  12.650   8.250
 5416POPC   C3B29085   0.264  12.686   7.950
 5416POPC   C4B29086   0.270  12.722   7.650
 5417POPC   NC329087  30.659  21.405   9.450
 5417POPC   PO429088  30.735  21.412   9.150
 5417POPC   GL129089  30.743  21.433   8.850
 5417POPC   GL229090  30.705  21.292   8.850
 5417POPC   C1A29091  30.703  21.340   8.550
 5417POPC   D2A29092  30.688  21.345   8.250
 5417POPC   C3A29093  30.693  21.367   7.950
 5417POPC   C4A29094  30.648  21.373   7.650
 5417POPC   C1B29095  30.625  21.160   8.550
 5417POPC   C2B29096  30.670  21.135   8.250
 5417POPC   C3B29097  30.653  21.138   7.950
 5417POPC   C4B29098  30.627  21.118   7.650
 5418POPC   NC329099  43.879  34.619   9.450
 5418POPC   PO429100  43.924  34.612   9.150
 5418POPC   GL129101  43.856  34.609   8.850
 5418POPC   GL229102  43.880  34.734   8.850
 5418POPC   C1A29103  43.887  34.618   8.550
 5418POPC   D2A29104  43.882  34.596   8.250
 5418POPC   C3A29105  43.902  34.555   7.950
 5418POPC   C4A29106  43.908  34.592   7.650
 5418POPC   C1B29107  43.995  34.788   8.550
 5418POPC   C2B29108  43.914  34.776   8.250
 5418POPC   C3B29109  43.908  34.816   7.950
 5418POPC   C4B29110  43.946  34.822   7.650
 5419POPC   NC329111  31.490  38.417   9.450
 5419POPC   PO429112  31.474  38.429   9.150
 5419POPC   GL129113  31.478  38.457   8.850
 5419POPC   GL229114  31.588  38.362   8.850
 5419POPC   C1A29115  31.512  38.450   8.550
 5419POPC   D2A29116  31.510  38.460   8.250
 5419POPC   C3A29117  31.507  38.446   7.950
 5419POPC   C4A29118  31.502  38.423   7.650
 5419POPC   C1B29119  31.589  38.263   8.550
 5419POPC   C2B29120  31.656  38.225   8.250
 5419POPC   C3B29121  31.653  38.282   7.950
 5419POPC   C4B29122  31.614  38.240   7.650
 5420POPC   NC329123  28.412  37.727   9.450
 5420POPC   PO429124  28.336  37.691   9.150
 5420POPC   GL129125  28.381  37.637   8.850
 5420POPC   GL229126  28.445  37.753   8.850
 5420POPC   C1A29127  28.370  37.714   8.550
 5420POPC   D2A29128  28.399  37.654   8.250
 5420POPC   C3A29129  28.327  37.661   7.950
 5420POPC   C4A29130  28.328  37.717   7.650
 5420POPC   C1B29131  28.438  37.888   8.550
 5420POPC   C2B29132  28.463  37.928   8.250
 5420POPC   C3B29133  28.393  37.962   7.950
 5420POPC   C4B29134  28.395  37.890   7.650
 5421POPC   NC329135   8.229  24.473   9.450
 5421POPC   PO429136   8.181  24.474   9.150
 5421POPC   GL129137   8.173  24.536   8.850
 5421POPC   GL229138   8.249  24.606   8.850
 5421POPC   C1A29139   8.216  24.477   8.550
 5421POPC   D2A29140   8.222  24.486   8.250
 5421POPC   C3A29141   8.186  24.442   7.950
 5421POPC   C4A29142   8.204  24.464   7.650
 5421POPC   C1B29143   8.393  24.696   8.550
 5421POPC   C2B29144   8.364  24.657   8.250
 5421POPC   C3B29145   8.369  24.695   7.950
 5421POPC   C4B29146   8.347  24.663   7.650
 5422POPC   NC329147  39.217  31.501   9.450
 5422POPC   PO429148  39.193  31.463   9.150
 5422POPC   GL129149  39.247  31.428   8.850
 5422POPC   GL229150  39.190  31.375   8.850
 5422POPC   C1A29151  39.196  31.494   8.550
 5422POPC   D2A29152  39.278  31.514   8.250
 5422POPC   C3A29153  39.239  31.462   7.950
 5422POPC   C4A29154  39.212  31.508   7.650
 5422POPC   C1B29155  39.103  31.319   8.550
 5422POPC   C2B29156  39.097  31.301   8.250
 5422POPC   C3B29157  39.037  31.242   7.950
 5422POPC   C4B29158  39.049  31.256   7.650
 5423POPC   NC329159  29.948  31.468   9.450
 5423POPC   PO429160  29.910  31.487   9.150
 5423POPC   GL129161  29.970  31.442   8.850
 5423POPC   GL229162  29.803  31.545   8.850
 5423POPC   C1A29163  29.968  31.452   8.550
 5423POPC   D2A29164  29.887  31.457   8.250
 5423POPC   C3A29165  29.967  31.465   7.950
 5423POPC   C4A29166  29.893  31.453   7.650
 5423POPC   C1B29167  29.687  31.543   8.550
 5423POPC   C2B29168  29.714  31.584   8.250
 5423POPC   C3B29169  29.728  31.553   7.950
 5423POPC   C4B29170  29.733  31.584   7.650
 5424POPC   NC329171  31.472   2.731   9.450
 5424POPC   PO429172  31.486   2.790   9.150
 5424POPC   GL129173  31.442   2.752   8.850
 5424POPC   GL229174  31.622   2.782   8.850
 5424POPC   C1A29175  31.489   2.724   8.550
 5424POPC   D2A29176  31.467   2.762   8.250
 5424POPC   C3A29177  31.486   2.723   7.950
 5424POPC   C4A29178  31.506   2.771   7.650
 5424POPC   C1B29179  31.731   2.882   8.550
 5424POPC   C2B29180  31.670   2.815   8.250
 5424POPC   C3B29181  31.724   2.843   7.950
 5424POPC   C4B29182  31.663   2.846   7.650
 5425POPC   NC329183  36.175  29.124   9.450
 5425POPC   PO429184  36.100  29.107   9.150
 5425POPC   GL129185  36.100  29.106   8.850
 5425POPC   GL229186  36.008  29.078   8.850
 5425POPC   C1A29187  36.103  29.194   8.550
 5425POPC   D2A29188  36.109  29.168   8.250
 5425POPC   C3A29189  36.086  29.149   7.950
 5425POPC   C4A29190  36.134  29.157   7.650
 5425POPC   C1B29191  35.914  29.014   8.550
 5425POPC   C2B29192  35.906  29.021   8.250
 5425POPC   C3B29193  35.893  28.993   7.950
 5425POPC   C4B29194  35.927  29.014   7.650
 5426POPC   NC329195   1.210   8.209   9.450
 5426POPC   PO429196   1.241   8.150   9.150
 5426POPC   GL129197   1.199   8.183   8.850
 5426POPC   GL229198   1.134   8.104   8.850
 5426POPC   C1A29199   1.191   8.230   8.550
 5426POPC   D2A29200   1.214   8.234   8.250
 5426POPC   C3A29201   1.257   8.179   7.950
 5426POPC   C4A29202   1.223   8.216   7.650
 5426POPC   C1B29203   1.081   7.999   8.550
 5426POPC   C2B29204   1.019   8.044   8.250
 5426POPC   C3B29205   0.992   7.994   7.950
 5426POPC   C4B29206   1.004   8.031   7.650
 5427POPC   NC329207  19.081   8.215   9.450
 5427POPC   PO429208  19.027   8.198   9.150
 5427POPC   GL129209  19.043   8.170   8.850
 5427POPC   GL229210  18.974   8.238   8.850
 5427POPC   C1A29211  19.104   8.171   8.550
 5427POPC   D2A29212  19.027   8.148   8.250
 5427POPC   C3A29213  19.048   8.166   7.950
 5427POPC   C4A29214  19.050   8.161   7.650
 5427POPC   C1B29215  18.804   8.338   8.550
 5427POPC   C2B29216  18.806   8.303   8.250
 5427POPC   C3B29217  18.896   8.311   7.950
 5427POPC   C4B29218  18.809   8.344   7.650
 5428POPC   NC329219  26.052  11.288   9.450
 5428POPC   PO429220  26.012  11.322   9.150
 5428POPC   GL129221  25.998  11.332   8.850
 5428POPC   GL229222  25.889  11.282   8.850
 5428POPC   C1A29223  26.000  11.298   8.550
 5428POPC   D2A29224  26.017  11.312   8.250
 5428POPC   C3A29225  26.024  11.308   7.950
 5428POPC   C4A29226  26.075  11.322   7.650
 5428POPC   C1B29227  25.825  11.254   8.550
 5428POPC   C2B29228  25.743  11.259   8.250
 5428POPC   C3B29229  25.761  11.321   7.950
 5428POPC   C4B29230  25.833  11.263   7.650
 5429POPC   NC329231  41.526   8.976   9.450
 5429POPC   PO429232  41.588   9.016   9.150
 5429POPC   GL129233  41.588   9.006   8.850
 5429POPC   GL229234  41.672   9.084   8.850
 5429POPC   C1A29235  41.532   8.994   8.550
 5429POPC   D2A29236  41.537   8.977   8.250
 5429POPC   C3A29237  41.609   9.011   7.950
 5429POPC   C4A29238  41.520   9.013   7.650
 5429POPC   C1B29239  41.711   9.185   8.550
 5429POPC   C2B29240  41.727   9.161   8.250
 5429POPC   C3B29241  41.757   9.168   7.950
 5429POPC   C4B29242  41.745   9.138   7.650
 5430POPC   NC329243  39.264  43.936   9.450
 5430POPC   PO429244  39.259  43.897   9.150
 5430POPC   GL129245  39.222  43.864   8.850
 5430POPC   GL229246  39.147  43.789   8.850
 5430POPC   C1A29247  39.229  43.877   8.550
 5430POPC   D2A29248  39.246  43.837   8.250
 5430POPC   C3A29249  39.197  43.877   7.950
 5430POPC   C4A29250  39.207  43.836   7.650
 5430POPC   C1B29251  39.031  43.750   8.550
 5430POPC   C2B29252  39.025  43.660   8.250
 5430POPC   C3B29253  39.011  43.724   7.950
 5430POPC   C4B29254  39.052  43.736   7.650
 5431POPC   NC329255   1.941  36.947   9.450
 5431POPC   PO429256   1.997  36.932   9.150
 5431POPC   GL129257   1.943  36.899   8.850
 5431POPC   GL229258   2.019  37.026   8.850
 5431POPC   C1A29259   1.992  36.921   8.550
 5431POPC   D2A29260   1.952  36.882   8.250
 5431POPC   C3A29261   2.003  36.889   7.950
 5431POPC   C4A29262   1.960  36.939   7.650
 5431POPC   C1B29263   2.051  37.185   8.550
 5431POPC   C2B29264   2.020  37.139   8.250
 5431POPC   C3B29265   1.977  37.196   7.950
 5431POPC   C4B29266   1.982  37.157   7.650
 5432POPC   NC329267  41.516  26.816   9.450
 5432POPC   PO429268  41.586  26.836   9.150
 5432POPC   GL129269  41.514  26.812   8.850
 5432POPC   GL229270  41.696  26.825   8.850
 5432POPC   C1A29271  41.529  26.825   8.550
 5432POPC   D2A29272  41.571  26.826   8.250
 5432POPC   C3A29273  41.592  26.800   7.950
 5432POPC   C4A29274  41.594  26.800   7.650
 5432POPC   C1B29275  41.749  26.694   8.550
 5432POPC   C2B29276  41.782  26.759   8.250
 5432POPC   C3B29277  41.749  26.767   7.950
 5432POPC   C4B29278  41.801  26.715   7.650
 5433POPC   NC329279  15.145  41.597   9.450
 5433POPC   PO429280  15.170  41.588   9.150
 5433POPC   GL129281  15.212  41.542   8.850
 5433POPC   GL229282  15.310  41.506   8.850
 5433POPC   C1A29283  15.178  41.584   8.550
 5433POPC   D2A29284  15.162  41.607   8.250
 5433POPC   C3A29285  15.132  41.589   7.950
 5433POPC   C4A29286  15.159  41.591   7.650
 5433POPC   C1B29287  15.344  41.367   8.550
 5433POPC   C2B29288  15.395  41.403   8.250
 5433POPC   C3B29289  15.403  41.396   7.950
 5433POPC   C4B29290  15.387  41.451   7.650
 5434POPC   NC329291  33.791  40.760   9.450
 5434POPC   PO429292  33.806  40.775   9.150
 5434POPC   GL129293  33.838  40.794   8.850
 5434POPC   GL229294  33.898  40.743   8.850
 5434POPC   C1A29295  33.762  40.832   8.550
 5434POPC   D2A29296  33.816  40.811   8.250
 5434POPC   C3A29297  33.790  40.825   7.950
 5434POPC   C4A29298  33.784  40.778   7.650
 5434POPC   C1B29299  33.988  40.644   8.550
 5434POPC   C2B29300  34.076  40.693   8.250
 5434POPC   C3B29301  34.031  40.635   7.950
 5434POPC   C4B29302  34.069  40.645   7.650
 5435POPC   NC329303   1.218   6.604   9.450
 5435POPC   PO429304   1.212   6.664   9.150
 5435POPC   GL129305   1.198   6.679   8.850
 5435POPC   GL229306   1.052   6.615   8.850
 5435POPC   C1A29307   1.207   6.643   8.550
 5435POPC   D2A29308   1.235   6.599   8.250
 5435POPC   C3A29309   1.246   6.645   7.950
 5435POPC   C4A29310   1.187   6.612   7.650
 5435POPC   C1B29311   1.009   6.547   8.550
 5435POPC   C2B29312   1.005   6.611   8.250
 5435POPC   C3B29313   1.001   6.634   7.950
 5435POPC   C4B29314   0.963   6.567   7.650
 5436POPC   NC329315   6.646   5.835   9.450
 5436POPC   PO429316   6.633   5.861   9.150
 5436POPC   GL129317   6.687   5.831   8.850
 5436POPC   GL229318   6.721   5.886   8.850
 5436POPC   C1A29319   6.616   5.892   8.550
 5436POPC   D2A29320   6.631   5.820   8.250
 5436POPC   C3A29321   6.637   5.892   7.950
 5436POPC   C4A29322   6.671   5.821   7.650
 5436POPC   C1B29323   6.922   5.948   8.550
 5436POPC   C2B29324   6.936   5.859   8.250
 5436POPC   C3B29325   6.912   5.935   7.950
 5436POPC   C4B29326   6.897   5.910   7.650
 5437POPC   NC329327  34.567  23.735   9.450
 5437POPC   PO429328  34.625  23.750   9.150
 5437POPC   GL129329  34.613  23.724   8.850
 5437POPC   GL229330  34.536  23.825   8.850
 5437POPC   C1A29331  34.550  23.687   8.550
 5437POPC   D2A29332  34.589  23.757   8.250
 5437POPC   C3A29333  34.582  23.722   7.950
 5437POPC   C4A29334  34.528  23.708   7.650
 5437POPC   C1B29335  34.418  23.927   8.550
 5437POPC   C2B29336  34.403  23.878   8.250
 5437POPC   C3B29337  34.375  23.899   7.950
 5437POPC   C4B29338  34.372  23.870   7.650
 5438POPC   NC329339  28.354  14.419   9.450
 5438POPC   PO429340  28.402  14.384   9.150
 5438POPC   GL129341  28.394  14.424   8.850
 5438POPC   GL229342  28.274  14.447   8.850
 5438POPC   C1A29343  28.354  14.422   8.550
 5438POPC   D2A29344  28.324  14.386   8.250
 5438POPC   C3A29345  28.330  14.412   7.950
 5438POPC   C4A29346  28.355  14.418   7.650
 5438POPC   C1B29347  28.110  14.445   8.550
 5438POPC   C2B29348  28.132  14.367   8.250
 5438POPC   C3B29349  28.122  14.406   7.950
 5438POPC   C4B29350  28.127  14.401   7.650
 5439POPC   NC329351   5.882  30.653   9.450
 5439POPC   PO429352   5.880  30.704   9.150
 5439POPC   GL129353   5.915  30.741   8.850
 5439POPC   GL229354   5.906  30.560   8.850
 5439POPC   C1A29355   5.909  30.744   8.550
 5439POPC   D2A29356   5.833  30.723   8.250
 5439POPC   C3A29357   5.883  30.742   7.950
 5439POPC   C4A29358   5.833  30.715   7.650
 5439POPC   C1B29359   6.020  30.555   8.550
 5439POPC   C2B29360   6.025  30.532   8.250
 5439POPC   C3B29361   5.990  30.488   7.950
 5439POPC   C4B29362   6.035  30.505   7.650
 5440POPC   NC329363  26.003   5.893   9.450
 5440POPC   PO429364  26.059   5.888   9.150
 5440POPC   GL129365  26.075   5.874   8.850
 5440POPC   GL229366  25.999   5.996   8.850
 5440POPC   C1A29367  26.037   5.917   8.550
 5440POPC   D2A29368  26.008   5.828   8.250
 5440POPC   C3A29369  26.073   5.869   7.950
 5440POPC   C4A29370  26.042   5.887   7.650
 5440POPC   C1B29371  25.850   6.112   8.550
 5440POPC   C2B29372  25.867   6.069   8.250
 5440POPC   C3B29373  25.906   6.094   7.950
 5440POPC   C4B29374  25.914   6.044   7.650
 5441POPC   NC329375  17.513  18.318   9.450
 5441POPC   PO429376  17.513  18.314   9.150
 5441POPC   GL129377  17.499  18.287   8.850
 5441POPC   GL229378  17.624  18.344   8.850
 5441POPC   C1A29379  17.523  18.256   8.550
 5441POPC   D2A29380  17.532  18.239   8.250
 5441POPC   C3A29381  17.458  18.300   7.950
 5441POPC   C4A29382  17.494  18.270   7.650
 5441POPC   C1B29383  17.782  18.355   8.550
 5441POPC   C2B29384  17.794  18.314   8.250
 5441POPC   C3B29385  17.788  18.360   7.950
 5441POPC   C4B29386  17.717  18.344   7.650
 5442POPC   NC329387  17.485  26.060   9.450
 5442POPC   PO429388  17.549  25.999   9.150
 5442POPC   GL129389  17.539  26.032   8.850
 5442POPC   GL229390  17.525  25.957   8.850
 5442POPC   C1A29391  17.511  26.065   8.550
 5442POPC   D2A29392  17.463  26.079   8.250
 5442POPC   C3A29393  17.506  26.073   7.950
 5442POPC   C4A29394  17.504  26.069   7.650
 5442POPC   C1B29395  17.619  25.837   8.550
 5442POPC   C2B29396  17.550  25.826   8.250
 5442POPC   C3B29397  17.612  25.761   7.950
 5442POPC   C4B29398  17.623  25.794   7.650
 5443POPC   NC329399  15.201  23.699   9.450
 5443POPC   PO429400  15.227  23.677   9.150
 5443POPC   GL129401  15.205  23.716   8.850
 5443POPC   GL229402  15.280  23.651   8.850
 5443POPC   C1A29403  15.143  23.735   8.550
 5443POPC   D2A29404  15.202  23.671   8.250
 5443POPC   C3A29405  15.139  23.695   7.950
 5443POPC   C4A29406  15.140  23.693   7.650
 5443POPC   C1B29407  15.463  23.673   8.550
 5443POPC   C2B29408  15.408  23.640   8.250
 5443POPC   C3B29409  15.445  23.714   7.950
 5443POPC   C4B29410  15.424  23.712   7.650
 5444POPC   NC329411   9.745  18.271   9.450
 5444POPC   PO429412   9.732  18.253   9.150
 5444POPC   GL129413   9.743  18.261   8.850
 5444POPC   GL229414   9.737  18.406   8.850
 5444POPC   C1A29415   9.797  18.242   8.550
 5444POPC   D2A29416   9.792  18.256   8.250
 5444POPC   C3A29417   9.716  18.255   7.950
 5444POPC   C4A29418   9.793  18.287   7.650
 5444POPC   C1B29419   9.779  18.513   8.550
 5444POPC   C2B29420   9.784  18.523   8.250
 5444POPC   C3B29421   9.758  18.506   7.950
 5444POPC   C4B29422   9.784  18.531   7.650
 5445POPC   NC329423  10.546  13.588   9.450
 5445POPC   PO429424  10.535  13.653   9.150
 5445POPC   GL129425  10.537  13.662   8.850
 5445POPC   GL229426  10.430  13.720   8.850
 5445POPC   C1A29427  10.498  13.627   8.550
 5445POPC   D2A29428  10.499  13.613   8.250
 5445POPC   C3A29429  10.514  13.651   7.950
 5445POPC   C4A29430  10.476  13.658   7.650
 5445POPC   C1B29431  10.387  13.853   8.550
 5445POPC   C2B29432  10.413  13.816   8.250
 5445POPC   C3B29433  10.419  13.885   7.950
 5445POPC   C4B29434  10.422  13.839   7.650
 5446POPC   NC329435  14.453  22.971   9.450
 5446POPC   PO429436  14.394  22.937   9.150
 5446POPC   GL129437  14.410  22.893   8.850
 5446POPC   GL229438  14.456  23.061   8.850
 5446POPC   C1A29439  14.446  22.915   8.550
 5446POPC   D2A29440  14.433  22.893   8.250
 5446POPC   C3A29441  14.376  22.917   7.950
 5446POPC   C4A29442  14.377  22.930   7.650
 5446POPC   C1B29443  14.508  23.120   8.550
 5446POPC   C2B29444  14.536  23.146   8.250
 5446POPC   C3B29445  14.548  23.135   7.950
 5446POPC   C4B29446  14.589  23.146   7.650
 5447POPC   NC329447  30.678  38.497   9.450
 5447POPC   PO429448  30.737  38.427   9.150
 5447POPC   GL129449  30.656  38.422   8.850
 5447POPC   GL229450  30.539  38.396   8.850
 5447POPC   C1A29451  30.727  38.416   8.550
 5447POPC   D2A29452  30.743  38.444   8.250
 5447POPC   C3A29453  30.661  38.458   7.950
 5447POPC   C4A29454  30.693  38.503   7.650
 5447POPC   C1B29455  30.423  38.373   8.550
 5447POPC   C2B29456  30.442  38.459   8.250
 5447POPC   C3B29457  30.406  38.397   7.950
 5447POPC   C4B29458  30.430  38.408   7.650
 5448POPC   NC329459  15.972  12.834   9.450
 5448POPC   PO429460  15.936  12.888   9.150
 5448POPC   GL129461  15.930  12.818   8.850
 5448POPC   GL229462  15.931  12.718   8.850
 5448POPC   C1A29463  15.938  12.855   8.550
 5448POPC   D2A29464  15.931  12.827   8.250
 5448POPC   C3A29465  16.000  12.876   7.950
 5448POPC   C4A29466  15.910  12.853   7.650
 5448POPC   C1B29467  15.790  12.623   8.550
 5448POPC   C2B29468  15.783  12.620   8.250
 5448POPC   C3B29469  15.799  12.689   7.950
 5448POPC   C4B29470  15.836  12.651   7.650
 5449POPC   NC329471  19.850  40.785   9.450
 5449POPC   PO429472  19.856  40.803   9.150
 5449POPC   GL129473  19.883  40.741   8.850
 5449POPC   GL229474  19.765  40.721   8.850
 5449POPC   C1A29475  19.838  40.754   8.550
 5449POPC   D2A29476  19.873  40.754   8.250
 5449POPC   C3A29477  19.823  40.802   7.950
 5449POPC   C4A29478  19.808  40.757   7.650
 5449POPC   C1B29479  19.669  40.560   8.550
 5449POPC   C2B29480  19.730  40.619   8.250
 5449POPC   C3B29481  19.703  40.564   7.950
 5449POPC   C4B29482  19.740  40.626   7.650
 5450POPC   NC329483  40.819   0.398   9.450
 5450POPC   PO429484  40.818   0.439   9.150
 5450POPC   GL129485  40.751   0.420   8.850
 5450POPC   GL229486  40.883   0.359   8.850
 5450POPC   C1A29487  40.771   0.453   8.550
 5450POPC   D2A29488  40.734   0.448   8.250
 5450POPC   C3A29489  40.781   0.423   7.950
 5450POPC   C4A29490  40.777   0.402   7.650
 5450POPC   C1B29491  40.964   0.291   8.550
 5450POPC   C2B29492  40.985   0.306   8.250
 5450POPC   C3B29493  41.018   0.325   7.950
 5450POPC   C4B29494  41.020   0.310   7.650
 5451POPC   NC329495  23.734  29.178   9.450
 5451POPC   PO429496  23.665  29.098   9.150
 5451POPC   GL129497  23.670  29.118   8.850
 5451POPC   GL229498  23.701  29.293   8.850
 5451POPC   C1A29499  23.689  29.126   8.550
 5451POPC   D2A29500  23.701  29.144   8.250
 5451POPC   C3A29501  23.756  29.160   7.950
 5451POPC   C4A29502  23.750  29.126   7.650
 5451POPC   C1B29503  23.740  29.425   8.550
 5451POPC   C2B29504  23.808  29.409   8.250
 5451POPC   C3B29505  23.792  29.414   7.950
 5451POPC   C4B29506  23.754  29.360   7.650
 5452POPC   NC329507  23.679   2.025   9.450
 5452POPC   PO429508  23.672   2.018   9.150
 5452POPC   GL129509  23.678   1.971   8.850
 5452POPC   GL229510  23.626   1.966   8.850
 5452POPC   C1A29511  23.707   1.958   8.550
 5452POPC   D2A29512  23.754   1.996   8.250
 5452POPC   C3A29513  23.711   2.010   7.950
 5452POPC   C4A29514  23.697   1.972   7.650
 5452POPC   C1B29515  23.502   1.976   8.550
 5452POPC   C2B29516  23.445   1.930   8.250
 5452POPC   C3B29517  23.477   1.965   7.950
 5452POPC   C4B29518  23.483   1.973   7.650
 5453POPC   NC329519  40.772  24.517   9.450
 5453POPC   PO429520  40.783  24.526   9.150
 5453POPC   GL129521  40.833  24.444   8.850
 5453POPC   GL229522  40.689  24.504   8.850
 5453POPC   C1A29523  40.755  24.479   8.550
 5453POPC   D2A29524  40.821  24.447   8.250
 5453POPC   C3A29525  40.824  24.511   7.950
 5453POPC   C4A29526  40.829  24.527   7.650
 5453POPC   C1B29527  40.560  24.612   8.550
 5453POPC   C2B29528  40.587  24.607   8.250
 5453POPC   C3B29529  40.507  24.557   7.950
 5453POPC   C4B29530  40.578  24.623   7.650
 5454POPC   NC329531  35.367  27.552   9.450
 5454POPC   PO429532  35.360  27.585   9.150
 5454POPC   GL129533  35.342  27.610   8.850
 5454POPC   GL229534  35.216  27.557   8.850
 5454POPC   C1A29535  35.319  27.591   8.550
 5454POPC   D2A29536  35.355  27.586   8.250
 5454POPC   C3A29537  35.318  27.621   7.950
 5454POPC   C4A29538  35.380  27.562   7.650
 5454POPC   C1B29539  35.093  27.493   8.550
 5454POPC   C2B29540  35.062  27.499   8.250
 5454POPC   C3B29541  35.138  27.523   7.950
 5454POPC   C4B29542  35.100  27.530   7.650
 5455POPC   NC329543  31.481   5.056   9.450
 5455POPC   PO429544  31.507   5.096   9.150
 5455POPC   GL129545  31.498   5.053   8.850
 5455POPC   GL229546  31.455   5.176   8.850
 5455POPC   C1A29547  31.453   5.082   8.550
 5455POPC   D2A29548  31.431   5.072   8.250
 5455POPC   C3A29549  31.473   5.135   7.950
 5455POPC   C4A29550  31.521   5.129   7.650
 5455POPC   C1B29551  31.492   5.387   8.550
 5455POPC   C2B29552  31.523   5.302   8.250
 5455POPC   C3B29553  31.514   5.325   7.950
 5455POPC   C4B29554  31.548   5.323   7.650
 5456POPC   NC329555  43.853  29.187   9.450
 5456POPC   PO429556  43.907  29.180   9.150
 5456POPC   GL129557  43.842  29.101   8.850
 5456POPC   GL229558  43.815  28.978   8.850
 5456POPC   C1A29559  43.881  29.160   8.550
 5456POPC   D2A29560  43.850  29.149   8.250
 5456POPC   C3A29561  43.923  29.187   7.950
 5456POPC   C4A29562  43.925  29.168   7.650
 5456POPC   C1B29563  43.828  28.912   8.550
 5456POPC   C2B29564  43.803  28.899   8.250
 5456POPC   C3B29565  43.776  28.869   7.950
 5456POPC   C4B29566  43.827  28.889   7.650
 5457POPC   NC329567  23.730  26.818   9.450
 5457POPC   PO429568  23.709  26.860   9.150
 5457POPC   GL129569  23.741  26.858   8.850
 5457POPC   GL229570  23.797  26.676   8.850
 5457POPC   C1A29571  23.705  26.850   8.550
 5457POPC   D2A29572  23.668  26.772   8.250
 5457POPC   C3A29573  23.677  26.786   7.950
 5457POPC   C4A29574  23.701  26.823   7.650
 5457POPC   C1B29575  23.917  26.615   8.550
 5457POPC   C2B29576  23.825  26.613   8.250
 5457POPC   C3B29577  23.854  26.610   7.950
 5457POPC   C4B29578  23.910  26.629   7.650
 5458POPC   NC329579  12.119  37.681   9.450
 5458POPC   PO429580  12.082  37.640   9.150
 5458POPC   GL129581  12.033  37.723   8.850
 5458POPC   GL229582  12.017  37.777   8.850
 5458POPC   C1A29583  12.116  37.637   8.550
 5458POPC   D2A29584  12.028  37.707   8.250
 5458POPC   C3A29585  12.108  37.640   7.950
 5458POPC   C4A29586  12.117  37.646   7.650
 5458POPC   C1B29587  11.967  37.882   8.550
 5458POPC   C2B29588  11.977  37.889   8.250
 5458POPC   C3B29589  11.971  37.921   7.950
 5458POPC   C4B29590  11.947  37.912   7.650
 5459POPC   NC329591  23.738  25.999   9.450
 5459POPC   PO429592  23.729  26.072   9.150
 5459POPC   GL129593  23.715  26.035   8.850
 5459POPC   GL229594  23.804  26.036   8.850
 5459POPC   C1A29595  23.697  26.081   8.550
 5459POPC   D2A29596  23.672  26.026   8.250
 5459POPC   C3A29597  23.743  26.009   7.950
 5459POPC   C4A29598  23.716  26.025   7.650
 5459POPC   C1B29599  23.945  26.039   8.550
 5459POPC   C2B29600  23.984  26.084   8.250
 5459POPC   C3B29601  23.996  26.043   7.950
 5459POPC   C4B29602  23.945  26.047   7.650
 5460POPC   NC329603  40.020  43.078   9.450
 5460POPC   PO429604  40.004  43.153   9.150
 5460POPC   GL129605  39.963  43.147   8.850
 5460POPC   GL229606  40.140  43.151   8.850
 5460POPC   C1A29607  40.040  43.073   8.550
 5460POPC   D2A29608  40.046  43.142   8.250
 5460POPC   C3A29609  40.047  43.131   7.950
 5460POPC   C4A29610  40.056  43.157   7.650
 5460POPC   C1B29611  40.134  43.310   8.550
 5460POPC   C2B29612  40.179  43.338   8.250
 5460POPC   C3B29613  40.192  43.315   7.950
 5460POPC   C4B29614  40.212  43.283   7.650
 5461POPC   NC329615  21.413  28.386   9.450
 5461POPC   PO429616  21.418  28.325   9.150
 5461POPC   GL129617  21.430  28.340   8.850
 5461POPC   GL229618  21.221  28.351   8.850
 5461POPC   C1A29619  21.427  28.338   8.550
 5461POPC   D2A29620  21.382  28.320   8.250
 5461POPC   C3A29621  21.400  28.398   7.950
 5461POPC   C4A29622  21.394  28.405   7.650
 5461POPC   C1B29623  21.182  28.380   8.550
 5461POPC   C2B29624  21.173  28.388   8.250
 5461POPC   C3B29625  21.144  28.371   7.950
 5461POPC   C4B29626  21.161  28.345   7.650
 5462POPC   NC329627  33.777  12.807   9.450
 5462POPC   PO429628  33.780  12.879   9.150
 5462POPC   GL129629  33.792  12.819   8.850
 5462POPC   GL229630  33.779  12.695   8.850
 5462POPC   C1A29631  33.791  12.807   8.550
 5462POPC   D2A29632  33.809  12.806   8.250
 5462POPC   C3A29633  33.807  12.882   7.950
 5462POPC   C4A29634  33.835  12.838   7.650
 5462POPC   C1B29635  33.716  12.614   8.550
 5462POPC   C2B29636  33.716  12.588   8.250
 5462POPC   C3B29637  33.785  12.585   7.950
 5462POPC   C4B29638  33.737  12.585   7.650
 5463POPC   NC329639  13.590  41.572   9.450
 5463POPC   PO429640  13.637  41.523   9.150
 5463POPC   GL129641  13.662  41.514   8.850
 5463POPC   GL229642  13.784  41.572   8.850
 5463POPC   C1A29643  13.634  41.531   8.550
 5463POPC   D2A29644  13.633  41.606   8.250
 5463POPC   C3A29645  13.638  41.556   7.950
 5463POPC   C4A29646  13.609  41.520   7.650
 5463POPC   C1B29647  13.847  41.483   8.550
 5463POPC   C2B29648  13.907  41.529   8.250
 5463POPC   C3B29649  13.899  41.486   7.950
 5463POPC   C4B29650  13.876  41.515   7.650
 5464POPC   NC329651   8.964  13.671   9.450
 5464POPC   PO429652   8.945  13.610   9.150
 5464POPC   GL129653   8.935  13.634   8.850
 5464POPC   GL229654   9.081  13.717   8.850
 5464POPC   C1A29655   8.925  13.627   8.550
 5464POPC   D2A29656   8.994  13.652   8.250
 5464POPC   C3A29657   9.006  13.584   7.950
 5464POPC   C4A29658   8.965  13.652   7.650
 5464POPC   C1B29659   9.183  13.778   8.550
 5464POPC   C2B29660   9.138  13.797   8.250
 5464POPC   C3B29661   9.182  13.746   7.950
 5464POPC   C4B29662   9.146  13.784   7.650
 5465POPC   NC329663  22.910  42.292   9.450
 5465POPC   PO429664  22.914  42.335   9.150
 5465POPC   GL129665  22.960  42.365   8.850
 5465POPC   GL229666  22.973  42.466   8.850
 5465POPC   C1A29667  22.902  42.367   8.550
 5465POPC   D2A29668  22.962  42.381   8.250
 5465POPC   C3A29669  22.918  42.357   7.950
 5465POPC   C4A29670  22.980  42.366   7.650
 5465POPC   C1B29671  23.092  42.576   8.550
 5465POPC   C2B29672  23.049  42.521   8.250
 5465POPC   C3B29673  23.069  42.583   7.950
 5465POPC   C4B29674  23.031  42.517   7.650
 5466POPC   NC329675  26.859   3.579   9.450
 5466POPC   PO429676  26.790   3.517   9.150
 5466POPC   GL129677  26.784   3.518   8.850
 5466POPC   GL229678  26.741   3.413   8.850
 5466POPC   C1A29679  26.791   3.569   8.550
 5466POPC   D2A29680  26.827   3.533   8.250
 5466POPC   C3A29681  26.822   3.517   7.950
 5466POPC   C4A29682  26.853   3.492   7.650
 5466POPC   C1B29683  26.701   3.376   8.550
 5466POPC   C2B29684  26.658   3.340   8.250
 5466POPC   C3B29685  26.701   3.340   7.950
 5466POPC   C4B29686  26.686   3.324   7.650
 5467POPC   NC329687   6.621  27.561   9.450
 5467POPC   PO429688   6.611  27.641   9.150
 5467POPC   GL129689   6.672  27.583   8.850
 5467POPC   GL229690   6.525  27.480   8.850
 5467POPC   C1A29691   6.675  27.638   8.550
 5467POPC   D2A29692   6.664  27.637   8.250
 5467POPC   C3A29693   6.683  27.591   7.950
 5467POPC   C4A29694   6.655  27.558   7.650
 5467POPC   C1B29695   6.429  27.444   8.550
 5467POPC   C2B29696   6.458  27.451   8.250
 5467POPC   C3B29697   6.424  27.455   7.950
 5467POPC   C4B29698   6.445  27.456   7.650
 5468POPC   NC329699  15.960  42.325   9.450
 5468POPC   PO429700  15.982  42.327   9.150
 5468POPC   GL129701  15.973  42.345   8.850
 5468POPC   GL229702  16.052  42.426   8.850
 5468POPC   C1A29703  15.997  42.309   8.550
 5468POPC   D2A29704  16.000  42.301   8.250
 5468POPC   C3A29705  15.977  42.324   7.950
 5468POPC   C4A29706  15.968  42.353   7.650
 5468POPC   C1B29707  16.136  42.554   8.550
 5468POPC   C2B29708  16.091  42.510   8.250
 5468POPC   C3B29709  16.128  42.458   7.950
 5468POPC   C4B29710  16.091  42.514   7.650
 5469POPC   NC329711  18.304  39.223   9.450
 5469POPC   PO429712  18.300  39.214   9.150
 5469POPC   GL129713  18.317  39.204   8.850
 5469POPC   GL229714  18.290  39.112   8.850
 5469POPC   C1A29715  18.282  39.227   8.550
 5469POPC   D2A29716  18.260  39.259   8.250
 5469POPC   C3A29717  18.300  39.231   7.950
 5469POPC   C4A29718  18.314  39.260   7.650
 5469POPC   C1B29719  18.303  38.991   8.550
 5469POPC   C2B29720  18.317  38.983   8.250
 5469POPC   C3B29721  18.254  38.993   7.950
 5469POPC   C4B29722  18.308  39.016   7.650
 5470POPC   NC329723   3.561  26.770   9.450
 5470POPC   PO429724   3.547  26.779   9.150
 5470POPC   GL129725   3.576  26.851   8.850
 5470POPC   GL229726   3.510  26.906   8.850
 5470POPC   C1A29727   3.580  26.852   8.550
 5470POPC   D2A29728   3.500  26.780   8.250
 5470POPC   C3A29729   3.492  26.821   7.950
 5470POPC   C4A29730   3.550  26.846   7.650
 5470POPC   C1B29731   3.388  27.047   8.550
 5470POPC   C2B29732   3.413  27.057   8.250
 5470POPC   C3B29733   3.405  27.026   7.950
 5470POPC   C4B29734   3.395  27.017   7.650
 5471POPC   NC329735  32.248  38.411   9.450
 5471POPC   PO429736  32.207  38.440   9.150
 5471POPC   GL129737  32.236  38.496   8.850
 5471POPC   GL229738  32.163  38.385   8.850
 5471POPC   C1A29739  32.230  38.412   8.550
 5471POPC   D2A29740  32.259  38.451   8.250
 5471POPC   C3A29741  32.247  38.502   7.950
 5471POPC   C4A29742  32.212  38.464   7.650
 5471POPC   C1B29743  32.061  38.216   8.550
 5471POPC   C2B29744  32.117  38.216   8.250
 5471POPC   C3B29745  32.063  38.307   7.950
 5471POPC   C4B29746  32.096  38.244   7.650
 5472POPC   NC329747  29.961  14.409   9.450
 5472POPC   PO429748  29.927  14.412   9.150
 5472POPC   GL129749  29.940  14.386   8.850
 5472POPC   GL229750  29.820  14.294   8.850
 5472POPC   C1A29751  29.924  14.364   8.550
 5472POPC   D2A29752  29.961  14.388   8.250
 5472POPC   C3A29753  29.962  14.394   7.950
 5472POPC   C4A29754  29.888  14.416   7.650
 5472POPC   C1B29755  29.736  14.258   8.550
 5472POPC   C2B29756  29.716  14.294   8.250
 5472POPC   C3B29757  29.652  14.318   7.950
 5472POPC   C4B29758  29.714  14.287   7.650
 5473POPC   NC329759   1.955  28.404   9.450
 5473POPC   PO429760   2.002  28.414   9.150
 5473POPC   GL129761   1.965  28.351   8.850
 5473POPC   GL229762   2.103  28.334   8.850
 5473POPC   C1A29763   1.978  28.375   8.550
 5473POPC   D2A29764   2.030  28.377   8.250
 5473POPC   C3A29765   1.950  28.349   7.950
 5473POPC   C4A29766   1.956  28.419   7.650
 5473POPC   C1B29767   2.186  28.275   8.550
 5473POPC   C2B29768   2.247  28.334   8.250
 5473POPC   C3B29769   2.227  28.300   7.950
 5473POPC   C4B29770   2.198  28.336   7.650
 5474POPC   NC329771  16.704   1.967   9.450
 5474POPC   PO429772  16.754   1.983   9.150
 5474POPC   GL129773  16.766   2.019   8.850
 5474POPC   GL229774  16.762   1.826   8.850
 5474POPC   C1A29775  16.733   2.004   8.550
 5474POPC   D2A29776  16.756   1.948   8.250
 5474POPC   C3A29777  16.715   1.990   7.950
 5474POPC   C4A29778  16.728   1.985   7.650
 5474POPC   C1B29779  16.825   1.785   8.550
 5474POPC   C2B29780  16.804   1.797   8.250
 5474POPC   C3B29781  16.792   1.785   7.950
 5474POPC   C4B29782  16.782   1.795   7.650
 5475POPC   NC329783  36.144  12.092   9.450
 5475POPC   PO429784  36.109  12.085   9.150
 5475POPC   GL129785  36.113  12.030   8.850
 5475POPC   GL229786  36.012  11.961   8.850
 5475POPC   C1A29787  36.097  12.072   8.550
 5475POPC   D2A29788  36.139  12.085   8.250
 5475POPC   C3A29789  36.100  12.084   7.950
 5475POPC   C4A29790  36.087  12.047   7.650
 5475POPC   C1B29791  35.902  11.935   8.550
 5475POPC   C2B29792  35.980  11.928   8.250
 5475POPC   C3B29793  35.909  11.947   7.950
 5475POPC   C4B29794  35.996  11.882   7.650
 5476POPC   NC329795  30.694  24.468   9.450
 5476POPC   PO429796  30.726  24.498   9.150
 5476POPC   GL129797  30.740  24.531   8.850
 5476POPC   GL229798  30.790  24.413   8.850
 5476POPC   C1A29799  30.662  24.528   8.550
 5476POPC   D2A29800  30.664  24.490   8.250
 5476POPC   C3A29801  30.667  24.509   7.950
 5476POPC   C4A29802  30.685  24.494   7.650
 5476POPC   C1B29803  30.869  24.341   8.550
 5476POPC   C2B29804  30.923  24.326   8.250
 5476POPC   C3B29805  30.883  24.372   7.950
 5476POPC   C4B29806  30.873  24.355   7.650
 5477POPC   NC329807  12.824  35.331   9.450
 5477POPC   PO429808  12.841  35.363   9.150
 5477POPC   GL129809  12.881  35.334   8.850
 5477POPC   GL229810  12.798  35.270   8.850
 5477POPC   C1A29811  12.840  35.312   8.550
 5477POPC   D2A29812  12.871  35.393   8.250
 5477POPC   C3A29813  12.809  35.347   7.950
 5477POPC   C4A29814  12.815  35.374   7.650
 5477POPC   C1B29815  12.797  35.059   8.550
 5477POPC   C2B29816  12.841  35.084   8.250
 5477POPC   C3B29817  12.765  35.115   7.950
 5477POPC   C4B29818  12.783  35.083   7.650
 5478POPC   NC329819   9.767  43.133   9.450
 5478POPC   PO429820   9.766  43.063   9.150
 5478POPC   GL129821   9.773  43.121   8.850
 5478POPC   GL229822   9.747  43.258   8.850
 5478POPC   C1A29823   9.740  43.103   8.550
 5478POPC   D2A29824   9.749  43.112   8.250
 5478POPC   C3A29825   9.717  43.091   7.950
 5478POPC   C4A29826   9.748  43.112   7.650
 5478POPC   C1B29827   9.727  43.379   8.550
 5478POPC   C2B29828   9.665  43.334   8.250
 5478POPC   C3B29829   9.714  43.338   7.950
 5478POPC   C4B29830   9.743  43.375   7.650
 5479POPC   NC329831  24.491  21.434   9.450
 5479POPC   PO429832  24.495  21.391   9.150
 5479POPC   GL129833  24.525  21.410   8.850
 5479POPC   GL229834  24.525  21.273   8.850
 5479POPC   C1A29835  24.449  21.397   8.550
 5479POPC   D2A29836  24.462  21.367   8.250
 5479POPC   C3A29837  24.443  21.340   7.950
 5479POPC   C4A29838  24.531  21.412   7.650
 5479POPC   C1B29839  24.596  21.224   8.550
 5479POPC   C2B29840  24.586  21.212   8.250
 5479POPC   C3B29841  24.647  21.198   7.950
 5479POPC   C4B29842  24.586  21.221   7.650
 5480POPC   NC329843   1.992   7.391   9.450
 5480POPC   PO429844   1.951   7.465   9.150
 5480POPC   GL129845   1.981   7.443   8.850
 5480POPC   GL229846   1.841   7.328   8.850
 5480POPC   C1A29847   1.941   7.428   8.550
 5480POPC   D2A29848   2.035   7.446   8.250
 5480POPC   C3A29849   2.010   7.395   7.950
 5480POPC   C4A29850   2.011   7.422   7.650
 5480POPC   C1B29851   1.719   7.320   8.550
 5480POPC   C2B29852   1.739   7.293   8.250
 5480POPC   C3B29853   1.766   7.359   7.950
 5480POPC   C4B29854   1.789   7.327   7.650
 5481POPC   NC329855   2.026  17.519   9.450
 5481POPC   PO429856   1.981  17.459   9.150
 5481POPC   GL129857   1.970  17.491   8.850
 5481POPC   GL229858   2.005  17.626   8.850
 5481POPC   C1A29859   1.983  17.513   8.550
 5481POPC   D2A29860   2.016  17.503   8.250
 5481POPC   C3A29861   2.034  17.556   7.950
 5481POPC   C4A29862   2.030  17.472   7.650
 5481POPC   C1B29863   1.925  17.750   8.550
 5481POPC   C2B29864   1.934  17.798   8.250
 5481POPC   C3B29865   1.929  17.787   7.950
 5481POPC   C4B29866   1.973  17.778   7.650
 5482POPC   NC329867  28.381  22.123   9.450
 5482POPC   PO429868  28.413  22.173   9.150
 5482POPC   GL129869  28.371  22.121   8.850
 5482POPC   GL229870  28.329  22.289   8.850
 5482POPC   C1A29871  28.407  22.195   8.550
 5482POPC   D2A29872  28.401  22.203   8.250
 5482POPC   C3A29873  28.342  22.209   7.950
 5482POPC   C4A29874  28.368  22.133   7.650
 5482POPC   C1B29875  28.319  22.378   8.550
 5482POPC   C2B29876  28.311  22.395   8.250
 5482POPC   C3B29877  28.301  22.413   7.950
 5482POPC   C4B29878  28.389  22.448   7.650
 5483POPC   NC329879   5.135   3.546   9.450
 5483POPC   PO429880   5.058   3.591   9.150
 5483POPC   GL129881   5.128   3.498   8.850
 5483POPC   GL229882   5.049   3.383   8.850
 5483POPC   C1A29883   5.060   3.531   8.550
 5483POPC   D2A29884   5.116   3.546   8.250
 5483POPC   C3A29885   5.079   3.535   7.950
 5483POPC   C4A29886   5.104   3.555   7.650
 5483POPC   C1B29887   5.107   3.327   8.550
 5483POPC   C2B29888   5.074   3.242   8.250
 5483POPC   C3B29889   5.137   3.253   7.950
 5483POPC   C4B29890   5.145   3.321   7.650
 5484POPC   NC329891  18.235  28.397   9.450
 5484POPC   PO429892  18.307  28.322   9.150
 5484POPC   GL129893  18.266  28.412   8.850
 5484POPC   GL229894  18.146  28.324   8.850
 5484POPC   C1A29895  18.273  28.350   8.550
 5484POPC   D2A29896  18.258  28.415   8.250
 5484POPC   C3A29897  18.268  28.357   7.950
 5484POPC   C4A29898  18.298  28.402   7.650
 5484POPC   C1B29899  17.998  28.306   8.550
 5484POPC   C2B29900  18.077  28.273   8.250
 5484POPC   C3B29901  18.043  28.299   7.950
 5484POPC   C4B29902  18.064  28.286   7.650
 5485POPC   NC329903  10.529  42.371   9.450
 5485POPC   PO429904  10.533  42.345   9.150
 5485POPC   GL129905  10.484  42.296   8.850
 5485POPC   GL229906  10.422  42.433   8.850
 5485POPC   C1A29907  10.529  42.302   8.550
 5485POPC   D2A29908  10.499  42.318   8.250
 5485POPC   C3A29909  10.543  42.312   7.950
 5485POPC   C4A29910  10.501  42.371   7.650
 5485POPC   C1B29911  10.342  42.424   8.550
 5485POPC   C2B29912  10.280  42.398   8.250
 5485POPC   C3B29913  10.323  42.479   7.950
 5485POPC   C4B29914  10.268  42.440   7.650
 5486POPC   NC329915   5.903  32.241   9.450
 5486POPC   PO429916   5.853  32.217   9.150
 5486POPC   GL129917   5.869  32.283   8.850
 5486POPC   GL229918   5.740  32.159   8.850
 5486POPC   C1A29919   5.881  32.203   8.550
 5486POPC   D2A29920   5.870  32.260   8.250
 5486POPC   C3A29921   5.871  32.216   7.950
 5486POPC   C4A29922   5.892  32.252   7.650
 5486POPC   C1B29923   5.678  32.071   8.550
 5486POPC   C2B29924   5.655  32.117   8.250
 5486POPC   C3B29925   5.701  32.050   7.950
 5486POPC   C4B29926   5.676  32.097   7.650
 5487POPC   NC329927  30.681  11.331   9.450
 5487POPC   PO429928  30.728  11.342   9.150
 5487POPC   GL129929  30.709  11.314   8.850
 5487POPC   GL229930  30.579  11.235   8.850
 5487POPC   C1A29931  30.708  11.330   8.550
 5487POPC   D2A29932  30.725  11.284   8.250
 5487POPC   C3A29933  30.648  11.260   7.950
 5487POPC   C4A29934  30.685  11.336   7.650
 5487POPC   C1B29935  30.512  11.072   8.550
 5487POPC   C2B29936  30.559  11.139   8.250
 5487POPC   C3B29937  30.569  11.129   7.950
 5487POPC   C4B29938  30.500  11.103   7.650
 5488POPC   NC329939  20.613  32.269   9.450
 5488POPC   PO429940  20.659  32.234   9.150
 5488POPC   GL129941  20.566  32.285   8.850
 5488POPC   GL229942  20.555  32.128   8.850
 5488POPC   C1A29943  20.648  32.220   8.550
 5488POPC   D2A29944  20.634  32.223   8.250
 5488POPC   C3A29945  20.588  32.275   7.950
 5488POPC   C4A29946  20.627  32.235   7.650
 5488POPC   C1B29947  20.490  32.091   8.550
 5488POPC   C2B29948  20.430  32.070   8.250
 5488POPC   C3B29949  20.431  32.016   7.950
 5488POPC   C4B29950  20.414  32.025   7.650
 5489POPC   NC329951  20.578   9.790   9.450
 5489POPC   PO429952  20.643   9.788   9.150
 5489POPC   GL129953  20.612   9.760   8.850
 5489POPC   GL229954  20.733   9.654   8.850
 5489POPC   C1A29955  20.605   9.745   8.550
 5489POPC   D2A29956  20.567   9.707   8.250
 5489POPC   C3A29957  20.573   9.795   7.950
 5489POPC   C4A29958  20.565   9.701   7.650
 5489POPC   C1B29959  20.838   9.652   8.550
 5489POPC   C2B29960  20.779   9.655   8.250
 5489POPC   C3B29961  20.839   9.626   7.950
 5489POPC   C4B29962  20.836   9.570   7.650
 5490POPC   NC329963  19.786  18.274   9.450
 5490POPC   PO429964  19.854  18.323   9.150
 5490POPC   GL129965  19.869  18.289   8.850
 5490POPC   GL229966  19.736  18.222   8.850
 5490POPC   C1A29967  19.879  18.286   8.550
 5490POPC   D2A29968  19.875  18.283   8.250
 5490POPC   C3A29969  19.843  18.277   7.950
 5490POPC   C4A29970  19.845  18.242   7.650
 5490POPC   C1B29971  19.653  18.154   8.550
 5490POPC   C2B29972  19.595  18.182   8.250
 5490POPC   C3B29973  19.657  18.104   7.950
 5490POPC   C4B29974  19.662  18.124   7.650
 5491POPC   NC329975   5.827  17.542   9.450
 5491POPC   PO429976   5.910  17.463   9.150
 5491POPC   GL129977   5.844  17.495   8.850
 5491POPC   GL229978   5.818  17.613   8.850
 5491POPC   C1A29979   5.891  17.505   8.550
 5491POPC   D2A29980   5.888  17.467   8.250
 5491POPC   C3A29981   5.860  17.481   7.950
 5491POPC   C4A29982   5.843  17.522   7.650
 5491POPC   C1B29983   5.752  17.685   8.550
 5491POPC   C2B29984   5.729  17.701   8.250
 5491POPC   C3B29985   5.762  17.694   7.950
 5491POPC   C4B29986   5.714  17.713   7.650
 5492POPC   NC329987  16.000  33.066   9.450
 5492POPC   PO429988  15.987  32.999   9.150
 5492POPC   GL129989  15.925  32.987   8.850
 5492POPC   GL229990  15.952  33.183   8.850
 5492POPC   C1A29991  15.917  33.062   8.550
 5492POPC   D2A29992  15.966  33.006   8.250
 5492POPC   C3A29993  15.998  33.074   7.950
 5492POPC   C4A29994  16.004  33.054   7.650
 5492POPC   C1B29995  15.981  33.314   8.550
 5492POPC   C2B29996  15.985  33.290   8.250
 5492POPC   C3B29997  15.997  33.276   7.950
 5492POPC   C4B29998  16.002  33.238   7.650
 5493POPC   NC329999  22.889  16.700   9.450
 5493POPC   PO430000  22.942  16.717   9.150
 5493POPC   GL130001  22.964  16.777   8.850
 5493POPC   GL230002  23.053  16.837   8.850
 5493POPC   C1A30003  22.888  16.750   8.550
 5493POPC   D2A30004  22.890  16.715   8.250
 5493POPC   C3A30005  22.891  16.736   7.950
 5493POPC   C4A30006  22.910  16.745   7.650
 5493POPC   C1B30007  23.135  16.880   8.550
 5493POPC   C2B30008  23.090  16.851   8.250
 5493POPC   C3B30009  23.134  16.880   7.950
 5493POPC   C4B30010  23.090  16.854   7.650
 5494POPC   NC330011  41.519  33.030   9.450
 5494POPC   PO430012  41.605  33.032   9.150
 5494POPC   GL130013  41.542  33.025   8.850
 5494POPC   GL230014  41.527  32.954   8.850
 5494POPC   C1A30015  41.604  33.028   8.550
 5494POPC   D2A30016  41.514  33.023   8.250
 5494POPC   C3A30017  41.523  33.023   7.950
 5494POPC   C4A30018  41.580  33.041   7.650
 5494POPC   C1B30019  41.422  32.775   8.550
 5494POPC   C2B30020  41.494  32.780   8.250
 5494POPC   C3B30021  41.409  32.790   7.950
 5494POPC   C4B30022  41.411  32.773   7.650
 5495POPC   NC330023  27.545  27.577   9.450
 5495POPC   PO430024  27.603  27.561   9.150
 5495POPC   GL130025  27.625  27.630   8.850
 5495POPC   GL230026  27.489  27.746   8.850
 5495POPC   C1A30027  27.617  27.563   8.550
 5495POPC   D2A30028  27.585  27.579   8.250
 5495POPC   C3A30029  27.616  27.580   7.950
 5495POPC   C4A30030  27.552  27.604   7.650
 5495POPC   C1B30031  27.463  27.768   8.550
 5495POPC   C2B30032  27.451  27.846   8.250
 5495POPC   C3B30033  27.439  27.812   7.950
 5495POPC   C4B30034  27.422  27.838   7.650
 5496POPC   NC330035   5.889  11.335   9.450
 5496POPC   PO430036   5.844  11.280   9.150
 5496POPC   GL130037   5.910  11.297   8.850
 5496POPC   GL230038   5.870  11.200   8.850
 5496POPC   C1A30039   5.841  11.342   8.550
 5496POPC   D2A30040   5.891  11.338   8.250
 5496POPC   C3A30041   5.861  11.332   7.950
 5496POPC   C4A30042   5.829  11.296   7.650
 5496POPC   C1B30043   5.802  11.055   8.550
 5496POPC   C2B30044   5.815  11.032   8.250
 5496POPC   C3B30045   5.881  11.014   7.950
 5496POPC   C4B30046   5.884  11.068   7.650
 5497POPC   NC330047  26.039   0.424   9.450
 5497POPC   PO430048  26.041   0.467   9.150
 5497POPC   GL130049  26.017   0.452   8.850
 5497POPC   GL230050  25.984   0.534   8.850
 5497POPC   C1A30051  26.024   0.466   8.550
 5497POPC   D2A30052  26.086   0.426   8.250
 5497POPC   C3A30053  26.037   0.400   7.950
 5497POPC   C4A30054  26.042   0.452   7.650
 5497POPC   C1B30055  25.811   0.599   8.550
 5497POPC   C2B30056  25.805   0.631   8.250
 5497POPC   C3B30057  25.851   0.593   7.950
 5497POPC   C4B30058  25.893   0.593   7.650
 5498POPC   NC330059  40.735  26.826   9.450
 5498POPC   PO430060  40.827  26.793   9.150
 5498POPC   GL130061  40.802  26.814   8.850
 5498POPC   GL230062  40.886  26.747   8.850
 5498POPC   C1A30063  40.739  26.836   8.550
 5498POPC   D2A30064  40.736  26.866   8.250
 5498POPC   C3A30065  40.794  26.791   7.950
 5498POPC   C4A30066  40.743  26.767   7.650
 5498POPC   C1B30067  41.011  26.763   8.550
 5498POPC   C2B30068  41.049  26.728   8.250
 5498POPC   C3B30069  41.038  26.779   7.950
 5498POPC   C4B30070  41.029  26.782   7.650
 5499POPC   NC330071   5.141  44.619   9.450
 5499POPC   PO430072   5.105  44.688   9.150
 5499POPC   GL130073   5.048  44.710   8.850
 5499POPC   GL230074   4.982  44.751   8.850
 5499POPC   C1A30075   5.068  44.688   8.550
 5499POPC   D2A30076   5.058  44.614   8.250
 5499POPC   C3A30077   5.095  44.666   7.950
 5499POPC   C4A30078   5.064  44.642   7.650
 5499POPC   C1B30079   4.925  44.810   8.550
 5499POPC   C2B30080   4.921  44.831   8.250
 5499POPC   C3B30081   4.946  44.832   7.950
 5499POPC   C4B30082   4.977  44.862   7.650
 5500POPC   NC330083  12.063  44.617   9.450
 5500POPC   PO430084  12.122  44.701   9.150
 5500POPC   GL130085  12.094  44.685   8.850
 5500POPC   GL230086  11.919  44.683   8.850
 5500POPC   C1A30087  12.066  44.675   8.550
 5500POPC   D2A30088  12.115  44.647   8.250
 5500POPC   C3A30089  12.031  44.682   7.950
 5500POPC   C4A30090  12.106  44.617   7.650
 5500POPC   C1B30091  11.787  44.629   8.550
 5500POPC   C2B30092  11.802  44.672   8.250
 5500POPC   C3B30093  11.802  44.714   7.950
 5500POPC   C4B30094  11.864  44.680   7.650
 5501POPC   NC330095  13.646  37.646   9.450
 5501POPC   PO430096  13.675  37.701   9.150
 5501POPC   GL130097  13.646  37.659   8.850
 5501POPC   GL230098  13.594  37.516   8.850
 5501POPC   C1A30099  13.626  37.725   8.550
 5501POPC   D2A30100  13.581  37.719   8.250
 5501POPC   C3A30101  13.598  37.715   7.950
 5501POPC   C4A30102  13.668  37.642   7.650
 5501POPC   C1B30103  13.546  37.491   8.550
 5501POPC   C2B30104  13.473  37.415   8.250
 5501POPC   C3B30105  13.504  37.489   7.950
 5501POPC   C4B30106  13.568  37.421   7.650
 5502POPC   NC330107  10.566  11.328   9.450
 5502POPC   PO430108  10.534  11.326   9.150
 5502POPC   GL130109  10.500  11.284   8.850
 5502POPC   GL230110  10.441  11.291   8.850
 5502POPC   C1A30111  10.504  11.291   8.550
 5502POPC   D2A30112  10.508  11.318   8.250
 5502POPC   C3A30113  10.543  11.321   7.950
 5502POPC   C4A30114  10.553  11.282   7.650
 5502POPC   C1B30115  10.245  11.365   8.550
 5502POPC   C2B30116  10.241  11.357   8.250
 5502POPC   C3B30117  10.247  11.376   7.950
 5502POPC   C4B30118  10.337  11.343   7.650
 5503POPC   NC330119   9.002   9.752   9.450
 5503POPC   PO430120   8.983   9.784   9.150
 5503POPC   GL130121   8.997   9.752   8.850
 5503POPC   GL230122   8.865   9.660   8.850
 5503POPC   C1A30123   8.946   9.725   8.550
 5503POPC   D2A30124   8.992   9.758   8.250
 5503POPC   C3A30125   8.933   9.733   7.950
 5503POPC   C4A30126   8.967   9.700   7.650
 5503POPC   C1B30127   8.815   9.560   8.550
 5503POPC   C2B30128   8.729   9.588   8.250
 5503POPC   C3B30129   8.789   9.599   7.950
 5503POPC   C4B30130   8.730   9.556   7.650
 5504POPC   NC330131  13.592  14.453   9.450
 5504POPC   PO430132  13.600  14.439   9.150
 5504POPC   GL130133  13.604  14.440   8.850
 5504POPC   GL230134  13.527  14.284   8.850
 5504POPC   C1A30135  13.649  14.366   8.550
 5504POPC   D2A30136  13.622  14.445   8.250
 5504POPC   C3A30137  13.586  14.433   7.950
 5504POPC   C4A30138  13.641  14.407   7.650
 5504POPC   C1B30139  13.507  14.196   8.550
 5504POPC   C2B30140  13.508  14.219   8.250
 5504POPC   C3B30141  13.432  14.180   7.950
 5504POPC   C4B30142  13.423  14.177   7.650
 5505POPC   NC330143  39.260   1.985   9.450
 5505POPC   PO430144  39.239   2.037   9.150
 5505POPC   GL130145  39.211   1.976   8.850
 5505POPC   GL230146  39.225   1.914   8.850
 5505POPC   C1A30147  39.280   1.954   8.550
 5505POPC   D2A30148  39.222   1.979   8.250
 5505POPC   C3A30149  39.210   1.942   7.950
 5505POPC   C4A30150  39.261   1.979   7.650
 5505POPC   C1B30151  39.190   1.745   8.550
 5505POPC   C2B30152  39.224   1.745   8.250
 5505POPC   C3B30153  39.223   1.697   7.950
 5505POPC   C4B30154  39.185   1.698   7.650
 5506POPC   NC330155   4.270  20.619   9.450
 5506POPC   PO430156   4.350  20.586   9.150
 5506POPC   GL130157   4.278  20.587   8.850
 5506POPC   GL230158   4.444  20.568   8.850
 5506POPC   C1A30159   4.315  20.648   8.550
 5506POPC   D2A30160   4.346  20.659   8.250
 5506POPC   C3A30161   4.309  20.589   7.950
 5506POPC   C4A30162   4.282  20.614   7.650
 5506POPC   C1B30163   4.507  20.488   8.550
 5506POPC   C2B30164   4.488  20.408   8.250
 5506POPC   C3B30165   4.521  20.413   7.950
 5506POPC   C4B30166   4.531  20.492   7.650
 5507POPC   NC330167  40.033  25.282   9.450
 5507POPC   PO430168  39.968  25.298   9.150
 5507POPC   GL130169  40.035  25.292   8.850
 5507POPC   GL230170  40.009  25.395   8.850
 5507POPC   C1A30171  40.044  25.293   8.550
 5507POPC   D2A30172  39.985  25.234   8.250
 5507POPC   C3A30173  40.048  25.218   7.950
 5507POPC   C4A30174  40.028  25.302   7.650
 5507POPC   C1B30175  39.941  25.554   8.550
 5507POPC   C2B30176  39.919  25.554   8.250
 5507POPC   C3B30177  39.963  25.467   7.950
 5507POPC   C4B30178  39.971  25.526   7.650
 5508POPC   NC330179  39.218  19.028   9.450
 5508POPC   PO430180  39.199  19.078   9.150
 5508POPC   GL130181  39.253  19.095   8.850
 5508POPC   GL230182  39.156  18.985   8.850
 5508POPC   C1A30183  39.182  19.027   8.550
 5508POPC   D2A30184  39.229  19.009   8.250
 5508POPC   C3A30185  39.214  19.025   7.950
 5508POPC   C4A30186  39.192  19.081   7.650
 5508POPC   C1B30187  39.076  18.888   8.550
 5508POPC   C2B30188  39.001  18.953   8.250
 5508POPC   C3B30189  39.036  18.871   7.950
 5508POPC   C4B30190  39.062  18.915   7.650
 5509POPC   NC330191  31.444  35.341   9.450
 5509POPC   PO430192  31.427  35.384   9.150
 5509POPC   GL130193  31.453  35.336   8.850
 5509POPC   GL230194  31.327  35.400   8.850
 5509POPC   C1A30195  31.424  35.303   8.550
 5509POPC   D2A30196  31.478  35.337   8.250
 5509POPC   C3A30197  31.485  35.304   7.950
 5509POPC   C4A30198  31.517  35.328   7.650
 5509POPC   C1B30199  31.197  35.439   8.550
 5509POPC   C2B30200  31.254  35.457   8.250
 5509POPC   C3B30201  31.227  35.487   7.950
 5509POPC   C4B30202  31.198  35.433   7.650
 5510POPC   NC330203   8.979  17.532   9.450
 5510POPC   PO430204   9.017  17.462   9.150
 5510POPC   GL130205   9.008  17.503   8.850
 5510POPC   GL230206   9.040  17.408   8.850
 5510POPC   C1A30207   8.923  17.476   8.550
 5510POPC   D2A30208   8.995  17.556   8.250
 5510POPC   C3A30209   8.990  17.530   7.950
 5510POPC   C4A30210   9.006  17.544   7.650
 5510POPC   C1B30211   9.101  17.298   8.550
 5510POPC   C2B30212   9.106  17.308   8.250
 5510POPC   C3B30213   9.118  17.357   7.950
 5510POPC   C4B30214   9.146  17.364   7.650
 5511POPC   NC330215   8.934  39.190   9.450
 5511POPC   PO430216   9.009  39.228   9.150
 5511POPC   GL130217   9.022  39.197   8.850
 5511POPC   GL230218   9.061  39.141   8.850
 5511POPC   C1A30219   8.996  39.210   8.550
 5511POPC   D2A30220   9.014  39.199   8.250
 5511POPC   C3A30221   9.010  39.198   7.950
 5511POPC   C4A30222   9.000  39.241   7.650
 5511POPC   C1B30223   9.112  39.047   8.550
 5511POPC   C2B30224   9.087  39.011   8.250
 5511POPC   C3B30225   9.152  39.035   7.950
 5511POPC   C4B30226   9.134  39.085   7.650
 5512POPC   NC330227  19.034   1.169   9.450
 5512POPC   PO430228  19.100   1.235   9.150
 5512POPC   GL130229  19.054   1.208   8.850
 5512POPC   GL230230  19.117   1.138   8.850
 5512POPC   C1A30231  19.032   1.262   8.550
 5512POPC   D2A30232  19.108   1.240   8.250
 5512POPC   C3A30233  19.071   1.207   7.950
 5512POPC   C4A30234  19.087   1.194   7.650
 5512POPC   C1B30235  19.127   0.951   8.550
 5512POPC   C2B30236  19.178   1.009   8.250
 5512POPC   C3B30237  19.088   0.977   7.950
 5512POPC   C4B30238  19.170   0.951   7.650
 5513POPC   NC330239   9.774  22.123   9.450
 5513POPC   PO430240   9.779  22.148   9.150
 5513POPC   GL130241   9.764  22.133   8.850
 5513POPC   GL230242   9.852  22.224   8.850
 5513POPC   C1A30243   9.764  22.149   8.550
 5513POPC   D2A30244   9.720  22.207   8.250
 5513POPC   C3A30245   9.760  22.137   7.950
 5513POPC   C4A30246   9.740  22.171   7.650
 5513POPC   C1B30247   9.845  22.357   8.550
 5513POPC   C2B30248   9.825  22.356   8.250
 5513POPC   C3B30249   9.874  22.409   7.950
 5513POPC   C4B30250   9.893  22.419   7.650
 5514POPC   NC330251   8.941  16.749   9.450
 5514POPC   PO430252   8.984  16.780   9.150
 5514POPC   GL130253   8.926  16.772   8.850
 5514POPC   GL230254   8.868  16.828   8.850
 5514POPC   C1A30255   8.969  16.772   8.550
 5514POPC   D2A30256   8.977  16.761   8.250
 5514POPC   C3A30257   9.001  16.696   7.950
 5514POPC   C4A30258   9.001  16.699   7.650
 5514POPC   C1B30259   8.765  16.939   8.550
 5514POPC   C2B30260   8.804  16.880   8.250
 5514POPC   C3B30261   8.797  16.850   7.950
 5514POPC   C4B30262   8.742  16.883   7.650
 5515POPC   NC330263  39.223   8.196   9.450
 5515POPC   PO430264  39.205   8.219   9.150
 5515POPC   GL130265  39.245   8.148   8.850
 5515POPC   GL230266  39.377   8.133   8.850
 5515POPC   C1A30267  39.238   8.193   8.550
 5515POPC   D2A30268  39.246   8.219   8.250
 5515POPC   C3A30269  39.244   8.233   7.950
 5515POPC   C4A30270  39.234   8.241   7.650
 5515POPC   C1B30271  39.439   8.070   8.550
 5515POPC   C2B30272  39.508   8.088   8.250
 5515POPC   C3B30273  39.421   8.080   7.950
 5515POPC   C4B30274  39.453   8.152   7.650
 5516POPC   NC330275  22.973   5.863   9.450
 5516POPC   PO430276  22.926   5.836   9.150
 5516POPC   GL130277  22.985   5.888   8.850
 5516POPC   GL230278  22.844   5.943   8.850
 5516POPC   C1A30279  22.935   5.872   8.550
 5516POPC   D2A30280  22.914   5.918   8.250
 5516POPC   C3A30281  22.897   5.864   7.950
 5516POPC   C4A30282  22.944   5.840   7.650
 5516POPC   C1B30283  22.680   5.954   8.550
 5516POPC   C2B30284  22.662   5.937   8.250
 5516POPC   C3B30285  22.744   5.926   7.950
 5516POPC   C4B30286  22.674   5.993   7.650
 5517POPC   NC330287   0.450  32.279   9.450
 5517POPC   PO430288   0.421  32.206   9.150
 5517POPC   GL130289   0.469  32.289   8.850
 5517POPC   GL230290   0.474  32.342   8.850
 5517POPC   C1A30291   0.444  32.259   8.550
 5517POPC   D2A30292   0.483  32.213   8.250
 5517POPC   C3A30293   0.474  32.203   7.950
 5517POPC   C4A30294   0.403  32.297   7.650
 5517POPC   C1B30295   0.412  32.471   8.550
 5517POPC   C2B30296   0.400  32.541   8.250
 5517POPC   C3B30297   0.372  32.522   7.950
 5517POPC   C4B30298   0.453  32.544   7.650
 5518POPC   NC330299   6.675   8.209   9.450
 5518POPC   PO430300   6.616   8.202   9.150
 5518POPC   GL130301   6.627   8.239   8.850
 5518POPC   GL230302   6.809   8.242   8.850
 5518POPC   C1A30303   6.677   8.163   8.550
 5518POPC   D2A30304   6.629   8.225   8.250
 5518POPC   C3A30305   6.628   8.172   7.950
 5518POPC   C4A30306   6.692   8.172   7.650
 5518POPC   C1B30307   6.910   8.243   8.550
 5518POPC   C2B30308   6.934   8.291   8.250
 5518POPC   C3B30309   6.937   8.248   7.950
 5518POPC   C4B30310   6.850   8.272   7.650
 5519POPC   NC330311  33.021  12.867   9.450
 5519POPC   PO430312  33.036  12.858   9.150
 5519POPC   GL130313  33.014  12.832   8.850
 5519POPC   GL230314  32.944  12.790   8.850
 5519POPC   C1A30315  33.071  12.862   8.550
 5519POPC   D2A30316  33.013  12.806   8.250
 5519POPC   C3A30317  32.991  12.813   7.950
 5519POPC   C4A30318  33.049  12.827   7.650
 5519POPC   C1B30319  32.815  12.814   8.550
 5519POPC   C2B30320  32.826  12.769   8.250
 5519POPC   C3B30321  32.735  12.764   7.950
 5519POPC   C4B30322  32.767  12.814   7.650
 5520POPC   NC330323  38.476  41.593   9.450
 5520POPC   PO430324  38.443  41.542   9.150
 5520POPC   GL130325  38.488  41.577   8.850
 5520POPC   GL230326  38.394  41.712   8.850
 5520POPC   C1A30327  38.455  41.558   8.550
 5520POPC   D2A30328  38.471  41.528   8.250
 5520POPC   C3A30329  38.448  41.559   7.950
 5520POPC   C4A30330  38.467  41.549   7.650
 5520POPC   C1B30331  38.309  41.781   8.550
 5520POPC   C2B30332  38.333  41.744   8.250
 5520POPC   C3B30333  38.317  41.826   7.950
 5520POPC   C4B30334  38.403  41.753   7.650
 5521POPC   NC330335  40.752   5.129   9.450
 5521POPC   PO430336  40.773   5.098   9.150
 5521POPC   GL130337  40.830   5.137   8.850
 5521POPC   GL230338  40.674   5.004   8.850
 5521POPC   C1A30339  40.739   5.057   8.550
 5521POPC   D2A30340  40.800   5.120   8.250
 5521POPC   C3A30341  40.794   5.136   7.950
 5521POPC   C4A30342  40.741   5.065   7.650
 5521POPC   C1B30343  40.622   4.968   8.550
 5521POPC   C2B30344  40.579   4.907   8.250
 5521POPC   C3B30345  40.609   4.902   7.950
 5521POPC   C4B30346  40.593   4.986   7.650
 5522POPC   NC330347  29.098  36.126   9.450
 5522POPC   PO430348  29.162  36.106   9.150
 5522POPC   GL130349  29.147  36.158   8.850
 5522POPC   GL230350  29.039  36.225   8.850
 5522POPC   C1A30351  29.171  36.138   8.550
 5522POPC   D2A30352  29.134  36.081   8.250
 5522POPC   C3A30353  29.195  36.148   7.950
 5522POPC   C4A30354  29.104  36.138   7.650
 5522POPC   C1B30355  29.000  36.301   8.550
 5522POPC   C2B30356  29.007  36.342   8.250
 5522POPC   C3B30357  28.951  36.316   7.950
 5522POPC   C4B30358  28.991  36.257   7.650
 5523POPC   NC330359  13.583  43.921   9.450
 5523POPC   PO430360  13.599  43.914   9.150
 5523POPC   GL130361  13.637  43.917   8.850
 5523POPC   GL230362  13.663  43.828   8.850
 5523POPC   C1A30363  13.616  43.887   8.550
 5523POPC   D2A30364  13.665  43.887   8.250
 5523POPC   C3A30365  13.591  43.840   7.950
 5523POPC   C4A30366  13.616  43.868   7.650
 5523POPC   C1B30367  13.806  43.645   8.550
 5523POPC   C2B30368  13.720  43.650   8.250
 5523POPC   C3B30369  13.785  43.659   7.950
 5523POPC   C4B30370  13.723  43.636   7.650
 5524POPC   NC330371  18.272  40.045   9.450
 5524POPC   PO430372  18.246  40.020   9.150
 5524POPC   GL130373  18.299  40.025   8.850
 5524POPC   GL230374  18.352  39.843   8.850
 5524POPC   C1A30375  18.276  39.985   8.550
 5524POPC   D2A30376  18.278  40.046   8.250
 5524POPC   C3A30377  18.235  40.010   7.950
 5524POPC   C4A30378  18.288  40.007   7.650
 5524POPC   C1B30379  18.317  39.720   8.550
 5524POPC   C2B30380  18.353  39.772   8.250
 5524POPC   C3B30381  18.354  39.731   7.950
 5524POPC   C4B30382  18.356  39.759   7.650
 5525POPC   NC330383  25.234   8.954   9.450
 5525POPC   PO430384  25.311   8.932   9.150
 5525POPC   GL130385  25.256   8.973   8.850
 5525POPC   GL230386  25.280   8.821   8.850
 5525POPC   C1A30387  25.267   8.982   8.550
 5525POPC   D2A30388  25.231   9.007   8.250
 5525POPC   C3A30389  25.311   8.985   7.950
 5525POPC   C4A30390  25.279   8.949   7.650
 5525POPC   C1B30391  25.409   8.754   8.550
 5525POPC   C2B30392  25.323   8.789   8.250
 5525POPC   C3B30393  25.345   8.701   7.950
 5525POPC   C4B30394  25.402   8.699   7.650
 5526POPC   NC330395  26.055  17.502   9.450
 5526POPC   PO430396  25.996  17.477   9.150
 5526POPC   GL130397  26.070  17.513   8.850
 5526POPC   GL230398  25.890  17.617   8.850
 5526POPC   C1A30399  26.012  17.536   8.550
 5526POPC   D2A30400  26.020  17.520   8.250
 5526POPC   C3A30401  26.014  17.474   7.950
 5526POPC   C4A30402  26.025  17.498   7.650
 5526POPC   C1B30403  25.802  17.629   8.550
 5526POPC   C2B30404  25.820  17.628   8.250
 5526POPC   C3B30405  25.864  17.616   7.950
 5526POPC   C4B30406  25.844  17.635   7.650
 5527POPC   NC330407  42.287  35.370   9.450
 5527POPC   PO430408  42.363  35.365   9.150
 5527POPC   GL130409  42.332  35.369   8.850
 5527POPC   GL230410  42.367  35.253   8.850
 5527POPC   C1A30411  42.331  35.363   8.550
 5527POPC   D2A30412  42.333  35.355   8.250
 5527POPC   C3A30413  42.347  35.327   7.950
 5527POPC   C4A30414  42.313  35.351   7.650
 5527POPC   C1B30415  42.492  35.136   8.550
 5527POPC   C2B30416  42.434  35.103   8.250
 5527POPC   C3B30417  42.474  35.143   7.950
 5527POPC   C4B30418  42.510  35.157   7.650
 5528POPC   NC330419   1.994   1.180   9.450
 5528POPC   PO430420   1.987   1.198   9.150
 5528POPC   GL130421   1.975   1.217   8.850
 5528POPC   GL230422   1.889   1.352   8.850
 5528POPC   C1A30423   2.026   1.243   8.550
 5528POPC   D2A30424   1.971   1.248   8.250
 5528POPC   C3A30425   1.977   1.172   7.950
 5528POPC   C4A30426   1.972   1.214   7.650
 5528POPC   C1B30427   1.858   1.437   8.550
 5528POPC   C2B30428   1.865   1.416   8.250
 5528POPC   C3B30429   1.899   1.484   7.950
 5528POPC   C4B30430   1.863   1.389   7.650
 5529POPC   NC330431  22.116  22.132   9.450
 5529POPC   PO430432  22.192  22.121   9.150
 5529POPC   GL130433  22.171  22.144   8.850
 5529POPC   GL230434  22.207  22.079   8.850
 5529POPC   C1A30435  22.179  22.173   8.550
 5529POPC   D2A30436  22.205  22.115   8.250
 5529POPC   C3A30437  22.132  22.191   7.950
 5529POPC   C4A30438  22.145  22.207   7.650
 5529POPC   C1B30439  22.340  22.046   8.550
 5529POPC   C2B30440  22.320  22.020   8.250
 5529POPC   C3B30441  22.301  22.021   7.950
 5529POPC   C4B30442  22.335  22.038   7.650
 5530POPC   NC330443  40.819  21.396   9.450
 5530POPC   PO430444  40.763  21.374   9.150
 5530POPC   GL130445  40.809  21.433   8.850
 5530POPC   GL230446  40.833  21.294   8.850
 5530POPC   C1A30447  40.805  21.413   8.550
 5530POPC   D2A30448  40.764  21.435   8.250
 5530POPC   C3A30449  40.826  21.433   7.950
 5530POPC   C4A30450  40.782  21.344   7.650
 5530POPC   C1B30451  40.917  21.199   8.550
 5530POPC   C2B30452  40.931  21.195   8.250
 5530POPC   C3B30453  40.907  21.214   7.950
 5530POPC   C4B30454  40.957  21.140   7.650
 5531POPC   NC330455  34.564  12.062   9.450
 5531POPC   PO430456  34.585  12.044   9.150
 5531POPC   GL130457  34.594  12.107   8.850
 5531POPC   GL230458  34.666  12.041   8.850
 5531POPC   C1A30459  34.564  12.090   8.550
 5531POPC   D2A30460  34.591  12.071   8.250
 5531POPC   C3A30461  34.569  12.045   7.950
 5531POPC   C4A30462  34.550  12.046   7.650
 5531POPC   C1B30463  34.716  11.877   8.550
 5531POPC   C2B30464  34.738  11.949   8.250
 5531POPC   C3B30465  34.778  11.882   7.950
 5531POPC   C4B30466  34.783  11.960   7.650
 5532POPC   NC330467  27.579  19.087   9.450
 5532POPC   PO430468  27.628  19.077   9.150
 5532POPC   GL130469  27.622  19.076   8.850
 5532POPC   GL230470  27.533  19.166   8.850
 5532POPC   C1A30471  27.549  19.108   8.550
 5532POPC   D2A30472  27.574  19.034   8.250
 5532POPC   C3A30473  27.585  19.085   7.950
 5532POPC   C4A30474  27.549  19.080   7.650
 5532POPC   C1B30475  27.340  19.241   8.550
 5532POPC   C2B30476  27.415  19.152   8.250
 5532POPC   C3B30477  27.341  19.180   7.950
 5532POPC   C4B30478  27.350  19.161   7.650
 5533POPC   NC330479  15.993  14.411   9.450
 5533POPC   PO430480  15.995  14.376   9.150
 5533POPC   GL130481  15.917  14.380   8.850
 5533POPC   GL230482  15.931  14.506   8.850
 5533POPC   C1A30483  15.943  14.426   8.550
 5533POPC   D2A30484  15.942  14.354   8.250
 5533POPC   C3A30485  15.997  14.430   7.950
 5533POPC   C4A30486  15.934  14.414   7.650
 5533POPC   C1B30487  15.935  14.679   8.550
 5533POPC   C2B30488  16.001  14.617   8.250
 5533POPC   C3B30489  15.988  14.655   7.950
 5533POPC   C4B30490  15.967  14.694   7.650
 5534POPC   NC330491  42.300   2.736   9.450
 5534POPC   PO430492  42.290   2.726   9.150
 5534POPC   GL130493  42.309   2.774   8.850
 5534POPC   GL230494  42.231   2.816   8.850
 5534POPC   C1A30495  42.356   2.723   8.550
 5534POPC   D2A30496  42.340   2.811   8.250
 5534POPC   C3A30497  42.336   2.786   7.950
 5534POPC   C4A30498  42.286   2.766   7.650
 5534POPC   C1B30499  42.169   2.933   8.550
 5534POPC   C2B30500  42.178   2.889   8.250
 5534POPC   C3B30501  42.152   2.938   7.950
 5534POPC   C4B30502  42.154   2.953   7.650
 5535POPC   NC330503  36.891  15.142   9.450
 5535POPC   PO430504  36.905  15.208   9.150
 5535POPC   GL130505  36.855  15.185   8.850
 5535POPC   GL230506  37.010  15.066   8.850
 5535POPC   C1A30507  36.907  15.130   8.550
 5535POPC   D2A30508  36.904  15.145   8.250
 5535POPC   C3A30509  36.906  15.175   7.950
 5535POPC   C4A30510  36.898  15.210   7.650
 5535POPC   C1B30511  37.083  15.008   8.550
 5535POPC   C2B30512  37.080  15.030   8.250
 5535POPC   C3B30513  37.147  14.977   7.950
 5535POPC   C4B30514  37.117  15.062   7.650
 5536POPC   NC330515  26.771   0.400   9.450
 5536POPC   PO430516  26.827   0.443   9.150
 5536POPC   GL130517  26.854   0.395   8.850
 5536POPC   GL230518  26.728   0.455   8.850
 5536POPC   C1A30519  26.777   0.423   8.550
 5536POPC   D2A30520  26.856   0.472   8.250
 5536POPC   C3A30521  26.789   0.478   7.950
 5536POPC   C4A30522  26.843   0.427   7.650
 5536POPC   C1B30523  26.600   0.477   8.550
 5536POPC   C2B30524  26.590   0.518   8.250
 5536POPC   C3B30525  26.543   0.543   7.950
 5536POPC   C4B30526  26.583   0.506   7.650
 5537POPC   NC330527   5.895  28.332   9.450
 5537POPC   PO430528   5.837  28.362   9.150
 5537POPC   GL130529   5.898  28.355   8.850
 5537POPC   GL230530   5.917  28.502   8.850
 5537POPC   C1A30531   5.880  28.385   8.550
 5537POPC   D2A30532   5.906  28.392   8.250
 5537POPC   C3A30533   5.820  28.391   7.950
 5537POPC   C4A30534   5.910  28.401   7.650
 5537POPC   C1B30535   5.931  28.660   8.550
 5537POPC   C2B30536   5.893  28.564   8.250
 5537POPC   C3B30537   5.905  28.637   7.950
 5537POPC   C4B30538   5.872  28.633   7.650
 5538POPC   NC330539  30.681  35.395   9.450
 5538POPC   PO430540  30.691  35.396   9.150
 5538POPC   GL130541  30.734  35.331   8.850
 5538POPC   GL230542  30.583  35.446   8.850
 5538POPC   C1A30543  30.692  35.354   8.550
 5538POPC   D2A30544  30.675  35.375   8.250
 5538POPC   C3A30545  30.718  35.342   7.950
 5538POPC   C4A30546  30.683  35.311   7.650
 5538POPC   C1B30547  30.544  35.541   8.550
 5538POPC   C2B30548  30.471  35.533   8.250
 5538POPC   C3B30549  30.545  35.528   7.950
 5538POPC   C4B30550  30.472  35.535   7.650
 5539POPC   NC330551  34.542  34.579   9.450
 5539POPC   PO430552  34.593  34.535   9.150
 5539POPC   GL130553  34.563  34.526   8.850
 5539POPC   GL230554  34.633  34.724   8.850
 5539POPC   C1A30555  34.583  34.547   8.550
 5539POPC   D2A30556  34.585  34.535   8.250
 5539POPC   C3A30557  34.532  34.605   7.950
 5539POPC   C4A30558  34.581  34.565   7.650
 5539POPC   C1B30559  34.671  34.836   8.550
 5539POPC   C2B30560  34.687  34.845   8.250
 5539POPC   C3B30561  34.688  34.771   7.950
 5539POPC   C4B30562  34.610  34.790   7.650
 5540POPC   NC330563   7.437   4.313   9.450
 5540POPC   PO430564   7.407   4.314   9.150
 5540POPC   GL130565   7.395   4.314   8.850
 5540POPC   GL230566   7.484   4.413   8.850
 5540POPC   C1A30567   7.415   4.276   8.550
 5540POPC   D2A30568   7.389   4.307   8.250
 5540POPC   C3A30569   7.386   4.353   7.950
 5540POPC   C4A30570   7.409   4.304   7.650
 5540POPC   C1B30571   7.544   4.522   8.550
 5540POPC   C2B30572   7.577   4.464   8.250
 5540POPC   C3B30573   7.574   4.460   7.950
 5540POPC   C4B30574   7.623   4.531   7.650
 5541POPC   NC330575  34.588  36.164   9.450
 5541POPC   PO430576  34.576  36.081   9.150
 5541POPC   GL130577  34.604  36.160   8.850
 5541POPC   GL230578  34.718  36.185   8.850
 5541POPC   C1A30579  34.577  36.139   8.550
 5541POPC   D2A30580  34.538  36.112   8.250
 5541POPC   C3A30581  34.552  36.122   7.950
 5541POPC   C4A30582  34.617  36.170   7.650
 5541POPC   C1B30583  34.823  36.189   8.550
 5541POPC   C2B30584  34.803  36.172   8.250
 5541POPC   C3B30585  34.815  36.205   7.950
 5541POPC   C4B30586  34.772  36.234   7.650
 5542POPC   NC330587  21.348  33.830   9.450
 5542POPC   PO430588  21.417  33.827   9.150
 5542POPC   GL130589  21.373  33.802   8.850
 5542POPC   GL230590  21.463  33.874   8.850
 5542POPC   C1A30591  21.421  33.828   8.550
 5542POPC   D2A30592  21.378  33.788   8.250
 5542POPC   C3A30593  21.431  33.790   7.950
 5542POPC   C4A30594  21.429  33.792   7.650
 5542POPC   C1B30595  21.616  33.905   8.550
 5542POPC   C2B30596  21.582  33.929   8.250
 5542POPC   C3B30597  21.608  33.865   7.950
 5542POPC   C4B30598  21.634  33.851   7.650
 5543POPC   NC330599  11.333  10.551   9.450
 5543POPC   PO430600  11.255  10.566   9.150
 5543POPC   GL130601  11.304  10.475   8.850
 5543POPC   GL230602  11.387  10.539   8.850
 5543POPC   C1A30603  11.321  10.568   8.550
 5543POPC   D2A30604  11.285  10.475   8.250
 5543POPC   C3A30605  11.268  10.514   7.950
 5543POPC   C4A30606  11.252  10.491   7.650
 5543POPC   C1B30607  11.508  10.459   8.550
 5543POPC   C2B30608  11.543  10.497   8.250
 5543POPC   C3B30609  11.507  10.436   7.950
 5543POPC   C4B30610  11.587  10.461   7.650
 5544POPC   NC330611  33.847  26.055   9.450
 5544POPC   PO430612  33.785  26.044   9.150
 5544POPC   GL130613  33.798  26.091   8.850
 5544POPC   GL230614  33.943  25.982   8.850
 5544POPC   C1A30615  33.761  26.010   8.550
 5544POPC   D2A30616  33.783  26.015   8.250
 5544POPC   C3A30617  33.831  26.062   7.950
 5544POPC   C4A30618  33.830  26.088   7.650
 5544POPC   C1B30619  34.055  25.978   8.550
 5544POPC   C2B30620  34.002  25.977   8.250
 5544POPC   C3B30621  34.063  25.972   7.950
 5544POPC   C4B30622  34.029  25.929   7.650
 5545POPC   NC330623  30.686  10.510   9.450
 5545POPC   PO430624  30.742  10.487   9.150
 5545POPC   GL130625  30.712  10.492   8.850
 5545POPC   GL230626  30.613  10.500   8.850
 5545POPC   C1A30627  30.696  10.543   8.550
 5545POPC   D2A30628  30.739  10.552   8.250
 5545POPC   C3A30629  30.694  10.559   7.950
 5545POPC   C4A30630  30.735  10.530   7.650
 5545POPC   C1B30631  30.477  10.497   8.550
 5545POPC   C2B30632  30.451  10.475   8.250
 5545POPC   C3B30633  30.428  10.451   7.950
 5545POPC   C4B30634  30.472  10.452   7.650
 5546POPC   NC330635   5.880   6.646   9.450
 5546POPC   PO430636   5.823   6.647   9.150
 5546POPC   GL130637   5.836   6.617   8.850
 5546POPC   GL230638   5.983   6.532   8.850
 5546POPC   C1A30639   5.899   6.673   8.550
 5546POPC   D2A30640   5.853   6.664   8.250
 5546POPC   C3A30641   5.876   6.675   7.950
 5546POPC   C4A30642   5.894   6.685   7.650
 5546POPC   C1B30643   6.072   6.424   8.550
 5546POPC   C2B30644   6.024   6.431   8.250
 5546POPC   C3B30645   6.036   6.435   7.950
 5546POPC   C4B30646   6.044   6.427   7.650
 5547POPC   NC330647  10.477  21.370   9.450
 5547POPC   PO430648  10.566  21.375   9.150
 5547POPC   GL130649  10.542  21.346   8.850
 5547POPC   GL230650  10.593  21.542   8.850
 5547POPC   C1A30651  10.550  21.399   8.550
 5547POPC   D2A30652  10.490  21.391   8.250
 5547POPC   C3A30653  10.521  21.432   7.950
 5547POPC   C4A30654  10.571  21.421   7.650
 5547POPC   C1B30655  10.602  21.587   8.550
 5547POPC   C2B30656  10.549  21.608   8.250
 5547POPC   C3B30657  10.529  21.633   7.950
 5547POPC   C4B30658  10.523  21.638   7.650
 5548POPC   NC330659  15.906  15.223   9.450
 5548POPC   PO430660  16.005  15.133   9.150
 5548POPC   GL130661  15.914  15.227   8.850
 5548POPC   GL230662  15.893  15.303   8.850
 5548POPC   C1A30663  15.909  15.130   8.550
 5548POPC   D2A30664  15.965  15.158   8.250
 5548POPC   C3A30665  15.998  15.164   7.950
 5548POPC   C4A30666  15.945  15.181   7.650
 5548POPC   C1B30667  15.807  15.404   8.550
 5548POPC   C2B30668  15.817  15.396   8.250
 5548POPC   C3B30669  15.785  15.404   7.950
 5548POPC   C4B30670  15.801  15.417   7.650
 5549POPC   NC330671  37.633  24.519   9.450
 5549POPC   PO430672  37.701  24.482   9.150
 5549POPC   GL130673  37.666  24.455   8.850
 5549POPC   GL230674  37.647  24.382   8.850
 5549POPC   C1A30675  37.724  24.463   8.550
 5549POPC   D2A30676  37.722  24.524   8.250
 5549POPC   C3A30677  37.726  24.517   7.950
 5549POPC   C4A30678  37.696  24.519   7.650
 5549POPC   C1B30679  37.544  24.256   8.550
 5549POPC   C2B30680  37.561  24.279   8.250
 5549POPC   C3B30681  37.584  24.295   7.950
 5549POPC   C4B30682  37.598  24.279   7.650
 5550POPC   NC330683  25.313  44.624   9.450
 5550POPC   PO430684  25.254  44.692   9.150
 5550POPC   GL130685  25.226  44.619   8.850
 5550POPC   GL230686  25.390  44.713   8.850
 5550POPC   C1A30687  25.277  44.675   8.550
 5550POPC   D2A30688  25.287  44.672   8.250
 5550POPC   C3A30689  25.233  44.667   7.950
 5550POPC   C4A30690  25.277  44.699   7.650
 5550POPC   C1B30691  25.408  44.810   8.550
 5550POPC   C2B30692  25.413  44.889   8.250
 5550POPC   C3B30693  25.422  44.850   7.950
 5550POPC   C4B30694  25.449  44.793   7.650
 5551POPC   NC330695  35.361  26.820   9.450
 5551POPC   PO430696  35.356  26.819   9.150
 5551POPC   GL130697  35.351  26.791   8.850
 5551POPC   GL230698  35.262  26.705   8.850
 5551POPC   C1A30699  35.359  26.768   8.550
 5551POPC   D2A30700  35.373  26.840   8.250
 5551POPC   C3A30701  35.334  26.809   7.950
 5551POPC   C4A30702  35.360  26.827   7.650
 5551POPC   C1B30703  35.228  26.578   8.550
 5551POPC   C2B30704  35.219  26.645   8.250
 5551POPC   C3B30705  35.192  26.644   7.950
 5551POPC   C4B30706  35.235  26.632   7.650
 5552POPC   NC330707  24.500  12.028   9.450
 5552POPC   PO430708  24.464  12.067   9.150
 5552POPC   GL130709  24.478  12.061   8.850
 5552POPC   GL230710  24.568  12.072   8.850
 5552POPC   C1A30711  24.481  12.037   8.550
 5552POPC   D2A30712  24.451  12.096   8.250
 5552POPC   C3A30713  24.512  12.039   7.950
 5552POPC   C4A30714  24.470  12.056   7.650
 5552POPC   C1B30715  24.768  12.044   8.550
 5552POPC   C2B30716  24.783  12.042   8.250
 5552POPC   C3B30717  24.784  12.051   7.950
 5552POPC   C4B30718  24.778  12.035   7.650
 5553POPC   NC330719  36.129  32.979   9.450
 5553POPC   PO430720  36.096  33.056   9.150
 5553POPC   GL130721  36.093  33.073   8.850
 5553POPC   GL230722  36.147  32.937   8.850
 5553POPC   C1A30723  36.120  33.031   8.550
 5553POPC   D2A30724  36.168  33.013   8.250
 5553POPC   C3A30725  36.164  32.992   7.950
 5553POPC   C4A30726  36.119  32.984   7.650
 5553POPC   C1B30727  36.284  32.823   8.550
 5553POPC   C2B30728  36.279  32.785   8.250
 5553POPC   C3B30729  36.262  32.832   7.950
 5553POPC   C4B30730  36.265  32.751   7.650
 5554POPC   NC330731   6.654  22.913   9.450
 5554POPC   PO430732   6.624  22.969   9.150
 5554POPC   GL130733   6.691  22.972   8.850
 5554POPC   GL230734   6.558  22.863   8.850
 5554POPC   C1A30735   6.631  22.890   8.550
 5554POPC   D2A30736   6.668  22.927   8.250
 5554POPC   C3A30737   6.682  22.931   7.950
 5554POPC   C4A30738   6.677  22.967   7.650
 5554POPC   C1B30739   6.492  22.741   8.550
 5554POPC   C2B30740   6.483  22.725   8.250
 5554POPC   C3B30741   6.459  22.727   7.950
 5554POPC   C4B30742   6.491  22.769   7.650
 5555POPC   NC330743  21.340   0.478   9.450
 5555POPC   PO430744  21.362   0.451   9.150
 5555POPC   GL130745  21.432   0.476   8.850
 5555POPC   GL230746  21.325   0.581   8.850
 5555POPC   C1A30747  21.343   0.392   8.550
 5555POPC   D2A30748  21.373   0.416   8.250
 5555POPC   C3A30749  21.406   0.405   7.950
 5555POPC   C4A30750  21.434   0.478   7.650
 5555POPC   C1B30751  21.292   0.628   8.550
 5555POPC   C2B30752  21.262   0.680   8.250
 5555POPC   C3B30753  21.239   0.620   7.950
 5555POPC   C4B30754  21.285   0.654   7.650
 5556POPC   NC330755  43.152   5.109   9.450
 5556POPC   PO430756  43.090   5.109   9.150
 5556POPC   GL130757  43.104   5.050   8.850
 5556POPC   GL230758  43.265   5.116   8.850
 5556POPC   C1A30759  43.076   5.055   8.550
 5556POPC   D2A30760  43.065   5.049   8.250
 5556POPC   C3A30761  43.123   5.058   7.950
 5556POPC   C4A30762  43.088   5.083   7.650
 5556POPC   C1B30763  43.380   5.145   8.550
 5556POPC   C2B30764  43.334   5.137   8.250
 5556POPC   C3B30765  43.300   5.182   7.950
 5556POPC   C4B30766  43.310   5.144   7.650
 5557POPC   NC330767  33.838  19.786   9.450
 5557POPC   PO430768  33.778  19.803   9.150
 5557POPC   GL130769  33.824  19.874   8.850
 5557POPC   GL230770  33.704  19.783   8.850
 5557POPC   C1A30771  33.838  19.883   8.550
 5557POPC   D2A30772  33.815  19.811   8.250
 5557POPC   C3A30773  33.818  19.789   7.950
 5557POPC   C4A30774  33.807  19.841   7.650
 5557POPC   C1B30775  33.576  19.698   8.550
 5557POPC   C2B30776  33.597  19.765   8.250
 5557POPC   C3B30777  33.612  19.732   7.950
 5557POPC   C4B30778  33.581  19.773   7.650
 5558POPC   NC330779  22.901   1.254   9.450
 5558POPC   PO430780  22.982   1.263   9.150
 5558POPC   GL130781  22.890   1.197   8.850
 5558POPC   GL230782  22.946   1.329   8.850
 5558POPC   C1A30783  22.986   1.212   8.550
 5558POPC   D2A30784  22.962   1.168   8.250
 5558POPC   C3A30785  22.889   1.190   7.950
 5558POPC   C4A30786  22.911   1.223   7.650
 5558POPC   C1B30787  23.051   1.417   8.550
 5558POPC   C2B30788  23.010   1.476   8.250
 5558POPC   C3B30789  22.973   1.403   7.950
 5558POPC   C4B30790  23.016   1.410   7.650
 5559POPC   NC330791   8.240   2.755   9.450
 5559POPC   PO430792   8.211   2.815   9.150
 5559POPC   GL130793   8.244   2.778   8.850
 5559POPC   GL230794   8.213   2.904   8.850
 5559POPC   C1A30795   8.221   2.743   8.550
 5559POPC   D2A30796   8.219   2.802   8.250
 5559POPC   C3A30797   8.201   2.773   7.950
 5559POPC   C4A30798   8.159   2.747   7.650
 5559POPC   C1B30799   8.328   3.019   8.550
 5559POPC   C2B30800   8.248   3.032   8.250
 5559POPC   C3B30801   8.265   3.030   7.950
 5559POPC   C4B30802   8.258   2.985   7.650
 5560POPC   NC330803  28.371   2.812   9.450
 5560POPC   PO430804  28.348   2.799   9.150
 5560POPC   GL130805  28.382   2.752   8.850
 5560POPC   GL230806  28.364   2.914   8.850
 5560POPC   C1A30807  28.409   2.765   8.550
 5560POPC   D2A30808  28.377   2.814   8.250
 5560POPC   C3A30809  28.400   2.800   7.950
 5560POPC   C4A30810  28.396   2.791   7.650
 5560POPC   C1B30811  28.355   3.063   8.550
 5560POPC   C2B30812  28.369   3.000   8.250
 5560POPC   C3B30813  28.341   2.969   7.950
 5560POPC   C4B30814  28.423   2.983   7.650
 5561POPC   NC330815  44.675   6.664   9.450
 5561POPC   PO430816  44.705   6.641   9.150
 5561POPC   GL130817  44.694   6.660   8.850
 5561POPC   GL230818  44.668   6.542   8.850
 5561POPC   C1A30819  44.633   6.684   8.550
 5561POPC   D2A30820  44.655   6.679   8.250
 5561POPC   C3A30821  44.648   6.671   7.950
 5561POPC   C4A30822  44.628   6.674   7.650
 5561POPC   C1B30823  44.593   6.354   8.550
 5561POPC   C2B30824  44.648   6.435   8.250
 5561POPC   C3B30825  44.646   6.361   7.950
 5561POPC   C4B30826  44.606   6.433   7.650
 5562POPC   NC330827  42.301  43.910   9.450
 5562POPC   PO430828  42.381  43.874   9.150
 5562POPC   GL130829  42.351  43.913   8.850
 5562POPC   GL230830  42.403  43.789   8.850
 5562POPC   C1A30831  42.340  43.890   8.550
 5562POPC   D2A30832  42.290  43.873   8.250
 5562POPC   C3A30833  42.308  43.852   7.950
 5562POPC   C4A30834  42.320  43.908   7.650
 5562POPC   C1B30835  42.393  43.655   8.550
 5562POPC   C2B30836  42.434  43.685   8.250
 5562POPC   C3B30837  42.410  43.642   7.950
 5562POPC   C4B30838  42.467  43.684   7.650
 5563POPC   NC330839   9.006  40.767   9.450
 5563POPC   PO430840   8.985  40.772   9.150
 5563POPC   GL130841   8.989  40.778   8.850
 5563POPC   GL230842   8.913  40.890   8.850
 5563POPC   C1A30843   8.930  40.737   8.550
 5563POPC   D2A30844   8.954  40.752   8.250
 5563POPC   C3A30845   8.928  40.774   7.950
 5563POPC   C4A30846   8.988  40.825   7.650
 5563POPC   C1B30847   8.823  40.934   8.550
 5563POPC   C2B30848   8.785  40.953   8.250
 5563POPC   C3B30849   8.845  40.921   7.950
 5563POPC   C4B30850   8.843  40.983   7.650
 5564POPC   NC330851  24.466  23.693   9.450
 5564POPC   PO430852  24.440  23.681   9.150
 5564POPC   GL130853  24.510  23.734   8.850
 5564POPC   GL230854  24.420  23.687   8.850
 5564POPC   C1A30855  24.530  23.722   8.550
 5564POPC   D2A30856  24.523  23.668   8.250
 5564POPC   C3A30857  24.501  23.733   7.950
 5564POPC   C4A30858  24.470  23.764   7.650
 5564POPC   C1B30859  24.304  23.616   8.550
 5564POPC   C2B30860  24.298  23.595   8.250
 5564POPC   C3B30861  24.293  23.638   7.950
 5564POPC   C4B30862  24.299  23.550   7.650
 5565POPC   NC330863  32.979  18.319   9.450
 5565POPC   PO430864  33.057  18.327   9.150
 5565POPC   GL130865  33.061  18.266   8.850
 5565POPC   GL230866  33.118  18.381   8.850
 5565POPC   C1A30867  33.007  18.315   8.550
 5565POPC   D2A30868  33.063  18.251   8.250
 5565POPC   C3A30869  33.006  18.255   7.950
 5565POPC   C4A30870  33.014  18.268   7.650
 5565POPC   C1B30871  33.245  18.422   8.550
 5565POPC   C2B30872  33.264  18.356   8.250
 5565POPC   C3B30873  33.235  18.407   7.950
 5565POPC   C4B30874  33.237  18.417   7.650
 5566POPC   NC330875  13.586  29.887   9.450
 5566POPC   PO430876  13.614  29.949   9.150
 5566POPC   GL130877  13.582  29.970   8.850
 5566POPC   GL230878  13.743  29.963   8.850
 5566POPC   C1A30879  13.678  29.902   8.550
 5566POPC   D2A30880  13.671  29.908   8.250
 5566POPC   C3A30881  13.676  29.952   7.950
 5566POPC   C4A30882  13.601  29.964   7.650
 5566POPC   C1B30883  13.899  30.033   8.550
 5566POPC   C2B30884  13.861  29.964   8.250
 5566POPC   C3B30885  13.846  29.977   7.950
 5566POPC   C4B30886  13.845  29.967   7.650
 5567POPC   NC330887  17.500  38.490   9.450
 5567POPC   PO430888  17.502  38.418   9.150
 5567POPC   GL130889  17.497  38.493   8.850
 5567POPC   GL230890  17.468  38.540   8.850
 5567POPC   C1A30891  17.472  38.465   8.550
 5567POPC   D2A30892  17.516  38.468   8.250
 5567POPC   C3A30893  17.539  38.490   7.950
 5567POPC   C4A30894  17.539  38.458   7.650
 5567POPC   C1B30895  17.474  38.710   8.550
 5567POPC   C2B30896  17.515  38.686   8.250
 5567POPC   C3B30897  17.560  38.751   7.950
 5567POPC   C4B30898  17.556  38.687   7.650
 5568POPC   NC330899  11.300  42.312   9.450
 5568POPC   PO430900  11.316  42.381   9.150
 5568POPC   GL130901  11.272  42.381   8.850
 5568POPC   GL230902  11.232  42.214   8.850
 5568POPC   C1A30903  11.296  42.286   8.550
 5568POPC   D2A30904  11.275  42.304   8.250
 5568POPC   C3A30905  11.345  42.355   7.950
 5568POPC   C4A30906  11.258  42.334   7.650
 5568POPC   C1B30907  11.204  42.077   8.550
 5568POPC   C2B30908  11.230  42.070   8.250
 5568POPC   C3B30909  11.211  42.076   7.950
 5568POPC   C4B30910  11.179  42.100   7.650
 5569POPC   NC330911   5.863  21.389   9.450
 5569POPC   PO430912   5.914  21.428   9.150
 5569POPC   GL130913   5.825  21.434   8.850
 5569POPC   GL230914   5.868  21.299   8.850
 5569POPC   C1A30915   5.882  21.373   8.550
 5569POPC   D2A30916   5.820  21.402   8.250
 5569POPC   C3A30917   5.895  21.344   7.950
 5569POPC   C4A30918   5.835  21.436   7.650
 5569POPC   C1B30919   5.824  21.123   8.550
 5569POPC   C2B30920   5.823  21.165   8.250
 5569POPC   C3B30921   5.795  21.158   7.950
 5569POPC   C4B30922   5.778  21.127   7.650
 5570POPC   NC330923  33.797  36.872   9.450
 5570POPC   PO430924  33.816  36.869   9.150
 5570POPC   GL130925  33.760  36.877   8.850
 5570POPC   GL230926  33.714  36.806   8.850
 5570POPC   C1A30927  33.770  36.880   8.550
 5570POPC   D2A30928  33.765  36.875   8.250
 5570POPC   C3A30929  33.777  36.888   7.950
 5570POPC   C4A30930  33.752  36.938   7.650
 5570POPC   C1B30931  33.731  36.635   8.550
 5570POPC   C2B30932  33.731  36.645   8.250
 5570POPC   C3B30933  33.712  36.716   7.950
 5570POPC   C4B30934  33.735  36.691   7.650
 5571POPC   NC330935  11.348  19.011   9.450
 5571POPC   PO430936  11.336  19.092   9.150
 5571POPC   GL130937  11.310  19.096   8.850
 5571POPC   GL230938  11.262  19.137   8.850
 5571POPC   C1A30939  11.313  19.084   8.550
 5571POPC   D2A30940  11.255  19.053   8.250
 5571POPC   C3A30941  11.321  19.092   7.950
 5571POPC   C4A30942  11.258  19.081   7.650
 5571POPC   C1B30943  11.148  19.249   8.550
 5571POPC   C2B30944  11.169  19.223   8.250
 5571POPC   C3B30945  11.133  19.240   7.950
 5571POPC   C4B30946  11.161  19.254   7.650
 5572POPC   NC330947  36.939   0.471   9.450
 5572POPC   PO430948  36.876   0.430   9.150
 5572POPC   GL130949  36.926   0.434   8.850
 5572POPC   GL230950  37.037   0.326   8.850
 5572POPC   C1A30951  36.921   0.403   8.550
 5572POPC   D2A30952  36.868   0.404   8.250
 5572POPC   C3A30953  36.854   0.402   7.950
 5572POPC   C4A30954  36.884   0.439   7.650
 5572POPC   C1B30955  37.083   0.273   8.550
 5572POPC   C2B30956  37.078   0.324   8.250
 5572POPC   C3B30957  37.091   0.260   7.950
 5572POPC   C4B30958  37.125   0.253   7.650
 5573POPC   NC330959  13.673  26.839   9.450
 5573POPC   PO430960  13.594  26.774   9.150
 5573POPC   GL130961  13.666  26.803   8.850
 5573POPC   GL230962  13.567  26.696   8.850
 5573POPC   C1A30963  13.638  26.816   8.550
 5573POPC   D2A30964  13.607  26.863   8.250
 5573POPC   C3A30965  13.666  26.866   7.950
 5573POPC   C4A30966  13.620  26.809   7.650
 5573POPC   C1B30967  13.488  26.640   8.550
 5573POPC   C2B30968  13.422  26.604   8.250
 5573POPC   C3B30969  13.487  26.699   7.950
 5573POPC   C4B30970  13.414  26.621   7.650
 5574POPC   NC330971  30.725  14.388   9.450
 5574POPC   PO430972  30.746  14.420   9.150
 5574POPC   GL130973  30.729  14.452   8.850
 5574POPC   GL230974  30.797  14.301   8.850
 5574POPC   C1A30975  30.685  14.425   8.550
 5574POPC   D2A30976  30.728  14.448   8.250
 5574POPC   C3A30977  30.695  14.429   7.950
 5574POPC   C4A30978  30.730  14.427   7.650
 5574POPC   C1B30979  30.896  14.240   8.550
 5574POPC   C2B30980  30.858  14.270   8.250
 5574POPC   C3B30981  30.858  14.248   7.950
 5574POPC   C4B30982  30.883  14.208   7.650
 5575POPC   NC330983   5.899  44.657   9.450
 5575POPC   PO430984   5.875  44.705   9.150
 5575POPC   GL130985   5.866  44.695   8.850
 5575POPC   GL230986   5.974  44.751   8.850
 5575POPC   C1A30987   5.865  44.679   8.550
 5575POPC   D2A30988   5.870  44.649   8.250
 5575POPC   C3A30989   5.905  44.683   7.950
 5575POPC   C4A30990   5.830  44.641   7.650
 5575POPC   C1B30991   6.028  44.785   8.550
 5575POPC   C2B30992   6.091  44.787   8.250
 5575POPC   C3B30993   6.059  44.820   7.950
 5575POPC   C4B30994   6.052  44.788   7.650
 5576POPC   NC330995  39.997  43.875   9.450
 5576POPC   PO430996  40.023  43.852   9.150
 5576POPC   GL130997  40.010  43.921   8.850
 5576POPC   GL230998  39.886  43.885   8.850
 5576POPC   C1A30999  40.010  43.845   8.550
 5576POPC   D2A31000  39.988  43.902   8.250
 5576POPC   C3A31001  40.007  43.907   7.950
 5576POPC   C4A31002  40.005  43.918   7.650
 5576POPC   C1B31003  39.753  43.928   8.550
 5576POPC   C2B31004  39.811  43.969   8.250
 5576POPC   C3B31005  39.776  43.982   7.950
 5576POPC   C4B31006  39.759  43.913   7.650
 5577POPC   NC331007  38.477  15.137   9.450
 5577POPC   PO431008  38.411  15.161   9.150
 5577POPC   GL131009  38.435  15.203   8.850
 5577POPC   GL231010  38.506  15.122   8.850
 5577POPC   C1A31011  38.416  15.136   8.550
 5577POPC   D2A31012  38.474  15.150   8.250
 5577POPC   C3A31013  38.502  15.201   7.950
 5577POPC   C4A31014  38.503  15.173   7.650
 5577POPC   C1B31015  38.646  15.000   8.550
 5577POPC   C2B31016  38.567  14.975   8.250
 5577POPC   C3B31017  38.656  14.971   7.950
 5577POPC   C4B31018  38.586  15.023   7.650
 5578POPC   NC331019  28.321  36.936   9.450
 5578POPC   PO431020  28.384  36.861   9.150
 5578POPC   GL131021  28.416  36.944   8.850
 5578POPC   GL231022  28.269  36.764   8.850
 5578POPC   C1A31023  28.322  36.909   8.550
 5578POPC   D2A31024  28.349  36.864   8.250
 5578POPC   C3A31025  28.402  36.906   7.950
 5578POPC   C4A31026  28.359  36.896   7.650
 5578POPC   C1B31027  28.298  36.682   8.550
 5578POPC   C2B31028  28.278  36.655   8.250
 5578POPC   C3B31029  28.301  36.700   7.950
 5578POPC   C4B31030  28.309  36.631   7.650
 5579POPC   NC331031  43.106  32.992   9.450
 5579POPC   PO431032  43.109  33.025   9.150
 5579POPC   GL131033  43.090  33.059   8.850
 5579POPC   GL231034  43.168  32.936   8.850
 5579POPC   C1A31035  43.068  32.977   8.550
 5579POPC   D2A31036  43.123  32.986   8.250
 5579POPC   C3A31037  43.113  33.058   7.950
 5579POPC   C4A31038  43.140  33.068   7.650
 5579POPC   C1B31039  43.270  32.822   8.550
 5579POPC   C2B31040  43.276  32.774   8.250
 5579POPC   C3B31041  43.268  32.818   7.950
 5579POPC   C4B31042  43.227  32.863   7.650
 5580POPC   NC331043  26.833  22.895   9.450
 5580POPC   PO431044  26.788  22.905   9.150
 5580POPC   GL131045  26.769  22.967   8.850
 5580POPC   GL231046  26.970  23.016   8.850
 5580POPC   C1A31047  26.802  22.959   8.550
 5580POPC   D2A31048  26.832  22.967   8.250
 5580POPC   C3A31049  26.852  22.964   7.950
 5580POPC   C4A31050  26.793  22.984   7.650
 5580POPC   C1B31051  27.009  23.055   8.550
 5580POPC   C2B31052  26.992  23.017   8.250
 5580POPC   C3B31053  26.989  23.033   7.950
 5580POPC   C4B31054  26.988  23.032   7.650
 5581POPC   NC331055  35.311  20.573   9.450
 5581POPC   PO431056  35.393  20.601   9.150
 5581POPC   GL131057  35.367  20.564   8.850
 5581POPC   GL231058  35.411  20.767   8.850
 5581POPC   C1A31059  35.395  20.622   8.550
 5581POPC   D2A31060  35.309  20.572   8.250
 5581POPC   C3A31061  35.386  20.649   7.950
 5581POPC   C4A31062  35.336  20.605   7.650
 5581POPC   C1B31063  35.460  20.843   8.550
 5581POPC   C2B31064  35.480  20.839   8.250
 5581POPC   C3B31065  35.410  20.837   7.950
 5581POPC   C4B31066  35.476  20.830   7.650
 5582POPC   NC331067  36.919  44.709   9.450
 5582POPC   PO431068  36.912  44.627   9.150
 5582POPC   GL131069  36.905  44.685   8.850
 5582POPC   GL231070  36.833  44.522   8.850
 5582POPC   C1A31071  36.871  44.699   8.550
 5582POPC   D2A31072  36.866  44.658   8.250
 5582POPC   C3A31073  36.942  44.625   7.950
 5582POPC   C4A31074  36.899  44.671   7.650
 5582POPC   C1B31075  36.749  44.447   8.550
 5582POPC   C2B31076  36.734  44.474   8.250
 5582POPC   C3B31077  36.736  44.430   7.950
 5582POPC   C4B31078  36.744  44.395   7.650
 5583POPC   NC331079  37.678  21.383   9.450
 5583POPC   PO431080  37.631  21.387   9.150
 5583POPC   GL131081  37.675  21.387   8.850
 5583POPC   GL231082  37.566  21.372   8.850
 5583POPC   C1A31083  37.666  21.432   8.550
 5583POPC   D2A31084  37.635  21.400   8.250
 5583POPC   C3A31085  37.703  21.431   7.950
 5583POPC   C4A31086  37.657  21.405   7.650
 5583POPC   C1B31087  37.406  21.370   8.550
 5583POPC   C2B31088  37.408  21.324   8.250
 5583POPC   C3B31089  37.477  21.367   7.950
 5583POPC   C4B31090  37.405  21.322   7.650
 5584POPC   NC331091  12.089  25.284   9.450
 5584POPC   PO431092  12.069  25.255   9.150
 5584POPC   GL131093  12.069  25.246   8.850
 5584POPC   GL231094  12.115  25.190   8.850
 5584POPC   C1A31095  12.103  25.313   8.550
 5584POPC   D2A31096  12.054  25.315   8.250
 5584POPC   C3A31097  12.120  25.253   7.950
 5584POPC   C4A31098  12.125  25.312   7.650
 5584POPC   C1B31099  12.227  25.118   8.550
 5584POPC   C2B31100  12.202  25.121   8.250
 5584POPC   C3B31101  12.227  25.039   7.950
 5584POPC   C4B31102  12.290  25.087   7.650
 5585POPC   NC331103  19.845  15.183   9.450
 5585POPC   PO431104  19.820  15.220   9.150
 5585POPC   GL131105  19.846  15.211   8.850
 5585POPC   GL231106  19.793  15.263   8.850
 5585POPC   C1A31107  19.786  15.163   8.550
 5585POPC   D2A31108  19.819  15.133   8.250
 5585POPC   C3A31109  19.878  15.188   7.950
 5585POPC   C4A31110  19.823  15.196   7.650
 5585POPC   C1B31111  19.716  15.402   8.550
 5585POPC   C2B31112  19.679  15.319   8.250
 5585POPC   C3B31113  19.714  15.352   7.950
 5585POPC   C4B31114  19.716  15.360   7.650
 5586POPC   NC331115  32.281  22.137   9.450
 5586POPC   PO431116  32.232  22.138   9.150
 5586POPC   GL131117  32.232  22.140   8.850
 5586POPC   GL231118  32.212  22.255   8.850
 5586POPC   C1A31119  32.227  22.163   8.550
 5586POPC   D2A31120  32.216  22.123   8.250
 5586POPC   C3A31121  32.226  22.155   7.950
 5586POPC   C4A31122  32.256  22.131   7.650
 5586POPC   C1B31123  32.186  22.409   8.550
 5586POPC   C2B31124  32.198  22.378   8.250
 5586POPC   C3B31125  32.222  22.437   7.950
 5586POPC   C4B31126  32.232  22.426   7.650
 5587POPC   NC331127  36.095  35.360   9.450
 5587POPC   PO431128  36.149  35.383   9.150
 5587POPC   GL131129  36.131  35.379   8.850
 5587POPC   GL231130  36.173  35.429   8.850
 5587POPC   C1A31131  36.090  35.397   8.550
 5587POPC   D2A31132  36.116  35.375   8.250
 5587POPC   C3A31133  36.115  35.365   7.950
 5587POPC   C4A31134  36.079  35.341   7.650
 5587POPC   C1B31135  36.279  35.589   8.550
 5587POPC   C2B31136  36.282  35.563   8.250
 5587POPC   C3B31137  36.255  35.561   7.950
 5587POPC   C4B31138  36.266  35.536   7.650
 5588POPC   NC331139  14.398  14.401   9.450
 5588POPC   PO431140  14.382  14.441   9.150
 5588POPC   GL131141  14.356  14.445   8.850
 5588POPC   GL231142  14.457  14.264   8.850
 5588POPC   C1A31143  14.431  14.372   8.550
 5588POPC   D2A31144  14.366  14.361   8.250
 5588POPC   C3A31145  14.417  14.386   7.950
 5588POPC   C4A31146  14.440  14.449   7.650
 5588POPC   C1B31147  14.490  14.219   8.550
 5588POPC   C2B31148  14.483  14.151   8.250
 5588POPC   C3B31149  14.558  14.214   7.950
 5588POPC   C4B31150  14.552  14.199   7.650
 5589POPC   NC331151  34.607   1.199   9.450
 5589POPC   PO431152  34.589   1.263   9.150
 5589POPC   GL131153  34.619   1.231   8.850
 5589POPC   GL231154  34.725   1.189   8.850
 5589POPC   C1A31155  34.604   1.237   8.550
 5589POPC   D2A31156  34.561   1.177   8.250
 5589POPC   C3A31157  34.535   1.169   7.950
 5589POPC   C4A31158  34.535   1.199   7.650
 5589POPC   C1B31159  34.869   1.168   8.550
 5589POPC   C2B31160  34.852   1.206   8.250
 5589POPC   C3B31161  34.803   1.186   7.950
 5589POPC   C4B31162  34.853   1.210   7.650
 5590POPC   NC331163   1.167  25.266   9.450
 5590POPC   PO431164   1.262  25.231   9.150
 5590POPC   GL131165   1.164  25.257   8.850
 5590POPC   GL231166   1.364  25.351   8.850
 5590POPC   C1A31167   1.216  25.299   8.550
 5590POPC   D2A31168   1.197  25.270   8.250
 5590POPC   C3A31169   1.229  25.295   7.950
 5590POPC   C4A31170   1.209  25.298   7.650
 5590POPC   C1B31171   1.449  25.401   8.550
 5590POPC   C2B31172   1.380  25.454   8.250
 5590POPC   C3B31173   1.412  25.377   7.950
 5590POPC   C4B31174   1.458  25.436   7.650
 5591POPC   NC331175  12.815  36.923   9.450
 5591POPC   PO431176  12.858  36.938   9.150
 5591POPC   GL131177  12.827  36.936   8.850
 5591POPC   GL231178  12.817  36.730   8.850
 5591POPC   C1A31179  12.875  36.941   8.550
 5591POPC   D2A31180  12.886  36.873   8.250
 5591POPC   C3A31181  12.840  36.911   7.950
 5591POPC   C4A31182  12.898  36.904   7.650
 5591POPC   C1B31183  12.817  36.610   8.550
 5591POPC   C2B31184  12.881  36.650   8.250
 5591POPC   C3B31185  12.843  36.608   7.950
 5591POPC   C4B31186  12.866  36.666   7.650
 5592POPC   NC331187  11.269  44.641   9.450
 5592POPC   PO431188  11.342  44.696   9.150
 5592POPC   GL131189  11.326  44.625   8.850
 5592POPC   GL231190  11.179  44.745   8.850
 5592POPC   C1A31191  11.305  44.622   8.550
 5592POPC   D2A31192  11.315  44.694   8.250
 5592POPC   C3A31193  11.348  44.707   7.950
 5592POPC   C4A31194  11.308  44.633   7.650
 5592POPC   C1B31195  11.118  44.863   8.550
 5592POPC   C2B31196  11.080  44.822   8.250
 5592POPC   C3B31197  11.082  44.778   7.950
 5592POPC   C4B31198  11.131  44.778   7.650
 5593POPC   NC331199   9.012  27.610   9.450
 5593POPC   PO431200   9.018  27.576   9.150
 5593POPC   GL131201   8.937  27.638   8.850
 5593POPC   GL231202   8.988  27.483   8.850
 5593POPC   C1A31203   8.926  27.624   8.550
 5593POPC   D2A31204   9.006  27.571   8.250
 5593POPC   C3A31205   9.014  27.591   7.950
 5593POPC   C4A31206   8.976  27.551   7.650
 5593POPC   C1B31207   8.899  27.314   8.550
 5593POPC   C2B31208   8.927  27.337   8.250
 5593POPC   C3B31209   8.951  27.341   7.950
 5593POPC   C4B31210   8.937  27.324   7.650
 5594POPC   NC331211  21.395   8.946   9.450
 5594POPC   PO431212  21.388   8.964   9.150
 5594POPC   GL131213  21.383   9.016   8.850
 5594POPC   GL231214  21.452   9.074   8.850
 5594POPC   C1A31215  21.347   8.968   8.550
 5594POPC   D2A31216  21.388   9.020   8.250
 5594POPC   C3A31217  21.399   8.981   7.950
 5594POPC   C4A31218  21.355   8.942   7.650
 5594POPC   C1B31219  21.418   9.249   8.550
 5594POPC   C2B31220  21.463   9.251   8.250
 5594POPC   C3B31221  21.416   9.199   7.950
 5594POPC   C4B31222  21.482   9.235   7.650
 5595POPC   NC331223  21.375  41.521   9.450
 5595POPC   PO431224  21.339  41.534   9.150
 5595POPC   GL131225  21.385  41.589   8.850
 5595POPC   GL231226  21.445  41.468   8.850
 5595POPC   C1A31227  21.412  41.596   8.550
 5595POPC   D2A31228  21.391  41.584   8.250
 5595POPC   C3A31229  21.377  41.511   7.950
 5595POPC   C4A31230  21.396  41.534   7.650
 5595POPC   C1B31231  21.413  41.328   8.550
 5595POPC   C2B31232  21.465  41.315   8.250
 5595POPC   C3B31233  21.396  41.269   7.950
 5595POPC   C4B31234  21.421  41.341   7.650
 5596POPC   NC331235  39.274  14.407   9.450
 5596POPC   PO431236  39.248  14.439   9.150
 5596POPC   GL131237  39.230  14.407   8.850
 5596POPC   GL231238  39.296  14.471   8.850
 5596POPC   C1A31239  39.195  14.451   8.550
 5596POPC   D2A31240  39.251  14.438   8.250
 5596POPC   C3A31241  39.215  14.405   7.950
 5596POPC   C4A31242  39.234  14.406   7.650
 5596POPC   C1B31243  39.464  14.503   8.550
 5596POPC   C2B31244  39.505  14.530   8.250
 5596POPC   C3B31245  39.473  14.553   7.950
 5596POPC   C4B31246  39.483  14.514   7.650
 5597POPC   NC331247  13.595  13.669   9.450
 5597POPC   PO431248  13.627  13.664   9.150
 5597POPC   GL131249  13.615  13.677   8.850
 5597POPC   GL231250  13.512  13.561   8.850
 5597POPC   C1A31251  13.596  13.642   8.550
 5597POPC   D2A31252  13.602  13.616   8.250
 5597POPC   C3A31253  13.638  13.638   7.950
 5597POPC   C4A31254  13.622  13.618   7.650
 5597POPC   C1B31255  13.368  13.528   8.550
 5597POPC   C2B31256  13.361  13.588   8.250
 5597POPC   C3B31257  13.425  13.547   7.950
 5597POPC   C4B31258  13.392  13.591   7.650
 5598POPC   NC331259  14.452   0.411   9.450
 5598POPC   PO431260  14.371   0.422   9.150
 5598POPC   GL131261  14.362   0.466   8.850
 5598POPC   GL231262  14.362   0.550   8.850
 5598POPC   C1A31263  14.434   0.459   8.550
 5598POPC   D2A31264  14.361   0.464   8.250
 5598POPC   C3A31265  14.427   0.465   7.950
 5598POPC   C4A31266  14.374   0.396   7.650
 5598POPC   C1B31267  14.369   0.656   8.550
 5598POPC   C2B31268  14.287   0.637   8.250
 5598POPC   C3B31269  14.292   0.683   7.950
 5598POPC   C4B31270  14.286   0.695   7.650
 5599POPC   NC331271  26.000  37.671   9.450
 5599POPC   PO431272  26.087  37.654   9.150
 5599POPC   GL131273  26.064  37.692   8.850
 5599POPC   GL231274  25.991  37.844   8.850
 5599POPC   C1A31275  26.017  37.636   8.550
 5599POPC   D2A31276  26.039  37.643   8.250
 5599POPC   C3A31277  26.056  37.694   7.950
 5599POPC   C4A31278  26.045  37.636   7.650
 5599POPC   C1B31279  25.927  37.937   8.550
 5599POPC   C2B31280  25.977  37.900   8.250
 5599POPC   C3B31281  26.002  37.911   7.950
 5599POPC   C4B31282  26.016  37.913   7.650
 5600POPC   NC331283   1.984  25.254   9.450
 5600POPC   PO431284   1.989  25.281   9.150
 5600POPC   GL131285   1.986  25.302   8.850
 5600POPC   GL231286   1.855  25.346   8.850
 5600POPC   C1A31287   1.968  25.258   8.550
 5600POPC   D2A31288   1.965  25.292   8.250
 5600POPC   C3A31289   1.952  25.293   7.950
 5600POPC   C4A31290   1.943  25.257   7.650
 5600POPC   C1B31291   1.737  25.439   8.550
 5600POPC   C2B31292   1.785  25.355   8.250
 5600POPC   C3B31293   1.796  25.384   7.950
 5600POPC   C4B31294   1.780  25.429   7.650
 5601POPC   NC331295   2.757  23.705   9.450
 5601POPC   PO431296   2.807  23.756   9.150
 5601POPC   GL131297   2.721  23.670   8.850
 5601POPC   GL231298   2.873  23.796   8.850
 5601POPC   C1A31299   2.767  23.705   8.550
 5601POPC   D2A31300   2.720  23.672   8.250
 5601POPC   C3A31301   2.792  23.678   7.950
 5601POPC   C4A31302   2.746  23.693   7.650
 5601POPC   C1B31303   2.959  23.892   8.550
 5601POPC   C2B31304   3.005  23.874   8.250
 5601POPC   C3B31305   2.972  23.907   7.950
 5601POPC   C4B31306   2.986  23.863   7.650
 5602POPC   NC331307  40.052  30.673   9.450
 5602POPC   PO431308  40.022  30.675   9.150
 5602POPC   GL131309  40.014  30.674   8.850
 5602POPC   GL231310  40.057  30.781   8.850
 5602POPC   C1A31311  40.038  30.745   8.550
 5602POPC   D2A31312  40.031  30.739   8.250
 5602POPC   C3A31313  39.967  30.659   7.950
 5602POPC   C4A31314  39.974  30.659   7.650
 5602POPC   C1B31315  40.162  30.849   8.550
 5602POPC   C2B31316  40.132  30.930   8.250
 5602POPC   C3B31317  40.169  30.931   7.950
 5602POPC   C4B31318  40.211  30.877   7.650
 5603POPC   NC331319   3.509  24.444   9.450
 5603POPC   PO431320   3.589  24.536   9.150
 5603POPC   GL131321   3.514  24.456   8.850
 5603POPC   GL231322   3.637  24.557   8.850
 5603POPC   C1A31323   3.496  24.442   8.550
 5603POPC   D2A31324   3.537  24.441   8.250
 5603POPC   C3A31325   3.591  24.527   7.950
 5603POPC   C4A31326   3.516  24.440   7.650
 5603POPC   C1B31327   3.656  24.671   8.550
 5603POPC   C2B31328   3.679  24.654   8.250
 5603POPC   C3B31329   3.701  24.697   7.950
 5603POPC   C4B31330   3.656  24.693   7.650
 5604POPC   NC331331   0.427  23.735   9.450
 5604POPC   PO431332   0.417  23.677   9.150
 5604POPC   GL131333   0.392  23.730   8.850
 5604POPC   GL231334   0.392  23.607   8.850
 5604POPC   C1A31335   0.451  23.755   8.550
 5604POPC   D2A31336   0.480  23.720   8.250
 5604POPC   C3A31337   0.462  23.726   7.950
 5604POPC   C4A31338   0.473  23.749   7.650
 5604POPC   C1B31339   0.382  23.484   8.550
 5604POPC   C2B31340   0.393  23.441   8.250
 5604POPC   C3B31341   0.375  23.466   7.950
 5604POPC   C4B31342   0.370  23.451   7.650
 5605POPC   NC331343  10.514  30.696   9.450
 5605POPC   PO431344  10.535  30.653   9.150
 5605POPC   GL131345  10.563  30.693   8.850
 5605POPC   GL231346  10.452  30.802   8.850
 5605POPC   C1A31347  10.569  30.713   8.550
 5605POPC   D2A31348  10.561  30.694   8.250
 5605POPC   C3A31349  10.509  30.692   7.950
 5605POPC   C4A31350  10.556  30.709   7.650
 5605POPC   C1B31351  10.359  30.858   8.550
 5605POPC   C2B31352  10.329  30.876   8.250
 5605POPC   C3B31353  10.379  30.902   7.950
 5605POPC   C4B31354  10.331  30.889   7.650
 5606POPC   NC331355  22.892  36.078   9.450
 5606POPC   PO431356  22.909  36.100   9.150
 5606POPC   GL131357  22.915  36.143   8.850
 5606POPC   GL231358  23.020  35.960   8.850
 5606POPC   C1A31359  22.977  36.161   8.550
 5606POPC   D2A31360  22.909  36.095   8.250
 5606POPC   C3A31361  22.930  36.164   7.950
 5606POPC   C4A31362  22.914  36.166   7.650
 5606POPC   C1B31363  23.009  35.930   8.550
 5606POPC   C2B31364  22.991  35.910   8.250
 5606POPC   C3B31365  22.993  35.941   7.950
 5606POPC   C4B31366  22.971  35.841   7.650
 5607POPC   NC331367  40.749   3.563   9.450
 5607POPC   PO431368  40.812   3.554   9.150
 5607POPC   GL131369  40.775   3.536   8.850
 5607POPC   GL231370  40.683   3.554   8.850
 5607POPC   C1A31371  40.756   3.588   8.550
 5607POPC   D2A31372  40.796   3.531   8.250
 5607POPC   C3A31373  40.811   3.521   7.950
 5607POPC   C4A31374  40.741   3.507   7.650
 5607POPC   C1B31375  40.580   3.514   8.550
 5607POPC   C2B31376  40.504   3.510   8.250
 5607POPC   C3B31377  40.550   3.527   7.950
 5607POPC   C4B31378  40.485   3.551   7.650
 5608POPC   NC331379  30.658  26.785   9.450
 5608POPC   PO431380  30.724  26.809   9.150
 5608POPC   GL131381  30.744  26.809   8.850
 5608POPC   GL231382  30.678  26.729   8.850
 5608POPC   C1A31383  30.683  26.860   8.550
 5608POPC   D2A31384  30.704  26.774   8.250
 5608POPC   C3A31385  30.668  26.858   7.950
 5608POPC   C4A31386  30.734  26.853   7.650
 5608POPC   C1B31387  30.773  26.607   8.550
 5608POPC   C2B31388  30.702  26.621   8.250
 5608POPC   C3B31389  30.697  26.552   7.950
 5608POPC   C4B31390  30.728  26.594   7.650
 5609POPC   NC331391  22.895  12.823   9.450
 5609POPC   PO431392  22.919  12.900   9.150
 5609POPC   GL131393  22.947  12.872   8.850
 5609POPC   GL231394  22.860  12.771   8.850
 5609POPC   C1A31395  22.897  12.894   8.550
 5609POPC   D2A31396  22.889  12.836   8.250
 5609POPC   C3A31397  22.923  12.886   7.950
 5609POPC   C4A31398  22.967  12.815   7.650
 5609POPC   C1B31399  22.766  12.688   8.550
 5609POPC   C2B31400  22.777  12.691   8.250
 5609POPC   C3B31401  22.785  12.687   7.950
 5609POPC   C4B31402  22.845  12.692   7.650
 5610POPC   NC331403  43.097   3.539   9.450
 5610POPC   PO431404  43.159   3.522   9.150
 5610POPC   GL131405  43.142   3.558   8.850
 5610POPC   GL231406  43.165   3.646   8.850
 5610POPC   C1A31407  43.134   3.505   8.550
 5610POPC   D2A31408  43.124   3.522   8.250
 5610POPC   C3A31409  43.092   3.550   7.950
 5610POPC   C4A31410  43.127   3.501   7.650
 5610POPC   C1B31411  43.255   3.708   8.550
 5610POPC   C2B31412  43.317   3.694   8.250
 5610POPC   C3B31413  43.293   3.729   7.950
 5610POPC   C4B31414  43.325   3.678   7.650
 5611POPC   NC331415  27.635  35.355   9.450
 5611POPC   PO431416  27.604  35.341   9.150
 5611POPC   GL131417  27.594  35.306   8.850
 5611POPC   GL231418  27.465  35.411   8.850
 5611POPC   C1A31419  27.585  35.373   8.550
 5611POPC   D2A31420  27.561  35.391   8.250
 5611POPC   C3A31421  27.609  35.302   7.950
 5611POPC   C4A31422  27.577  35.372   7.650
 5611POPC   C1B31423  27.467  35.518   8.550
 5611POPC   C2B31424  27.428  35.569   8.250
 5611POPC   C3B31425  27.398  35.494   7.950
 5611POPC   C4B31426  27.419  35.524   7.650
 5612POPC   NC331427  30.663  37.696   9.450
 5612POPC   PO431428  30.735  37.650   9.150
 5612POPC   GL131429  30.739  37.697   8.850
 5612POPC   GL231430  30.816  37.595   8.850
 5612POPC   C1A31431  30.739  37.661   8.550
 5612POPC   D2A31432  30.675  37.678   8.250
 5612POPC   C3A31433  30.663  37.708   7.950
 5612POPC   C4A31434  30.701  37.658   7.650
 5612POPC   C1B31435  30.838  37.542   8.550
 5612POPC   C2B31436  30.883  37.481   8.250
 5612POPC   C3B31437  30.821  37.483   7.950
 5612POPC   C4B31438  30.896  37.494   7.650
 5613POPC   NC331439   1.982   4.277   9.450
 5613POPC   PO431440   1.945   4.271   9.150
 5613POPC   GL131441   1.995   4.330   8.850
 5613POPC   GL231442   2.006   4.177   8.850
 5613POPC   C1A31443   1.983   4.298   8.550
 5613POPC   D2A31444   2.013   4.361   8.250
 5613POPC   C3A31445   2.011   4.357   7.950
 5613POPC   C4A31446   1.957   4.290   7.650
 5613POPC   C1B31447   2.060   4.060   8.550
 5613POPC   C2B31448   2.119   4.087   8.250
 5613POPC   C3B31449   2.108   4.069   7.950
 5613POPC   C4B31450   2.092   4.091   7.650
 5614POPC   NC331451  36.910   9.764   9.450
 5614POPC   PO431452  36.879   9.797   9.150
 5614POPC   GL131453  36.868   9.701   8.850
 5614POPC   GL231454  36.790   9.826   8.850
 5614POPC   C1A31455  36.899   9.756   8.550
 5614POPC   D2A31456  36.915   9.703   8.250
 5614POPC   C3A31457  36.899   9.729   7.950
 5614POPC   C4A31458  36.897   9.773   7.650
 5614POPC   C1B31459  36.741   9.932   8.550
 5614POPC   C2B31460  36.769   9.915   8.250
 5614POPC   C3B31461  36.718   9.958   7.950
 5614POPC   C4B31462  36.747   9.947   7.650
 5615POPC   NC331463  19.791  10.487   9.450
 5615POPC   PO431464  19.806  10.530   9.150
 5615POPC   GL131465  19.798  10.517   8.850
 5615POPC   GL231466  19.855  10.426   8.850
 5615POPC   C1A31467  19.848  10.537   8.550
 5615POPC   D2A31468  19.840  10.553   8.250
 5615POPC   C3A31469  19.795  10.547   7.950
 5615POPC   C4A31470  19.832  10.544   7.650
 5615POPC   C1B31471  19.872  10.275   8.550
 5615POPC   C2B31472  19.944  10.256   8.250
 5615POPC   C3B31473  19.926  10.274   7.950
 5615POPC   C4B31474  19.901  10.312   7.650
 5616POPC   NC331475  15.154  13.628   9.450
 5616POPC   PO431476  15.182  13.676   9.150
 5616POPC   GL131477  15.199  13.613   8.850
 5616POPC   GL231478  15.179  13.498   8.850
 5616POPC   C1A31479  15.157  13.639   8.550
 5616POPC   D2A31480  15.173  13.667   8.250
 5616POPC   C3A31481  15.189  13.632   7.950
 5616POPC   C4A31482  15.201  13.584   7.650
 5616POPC   C1B31483  15.048  13.391   8.550
 5616POPC   C2B31484  15.065  13.352   8.250
 5616POPC   C3B31485  15.091  13.371   7.950
 5616POPC   C4B31486  15.084  13.354   7.650
 5617POPC   NC331487  25.228  12.816   9.450
 5617POPC   PO431488  25.249  12.841   9.150
 5617POPC   GL131489  25.253  12.875   8.850
 5617POPC   GL231490  25.386  12.896   8.850
 5617POPC   C1A31491  25.233  12.813   8.550
 5617POPC   D2A31492  25.302  12.876   8.250
 5617POPC   C3A31493  25.264  12.837   7.950
 5617POPC   C4A31494  25.241  12.883   7.650
 5617POPC   C1B31495  25.534  12.929   8.550
 5617POPC   C2B31496  25.520  12.850   8.250
 5617POPC   C3B31497  25.556  12.881   7.950
 5617POPC   C4B31498  25.543  12.880   7.650
 5618POPC   NC331499  29.881  33.845   9.450
 5618POPC   PO431500  29.881  33.767   9.150
 5618POPC   GL131501  29.886  33.788   8.850
 5618POPC   GL231502  29.927  33.875   8.850
 5618POPC   C1A31503  29.908  33.756   8.550
 5618POPC   D2A31504  29.955  33.795   8.250
 5618POPC   C3A31505  29.878  33.766   7.950
 5618POPC   C4A31506  29.921  33.802   7.650
 5618POPC   C1B31507  29.993  33.979   8.550
 5618POPC   C2B31508  30.063  33.995   8.250
 5618POPC   C3B31509  29.995  34.030   7.950
 5618POPC   C4B31510  30.065  34.057   7.650
 5619POPC   NC331511  30.664  31.502   9.450
 5619POPC   PO431512  30.703  31.492   9.150
 5619POPC   GL131513  30.729  31.490   8.850
 5619POPC   GL231514  30.523  31.509   8.850
 5619POPC   C1A31515  30.675  31.428   8.550
 5619POPC   D2A31516  30.712  31.499   8.250
 5619POPC   C3A31517  30.671  31.492   7.950
 5619POPC   C4A31518  30.735  31.506   7.650
 5619POPC   C1B31519  30.416  31.477   8.550
 5619POPC   C2B31520  30.455  31.508   8.250
 5619POPC   C3B31521  30.494  31.488   7.950
 5619POPC   C4B31522  30.437  31.533   7.650
 5620POPC   NC331523   6.619   2.758   9.450
 5620POPC   PO431524   6.617   2.779   9.150
 5620POPC   GL131525   6.689   2.729   8.850
 5620POPC   GL231526   6.712   2.725   8.850
 5620POPC   C1A31527   6.660   2.725   8.550
 5620POPC   D2A31528   6.637   2.805   8.250
 5620POPC   C3A31529   6.598   2.745   7.950
 5620POPC   C4A31530   6.679   2.779   7.650
 5620POPC   C1B31531   6.870   2.640   8.550
 5620POPC   C2B31532   6.838   2.597   8.250
 5620POPC   C3B31533   6.885   2.643   7.950
 5620POPC   C4B31534   6.845   2.601   7.650
 5621POPC   NC331535  34.610  12.843   9.450
 5621POPC   PO431536  34.558  12.880   9.150
 5621POPC   GL131537  34.576  12.814   8.850
 5621POPC   GL231538  34.460  12.933   8.850
 5621POPC   C1A31539  34.623  12.860   8.550
 5621POPC   D2A31540  34.532  12.885   8.250
 5621POPC   C3A31541  34.585  12.825   7.950
 5621POPC   C4A31542  34.566  12.883   7.650
 5621POPC   C1B31543  34.354  12.948   8.550
 5621POPC   C2B31544  34.349  12.967   8.250
 5621POPC   C3B31545  34.387  12.934   7.950
 5621POPC   C4B31546  34.398  12.952   7.650
 5622POPC   NC331547  20.583  37.711   9.450
 5622POPC   PO431548  20.572  37.729   9.150
 5622POPC   GL131549  20.618  37.710   8.850
 5622POPC   GL231550  20.705  37.764   8.850
 5622POPC   C1A31551  20.601  37.660   8.550
 5622POPC   D2A31552  20.623  37.663   8.250
 5622POPC   C3A31553  20.598  37.632   7.950
 5622POPC   C4A31554  20.637  37.709   7.650
 5622POPC   C1B31555  20.810  37.813   8.550
 5622POPC   C2B31556  20.815  37.871   8.250
 5622POPC   C3B31557  20.839  37.794   7.950
 5622POPC   C4B31558  20.785  37.794   7.650
 5623POPC   NC331559   8.954   1.975   9.450
 5623POPC   PO431560   8.981   1.991   9.150
 5623POPC   GL131561   8.963   1.982   8.850
 5623POPC   GL231562   8.878   2.014   8.850
 5623POPC   C1A31563   8.965   2.015   8.550
 5623POPC   D2A31564   8.954   1.996   8.250
 5623POPC   C3A31565   9.015   1.947   7.950
 5623POPC   C4A31566   8.985   1.975   7.650
 5623POPC   C1B31567   8.777   2.053   8.550
 5623POPC   C2B31568   8.707   2.088   8.250
 5623POPC   C3B31569   8.729   2.048   7.950
 5623POPC   C4B31570   8.705   2.074   7.650
 5624POPC   NC331571  22.166  22.978   9.450
 5624POPC   PO431572  22.173  22.954   9.150
 5624POPC   GL131573  22.174  22.936   8.850
 5624POPC   GL231574  22.034  22.981   8.850
 5624POPC   C1A31575  22.205  22.927   8.550
 5624POPC   D2A31576  22.192  22.889   8.250
 5624POPC   C3A31577  22.181  22.932   7.950
 5624POPC   C4A31578  22.192  22.967   7.650
 5624POPC   C1B31579  21.964  23.035   8.550
 5624POPC   C2B31580  21.921  23.041   8.250
 5624POPC   C3B31581  21.949  23.024   7.950
 5624POPC   C4B31582  21.952  23.018   7.650
 5625POPC   NC331583  32.258  29.937   9.450
 5625POPC   PO431584  32.278  29.871   9.150
 5625POPC   GL131585  32.275  29.898   8.850
 5625POPC   GL231586  32.148  29.868   8.850
 5625POPC   C1A31587  32.283  29.893   8.550
 5625POPC   D2A31588  32.260  29.920   8.250
 5625POPC   C3A31589  32.204  29.945   7.950
 5625POPC   C4A31590  32.226  29.938   7.650
 5625POPC   C1B31591  32.057  29.815   8.550
 5625POPC   C2B31592  32.022  29.833   8.250
 5625POPC   C3B31593  32.032  29.865   7.950
 5625POPC   C4B31594  31.998  29.840   7.650
 5626POPC   NC331595  29.153  12.879   9.450
 5626POPC   PO431596  29.155  12.850   9.150
 5626POPC   GL131597  29.139  12.821   8.850
 5626POPC   GL231598  28.998  12.891   8.850
 5626POPC   C1A31599  29.131  12.861   8.550
 5626POPC   D2A31600  29.144  12.898   8.250
 5626POPC   C3A31601  29.119  12.835   7.950
 5626POPC   C4A31602  29.184  12.840   7.650
 5626POPC   C1B31603  28.947  12.934   8.550
 5626POPC   C2B31604  28.867  12.857   8.250
 5626POPC   C3B31605  28.901  12.924   7.950
 5626POPC   C4B31606  28.924  12.872   7.650
 5627POPC   NC331607  38.484   6.630   9.450
 5627POPC   PO431608  38.463   6.650   9.150
 5627POPC   GL131609  38.495   6.646   8.850
 5627POPC   GL231610  38.419   6.737   8.850
 5627POPC   C1A31611  38.457   6.665   8.550
 5627POPC   D2A31612  38.450   6.622   8.250
 5627POPC   C3A31613  38.469   6.615   7.950
 5627POPC   C4A31614  38.421   6.676   7.650
 5627POPC   C1B31615  38.255   6.807   8.550
 5627POPC   C2B31616  38.304   6.826   8.250
 5627POPC   C3B31617  38.320   6.876   7.950
 5627POPC   C4B31618  38.314   6.837   7.650
 5628POPC   NC331619   1.243  11.287   9.450
 5628POPC   PO431620   1.231  11.336   9.150
 5628POPC   GL131621   1.234  11.315   8.850
 5628POPC   GL231622   1.218  11.414   8.850
 5628POPC   C1A31623   1.177  11.322   8.550
 5628POPC   D2A31624   1.256  11.274   8.250
 5628POPC   C3A31625   1.188  11.283   7.950
 5628POPC   C4A31626   1.169  11.256   7.650
 5628POPC   C1B31627   1.285  11.547   8.550
 5628POPC   C2B31628   1.222  11.507   8.250
 5628POPC   C3B31629   1.309  11.507   7.950
 5628POPC   C4B31630   1.286  11.551   7.650
 5629POPC   NC331631  43.900  31.466   9.450
 5629POPC   PO431632  43.845  31.489   9.150
 5629POPC   GL131633  43.850  31.464   8.850
 5629POPC   GL231634  43.797  31.531   8.850
 5629POPC   C1A31635  43.930  31.450   8.550
 5629POPC   D2A31636  43.909  31.426   8.250
 5629POPC   C3A31637  43.928  31.457   7.950
 5629POPC   C4A31638  43.930  31.510   7.650
 5629POPC   C1B31639  43.755  31.705   8.550
 5629POPC   C2B31640  43.751  31.644   8.250
 5629POPC   C3B31641  43.767  31.655   7.950
 5629POPC   C4B31642  43.736  31.676   7.650
 5630POPC   NC331643  26.793  18.262   9.450
 5630POPC   PO431644  26.829  18.314   9.150
 5630POPC   GL131645  26.774  18.245   8.850
 5630POPC   GL231646  26.719  18.397   8.850
 5630POPC   C1A31647  26.861  18.246   8.550
 5630POPC   D2A31648  26.818  18.254   8.250
 5630POPC   C3A31649  26.861  18.293   7.950
 5630POPC   C4A31650  26.801  18.240   7.650
 5630POPC   C1B31651  26.667  18.472   8.550
 5630POPC   C2B31652  26.664  18.458   8.250
 5630POPC   C3B31653  26.607  18.399   7.950
 5630POPC   C4B31654  26.596  18.483   7.650
 5631POPC   NC331655  17.474  29.962   9.450
 5631POPC   PO431656  17.548  29.892   9.150
 5631POPC   GL131657  17.533  29.969   8.850
 5631POPC   GL231658  17.573  30.009   8.850
 5631POPC   C1A31659  17.503  29.886   8.550
 5631POPC   D2A31660  17.488  29.875   8.250
 5631POPC   C3A31661  17.470  29.905   7.950
 5631POPC   C4A31662  17.525  29.871   7.650
 5631POPC   C1B31663  17.658  30.173   8.550
 5631POPC   C2B31664  17.611  30.090   8.250
 5631POPC   C3B31665  17.595  30.179   7.950
 5631POPC   C4B31666  17.595  30.163   7.650
 5632POPC   NC331667  43.861  19.103   9.450
 5632POPC   PO431668  43.891  19.097   9.150
 5632POPC   GL131669  43.875  19.040   8.850
 5632POPC   GL231670  43.801  18.974   8.850
 5632POPC   C1A31671  43.867  19.014   8.550
 5632POPC   D2A31672  43.933  19.078   8.250
 5632POPC   C3A31673  43.918  19.101   7.950
 5632POPC   C4A31674  43.934  19.067   7.650
 5632POPC   C1B31675  43.700  18.901   8.550
 5632POPC   C2B31676  43.703  18.837   8.250
 5632POPC   C3B31677  43.738  18.843   7.950
 5632POPC   C4B31678  43.722  18.878   7.650
 5633POPC   NC331679  11.338  33.039   9.450
 5633POPC   PO431680  11.317  32.983   9.150
 5633POPC   GL131681  11.256  32.988   8.850
 5633POPC   GL231682  11.173  33.153   8.850
 5633POPC   C1A31683  11.274  33.010   8.550
 5633POPC   D2A31684  11.333  32.981   8.250
 5633POPC   C3A31685  11.327  32.990   7.950
 5633POPC   C4A31686  11.302  32.989   7.650
 5633POPC   C1B31687  11.086  33.186   8.550
 5633POPC   C2B31688  11.136  33.232   8.250
 5633POPC   C3B31689  11.110  33.229   7.950
 5633POPC   C4B31690  11.095  33.226   7.650
 5634POPC   NC331691  19.837   5.900   9.450
 5634POPC   PO431692  19.862   5.827   9.150
 5634POPC   GL131693  19.854   5.823   8.850
 5634POPC   GL231694  19.932   5.842   8.850
 5634POPC   C1A31695  19.832   5.906   8.550
 5634POPC   D2A31696  19.833   5.857   8.250
 5634POPC   C3A31697  19.873   5.826   7.950
 5634POPC   C4A31698  19.826   5.872   7.650
 5634POPC   C1B31699  20.036   5.767   8.550
 5634POPC   C2B31700  20.102   5.747   8.250
 5634POPC   C3B31701  20.063   5.726   7.950
 5634POPC   C4B31702  20.082   5.699   7.650
 5635POPC   NC331703   1.258  39.227   9.450
 5635POPC   PO431704   1.245  39.254   9.150
 5635POPC   GL131705   1.241  39.188   8.850
 5635POPC   GL231706   1.096  39.207   8.850
 5635POPC   C1A31707   1.217  39.265   8.550
 5635POPC   D2A31708   1.189  39.190   8.250
 5635POPC   C3A31709   1.258  39.226   7.950
 5635POPC   C4A31710   1.183  39.257   7.650
 5635POPC   C1B31711   1.047  39.101   8.550
 5635POPC   C2B31712   0.968  39.057   8.250
 5635POPC   C3B31713   1.028  39.122   7.950
 5635POPC   C4B31714   1.037  39.069   7.650
 5636POPC   NC331715  44.700  43.107   9.450
 5636POPC   PO431716  44.651  43.104   9.150
 5636POPC   GL131717  44.635  43.120   8.850
 5636POPC   GL231718  44.587  43.251   8.850
 5636POPC   C1A31719  44.612  43.090   8.550
 5636POPC   D2A31720  44.617  43.123   8.250
 5636POPC   C3A31721  44.636  43.149   7.950
 5636POPC   C4A31722  44.679  43.069   7.650
 5636POPC   C1B31723  44.588  43.360   8.550
 5636POPC   C2B31724  44.555  43.321   8.250
 5636POPC   C3B31725  44.618  43.341   7.950
 5636POPC   C4B31726  44.573  43.381   7.650
 5637POPC   NC331727   4.354  14.378   9.450
 5637POPC   PO431728   4.296  14.402   9.150
 5637POPC   GL131729   4.352  14.433   8.850
 5637POPC   GL231730   4.396  14.521   8.850
 5637POPC   C1A31731   4.285  14.398   8.550
 5637POPC   D2A31732   4.270  14.363   8.250
 5637POPC   C3A31733   4.279  14.387   7.950
 5637POPC   C4A31734   4.320  14.371   7.650
 5637POPC   C1B31735   4.364  14.608   8.550
 5637POPC   C2B31736   4.362  14.689   8.250
 5637POPC   C3B31737   4.402  14.599   7.950
 5637POPC   C4B31738   4.352  14.673   7.650
 5638POPC   NC331739   7.391  29.139   9.450
 5638POPC   PO431740   7.467  29.189   9.150
 5638POPC   GL131741   7.414  29.170   8.850
 5638POPC   GL231742   7.257  29.216   8.850
 5638POPC   C1A31743   7.427  29.106   8.550
 5638POPC   D2A31744   7.381  29.150   8.250
 5638POPC   C3A31745   7.456  29.107   7.950
 5638POPC   C4A31746   7.464  29.144   7.650
 5638POPC   C1B31747   7.144  29.229   8.550
 5638POPC   C2B31748   7.172  29.231   8.250
 5638POPC   C3B31749   7.199  29.236   7.950
 5638POPC   C4B31750   7.181  29.214   7.650
 5639POPC   NC331751  34.550  35.341   9.450
 5639POPC   PO431752  34.568  35.388   9.150
 5639POPC   GL131753  34.559  35.311   8.850
 5639POPC   GL231754  34.658  35.421   8.850
 5639POPC   C1A31755  34.568  35.329   8.550
 5639POPC   D2A31756  34.542  35.348   8.250
 5639POPC   C3A31757  34.568  35.387   7.950
 5639POPC   C4A31758  34.601  35.398   7.650
 5639POPC   C1B31759  34.661  35.615   8.550
 5639POPC   C2B31760  34.650  35.603   8.250
 5639POPC   C3B31761  34.666  35.605   7.950
 5639POPC   C4B31762  34.676  35.566   7.650
 5640POPC   NC331763  12.082  20.639   9.450
 5640POPC   PO431764  12.045  20.567   9.150
 5640POPC   GL131765  12.086  20.601   8.850
 5640POPC   GL231766  12.062  20.715   8.850
 5640POPC   C1A31767  12.076  20.646   8.550
 5640POPC   D2A31768  12.108  20.581   8.250
 5640POPC   C3A31769  12.110  20.561   7.950
 5640POPC   C4A31770  12.045  20.572   7.650
 5640POPC   C1B31771  11.937  20.778   8.550
 5640POPC   C2B31772  11.965  20.800   8.250
 5640POPC   C3B31773  11.993  20.871   7.950
 5640POPC   C4B31774  11.909  20.845   7.650
 5641POPC   NC331775  14.428   8.188   9.450
 5641POPC   PO431776  14.363   8.184   9.150
 5641POPC   GL131777  14.360   8.164   8.850
 5641POPC   GL231778  14.255   8.240   8.850
 5641POPC   C1A31779  14.431   8.247   8.550
 5641POPC   D2A31780  14.377   8.194   8.250
 5641POPC   C3A31781  14.408   8.202   7.950
 5641POPC   C4A31782  14.414   8.166   7.650
 5641POPC   C1B31783  14.171   8.205   8.550
 5641POPC   C2B31784  14.132   8.269   8.250
 5641POPC   C3B31785  14.178   8.218   7.950
 5641POPC   C4B31786  14.113   8.235   7.650
 5642POPC   NC331787  12.900  12.848   9.450
 5642POPC   PO431788  12.897  12.868   9.150
 5642POPC   GL131789  12.814  12.823   8.850
 5642POPC   GL231790  12.760  12.824   8.850
 5642POPC   C1A31791  12.886  12.899   8.550
 5642POPC   D2A31792  12.853  12.821   8.250
 5642POPC   C3A31793  12.824  12.845   7.950
 5642POPC   C4A31794  12.882  12.876   7.650
 5642POPC   C1B31795  12.592  12.895   8.550
 5642POPC   C2B31796  12.620  12.871   8.250
 5642POPC   C3B31797  12.593  12.862   7.950
 5642POPC   C4B31798  12.572  12.908   7.650
 5643POPC   NC331799  40.032   7.398   9.450
 5643POPC   PO431800  40.017   7.399   9.150
 5643POPC   GL131801  40.050   7.442   8.850
 5643POPC   GL231802  39.929   7.341   8.850
 5643POPC   C1A31803  40.048   7.453   8.550
 5643POPC   D2A31804  39.975   7.406   8.250
 5643POPC   C3A31805  40.015   7.377   7.950
 5643POPC   C4A31806  39.999   7.460   7.650
 5643POPC   C1B31807  39.832   7.169   8.550
 5643POPC   C2B31808  39.891   7.187   8.250
 5643POPC   C3B31809  39.842   7.264   7.950
 5643POPC   C4B31810  39.899   7.265   7.650
 5644POPC   NC331811  35.368  19.078   9.450
 5644POPC   PO431812  35.310  19.101   9.150
 5644POPC   GL131813  35.375  19.054   8.850
 5644POPC   GL231814  35.310  19.101   8.850
 5644POPC   C1A31815  35.354  19.011   8.550
 5644POPC   D2A31816  35.394  19.061   8.250
 5644POPC   C3A31817  35.310  19.031   7.950
 5644POPC   C4A31818  35.356  19.083   7.650
 5644POPC   C1B31819  35.184  19.193   8.550
 5644POPC   C2B31820  35.174  19.252   8.250
 5644POPC   C3B31821  35.164  19.226   7.950
 5644POPC   C4B31822  35.221  19.215   7.650
 5645POPC   NC331823   2.758  37.658   9.450
 5645POPC   PO431824   2.780  37.727   9.150
 5645POPC   GL131825   2.727  37.668   8.850
 5645POPC   GL231826   2.617  37.630   8.850
 5645POPC   C1A31827   2.790  37.672   8.550
 5645POPC   D2A31828   2.775  37.650   8.250
 5645POPC   C3A31829   2.750  37.663   7.950
 5645POPC   C4A31830   2.786  37.667   7.650
 5645POPC   C1B31831   2.510  37.652   8.550
 5645POPC   C2B31832   2.571  37.657   8.250
 5645POPC   C3B31833   2.521  37.595   7.950
 5645POPC   C4B31834   2.475  37.603   7.650
 5646POPC   NC331835   9.741   2.006   9.450
 5646POPC   PO431836   9.750   1.994   9.150
 5646POPC   GL131837   9.750   1.948   8.850
 5646POPC   GL231838   9.750   1.826   8.850
 5646POPC   C1A31839   9.751   1.992   8.550
 5646POPC   D2A31840   9.793   2.018   8.250
 5646POPC   C3A31841   9.721   1.986   7.950
 5646POPC   C4A31842   9.760   1.993   7.650
 5646POPC   C1B31843   9.634   1.733   8.550
 5646POPC   C2B31844   9.620   1.707   8.250
 5646POPC   C3B31845   9.640   1.717   7.950
 5646POPC   C4B31846   9.674   1.784   7.650
 5647POPC   NC331847  24.478  16.727   9.450
 5647POPC   PO431848  24.493  16.735   9.150
 5647POPC   GL131849  24.536  16.682   8.850
 5647POPC   GL231850  24.378  16.801   8.850
 5647POPC   C1A31851  24.451  16.762   8.550
 5647POPC   D2A31852  24.455  16.731   8.250
 5647POPC   C3A31853  24.448  16.713   7.950
 5647POPC   C4A31854  24.519  16.719   7.650
 5647POPC   C1B31855  24.390  16.942   8.550
 5647POPC   C2B31856  24.356  16.909   8.250
 5647POPC   C3B31857  24.325  16.980   7.950
 5647POPC   C4B31858  24.323  16.967   7.650
 5648POPC   NC331859   2.035  12.885   9.450
 5648POPC   PO431860   2.016  12.812   9.150
 5648POPC   GL131861   2.030  12.804   8.850
 5648POPC   GL231862   1.887  12.918   8.850
 5648POPC   C1A31863   1.976  12.900   8.550
 5648POPC   D2A31864   1.972  12.805   8.250
 5648POPC   C3A31865   1.970  12.846   7.950
 5648POPC   C4A31866   2.017  12.818   7.650
 5648POPC   C1B31867   1.823  13.077   8.550
 5648POPC   C2B31868   1.807  13.053   8.250
 5648POPC   C3B31869   1.816  13.083   7.950
 5648POPC   C4B31870   1.859  13.073   7.650
 5649POPC   NC331871  23.746  13.670   9.450
 5649POPC   PO431872  23.679  13.657   9.150
 5649POPC   GL131873  23.696  13.659   8.850
 5649POPC   GL231874  23.841  13.670   8.850
 5649POPC   C1A31875  23.752  13.612   8.550
 5649POPC   D2A31876  23.732  13.626   8.250
 5649POPC   C3A31877  23.742  13.619   7.950
 5649POPC   C4A31878  23.686  13.581   7.650
 5649POPC   C1B31879  23.908  13.782   8.550
 5649POPC   C2B31880  23.913  13.804   8.250
 5649POPC   C3B31881  23.930  13.835   7.950
 5649POPC   C4B31882  23.877  13.839   7.650
 5650POPC   NC331883  33.822  13.643   9.450
 5650POPC   PO431884  33.769  13.638   9.150
 5650POPC   GL131885  33.770  13.651   8.850
 5650POPC   GL231886  33.753  13.514   8.850
 5650POPC   C1A31887  33.810  13.581   8.550
 5650POPC   D2A31888  33.830  13.611   8.250
 5650POPC   C3A31889  33.786  13.584   7.950
 5650POPC   C4A31890  33.844  13.601   7.650
 5650POPC   C1B31891  33.769  13.374   8.550
 5650POPC   C2B31892  33.718  13.358   8.250
 5650POPC   C3B31893  33.740  13.387   7.950
 5650POPC   C4B31894  33.769  13.362   7.650
 5651POPC   NC331895  32.279  21.343   9.450
 5651POPC   PO431896  32.279  21.409   9.150
 5651POPC   GL131897  32.236  21.418   8.850
 5651POPC   GL231898  32.357  21.432   8.850
 5651POPC   C1A31899  32.226  21.394   8.550
 5651POPC   D2A31900  32.259  21.423   8.250
 5651POPC   C3A31901  32.243  21.427   7.950
 5651POPC   C4A31902  32.247  21.433   7.650
 5651POPC   C1B31903  32.464  21.522   8.550
 5651POPC   C2B31904  32.479  21.499   8.250
 5651POPC   C3B31905  32.482  21.524   7.950
 5651POPC   C4B31906  32.446  21.565   7.650
 5652POPC   NC331907   2.795   0.439   9.450
 5652POPC   PO431908   2.805   0.407   9.150
 5652POPC   GL131909   2.763   0.403   8.850
 5652POPC   GL231910   2.634   0.435   8.850
 5652POPC   C1A31911   2.797   0.481   8.550
 5652POPC   D2A31912   2.745   0.461   8.250
 5652POPC   C3A31913   2.739   0.411   7.950
 5652POPC   C4A31914   2.757   0.432   7.650
 5652POPC   C1B31915   2.510   0.486   8.550
 5652POPC   C2B31916   2.564   0.431   8.250
 5652POPC   C3B31917   2.552   0.444   7.950
 5652POPC   C4B31918   2.523   0.498   7.650
 5653POPC   NC331919  27.616  28.354   9.450
 5653POPC   PO431920  27.562  28.393   9.150
 5653POPC   GL131921  27.576  28.363   8.850
 5653POPC   GL231922  27.442  28.375   8.850
 5653POPC   C1A31923  27.617  28.331   8.550
 5653POPC   D2A31924  27.580  28.348   8.250
 5653POPC   C3A31925  27.550  28.346   7.950
 5653POPC   C4A31926  27.621  28.398   7.650
 5653POPC   C1B31927  27.336  28.318   8.550
 5653POPC   C2B31928  27.342  28.380   8.250
 5653POPC   C3B31929  27.346  28.341   7.950
 5653POPC   C4B31930  27.311  28.301   7.650
 5654POPC   NC331931  36.177  15.960   9.450
 5654POPC   PO431932  36.177  15.920   9.150
 5654POPC   GL131933  36.124  15.948   8.850
 5654POPC   GL231934  36.283  15.923   8.850
 5654POPC   C1A31935  36.157  15.923   8.550
 5654POPC   D2A31936  36.083  15.954   8.250
 5654POPC   C3A31937  36.136  15.932   7.950
 5654POPC   C4A31938  36.168  15.950   7.650
 5654POPC   C1B31939  36.385  15.880   8.550
 5654POPC   C2B31940  36.375  15.878   8.250
 5654POPC   C3B31941  36.379  15.891   7.950
 5654POPC   C4B31942  36.353  15.897   7.650
 5655POPC   NC331943  36.880  18.260   9.450
 5655POPC   PO431944  36.942  18.321   9.150
 5655POPC   GL131945  36.884  18.320   8.850
 5655POPC   GL231946  37.018  18.372   8.850
 5655POPC   C1A31947  36.953  18.303   8.550
 5655POPC   D2A31948  36.880  18.247   8.250
 5655POPC   C3A31949  36.878  18.280   7.950
 5655POPC   C4A31950  36.888  18.299   7.650
 5655POPC   C1B31951  37.139  18.410   8.550
 5655POPC   C2B31952  37.099  18.334   8.250
 5655POPC   C3B31953  37.129  18.368   7.950
 5655POPC   C4B31954  37.113  18.397   7.650
 5656POPC   NC331955  29.952  22.944   9.450
 5656POPC   PO431956  29.921  22.979   9.150
 5656POPC   GL131957  29.929  22.923   8.850
 5656POPC   GL231958  29.852  23.026   8.850
 5656POPC   C1A31959  29.903  22.905   8.550
 5656POPC   D2A31960  29.965  22.967   8.250
 5656POPC   C3A31961  29.936  22.970   7.950
 5656POPC   C4A31962  29.951  22.943   7.650
 5656POPC   C1B31963  29.704  23.093   8.550
 5656POPC   C2B31964  29.727  23.095   8.250
 5656POPC   C3B31965  29.716  23.051   7.950
 5656POPC   C4B31966  29.707  23.070   7.650
 5657POPC   NC331967   7.460   0.486   9.450
 5657POPC   PO431968   7.414   0.428   9.150
 5657POPC   GL131969   7.391   0.484   8.850
 5657POPC   GL231970   7.491   0.356   8.850
 5657POPC   C1A31971   7.463   0.459   8.550
 5657POPC   D2A31972   7.448   0.476   8.250
 5657POPC   C3A31973   7.377   0.473   7.950
 5657POPC   C4A31974   7.372   0.470   7.650
 5657POPC   C1B31975   7.548   0.272   8.550
 5657POPC   C2B31976   7.635   0.226   8.250
 5657POPC   C3B31977   7.638   0.288   7.950
 5657POPC   C4B31978   7.562   0.221   7.650
 5658POPC   NC331979  29.950  35.375   9.450
 5658POPC   PO431980  29.924  35.337   9.150
 5658POPC   GL131981  29.907  35.381   8.850
 5658POPC   GL231982  29.821  35.288   8.850
 5658POPC   C1A31983  29.876  35.346   8.550
 5658POPC   D2A31984  29.967  35.325   8.250
 5658POPC   C3A31985  29.888  35.400   7.950
 5658POPC   C4A31986  29.883  35.393   7.650
 5658POPC   C1B31987  29.749  35.180   8.550
 5658POPC   C2B31988  29.799  35.178   8.250
 5658POPC   C3B31989  29.723  35.153   7.950
 5658POPC   C4B31990  29.791  35.169   7.650
 5659POPC   NC331991  22.171  12.059   9.450
 5659POPC   PO431992  22.141  12.052   9.150
 5659POPC   GL131993  22.115  12.080   8.850
 5659POPC   GL231994  22.178  12.226   8.850
 5659POPC   C1A31995  22.169  12.041   8.550
 5659POPC   D2A31996  22.177  12.121   8.250
 5659POPC   C3A31997  22.161  12.117   7.950
 5659POPC   C4A31998  22.189  12.108   7.650
 5659POPC   C1B31999  22.108  12.356   8.550
 5659POPC   C2B32000  22.184  12.320   8.250
 5659POPC   C3B32001  22.156  12.316   7.950
 5659POPC   C4B32002  22.105  12.288   7.650
 5660POPC   NC332003  29.907   3.554   9.450
 5660POPC   PO432004  29.937   3.530   9.150
 5660POPC   GL132005  29.919   3.583   8.850
 5660POPC   GL232006  29.970   3.440   8.850
 5660POPC   C1A32007  29.961   3.514   8.550
 5660POPC   D2A32008  29.909   3.576   8.250
 5660POPC   C3A32009  29.890   3.559   7.950
 5660POPC   C4A32010  29.965   3.553   7.650
 5660POPC   C1B32011  30.113   3.352   8.550
 5660POPC   C2B32012  30.056   3.401   8.250
 5660POPC   C3B32013  30.046   3.320   7.950
 5660POPC   C4B32014  30.082   3.336   7.650
 5661POPC   NC332015  33.769  15.151   9.450
 5661POPC   PO432016  33.758  15.151   9.150
 5661POPC   GL132017  33.817  15.152   8.850
 5661POPC   GL232018  33.750  15.047   8.850
 5661POPC   C1A32019  33.819  15.186   8.550
 5661POPC   D2A32020  33.791  15.217   8.250
 5661POPC   C3A32021  33.766  15.175   7.950
 5661POPC   C4A32022  33.767  15.136   7.650
 5661POPC   C1B32023  33.799  14.939   8.550
 5661POPC   C2B32024  33.722  14.884   8.250
 5661POPC   C3B32025  33.710  14.908   7.950
 5661POPC   C4B32026  33.732  14.901   7.650
 5662POPC   NC332027  22.983  29.187   9.450
 5662POPC   PO432028  22.974  29.109   9.150
 5662POPC   GL132029  22.962  29.186   8.850
 5662POPC   GL232030  22.872  29.068   8.850
 5662POPC   C1A32031  22.955  29.176   8.550
 5662POPC   D2A32032  22.895  29.160   8.250
 5662POPC   C3A32033  22.907  29.171   7.950
 5662POPC   C4A32034  22.964  29.158   7.650
 5662POPC   C1B32035  22.707  29.027   8.550
 5662POPC   C2B32036  22.727  29.072   8.250
 5662POPC   C3B32037  22.748  28.991   7.950
 5662POPC   C4B32038  22.709  29.033   7.650
 5663POPC   NC332039   2.032  18.292   9.450
 5663POPC   PO432040   2.033  18.271   9.150
 5663POPC   GL132041   1.946  18.299   8.850
 5663POPC   GL232042   2.067  18.332   8.850
 5663POPC   C1A32043   1.991  18.290   8.550
 5663POPC   D2A32044   1.949  18.245   8.250
 5663POPC   C3A32045   1.968  18.310   7.950
 5663POPC   C4A32046   1.969  18.308   7.650
 5663POPC   C1B32047   2.211  18.256   8.550
 5663POPC   C2B32048   2.264  18.278   8.250
 5663POPC   C3B32049   2.250  18.290   7.950
 5663POPC   C4B32050   2.257  18.263   7.650
 5664POPC   NC332051  44.683   3.498   9.450
 5664POPC   PO432052  44.698   3.500   9.150
 5664POPC   GL132053  44.652   3.545   8.850
 5664POPC   GL232054  44.720   3.602   8.850
 5664POPC   C1A32055  44.673   3.556   8.550
 5664POPC   D2A32056  44.624   3.493   8.250
 5664POPC   C3A32057  44.671   3.579   7.950
 5664POPC   C4A32058  44.679   3.539   7.650
 5664POPC   C1B32059  44.868   3.690   8.550
 5664POPC   C2B32060  44.791   3.726   8.250
 5664POPC   C3B32061  44.832   3.726   7.950
 5664POPC   C4B32062  44.875   3.761   7.650
 5665POPC   NC332063   2.733  35.357   9.450
 5665POPC   PO432064   2.776  35.342   9.150
 5665POPC   GL132065   2.781  35.321   8.850
 5665POPC   GL232066   2.682  35.303   8.850
 5665POPC   C1A32067   2.740  35.367   8.550
 5665POPC   D2A32068   2.738  35.347   8.250
 5665POPC   C3A32069   2.767  35.358   7.950
 5665POPC   C4A32070   2.813  35.349   7.650
 5665POPC   C1B32071   2.512  35.273   8.550
 5665POPC   C2B32072   2.530  35.266   8.250
 5665POPC   C3B32073   2.496  35.234   7.950
 5665POPC   C4B32074   2.563  35.246   7.650
 5666POPC   NC332075  30.741   6.657   9.450
 5666POPC   PO432076  30.702   6.670   9.150
 5666POPC   GL132077  30.736   6.599   8.850
 5666POPC   GL232078  30.690   6.756   8.850
 5666POPC   C1A32079  30.739   6.622   8.550
 5666POPC   D2A32080  30.647   6.628   8.250
 5666POPC   C3A32081  30.648   6.596   7.950
 5666POPC   C4A32082  30.740   6.651   7.650
 5666POPC   C1B32083  30.676   6.860   8.550
 5666POPC   C2B32084  30.583   6.923   8.250
 5666POPC   C3B32085  30.614   6.882   7.950
 5666POPC   C4B32086  30.629   6.917   7.650
 5667POPC   NC332087  20.642  19.836   9.450
 5667POPC   PO432088  20.634  19.881   9.150
 5667POPC   GL132089  20.620  19.879   8.850
 5667POPC   GL232090  20.687  19.853   8.850
 5667POPC   C1A32091  20.576  19.799   8.550
 5667POPC   D2A32092  20.652  19.880   8.250
 5667POPC   C3A32093  20.595  19.872   7.950
 5667POPC   C4A32094  20.565  19.821   7.650
 5667POPC   C1B32095  20.871  19.884   8.550
 5667POPC   C2B32096  20.832  19.895   8.250
 5667POPC   C3B32097  20.832  19.923   7.950
 5667POPC   C4B32098  20.817  19.949   7.650
 5668POPC   NC332099   5.064  22.934   9.450
 5668POPC   PO432100   5.121  22.902   9.150
 5668POPC   GL132101   5.054  22.957   8.850
 5668POPC   GL232102   4.993  22.904   8.850
 5668POPC   C1A32103   5.059  22.907   8.550
 5668POPC   D2A32104   5.129  22.972   8.250
 5668POPC   C3A32105   5.091  22.951   7.950
 5668POPC   C4A32106   5.046  22.910   7.650
 5668POPC   C1B32107   4.939  22.740   8.550
 5668POPC   C2B32108   4.899  22.787   8.250
 5668POPC   C3B32109   4.863  22.799   7.950
 5668POPC   C4B32110   4.921  22.761   7.650
 5669POPC   NC332111  22.948   7.458   9.450
 5669POPC   PO432112  22.972   7.430   9.150
 5669POPC   GL132113  22.909   7.468   8.850
 5669POPC   GL232114  23.040   7.473   8.850
 5669POPC   C1A32115  22.889   7.402   8.550
 5669POPC   D2A32116  22.932   7.409   8.250
 5669POPC   C3A32117  22.900   7.429   7.950
 5669POPC   C4A32118  22.922   7.451   7.650
 5669POPC   C1B32119  23.234   7.461   8.550
 5669POPC   C2B32120  23.175   7.512   8.250
 5669POPC   C3B32121  23.151   7.484   7.950
 5669POPC   C4B32122  23.234   7.470   7.650
 5670POPC   NC332123  22.908  43.922   9.450
 5670POPC   PO432124  22.904  43.884   9.150
 5670POPC   GL132125  22.983  43.917   8.850
 5670POPC   GL232126  22.806  44.004   8.850
 5670POPC   C1A32127  22.982  43.907   8.550
 5670POPC   D2A32128  22.910  43.935   8.250
 5670POPC   C3A32129  22.906  43.861   7.950
 5670POPC   C4A32130  22.958  43.842   7.650
 5670POPC   C1B32131  22.728  44.025   8.550
 5670POPC   C2B32132  22.695  44.028   8.250
 5670POPC   C3B32133  22.749  44.062   7.950
 5670POPC   C4B32134  22.724  44.053   7.650
 5671POPC   NC332135  32.270  37.676   9.450
 5671POPC   PO432136  32.221  37.691   9.150
 5671POPC   GL132137  32.289  37.670   8.850
 5671POPC   GL232138  32.398  37.662   8.850
 5671POPC   C1A32139  32.278  37.720   8.550
 5671POPC   D2A32140  32.256  37.684   8.250
 5671POPC   C3A32141  32.254  37.636   7.950
 5671POPC   C4A32142  32.286  37.669   7.650
 5671POPC   C1B32143  32.523  37.570   8.550
 5671POPC   C2B32144  32.479  37.621   8.250
 5671POPC   C3B32145  32.443  37.585   7.950
 5671POPC   C4B32146  32.460  37.605   7.650
 5672POPC   NC332147  36.903  29.882   9.450
 5672POPC   PO432148  36.900  29.904   9.150
 5672POPC   GL132149  36.917  29.950   8.850
 5672POPC   GL232150  36.980  29.785   8.850
 5672POPC   C1A32151  36.884  29.970   8.550
 5672POPC   D2A32152  36.912  29.931   8.250
 5672POPC   C3A32153  36.881  29.918   7.950
 5672POPC   C4A32154  36.930  29.953   7.650
 5672POPC   C1B32155  37.046  29.692   8.550
 5672POPC   C2B32156  37.095  29.673   8.250
 5672POPC   C3B32157  37.015  29.724   7.950
 5672POPC   C4B32158  37.052  29.756   7.650
 5673POPC   NC332159  13.663  28.364   9.450
 5673POPC   PO432160  13.626  28.411   9.150
 5673POPC   GL132161  13.585  28.319   8.850
 5673POPC   GL232162  13.650  28.234   8.850
 5673POPC   C1A32163  13.651  28.411   8.550
 5673POPC   D2A32164  13.593  28.360   8.250
 5673POPC   C3A32165  13.595  28.383   7.950
 5673POPC   C4A32166  13.636  28.409   7.650
 5673POPC   C1B32167  13.568  28.161   8.550
 5673POPC   C2B32168  13.604  28.158   8.250
 5673POPC   C3B32169  13.548  28.115   7.950
 5673POPC   C4B32170  13.556  28.124   7.650
 5674POPC   NC332171   8.164   7.470   9.450
 5674POPC   PO432172   8.153   7.378   9.150
 5674POPC   GL132173   8.176   7.403   8.850
 5674POPC   GL232174   8.338   7.443   8.850
 5674POPC   C1A32175   8.152   7.375   8.550
 5674POPC   D2A32176   8.180   7.392   8.250
 5674POPC   C3A32177   8.194   7.410   7.950
 5674POPC   C4A32178   8.228   7.407   7.650
 5674POPC   C1B32179   8.442   7.448   8.550
 5674POPC   C2B32180   8.416   7.404   8.250
 5674POPC   C3B32181   8.485   7.457   7.950
 5674POPC   C4B32182   8.482   7.464   7.650
 5675POPC   NC332183   2.005  38.477   9.450
 5675POPC   PO432184   1.977  38.464   9.150
 5675POPC   GL132185   2.018  38.453   8.850
 5675POPC   GL232186   2.090  38.346   8.850
 5675POPC   C1A32187   1.977  38.460   8.550
 5675POPC   D2A32188   1.993  38.465   8.250
 5675POPC   C3A32189   1.989  38.406   7.950
 5675POPC   C4A32190   1.965  38.442   7.650
 5675POPC   C1B32191   2.173  38.294   8.550
 5675POPC   C2B32192   2.102  38.211   8.250
 5675POPC   C3B32193   2.124  38.240   7.950
 5675POPC   C4B32194   2.128  38.240   7.650
 5676POPC   NC332195  33.818  24.491   9.450
 5676POPC   PO432196  33.755  24.480   9.150
 5676POPC   GL132197  33.753  24.490   8.850
 5676POPC   GL232198  33.760  24.580   8.850
 5676POPC   C1A32199  33.819  24.459   8.550
 5676POPC   D2A32200  33.841  24.465   8.250
 5676POPC   C3A32201  33.829  24.446   7.950
 5676POPC   C4A32202  33.833  24.467   7.650
 5676POPC   C1B32203  33.740  24.769   8.550
 5676POPC   C2B32204  33.709  24.743   8.250
 5676POPC   C3B32205  33.716  24.759   7.950
 5676POPC   C4B32206  33.711  24.735   7.650
 5677POPC   NC332207   8.979  33.015   9.450
 5677POPC   PO432208   8.952  32.982   9.150
 5677POPC   GL132209   8.974  33.028   8.850
 5677POPC   GL232210   8.990  33.106   8.850
 5677POPC   C1A32211   8.952  32.998   8.550
 5677POPC   D2A32212   9.004  33.025   8.250
 5677POPC   C3A32213   8.988  33.005   7.950
 5677POPC   C4A32214   8.989  33.022   7.650
 5677POPC   C1B32215   9.109  33.247   8.550
 5677POPC   C2B32216   9.071  33.235   8.250
 5677POPC   C3B32217   9.118  33.251   7.950
 5677POPC   C4B32218   9.087  33.244   7.650
 5678POPC   NC332219  39.996  36.100   9.450
 5678POPC   PO432220  39.958  36.117   9.150
 5678POPC   GL132221  39.983  36.092   8.850
 5678POPC   GL232222  40.004  35.990   8.850
 5678POPC   C1A32223  40.015  36.127   8.550
 5678POPC   D2A32224  40.011  36.156   8.250
 5678POPC   C3A32225  40.006  36.154   7.950
 5678POPC   C4A32226  39.985  36.124   7.650
 5678POPC   C1B32227  40.074  35.871   8.550
 5678POPC   C2B32228  40.046  35.833   8.250
 5678POPC   C3B32229  40.055  35.907   7.950
 5678POPC   C4B32230  40.017  35.894   7.650
 5679POPC   NC332231  22.155  36.120   9.450
 5679POPC   PO432232  22.130  36.105   9.150
 5679POPC   GL132233  22.171  36.147   8.850
 5679POPC   GL232234  22.252  36.206   8.850
 5679POPC   C1A32235  22.148  36.153   8.550
 5679POPC   D2A32236  22.191  36.126   8.250
 5679POPC   C3A32237  22.167  36.118   7.950
 5679POPC   C4A32238  22.120  36.165   7.650
 5679POPC   C1B32239  22.381  36.259   8.550
 5679POPC   C2B32240  22.403  36.291   8.250
 5679POPC   C3B32241  22.363  36.298   7.950
 5679POPC   C4B32242  22.413  36.229   7.650
 5680POPC   NC332243   3.525   4.343   9.450
 5680POPC   PO432244   3.545   4.268   9.150
 5680POPC   GL132245   3.543   4.294   8.850
 5680POPC   GL232246   3.637   4.404   8.850
 5680POPC   C1A32247   3.514   4.302   8.550
 5680POPC   D2A32248   3.526   4.302   8.250
 5680POPC   C3A32249   3.578   4.277   7.950
 5680POPC   C4A32250   3.534   4.319   7.650
 5680POPC   C1B32251   3.764   4.413   8.550
 5680POPC   C2B32252   3.746   4.366   8.250
 5680POPC   C3B32253   3.767   4.448   7.950
 5680POPC   C4B32254   3.819   4.389   7.650
 5681POPC   NC332255  39.971  13.631   9.450
 5681POPC   PO432256  40.022  13.671   9.150
 5681POPC   GL132257  39.960  13.601   8.850
 5681POPC   GL232258  39.990  13.718   8.850
 5681POPC   C1A32259  40.055  13.594   8.550
 5681POPC   D2A32260  40.000  13.662   8.250
 5681POPC   C3A32261  39.999  13.607   7.950
 5681POPC   C4A32262  39.972  13.608   7.650
 5681POPC   C1B32263  40.102  13.832   8.550
 5681POPC   C2B32264  40.017  13.863   8.250
 5681POPC   C3B32265  40.093  13.847   7.950
 5681POPC   C4B32266  40.047  13.892   7.650
 5682POPC   NC332267  27.578  11.259   9.450
 5682POPC   PO432268  27.559  11.340   9.150
 5682POPC   GL132269  27.549  11.343   8.850
 5682POPC   GL232270  27.660  11.276   8.850
 5682POPC   C1A32271  27.640  11.340   8.550
 5682POPC   D2A32272  27.590  11.277   8.250
 5682POPC   C3A32273  27.601  11.267   7.950
 5682POPC   C4A32274  27.613  11.346   7.650
 5682POPC   C1B32275  27.853  11.170   8.550
 5682POPC   C2B32276  27.817  11.163   8.250
 5682POPC   C3B32277  27.791  11.164   7.950
 5682POPC   C4B32278  27.772  11.160   7.650
 5683POPC   NC332279  28.376   0.391   9.450
 5683POPC   PO432280  28.394   0.434   9.150
 5683POPC   GL132281  28.349   0.415   8.850
 5683POPC   GL232282  28.237   0.352   8.850
 5683POPC   C1A32283  28.353   0.448   8.550
 5683POPC   D2A32284  28.405   0.456   8.250
 5683POPC   C3A32285  28.360   0.452   7.950
 5683POPC   C4A32286  28.332   0.480   7.650
 5683POPC   C1B32287  28.137   0.368   8.550
 5683POPC   C2B32288  28.181   0.377   8.250
 5683POPC   C3B32289  28.129   0.374   7.950
 5683POPC   C4B32290  28.179   0.333   7.650
 5684POPC   NC332291  36.126   6.614   9.450
 5684POPC   PO432292  36.171   6.597   9.150
 5684POPC   GL132293  36.170   6.687   8.850
 5684POPC   GL232294  36.131   6.477   8.850
 5684POPC   C1A32295  36.108   6.614   8.550
 5684POPC   D2A32296  36.112   6.645   8.250
 5684POPC   C3A32297  36.084   6.625   7.950
 5684POPC   C4A32298  36.157   6.670   7.650
 5684POPC   C1B32299  36.136   6.371   8.550
 5684POPC   C2B32300  36.125   6.380   8.250
 5684POPC   C3B32301  36.136   6.353   7.950
 5684POPC   C4B32302  36.129   6.416   7.650
 5685POPC   NC332303  43.153   1.167   9.450
 5685POPC   PO432304  43.127   1.236   9.150
 5685POPC   GL132305  43.141   1.262   8.850
 5685POPC   GL232306  43.142   1.297   8.850
 5685POPC   C1A32307  43.153   1.184   8.550
 5685POPC   D2A32308  43.137   1.228   8.250
 5685POPC   C3A32309  43.067   1.214   7.950
 5685POPC   C4A32310  43.145   1.194   7.650
 5685POPC   C1B32311  43.212   1.415   8.550
 5685POPC   C2B32312  43.254   1.402   8.250
 5685POPC   C3B32313  43.228   1.400   7.950
 5685POPC   C4B32314  43.298   1.466   7.650
 5686POPC   NC332315  35.371  32.272   9.450
 5686POPC   PO432316  35.395  32.230   9.150
 5686POPC   GL132317  35.326  32.209   8.850
 5686POPC   GL232318  35.238  32.186   8.850
 5686POPC   C1A32319  35.310  32.269   8.550
 5686POPC   D2A32320  35.335  32.283   8.250
 5686POPC   C3A32321  35.351  32.221   7.950
 5686POPC   C4A32322  35.345  32.248   7.650
 5686POPC   C1B32323  35.118  32.048   8.550
 5686POPC   C2B32324  35.186  32.064   8.250
 5686POPC   C3B32325  35.182  32.129   7.950
 5686POPC   C4B32326  35.115  32.101   7.650
 5687POPC   NC332327  27.584  22.959   9.450
 5687POPC   PO432328  27.604  22.911   9.150
 5687POPC   GL132329  27.570  22.926   8.850
 5687POPC   GL232330  27.431  23.006   8.850
 5687POPC   C1A32331  27.568  22.896   8.550
 5687POPC   D2A32332  27.629  22.978   8.250
 5687POPC   C3A32333  27.568  22.935   7.950
 5687POPC   C4A32334  27.554  22.950   7.650
 5687POPC   C1B32335  27.320  22.982   8.550
 5687POPC   C2B32336  27.347  22.929   8.250
 5687POPC   C3B32337  27.324  22.973   7.950
 5687POPC   C4B32338  27.323  23.017   7.650
 5688POPC   NC332339  32.992  33.769   9.450
 5688POPC   PO432340  33.043  33.793   9.150
 5688POPC   GL132341  33.042  33.776   8.850
 5688POPC   GL232342  32.919  33.752   8.850
 5688POPC   C1A32343  33.027  33.779   8.550
 5688POPC   D2A32344  33.058  33.760   8.250
 5688POPC   C3A32345  33.070  33.847   7.950
 5688POPC   C4A32346  33.011  33.849   7.650
 5688POPC   C1B32347  32.775  33.777   8.550
 5688POPC   C2B32348  32.775  33.718   8.250
 5688POPC   C3B32349  32.808  33.720   7.950
 5688POPC   C4B32350  32.811  33.741   7.650
 5689POPC   NC332351  24.512  22.184   9.450
 5689POPC   PO432352  24.505  22.144   9.150
 5689POPC   GL132353  24.478  22.144   8.850
 5689POPC   GL232354  24.613  22.169   8.850
 5689POPC   C1A32355  24.474  22.159   8.550
 5689POPC   D2A32356  24.470  22.143   8.250
 5689POPC   C3A32357  24.457  22.201   7.950
 5689POPC   C4A32358  24.486  22.164   7.650
 5689POPC   C1B32359  24.764  22.262   8.550
 5689POPC   C2B32360  24.716  22.217   8.250
 5689POPC   C3B32361  24.738  22.248   7.950
 5689POPC   C4B32362  24.727  22.205   7.650
 5690POPC   NC332363  12.841  26.006   9.450
 5690POPC   PO432364  12.835  26.035   9.150
 5690POPC   GL132365  12.901  26.088   8.850
 5690POPC   GL232366  12.906  25.906   8.850
 5690POPC   C1A32367  12.812  26.079   8.550
 5690POPC   D2A32368  12.883  26.087   8.250
 5690POPC   C3A32369  12.819  26.065   7.950
 5690POPC   C4A32370  12.892  26.077   7.650
 5690POPC   C1B32371  12.983  25.807   8.550
 5690POPC   C2B32372  12.984  25.838   8.250
 5690POPC   C3B32373  13.006  25.814   7.950
 5690POPC   C4B32374  12.936  25.813   7.650
 5691POPC   NC332375  24.503  36.857   9.450
 5691POPC   PO432376  24.513  36.883   9.150
 5691POPC   GL132377  24.534  36.914   8.850
 5691POPC   GL232378  24.376  37.004   8.850
 5691POPC   C1A32379  24.446  36.953   8.550
 5691POPC   D2A32380  24.482  36.940   8.250
 5691POPC   C3A32381  24.487  36.953   7.950
 5691POPC   C4A32382  24.455  36.932   7.650
 5691POPC   C1B32383  24.342  37.082   8.550
 5691POPC   C2B32384  24.291  37.097   8.250
 5691POPC   C3B32385  24.362  37.072   7.950
 5691POPC   C4B32386  24.282  37.123   7.650
 5692POPC   NC332387  19.089  20.597   9.450
 5692POPC   PO432388  19.056  20.567   9.150
 5692POPC   GL132389  19.098  20.592   8.850
 5692POPC   GL232390  19.202  20.535   8.850
 5692POPC   C1A32391  19.082  20.573   8.550
 5692POPC   D2A32392  19.081  20.578   8.250
 5692POPC   C3A32393  19.036  20.641   7.950
 5692POPC   C4A32394  19.056  20.568   7.650
 5692POPC   C1B32395  19.260  20.521   8.550
 5692POPC   C2B32396  19.276  20.525   8.250
 5692POPC   C3B32397  19.288  20.503   7.950
 5692POPC   C4B32398  19.272  20.483   7.650
 5693POPC   NC332399  23.678  28.333   9.450
 5693POPC   PO432400  23.675  28.329   9.150
 5693POPC   GL132401  23.674  28.360   8.850
 5693POPC   GL232402  23.740  28.529   8.850
 5693POPC   C1A32403  23.734  28.403   8.550
 5693POPC   D2A32404  23.691  28.334   8.250
 5693POPC   C3A32405  23.707  28.418   7.950
 5693POPC   C4A32406  23.686  28.376   7.650
 5693POPC   C1B32407  23.756  28.630   8.550
 5693POPC   C2B32408  23.702  28.613   8.250
 5693POPC   C3B32409  23.697  28.632   7.950
 5693POPC   C4B32410  23.695  28.648   7.650
 5694POPC   NC332411   8.242  16.778   9.450
 5694POPC   PO432412   8.209  16.740   9.150
 5694POPC   GL132413   8.155  16.711   8.850
 5694POPC   GL232414   8.109  16.793   8.850
 5694POPC   C1A32415   8.246  16.701   8.550
 5694POPC   D2A32416   8.201  16.742   8.250
 5694POPC   C3A32417   8.246  16.716   7.950
 5694POPC   C4A32418   8.235  16.781   7.650
 5694POPC   C1B32419   8.021  16.880   8.550
 5694POPC   C2B32420   8.022  16.834   8.250
 5694POPC   C3B32421   7.982  16.886   7.950
 5694POPC   C4B32422   7.988  16.890   7.650
 5695POPC   NC332423   6.681  25.234   9.450
 5695POPC   PO432424   6.628  25.285   9.150
 5695POPC   GL132425   6.645  25.228   8.850
 5695POPC   GL232426   6.669  25.187   8.850
 5695POPC   C1A32427   6.669  25.221   8.550
 5695POPC   D2A32428   6.693  25.234   8.250
 5695POPC   C3A32429   6.672  25.277   7.950
 5695POPC   C4A32430   6.655  25.261   7.650
 5695POPC   C1B32431   6.708  25.036   8.550
 5695POPC   C2B32432   6.752  25.052   8.250
 5695POPC   C3B32433   6.690  25.049   7.950
 5695POPC   C4B32434   6.774  25.012   7.650
 5696POPC   NC332435  12.096  17.469   9.450
 5696POPC   PO432436  12.044  17.538   9.150
 5696POPC   GL132437  12.119  17.502   8.850
 5696POPC   GL232438  12.083  17.408   8.850
 5696POPC   C1A32439  12.109  17.497   8.550
 5696POPC   D2A32440  12.074  17.467   8.250
 5696POPC   C3A32441  12.063  17.470   7.950
 5696POPC   C4A32442  12.036  17.512   7.650
 5696POPC   C1B32443  12.011  17.291   8.550
 5696POPC   C2B32444  12.056  17.301   8.250
 5696POPC   C3B32445  12.051  17.255   7.950
 5696POPC   C4B32446  11.993  17.244   7.650
 5697POPC   NC332447  39.183  12.118   9.450
 5697POPC   PO432448  39.224  12.054   9.150
 5697POPC   GL132449  39.261  12.031   8.850
 5697POPC   GL232450  39.092  12.125   8.850
 5697POPC   C1A32451  39.205  12.039   8.550
 5697POPC   D2A32452  39.186  12.101   8.250
 5697POPC   C3A32453  39.280  12.097   7.950
 5697POPC   C4A32454  39.227  12.062   7.650
 5697POPC   C1B32455  39.047  12.208   8.550
 5697POPC   C2B32456  38.961  12.137   8.250
 5697POPC   C3B32457  38.989  12.163   7.950
 5697POPC   C4B32458  39.024  12.158   7.650
 5698POPC   NC332459  33.033  39.219   9.450
 5698POPC   PO432460  32.998  39.204   9.150
 5698POPC   GL132461  33.024  39.208   8.850
 5698POPC   GL232462  33.110  39.314   8.850
 5698POPC   C1A32463  33.008  39.198   8.550
 5698POPC   D2A32464  33.037  39.239   8.250
 5698POPC   C3A32465  33.021  39.275   7.950
 5698POPC   C4A32466  33.065  39.270   7.650
 5698POPC   C1B32467  33.289  39.272   8.550
 5698POPC   C2B32468  33.227  39.342   8.250
 5698POPC   C3B32469  33.265  39.303   7.950
 5698POPC   C4B32470  33.269  39.253   7.650
 5699POPC   NC332471   3.535   6.687   9.450
 5699POPC   PO432472   3.518   6.657   9.150
 5699POPC   GL132473   3.555   6.689   8.850
 5699POPC   GL232474   3.561   6.804   8.850
 5699POPC   C1A32475   3.514   6.655   8.550
 5699POPC   D2A32476   3.590   6.685   8.250
 5699POPC   C3A32477   3.572   6.692   7.950
 5699POPC   C4A32478   3.567   6.689   7.650
 5699POPC   C1B32479   3.597   6.871   8.550
 5699POPC   C2B32480   3.613   6.893   8.250
 5699POPC   C3B32481   3.635   6.891   7.950
 5699POPC   C4B32482   3.605   6.848   7.650
 5700POPC   NC332483  36.100  12.893   9.450
 5700POPC   PO432484  36.081  12.837   9.150
 5700POPC   GL132485  36.115  12.812   8.850
 5700POPC   GL232486  36.235  12.746   8.850
 5700POPC   C1A32487  36.154  12.812   8.550
 5700POPC   D2A32488  36.106  12.847   8.250
 5700POPC   C3A32489  36.145  12.838   7.950
 5700POPC   C4A32490  36.174  12.856   7.650
 5700POPC   C1B32491  36.294  12.617   8.550
 5700POPC   C2B32492  36.210  12.648   8.250
 5700POPC   C3B32493  36.222  12.674   7.950
 5700POPC   C4B32494  36.254  12.649   7.650
 5701POPC   NC332495  26.828  44.619   9.450
 5701POPC   PO432496  26.799  44.702   9.150
 5701POPC   GL132497  26.865  44.700   8.850
 5701POPC   GL232498  26.878  44.736   8.850
 5701POPC   C1A32499  26.819  44.705   8.550
 5701POPC   D2A32500  26.846  44.631   8.250
 5701POPC   C3A32501  26.776  44.614   7.950
 5701POPC   C4A32502  26.785  44.629   7.650
 5701POPC   C1B32503  26.971  44.823   8.550
 5701POPC   C2B32504  26.995  44.787   8.250
 5701POPC   C3B32505  27.012  44.840   7.950
 5701POPC   C4B32506  26.977  44.852   7.650
 5702POPC   NC332507   8.226  27.582   9.450
 5702POPC   PO432508   8.233  27.609   9.150
 5702POPC   GL132509   8.203  27.606   8.850
 5702POPC   GL232510   8.119  27.633   8.850
 5702POPC   C1A32511   8.193  27.566   8.550
 5702POPC   D2A32512   8.168  27.606   8.250
 5702POPC   C3A32513   8.203  27.597   7.950
 5702POPC   C4A32514   8.178  27.625   7.650
 5702POPC   C1B32515   8.001  27.601   8.550
 5702POPC   C2B32516   7.960  27.611   8.250
 5702POPC   C3B32517   7.935  27.646   7.950
 5702POPC   C4B32518   7.950  27.624   7.650
 5703POPC   NC332519  15.924  31.486   9.450
 5703POPC   PO432520  15.960  31.517   9.150
 5703POPC   GL132521  15.966  31.467   8.850
 5703POPC   GL232522  15.994  31.623   8.850
 5703POPC   C1A32523  15.958  31.447   8.550
 5703POPC   D2A32524  15.921  31.430   8.250
 5703POPC   C3A32525  15.977  31.501   7.950
 5703POPC   C4A32526  15.948  31.455   7.650
 5703POPC   C1B32527  16.025  31.716   8.550
 5703POPC   C2B32528  15.971  31.673   8.250
 5703POPC   C3B32529  16.026  31.735   7.950
 5703POPC   C4B32530  15.969  31.676   7.650
 5704POPC   NC332531  27.633  14.374   9.450
 5704POPC   PO432532  27.552  14.432   9.150
 5704POPC   GL132533  27.548  14.379   8.850
 5704POPC   GL232534  27.492  14.416   8.850
 5704POPC   C1A32535  27.640  14.397   8.550
 5704POPC   D2A32536  27.588  14.405   8.250
 5704POPC   C3A32537  27.640  14.432   7.950
 5704POPC   C4A32538  27.596  14.355   7.650
 5704POPC   C1B32539  27.315  14.485   8.550
 5704POPC   C2B32540  27.307  14.422   8.250
 5704POPC   C3B32541  27.314  14.437   7.950
 5704POPC   C4B32542  27.318  14.502   7.650
 5705POPC   NC332543  26.770  31.475   9.450
 5705POPC   PO432544  26.805  31.437   9.150
 5705POPC   GL132545  26.777  31.461   8.850
 5705POPC   GL232546  26.721  31.492   8.850
 5705POPC   C1A32547  26.843  31.445   8.550
 5705POPC   D2A32548  26.819  31.501   8.250
 5705POPC   C3A32549  26.771  31.428   7.950
 5705POPC   C4A32550  26.802  31.434   7.650
 5705POPC   C1B32551  26.537  31.413   8.550
 5705POPC   C2B32552  26.580  31.427   8.250
 5705POPC   C3B32553  26.546  31.469   7.950
 5705POPC   C4B32554  26.533  31.440   7.650
 5706POPC   NC332555  12.115  24.485   9.450
 5706POPC   PO432556  12.030  24.476   9.150
 5706POPC   GL132557  12.055  24.501   8.850
 5706POPC   GL232558  12.093  24.647   8.850
 5706POPC   C1A32559  12.070  24.462   8.550
 5706POPC   D2A32560  12.112  24.534   8.250
 5706POPC   C3A32561  12.026  24.453   7.950
 5706POPC   C4A32562  12.124  24.457   7.650
 5706POPC   C1B32563  12.096  24.770   8.550
 5706POPC   C2B32564  12.044  24.776   8.250
 5706POPC   C3B32565  12.045  24.714   7.950
 5706POPC   C4B32566  12.043  24.733   7.650
 5707POPC   NC332567  25.231   4.362   9.450
 5707POPC   PO432568  25.274   4.324   9.150
 5707POPC   GL132569  25.267   4.357   8.850
 5707POPC   GL232570  25.126   4.295   8.850
 5707POPC   C1A32571  25.217   4.357   8.550
 5707POPC   D2A32572  25.295   4.269   8.250
 5707POPC   C3A32573  25.235   4.324   7.950
 5707POPC   C4A32574  25.263   4.351   7.650
 5707POPC   C1B32575  25.060   4.242   8.550
 5707POPC   C2B32576  24.983   4.325   8.250
 5707POPC   C3B32577  24.987   4.236   7.950
 5707POPC   C4B32578  25.048   4.231   7.650
 5708POPC   NC332579  20.591   8.154   9.450
 5708POPC   PO432580  20.567   8.151   9.150
 5708POPC   GL132581  20.656   8.177   8.850
 5708POPC   GL232582  20.515   8.258   8.850
 5708POPC   C1A32583  20.655   8.231   8.550
 5708POPC   D2A32584  20.620   8.188   8.250
 5708POPC   C3A32585  20.598   8.190   7.950
 5708POPC   C4A32586  20.643   8.159   7.650
 5708POPC   C1B32587  20.449   8.343   8.550
 5708POPC   C2B32588  20.454   8.368   8.250
 5708POPC   C3B32589  20.447   8.320   7.950
 5708POPC   C4B32590  20.392   8.368   7.650
 5709POPC   NC332591  32.991  41.528   9.450
 5709POPC   PO432592  33.046  41.525   9.150
 5709POPC   GL132593  33.008  41.527   8.850
 5709POPC   GL232594  32.915  41.523   8.850
 5709POPC   C1A32595  33.060  41.561   8.550
 5709POPC   D2A32596  33.023  41.608   8.250
 5709POPC   C3A32597  33.013  41.512   7.950
 5709POPC   C4A32598  33.025  41.596   7.650
 5709POPC   C1B32599  32.795  41.459   8.550
 5709POPC   C2B32600  32.801  41.429   8.250
 5709POPC   C3B32601  32.785  41.399   7.950
 5709POPC   C4B32602  32.760  41.441   7.650
 5710POPC   NC332603  25.308  41.537   9.450
 5710POPC   PO432604  25.236  41.585   9.150
 5710POPC   GL132605  25.298  41.579   8.850
 5710POPC   GL232606  25.188  41.691   8.850
 5710POPC   C1A32607  25.281  41.530   8.550
 5710POPC   D2A32608  25.280  41.555   8.250
 5710POPC   C3A32609  25.237  41.517   7.950
 5710POPC   C4A32610  25.222  41.585   7.650
 5710POPC   C1B32611  25.229  41.788   8.550
 5710POPC   C2B32612  25.198  41.765   8.250
 5710POPC   C3B32613  25.176  41.767   7.950
 5710POPC   C4B32614  25.234  41.765   7.650
 5711POPC   NC332615  39.962  34.616   9.450
 5711POPC   PO432616  40.041  34.594   9.150
 5711POPC   GL132617  40.009  34.595   8.850
 5711POPC   GL232618  40.053  34.472   8.850
 5711POPC   C1A32619  40.017  34.625   8.550
 5711POPC   D2A32620  39.973  34.612   8.250
 5711POPC   C3A32621  40.043  34.546   7.950
 5711POPC   C4A32622  40.037  34.609   7.650
 5711POPC   C1B32623  40.204  34.342   8.550
 5711POPC   C2B32624  40.177  34.370   8.250
 5711POPC   C3B32625  40.200  34.342   7.950
 5711POPC   C4B32626  40.154  34.343   7.650
 5712POPC   NC332627  44.708   5.876   9.450
 5712POPC   PO432628  44.629   5.896   9.150
 5712POPC   GL132629  44.645   5.849   8.850
 5712POPC   GL232630  44.568   5.968   8.850
 5712POPC   C1A32631  44.660   5.869   8.550
 5712POPC   D2A32632  44.660   5.900   8.250
 5712POPC   C3A32633  44.698   5.917   7.950
 5712POPC   C4A32634  44.640   5.845   7.650
 5712POPC   C1B32635  44.449   6.004   8.550
 5712POPC   C2B32636  44.404   5.984   8.250
 5712POPC   C3B32637  44.479   5.992   7.950
 5712POPC   C4B32638  44.479   6.010   7.650
 5713POPC   NC332639  33.831   6.597   9.450
 5713POPC   PO432640  33.847   6.646   9.150
 5713POPC   GL132641  33.771   6.623   8.850
 5713POPC   GL232642  33.893   6.765   8.850
 5713POPC   C1A32643  33.817   6.637   8.550
 5713POPC   D2A32644  33.827   6.690   8.250
 5713POPC   C3A32645  33.812   6.615   7.950
 5713POPC   C4A32646  33.846   6.670   7.650
 5713POPC   C1B32647  33.994   6.883   8.550
 5713POPC   C2B32648  33.920   6.851   8.250
 5713POPC   C3B32649  33.938   6.883   7.950
 5713POPC   C4B32650  33.932   6.872   7.650
 5714POPC   NC332651  10.491  18.240   9.450
 5714POPC   PO432652  10.560  18.255   9.150
 5714POPC   GL132653  10.525  18.235   8.850
 5714POPC   GL232654  10.595  18.146   8.850
 5714POPC   C1A32655  10.563  18.309   8.550
 5714POPC   D2A32656  10.520  18.274   8.250
 5714POPC   C3A32657  10.510  18.301   7.950
 5714POPC   C4A32658  10.476  18.298   7.650
 5714POPC   C1B32659  10.618  18.074   8.550
 5714POPC   C2B32660  10.580  18.056   8.250
 5714POPC   C3B32661  10.604  18.049   7.950
 5714POPC   C4B32662  10.588  18.065   7.650
 5715POPC   NC332663  13.579  29.195   9.450
 5715POPC   PO432664  13.637  29.126   9.150
 5715POPC   GL132665  13.589  29.177   8.850
 5715POPC   GL232666  13.488  29.117   8.850
 5715POPC   C1A32667  13.653  29.166   8.550
 5715POPC   D2A32668  13.586  29.179   8.250
 5715POPC   C3A32669  13.659  29.110   7.950
 5715POPC   C4A32670  13.638  29.102   7.650
 5715POPC   C1B32671  13.364  29.131   8.550
 5715POPC   C2B32672  13.366  29.157   8.250
 5715POPC   C3B32673  13.365  29.064   7.950
 5715POPC   C4B32674  13.371  29.134   7.650
 5716POPC   NC332675  15.161   9.792   9.450
 5716POPC   PO432676  15.218   9.715   9.150
 5716POPC   GL132677  15.142   9.717   8.850
 5716POPC   GL232678  15.092   9.762   8.850
 5716POPC   C1A32679  15.188   9.778   8.550
 5716POPC   D2A32680  15.189   9.714   8.250
 5716POPC   C3A32681  15.191   9.763   7.950
 5716POPC   C4A32682  15.172   9.778   7.650
 5716POPC   C1B32683  14.965   9.699   8.550
 5716POPC   C2B32684  14.884   9.699   8.250
 5716POPC   C3B32685  14.915   9.744   7.950
 5716POPC   C4B32686  14.934   9.746   7.650
 5717POPC   NC332687  32.262  39.998   9.450
 5717POPC   PO432688  32.279  40.043   9.150
 5717POPC   GL132689  32.259  40.009   8.850
 5717POPC   GL232690  32.331  39.965   8.850
 5717POPC   C1A32691  32.293  40.049   8.550
 5717POPC   D2A32692  32.224  39.990   8.250
 5717POPC   C3A32693  32.272  39.991   7.950
 5717POPC   C4A32694  32.286  40.020   7.650
 5717POPC   C1B32695  32.483  39.870   8.550
 5717POPC   C2B32696  32.428  39.887   8.250
 5717POPC   C3B32697  32.411  39.865   7.950
 5717POPC   C4B32698  32.495  39.841   7.650
 5718POPC   NC332699  34.582  22.140   9.450
 5718POPC   PO432700  34.531  22.139   9.150
 5718POPC   GL132701  34.528  22.210   8.850
 5718POPC   GL232702  34.506  22.235   8.850
 5718POPC   C1A32703  34.625  22.167   8.550
 5718POPC   D2A32704  34.535  22.136   8.250
 5718POPC   C3A32705  34.537  22.120   7.950
 5718POPC   C4A32706  34.549  22.139   7.650
 5718POPC   C1B32707  34.413  22.342   8.550
 5718POPC   C2B32708  34.434  22.327   8.250
 5718POPC   C3B32709  34.448  22.322   7.950
 5718POPC   C4B32710  34.458  22.328   7.650
 5719POPC   NC332711   2.792  34.624   9.450
 5719POPC   PO432712   2.766  34.613   9.150
 5719POPC   GL132713   2.766  34.554   8.850
 5719POPC   GL232714   2.677  34.527   8.850
 5719POPC   C1A32715   2.736  34.625   8.550
 5719POPC   D2A32716   2.717  34.621   8.250
 5719POPC   C3A32717   2.753  34.606   7.950
 5719POPC   C4A32718   2.773  34.531   7.650
 5719POPC   C1B32719   2.567  34.561   8.550
 5719POPC   C2B32720   2.565  34.581   8.250
 5719POPC   C3B32721   2.540  34.574   7.950
 5719POPC   C4B32722   2.468  34.546   7.650
 5720POPC   NC332723  41.569   8.174   9.450
 5720POPC   PO432724  41.544   8.150   9.150
 5720POPC   GL132725  41.593   8.155   8.850
 5720POPC   GL232726  41.607   8.237   8.850
 5720POPC   C1A32727  41.607   8.163   8.550
 5720POPC   D2A32728  41.516   8.187   8.250
 5720POPC   C3A32729  41.573   8.244   7.950
 5720POPC   C4A32730  41.592   8.182   7.650
 5720POPC   C1B32731  41.737   8.353   8.550
 5720POPC   C2B32732  41.770   8.384   8.250
 5720POPC   C3B32733  41.712   8.412   7.950
 5720POPC   C4B32734  41.774   8.343   7.650
 5721POPC   NC332735   4.267   5.110   9.450
 5721POPC   PO432736   4.286   5.121   9.150
 5721POPC   GL132737   4.283   5.086   8.850
 5721POPC   GL232738   4.412   5.065   8.850
 5721POPC   C1A32739   4.330   5.076   8.550
 5721POPC   D2A32740   4.363   5.078   8.250
 5721POPC   C3A32741   4.313   5.141   7.950
 5721POPC   C4A32742   4.305   5.060   7.650
 5721POPC   C1B32743   4.540   5.100   8.550
 5721POPC   C2B32744   4.584   5.143   8.250
 5721POPC   C3B32745   4.567   5.143   7.950
 5721POPC   C4B32746   4.580   5.105   7.650
 5722POPC   NC332747  17.475  40.006   9.450
 5722POPC   PO432748  17.531  39.958   9.150
 5722POPC   GL132749  17.471  40.016   8.850
 5722POPC   GL232750  17.373  40.093   8.850
 5722POPC   C1A32751  17.475  40.017   8.550
 5722POPC   D2A32752  17.539  39.977   8.250
 5722POPC   C3A32753  17.462  40.030   7.950
 5722POPC   C4A32754  17.533  40.004   7.650
 5722POPC   C1B32755  17.343  40.194   8.550
 5722POPC   C2B32756  17.326  40.223   8.250
 5722POPC   C3B32757  17.325  40.205   7.950
 5722POPC   C4B32758  17.361  40.209   7.650
 5723POPC   NC332759  15.994  29.931   9.450
 5723POPC   PO432760  15.932  29.928   9.150
 5723POPC   GL132761  15.981  29.957   8.850
 5723POPC   GL232762  16.006  30.012   8.850
 5723POPC   C1A32763  15.913  29.917   8.550
 5723POPC   D2A32764  15.913  29.871   8.250
 5723POPC   C3A32765  15.952  29.950   7.950
 5723POPC   C4A32766  15.963  29.880   7.650
 5723POPC   C1B32767  16.116  30.111   8.550
 5723POPC   C2B32768  16.113  30.118   8.250
 5723POPC   C3B32769  16.162  30.162   7.950
 5723POPC   C4B32770  16.076  30.074   7.650
 5724POPC   NC332771  13.614   2.786   9.450
 5724POPC   PO432772  13.603   2.739   9.150
 5724POPC   GL132773  13.607   2.794   8.850
 5724POPC   GL232774  13.621   2.689   8.850
 5724POPC   C1A32775  13.631   2.779   8.550
 5724POPC   D2A32776  13.654   2.770   8.250
 5724POPC   C3A32777  13.661   2.747   7.950
 5724POPC   C4A32778  13.644   2.778   7.650
 5724POPC   C1B32779  13.574   2.495   8.550
 5724POPC   C2B32780  13.597   2.502   8.250
 5724POPC   C3B32781  13.630   2.554   7.950
 5724POPC   C4B32782  13.649   2.542   7.650
 5725POPC   NC332783  36.884  36.151   9.450
 5725POPC   PO432784  36.940  36.092   9.150
 5725POPC   GL132785  36.891  36.166   8.850
 5725POPC   GL232786  36.755  36.074   8.850
 5725POPC   C1A32787  36.860  36.092   8.550
 5725POPC   D2A32788  36.906  36.111   8.250
 5725POPC   C3A32789  36.932  36.089   7.950
 5725POPC   C4A32790  36.875  36.175   7.650
 5725POPC   C1B32791  36.699  36.115   8.550
 5725POPC   C2B32792  36.650  36.103   8.250
 5725POPC   C3B32793  36.606  36.069   7.950
 5725POPC   C4B32794  36.672  36.111   7.650
 5726POPC   NC332795   1.999   3.530   9.450
 5726POPC   PO432796   2.028   3.505   9.150
 5726POPC   GL132797   1.962   3.555   8.850
 5726POPC   GL232798   2.008   3.677   8.850
 5726POPC   C1A32799   1.996   3.582   8.550
 5726POPC   D2A32800   1.943   3.533   8.250
 5726POPC   C3A32801   2.001   3.492   7.950
 5726POPC   C4A32802   1.990   3.533   7.650
 5726POPC   C1B32803   1.998   3.822   8.550
 5726POPC   C2B32804   1.985   3.743   8.250
 5726POPC   C3B32805   2.005   3.822   7.950
 5726POPC   C4B32806   1.951   3.742   7.650
 5727POPC   NC332807  16.714   7.457   9.450
 5727POPC   PO432808  16.686   7.443   9.150
 5727POPC   GL132809  16.695   7.396   8.850
 5727POPC   GL232810  16.823   7.423   8.850
 5727POPC   C1A32811  16.711   7.385   8.550
 5727POPC   D2A32812  16.715   7.419   8.250
 5727POPC   C3A32813  16.758   7.403   7.950
 5727POPC   C4A32814  16.743   7.397   7.650
 5727POPC   C1B32815  17.013   7.431   8.550
 5727POPC   C2B32816  16.981   7.512   8.250
 5727POPC   C3B32817  16.951   7.442   7.950
 5727POPC   C4B32818  16.942   7.519   7.650
 5728POPC   NC332819   3.569  40.002   9.450
 5728POPC   PO432820   3.517  40.041   9.150
 5728POPC   GL132821   3.559  40.054   8.850
 5728POPC   GL232822   3.686  39.990   8.850
 5728POPC   C1A32823   3.537  40.000   8.550
 5728POPC   D2A32824   3.556  39.990   8.250
 5728POPC   C3A32825   3.554  39.975   7.950
 5728POPC   C4A32826   3.525  40.040   7.650
 5728POPC   C1B32827   3.837  40.053   8.550
 5728POPC   C2B32828   3.746  40.045   8.250
 5728POPC   C3B32829   3.841  40.007   7.950
 5728POPC   C4B32830   3.795  40.003   7.650
 5729POPC   NC332831  32.978   2.035   9.450
 5729POPC   PO432832  32.980   1.947   9.150
 5729POPC   GL132833  33.059   2.010   8.850
 5729POPC   GL232834  32.909   1.982   8.850
 5729POPC   C1A32835  32.977   2.023   8.550
 5729POPC   D2A32836  33.044   1.991   8.250
 5729POPC   C3A32837  32.986   1.988   7.950
 5729POPC   C4A32838  32.997   2.034   7.650
 5729POPC   C1B32839  32.746   2.071   8.550
 5729POPC   C2B32840  32.800   2.064   8.250
 5729POPC   C3B32841  32.740   2.036   7.950
 5729POPC   C4B32842  32.757   2.108   7.650
 5730POPC   NC332843  12.891  38.464   9.450
 5730POPC   PO432844  12.887  38.494   9.150
 5730POPC   GL132845  12.824  38.411   8.850
 5730POPC   GL232846  12.794  38.340   8.850
 5730POPC   C1A32847  12.844  38.467   8.550
 5730POPC   D2A32848  12.879  38.473   8.250
 5730POPC   C3A32849  12.889  38.419   7.950
 5730POPC   C4A32850  12.836  38.442   7.650
 5730POPC   C1B32851  12.727  38.246   8.550
 5730POPC   C2B32852  12.718  38.243   8.250
 5730POPC   C3B32853  12.712  38.241   7.950
 5730POPC   C4B32854  12.663  38.242   7.650
 5731POPC   NC332855   3.509  29.190   9.450
 5731POPC   PO432856   3.513  29.192   9.150
 5731POPC   GL132857   3.516  29.096   8.850
 5731POPC   GL232858   3.597  28.972   8.850
 5731POPC   C1A32859   3.508  29.164   8.550
 5731POPC   D2A32860   3.491  29.190   8.250
 5731POPC   C3A32861   3.551  29.115   7.950
 5731POPC   C4A32862   3.587  29.191   7.650
 5731POPC   C1B32863   3.528  28.864   8.550
 5731POPC   C2B32864   3.586  28.919   8.250
 5731POPC   C3B32865   3.615  28.881   7.950
 5731POPC   C4B32866   3.601  28.856   7.650
 5732POPC   NC332867  44.708  31.454   9.450
 5732POPC   PO432868  44.648  31.448   9.150
 5732POPC   GL132869  44.680  31.454   8.850
 5732POPC   GL232870  44.618  31.620   8.850
 5732POPC   C1A32871  44.635  31.517   8.550
 5732POPC   D2A32872  44.695  31.502   8.250
 5732POPC   C3A32873  44.649  31.470   7.950
 5732POPC   C4A32874  44.646  31.485   7.650
 5732POPC   C1B32875  44.648  31.758   8.550
 5732POPC   C2B32876  44.634  31.694   8.250
 5732POPC   C3B32877  44.618  31.713   7.950
 5732POPC   C4B32878  44.666  31.703   7.650
 5733POPC   NC332879  20.580  38.412   9.450
 5733POPC   PO432880  20.617  38.477   9.150
 5733POPC   GL132881  20.636  38.439   8.850
 5733POPC   GL232882  20.582  38.605   8.850
 5733POPC   C1A32883  20.602  38.430   8.550
 5733POPC   D2A32884  20.602  38.476   8.250
 5733POPC   C3A32885  20.575  38.447   7.950
 5733POPC   C4A32886  20.598  38.486   7.650
 5733POPC   C1B32887  20.612  38.710   8.550
 5733POPC   C2B32888  20.584  38.664   8.250
 5733POPC   C3B32889  20.562  38.699   7.950
 5733POPC   C4B32890  20.567  38.666   7.650
 5734POPC   NC332891  39.977  39.214   9.450
 5734POPC   PO432892  40.039  39.274   9.150
 5734POPC   GL132893  40.018  39.216   8.850
 5734POPC   GL232894  39.922  39.178   8.850
 5734POPC   C1A32895  40.050  39.223   8.550
 5734POPC   D2A32896  40.017  39.245   8.250
 5734POPC   C3A32897  39.966  39.233   7.950
 5734POPC   C4A32898  40.030  39.228   7.650
 5734POPC   C1B32899  39.768  39.219   8.550
 5734POPC   C2B32900  39.746  39.168   8.250
 5734POPC   C3B32901  39.713  39.133   7.950
 5734POPC   C4B32902  39.804  39.145   7.650
 5735POPC   NC332903  33.034  25.291   9.450
 5735POPC   PO432904  33.032  25.236   9.150
 5735POPC   GL132905  33.049  25.242   8.850
 5735POPC   GL232906  32.917  25.186   8.850
 5735POPC   C1A32907  33.051  25.223   8.550
 5735POPC   D2A32908  33.065  25.219   8.250
 5735POPC   C3A32909  33.029  25.285   7.950
 5735POPC   C4A32910  33.033  25.306   7.650
 5735POPC   C1B32911  32.822  25.228   8.550
 5735POPC   C2B32912  32.754  25.182   8.250
 5735POPC   C3B32913  32.754  25.155   7.950
 5735POPC   C4B32914  32.748  25.212   7.650
 5736POPC   NC332915  36.167  22.183   9.450
 5736POPC   PO432916  36.110  22.117   9.150
 5736POPC   GL132917  36.135  22.206   8.850
 5736POPC   GL232918  36.170  22.078   8.850
 5736POPC   C1A32919  36.105  22.125   8.550
 5736POPC   D2A32920  36.127  22.139   8.250
 5736POPC   C3A32921  36.122  22.180   7.950
 5736POPC   C4A32922  36.176  22.151   7.650
 5736POPC   C1B32923  36.227  21.989   8.550
 5736POPC   C2B32924  36.218  21.978   8.250
 5736POPC   C3B32925  36.283  21.996   7.950
 5736POPC   C4B32926  36.218  21.984   7.650
 5737POPC   NC332927   7.383   1.973   9.450
 5737POPC   PO432928   7.390   2.030   9.150
 5737POPC   GL132929   7.414   1.967   8.850
 5737POPC   GL232930   7.454   1.865   8.850
 5737POPC   C1A32931   7.403   2.021   8.550
 5737POPC   D2A32932   7.382   1.999   8.250
 5737POPC   C3A32933   7.449   1.960   7.950
 5737POPC   C4A32934   7.455   1.944   7.650
 5737POPC   C1B32935   7.531   1.753   8.550
 5737POPC   C2B32936   7.514   1.803   8.250
 5737POPC   C3B32937   7.504   1.817   7.950
 5737POPC   C4B32938   7.518   1.747   7.650
 5738POPC   NC332939  16.682  28.357   9.450
 5738POPC   PO432940  16.703  28.349   9.150
 5738POPC   GL132941  16.682  28.340   8.850
 5738POPC   GL232942  16.694  28.287   8.850
 5738POPC   C1A32943  16.721  28.399   8.550
 5738POPC   D2A32944  16.771  28.394   8.250
 5738POPC   C3A32945  16.755  28.395   7.950
 5738POPC   C4A32946  16.704  28.361   7.650
 5738POPC   C1B32947  16.661  28.117   8.550
 5738POPC   C2B32948  16.682  28.104   8.250
 5738POPC   C3B32949  16.694  28.137   7.950
 5738POPC   C4B32950  16.676  28.091   7.650
 5739POPC   NC332951  24.489  34.602   9.450
 5739POPC   PO432952  24.520  34.610   9.150
 5739POPC   GL132953  24.525  34.597   8.850
 5739POPC   GL232954  24.428  34.739   8.850
 5739POPC   C1A32955  24.446  34.574   8.550
 5739POPC   D2A32956  24.472  34.606   8.250
 5739POPC   C3A32957  24.517  34.624   7.950
 5739POPC   C4A32958  24.469  34.606   7.650
 5739POPC   C1B32959  24.498  34.808   8.550
 5739POPC   C2B32960  24.510  34.858   8.250
 5739POPC   C3B32961  24.442  34.872   7.950
 5739POPC   C4B32962  24.440  34.818   7.650
 5740POPC   NC332963  15.172  40.784   9.450
 5740POPC   PO432964  15.202  40.818   9.150
 5740POPC   GL132965  15.227  40.829   8.850
 5740POPC   GL232966  15.309  40.769   8.850
 5740POPC   C1A32967  15.200  40.744   8.550
 5740POPC   D2A32968  15.162  40.805   8.250
 5740POPC   C3A32969  15.139  40.777   7.950
 5740POPC   C4A32970  15.229  40.803   7.650
 5740POPC   C1B32971  15.438  40.714   8.550
 5740POPC   C2B32972  15.379  40.807   8.250
 5740POPC   C3B32973  15.453  40.760   7.950
 5740POPC   C4B32974  15.474  40.788   7.650
 5741POPC   NC332975  35.350  13.641   9.450
 5741POPC   PO432976  35.365  13.608   9.150
 5741POPC   GL132977  35.360  13.616   8.850
 5741POPC   GL232978  35.255  13.570   8.850
 5741POPC   C1A32979  35.366  13.671   8.550
 5741POPC   D2A32980  35.349  13.646   8.250
 5741POPC   C3A32981  35.340  13.633   7.950
 5741POPC   C4A32982  35.370  13.635   7.650
 5741POPC   C1B32983  35.115  13.520   8.550
 5741POPC   C2B32984  35.153  13.503   8.250
 5741POPC   C3B32985  35.164  13.499   7.950
 5741POPC   C4B32986  35.160  13.481   7.650
 5742POPC   NC332987  29.178  33.844   9.450
 5742POPC   PO432988  29.172  33.810   9.150
 5742POPC   GL132989  29.148  33.775   8.850
 5742POPC   GL232990  29.013  33.767   8.850
 5742POPC   C1A32991  29.164  33.770   8.550
 5742POPC   D2A32992  29.160  33.765   8.250
 5742POPC   C3A32993  29.166  33.807   7.950
 5742POPC   C4A32994  29.121  33.799   7.650
 5742POPC   C1B32995  28.945  33.744   8.550
 5742POPC   C2B32996  28.955  33.670   8.250
 5742POPC   C3B32997  28.903  33.745   7.950
 5742POPC   C4B32998  28.884  33.756   7.650
 5743POPC   NC332999  30.697   3.581   9.450
 5743POPC   PO433000  30.708   3.543   9.150
 5743POPC   GL133001  30.719   3.570   8.850
 5743POPC   GL233002  30.765   3.597   8.850
 5743POPC   C1A33003  30.666   3.529   8.550
 5743POPC   D2A33004  30.649   3.543   8.250
 5743POPC   C3A33005  30.673   3.539   7.950
 5743POPC   C4A33006  30.668   3.510   7.650
 5743POPC   C1B33007  30.876   3.705   8.550
 5743POPC   C2B33008  30.922   3.686   8.250
 5743POPC   C3B33009  30.894   3.683   7.950
 5743POPC   C4B33010  30.905   3.736   7.650
 5744POPC   NC333011  12.071  19.062   9.450
 5744POPC   PO433012  12.062  19.030   9.150
 5744POPC   GL133013  12.104  19.055   8.850
 5744POPC   GL233014  11.981  19.017   8.850
 5744POPC   C1A33015  12.079  19.096   8.550
 5744POPC   D2A33016  12.043  19.022   8.250
 5744POPC   C3A33017  12.116  19.044   7.950
 5744POPC   C4A33018  12.108  19.106   7.650
 5744POPC   C1B33019  11.870  18.988   8.550
 5744POPC   C2B33020  11.892  18.927   8.250
 5744POPC   C3B33021  11.880  19.010   7.950
 5744POPC   C4B33022  11.824  18.951   7.650
 5745POPC   NC333023  27.553  12.836   9.450
 5745POPC   PO433024  27.594  12.859   9.150
 5745POPC   GL133025  27.615  12.872   8.850
 5745POPC   GL233026  27.501  12.949   8.850
 5745POPC   C1A33027  27.603  12.883   8.550
 5745POPC   D2A33028  27.604  12.868   8.250
 5745POPC   C3A33029  27.634  12.898   7.950
 5745POPC   C4A33030  27.558  12.829   7.650
 5745POPC   C1B33031  27.409  12.979   8.550
 5745POPC   C2B33032  27.363  12.966   8.250
 5745POPC   C3B33033  27.375  12.975   7.950
 5745POPC   C4B33034  27.413  12.946   7.650
 5746POPC   NC333035  33.803  25.266   9.450
 5746POPC   PO433036  33.830  25.269   9.150
 5746POPC   GL133037  33.782  25.216   8.850
 5746POPC   GL233038  33.700  25.360   8.850
 5746POPC   C1A33039  33.826  25.286   8.550
 5746POPC   D2A33040  33.795  25.255   8.250
 5746POPC   C3A33041  33.774  25.242   7.950
 5746POPC   C4A33042  33.828  25.300   7.650
 5746POPC   C1B33043  33.621  25.485   8.550
 5746POPC   C2B33044  33.645  25.471   8.250
 5746POPC   C3B33045  33.697  25.501   7.950
 5746POPC   C4B33046  33.635  25.485   7.650
 5747POPC   NC333047  26.047  32.202   9.450
 5747POPC   PO433048  26.065  32.224   9.150
 5747POPC   GL133049  26.020  32.255   8.850
 5747POPC   GL233050  25.942  32.147   8.850
 5747POPC   C1A33051  26.074  32.262   8.550
 5747POPC   D2A33052  26.051  32.272   8.250
 5747POPC   C3A33053  25.997  32.292   7.950
 5747POPC   C4A33054  26.021  32.292   7.650
 5747POPC   C1B33055  25.959  32.022   8.550
 5747POPC   C2B33056  25.910  31.989   8.250
 5747POPC   C3B33057  25.886  32.037   7.950
 5747POPC   C4B33058  25.880  31.990   7.650
 5748POPC   NC333059  33.774  33.002   9.450
 5748POPC   PO433060  33.829  32.987   9.150
 5748POPC   GL133061  33.845  33.069   8.850
 5748POPC   GL233062  33.735  33.099   8.850
 5748POPC   C1A33063  33.846  33.065   8.550
 5748POPC   D2A33064  33.834  33.026   8.250
 5748POPC   C3A33065  33.840  33.048   7.950
 5748POPC   C4A33066  33.773  32.974   7.650
 5748POPC   C1B33067  33.769  33.292   8.550
 5748POPC   C2B33068  33.781  33.299   8.250
 5748POPC   C3B33069  33.777  33.284   7.950
 5748POPC   C4B33070  33.766  33.249   7.650
 5749POPC   NC333071  36.907   3.554   9.450
 5749POPC   PO433072  36.878   3.522   9.150
 5749POPC   GL133073  36.946   3.525   8.850
 5749POPC   GL233074  36.834   3.545   8.850
 5749POPC   C1A33075  36.863   3.551   8.550
 5749POPC   D2A33076  36.935   3.561   8.250
 5749POPC   C3A33077  36.889   3.575   7.950
 5749POPC   C4A33078  36.857   3.560   7.650
 5749POPC   C1B33079  36.695   3.642   8.550
 5749POPC   C2B33080  36.701   3.667   8.250
 5749POPC   C3B33081  36.660   3.609   7.950
 5749POPC   C4B33082  36.670   3.603   7.650
 5750POPC   NC333083  25.272  33.754   9.450
 5750POPC   PO433084  25.234  33.830   9.150
 5750POPC   GL133085  25.233  33.817   8.850
 5750POPC   GL233086  25.177  33.808   8.850
 5750POPC   C1A33087  25.225  33.768   8.550
 5750POPC   D2A33088  25.316  33.803   8.250
 5750POPC   C3A33089  25.315  33.815   7.950
 5750POPC   C4A33090  25.269  33.833   7.650
 5750POPC   C1B33091  25.028  33.729   8.550
 5750POPC   C2B33092  25.003  33.705   8.250
 5750POPC   C3B33093  24.991  33.745   7.950
 5750POPC   C4B33094  25.004  33.701   7.650
 5751POPC   NC333095  40.773   2.770   9.450
 5751POPC   PO433096  40.802   2.753   9.150
 5751POPC   GL133097  40.745   2.733   8.850
 5751POPC   GL233098  40.914   2.659   8.850
 5751POPC   C1A33099  40.795   2.783   8.550
 5751POPC   D2A33100  40.773   2.752   8.250
 5751POPC   C3A33101  40.829   2.734   7.950
 5751POPC   C4A33102  40.823   2.766   7.650
 5751POPC   C1B33103  41.015   2.581   8.550
 5751POPC   C2B33104  40.943   2.603   8.250
 5751POPC   C3B33105  41.021   2.614   7.950
 5751POPC   C4B33106  40.971   2.615   7.650
 5752POPC   NC333107   2.763  29.177   9.450
 5752POPC   PO433108   2.809  29.144   9.150
 5752POPC   GL133109   2.812  29.136   8.850
 5752POPC   GL233110   2.687  29.026   8.850
 5752POPC   C1A33111   2.763  29.176   8.550
 5752POPC   D2A33112   2.770  29.115   8.250
 5752POPC   C3A33113   2.752  29.159   7.950
 5752POPC   C4A33114   2.769  29.117   7.650
 5752POPC   C1B33115   2.611  28.955   8.550
 5752POPC   C2B33116   2.629  28.989   8.250
 5752POPC   C3B33117   2.639  28.998   7.950
 5752POPC   C4B33118   2.610  28.928   7.650
 5753POPC   NC333119  40.019   5.140   9.450
 5753POPC   PO433120  39.966   5.073   9.150
 5753POPC   GL133121  39.986   5.132   8.850
 5753POPC   GL233122  39.901   5.068   8.850
 5753POPC   C1A33123  40.026   5.137   8.550
 5753POPC   D2A33124  39.999   5.058   8.250
 5753POPC   C3A33125  39.965   5.115   7.950
 5753POPC   C4A33126  40.048   5.066   7.650
 5753POPC   C1B33127  39.785   5.061   8.550
 5753POPC   C2B33128  39.728   5.109   8.250
 5753POPC   C3B33129  39.802   5.082   7.950
 5753POPC   C4B33130  39.745   5.076   7.650
 5754POPC   NC333131   5.826  10.507   9.450
 5754POPC   PO433132   5.905  10.479   9.150
 5754POPC   GL133133   5.881  10.488   8.850
 5754POPC   GL233134   5.883  10.671   8.850
 5754POPC   C1A33135   5.897  10.487   8.550
 5754POPC   D2A33136   5.919  10.528   8.250
 5754POPC   C3A33137   5.896  10.476   7.950
 5754POPC   C4A33138   5.875  10.557   7.650
 5754POPC   C1B33139   5.923  10.762   8.550
 5754POPC   C2B33140   5.934  10.756   8.250
 5754POPC   C3B33141   5.947  10.786   7.950
 5754POPC   C4B33142   5.938  10.796   7.650
 5755POPC   NC333143  40.046  38.413   9.450
 5755POPC   PO433144  40.032  38.495   9.150
 5755POPC   GL133145  39.994  38.430   8.850
 5755POPC   GL233146  39.905  38.376   8.850
 5755POPC   C1A33147  40.025  38.498   8.550
 5755POPC   D2A33148  39.964  38.465   8.250
 5755POPC   C3A33149  40.041  38.456   7.950
 5755POPC   C4A33150  40.051  38.434   7.650
 5755POPC   C1B33151  39.876  38.274   8.550
 5755POPC   C2B33152  39.852  38.215   8.250
 5755POPC   C3B33153  39.868  38.288   7.950
 5755POPC   C4B33154  39.896  38.292   7.650
 5756POPC   NC333155   0.459  26.046   9.450
 5756POPC   PO433156   0.460  25.995   9.150
 5756POPC   GL133157   0.398  26.067   8.850
 5756POPC   GL233158   0.370  25.995   8.850
 5756POPC   C1A33159   0.421  26.077   8.550
 5756POPC   D2A33160   0.388  26.041   8.250
 5756POPC   C3A33161   0.408  26.091   7.950
 5756POPC   C4A33162   0.439  26.091   7.650
 5756POPC   C1B33163   0.279  25.930   8.550
 5756POPC   C2B33164   0.237  25.877   8.250
 5756POPC   C3B33165   0.211  25.899   7.950
 5756POPC   C4B33166   0.226  25.886   7.650
 5757POPC   NC333167  17.525  25.282   9.450
 5757POPC   PO433168  17.546  25.246   9.150
 5757POPC   GL133169  17.557  25.265   8.850
 5757POPC   GL233170  17.558  25.369   8.850
 5757POPC   C1A33171  17.487  25.217   8.550
 5757POPC   D2A33172  17.494  25.251   8.250
 5757POPC   C3A33173  17.461  25.257   7.950
 5757POPC   C4A33174  17.513  25.252   7.650
 5757POPC   C1B33175  17.732  25.405   8.550
 5757POPC   C2B33176  17.681  25.467   8.250
 5757POPC   C3B33177  17.723  25.452   7.950
 5757POPC   C4B33178  17.714  25.448   7.650
 5758POPC   NC333179  23.736  32.292   9.450
 5758POPC   PO433180  23.711  32.277   9.150
 5758POPC   GL133181  23.752  32.251   8.850
 5758POPC   GL233182  23.620  32.267   8.850
 5758POPC   C1A33183  23.703  32.250   8.550
 5758POPC   D2A33184  23.708  32.206   8.250
 5758POPC   C3A33185  23.723  32.251   7.950
 5758POPC   C4A33186  23.743  32.288   7.650
 5758POPC   C1B33187  23.476  32.355   8.550
 5758POPC   C2B33188  23.483  32.315   8.250
 5758POPC   C3B33189  23.501  32.269   7.950
 5758POPC   C4B33190  23.521  32.365   7.650
 5759POPC   NC333191   8.954   4.329   9.450
 5759POPC   PO433192   8.977   4.334   9.150
 5759POPC   GL133193   9.020   4.269   8.850
 5759POPC   GL233194   8.879   4.303   8.850
 5759POPC   C1A33195   8.963   4.348   8.550
 5759POPC   D2A33196   8.931   4.330   8.250
 5759POPC   C3A33197   9.005   4.339   7.950
 5759POPC   C4A33198   8.999   4.313   7.650
 5759POPC   C1B33199   8.724   4.208   8.550
 5759POPC   C2B33200   8.773   4.178   8.250
 5759POPC   C3B33201   8.779   4.222   7.950
 5759POPC   C4B33202   8.699   4.198   7.650
 5760POPC   NC333203  29.931  18.239   9.450
 5760POPC   PO433204  29.899  18.312   9.150
 5760POPC   GL133205  29.909  18.262   8.850
 5760POPC   GL233206  30.018  18.242   8.850
 5760POPC   C1A33207  29.949  18.245   8.550
 5760POPC   D2A33208  29.905  18.313   8.250
 5760POPC   C3A33209  29.918  18.266   7.950
 5760POPC   C4A33210  29.964  18.303   7.650
 5760POPC   C1B33211  30.097  18.087   8.550
 5760POPC   C2B33212  30.093  18.118   8.250
 5760POPC   C3B33213  30.096  18.093   7.950
 5760POPC   C4B33214  30.090  18.097   7.650
 5761POPC   NC333215   8.186   5.116   9.450
 5761POPC   PO433216   8.181   5.087   9.150
 5761POPC   GL133217   8.224   5.107   8.850
 5761POPC   GL233218   8.323   5.159   8.850
 5761POPC   C1A33219   8.186   5.077   8.550
 5761POPC   D2A33220   8.169   5.087   8.250
 5761POPC   C3A33221   8.237   5.086   7.950
 5761POPC   C4A33222   8.147   5.076   7.650
 5761POPC   C1B33223   8.405   5.264   8.550
 5761POPC   C2B33224   8.397   5.268   8.250
 5761POPC   C3B33225   8.368   5.246   7.950
 5761POPC   C4B33226   8.416   5.179   7.650
 5762POPC   NC333227  14.403  35.334   9.450
 5762POPC   PO433228  14.370  35.400   9.150
 5762POPC   GL133229  14.435  35.339   8.850
 5762POPC   GL233230  14.410  35.215   8.850
 5762POPC   C1A33231  14.440  35.352   8.550
 5762POPC   D2A33232  14.365  35.381   8.250
 5762POPC   C3A33233  14.416  35.325   7.950
 5762POPC   C4A33234  14.367  35.317   7.650
 5762POPC   C1B33235  14.355  35.091   8.550
 5762POPC   C2B33236  14.414  35.064   8.250
 5762POPC   C3B33237  14.357  35.070   7.950
 5762POPC   C4B33238  14.344  35.066   7.650
 5763POPC   NC333239   8.981  15.923   9.450
 5763POPC   PO433240   8.985  15.919   9.150
 5763POPC   GL133241   8.997  15.957   8.850
 5763POPC   GL233242   8.885  15.912   8.850
 5763POPC   C1A33243   9.010  15.907   8.550
 5763POPC   D2A33244   8.931  15.951   8.250
 5763POPC   C3A33245   9.019  15.941   7.950
 5763POPC   C4A33246   9.008  15.909   7.650
 5763POPC   C1B33247   8.690  15.881   8.550
 5763POPC   C2B33248   8.690  15.875   8.250
 5763POPC   C3B33249   8.744  15.882   7.950
 5763POPC   C4B33250   8.735  15.925   7.650
 5764POPC   NC333251  38.457  40.767   9.450
 5764POPC   PO433252  38.452  40.787   9.150
 5764POPC   GL133253  38.437  40.762   8.850
 5764POPC   GL233254  38.541  40.825   8.850
 5764POPC   C1A33255  38.494  40.784   8.550
 5764POPC   D2A33256  38.439  40.750   8.250
 5764POPC   C3A33257  38.500  40.805   7.950
 5764POPC   C4A33258  38.451  40.768   7.650
 5764POPC   C1B33259  38.604  40.917   8.550
 5764POPC   C2B33260  38.625  40.992   8.250
 5764POPC   C3B33261  38.600  40.935   7.950
 5764POPC   C4B33262  38.646  40.984   7.650
 5765POPC   NC333263  32.233  39.223   9.450
 5765POPC   PO433264  32.279  39.263   9.150
 5765POPC   GL133265  32.257  39.227   8.850
 5765POPC   GL233266  32.178  39.101   8.850
 5765POPC   C1A33267  32.274  39.272   8.550
 5765POPC   D2A33268  32.288  39.197   8.250
 5765POPC   C3A33269  32.238  39.196   7.950
 5765POPC   C4A33270  32.259  39.228   7.650
 5765POPC   C1B33271  32.181  39.020   8.550
 5765POPC   C2B33272  32.175  38.966   8.250
 5765POPC   C3B33273  32.186  39.008   7.950
 5765POPC   C4B33274  32.204  38.959   7.650
 5766POPC   NC333275  33.008  30.708   9.450
 5766POPC   PO433276  33.052  30.743   9.150
 5766POPC   GL133277  33.049  30.702   8.850
 5766POPC   GL233278  33.027  30.864   8.850
 5766POPC   C1A33279  33.069  30.678   8.550
 5766POPC   D2A33280  33.059  30.733   8.250
 5766POPC   C3A33281  32.985  30.712   7.950
 5766POPC   C4A33282  33.014  30.741   7.650
 5766POPC   C1B33283  32.957  30.939   8.550
 5766POPC   C2B33284  32.962  30.944   8.250
 5766POPC   C3B33285  32.947  30.940   7.950
 5766POPC   C4B33286  33.013  30.932   7.650
 5767POPC   NC333287  35.391  15.177   9.450
 5767POPC   PO433288  35.321  15.150   9.150
 5767POPC   GL133289  35.367  15.219   8.850
 5767POPC   GL233290  35.502  15.150   8.850
 5767POPC   C1A33291  35.373  15.167   8.550
 5767POPC   D2A33292  35.303  15.199   8.250
 5767POPC   C3A33293  35.348  15.216   7.950
 5767POPC   C4A33294  35.398  15.153   7.650
 5767POPC   C1B33295  35.589  15.219   8.550
 5767POPC   C2B33296  35.560  15.221   8.250
 5767POPC   C3B33297  35.558  15.176   7.950
 5767POPC   C4B33298  35.600  15.153   7.650
 5768POPC   NC333299  25.272   2.751   9.450
 5768POPC   PO433300  25.292   2.746   9.150
 5768POPC   GL133301  25.224   2.778   8.850
 5768POPC   GL233302  25.169   2.690   8.850
 5768POPC   C1A33303  25.222   2.739   8.550
 5768POPC   D2A33304  25.275   2.730   8.250
 5768POPC   C3A33305  25.227   2.775   7.950
 5768POPC   C4A33306  25.277   2.797   7.650
 5768POPC   C1B33307  25.033   2.754   8.550
 5768POPC   C2B33308  25.065   2.661   8.250
 5768POPC   C3B33309  25.023   2.666   7.950
 5768POPC   C4B33310  25.044   2.690   7.650
 5769POPC   NC333311   5.115  28.392   9.450
 5769POPC   PO433312   5.076  28.401   9.150
 5769POPC   GL133313   5.115  28.363   8.850
 5769POPC   GL233314   4.958  28.339   8.850
 5769POPC   C1A33315   5.109  28.324   8.550
 5769POPC   D2A33316   5.130  28.417   8.250
 5769POPC   C3A33317   5.116  28.389   7.950
 5769POPC   C4A33318   5.058  28.326   7.650
 5769POPC   C1B33319   4.832  28.320   8.550
 5769POPC   C2B33320   4.898  28.315   8.250
 5769POPC   C3B33321   4.871  28.332   7.950
 5769POPC   C4B33322   4.899  28.340   7.650
 5770POPC   NC333323  29.143  17.520   9.450
 5770POPC   PO433324  29.126  17.480   9.150
 5770POPC   GL133325  29.190  17.517   8.850
 5770POPC   GL233326  29.141  17.365   8.850
 5770POPC   C1A33327  29.153  17.542   8.550
 5770POPC   D2A33328  29.190  17.552   8.250
 5770POPC   C3A33329  29.175  17.500   7.950
 5770POPC   C4A33330  29.105  17.507   7.650
 5770POPC   C1B33331  29.219  17.280   8.550
 5770POPC   C2B33332  29.175  17.267   8.250
 5770POPC   C3B33333  29.233  17.255   7.950
 5770POPC   C4B33334  29.223  17.257   7.650
 5771POPC   NC333335  43.140   4.307   9.450
 5771POPC   PO433336  43.107   4.348   9.150
 5771POPC   GL133337  43.086   4.331   8.850
 5771POPC   GL233338  43.173   4.385   8.850
 5771POPC   C1A33339  43.137   4.346   8.550
 5771POPC   D2A33340  43.154   4.269   8.250
 5771POPC   C3A33341  43.061   4.325   7.950
 5771POPC   C4A33342  43.090   4.283   7.650
 5771POPC   C1B33343  43.272   4.511   8.550
 5771POPC   C2B33344  43.302   4.567   8.250
 5771POPC   C3B33345  43.275   4.552   7.950
 5771POPC   C4B33346  43.270   4.477   7.650
 5772POPC   NC333347  19.054  44.645   9.450
 5772POPC   PO433348  19.101  44.688   9.150
 5772POPC   GL133349  19.038  44.619   8.850
 5772POPC   GL233350  19.117  44.746   8.850
 5772POPC   C1A33351  19.014  44.698   8.550
 5772POPC   D2A33352  19.098  44.683   8.250
 5772POPC   C3A33353  19.017  44.702   7.950
 5772POPC   C4A33354  19.094  44.651   7.650
 5772POPC   C1B33355  19.274  44.866   8.550
 5772POPC   C2B33356  19.237  44.866   8.250
 5772POPC   C3B33357  19.252  44.879   7.950
 5772POPC   C4B33358  19.217  44.855   7.650
 5773POPC   NC333359  35.383   5.837   9.450
 5773POPC   PO433360  35.334   5.877   9.150
 5773POPC   GL133361  35.387   5.860   8.850
 5773POPC   GL233362  35.413   6.001   8.850
 5773POPC   C1A33363  35.361   5.908   8.550
 5773POPC   D2A33364  35.379   5.905   8.250
 5773POPC   C3A33365  35.392   5.912   7.950
 5773POPC   C4A33366  35.330   5.861   7.650
 5773POPC   C1B33367  35.462   6.062   8.550
 5773POPC   C2B33368  35.538   6.090   8.250
 5773POPC   C3B33369  35.499   6.110   7.950
 5773POPC   C4B33370  35.542   6.069   7.650
 5774POPC   NC333371  12.840  34.555   9.450
 5774POPC   PO433372  12.845  34.592   9.150
 5774POPC   GL133373  12.879  34.552   8.850
 5774POPC   GL233374  12.692  34.544   8.850
 5774POPC   C1A33375  12.837  34.579   8.550
 5774POPC   D2A33376  12.833  34.562   8.250
 5774POPC   C3A33377  12.854  34.561   7.950
 5774POPC   C4A33378  12.888  34.571   7.650
 5774POPC   C1B33379  12.578  34.607   8.550
 5774POPC   C2B33380  12.562  34.559   8.250
 5774POPC   C3B33381  12.564  34.551   7.950
 5774POPC   C4B33382  12.628  34.521   7.650
 5775POPC   NC333383  32.204   5.890   9.450
 5775POPC   PO433384  32.246   5.841   9.150
 5775POPC   GL133385  32.290   5.896   8.850
 5775POPC   GL233386  32.127   5.789   8.850
 5775POPC   C1A33387  32.228   5.913   8.550
 5775POPC   D2A33388  32.270   5.866   8.250
 5775POPC   C3A33389  32.224   5.903   7.950
 5775POPC   C4A33390  32.218   5.912   7.650
 5775POPC   C1B33391  31.997   5.717   8.550
 5775POPC   C2B33392  32.000   5.769   8.250
 5775POPC   C3B33393  31.977   5.812   7.950
 5775POPC   C4B33394  31.985   5.806   7.650
 5776POPC   NC333395  28.399   5.063   9.450
 5776POPC   PO433396  28.415   5.115   9.150
 5776POPC   GL133397  28.351   5.125   8.850
 5776POPC   GL233398  28.260   5.114   8.850
 5776POPC   C1A33399  28.383   5.051   8.550
 5776POPC   D2A33400  28.322   5.126   8.250
 5776POPC   C3A33401  28.361   5.065   7.950
 5776POPC   C4A33402  28.368   5.140   7.650
 5776POPC   C1B33403  28.086   5.070   8.550
 5776POPC   C2B33404  28.070   5.123   8.250
 5776POPC   C3B33405  28.165   5.062   7.950
 5776POPC   C4B33406  28.091   5.086   7.650
 5777POPC   NC333407  42.366  32.252   9.450
 5777POPC   PO433408  42.323  32.228   9.150
 5777POPC   GL133409  42.296  32.242   8.850
 5777POPC   GL233410  42.238  32.311   8.850
 5777POPC   C1A33411  42.326  32.202   8.550
 5777POPC   D2A33412  42.321  32.222   8.250
 5777POPC   C3A33413  42.316  32.208   7.950
 5777POPC   C4A33414  42.287  32.272   7.650
 5777POPC   C1B33415  42.122  32.455   8.550
 5777POPC   C2B33416  42.108  32.467   8.250
 5777POPC   C3B33417  42.157  32.453   7.950
 5777POPC   C4B33418  42.159  32.467   7.650
 5778POPC   NC333419  12.835  43.067   9.450
 5778POPC   PO433420  12.851  43.146   9.150
 5778POPC   GL133421  12.894  43.133   8.850
 5778POPC   GL233422  12.797  43.017   8.850
 5778POPC   C1A33423  12.806  43.116   8.550
 5778POPC   D2A33424  12.861  43.157   8.250
 5778POPC   C3A33425  12.884  43.126   7.950
 5778POPC   C4A33426  12.862  43.099   7.650
 5778POPC   C1B33427  12.658  42.918   8.550
 5778POPC   C2B33428  12.651  42.877   8.250
 5778POPC   C3B33429  12.659  42.935   7.950
 5778POPC   C4B33430  12.747  42.904   7.650
 5779POPC   NC333431   5.142  30.738   9.450
 5779POPC   PO433432   5.116  30.710   9.150
 5779POPC   GL133433   5.125  30.659   8.850
 5779POPC   GL233434   5.195  30.768   8.850
 5779POPC   C1A33435   5.055  30.698   8.550
 5779POPC   D2A33436   5.072  30.687   8.250
 5779POPC   C3A33437   5.102  30.691   7.950
 5779POPC   C4A33438   5.068  30.689   7.650
 5779POPC   C1B33439   5.294  30.745   8.550
 5779POPC   C2B33440   5.350  30.739   8.250
 5779POPC   C3B33441   5.318  30.779   7.950
 5779POPC   C4B33442   5.345  30.753   7.650
 5780POPC   NC333443  32.281  23.740   9.450
 5780POPC   PO433444  32.243  23.749   9.150
 5780POPC   GL133445  32.295  23.733   8.850
 5780POPC   GL233446  32.087  23.797   8.850
 5780POPC   C1A33447  32.203  23.755   8.550
 5780POPC   D2A33448  32.248  23.747   8.250
 5780POPC   C3A33449  32.199  23.732   7.950
 5780POPC   C4A33450  32.240  23.673   7.650
 5780POPC   C1B33451  31.982  23.820   8.550
 5780POPC   C2B33452  31.999  23.787   8.250
 5780POPC   C3B33453  32.057  23.823   7.950
 5780POPC   C4B33454  31.975  23.774   7.650
 5781POPC   NC333455  26.808  34.599   9.450
 5781POPC   PO433456  26.795  34.528   9.150
 5781POPC   GL133457  26.779  34.551   8.850
 5781POPC   GL233458  26.795  34.692   8.850
 5781POPC   C1A33459  26.783  34.540   8.550
 5781POPC   D2A33460  26.817  34.565   8.250
 5781POPC   C3A33461  26.826  34.567   7.950
 5781POPC   C4A33462  26.787  34.596   7.650
 5781POPC   C1B33463  26.831  34.832   8.550
 5781POPC   C2B33464  26.889  34.852   8.250
 5781POPC   C3B33465  26.816  34.852   7.950
 5781POPC   C4B33466  26.807  34.843   7.650
 5782POPC   NC333467  12.896  20.642   9.450
 5782POPC   PO433468  12.855  20.653   9.150
 5782POPC   GL133469  12.802  20.647   8.850
 5782POPC   GL233470  12.944  20.470   8.850
 5782POPC   C1A33471  12.901  20.660   8.550
 5782POPC   D2A33472  12.875  20.596   8.250
 5782POPC   C3A33473  12.843  20.637   7.950
 5782POPC   C4A33474  12.891  20.649   7.650
 5782POPC   C1B33475  12.898  20.407   8.550
 5782POPC   C2B33476  12.985  20.387   8.250
 5782POPC   C3B33477  12.957  20.381   7.950
 5782POPC   C4B33478  12.900  20.342   7.650
 5783POPC   NC333479   4.276   3.549   9.450
 5783POPC   PO433480   4.271   3.522   9.150
 5783POPC   GL133481   4.341   3.534   8.850
 5783POPC   GL233482   4.421   3.538   8.850
 5783POPC   C1A33483   4.277   3.512   8.550
 5783POPC   D2A33484   4.338   3.524   8.250
 5783POPC   C3A33485   4.291   3.542   7.950
 5783POPC   C4A33486   4.280   3.559   7.650
 5783POPC   C1B33487   4.522   3.630   8.550
 5783POPC   C2B33488   4.608   3.587   8.250
 5783POPC   C3B33489   4.513   3.633   7.950
 5783POPC   C4B33490   4.525   3.641   7.650
 5784POPC   NC333491  20.571  27.589   9.450
 5784POPC   PO433492  20.604  27.606   9.150
 5784POPC   GL133493  20.617  27.553   8.850
 5784POPC   GL233494  20.536  27.442   8.850
 5784POPC   C1A33495  20.615  27.615   8.550
 5784POPC   D2A33496  20.576  27.569   8.250
 5784POPC   C3A33497  20.591  27.607   7.950
 5784POPC   C4A33498  20.650  27.627   7.650
 5784POPC   C1B33499  20.506  27.331   8.550
 5784POPC   C2B33500  20.539  27.319   8.250
 5784POPC   C3B33501  20.556  27.329   7.950
 5784POPC   C4B33502  20.534  27.316   7.650
 5785POPC   NC333503   0.417  38.465   9.450
 5785POPC   PO433504   0.464  38.468   9.150
 5785POPC   GL133505   0.467  38.425   8.850
 5785POPC   GL233506   0.302  38.425   8.850
 5785POPC   C1A33507   0.419  38.451   8.550
 5785POPC   D2A33508   0.460  38.408   8.250
 5785POPC   C3A33509   0.445  38.445   7.950
 5785POPC   C4A33510   0.449  38.468   7.650
 5785POPC   C1B33511   0.223  38.474   8.550
 5785POPC   C2B33512   0.187  38.432   8.250
 5785POPC   C3B33513   0.215  38.489   7.950
 5785POPC   C4B33514   0.151  38.424   7.650
 5786POPC   NC333515   3.581  23.749   9.450
 5786POPC   PO433516   3.501  23.668   9.150
 5786POPC   GL133517   3.522  23.746   8.850
 5786POPC   GL233518   3.680  23.719   8.850
 5786POPC   C1A33519   3.554  23.762   8.550
 5786POPC   D2A33520   3.538  23.715   8.250
 5786POPC   C3A33521   3.578  23.749   7.950
 5786POPC   C4A33522   3.559  23.744   7.650
 5786POPC   C1B33523   3.803  23.624   8.550
 5786POPC   C2B33524   3.797  23.674   8.250
 5786POPC   C3B33525   3.776  23.653   7.950
 5786POPC   C4B33526   3.791  23.639   7.650
 5787POPC   NC333527  12.864  24.451   9.450
 5787POPC   PO433528  12.890  24.476   9.150
 5787POPC   GL133529  12.849  24.485   8.850
 5787POPC   GL233530  12.996  24.562   8.850
 5787POPC   C1A33531  12.887  24.518   8.550
 5787POPC   D2A33532  12.822  24.474   8.250
 5787POPC   C3A33533  12.829  24.504   7.950
 5787POPC   C4A33534  12.814  24.488   7.650
 5787POPC   C1B33535  13.006  24.650   8.550
 5787POPC   C2B33536  13.064  24.610   8.250
 5787POPC   C3B33537  13.065  24.620   7.950
 5787POPC   C4B33538  13.075  24.665   7.650
 5788POPC   NC333539  11.275  40.771   9.450
 5788POPC   PO433540  11.317  40.761   9.150
 5788POPC   GL133541  11.314  40.820   8.850
 5788POPC   GL233542  11.470  40.760   8.850
 5788POPC   C1A33543  11.340  40.815   8.550
 5788POPC   D2A33544  11.256  40.752   8.250
 5788POPC   C3A33545  11.294  40.772   7.950
 5788POPC   C4A33546  11.322  40.813   7.650
 5788POPC   C1B33547  11.537  40.788   8.550
 5788POPC   C2B33548  11.543  40.832   8.250
 5788POPC   C3B33549  11.543  40.812   7.950
 5788POPC   C4B33550  11.528  40.810   7.650
 5789POPC   NC333551  36.137  19.787   9.450
 5789POPC   PO433552  36.119  19.872   9.150
 5789POPC   GL133553  36.095  19.864   8.850
 5789POPC   GL233554  36.219  19.789   8.850
 5789POPC   C1A33555  36.131  19.881   8.550
 5789POPC   D2A33556  36.114  19.850   8.250
 5789POPC   C3A33557  36.154  19.855   7.950
 5789POPC   C4A33558  36.138  19.859   7.650
 5789POPC   C1B33559  36.341  19.680   8.550
 5789POPC   C2B33560  36.347  19.731   8.250
 5789POPC   C3B33561  36.357  19.705   7.950
 5789POPC   C4B33562  36.345  19.723   7.650
 5790POPC   NC333563  40.804  36.885   9.450
 5790POPC   PO433564  40.782  36.943   9.150
 5790POPC   GL133565  40.773  36.862   8.850
 5790POPC   GL233566  40.844  37.072   8.850
 5790POPC   C1A33567  40.816  36.893   8.550
 5790POPC   D2A33568  40.803  36.912   8.250
 5790POPC   C3A33569  40.770  36.936   7.950
 5790POPC   C4A33570  40.766  36.856   7.650
 5790POPC   C1B33571  40.868  37.152   8.550
 5790POPC   C2B33572  40.850  37.147   8.250
 5790POPC   C3B33573  40.833  37.149   7.950
 5790POPC   C4B33574  40.839  37.149   7.650
 5791POPC   NC333575  41.570  16.683   9.450
 5791POPC   PO433576  41.574  16.727   9.150
 5791POPC   GL133577  41.517  16.774   8.850
 5791POPC   GL233578  41.599  16.657   8.850
 5791POPC   C1A33579  41.523  16.711   8.550
 5791POPC   D2A33580  41.527  16.739   8.250
 5791POPC   C3A33581  41.540  16.701   7.950
 5791POPC   C4A33582  41.587  16.751   7.650
 5791POPC   C1B33583  41.725  16.517   8.550
 5791POPC   C2B33584  41.758  16.568   8.250
 5791POPC   C3B33585  41.686  16.541   7.950
 5791POPC   C4B33586  41.686  16.535   7.650
 5792POPC   NC333587  42.351  24.500   9.450
 5792POPC   PO433588  42.329  24.475   9.150
 5792POPC   GL133589  42.306  24.442   8.850
 5792POPC   GL233590  42.206  24.471   8.850
 5792POPC   C1A33591  42.327  24.499   8.550
 5792POPC   D2A33592  42.364  24.455   8.250
 5792POPC   C3A33593  42.322  24.445   7.950
 5792POPC   C4A33594  42.330  24.445   7.650
 5792POPC   C1B33595  42.113  24.431   8.550
 5792POPC   C2B33596  42.136  24.425   8.250
 5792POPC   C3B33597  42.119  24.442   7.950
 5792POPC   C4B33598  42.145  24.400   7.650
 5793POPC   NC333599   2.015   2.015   9.450
 5793POPC   PO433600   2.023   1.943   9.150
 5793POPC   GL133601   2.024   1.988   8.850
 5793POPC   GL233602   2.121   2.031   8.850
 5793POPC   C1A33603   1.943   1.958   8.550
 5793POPC   D2A33604   1.981   2.030   8.250
 5793POPC   C3A33605   2.032   2.002   7.950
 5793POPC   C4A33606   1.986   2.015   7.650
 5793POPC   C1B33607   2.217   2.103   8.550
 5793POPC   C2B33608   2.211   2.161   8.250
 5793POPC   C3B33609   2.236   2.144   7.950
 5793POPC   C4B33610   2.237   2.151   7.650
 5794POPC   NC333611  15.950  19.099   9.450
 5794POPC   PO433612  15.994  19.034   9.150
 5794POPC   GL133613  15.917  19.031   8.850
 5794POPC   GL233614  15.853  19.142   8.850
 5794POPC   C1A33615  15.988  19.043   8.550
 5794POPC   D2A33616  15.982  19.016   8.250
 5794POPC   C3A33617  15.978  19.085   7.950
 5794POPC   C4A33618  15.937  19.059   7.650
 5794POPC   C1B33619  15.746  19.176   8.550
 5794POPC   C2B33620  15.740  19.238   8.250
 5794POPC   C3B33621  15.709  19.246   7.950
 5794POPC   C4B33622  15.753  19.217   7.650
 5795POPC   NC333623  37.688  33.781   9.450
 5795POPC   PO433624  37.653  33.830   9.150
 5795POPC   GL133625  37.667  33.799   8.850
 5795POPC   GL233626  37.811  33.836   8.850
 5795POPC   C1A33627  37.635  33.761   8.550
 5795POPC   D2A33628  37.666  33.767   8.250
 5795POPC   C3A33629  37.643  33.792   7.950
 5795POPC   C4A33630  37.660  33.807   7.650
 5795POPC   C1B33631  37.895  33.854   8.550
 5795POPC   C2B33632  37.922  33.839   8.250
 5795POPC   C3B33633  37.878  33.877   7.950
 5795POPC   C4B33634  37.938  33.808   7.650
 5796POPC   NC333635  10.481  15.173   9.450
 5796POPC   PO433636  10.559  15.137   9.150
 5796POPC   GL133637  10.563  15.166   8.850
 5796POPC   GL233638  10.539  15.285   8.850
 5796POPC   C1A33639  10.544  15.209   8.550
 5796POPC   D2A33640  10.503  15.145   8.250
 5796POPC   C3A33641  10.565  15.214   7.950
 5796POPC   C4A33642  10.540  15.154   7.650
 5796POPC   C1B33643  10.545  15.424   8.550
 5796POPC   C2B33644  10.522  15.443   8.250
 5796POPC   C3B33645  10.501  15.418   7.950
 5796POPC   C4B33646  10.518  15.401   7.650
 5797POPC   NC333647  16.688  16.777   9.450
 5797POPC   PO433648  16.747  16.691   9.150
 5797POPC   GL133649  16.727  16.711   8.850
 5797POPC   GL233650  16.764  16.864   8.850
 5797POPC   C1A33651  16.729  16.744   8.550
 5797POPC   D2A33652  16.739  16.722   8.250
 5797POPC   C3A33653  16.776  16.762   7.950
 5797POPC   C4A33654  16.698  16.759   7.650
 5797POPC   C1B33655  16.861  16.933   8.550
 5797POPC   C2B33656  16.828  16.987   8.250
 5797POPC   C3B33657  16.870  16.940   7.950
 5797POPC   C4B33658  16.860  16.977   7.650
 5798POPC   NC333659  37.658  23.727   9.450
 5798POPC   PO433660  37.632  23.746   9.150
 5798POPC   GL133661  37.728  23.670   8.850
 5798POPC   GL233662  37.816  23.676   8.850
 5798POPC   C1A33663  37.699  23.701   8.550
 5798POPC   D2A33664  37.633  23.694   8.250
 5798POPC   C3A33665  37.714  23.710   7.950
 5798POPC   C4A33666  37.639  23.739   7.650
 5798POPC   C1B33667  37.915  23.631   8.550
 5798POPC   C2B33668  37.935  23.637   8.250
 5798POPC   C3B33669  37.862  23.599   7.950
 5798POPC   C4B33670  37.864  23.602   7.650
 5799POPC   NC333671  32.284  18.280   9.450
 5799POPC   PO433672  32.245  18.310   9.150
 5799POPC   GL133673  32.239  18.289   8.850
 5799POPC   GL233674  32.248  18.127   8.850
 5799POPC   C1A33675  32.227  18.267   8.550
 5799POPC   D2A33676  32.226  18.277   8.250
 5799POPC   C3A33677  32.214  18.239   7.950
 5799POPC   C4A33678  32.275  18.286   7.650
 5799POPC   C1B33679  32.219  18.070   8.550
 5799POPC   C2B33680  32.156  18.091   8.250
 5799POPC   C3B33681  32.233  17.997   7.950
 5799POPC   C4B33682  32.157  18.015   7.650
 5800POPC   NC333683  22.175  30.682   9.450
 5800POPC   PO433684  22.142  30.715   9.150
 5800POPC   GL133685  22.173  30.709   8.850
 5800POPC   GL233686  22.240  30.618   8.850
 5800POPC   C1A33687  22.207  30.712   8.550
 5800POPC   D2A33688  22.181  30.656   8.250
 5800POPC   C3A33689  22.208  30.670   7.950
 5800POPC   C4A33690  22.128  30.672   7.650
 5800POPC   C1B33691  22.440  30.605   8.550
 5800POPC   C2B33692  22.397  30.628   8.250
 5800POPC   C3B33693  22.412  30.659   7.950
 5800POPC   C4B33694  22.368  30.594   7.650
 5801POPC   NC333695  23.666  33.761   9.450
 5801POPC   PO433696  23.749  33.835   9.150
 5801POPC   GL133697  23.735  33.820   8.850
 5801POPC   GL233698  23.796  33.710   8.850
 5801POPC   C1A33699  23.762  33.794   8.550
 5801POPC   D2A33700  23.717  33.783   8.250
 5801POPC   C3A33701  23.749  33.767   7.950
 5801POPC   C4A33702  23.709  33.822   7.650
 5801POPC   C1B33703  23.863  33.540   8.550
 5801POPC   C2B33704  23.817  33.550   8.250
 5801POPC   C3B33705  23.850  33.626   7.950
 5801POPC   C4B33706  23.880  33.577   7.650
 5802POPC   NC333707  23.672  12.109   9.450
 5802POPC   PO433708  23.755  12.057   9.150
 5802POPC   GL133709  23.721  12.064   8.850
 5802POPC   GL233710  23.727  11.923   8.850
 5802POPC   C1A33711  23.679  12.104   8.550
 5802POPC   D2A33712  23.728  12.043   8.250
 5802POPC   C3A33713  23.712  12.067   7.950
 5802POPC   C4A33714  23.736  12.120   7.650
 5802POPC   C1B33715  23.699  11.777   8.550
 5802POPC   C2B33716  23.698  11.779   8.250
 5802POPC   C3B33717  23.760  11.814   7.950
 5802POPC   C4B33718  23.709  11.786   7.650
 5803POPC   NC333719  21.423  20.588   9.450
 5803POPC   PO433720  21.408  20.573   9.150
 5803POPC   GL133721  21.359  20.637   8.850
 5803POPC   GL233722  21.492  20.606   8.850
 5803POPC   C1A33723  21.413  20.572   8.550
 5803POPC   D2A33724  21.393  20.606   8.250
 5803POPC   C3A33725  21.410  20.640   7.950
 5803POPC   C4A33726  21.375  20.596   7.650
 5803POPC   C1B33727  21.615  20.669   8.550
 5803POPC   C2B33728  21.617  20.723   8.250
 5803POPC   C3B33729  21.611  20.655   7.950
 5803POPC   C4B33730  21.648  20.673   7.650
 5804POPC   NC333731  36.869  19.030   9.450
 5804POPC   PO433732  36.869  19.012   9.150
 5804POPC   GL133733  36.876  19.085   8.850
 5804POPC   GL233734  37.019  19.061   8.850
 5804POPC   C1A33735  36.908  19.050   8.550
 5804POPC   D2A33736  36.933  19.077   8.250
 5804POPC   C3A33737  36.948  19.097   7.950
 5804POPC   C4A33738  36.860  19.043   7.650
 5804POPC   C1B33739  37.136  19.178   8.550
 5804POPC   C2B33740  37.112  19.184   8.250
 5804POPC   C3B33741  37.093  19.128   7.950
 5804POPC   C4B33742  37.156  19.114   7.650
 5805POPC   NC333743   1.232  12.851   9.450
 5805POPC   PO433744   1.244  12.860   9.150
 5805POPC   GL133745   1.240  12.890   8.850
 5805POPC   GL233746   1.135  12.784   8.850
 5805POPC   C1A33747   1.200  12.840   8.550
 5805POPC   D2A33748   1.237  12.810   8.250
 5805POPC   C3A33749   1.181  12.819   7.950
 5805POPC   C4A33750   1.213  12.878   7.650
 5805POPC   C1B33751   0.926  12.777   8.550
 5805POPC   C2B33752   0.986  12.826   8.250
 5805POPC   C3B33753   0.986  12.834   7.950
 5805POPC   C4B33754   0.956  12.754   7.650
 5806POPC   NC333755  36.878   7.434   9.450
 5806POPC   PO433756  36.866   7.394   9.150
 5806POPC   GL133757  36.940   7.406   8.850
 5806POPC   GL233758  37.029   7.494   8.850
 5806POPC   C1A33759  36.872   7.419   8.550
 5806POPC   D2A33760  36.926   7.398   8.250
 5806POPC   C3A33761  36.931   7.415   7.950
 5806POPC   C4A33762  36.881   7.450   7.650
 5806POPC   C1B33763  37.080   7.644   8.550
 5806POPC   C2B33764  37.089   7.597   8.250
 5806POPC   C3B33765  37.039   7.615   7.950
 5806POPC   C4B33766  37.122   7.584   7.650
 5807POPC   NC333767   2.762   1.233   9.450
 5807POPC   PO433768   2.787   1.255   9.150
 5807POPC   GL133769   2.777   1.181   8.850
 5807POPC   GL233770   2.799   1.088   8.850
 5807POPC   C1A33771   2.773   1.246   8.550
 5807POPC   D2A33772   2.793   1.227   8.250
 5807POPC   C3A33773   2.754   1.220   7.950
 5807POPC   C4A33774   2.790   1.166   7.650
 5807POPC   C1B33775   2.926   1.010   8.550
 5807POPC   C2B33776   2.951   1.036   8.250
 5807POPC   C3B33777   2.867   1.048   7.950
 5807POPC   C4B33778   2.872   0.969   7.650
 5808POPC   NC333779   3.535  22.160   9.450
 5808POPC   PO433780   3.582  22.131   9.150
 5808POPC   GL133781   3.513  22.199   8.850
 5808POPC   GL233782   3.578  22.241   8.850
 5808POPC   C1A33783   3.588  22.175   8.550
 5808POPC   D2A33784   3.541  22.142   8.250
 5808POPC   C3A33785   3.545  22.185   7.950
 5808POPC   C4A33786   3.561  22.123   7.650
 5808POPC   C1B33787   3.504  22.434   8.550
 5808POPC   C2B33788   3.503  22.394   8.250
 5808POPC   C3B33789   3.550  22.459   7.950
 5808POPC   C4B33790   3.491  22.376   7.650
 5809POPC   NC333791  21.362  18.279   9.450
 5809POPC   PO433792  21.342  18.294   9.150
 5809POPC   GL133793  21.376  18.238   8.850
 5809POPC   GL233794  21.275  18.185   8.850
 5809POPC   C1A33795  21.348  18.322   8.550
 5809POPC   D2A33796  21.411  18.292   8.250
 5809POPC   C3A33797  21.367  18.265   7.950
 5809POPC   C4A33798  21.411  18.251   7.650
 5809POPC   C1B33799  21.219  18.151   8.550
 5809POPC   C2B33800  21.168  18.159   8.250
 5809POPC   C3B33801  21.222  18.096   7.950
 5809POPC   C4B33802  21.175  18.084   7.650
 5810POPC   NC333803   8.156  33.029   9.450
 5810POPC   PO433804   8.232  33.064   9.150
 5810POPC   GL133805   8.150  32.984   8.850
 5810POPC   GL233806   8.048  33.014   8.850
 5810POPC   C1A33807   8.189  33.001   8.550
 5810POPC   D2A33808   8.231  33.025   8.250
 5810POPC   C3A33809   8.148  33.049   7.950
 5810POPC   C4A33810   8.170  33.069   7.650
 5810POPC   C1B33811   7.926  33.077   8.550
 5810POPC   C2B33812   7.914  33.090   8.250
 5810POPC   C3B33813   7.914  33.114   7.950
 5810POPC   C4B33814   7.950  33.071   7.650
 5811POPC   NC333815  21.365   3.554   9.450
 5811POPC   PO433816  21.378   3.521   9.150
 5811POPC   GL133817  21.355   3.516   8.850
 5811POPC   GL233818  21.273   3.495   8.850
 5811POPC   C1A33819  21.356   3.526   8.550
 5811POPC   D2A33820  21.411   3.504   8.250
 5811POPC   C3A33821  21.397   3.562   7.950
 5811POPC   C4A33822  21.420   3.575   7.650
 5811POPC   C1B33823  21.128   3.499   8.550
 5811POPC   C2B33824  21.137   3.517   8.250
 5811POPC   C3B33825  21.171   3.499   7.950
 5811POPC   C4B33826  21.158   3.465   7.650
 5812POPC   NC333827   6.622   5.047   9.450
 5812POPC   PO433828   6.612   5.083   9.150
 5812POPC   GL133829   6.615   5.137   8.850
 5812POPC   GL233830   6.566   5.212   8.850
 5812POPC   C1A33831   6.650   5.048   8.550
 5812POPC   D2A33832   6.652   5.073   8.250
 5812POPC   C3A33833   6.683   5.115   7.950
 5812POPC   C4A33834   6.670   5.096   7.650
 5812POPC   C1B33835   6.546   5.358   8.550
 5812POPC   C2B33836   6.541   5.356   8.250
 5812POPC   C3B33837   6.551   5.299   7.950
 5812POPC   C4B33838   6.586   5.348   7.650
 5813POPC   NC333839  19.054  33.061   9.450
 5813POPC   PO433840  19.022  32.984   9.150
 5813POPC   GL133841  19.085  33.006   8.850
 5813POPC   GL233842  18.892  33.047   8.850
 5813POPC   C1A33843  19.039  32.989   8.550
 5813POPC   D2A33844  19.052  33.015   8.250
 5813POPC   C3A33845  19.015  33.022   7.950
 5813POPC   C4A33846  19.051  33.073   7.650
 5813POPC   C1B33847  18.778  33.121   8.550
 5813POPC   C2B33848  18.796  33.086   8.250
 5813POPC   C3B33849  18.774  33.048   7.950
 5813POPC   C4B33850  18.819  33.060   7.650
 5814POPC   NC333851   7.406  36.872   9.450
 5814POPC   PO433852   7.385  36.908   9.150
 5814POPC   GL133853   7.468  36.872   8.850
 5814POPC   GL233854   7.330  36.901   8.850
 5814POPC   C1A33855   7.462  36.853   8.550
 5814POPC   D2A33856   7.439  36.943   8.250
 5814POPC   C3A33857   7.404  36.917   7.950
 5814POPC   C4A33858   7.420  36.941   7.650
 5814POPC   C1B33859   7.191  36.834   8.550
 5814POPC   C2B33860   7.211  36.807   8.250
 5814POPC   C3B33861   7.199  36.864   7.950
 5814POPC   C4B33862   7.137  36.828   7.650
 5815POPC   NC333863  15.945  32.225   9.450
 5815POPC   PO433864  15.988  32.298   9.150
 5815POPC   GL133865  15.996  32.289   8.850
 5815POPC   GL233866  15.939  32.112   8.850
 5815POPC   C1A33867  15.984  32.231   8.550
 5815POPC   D2A33868  15.958  32.208   8.250
 5815POPC   C3A33869  15.996  32.258   7.950
 5815POPC   C4A33870  15.986  32.210   7.650
 5815POPC   C1B33871  15.903  32.022   8.550
 5815POPC   C2B33872  15.940  32.038   8.250
 5815POPC   C3B33873  15.978  31.983   7.950
 5815POPC   C4B33874  15.893  31.967   7.650
 5816POPC   NC333875  40.827   8.245   9.450
 5816POPC   PO433876  40.768   8.147   9.150
 5816POPC   GL133877  40.774   8.171   8.850
 5816POPC   GL233878  40.918   8.074   8.850
 5816POPC   C1A33879  40.813   8.242   8.550
 5816POPC   D2A33880  40.822   8.147   8.250
 5816POPC   C3A33881  40.821   8.232   7.950
 5816POPC   C4A33882  40.803   8.208   7.650
 5816POPC   C1B33883  40.974   8.074   8.550
 5816POPC   C2B33884  40.962   8.064   8.250
 5816POPC   C3B33885  41.000   8.052   7.950
 5816POPC   C4B33886  40.939   8.072   7.650
 5817POPC   NC333887  33.795  41.609   9.450
 5817POPC   PO433888  33.843  41.590   9.150
 5817POPC   GL133889  33.818  41.548   8.850
 5817POPC   GL233890  33.967  41.534   8.850
 5817POPC   C1A33891  33.824  41.511   8.550
 5817POPC   D2A33892  33.762  41.600   8.250
 5817POPC   C3A33893  33.766  41.599   7.950
 5817POPC   C4A33894  33.777  41.596   7.650
 5817POPC   C1B33895  34.038  41.532   8.550
 5817POPC   C2B33896  34.050  41.494   8.250
 5817POPC   C3B33897  34.082  41.487   7.950
 5817POPC   C4B33898  34.030  41.531   7.650
 5818POPC   NC333899   9.755  19.830   9.450
 5818POPC   PO433900   9.752  19.823   9.150
 5818POPC   GL133901   9.778  19.818   8.850
 5818POPC   GL233902   9.652  19.813   8.850
 5818POPC   C1A33903   9.703  19.856   8.550
 5818POPC   D2A33904   9.778  19.846   8.250
 5818POPC   C3A33905   9.771  19.818   7.950
 5818POPC   C4A33906   9.708  19.794   7.650
 5818POPC   C1B33907   9.571  19.712   8.550
 5818POPC   C2B33908   9.491  19.680   8.250
 5818POPC   C3B33909   9.486  19.688   7.950
 5818POPC   C4B33910   9.563  19.718   7.650
 5819POPC   NC333911   7.427  26.822   9.450
 5819POPC   PO433912   7.433  26.809   9.150
 5819POPC   GL133913   7.454  26.801   8.850
 5819POPC   GL233914   7.325  26.773   8.850
 5819POPC   C1A33915   7.378  26.786   8.550
 5819POPC   D2A33916   7.430  26.790   8.250
 5819POPC   C3A33917   7.436  26.826   7.950
 5819POPC   C4A33918   7.384  26.787   7.650
 5819POPC   C1B33919   7.171  26.745   8.550
 5819POPC   C2B33920   7.157  26.682   8.250
 5819POPC   C3B33921   7.179  26.674   7.950
 5819POPC   C4B33922   7.155  26.702   7.650
 5820POPC   NC333923  18.275  33.813   9.450
 5820POPC   PO433924  18.300  33.779   9.150
 5820POPC   GL133925  18.314  33.847   8.850
 5820POPC   GL233926  18.290  33.958   8.850
 5820POPC   C1A33927  18.236  33.771   8.550
 5820POPC   D2A33928  18.253  33.816   8.250
 5820POPC   C3A33929  18.277  33.816   7.950
 5820POPC   C4A33930  18.330  33.803   7.650
 5820POPC   C1B33931  18.346  34.086   8.550
 5820POPC   C2B33932  18.340  34.079   8.250
 5820POPC   C3B33933  18.379  34.029   7.950
 5820POPC   C4B33934  18.337  34.086   7.650
 5821POPC   NC333935  41.542   3.571   9.450
 5821POPC   PO433936  41.585   3.549   9.150
 5821POPC   GL133937  41.559   3.518   8.850
 5821POPC   GL233938  41.455   3.693   8.850
 5821POPC   C1A33939  41.522   3.494   8.550
 5821POPC   D2A33940  41.537   3.563   8.250
 5821POPC   C3A33941  41.550   3.508   7.950
 5821POPC   C4A33942  41.575   3.588   7.650
 5821POPC   C1B33943  41.396   3.771   8.550
 5821POPC   C2B33944  41.481   3.723   8.250
 5821POPC   C3B33945  41.428   3.717   7.950
 5821POPC   C4B33946  41.447   3.808   7.650
 5822POPC   NC333947  12.053  26.825   9.450
 5822POPC   PO433948  12.053  26.805   9.150
 5822POPC   GL133949  12.111  26.848   8.850
 5822POPC   GL233950  12.055  26.938   8.850
 5822POPC   C1A33951  12.096  26.786   8.550
 5822POPC   D2A33952  12.113  26.827   8.250
 5822POPC   C3A33953  12.050  26.771   7.950
 5822POPC   C4A33954  12.038  26.839   7.650
 5822POPC   C1B33955  12.079  27.016   8.550
 5822POPC   C2B33956  12.089  27.033   8.250
 5822POPC   C3B33957  12.082  27.100   7.950
 5822POPC   C4B33958  12.092  27.019   7.650
 5823POPC   NC333959  12.076  39.220   9.450
 5823POPC   PO433960  12.042  39.226   9.150
 5823POPC   GL133961  12.044  39.257   8.850
 5823POPC   GL233962  12.172  39.245   8.850
 5823POPC   C1A33963  12.122  39.278   8.550
 5823POPC   D2A33964  12.065  39.217   8.250
 5823POPC   C3A33965  12.097  39.247   7.950
 5823POPC   C4A33966  12.122  39.257   7.650
 5823POPC   C1B33967  12.326  39.324   8.550
 5823POPC   C2B33968  12.312  39.378   8.250
 5823POPC   C3B33969  12.308  39.308   7.950
 5823POPC   C4B33970  12.322  39.393   7.650
 5824POPC   NC333971  10.522   2.011   9.450
 5824POPC   PO433972  10.476   1.992   9.150
 5824POPC   GL133973  10.518   2.023   8.850
 5824POPC   GL233974  10.491   1.895   8.850
 5824POPC   C1A33975  10.514   1.996   8.550
 5824POPC   D2A33976  10.531   1.990   8.250
 5824POPC   C3A33977  10.572   1.947   7.950
 5824POPC   C4A33978  10.569   1.977   7.650
 5824POPC   C1B33979  10.490   1.698   8.550
 5824POPC   C2B33980  10.516   1.751   8.250
 5824POPC   C3B33981  10.485   1.769   7.950
 5824POPC   C4B33982  10.554   1.776   7.650
 5825POPC   NC333983  30.648   8.949   9.450
 5825POPC   PO433984  30.703   8.963   9.150
 5825POPC   GL133985  30.688   8.939   8.850
 5825POPC   GL233986  30.849   9.006   8.850
 5825POPC   C1A33987  30.689   9.000   8.550
 5825POPC   D2A33988  30.673   8.942   8.250
 5825POPC   C3A33989  30.717   8.999   7.950
 5825POPC   C4A33990  30.718   8.923   7.650
 5825POPC   C1B33991  30.955   8.950   8.550
 5825POPC   C2B33992  30.960   9.028   8.250
 5825POPC   C3B33993  30.990   8.944   7.950
 5825POPC   C4B33994  30.905   8.934   7.650
 5826POPC   NC333995   5.896  27.555   9.450
 5826POPC   PO433996   5.881  27.619   9.150
 5826POPC   GL133997   5.820  27.549   8.850
 5826POPC   GL233998   6.018  27.623   8.850
 5826POPC   C1A33999   5.870  27.556   8.550
 5826POPC   D2A34000   5.834  27.593   8.250
 5826POPC   C3A34001   5.890  27.629   7.950
 5826POPC   C4A34002   5.819  27.601   7.650
 5826POPC   C1B34003   6.100  27.736   8.550
 5826POPC   C2B34004   6.060  27.698   8.250
 5826POPC   C3B34005   6.064  27.741   7.950
 5826POPC   C4B34006   6.052  27.689   7.650
 5827POPC   NC334007  22.162  21.353   9.450
 5827POPC   PO434008  22.176  21.345   9.150
 5827POPC   GL134009  22.124  21.413   8.850
 5827POPC   GL234010  22.248  21.534   8.850
 5827POPC   C1A34011  22.188  21.338   8.550
 5827POPC   D2A34012  22.135  21.385   8.250
 5827POPC   C3A34013  22.179  21.344   7.950
 5827POPC   C4A34014  22.173  21.384   7.650
 5827POPC   C1B34015  22.282  21.596   8.550
 5827POPC   C2B34016  22.287  21.638   8.250
 5827POPC   C3B34017  22.305  21.613   7.950
 5827POPC   C4B34018  22.241  21.609   7.650
 5828POPC   NC334019  13.586  42.307   9.450
 5828POPC   PO434020  13.596  42.342   9.150
 5828POPC   GL134021  13.674  42.289   8.850
 5828POPC   GL234022  13.713  42.356   8.850
 5828POPC   C1A34023  13.578  42.309   8.550
 5828POPC   D2A34024  13.582  42.354   8.250
 5828POPC   C3A34025  13.619  42.376   7.950
 5828POPC   C4A34026  13.625  42.372   7.650
 5828POPC   C1B34027  13.824  42.467   8.550
 5828POPC   C2B34028  13.817  42.444   8.250
 5828POPC   C3B34029  13.819  42.501   7.950
 5828POPC   C4B34030  13.835  42.486   7.650
 5829POPC   NC334031  15.226  15.972   9.450
 5829POPC   PO434032  15.168  15.989   9.150
 5829POPC   GL134033  15.203  15.944   8.850
 5829POPC   GL234034  15.025  15.915   8.850
 5829POPC   C1A34035  15.225  15.966   8.550
 5829POPC   D2A34036  15.187  15.927   8.250
 5829POPC   C3A34037  15.181  15.954   7.950
 5829POPC   C4A34038  15.181  15.950   7.650
 5829POPC   C1B34039  14.936  16.017   8.550
 5829POPC   C2B34040  14.906  16.006   8.250
 5829POPC   C3B34041  14.951  16.005   7.950
 5829POPC   C4B34042  14.927  16.015   7.650
 5830POPC   NC334043  17.528  15.205   9.450
 5830POPC   PO434044  17.555  15.210   9.150
 5830POPC   GL134045  17.495  15.173   8.850
 5830POPC   GL234046  17.540  15.118   8.850
 5830POPC   C1A34047  17.512  15.139   8.550
 5830POPC   D2A34048  17.464  15.167   8.250
 5830POPC   C3A34049  17.552  15.224   7.950
 5830POPC   C4A34050  17.530  15.169   7.650
 5830POPC   C1B34051  17.712  14.952   8.550
 5830POPC   C2B34052  17.678  14.966   8.250
 5830POPC   C3B34053  17.711  14.949   7.950
 5830POPC   C4B34054  17.645  14.941   7.650
 5831POPC   NC334055  38.472  39.986   9.450
 5831POPC   PO434056  38.501  40.033   9.150
 5831POPC   GL134057  38.436  40.009   8.850
 5831POPC   GL234058  38.358  39.994   8.850
 5831POPC   C1A34059  38.501  40.019   8.550
 5831POPC   D2A34060  38.433  39.997   8.250
 5831POPC   C3A34061  38.491  40.052   7.950
 5831POPC   C4A34062  38.469  40.030   7.650
 5831POPC   C1B34063  38.195  39.957   8.550
 5831POPC   C2B34064  38.159  39.968   8.250
 5831POPC   C3B34065  38.162  39.994   7.950
 5831POPC   C4B34066  38.192  39.989   7.650
 5832POPC   NC334067   5.060  35.381   9.450
 5832POPC   PO434068   5.089  35.330   9.150
 5832POPC   GL134069   5.116  35.346   8.850
 5832POPC   GL234070   5.158  35.269   8.850
 5832POPC   C1A34071   5.095  35.364   8.550
 5832POPC   D2A34072   5.067  35.400   8.250
 5832POPC   C3A34073   5.063  35.337   7.950
 5832POPC   C4A34074   5.088  35.321   7.650
 5832POPC   C1B34075   5.234  35.113   8.550
 5832POPC   C2B34076   5.235  35.167   8.250
 5832POPC   C3B34077   5.225  35.166   7.950
 5832POPC   C4B34078   5.227  35.163   7.650
 5833POPC   NC334079   5.060  19.043   9.450
 5833POPC   PO434080   5.140  19.017   9.150
 5833POPC   GL134081   5.110  19.016   8.850
 5833POPC   GL234082   5.062  19.223   8.850
 5833POPC   C1A34083   5.108  19.074   8.550
 5833POPC   D2A34084   5.139  19.055   8.250
 5833POPC   C3A34085   5.095  19.106   7.950
 5833POPC   C4A34086   5.094  19.045   7.650
 5833POPC   C1B34087   5.014  19.265   8.550
 5833POPC   C2B34088   5.034  19.348   8.250
 5833POPC   C3B34089   5.030  19.344   7.950
 5833POPC   C4B34090   5.001  19.270   7.650
 5834POPC   NC334091   8.183  12.855   9.450
 5834POPC   PO434092   8.161  12.878   9.150
 5834POPC   GL134093   8.189  12.814   8.850
 5834POPC   GL234094   8.061  12.733   8.850
 5834POPC   C1A34095   8.160  12.888   8.550
 5834POPC   D2A34096   8.156  12.882   8.250
 5834POPC   C3A34097   8.150  12.823   7.950
 5834POPC   C4A34098   8.242  12.816   7.650
 5834POPC   C1B34099   7.984  12.651   8.550
 5834POPC   C2B34100   7.957  12.722   8.250
 5834POPC   C3B34101   7.969  12.744   7.950
 5834POPC   C4B34102   8.033  12.675   7.650
 5835POPC   NC334103  12.835  18.290   9.450
 5835POPC   PO434104  12.878  18.308   9.150
 5835POPC   GL134105  12.827  18.331   8.850
 5835POPC   GL234106  12.811  18.367   8.850
 5835POPC   C1A34107  12.815  18.318   8.550
 5835POPC   D2A34108  12.880  18.298   8.250
 5835POPC   C3A34109  12.856  18.280   7.950
 5835POPC   C4A34110  12.870  18.243   7.650
 5835POPC   C1B34111  12.753  18.472   8.550
 5835POPC   C2B34112  12.737  18.511   8.250
 5835POPC   C3B34113  12.690  18.467   7.950
 5835POPC   C4B34114  12.694  18.541   7.650
 5836POPC   NC334115   9.748  29.902   9.450
 5836POPC   PO434116   9.772  29.876   9.150
 5836POPC   GL134117   9.778  29.873   8.850
 5836POPC   GL234118   9.653  29.818   8.850
 5836POPC   C1A34119   9.713  29.884   8.550
 5836POPC   D2A34120   9.748  29.937   8.250
 5836POPC   C3A34121   9.773  29.881   7.950
 5836POPC   C4A34122   9.747  29.938   7.650
 5836POPC   C1B34123   9.590  29.686   8.550
 5836POPC   C2B34124   9.669  29.656   8.250
 5836POPC   C3B34125   9.636  29.674   7.950
 5836POPC   C4B34126   9.614  29.649   7.650
 5837POPC   NC334127   8.235  37.637   9.450
 5837POPC   PO434128   8.176  37.696   9.150
 5837POPC   GL134129   8.170  37.726   8.850
 5837POPC   GL234130   8.346  37.647   8.850
 5837POPC   C1A34131   8.221  37.666   8.550
 5837POPC   D2A34132   8.238  37.653   8.250
 5837POPC   C3A34133   8.210  37.636   7.950
 5837POPC   C4A34134   8.215  37.669   7.650
 5837POPC   C1B34135   8.477  37.695   8.550
 5837POPC   C2B34136   8.447  37.666   8.250
 5837POPC   C3B34137   8.422  37.703   7.950
 5837POPC   C4B34138   8.422  37.618   7.650
 5838POPC   NC334139  29.100  15.183   9.450
 5838POPC   PO434140  29.105  15.151   9.150
 5838POPC   GL134141  29.134  15.186   8.850
 5838POPC   GL234142  29.252  15.192   8.850
 5838POPC   C1A34143  29.175  15.223   8.550
 5838POPC   D2A34144  29.124  15.177   8.250
 5838POPC   C3A34145  29.182  15.160   7.950
 5838POPC   C4A34146  29.178  15.209   7.650
 5838POPC   C1B34147  29.339  15.290   8.550
 5838POPC   C2B34148  29.359  15.310   8.250
 5838POPC   C3B34149  29.418  15.278   7.950
 5838POPC   C4B34150  29.358  15.279   7.650
 5839POPC   NC334151  43.883  36.135   9.450
 5839POPC   PO434152  43.837  36.158   9.150
 5839POPC   GL134153  43.918  36.164   8.850
 5839POPC   GL234154  43.947  36.073   8.850
 5839POPC   C1A34155  43.844  36.103   8.550
 5839POPC   D2A34156  43.891  36.126   8.250
 5839POPC   C3A34157  43.912  36.107   7.950
 5839POPC   C4A34158  43.932  36.146   7.650
 5839POPC   C1B34159  44.105  35.948   8.550
 5839POPC   C2B34160  44.069  35.965   8.250
 5839POPC   C3B34161  44.030  35.973   7.950
 5839POPC   C4B34162  44.106  35.915   7.650
 5840POPC   NC334163  10.574  14.387   9.450
 5840POPC   PO434164  10.513  14.439   9.150
 5840POPC   GL134165  10.483  14.439   8.850
 5840POPC   GL234166  10.385  14.515   8.850
 5840POPC   C1A34167  10.540  14.371   8.550
 5840POPC   D2A34168  10.543  14.412   8.250
 5840POPC   C3A34169  10.491  14.436   7.950
 5840POPC   C4A34170  10.565  14.356   7.650
 5840POPC   C1B34171  10.350  14.564   8.550
 5840POPC   C2B34172  10.376  14.598   8.250
 5840POPC   C3B34173  10.352  14.560   7.950
 5840POPC   C4B34174  10.296  14.603   7.650
 5841POPC   NC334175  26.836  16.769   9.450
 5841POPC   PO434176  26.812  16.691   9.150
 5841POPC   GL134177  26.832  16.686   8.850
 5841POPC   GL234178  26.825  16.637   8.850
 5841POPC   C1A34179  26.771  16.770   8.550
 5841POPC   D2A34180  26.853  16.763   8.250
 5841POPC   C3A34181  26.835  16.697   7.950
 5841POPC   C4A34182  26.822  16.748   7.650
 5841POPC   C1B34183  26.806  16.449   8.550
 5841POPC   C2B34184  26.845  16.468   8.250
 5841POPC   C3B34185  26.849  16.483   7.950
 5841POPC   C4B34186  26.809  16.528   7.650
 5842POPC   NC334187  15.918   9.780   9.450
 5842POPC   PO434188  15.913   9.710   9.150
 5842POPC   GL134189  15.911   9.760   8.850
 5842POPC   GL234190  15.828   9.836   8.850
 5842POPC   C1A34191  15.913   9.705   8.550
 5842POPC   D2A34192  15.918   9.735   8.250
 5842POPC   C3A34193  15.941   9.725   7.950
 5842POPC   C4A34194  15.917   9.719   7.650
 5842POPC   C1B34195  15.716   9.929   8.550
 5842POPC   C2B34196  15.716   9.841   8.250
 5842POPC   C3B34197  15.793   9.892   7.950
 5842POPC   C4B34198  15.722   9.897   7.650
 5843POPC   NC334199  41.538  44.625   9.450
 5843POPC   PO434200  41.562  44.682   9.150
 5843POPC   GL134201  41.518  44.655   8.850
 5843POPC   GL234202  41.630  44.752   8.850
 5843POPC   C1A34203  41.604  44.641   8.550
 5843POPC   D2A34204  41.548  44.657   8.250
 5843POPC   C3A34205  41.568  44.621   7.950
 5843POPC   C4A34206  41.588  44.629   7.650
 5843POPC   C1B34207  41.717  44.780   8.550
 5843POPC   C2B34208  41.780  44.803   8.250
 5843POPC   C3B34209  41.788  44.854   7.950
 5843POPC   C4B34210  41.773  44.827   7.650
 5844POPC   NC334211  12.080  36.947   9.450
 5844POPC   PO434212  12.030  36.902   9.150
 5844POPC   GL134213  12.116  36.887   8.850
 5844POPC   GL234214  12.221  36.916   8.850
 5844POPC   C1A34215  12.093  36.952   8.550
 5844POPC   D2A34216  12.116  36.856   8.250
 5844POPC   C3A34217  12.117  36.895   7.950
 5844POPC   C4A34218  12.054  36.946   7.650
 5844POPC   C1B34219  12.345  36.840   8.550
 5844POPC   C2B34220  12.344  36.869   8.250
 5844POPC   C3B34221  12.278  36.855   7.950
 5844POPC   C4B34222  12.338  36.876   7.650
 5845POPC   NC334223  24.532  20.571   9.450
 5845POPC   PO434224  24.468  20.639   9.150
 5845POPC   GL134225  24.539  20.626   8.850
 5845POPC   GL234226  24.399  20.529   8.850
 5845POPC   C1A34227  24.519  20.653   8.550
 5845POPC   D2A34228  24.475  20.628   8.250
 5845POPC   C3A34229  24.479  20.606   7.950
 5845POPC   C4A34230  24.457  20.584   7.650
 5845POPC   C1B34231  24.300  20.505   8.550
 5845POPC   C2B34232  24.248  20.539   8.250
 5845POPC   C3B34233  24.273  20.503   7.950
 5845POPC   C4B34234  24.221  20.535   7.650
 5846POPC   NC334235  15.189  29.104   9.450
 5846POPC   PO434236  15.227  29.105   9.150
 5846POPC   GL134237  15.212  29.109   8.850
 5846POPC   GL234238  15.140  29.229   8.850
 5846POPC   C1A34239  15.227  29.130   8.550
 5846POPC   D2A34240  15.211  29.190   8.250
 5846POPC   C3A34241  15.184  29.154   7.950
 5846POPC   C4A34242  15.194  29.162   7.650
 5846POPC   C1B34243  15.245  29.422   8.550
 5846POPC   C2B34244  15.214  29.380   8.250
 5846POPC   C3B34245  15.174  29.360   7.950
 5846POPC   C4B34246  15.226  29.375   7.650
 5847POPC   NC334247  13.600   4.351   9.450
 5847POPC   PO434248  13.609   4.356   9.150
 5847POPC   GL134249  13.641   4.299   8.850
 5847POPC   GL234250  13.704   4.252   8.850
 5847POPC   C1A34251  13.628   4.281   8.550
 5847POPC   D2A34252  13.594   4.312   8.250
 5847POPC   C3A34253  13.591   4.358   7.950
 5847POPC   C4A34254  13.594   4.334   7.650
 5847POPC   C1B34255  13.789   4.156   8.550
 5847POPC   C2B34256  13.748   4.160   8.250
 5847POPC   C3B34257  13.772   4.148   7.950
 5847POPC   C4B34258  13.818   4.095   7.650
 5848POPC   NC334259  19.791   9.728   9.450
 5848POPC   PO434260  19.872   9.773   9.150
 5848POPC   GL134261  19.846   9.749   8.850
 5848POPC   GL234262  19.927   9.753   8.850
 5848POPC   C1A34263  19.831   9.787   8.550
 5848POPC   D2A34264  19.851   9.740   8.250
 5848POPC   C3A34265  19.863   9.716   7.950
 5848POPC   C4A34266  19.826   9.744   7.650
 5848POPC   C1B34267  20.059   9.711   8.550
 5848POPC   C2B34268  20.129   9.741   8.250
 5848POPC   C3B34269  20.100   9.769   7.950
 5848POPC   C4B34270  20.055   9.750   7.650
 5849POPC   NC334271  26.060  40.754   9.450
 5849POPC   PO434272  26.033  40.761   9.150
 5849POPC   GL134273  26.005  40.797   8.850
 5849POPC   GL234274  26.081  40.891   8.850
 5849POPC   C1A34275  26.050  40.784   8.550
 5849POPC   D2A34276  26.080  40.776   8.250
 5849POPC   C3A34277  26.075  40.738   7.950
 5849POPC   C4A34278  26.003  40.788   7.650
 5849POPC   C1B34279  26.194  40.978   8.550
 5849POPC   C2B34280  26.110  40.969   8.250
 5849POPC   C3B34281  26.172  41.014   7.950
 5849POPC   C4B34282  26.105  41.045   7.650
 5850POPC   NC334283   8.205  21.348   9.450
 5850POPC   PO434284   8.157  21.384   9.150
 5850POPC   GL134285   8.180  21.359   8.850
 5850POPC   GL234286   8.135  21.426   8.850
 5850POPC   C1A34287   8.200  21.377   8.550
 5850POPC   D2A34288   8.172  21.357   8.250
 5850POPC   C3A34289   8.189  21.431   7.950
 5850POPC   C4A34290   8.235  21.371   7.650
 5850POPC   C1B34291   8.020  21.546   8.550
 5850POPC   C2B34292   8.046  21.544   8.250
 5850POPC   C3B34293   8.049  21.554   7.950
 5850POPC   C4B34294   8.021  21.560   7.650
 5851POPC   NC334295  44.660   2.751   9.450
 5851POPC   PO434296  44.638   2.784   9.150
 5851POPC   GL134297  44.649   2.783   8.850
 5851POPC   GL234298  44.726   2.880   8.850
 5851POPC   C1A34299  44.670   2.807   8.550
 5851POPC   D2A34300  44.687   2.739   8.250
 5851POPC   C3A34301  44.698   2.812   7.950
 5851POPC   C4A34302  44.661   2.789   7.650
 5851POPC   C1B34303  44.784   2.968   8.550
 5851POPC   C2B34304  44.801   3.011   8.250
 5851POPC   C3B34305  44.792   2.952   7.950
 5851POPC   C4B34306  44.769   2.920   7.650
 5852POPC   NC334307  25.263  23.713   9.450
 5852POPC   PO434308  25.293  23.699   9.150
 5852POPC   GL134309  25.281  23.704   8.850
 5852POPC   GL234310  25.319  23.863   8.850
 5852POPC   C1A34311  25.302  23.693   8.550
 5852POPC   D2A34312  25.263  23.696   8.250
 5852POPC   C3A34313  25.247  23.703   7.950
 5852POPC   C4A34314  25.218  23.691   7.650
 5852POPC   C1B34315  25.321  24.007   8.550
 5852POPC   C2B34316  25.327  23.915   8.250
 5852POPC   C3B34317  25.293  23.966   7.950
 5852POPC   C4B34318  25.282  23.968   7.650
 5853POPC   NC334319  14.402  12.894   9.450
 5853POPC   PO434320  14.424  12.846   9.150
 5853POPC   GL134321  14.423  12.804   8.850
 5853POPC   GL234322  14.379  12.712   8.850
 5853POPC   C1A34323  14.425  12.850   8.550
 5853POPC   D2A34324  14.390  12.836   8.250
 5853POPC   C3A34325  14.364  12.845   7.950
 5853POPC   C4A34326  14.372  12.818   7.650
 5853POPC   C1B34327  14.310  12.642   8.550
 5853POPC   C2B34328  14.266  12.649   8.250
 5853POPC   C3B34329  14.337  12.592   7.950
 5853POPC   C4B34330  14.255  12.646   7.650
 5854POPC   NC334331  32.207   5.105   9.450
 5854POPC   PO434332  32.224   5.109   9.150
 5854POPC   GL134333  32.248   5.107   8.850
 5854POPC   GL234334  32.228   5.245   8.850
 5854POPC   C1A34335  32.245   5.121   8.550
 5854POPC   D2A34336  32.294   5.056   8.250
 5854POPC   C3A34337  32.266   5.083   7.950
 5854POPC   C4A34338  32.235   5.047   7.650
 5854POPC   C1B34339  32.244   5.385   8.550
 5854POPC   C2B34340  32.211   5.376   8.250
 5854POPC   C3B34341  32.202   5.358   7.950
 5854POPC   C4B34342  32.176   5.368   7.650
 5855POPC   NC334343  32.203  43.935   9.450
 5855POPC   PO434344  32.267  43.865   9.150
 5855POPC   GL134345  32.291  43.887   8.850
 5855POPC   GL234346  32.238  43.733   8.850
 5855POPC   C1A34347  32.226  43.901   8.550
 5855POPC   D2A34348  32.223  43.849   8.250
 5855POPC   C3A34349  32.249  43.926   7.950
 5855POPC   C4A34350  32.233  43.885   7.650
 5855POPC   C1B34351  32.316  43.679   8.550
 5855POPC   C2B34352  32.254  43.681   8.250
 5855POPC   C3B34353  32.337  43.672   7.950
 5855POPC   C4B34354  32.327  43.685   7.650
 5856POPC   NC334355  16.689  30.725   9.450
 5856POPC   PO434356  16.731  30.707   9.150
 5856POPC   GL134357  16.779  30.681   8.850
 5856POPC   GL234358  16.646  30.789   8.850
 5856POPC   C1A34359  16.750  30.725   8.550
 5856POPC   D2A34360  16.741  30.738   8.250
 5856POPC   C3A34361  16.736  30.719   7.950
 5856POPC   C4A34362  16.765  30.720   7.650
 5856POPC   C1B34363  16.641  30.942   8.550
 5856POPC   C2B34364  16.591  30.936   8.250
 5856POPC   C3B34365  16.649  30.915   7.950
 5856POPC   C4B34366  16.612  30.903   7.650
 5857POPC   NC334367  17.548  33.837   9.450
 5857POPC   PO434368  17.522  33.799   9.150
 5857POPC   GL134369  17.524  33.774   8.850
 5857POPC   GL234370  17.434  33.925   8.850
 5857POPC   C1A34371  17.506  33.768   8.550
 5857POPC   D2A34372  17.512  33.782   8.250
 5857POPC   C3A34373  17.503  33.814   7.950
 5857POPC   C4A34374  17.545  33.802   7.650
 5857POPC   C1B34375  17.325  33.973   8.550
 5857POPC   C2B34376  17.368  33.941   8.250
 5857POPC   C3B34377  17.284  33.950   7.950
 5857POPC   C4B34378  17.326  33.919   7.650
 5858POPC   NC334379   6.602  11.338   9.450
 5858POPC   PO434380   6.675  11.270   9.150
 5858POPC   GL134381   6.656  11.273   8.850
 5858POPC   GL234382   6.702  11.456   8.850
 5858POPC   C1A34383   6.633  11.314   8.550
 5858POPC   D2A34384   6.664  11.263   8.250
 5858POPC   C3A34385   6.674  11.283   7.950
 5858POPC   C4A34386   6.597  11.308   7.650
 5858POPC   C1B34387   6.626  11.558   8.550
 5858POPC   C2B34388   6.708  11.512   8.250
 5858POPC   C3B34389   6.656  11.587   7.950
 5858POPC   C4B34390   6.645  11.585   7.650
 5859POPC   NC334391  37.694  43.150   9.450
 5859POPC   PO434392  37.710  43.150   9.150
 5859POPC   GL134393  37.663  43.126   8.850
 5859POPC   GL234394  37.553  43.021   8.850
 5859POPC   C1A34395  37.710  43.156   8.550
 5859POPC   D2A34396  37.729  43.100   8.250
 5859POPC   C3A34397  37.669  43.146   7.950
 5859POPC   C4A34398  37.658  43.122   7.650
 5859POPC   C1B34399  37.532  42.905   8.550
 5859POPC   C2B34400  37.556  42.951   8.250
 5859POPC   C3B34401  37.528  42.957   7.950
 5859POPC   C4B34402  37.560  42.953   7.650
 5860POPC   NC334403  24.476  41.549   9.450
 5860POPC   PO434404  24.484  41.551   9.150
 5860POPC   GL134405  24.463  41.573   8.850
 5860POPC   GL234406  24.416  41.677   8.850
 5860POPC   C1A34407  24.536  41.563   8.550
 5860POPC   D2A34408  24.477  41.519   8.250
 5860POPC   C3A34409  24.527  41.556   7.950
 5860POPC   C4A34410  24.471  41.592   7.650
 5860POPC   C1B34411  24.270  41.672   8.550
 5860POPC   C2B34412  24.247  41.732   8.250
 5860POPC   C3B34413  24.288  41.727   7.950
 5860POPC   C4B34414  24.307  41.759   7.650
 5861POPC   NC334415  22.136  33.800   9.450
 5861POPC   PO434416  22.209  33.824   9.150
 5861POPC   GL134417  22.128  33.763   8.850
 5861POPC   GL234418  22.244  33.754   8.850
 5861POPC   C1A34419  22.176  33.789   8.550
 5861POPC   D2A34420  22.162  33.787   8.250
 5861POPC   C3A34421  22.145  33.787   7.950
 5861POPC   C4A34422  22.117  33.795   7.650
 5861POPC   C1B34423  22.398  33.642   8.550
 5861POPC   C2B34424  22.422  33.647   8.250
 5861POPC   C3B34425  22.423  33.689   7.950
 5861POPC   C4B34426  22.362  33.671   7.650
 5862POPC   NC334427  26.842  41.521   9.450
 5862POPC   PO434428  26.813  41.575   9.150
 5862POPC   GL134429  26.782  41.528   8.850
 5862POPC   GL234430  26.748  41.488   8.850
 5862POPC   C1A34431  26.846  41.528   8.550
 5862POPC   D2A34432  26.799  41.594   8.250
 5862POPC   C3A34433  26.796  41.593   7.950
 5862POPC   C4A34434  26.833  41.605   7.650
 5862POPC   C1B34435  26.622  41.406   8.550
 5862POPC   C2B34436  26.647  41.379   8.250
 5862POPC   C3B34437  26.605  41.365   7.950
 5862POPC   C4B34438  26.610  41.409   7.650
 5863POPC   NC334439  29.921  42.371   9.450
 5863POPC   PO434440  29.881  42.379   9.150
 5863POPC   GL134441  29.959  42.309   8.850
 5863POPC   GL234442  29.818  42.231   8.850
 5863POPC   C1A34443  29.880  42.362   8.550
 5863POPC   D2A34444  29.953  42.305   8.250
 5863POPC   C3A34445  29.900  42.351   7.950
 5863POPC   C4A34446  29.890  42.320   7.650
 5863POPC   C1B34447  29.695  42.189   8.550
 5863POPC   C2B34448  29.722  42.180   8.250
 5863POPC   C3B34449  29.713  42.265   7.950
 5863POPC   C4B34450  29.725  42.169   7.650
 5864POPC   NC334451  25.255  28.338   9.450
 5864POPC   PO434452  25.294  28.415   9.150
 5864POPC   GL134453  25.307  28.353   8.850
 5864POPC   GL234454  25.262  28.198   8.850
 5864POPC   C1A34455  25.314  28.345   8.550
 5864POPC   D2A34456  25.239  28.356   8.250
 5864POPC   C3A34457  25.294  28.408   7.950
 5864POPC   C4A34458  25.284  28.390   7.650
 5864POPC   C1B34459  25.262  28.134   8.550
 5864POPC   C2B34460  25.254  28.161   8.250
 5864POPC   C3B34461  25.212  28.147   7.950
 5864POPC   C4B34462  25.263  28.080   7.650
 5865POPC   NC334463   1.954  10.520   9.450
 5865POPC   PO434464   2.027  10.485   9.150
 5865POPC   GL134465   1.993  10.540   8.850
 5865POPC   GL234466   2.094  10.626   8.850
 5865POPC   C1A34467   1.954  10.502   8.550
 5865POPC   D2A34468   2.023  10.566   8.250
 5865POPC   C3A34469   2.002  10.508   7.950
 5865POPC   C4A34470   2.024  10.518   7.650
 5865POPC   C1B34471   2.226  10.694   8.550
 5865POPC   C2B34472   2.165  10.679   8.250
 5865POPC   C3B34473   2.182  10.650   7.950
 5865POPC   C4B34474   2.227  10.634   7.650
 5866POPC   NC334475  19.830  42.328   9.450
 5866POPC   PO434476  19.846  42.319   9.150
 5866POPC   GL134477  19.847  42.340   8.850
 5866POPC   GL234478  19.699  42.455   8.850
 5866POPC   C1A34479  19.859  42.367   8.550
 5866POPC   D2A34480  19.785  42.299   8.250
 5866POPC   C3A34481  19.855  42.352   7.950
 5866POPC   C4A34482  19.816  42.301   7.650
 5866POPC   C1B34483  19.609  42.533   8.550
 5866POPC   C2B34484  19.642  42.463   8.250
 5866POPC   C3B34485  19.675  42.526   7.950
 5866POPC   C4B34486  19.680  42.443   7.650
 5867POPC   NC334487  15.150  22.980   9.450
 5867POPC   PO434488  15.188  22.903   9.150
 5867POPC   GL134489  15.132  22.973   8.850
 5867POPC   GL234490  15.145  23.021   8.850
 5867POPC   C1A34491  15.175  22.964   8.550
 5867POPC   D2A34492  15.143  22.889   8.250
 5867POPC   C3A34493  15.192  22.903   7.950
 5867POPC   C4A34494  15.154  22.975   7.650
 5867POPC   C1B34495  15.141  23.179   8.550
 5867POPC   C2B34496  15.095  23.192   8.250
 5867POPC   C3B34497  15.081  23.170   7.950
 5867POPC   C4B34498  15.076  23.154   7.650
 5868POPC   NC334499  41.573  43.147   9.450
 5868POPC   PO434500  41.583  43.113   9.150
 5868POPC   GL134501  41.545  43.081   8.850
 5868POPC   GL234502  41.519  43.012   8.850
 5868POPC   C1A34503  41.586  43.141   8.550
 5868POPC   D2A34504  41.510  43.094   8.250
 5868POPC   C3A34505  41.601  43.159   7.950
 5868POPC   C4A34506  41.552  43.085   7.650
 5868POPC   C1B34507  41.430  42.899   8.550
 5868POPC   C2B34508  41.407  42.934   8.250
 5868POPC   C3B34509  41.409  42.898   7.950
 5868POPC   C4B34510  41.461  42.926   7.650
 5869POPC   NC334511  16.736   0.392   9.450
 5869POPC   PO434512  16.747   0.433   9.150
 5869POPC   GL134513  16.704   0.398   8.850
 5869POPC   GL234514  16.865   0.384   8.850
 5869POPC   C1A34515  16.687   0.443   8.550
 5869POPC   D2A34516  16.737   0.448   8.250
 5869POPC   C3A34517  16.709   0.402   7.950
 5869POPC   C4A34518  16.763   0.420   7.650
 5869POPC   C1B34519  16.945   0.333   8.550
 5869POPC   C2B34520  16.927   0.301   8.250
 5869POPC   C3B34521  17.001   0.297   7.950
 5869POPC   C4B34522  16.992   0.334   7.650
 5870POPC   NC334523  18.301  37.726   9.450
 5870POPC   PO434524  18.329  37.683   9.150
 5870POPC   GL134525  18.278  37.662   8.850
 5870POPC   GL234526  18.218  37.608   8.850
 5870POPC   C1A34527  18.247  37.711   8.550
 5870POPC   D2A34528  18.255  37.691   8.250
 5870POPC   C3A34529  18.279  37.632   7.950
 5870POPC   C4A34530  18.324  37.705   7.650
 5870POPC   C1B34531  18.143  37.424   8.550
 5870POPC   C2B34532  18.214  37.443   8.250
 5870POPC   C3B34533  18.169  37.488   7.950
 5870POPC   C4B34534  18.184  37.409   7.650
 5871POPC   NC334535   8.168  44.689   9.450
 5871POPC   PO434536   8.155  44.640   9.150
 5871POPC   GL134537   8.201  44.624   8.850
 5871POPC   GL234538   8.125  44.581   8.850
 5871POPC   C1A34539   8.197  44.668   8.550
 5871POPC   D2A34540   8.223  44.624   8.250
 5871POPC   C3A34541   8.181  44.674   7.950
 5871POPC   C4A34542   8.206  44.700   7.650
 5871POPC   C1B34543   8.008  44.553   8.550
 5871POPC   C2B34544   8.002  44.524   8.250
 5871POPC   C3B34545   7.949  44.564   7.950
 5871POPC   C4B34546   7.972  44.523   7.650
 5872POPC   NC334547   5.869  29.166   9.450
 5872POPC   PO434548   5.917  29.159   9.150
 5872POPC   GL134549   5.896  29.105   8.850
 5872POPC   GL234550   5.765  29.280   8.850
 5872POPC   C1A34551   5.894  29.116   8.550
 5872POPC   D2A34552   5.847  29.106   8.250
 5872POPC   C3A34553   5.832  29.103   7.950
 5872POPC   C4A34554   5.910  29.184   7.650
 5872POPC   C1B34555   5.715  29.277   8.550
 5872POPC   C2B34556   5.672  29.312   8.250
 5872POPC   C3B34557   5.691  29.285   7.950
 5872POPC   C4B34558   5.731  29.321   7.650
 5873POPC   NC334559  41.527  19.023   9.450
 5873POPC   PO434560  41.594  19.010   9.150
 5873POPC   GL134561  41.511  19.021   8.850
 5873POPC   GL234562  41.483  19.034   8.850
 5873POPC   C1A34563  41.528  19.077   8.550
 5873POPC   D2A34564  41.556  19.040   8.250
 5873POPC   C3A34565  41.584  19.097   7.950
 5873POPC   C4A34566  41.588  19.092   7.650
 5873POPC   C1B34567  41.270  19.008   8.550
 5873POPC   C2B34568  41.271  18.959   8.250
 5873POPC   C3B34569  41.339  19.013   7.950
 5873POPC   C4B34570  41.339  18.964   7.650
 5874POPC   NC334571  43.852   5.888   9.450
 5874POPC   PO434572  43.895   5.874   9.150
 5874POPC   GL134573  43.929   5.844   8.850
 5874POPC   GL234574  43.999   5.875   8.850
 5874POPC   C1A34575  43.922   5.866   8.550
 5874POPC   D2A34576  43.839   5.881   8.250
 5874POPC   C3A34577  43.886   5.833   7.950
 5874POPC   C4A34578  43.851   5.908   7.650
 5874POPC   C1B34579  44.133   5.960   8.550
 5874POPC   C2B34580  44.094   5.941   8.250
 5874POPC   C3B34581  44.162   5.931   7.950
 5874POPC   C4B34582  44.098   5.977   7.650
 5875POPC   NC334583   9.766  23.703   9.450
 5875POPC   PO434584   9.751  23.729   9.150
 5875POPC   GL134585   9.749  23.733   8.850
 5875POPC   GL234586   9.637  23.690   8.850
 5875POPC   C1A34587   9.794  23.705   8.550
 5875POPC   D2A34588   9.721  23.722   8.250
 5875POPC   C3A34589   9.735  23.736   7.950
 5875POPC   C4A34590   9.768  23.672   7.650
 5875POPC   C1B34591   9.458  23.711   8.550
 5875POPC   C2B34592   9.485  23.677   8.250
 5875POPC   C3B34593   9.458  23.686   7.950
 5875POPC   C4B34594   9.523  23.686   7.650
 5876POPC   NC334595  43.109  10.506   9.450
 5876POPC   PO434596  43.121  10.526   9.150
 5876POPC   GL134597  43.096  10.495   8.850
 5876POPC   GL234598  43.174  10.600   8.850
 5876POPC   C1A34599  43.074  10.482   8.550
 5876POPC   D2A34600  43.116  10.535   8.250
 5876POPC   C3A34601  43.121  10.541   7.950
 5876POPC   C4A34602  43.159  10.509   7.650
 5876POPC   C1B34603  43.163  10.757   8.550
 5876POPC   C2B34604  43.120  10.783   8.250
 5876POPC   C3B34605  43.141  10.791   7.950
 5876POPC   C4B34606  43.119  10.816   7.650
 5877POPC   NC334607  27.625  15.976   9.450
 5877POPC   PO434608  27.604  15.914   9.150
 5877POPC   GL134609  27.627  15.953   8.850
 5877POPC   GL234610  27.729  15.922   8.850
 5877POPC   C1A34611  27.589  15.990   8.550
 5877POPC   D2A34612  27.625  15.938   8.250
 5877POPC   C3A34613  27.619  15.950   7.950
 5877POPC   C4A34614  27.630  15.967   7.650
 5877POPC   C1B34615  27.866  15.958   8.550
 5877POPC   C2B34616  27.807  15.969   8.250
 5877POPC   C3B34617  27.820  15.971   7.950
 5877POPC   C4B34618  27.823  15.920   7.650
 5878POPC   NC334619  23.711  41.596   9.450
 5878POPC   PO434620  23.720  41.555   9.150
 5878POPC   GL134621  23.732  41.554   8.850
 5878POPC   GL234622  23.806  41.612   8.850
 5878POPC   C1A34623  23.734  41.545   8.550
 5878POPC   D2A34624  23.721  41.556   8.250
 5878POPC   C3A34625  23.674  41.603   7.950
 5878POPC   C4A34626  23.677  41.601   7.650
 5878POPC   C1B34627  23.907  41.734   8.550
 5878POPC   C2B34628  23.874  41.708   8.250
 5878POPC   C3B34629  23.878  41.740   7.950
 5878POPC   C4B34630  23.965  41.682   7.650
 5879POPC   NC334631  11.320  39.957   9.450
 5879POPC   PO434632  11.310  39.991   9.150
 5879POPC   GL134633  11.329  40.050   8.850
 5879POPC   GL234634  11.326  39.899   8.850
 5879POPC   C1A34635  11.297  40.052   8.550
 5879POPC   D2A34636  11.324  40.006   8.250
 5879POPC   C3A34637  11.335  40.017   7.950
 5879POPC   C4A34638  11.313  40.007   7.650
 5879POPC   C1B34639  11.400  39.757   8.550
 5879POPC   C2B34640  11.387  39.744   8.250
 5879POPC   C3B34641  11.424  39.827   7.950
 5879POPC   C4B34642  11.400  39.760   7.650
 5880POPC   NC334643   2.755  24.514   9.450
 5880POPC   PO434644   2.800  24.472   9.150
 5880POPC   GL134645   2.777  24.446   8.850
 5880POPC   GL234646   2.641  24.453   8.850
 5880POPC   C1A34647   2.760  24.510   8.550
 5880POPC   D2A34648   2.783  24.525   8.250
 5880POPC   C3A34649   2.747  24.517   7.950
 5880POPC   C4A34650   2.739  24.495   7.650
 5880POPC   C1B34651   2.583  24.321   8.550
 5880POPC   C2B34652   2.559  24.349   8.250
 5880POPC   C3B34653   2.532  24.345   7.950
 5880POPC   C4B34654   2.535  24.360   7.650
 5881POPC   NC334655  27.549   2.800   9.450
 5881POPC   PO434656  27.624   2.815   9.150
 5881POPC   GL134657  27.625   2.786   8.850
 5881POPC   GL234658  27.682   2.875   8.850
 5881POPC   C1A34659  27.591   2.811   8.550
 5881POPC   D2A34660  27.589   2.717   8.250
 5881POPC   C3A34661  27.611   2.793   7.950
 5881POPC   C4A34662  27.601   2.736   7.650
 5881POPC   C1B34663  27.740   2.901   8.550
 5881POPC   C2B34664  27.815   2.922   8.250
 5881POPC   C3B34665  27.760   2.902   7.950
 5881POPC   C4B34666  27.819   2.982   7.650
 5882POPC   NC334667   9.000  28.325   9.450
 5882POPC   PO434668   8.982  28.334   9.150
 5882POPC   GL134669   8.993  28.399   8.850
 5882POPC   GL234670   8.983  28.214   8.850
 5882POPC   C1A34671   9.003  28.332   8.550
 5882POPC   D2A34672   9.007  28.340   8.250
 5882POPC   C3A34673   8.941  28.325   7.950
 5882POPC   C4A34674   8.996  28.354   7.650
 5882POPC   C1B34675   9.018  28.102   8.550
 5882POPC   C2B34676   9.030  28.140   8.250
 5882POPC   C3B34677   9.008  28.110   7.950
 5882POPC   C4B34678   8.975  28.082   7.650
 5883POPC   NC334679  20.571  15.213   9.450
 5883POPC   PO434680  20.595  15.156   9.150
 5883POPC   GL134681  20.621  15.191   8.850
 5883POPC   GL234682  20.721  15.114   8.850
 5883POPC   C1A34683  20.568  15.163   8.550
 5883POPC   D2A34684  20.586  15.219   8.250
 5883POPC   C3A34685  20.592  15.225   7.950
 5883POPC   C4A34686  20.565  15.145   7.650
 5883POPC   C1B34687  20.778  14.972   8.550
 5883POPC   C2B34688  20.767  15.022   8.250
 5883POPC   C3B34689  20.838  15.058   7.950
 5883POPC   C4B34690  20.834  15.039   7.650
 5884POPC   NC334691  14.389   2.805   9.450
 5884POPC   PO434692  14.414   2.744   9.150
 5884POPC   GL134693  14.401   2.745   8.850
 5884POPC   GL234694  14.440   2.599   8.850
 5884POPC   C1A34695  14.394   2.731   8.550
 5884POPC   D2A34696  14.405   2.750   8.250
 5884POPC   C3A34697  14.435   2.795   7.950
 5884POPC   C4A34698  14.378   2.721   7.650
 5884POPC   C1B34699  14.464   2.566   8.550
 5884POPC   C2B34700  14.428   2.560   8.250
 5884POPC   C3B34701  14.488   2.573   7.950
 5884POPC   C4B34702  14.453   2.556   7.650
 5885POPC   NC334703   6.619  35.396   9.450
 5885POPC   PO434704   6.655  35.311   9.150
 5885POPC   GL134705   6.677  35.366   8.850
 5885POPC   GL234706   6.568  35.417   8.850
 5885POPC   C1A34707   6.650  35.392   8.550
 5885POPC   D2A34708   6.622  35.395   8.250
 5885POPC   C3A34709   6.601  35.302   7.950
 5885POPC   C4A34710   6.693  35.376   7.650
 5885POPC   C1B34711   6.430  35.471   8.550
 5885POPC   C2B34712   6.407  35.524   8.250
 5885POPC   C3B34713   6.406  35.510   7.950
 5885POPC   C4B34714   6.413  35.479   7.650
 5886POPC   NC334715  13.578  15.165   9.450
 5886POPC   PO434716  13.604  15.137   9.150
 5886POPC   GL134717  13.606  15.135   8.850
 5886POPC   GL234718  13.517  15.127   8.850
 5886POPC   C1A34719  13.630  15.131   8.550
 5886POPC   D2A34720  13.595  15.131   8.250
 5886POPC   C3A34721  13.637  15.174   7.950
 5886POPC   C4A34722  13.612  15.200   7.650
 5886POPC   C1B34723  13.393  14.977   8.550
 5886POPC   C2B34724  13.454  14.996   8.250
 5886POPC   C3B34725  13.408  14.998   7.950
 5886POPC   C4B34726  13.393  14.996   7.650
 5887POPC   NC334727   2.811  26.790   9.450
 5887POPC   PO434728   2.721  26.850   9.150
 5887POPC   GL134729   2.784  26.859   8.850
 5887POPC   GL234730   2.813  26.740   8.850
 5887POPC   C1A34731   2.783  26.833   8.550
 5887POPC   D2A34732   2.800  26.865   8.250
 5887POPC   C3A34733   2.743  26.802   7.950
 5887POPC   C4A34734   2.757  26.794   7.650
 5887POPC   C1B34735   2.944  26.614   8.550
 5887POPC   C2B34736   2.877  26.644   8.250
 5887POPC   C3B34737   2.896  26.633   7.950
 5887POPC   C4B34738   2.917  26.651   7.650
 5888POPC   NC334739  38.491  36.079   9.450
 5888POPC   PO434740  38.488  36.163   9.150
 5888POPC   GL134741  38.422  36.114   8.850
 5888POPC   GL234742  38.557  36.064   8.850
 5888POPC   C1A34743  38.431  36.093   8.550
 5888POPC   D2A34744  38.499  36.153   8.250
 5888POPC   C3A34745  38.501  36.155   7.950
 5888POPC   C4A34746  38.456  36.127   7.650
 5888POPC   C1B34747  38.677  35.982   8.550
 5888POPC   C2B34748  38.602  35.982   8.250
 5888POPC   C3B34749  38.643  35.913   7.950
 5888POPC   C4B34750  38.663  35.974   7.650
 5889POPC   NC334751  38.459  32.984   9.450
 5889POPC   PO434752  38.432  33.051   9.150
 5889POPC   GL134753  38.480  33.025   8.850
 5889POPC   GL234754  38.526  32.900   8.850
 5889POPC   C1A34755  38.487  32.997   8.550
 5889POPC   D2A34756  38.422  32.992   8.250
 5889POPC   C3A34757  38.476  33.011   7.950
 5889POPC   C4A34758  38.429  33.036   7.650
 5889POPC   C1B34759  38.501  32.764   8.550
 5889POPC   C2B34760  38.471  32.739   8.250
 5889POPC   C3B34761  38.521  32.747   7.950
 5889POPC   C4B34762  38.553  32.811   7.650
 5890POPC   NC334763  20.613  32.991   9.450
 5890POPC   PO434764  20.599  33.070   9.150
 5890POPC   GL134765  20.651  33.017   8.850
 5890POPC   GL234766  20.701  33.114   8.850
 5890POPC   C1A34767  20.653  33.017   8.550
 5890POPC   D2A34768  20.589  32.978   8.250
 5890POPC   C3A34769  20.608  33.054   7.950
 5890POPC   C4A34770  20.645  33.016   7.650
 5890POPC   C1B34771  20.752  33.188   8.550
 5890POPC   C2B34772  20.812  33.187   8.250
 5890POPC   C3B34773  20.776  33.172   7.950
 5890POPC   C4B34774  20.791  33.164   7.650
 5891POPC   NC334775  13.608  32.240   9.450
 5891POPC   PO434776  13.585  32.296   9.150
 5891POPC   GL134777  13.665  32.208   8.850
 5891POPC   GL234778  13.645  32.355   8.850
 5891POPC   C1A34779  13.585  32.288   8.550
 5891POPC   D2A34780  13.587  32.216   8.250
 5891POPC   C3A34781  13.612  32.292   7.950
 5891POPC   C4A34782  13.617  32.250   7.650
 5891POPC   C1B34783  13.585  32.468   8.550
 5891POPC   C2B34784  13.651  32.522   8.250
 5891POPC   C3B34785  13.555  32.541   7.950
 5891POPC   C4B34786  13.648  32.528   7.650
 5892POPC   NC334787  43.860   0.394   9.450
 5892POPC   PO434788  43.891   0.391   9.150
 5892POPC   GL134789  43.864   0.475   8.850
 5892POPC   GL234790  44.007   0.389   8.850
 5892POPC   C1A34791  43.849   0.439   8.550
 5892POPC   D2A34792  43.881   0.436   8.250
 5892POPC   C3A34793  43.900   0.463   7.950
 5892POPC   C4A34794  43.916   0.389   7.650
 5892POPC   C1B34795  44.052   0.236   8.550
 5892POPC   C2B34796  44.055   0.241   8.250
 5892POPC   C3B34797  44.013   0.293   7.950
 5892POPC   C4B34798  44.006   0.212   7.650
 5893POPC   NC334799  20.639   5.053   9.450
 5893POPC   PO434800  20.579   5.124   9.150
 5893POPC   GL134801  20.621   5.093   8.850
 5893POPC   GL234802  20.633   5.215   8.850
 5893POPC   C1A34803  20.636   5.059   8.550
 5893POPC   D2A34804  20.641   5.071   8.250
 5893POPC   C3A34805  20.620   5.057   7.950
 5893POPC   C4A34806  20.630   5.076   7.650
 5893POPC   C1B34807  20.668   5.317   8.550
 5893POPC   C2B34808  20.637   5.302   8.250
 5893POPC   C3B34809  20.663   5.298   7.950
 5893POPC   C4B34810  20.623   5.379   7.650
 5894POPC   NC334811  15.202  35.387   9.450
 5894POPC   PO434812  15.203  35.351   9.150
 5894POPC   GL134813  15.140  35.384   8.850
 5894POPC   GL234814  15.234  35.442   8.850
 5894POPC   C1A34815  15.144  35.352   8.550
 5894POPC   D2A34816  15.186  35.330   8.250
 5894POPC   C3A34817  15.206  35.309   7.950
 5894POPC   C4A34818  15.225  35.317   7.650
 5894POPC   C1B34819  15.259  35.554   8.550
 5894POPC   C2B34820  15.288  35.630   8.250
 5894POPC   C3B34821  15.274  35.609   7.950
 5894POPC   C4B34822  15.219  35.636   7.650
 5895POPC   NC334823   7.437   2.781   9.450
 5895POPC   PO434824   7.399   2.801   9.150
 5895POPC   GL134825   7.415   2.782   8.850
 5895POPC   GL234826   7.316   2.800   8.850
 5895POPC   C1A34827   7.387   2.743   8.550
 5895POPC   D2A34828   7.407   2.750   8.250
 5895POPC   C3A34829   7.388   2.755   7.950
 5895POPC   C4A34830   7.432   2.813   7.650
 5895POPC   C1B34831   7.176   2.826   8.550
 5895POPC   C2B34832   7.152   2.917   8.250
 5895POPC   C3B34833   7.227   2.905   7.950
 5895POPC   C4B34834   7.237   2.854   7.650
 5896POPC   NC334835  31.457   1.970   9.450
 5896POPC   PO434836  31.487   2.013   9.150
 5896POPC   GL134837  31.429   1.988   8.850
 5896POPC   GL234838  31.527   2.074   8.850
 5896POPC   C1A34839  31.465   1.993   8.550
 5896POPC   D2A34840  31.503   1.977   8.250
 5896POPC   C3A34841  31.507   1.983   7.950
 5896POPC   C4A34842  31.481   2.000   7.650
 5896POPC   C1B34843  31.457   2.199   8.550
 5896POPC   C2B34844  31.529   2.189   8.250
 5896POPC   C3B34845  31.549   2.191   7.950
 5896POPC   C4B34846  31.487   2.275   7.650
 5897POPC   NC334847   2.800   5.878   9.450
 5897POPC   PO434848   2.789   5.868   9.150
 5897POPC   GL134849   2.782   5.880   8.850
 5897POPC   GL234850   2.865   5.917   8.850
 5897POPC   C1A34851   2.720   5.846   8.550
 5897POPC   D2A34852   2.729   5.846   8.250
 5897POPC   C3A34853   2.797   5.893   7.950
 5897POPC   C4A34854   2.750   5.868   7.650
 5897POPC   C1B34855   3.034   5.888   8.550
 5897POPC   C2B34856   3.000   5.933   8.250
 5897POPC   C3B34857   3.046   5.901   7.950
 5897POPC   C4B34858   2.962   5.940   7.650
 5898POPC   NC334859  38.493   1.952   9.450
 5898POPC   PO434860  38.453   1.943   9.150
 5898POPC   GL134861  38.439   1.958   8.850
 5898POPC   GL234862  38.462   1.896   8.850
 5898POPC   C1A34863  38.464   1.993   8.550
 5898POPC   D2A34864  38.409   2.006   8.250
 5898POPC   C3A34865  38.502   1.959   7.950
 5898POPC   C4A34866  38.497   2.026   7.650
 5898POPC   C1B34867  38.359   1.750   8.550
 5898POPC   C2B34868  38.378   1.712   8.250
 5898POPC   C3B34869  38.369   1.713   7.950
 5898POPC   C4B34870  38.406   1.737   7.650
 5899POPC   NC334871  30.723  36.171   9.450
 5899POPC   PO434872  30.665  36.124   9.150
 5899POPC   GL134873  30.722  36.083   8.850
 5899POPC   GL234874  30.797  36.283   8.850
 5899POPC   C1A34875  30.652  36.177   8.550
 5899POPC   D2A34876  30.713  36.133   8.250
 5899POPC   C3A34877  30.711  36.151   7.950
 5899POPC   C4A34878  30.716  36.177   7.650
 5899POPC   C1B34879  30.761  36.391   8.550
 5899POPC   C2B34880  30.823  36.397   8.250
 5899POPC   C3B34881  30.795  36.348   7.950
 5899POPC   C4B34882  30.813  36.401   7.650
 5900POPC   NC334883  37.656  18.235   9.450
 5900POPC   PO434884  37.651  18.321   9.150
 5900POPC   GL134885  37.664  18.277   8.850
 5900POPC   GL234886  37.573  18.158   8.850
 5900POPC   C1A34887  37.686  18.307   8.550
 5900POPC   D2A34888  37.652  18.294   8.250
 5900POPC   C3A34889  37.643  18.262   7.950
 5900POPC   C4A34890  37.725  18.234   7.650
 5900POPC   C1B34891  37.569  18.032   8.550
 5900POPC   C2B34892  37.553  18.059   8.250
 5900POPC   C3B34893  37.523  18.051   7.950
 5900POPC   C4B34894  37.541  18.038   7.650
 5901POPC   NC334895  31.428  37.717   9.450
 5901POPC   PO434896  31.480  37.647   9.150
 5901POPC   GL134897  31.522  37.725   8.850
 5901POPC   GL234898  31.326  37.639   8.850
 5901POPC   C1A34899  31.442  37.680   8.550
 5901POPC   D2A34900  31.499  37.711   8.250
 5901POPC   C3A34901  31.521  37.710   7.950
 5901POPC   C4A34902  31.511  37.696   7.650
 5901POPC   C1B34903  31.242  37.606   8.550
 5901POPC   C2B34904  31.273  37.618   8.250
 5901POPC   C3B34905  31.180  37.673   7.950
 5901POPC   C4B34906  31.275  37.651   7.650
 5902POPC   NC334907  24.447  28.388   9.450
 5902POPC   PO434908  24.523  28.345   9.150
 5902POPC   GL134909  24.517  28.353   8.850
 5902POPC   GL234910  24.557  28.464   8.850
 5902POPC   C1A34911  24.524  28.341   8.550
 5902POPC   D2A34912  24.533  28.407   8.250
 5902POPC   C3A34913  24.535  28.379   7.950
 5902POPC   C4A34914  24.520  28.337   7.650
 5902POPC   C1B34915  24.647  28.564   8.550
 5902POPC   C2B34916  24.622  28.600   8.250
 5902POPC   C3B34917  24.570  28.625   7.950
 5902POPC   C4B34918  24.565  28.621   7.650
 5903POPC   NC334919  39.227  23.720   9.450
 5903POPC   PO434920  39.261  23.668   9.150
 5903POPC   GL134921  39.196  23.728   8.850
 5903POPC   GL234922  39.151  23.553   8.850
 5903POPC   C1A34923  39.252  23.760   8.550
 5903POPC   D2A34924  39.194  23.713   8.250
 5903POPC   C3A34925  39.202  23.672   7.950
 5903POPC   C4A34926  39.185  23.698   7.650
 5903POPC   C1B34927  39.120  23.450   8.550
 5903POPC   C2B34928  39.121  23.480   8.250
 5903POPC   C3B34929  39.135  23.527   7.950
 5903POPC   C4B34930  39.190  23.518   7.650
 5904POPC   NC334931   8.245  26.859   9.450
 5904POPC   PO434932   8.199  26.768   9.150
 5904POPC   GL134933   8.184  26.811   8.850
 5904POPC   GL234934   8.193  26.943   8.850
 5904POPC   C1A34935   8.200  26.820   8.550
 5904POPC   D2A34936   8.198  26.865   8.250
 5904POPC   C3A34937   8.205  26.832   7.950
 5904POPC   C4A34938   8.178  26.855   7.650
 5904POPC   C1B34939   8.119  27.060   8.550
 5904POPC   C2B34940   8.152  27.058   8.250
 5904POPC   C3B34941   8.092  27.079   7.950
 5904POPC   C4B34942   8.065  27.070   7.650
 5905POPC   NC334943  16.753   1.177   9.450
 5905POPC   PO434944  16.740   1.173   9.150
 5905POPC   GL134945  16.714   1.255   8.850
 5905POPC   GL234946  16.839   1.229   8.850
 5905POPC   C1A34947  16.734   1.192   8.550
 5905POPC   D2A34948  16.695   1.169   8.250
 5905POPC   C3A34949  16.750   1.260   7.950
 5905POPC   C4A34950  16.728   1.183   7.650
 5905POPC   C1B34951  16.991   1.188   8.550
 5905POPC   C2B34952  17.029   1.259   8.250
 5905POPC   C3B34953  16.998   1.234   7.950
 5905POPC   C4B34954  16.955   1.238   7.650
 5906POPC   NC334955   3.499  44.622   9.450
 5906POPC   PO434956   3.515  44.618   9.150
 5906POPC   GL134957   3.506  44.617   8.850
 5906POPC   GL234958   3.507  44.759   8.850
 5906POPC   C1A34959   3.515  44.659   8.550
 5906POPC   D2A34960   3.541  44.636   8.250
 5906POPC   C3A34961   3.566  44.637   7.950
 5906POPC   C4A34962   3.523  44.650   7.650
 5906POPC   C1B34963   3.448  44.912   8.550
 5906POPC   C2B34964   3.472  44.849   8.250
 5906POPC   C3B34965   3.427  44.855   7.950
 5906POPC   C4B34966   3.437  44.891   7.650
 5907POPC   NC334967   1.264   2.761   9.450
 5907POPC   PO434968   1.180   2.768   9.150
 5907POPC   GL134969   1.254   2.740   8.850
 5907POPC   GL234970   1.138   2.873   8.850
 5907POPC   C1A34971   1.220   2.755   8.550
 5907POPC   D2A34972   1.187   2.730   8.250
 5907POPC   C3A34973   1.170   2.723   7.950
 5907POPC   C4A34974   1.258   2.734   7.650
 5907POPC   C1B34975   1.124   2.964   8.550
 5907POPC   C2B34976   1.160   3.016   8.250
 5907POPC   C3B34977   1.113   3.019   7.950
 5907POPC   C4B34978   1.165   2.978   7.650
 5908POPC   NC334979  10.493   9.727   9.450
 5908POPC   PO434980  10.487   9.714   9.150
 5908POPC   GL134981  10.544   9.771   8.850
 5908POPC   GL234982  10.607   9.712   8.850
 5908POPC   C1A34983  10.528   9.734   8.550
 5908POPC   D2A34984  10.532   9.709   8.250
 5908POPC   C3A34985  10.520   9.782   7.950
 5908POPC   C4A34986  10.490   9.794   7.650
 5908POPC   C1B34987  10.745   9.605   8.550
 5908POPC   C2B34988  10.750   9.636   8.250
 5908POPC   C3B34989  10.696   9.575   7.950
 5908POPC   C4B34990  10.695   9.635   7.650
 5909POPC   NC334991  25.271  31.427   9.450
 5909POPC   PO434992  25.282  31.476   9.150
 5909POPC   GL134993  25.295  31.445   8.850
 5909POPC   GL234994  25.223  31.424   8.850
 5909POPC   C1A34995  25.263  31.516   8.550
 5909POPC   D2A34996  25.299  31.475   8.250
 5909POPC   C3A34997  25.275  31.479   7.950
 5909POPC   C4A34998  25.264  31.503   7.650
 5909POPC   C1B34999  25.143  31.274   8.550
 5909POPC   C2B35000  25.082  31.278   8.250
 5909POPC   C3B35001  25.101  31.245   7.950
 5909POPC   C4B35002  25.116  31.274   7.650
 5910POPC   NC335003   0.401  34.574   9.450
 5910POPC   PO435004   0.471  34.571   9.150
 5910POPC   GL135005   0.471  34.618   8.850
 5910POPC   GL235006   0.482  34.461   8.850
 5910POPC   C1A35007   0.392  34.606   8.550
 5910POPC   D2A35008   0.424  34.576   8.250
 5910POPC   C3A35009   0.392  34.553   7.950
 5910POPC   C4A35010   0.439  34.527   7.650
 5910POPC   C1B35011   0.509  34.374   8.550
 5910POPC   C2B35012   0.578  34.340   8.250
 5910POPC   C3B35013   0.566  34.393   7.950
 5910POPC   C4B35014   0.550  34.399   7.650
 5911POPC   NC335015  42.360  16.722   9.450
 5911POPC   PO435016  42.345  16.687   9.150
 5911POPC   GL135017  42.342  16.716   8.850
 5911POPC   GL235018  42.213  16.716   8.850
 5911POPC   C1A35019  42.286  16.686   8.550
 5911POPC   D2A35020  42.371  16.752   8.250
 5911POPC   C3A35021  42.314  16.704   7.950
 5911POPC   C4A35022  42.324  16.731   7.650
 5911POPC   C1B35023  42.082  16.706   8.550
 5911POPC   C2B35024  42.081  16.709   8.250
 5911POPC   C3B35025  42.075  16.751   7.950
 5911POPC   C4B35026  42.114  16.689   7.650
 5912POPC   NC335027  25.992  19.825   9.450
 5912POPC   PO435028  26.068  19.851   9.150
 5912POPC   GL135029  26.021  19.848   8.850
 5912POPC   GL235030  26.021  19.929   8.850
 5912POPC   C1A35031  25.994  19.876   8.550
 5912POPC   D2A35032  26.023  19.821   8.250
 5912POPC   C3A35033  26.014  19.848   7.950
 5912POPC   C4A35034  26.079  19.860   7.650
 5912POPC   C1B35035  26.051  20.039   8.550
 5912POPC   C2B35036  26.039  20.085   8.250
 5912POPC   C3B35037  26.070  20.056   7.950
 5912POPC   C4B35038  25.992  20.133   7.650
 5913POPC   NC335039  12.125  23.728   9.450
 5913POPC   PO435040  12.098  23.726   9.150
 5913POPC   GL135041  12.064  23.732   8.850
 5913POPC   GL235042  11.909  23.766   8.850
 5913POPC   C1A35043  12.067  23.735   8.550
 5913POPC   D2A35044  12.038  23.763   8.250
 5913POPC   C3A35045  12.076  23.698   7.950
 5913POPC   C4A35046  12.038  23.716   7.650
 5913POPC   C1B35047  11.872  23.731   8.550
 5913POPC   C2B35048  11.849  23.720   8.250
 5913POPC   C3B35049  11.861  23.730   7.950
 5913POPC   C4B35050  11.860  23.706   7.650
 5914POPC   NC335051  24.526   8.198   9.450
 5914POPC   PO435052  24.518   8.170   9.150
 5914POPC   GL135053  24.453   8.162   8.850
 5914POPC   GL235054  24.595   8.252   8.850
 5914POPC   C1A35055  24.441   8.232   8.550
 5914POPC   D2A35056  24.451   8.170   8.250
 5914POPC   C3A35057  24.514   8.201   7.950
 5914POPC   C4A35058  24.499   8.216   7.650
 5914POPC   C1B35059  24.635   8.447   8.550
 5914POPC   C2B35060  24.605   8.386   8.250
 5914POPC   C3B35061  24.632   8.439   7.950
 5914POPC   C4B35062  24.663   8.418   7.650
 5915POPC   NC335063   0.401  10.532   9.450
 5915POPC   PO435064   0.470  10.564   9.150
 5915POPC   GL135065   0.407  10.532   8.850
 5915POPC   GL235066   0.527  10.619   8.850
 5915POPC   C1A35067   0.476  10.532   8.550
 5915POPC   D2A35068   0.399  10.526   8.250
 5915POPC   C3A35069   0.399  10.536   7.950
 5915POPC   C4A35070   0.410  10.487   7.650
 5915POPC   C1B35071   0.580  10.783   8.550
 5915POPC   C2B35072   0.584  10.755   8.250
 5915POPC   C3B35073   0.556  10.746   7.950
 5915POPC   C4B35074   0.580  10.706   7.650
 5916POPC   NC335075   0.456   3.507   9.450
 5916POPC   PO435076   0.414   3.585   9.150
 5916POPC   GL135077   0.466   3.504   8.850
 5916POPC   GL235078   0.359   3.494   8.850
 5916POPC   C1A35079   0.412   3.524   8.550
 5916POPC   D2A35080   0.414   3.546   8.250
 5916POPC   C3A35081   0.477   3.498   7.950
 5916POPC   C4A35082   0.469   3.558   7.650
 5916POPC   C1B35083   0.232   3.306   8.550
 5916POPC   C2B35084   0.245   3.358   8.250
 5916POPC   C3B35085   0.311   3.326   7.950
 5916POPC   C4B35086   0.238   3.393   7.650
 5917POPC   NC335087   7.409  43.098   9.450
 5917POPC   PO435088   7.449  43.144   9.150
 5917POPC   GL135089   7.430  43.131   8.850
 5917POPC   GL235090   7.477  43.021   8.850
 5917POPC   C1A35091   7.456  43.103   8.550
 5917POPC   D2A35092   7.457  43.147   8.250
 5917POPC   C3A35093   7.464  43.157   7.950
 5917POPC   C4A35094   7.406  43.104   7.650
 5917POPC   C1B35095   7.596  42.937   8.550
 5917POPC   C2B35096   7.580  42.968   8.250
 5917POPC   C3B35097   7.625  42.917   7.950
 5917POPC   C4B35098   7.587  42.884   7.650
 5918POPC   NC335099  19.839  21.355   9.450
 5918POPC   PO435100  19.785  21.387   9.150
 5918POPC   GL135101  19.823  21.433   8.850
 5918POPC   GL235102  19.851  21.469   8.850
 5918POPC   C1A35103  19.868  21.350   8.550
 5918POPC   D2A35104  19.798  21.386   8.250
 5918POPC   C3A35105  19.826  21.435   7.950
 5918POPC   C4A35106  19.840  21.427   7.650
 5918POPC   C1B35107  19.840  21.629   8.550
 5918POPC   C2B35108  19.808  21.596   8.250
 5918POPC   C3B35109  19.829  21.627   7.950
 5918POPC   C4B35110  19.863  21.670   7.650
 5919POPC   NC335111  23.695  22.169   9.450
 5919POPC   PO435112  23.722  22.170   9.150
 5919POPC   GL135113  23.755  22.196   8.850
 5919POPC   GL235114  23.578  22.089   8.850
 5919POPC   C1A35115  23.666  22.129   8.550
 5919POPC   D2A35116  23.750  22.124   8.250
 5919POPC   C3A35117  23.673  22.156   7.950
 5919POPC   C4A35118  23.700  22.184   7.650
 5919POPC   C1B35119  23.488  22.113   8.550
 5919POPC   C2B35120  23.461  22.079   8.250
 5919POPC   C3B35121  23.420  22.076   7.950
 5919POPC   C4B35122  23.454  22.124   7.650
 5920POPC   NC335123  24.459  26.845   9.450
 5920POPC   PO435124  24.507  26.788   9.150
 5920POPC   GL135125  24.523  26.782   8.850
 5920POPC   GL235126  24.352  26.871   8.850
 5920POPC   C1A35127  24.514  26.772   8.550
 5920POPC   D2A35128  24.510  26.839   8.250
 5920POPC   C3A35129  24.493  26.862   7.950
 5920POPC   C4A35130  24.470  26.770   7.650
 5920POPC   C1B35131  24.260  26.984   8.550
 5920POPC   C2B35132  24.299  26.925   8.250
 5920POPC   C3B35133  24.277  26.906   7.950
 5920POPC   C4B35134  24.302  26.946   7.650
 5921POPC   NC335135  31.438  43.844   9.450
 5921POPC   PO435136  31.447  43.876   9.150
 5921POPC   GL135137  31.493  43.886   8.850
 5921POPC   GL235138  31.544  43.794   8.850
 5921POPC   C1A35139  31.520  43.906   8.550
 5921POPC   D2A35140  31.475  43.936   8.250
 5921POPC   C3A35141  31.458  43.856   7.950
 5921POPC   C4A35142  31.491  43.931   7.650
 5921POPC   C1B35143  31.586  43.660   8.550
 5921POPC   C2B35144  31.531  43.688   8.250
 5921POPC   C3B35145  31.494  43.650   7.950
 5921POPC   C4B35146  31.572  43.646   7.650
 5922POPC   NC335147  33.787   5.084   9.450
 5922POPC   PO435148  33.848   5.071   9.150
 5922POPC   GL135149  33.753   5.073   8.850
 5922POPC   GL235150  33.831   4.990   8.850
 5922POPC   C1A35151  33.834   5.128   8.550
 5922POPC   D2A35152  33.769   5.096   8.250
 5922POPC   C3A35153  33.790   5.133   7.950
 5922POPC   C4A35154  33.819   5.050   7.650
 5922POPC   C1B35155  33.930   4.920   8.550
 5922POPC   C2B35156  33.950   4.867   8.250
 5922POPC   C3B35157  33.958   4.839   7.950
 5922POPC   C4B35158  33.930   4.899   7.650
 5923POPC   NC335159  12.059  29.098   9.450
 5923POPC   PO435160  12.126  29.149   9.150
 5923POPC   GL135161  12.040  29.148   8.850
 5923POPC   GL235162  12.159  29.096   8.850
 5923POPC   C1A35163  12.108  29.095   8.550
 5923POPC   D2A35164  12.028  29.115   8.250
 5923POPC   C3A35165  12.076  29.102   7.950
 5923POPC   C4A35166  12.119  29.095   7.650
 5923POPC   C1B35167  12.258  29.006   8.550
 5923POPC   C2B35168  12.262  29.018   8.250
 5923POPC   C3B35169  12.313  29.061   7.950
 5923POPC   C4B35170  12.292  29.089   7.650
 5924POPC   NC335171  20.609  14.452   9.450
 5924POPC   PO435172  20.628  14.399   9.150
 5924POPC   GL135173  20.579  14.363   8.850
 5924POPC   GL235174  20.566  14.273   8.850
 5924POPC   C1A35175  20.627  14.440   8.550
 5924POPC   D2A35176  20.595  14.394   8.250
 5924POPC   C3A35177  20.593  14.411   7.950
 5924POPC   C4A35178  20.633  14.443   7.650
 5924POPC   C1B35179  20.584  14.176   8.550
 5924POPC   C2B35180  20.631  14.107   8.250
 5924POPC   C3B35181  20.547  14.132   7.950
 5924POPC   C4B35182  20.596  14.116   7.650
 5925POPC   NC335183  43.920  10.539   9.450
 5925POPC   PO435184  43.932  10.499   9.150
 5925POPC   GL135185  43.921  10.509   8.850
 5925POPC   GL235186  43.961  10.403   8.850
 5925POPC   C1A35187  43.870  10.561   8.550
 5925POPC   D2A35188  43.915  10.535   8.250
 5925POPC   C3A35189  43.841  10.541   7.950
 5925POPC   C4A35190  43.893  10.541   7.650
 5925POPC   C1B35191  43.962  10.319   8.550
 5925POPC   C2B35192  43.956  10.329   8.250
 5925POPC   C3B35193  44.054  10.320   7.950
 5925POPC   C4B35194  44.000  10.296   7.650
 5926POPC   NC335195  17.463  37.720   9.450
 5926POPC   PO435196  17.497  37.650   9.150
 5926POPC   GL135197  17.471  37.720   8.850
 5926POPC   GL235198  17.571  37.560   8.850
 5926POPC   C1A35199  17.463  37.660   8.550
 5926POPC   D2A35200  17.541  37.659   8.250
 5926POPC   C3A35201  17.501  37.679   7.950
 5926POPC   C4A35202  17.538  37.707   7.650
 5926POPC   C1B35203  17.646  37.432   8.550
 5926POPC   C2B35204  17.622  37.512   8.250
 5926POPC   C3B35205  17.597  37.511   7.950
 5926POPC   C4B35206  17.669  37.469   7.650
 5927POPC   NC335207  14.382  19.013   9.450
 5927POPC   PO435208  14.374  19.064   9.150
 5927POPC   GL135209  14.449  19.017   8.850
 5927POPC   GL235210  14.401  19.197   8.850
 5927POPC   C1A35211  14.416  19.049   8.550
 5927POPC   D2A35212  14.415  19.081   8.250
 5927POPC   C3A35213  14.426  19.029   7.950
 5927POPC   C4A35214  14.423  19.061   7.650
 5927POPC   C1B35215  14.511  19.262   8.550
 5927POPC   C2B35216  14.479  19.345   8.250
 5927POPC   C3B35217  14.437  19.327   7.950
 5927POPC   C4B35218  14.448  19.341   7.650
 5928POPC   NC335219  17.496   4.355   9.450
 5928POPC   PO435220  17.511   4.283   9.150
 5928POPC   GL135221  17.466   4.312   8.850
 5928POPC   GL235222  17.607   4.343   8.850
 5928POPC   C1A35223  17.555   4.309   8.550
 5928POPC   D2A35224  17.549   4.332   8.250
 5928POPC   C3A35225  17.465   4.285   7.950
 5928POPC   C4A35226  17.462   4.327   7.650
 5928POPC   C1B35227  17.736   4.286   8.550
 5928POPC   C2B35228  17.747   4.354   8.250
 5928POPC   C3B35229  17.742   4.358   7.950
 5928POPC   C4B35230  17.797   4.332   7.650
 5929POPC   NC335231  12.876   9.018   9.450
 5929POPC   PO435232  12.880   8.980   9.150
 5929POPC   GL135233  12.852   8.953   8.850
 5929POPC   GL235234  12.766   9.064   8.850
 5929POPC   C1A35235  12.870   8.941   8.550
 5929POPC   D2A35236  12.878   8.951   8.250
 5929POPC   C3A35237  12.876   8.993   7.950
 5929POPC   C4A35238  12.831   8.975   7.650
 5929POPC   C1B35239  12.619   9.014   8.550
 5929POPC   C2B35240  12.567   9.041   8.250
 5929POPC   C3B35241  12.637   9.044   7.950
 5929POPC   C4B35242  12.664   9.105   7.650
 5930POPC   NC335243  40.787  16.755   9.450
 5930POPC   PO435244  40.774  16.746   9.150
 5930POPC   GL135245  40.735  16.728   8.850
 5930POPC   GL235246  40.934  16.708   8.850
 5930POPC   C1A35247  40.822  16.778   8.550
 5930POPC   D2A35248  40.784  16.746   8.250
 5930POPC   C3A35249  40.769  16.774   7.950
 5930POPC   C4A35250  40.765  16.771   7.650
 5930POPC   C1B35251  40.992  16.743   8.550
 5930POPC   C2B35252  41.029  16.767   8.250
 5930POPC   C3B35253  41.048  16.710   7.950
 5930POPC   C4B35254  41.081  16.752   7.650
 5931POPC   NC335255  22.981  19.869   9.450
 5931POPC   PO435256  22.988  19.852   9.150
 5931POPC   GL135257  22.925  19.855   8.850
 5931POPC   GL235258  22.794  19.831   8.850
 5931POPC   C1A35259  22.899  19.857   8.550
 5931POPC   D2A35260  22.916  19.847   8.250
 5931POPC   C3A35261  22.908  19.821   7.950
 5931POPC   C4A35262  22.895  19.847   7.650
 5931POPC   C1B35263  22.722  19.770   8.550
 5931POPC   C2B35264  22.701  19.755   8.250
 5931POPC   C3B35265  22.657  19.751   7.950
 5931POPC   C4B35266  22.727  19.746   7.650
 5932POPC   NC335267  33.816  11.315   9.450
 5932POPC   PO435268  33.822  11.297   9.150
 5932POPC   GL135269  33.778  11.257   8.850
 5932POPC   GL235270  33.710  11.239   8.850
 5932POPC   C1A35271  33.781  11.309   8.550
 5932POPC   D2A35272  33.850  11.293   8.250
 5932POPC   C3A35273  33.817  11.296   7.950
 5932POPC   C4A35274  33.791  11.309   7.650
 5932POPC   C1B35275  33.689  11.081   8.550
 5932POPC   C2B35276  33.607  11.117   8.250
 5932POPC   C3B35277  33.604  11.091   7.950
 5932POPC   C4B35278  33.637  11.100   7.650
 5933POPC   NC335279  22.169  19.846   9.450
 5933POPC   PO435280  22.128  19.799   9.150
 5933POPC   GL135281  22.148  19.828   8.850
 5933POPC   GL235282  22.132  19.678   8.850
 5933POPC   C1A35283  22.120  19.872   8.550
 5933POPC   D2A35284  22.127  19.810   8.250
 5933POPC   C3A35285  22.166  19.853   7.950
 5933POPC   C4A35286  22.207  19.852   7.650
 5933POPC   C1B35287  22.098  19.634   8.550
 5933POPC   C2B35288  22.078  19.622   8.250
 5933POPC   C3B35289  22.056  19.648   7.950
 5933POPC   C4B35290  22.045  19.608   7.650
 5934POPC   NC335291  38.468  33.812   9.450
 5934POPC   PO435292  38.415  33.844   9.150
 5934POPC   GL135293  38.467  33.752   8.850
 5934POPC   GL235294  38.409  33.692   8.850
 5934POPC   C1A35295  38.461  33.796   8.550
 5934POPC   D2A35296  38.477  33.796   8.250
 5934POPC   C3A35297  38.451  33.827   7.950
 5934POPC   C4A35298  38.427  33.810   7.650
 5934POPC   C1B35299  38.412  33.512   8.550
 5934POPC   C2B35300  38.441  33.544   8.250
 5934POPC   C3B35301  38.423  33.573   7.950
 5934POPC   C4B35302  38.434  33.526   7.650
 5935POPC   NC335303   9.729  33.779   9.450
 5935POPC   PO435304   9.772  33.766   9.150
 5935POPC   GL135305   9.770  33.817   8.850
 5935POPC   GL235306   9.822  33.726   8.850
 5935POPC   C1A35307   9.704  33.779   8.550
 5935POPC   D2A35308   9.721  33.818   8.250
 5935POPC   C3A35309   9.736  33.794   7.950
 5935POPC   C4A35310   9.796  33.790   7.650
 5935POPC   C1B35311   9.848  33.546   8.550
 5935POPC   C2B35312   9.869  33.513   8.250
 5935POPC   C3B35313   9.782  33.602   7.950
 5935POPC   C4B35314   9.808  33.515   7.650
 5936POPC   NC335315  22.904   9.017   9.450
 5936POPC   PO435316  22.910   8.992   9.150
 5936POPC   GL135317  22.914   8.995   8.850
 5936POPC   GL235318  22.967   9.077   8.850
 5936POPC   C1A35319  22.926   8.975   8.550
 5936POPC   D2A35320  22.926   8.935   8.250
 5936POPC   C3A35321  22.916   8.986   7.950
 5936POPC   C4A35322  22.955   8.951   7.650
 5936POPC   C1B35323  22.945   9.196   8.550
 5936POPC   C2B35324  22.975   9.255   8.250
 5936POPC   C3B35325  23.007   9.213   7.950
 5936POPC   C4B35326  22.994   9.198   7.650
 5937POPC   NC335327  11.251  29.949   9.450
 5937POPC   PO435328  11.257  29.904   9.150
 5937POPC   GL135329  11.308  29.897   8.850
 5937POPC   GL235330  11.390  30.057   8.850
 5937POPC   C1A35331  11.295  29.935   8.550
 5937POPC   D2A35332  11.339  29.930   8.250
 5937POPC   C3A35333  11.285  29.897   7.950
 5937POPC   C4A35334  11.259  29.908   7.650
 5937POPC   C1B35335  11.412  30.163   8.550
 5937POPC   C2B35336  11.387  30.159   8.250
 5937POPC   C3B35337  11.404  30.136   7.950
 5937POPC   C4B35338  11.398  30.113   7.650
 5938POPC   NC335339  36.874  21.350   9.450
 5938POPC   PO435340  36.935  21.365   9.150
 5938POPC   GL135341  36.864  21.380   8.850
 5938POPC   GL235342  36.868  21.486   8.850
 5938POPC   C1A35343  36.877  21.361   8.550
 5938POPC   D2A35344  36.933  21.427   8.250
 5938POPC   C3A35345  36.948  21.428   7.950
 5938POPC   C4A35346  36.881  21.387   7.650
 5938POPC   C1B35347  36.884  21.620   8.550
 5938POPC   C2B35348  36.929  21.628   8.250
 5938POPC   C3B35349  36.930  21.673   7.950
 5938POPC   C4B35350  36.867  21.608   7.650
 5939POPC   NC335351   5.870  31.455   9.450
 5939POPC   PO435352   5.824  31.454   9.150
 5939POPC   GL135353   5.896  31.481   8.850
 5939POPC   GL235354   5.862  31.360   8.850
 5939POPC   C1A35355   5.824  31.443   8.550
 5939POPC   D2A35356   5.903  31.507   8.250
 5939POPC   C3A35357   5.894  31.520   7.950
 5939POPC   C4A35358   5.858  31.461   7.650
 5939POPC   C1B35359   5.912  31.218   8.550
 5939POPC   C2B35360   5.881  31.186   8.250
 5939POPC   C3B35361   5.886  31.179   7.950
 5939POPC   C4B35362   5.824  31.239   7.650
 5940POPC   NC335363  30.688   7.407   9.450
 5940POPC   PO435364  30.736   7.404   9.150
 5940POPC   GL135365  30.655   7.449   8.850
 5940POPC   GL235366  30.544   7.418   8.850
 5940POPC   C1A35367  30.670   7.462   8.550
 5940POPC   D2A35368  30.670   7.373   8.250
 5940POPC   C3A35369  30.663   7.398   7.950
 5940POPC   C4A35370  30.727   7.443   7.650
 5940POPC   C1B35371  30.428   7.304   8.550
 5940POPC   C2B35372  30.447   7.359   8.250
 5940POPC   C3B35373  30.460   7.338   7.950
 5940POPC   C4B35374  30.501   7.292   7.650
 5941POPC   NC335375  23.682  27.549   9.450
 5941POPC   PO435376  23.676  27.565   9.150
 5941POPC   GL135377  23.750  27.618   8.850
 5941POPC   GL235378  23.613  27.484   8.850
 5941POPC   C1A35379  23.683  27.592   8.550
 5941POPC   D2A35380  23.740  27.589   8.250
 5941POPC   C3A35381  23.711  27.565   7.950
 5941POPC   C4A35382  23.698  27.587   7.650
 5941POPC   C1B35383  23.578  27.413   8.550
 5941POPC   C2B35384  23.579  27.368   8.250
 5941POPC   C3B35385  23.600  27.406   7.950
 5941POPC   C4B35386  23.537  27.400   7.650
 5942POPC   NC335387  10.527  24.521   9.450
 5942POPC   PO435388  10.571  24.455   9.150
 5942POPC   GL135389  10.487  24.480   8.850
 5942POPC   GL235390  10.499  24.347   8.850
 5942POPC   C1A35391  10.547  24.449   8.550
 5942POPC   D2A35392  10.479  24.492   8.250
 5942POPC   C3A35393  10.501  24.506   7.950
 5942POPC   C4A35394  10.569  24.523   7.650
 5942POPC   C1B35395  10.480  24.238   8.550
 5942POPC   C2B35396  10.508  24.268   8.250
 5942POPC   C3B35397  10.479  24.285   7.950
 5942POPC   C4B35398  10.500  24.276   7.650
 5943POPC   NC335399   1.948  43.135   9.450
 5943POPC   PO435400   1.969  43.109   9.150
 5943POPC   GL135401   1.950  43.159   8.850
 5943POPC   GL235402   1.867  43.225   8.850
 5943POPC   C1A35403   2.023  43.145   8.550
 5943POPC   D2A35404   2.010  43.103   8.250
 5943POPC   C3A35405   2.026  43.087   7.950
 5943POPC   C4A35406   2.026  43.099   7.650
 5943POPC   C1B35407   1.832  43.247   8.550
 5943POPC   C2B35408   1.802  43.292   8.250
 5943POPC   C3B35409   1.797  43.276   7.950
 5943POPC   C4B35410   1.778  43.286   7.650
 5944POPC   NC335411  29.133  31.474   9.450
 5944POPC   PO435412  29.172  31.463   9.150
 5944POPC   GL135413  29.164  31.469   8.850
 5944POPC   GL235414  29.056  31.470   8.850
 5944POPC   C1A35415  29.101  31.496   8.550
 5944POPC   D2A35416  29.143  31.485   8.250
 5944POPC   C3A35417  29.173  31.443   7.950
 5944POPC   C4A35418  29.159  31.486   7.650
 5944POPC   C1B35419  28.867  31.459   8.550
 5944POPC   C2B35420  28.898  31.515   8.250
 5944POPC   C3B35421  28.900  31.526   7.950
 5944POPC   C4B35422  28.898  31.504   7.650
 5945POPC   NC335423  41.595  15.210   9.450
 5945POPC   PO435424  41.539  15.149   9.150
 5945POPC   GL135425  41.552  15.203   8.850
 5945POPC   GL235426  41.482  15.119   8.850
 5945POPC   C1A35427  41.563  15.184   8.550
 5945POPC   D2A35428  41.569  15.197   8.250
 5945POPC   C3A35429  41.605  15.223   7.950
 5945POPC   C4A35430  41.576  15.183   7.650
 5945POPC   C1B35431  41.398  14.958   8.550
 5945POPC   C2B35432  41.367  15.028   8.250
 5945POPC   C3B35433  41.373  14.953   7.950
 5945POPC   C4B35434  41.414  14.968   7.650
 5946POPC   NC335435  26.075   1.945   9.450
 5946POPC   PO435436  25.997   2.036   9.150
 5946POPC   GL135437  26.078   1.946   8.850
 5946POPC   GL235438  25.896   2.031   8.850
 5946POPC   C1A35439  26.090   1.959   8.550
 5946POPC   D2A35440  26.052   2.003   8.250
 5946POPC   C3A35441  26.009   2.022   7.950
 5946POPC   C4A35442  26.013   1.955   7.650
 5946POPC   C1B35443  25.770   2.033   8.550
 5946POPC   C2B35444  25.815   2.076   8.250
 5946POPC   C3B35445  25.774   2.034   7.950
 5946POPC   C4B35446  25.827   2.037   7.650
 5947POPC   NC335447  14.441  21.372   9.450
 5947POPC   PO435448  14.423  21.433   9.150
 5947POPC   GL135449  14.364  21.422   8.850
 5947POPC   GL235450  14.474  21.311   8.850
 5947POPC   C1A35451  14.430  21.398   8.550
 5947POPC   D2A35452  14.371  21.392   8.250
 5947POPC   C3A35453  14.396  21.365   7.950
 5947POPC   C4A35454  14.373  21.369   7.650
 5947POPC   C1B35455  14.634  21.254   8.550
 5947POPC   C2B35456  14.639  21.218   8.250
 5947POPC   C3B35457  14.665  21.269   7.950
 5947POPC   C4B35458  14.649  21.224   7.650
 5948POPC   NC335459  30.649  17.510   9.450
 5948POPC   PO435460  30.676  17.548   9.150
 5948POPC   GL135461  30.705  17.507   8.850
 5948POPC   GL235462  30.839  17.555   8.850
 5948POPC   C1A35463  30.725  17.498   8.550
 5948POPC   D2A35464  30.694  17.537   8.250
 5948POPC   C3A35465  30.735  17.508   7.950
 5948POPC   C4A35466  30.657  17.525   7.650
 5948POPC   C1B35467  30.912  17.535   8.550
 5948POPC   C2B35468  30.902  17.462   8.250
 5948POPC   C3B35469  30.966  17.502   7.950
 5948POPC   C4B35470  30.960  17.468   7.650
 5949POPC   NC335471   8.930   5.876   9.450
 5949POPC   PO435472   9.001   5.839   9.150
 5949POPC   GL135473   8.935   5.882   8.850
 5949POPC   GL235474   9.045   5.819   8.850
 5949POPC   C1A35475   8.964   5.911   8.550
 5949POPC   D2A35476   8.975   5.828   8.250
 5949POPC   C3A35477   9.010   5.867   7.950
 5949POPC   C4A35478   8.963   5.865   7.650
 5949POPC   C1B35479   9.219   5.785   8.550
 5949POPC   C2B35480   9.215   5.817   8.250
 5949POPC   C3B35481   9.204   5.775   7.950
 5949POPC   C4B35482   9.185   5.742   7.650
 5950POPC   NC335483  28.329  21.378   9.450
 5950POPC   PO435484  28.346  21.367   9.150
 5950POPC   GL135485  28.378  21.374   8.850
 5950POPC   GL235486  28.213  21.372   8.850
 5950POPC   C1A35487  28.417  21.367   8.550
 5950POPC   D2A35488  28.326  21.391   8.250
 5950POPC   C3A35489  28.354  21.416   7.950
 5950POPC   C4A35490  28.381  21.386   7.650
 5950POPC   C1B35491  28.083  21.322   8.550
 5950POPC   C2B35492  28.170  21.353   8.250
 5950POPC   C3B35493  28.137  21.343   7.950
 5950POPC   C4B35494  28.172  21.291   7.650
 5951POPC   NC335495   5.848  19.018   9.450
 5951POPC   PO435496   5.836  19.032   9.150
 5951POPC   GL135497   5.899  19.022   8.850
 5951POPC   GL235498   5.962  19.120   8.850
 5951POPC   C1A35499   5.906  19.076   8.550
 5951POPC   D2A35500   5.840  19.032   8.250
 5951POPC   C3A35501   5.880  19.025   7.950
 5951POPC   C4A35502   5.846  19.073   7.650
 5951POPC   C1B35503   5.964  19.241   8.550
 5951POPC   C2B35504   6.038  19.236   8.250
 5951POPC   C3B35505   6.025  19.301   7.950
 5951POPC   C4B35506   6.037  19.236   7.650
 5952POPC   NC335507  39.980  19.075   9.450
 5952POPC   PO435508  40.057  19.014   9.150
 5952POPC   GL135509  39.974  19.036   8.850
 5952POPC   GL235510  39.980  18.997   8.850
 5952POPC   C1A35511  40.043  19.028   8.550
 5952POPC   D2A35512  40.028  19.018   8.250
 5952POPC   C3A35513  40.053  19.048   7.950
 5952POPC   C4A35514  39.994  19.100   7.650
 5952POPC   C1B35515  39.822  18.854   8.550
 5952POPC   C2B35516  39.824  18.814   8.250
 5952POPC   C3B35517  39.884  18.860   7.950
 5952POPC   C4B35518  39.887  18.834   7.650
 5953POPC   NC335519  40.830  17.548   9.450
 5953POPC   PO435520  40.754  17.520   9.150
 5953POPC   GL135521  40.771  17.545   8.850
 5953POPC   GL235522  40.716  17.642   8.850
 5953POPC   C1A35523  40.788  17.508   8.550
 5953POPC   D2A35524  40.779  17.496   8.250
 5953POPC   C3A35525  40.821  17.546   7.950
 5953POPC   C4A35526  40.770  17.473   7.650
 5953POPC   C1B35527  40.730  17.786   8.550
 5953POPC   C2B35528  40.698  17.726   8.250
 5953POPC   C3B35529  40.689  17.796   7.950
 5953POPC   C4B35530  40.674  17.707   7.650
 5954POPC   NC335531  30.656  26.061   9.450
 5954POPC   PO435532  30.693  26.042   9.150
 5954POPC   GL135533  30.703  25.992   8.850
 5954POPC   GL235534  30.840  26.022   8.850
 5954POPC   C1A35535  30.703  25.994   8.550
 5954POPC   D2A35536  30.713  26.041   8.250
 5954POPC   C3A35537  30.687  26.085   7.950
 5954POPC   C4A35538  30.712  26.001   7.650
 5954POPC   C1B35539  30.924  26.114   8.550
 5954POPC   C2B35540  30.957  26.081   8.250
 5954POPC   C3B35541  30.984  26.088   7.950
 5954POPC   C4B35542  30.962  26.091   7.650
 5955POPC   NC335543   8.171  18.332   9.450
 5955POPC   PO435544   8.158  18.264   9.150
 5955POPC   GL135545   8.242  18.326   8.850
 5955POPC   GL235546   8.133  18.154   8.850
 5955POPC   C1A35547   8.187  18.274   8.550
 5955POPC   D2A35548   8.223  18.303   8.250
 5955POPC   C3A35549   8.242  18.267   7.950
 5955POPC   C4A35550   8.176  18.258   7.650
 5955POPC   C1B35551   8.118  18.025   8.550
 5955POPC   C2B35552   8.149  18.066   8.250
 5955POPC   C3B35553   8.165  18.073   7.950
 5955POPC   C4B35554   8.136  18.078   7.650
 5956POPC   NC335555  33.770   9.762   9.450
 5956POPC   PO435556  33.764   9.759   9.150
 5956POPC   GL135557  33.755   9.777   8.850
 5956POPC   GL235558  33.694   9.700   8.850
 5956POPC   C1A35559  33.848   9.764   8.550
 5956POPC   D2A35560  33.837   9.746   8.250
 5956POPC   C3A35561  33.805   9.727   7.950
 5956POPC   C4A35562  33.799   9.735   7.650
 5956POPC   C1B35563  33.544   9.770   8.550
 5956POPC   C2B35564  33.547   9.704   8.250
 5956POPC   C3B35565  33.573   9.700   7.950
 5956POPC   C4B35566  33.512   9.760   7.650
 5957POPC   NC335567  33.014  21.370   9.450
 5957POPC   PO435568  32.995  21.399   9.150
 5957POPC   GL135569  32.985  21.372   8.850
 5957POPC   GL235570  32.976  21.244   8.850
 5957POPC   C1A35571  33.021  21.380   8.550
 5957POPC   D2A35572  33.061  21.357   8.250
 5957POPC   C3A35573  33.037  21.365   7.950
 5957POPC   C4A35574  33.004  21.390   7.650
 5957POPC   C1B35575  32.953  21.170   8.550
 5957POPC   C2B35576  32.890  21.176   8.250
 5957POPC   C3B35577  32.954  21.188   7.950
 5957POPC   C4B35578  32.913  21.121   7.650
 5958POPC   NC335579  42.332  37.717   9.450
 5958POPC   PO435580  42.324  37.673   9.150
 5958POPC   GL135581  42.331  37.653   8.850
 5958POPC   GL235582  42.177  37.685   8.850
 5958POPC   C1A35583  42.302  37.664   8.550
 5958POPC   D2A35584  42.361  37.722   8.250
 5958POPC   C3A35585  42.297  37.652   7.950
 5958POPC   C4A35586  42.350  37.631   7.650
 5958POPC   C1B35587  42.073  37.693   8.550
 5958POPC   C2B35588  42.088  37.707   8.250
 5958POPC   C3B35589  42.115  37.687   7.950
 5958POPC   C4B35590  42.044  37.744   7.650
 5959POPC   NC335591  12.070   6.637   9.450
 5959POPC   PO435592  12.030   6.671   9.150
 5959POPC   GL135593  12.087   6.650   8.850
 5959POPC   GL235594  12.211   6.612   8.850
 5959POPC   C1A35595  12.062   6.668   8.550
 5959POPC   D2A35596  12.030   6.691   8.250
 5959POPC   C3A35597  12.116   6.682   7.950
 5959POPC   C4A35598  12.028   6.674   7.650
 5959POPC   C1B35599  12.280   6.587   8.550
 5959POPC   C2B35600  12.327   6.621   8.250
 5959POPC   C3B35601  12.304   6.581   7.950
 5959POPC   C4B35602  12.328   6.608   7.650
 5960POPC   NC335603  36.165  44.620   9.450
 5960POPC   PO435604  36.161  44.667   9.150
 5960POPC   GL135605  36.107  44.689   8.850
 5960POPC   GL235606  36.183  44.770   8.850
 5960POPC   C1A35607  36.144  44.618   8.550
 5960POPC   D2A35608  36.117  44.673   8.250
 5960POPC   C3A35609  36.143  44.634   7.950
 5960POPC   C4A35610  36.160  44.670   7.650
 5960POPC   C1B35611  36.355  44.852   8.550
 5960POPC   C2B35612  36.364  44.825   8.250
 5960POPC   C3B35613  36.354  44.840   7.950
 5960POPC   C4B35614  36.375  44.846   7.650
 5961POPC   NC335615  29.143   4.352   9.450
 5961POPC   PO435616  29.127   4.288   9.150
 5961POPC   GL135617  29.154   4.310   8.850
 5961POPC   GL235618  29.270   4.334   8.850
 5961POPC   C1A35619  29.176   4.327   8.550
 5961POPC   D2A35620  29.143   4.305   8.250
 5961POPC   C3A35621  29.121   4.332   7.950
 5961POPC   C4A35622  29.144   4.274   7.650
 5961POPC   C1B35623  29.360   4.362   8.550
 5961POPC   C2B35624  29.424   4.377   8.250
 5961POPC   C3B35625  29.405   4.352   7.950
 5961POPC   C4B35626  29.435   4.321   7.650
 5962POPC   NC335627  32.232   3.575   9.450
 5962POPC   PO435628  32.217   3.560   9.150
 5962POPC   GL135629  32.296   3.521   8.850
 5962POPC   GL235630  32.210   3.648   8.850
 5962POPC   C1A35631  32.207   3.544   8.550
 5962POPC   D2A35632  32.279   3.536   8.250
 5962POPC   C3A35633  32.283   3.548   7.950
 5962POPC   C4A35634  32.252   3.545   7.650
 5962POPC   C1B35635  32.253   3.826   8.550
 5962POPC   C2B35636  32.241   3.747   8.250
 5962POPC   C3B35637  32.271   3.766   7.950
 5962POPC   C4B35638  32.276   3.777   7.650
 5963POPC   NC335639   3.587  32.297   9.450
 5963POPC   PO435640   3.525  32.206   9.150
 5963POPC   GL135641   3.550  32.243   8.850
 5963POPC   GL235642   3.451  32.329   8.850
 5963POPC   C1A35643   3.576  32.229   8.550
 5963POPC   D2A35644   3.550  32.250   8.250
 5963POPC   C3A35645   3.519  32.213   7.950
 5963POPC   C4A35646   3.588  32.212   7.650
 5963POPC   C1B35647   3.422  32.460   8.550
 5963POPC   C2B35648   3.401  32.425   8.250
 5963POPC   C3B35649   3.428  32.463   7.950
 5963POPC   C4B35650   3.440  32.484   7.650
 5964POPC   NC335651  20.617   3.535   9.450
 5964POPC   PO435652  20.561   3.578   9.150
 5964POPC   GL135653  20.652   3.532   8.850
 5964POPC   GL235654  20.704   3.448   8.850
 5964POPC   C1A35655  20.611   3.507   8.550
 5964POPC   D2A35656  20.583   3.557   8.250
 5964POPC   C3A35657  20.656   3.572   7.950
 5964POPC   C4A35658  20.608   3.503   7.650
 5964POPC   C1B35659  20.752   3.364   8.550
 5964POPC   C2B35660  20.805   3.365   8.250
 5964POPC   C3B35661  20.727   3.363   7.950
 5964POPC   C4B35662  20.736   3.315   7.650
 5965POPC   NC335663  21.366   8.168   9.450
 5965POPC   PO435664  21.373   8.183   9.150
 5965POPC   GL135665  21.342   8.236   8.850
 5965POPC   GL235666  21.380   8.094   8.850
 5965POPC   C1A35667  21.342   8.222   8.550
 5965POPC   D2A35668  21.350   8.241   8.250
 5965POPC   C3A35669  21.376   8.168   7.950
 5965POPC   C4A35670  21.356   8.195   7.650
 5965POPC   C1B35671  21.468   7.935   8.550
 5965POPC   C2B35672  21.408   7.958   8.250
 5965POPC   C3B35673  21.451   7.920   7.950
 5965POPC   C4B35674  21.463   7.922   7.650
 5966POPC   NC335675  15.141  10.572   9.450
 5966POPC   PO435676  15.131  10.503   9.150
 5966POPC   GL135677  15.219  10.517   8.850
 5966POPC   GL235678  15.215  10.657   8.850
 5966POPC   C1A35679  15.195  10.494   8.550
 5966POPC   D2A35680  15.169  10.501   8.250
 5966POPC   C3A35681  15.166  10.546   7.950
 5966POPC   C4A35682  15.222  10.536   7.650
 5966POPC   C1B35683  15.179  10.732   8.550
 5966POPC   C2B35684  15.207  10.801   8.250
 5966POPC   C3B35685  15.268  10.755   7.950
 5966POPC   C4B35686  15.179  10.724   7.650
 5967POPC   NC335687  12.880  40.030   9.450
 5967POPC   PO435688  12.851  39.986   9.150
 5967POPC   GL135689  12.848  40.037   8.850
 5967POPC   GL235690  12.781  39.946   8.850
 5967POPC   C1A35691  12.842  39.963   8.550
 5967POPC   D2A35692  12.901  39.960   8.250
 5967POPC   C3A35693  12.862  40.010   7.950
 5967POPC   C4A35694  12.892  39.965   7.650
 5967POPC   C1B35695  12.618  39.847   8.550
 5967POPC   C2B35696  12.672  39.855   8.250
 5967POPC   C3B35697  12.643  39.823   7.950
 5967POPC   C4B35698  12.622  39.890   7.650
 5968POPC   NC335699  25.236  40.736   9.450
 5968POPC   PO435700  25.243  40.806   9.150
 5968POPC   GL135701  25.254  40.819   8.850
 5968POPC   GL235702  25.151  40.742   8.850
 5968POPC   C1A35703  25.304  40.807   8.550
 5968POPC   D2A35704  25.248  40.822   8.250
 5968POPC   C3A35705  25.237  40.796   7.950
 5968POPC   C4A35706  25.238  40.807   7.650
 5968POPC   C1B35707  25.111  40.553   8.550
 5968POPC   C2B35708  25.077  40.579   8.250
 5968POPC   C3B35709  25.071  40.620   7.950
 5968POPC   C4B35710  25.090  40.587   7.650
 5969POPC   NC335711  43.101  42.384   9.450
 5969POPC   PO435712  43.136  42.322   9.150
 5969POPC   GL135713  43.140  42.326   8.850
 5969POPC   GL235714  42.977  42.420   8.850
 5969POPC   C1A35715  43.115  42.360   8.550
 5969POPC   D2A35716  43.092  42.318   8.250
 5969POPC   C3A35717  43.158  42.343   7.950
 5969POPC   C4A35718  43.131  42.377   7.650
 5969POPC   C1B35719  42.825  42.383   8.550
 5969POPC   C2B35720  42.824  42.376   8.250
 5969POPC   C3B35721  42.847  42.403   7.950
 5969POPC   C4B35722  42.847  42.409   7.650
 5970POPC   NC335723  16.773  11.259   9.450
 5970POPC   PO435724  16.775  11.287   9.150
 5970POPC   GL135725  16.733  11.334   8.850
 5970POPC   GL235726  16.700  11.454   8.850
 5970POPC   C1A35727  16.730  11.279   8.550
 5970POPC   D2A35728  16.704  11.316   8.250
 5970POPC   C3A35729  16.742  11.287   7.950
 5970POPC   C4A35730  16.709  11.324   7.650
 5970POPC   C1B35731  16.701  11.578   8.550
 5970POPC   C2B35732  16.773  11.504   8.250
 5970POPC   C3B35733  16.732  11.553   7.950
 5970POPC   C4B35734  16.695  11.508   7.650
 5971POPC   NC335735  19.057  21.365   9.450
 5971POPC   PO435736  19.070  21.407   9.150
 5971POPC   GL135737  19.064  21.366   8.850
 5971POPC   GL235738  19.104  21.220   8.850
 5971POPC   C1A35739  19.023  21.405   8.550
 5971POPC   D2A35740  19.060  21.361   8.250
 5971POPC   C3A35741  19.078  21.402   7.950
 5971POPC   C4A35742  19.085  21.361   7.650
 5971POPC   C1B35743  19.078  21.188   8.550
 5971POPC   C2B35744  19.056  21.131   8.250
 5971POPC   C3B35745  19.070  21.109   7.950
 5971POPC   C4B35746  19.114  21.183   7.650
 5972POPC   NC335747   9.710  28.358   9.450
 5972POPC   PO435748   9.762  28.407   9.150
 5972POPC   GL135749   9.711  28.346   8.850
 5972POPC   GL235750   9.839  28.391   8.850
 5972POPC   C1A35751   9.726  28.371   8.550
 5972POPC   D2A35752   9.770  28.344   8.250
 5972POPC   C3A35753   9.765  28.361   7.950
 5972POPC   C4A35754   9.794  28.322   7.650
 5972POPC   C1B35755   9.988  28.432   8.550
 5972POPC   C2B35756  10.034  28.392   8.250
 5972POPC   C3B35757  10.001  28.435   7.950
 5972POPC   C4B35758  10.037  28.407   7.650
 5973POPC   NC335759  24.460  42.343   9.450
 5973POPC   PO435760  24.492  42.342   9.150
 5973POPC   GL135761  24.484  42.350   8.850
 5973POPC   GL235762  24.349  42.318   8.850
 5973POPC   C1A35763  24.538  42.287   8.550
 5973POPC   D2A35764  24.539  42.342   8.250
 5973POPC   C3A35765  24.447  42.301   7.950
 5973POPC   C4A35766  24.445  42.318   7.650
 5973POPC   C1B35767  24.238  42.254   8.550
 5973POPC   C2B35768  24.278  42.268   8.250
 5973POPC   C3B35769  24.255  42.195   7.950
 5973POPC   C4B35770  24.306  42.282   7.650
 5974POPC   NC335771  12.855  39.204   9.450
 5974POPC   PO435772  12.847  39.228   9.150
 5974POPC   GL135773  12.853  39.207   8.850
 5974POPC   GL235774  12.714  39.201   8.850
 5974POPC   C1A35775  12.851  39.257   8.550
 5974POPC   D2A35776  12.856  39.242   8.250
 5974POPC   C3A35777  12.834  39.230   7.950
 5974POPC   C4A35778  12.867  39.268   7.650
 5974POPC   C1B35779  12.654  39.144   8.550
 5974POPC   C2B35780  12.612  39.084   8.250
 5974POPC   C3B35781  12.650  39.139   7.950
 5974POPC   C4B35782  12.658  39.118   7.650
 5975POPC   NC335783  15.219  39.275   9.450
 5975POPC   PO435784  15.151  39.272   9.150
 5975POPC   GL135785  15.142  39.270   8.850
 5975POPC   GL235786  15.078  39.222   8.850
 5975POPC   C1A35787  15.199  39.243   8.550
 5975POPC   D2A35788  15.212  39.268   8.250
 5975POPC   C3A35789  15.199  39.218   7.950
 5975POPC   C4A35790  15.216  39.253   7.650
 5975POPC   C1B35791  14.944  39.202   8.550
 5975POPC   C2B35792  14.944  39.145   8.250
 5975POPC   C3B35793  14.921  39.137   7.950
 5975POPC   C4B35794  14.908  39.213   7.650
 5976POPC   NC335795  33.040   3.548   9.450
 5976POPC   PO435796  33.009   3.541   9.150
 5976POPC   GL135797  32.999   3.536   8.850
 5976POPC   GL235798  33.117   3.637   8.850
 5976POPC   C1A35799  33.050   3.507   8.550
 5976POPC   D2A35800  33.073   3.568   8.250
 5976POPC   C3A35801  33.065   3.583   7.950
 5976POPC   C4A35802  32.985   3.520   7.650
 5976POPC   C1B35803  33.203   3.684   8.550
 5976POPC   C2B35804  33.281   3.665   8.250
 5976POPC   C3B35805  33.263   3.655   7.950
 5976POPC   C4B35806  33.265   3.633   7.650
 5977POPC   NC335807  32.204   8.981   9.450
 5977POPC   PO435808  32.230   8.974   9.150
 5977POPC   GL135809  32.283   9.019   8.850
 5977POPC   GL235810  32.292   9.077   8.850
 5977POPC   C1A35811  32.292   8.981   8.550
 5977POPC   D2A35812  32.200   9.013   8.250
 5977POPC   C3A35813  32.277   8.971   7.950
 5977POPC   C4A35814  32.231   8.948   7.650
 5977POPC   C1B35815  32.344   9.256   8.550
 5977POPC   C2B35816  32.300   9.216   8.250
 5977POPC   C3B35817  32.377   9.180   7.950
 5977POPC   C4B35818  32.326   9.160   7.650
 5978POPC   NC335819  44.674  33.760   9.450
 5978POPC   PO435820  44.677  33.756   9.150
 5978POPC   GL135821  44.630  33.807   8.850
 5978POPC   GL235822  44.499  33.830   8.850
 5978POPC   C1A35823  44.647  33.772   8.550
 5978POPC   D2A35824  44.621  33.784   8.250
 5978POPC   C3A35825  44.638  33.780   7.950
 5978POPC   C4A35826  44.679  33.778   7.650
 5978POPC   C1B35827  44.412  33.870   8.550
 5978POPC   C2B35828  44.394  33.851   8.250
 5978POPC   C3B35829  44.374  33.818   7.950
 5978POPC   C4B35830  44.401  33.856   7.650
 5979POPC   NC335831   7.458  36.116   9.450
 5979POPC   PO435832   7.466  36.122   9.150
 5979POPC   GL135833   7.389  36.132   8.850
 5979POPC   GL235834   7.346  36.063   8.850
 5979POPC   C1A35835   7.440  36.105   8.550
 5979POPC   D2A35836   7.448  36.082   8.250
 5979POPC   C3A35837   7.371  36.081   7.950
 5979POPC   C4A35838   7.392  36.093   7.650
 5979POPC   C1B35839   7.206  35.933   8.550
 5979POPC   C2B35840   7.232  35.929   8.250
 5979POPC   C3B35841   7.188  36.009   7.950
 5979POPC   C4B35842   7.269  36.008   7.650
 5980POPC   NC335843   5.835  43.929   9.450
 5980POPC   PO435844   5.882  43.932   9.150
 5980POPC   GL135845   5.911  43.888   8.850
 5980POPC   GL235846   5.844  43.765   8.850
 5980POPC   C1A35847   5.871  43.927   8.550
 5980POPC   D2A35848   5.901  43.870   8.250
 5980POPC   C3A35849   5.886  43.881   7.950
 5980POPC   C4A35850   5.906  43.922   7.650
 5980POPC   C1B35851   5.822  43.636   8.550
 5980POPC   C2B35852   5.897  43.632   8.250
 5980POPC   C3B35853   5.872  43.651   7.950
 5980POPC   C4B35854   5.861  43.639   7.650
 5981POPC   NC335855  24.442   5.840   9.450
 5981POPC   PO435856  24.503   5.855   9.150
 5981POPC   GL135857  24.538   5.883   8.850
 5981POPC   GL235858  24.624   5.856   8.850
 5981POPC   C1A35859  24.483   5.876   8.550
 5981POPC   D2A35860  24.458   5.862   8.250
 5981POPC   C3A35861  24.490   5.901   7.950
 5981POPC   C4A35862  24.459   5.904   7.650
 5981POPC   C1B35863  24.733   5.922   8.550
 5981POPC   C2B35864  24.720   5.930   8.250
 5981POPC   C3B35865  24.734   5.886   7.950
 5981POPC   C4B35866  24.706   5.881   7.650
 5982POPC   NC335867   8.182   9.021   9.450
 5982POPC   PO435868   8.214   9.020   9.150
 5982POPC   GL135869   8.147   8.979   8.850
 5982POPC   GL235870   8.256   9.096   8.850
 5982POPC   C1A35871   8.212   8.937   8.550
 5982POPC   D2A35872   8.174   8.994   8.250
 5982POPC   C3A35873   8.159   8.952   7.950
 5982POPC   C4A35874   8.219   8.936   7.650
 5982POPC   C1B35875   8.318   9.201   8.550
 5982POPC   C2B35876   8.272   9.246   8.250
 5982POPC   C3B35877   8.257   9.208   7.950
 5982POPC   C4B35878   8.303   9.228   7.650
 5983POPC   NC335879  39.965   2.798   9.450
 5983POPC   PO435880  39.962   2.777   9.150
 5983POPC   GL135881  39.964   2.717   8.850
 5983POPC   GL235882  40.029   2.858   8.850
 5983POPC   C1A35883  40.010   2.800   8.550
 5983POPC   D2A35884  40.017   2.785   8.250
 5983POPC   C3A35885  39.969   2.799   7.950
 5983POPC   C4A35886  40.016   2.777   7.650
 5983POPC   C1B35887  40.082   3.022   8.550
 5983POPC   C2B35888  40.153   2.979   8.250
 5983POPC   C3B35889  40.174   2.965   7.950
 5983POPC   C4B35890  40.172   2.953   7.650
 5984POPC   NC335891   9.739  11.315   9.450
 5984POPC   PO435892   9.775  11.344   9.150
 5984POPC   GL135893   9.790  11.333   8.850
 5984POPC   GL235894   9.826  11.249   8.850
 5984POPC   C1A35895   9.703  11.338   8.550
 5984POPC   D2A35896   9.765  11.254   8.250
 5984POPC   C3A35897   9.768  11.263   7.950
 5984POPC   C4A35898   9.780  11.294   7.650
 5984POPC   C1B35899   9.963  11.318   8.550
 5984POPC   C2B35900  10.032  11.225   8.250
 5984POPC   C3B35901   9.947  11.269   7.950
 5984POPC   C4B35902   9.973  11.258   7.650
 5985POPC   NC335903   9.744  39.219   9.450
 5985POPC   PO435904   9.779  39.267   9.150
 5985POPC   GL135905   9.700  39.197   8.850
 5985POPC   GL235906   9.761  39.375   8.850
 5985POPC   C1A35907   9.782  39.257   8.550
 5985POPC   D2A35908   9.708  39.279   8.250
 5985POPC   C3A35909   9.746  39.273   7.950
 5985POPC   C4A35910   9.787  39.244   7.650
 5985POPC   C1B35911   9.734  39.513   8.550
 5985POPC   C2B35912   9.783  39.525   8.250
 5985POPC   C3B35913   9.792  39.450   7.950
 5985POPC   C4B35914   9.813  39.488   7.650
 5986POPC   NC335915  24.450   7.449   9.450
 5986POPC   PO435916  24.455   7.392   9.150
 5986POPC   GL135917  24.538   7.411   8.850
 5986POPC   GL235918  24.400   7.502   8.850
 5986POPC   C1A35919  24.453   7.436   8.550
 5986POPC   D2A35920  24.487   7.423   8.250
 5986POPC   C3A35921  24.492   7.450   7.950
 5986POPC   C4A35922  24.507   7.458   7.650
 5986POPC   C1B35923  24.366   7.656   8.550
 5986POPC   C2B35924  24.318   7.658   8.250
 5986POPC   C3B35925  24.390   7.607   7.950
 5986POPC   C4B35926  24.297   7.672   7.650
 5987POPC   NC335927  16.778  43.900   9.450
 5987POPC   PO435928  16.700  43.892   9.150
 5987POPC   GL135929  16.692  43.844   8.850
 5987POPC   GL235930  16.799  44.024   8.850
 5987POPC   C1A35931  16.768  43.915   8.550
 5987POPC   D2A35932  16.695  43.895   8.250
 5987POPC   C3A35933  16.683  43.895   7.950
 5987POPC   C4A35934  16.724  43.876   7.650
 5987POPC   C1B35935  16.819  44.156   8.550
 5987POPC   C2B35936  16.854  44.095   8.250
 5987POPC   C3B35937  16.843  44.144   7.950
 5987POPC   C4B35938  16.828  44.084   7.650
 5988POPC   NC335939  22.134  33.047   9.450
 5988POPC   PO435940  22.126  33.020   9.150
 5988POPC   GL135941  22.162  32.977   8.850
 5988POPC   GL235942  22.037  32.911   8.850
 5988POPC   C1A35943  22.163  33.008   8.550
 5988POPC   D2A35944  22.210  32.979   8.250
 5988POPC   C3A35945  22.162  33.067   7.950
 5988POPC   C4A35946  22.205  33.060   7.650
 5988POPC   C1B35947  21.979  32.829   8.550
 5988POPC   C2B35948  21.970  32.862   8.250
 5988POPC   C3B35949  21.998  32.806   7.950
 5988POPC   C4B35950  22.007  32.786   7.650
 5989POPC   NC335951  39.960  29.150   9.450
 5989POPC   PO435952  40.009  29.129   9.150
 5989POPC   GL135953  39.986  29.127   8.850
 5989POPC   GL235954  39.977  29.065   8.850
 5989POPC   C1A35955  40.010  29.146   8.550
 5989POPC   D2A35956  39.967  29.159   8.250
 5989POPC   C3A35957  40.031  29.109   7.950
 5989POPC   C4A35958  40.021  29.169   7.650
 5989POPC   C1B35959  40.029  28.890   8.550
 5989POPC   C2B35960  40.061  28.855   8.250
 5989POPC   C3B35961  40.045  28.859   7.950
 5989POPC   C4B35962  40.063  28.882   7.650
 5990POPC   NC335963  11.275  23.719   9.450
 5990POPC   PO435964  11.295  23.700   9.150
 5990POPC   GL135965  11.334  23.746   8.850
 5990POPC   GL235966  11.217  23.621   8.850
 5990POPC   C1A35967  11.336  23.716   8.550
 5990POPC   D2A35968  11.346  23.763   8.250
 5990POPC   C3A35969  11.288  23.709   7.950
 5990POPC   C4A35970  11.253  23.710   7.650
 5990POPC   C1B35971  11.164  23.456   8.550
 5990POPC   C2B35972  11.248  23.478   8.250
 5990POPC   C3B35973  11.198  23.440   7.950
 5990POPC   C4B35974  11.192  23.480   7.650
 5991POPC   NC335975  19.082  39.993   9.450
 5991POPC   PO435976  19.089  39.982   9.150
 5991POPC   GL135977  19.071  40.023   8.850
 5991POPC   GL235978  18.993  40.102   8.850
 5991POPC   C1A35979  19.046  40.056   8.550
 5991POPC   D2A35980  19.015  40.041   8.250
 5991POPC   C3A35981  19.017  40.030   7.950
 5991POPC   C4A35982  19.098  40.056   7.650
 5991POPC   C1B35983  18.936  40.192   8.550
 5991POPC   C2B35984  18.898  40.183   8.250
 5991POPC   C3B35985  18.872  40.182   7.950
 5991POPC   C4B35986  18.895  40.170   7.650
 5992POPC   NC335987   6.610  20.610   9.450
 5992POPC   PO435988   6.660  20.605   9.150
 5992POPC   GL135989   6.645  20.605   8.850
 5992POPC   GL235990   6.580  20.477   8.850
 5992POPC   C1A35991   6.618  20.608   8.550
 5992POPC   D2A35992   6.686  20.600   8.250
 5992POPC   C3A35993   6.680  20.575   7.950
 5992POPC   C4A35994   6.613  20.587   7.650
 5992POPC   C1B35995   6.627  20.371   8.550
 5992POPC   C2B35996   6.640  20.392   8.250
 5992POPC   C3B35997   6.619  20.369   7.950
 5992POPC   C4B35998   6.586  20.393   7.650
 5993POPC   NC335999  12.805   9.705   9.450
 5993POPC   PO436000  12.827   9.738   9.150
 5993POPC   GL136001  12.893   9.745   8.850
 5993POPC   GL236002  12.936   9.666   8.850
 5993POPC   C1A36003  12.805   9.754   8.550
 5993POPC   D2A36004  12.885   9.768   8.250
 5993POPC   C3A36005  12.833   9.755   7.950
 5993POPC   C4A36006  12.811   9.750   7.650
 5993POPC   C1B36007  13.073   9.699   8.550
 5993POPC   C2B36008  13.121   9.629   8.250
 5993POPC   C3B36009  13.088   9.654   7.950
 5993POPC   C4B36010  13.082   9.650   7.650
 5994POPC   NC336011  12.072   2.731   9.450
 5994POPC   PO436012  12.046   2.803   9.150
 5994POPC   GL136013  12.123   2.740   8.850
 5994POPC   GL236014  12.181   2.807   8.850
 5994POPC   C1A36015  12.062   2.782   8.550
 5994POPC   D2A36016  12.062   2.734   8.250
 5994POPC   C3A36017  12.063   2.724   7.950
 5994POPC   C4A36018  12.062   2.791   7.650
 5994POPC   C1B36019  12.251   2.891   8.550
 5994POPC   C2B36020  12.215   2.938   8.250
 5994POPC   C3B36021  12.264   2.939   7.950
 5994POPC   C4B36022  12.291   2.925   7.650
 5995POPC   NC336023  19.061  41.509   9.450
 5995POPC   PO436024  19.025  41.522   9.150
 5995POPC   GL136025  19.042  41.555   8.850
 5995POPC   GL236026  18.987  41.479   8.850
 5995POPC   C1A36027  19.067  41.513   8.550
 5995POPC   D2A36028  19.070  41.608   8.250
 5995POPC   C3A36029  19.108  41.568   7.950
 5995POPC   C4A36030  19.020  41.514   7.650
 5995POPC   C1B36031  18.811  41.424   8.550
 5995POPC   C2B36032  18.844  41.384   8.250
 5995POPC   C3B36033  18.836  41.423   7.950
 5995POPC   C4B36034  18.821  41.446   7.650
 5996POPC   NC336035  28.326  34.564   9.450
 5996POPC   PO436036  28.378  34.594   9.150
 5996POPC   GL136037  28.367  34.528   8.850
 5996POPC   GL236038  28.457  34.642   8.850
 5996POPC   C1A36039  28.380  34.565   8.550
 5996POPC   D2A36040  28.370  34.622   8.250
 5996POPC   C3A36041  28.396  34.532   7.950
 5996POPC   C4A36042  28.396  34.619   7.650
 5996POPC   C1B36043  28.574  34.718   8.550
 5996POPC   C2B36044  28.615  34.643   8.250
 5996POPC   C3B36045  28.623  34.644   7.950
 5996POPC   C4B36046  28.608  34.713   7.650
 5997POPC   NC336047  15.154  27.585   9.450
 5997POPC   PO436048  15.202  27.567   9.150
 5997POPC   GL136049  15.134  27.641   8.850
 5997POPC   GL236050  15.291  27.536   8.850
 5997POPC   C1A36051  15.185  27.586   8.550
 5997POPC   D2A36052  15.187  27.626   8.250
 5997POPC   C3A36053  15.223  27.587   7.950
 5997POPC   C4A36054  15.152  27.577   7.650
 5997POPC   C1B36055  15.437  27.501   8.550
 5997POPC   C2B36056  15.383  27.478   8.250
 5997POPC   C3B36057  15.418  27.493   7.950
 5997POPC   C4B36058  15.386  27.507   7.650
 5998POPC   NC336059  35.362  12.808   9.450
 5998POPC   PO436060  35.357  12.818   9.150
 5998POPC   GL136061  35.325  12.812   8.850
 5998POPC   GL236062  35.217  12.737   8.850
 5998POPC   C1A36063  35.307  12.802   8.550
 5998POPC   D2A36064  35.396  12.803   8.250
 5998POPC   C3A36065  35.311  12.815   7.950
 5998POPC   C4A36066  35.354  12.851   7.650
 5998POPC   C1B36067  35.196  12.694   8.550
 5998POPC   C2B36068  35.157  12.727   8.250
 5998POPC   C3B36069  35.153  12.689   7.950
 5998POPC   C4B36070  35.191  12.720   7.650
 5999POPC   NC336071  29.125   2.030   9.450
 5999POPC   PO436072  29.155   1.982   9.150
 5999POPC   GL136073  29.122   2.004   8.850
 5999POPC   GL236074  29.150   1.852   8.850
 5999POPC   C1A36075  29.124   1.997   8.550
 5999POPC   D2A36076  29.193   2.005   8.250
 5999POPC   C3A36077  29.189   2.039   7.950
 5999POPC   C4A36078  29.121   2.035   7.650
 5999POPC   C1B36079  29.190   1.776   8.550
 5999POPC   C2B36080  29.222   1.716   8.250
 5999POPC   C3B36081  29.237   1.764   7.950
 5999POPC   C4B36082  29.174   1.757   7.650
 6000POPC   NC336083  14.449  12.053   9.450
 6000POPC   PO436084  14.364  12.032   9.150
 6000POPC   GL136085  14.378  12.036   8.850
 6000POPC   GL236086  14.523  11.950   8.850
 6000POPC   C1A36087  14.406  12.034   8.550
 6000POPC   D2A36088  14.384  12.051   8.250
 6000POPC   C3A36089  14.363  12.087   7.950
 6000POPC   C4A36090  14.362  12.110   7.650
 6000POPC   C1B36091  14.568  11.844   8.550
 6000POPC   C2B36092  14.593  11.908   8.250
 6000POPC   C3B36093  14.535  11.856   7.950
 6000POPC   C4B36094  14.518  11.836   7.650
 6001POPC   NC336095  33.833  32.205   9.450
 6001POPC   PO436096  33.812  32.246   9.150
 6001POPC   GL136097  33.845  32.295   8.850
 6001POPC   GL236098  33.963  32.312   8.850
 6001POPC   C1A36099  33.840  32.236   8.550
 6001POPC   D2A36100  33.834  32.250   8.250
 6001POPC   C3A36101  33.789  32.223   7.950
 6001POPC   C4A36102  33.790  32.247   7.650
 6001POPC   C1B36103  34.015  32.358   8.550
 6001POPC   C2B36104  34.052  32.358   8.250
 6001POPC   C3B36105  34.076  32.338   7.950
 6001POPC   C4B36106  34.021  32.302   7.650
 6002POPC   NC336107  12.823  32.264   9.450
 6002POPC   PO436108  12.853  32.211   9.150
 6002POPC   GL136109  12.843  32.289   8.850
 6002POPC   GL236110  12.778  32.162   8.850
 6002POPC   C1A36111  12.894  32.219   8.550
 6002POPC   D2A36112  12.863  32.224   8.250
 6002POPC   C3A36113  12.826  32.282   7.950
 6002POPC   C4A36114  12.857  32.266   7.650
 6002POPC   C1B36115  12.711  32.068   8.550
 6002POPC   C2B36116  12.704  32.005   8.250
 6002POPC   C3B36117  12.732  32.000   7.950
 6002POPC   C4B36118  12.719  32.005   7.650
 6003POPC   NC336119  10.509  31.425   9.450
 6003POPC   PO436120  10.476  31.477   9.150
 6003POPC   GL136121  10.543  31.476   8.850
 6003POPC   GL236122  10.462  31.556   8.850
 6003POPC   C1A36123  10.574  31.498   8.550
 6003POPC   D2A36124  10.518  31.475   8.250
 6003POPC   C3A36125  10.508  31.460   7.950
 6003POPC   C4A36126  10.504  31.495   7.650
 6003POPC   C1B36127  10.511  31.675   8.550
 6003POPC   C2B36128  10.536  31.676   8.250
 6003POPC   C3B36129  10.527  31.737   7.950
 6003POPC   C4B36130  10.540  31.718   7.650
 6004POPC   NC336131  33.757   1.952   9.450
 6004POPC   PO436132  33.758   2.023   9.150
 6004POPC   GL136133  33.808   2.017   8.850
 6004POPC   GL236134  33.857   1.886   8.850
 6004POPC   C1A36135  33.750   1.984   8.550
 6004POPC   D2A36136  33.837   2.010   8.250
 6004POPC   C3A36137  33.754   1.990   7.950
 6004POPC   C4A36138  33.818   2.033   7.650
 6004POPC   C1B36139  33.913   1.747   8.550
 6004POPC   C2B36140  33.993   1.832   8.250
 6004POPC   C3B36141  33.982   1.751   7.950
 6004POPC   C4B36142  33.974   1.781   7.650
 6005POPC   NC336143  33.834   8.925   9.450
 6005POPC   PO436144  33.813   8.999   9.150
 6005POPC   GL136145  33.799   9.017   8.850
 6005POPC   GL236146  33.872   8.835   8.850
 6005POPC   C1A36147  33.841   8.958   8.550
 6005POPC   D2A36148  33.751   8.983   8.250
 6005POPC   C3A36149  33.843   8.949   7.950
 6005POPC   C4A36150  33.786   8.938   7.650
 6005POPC   C1B36151  33.916   8.771   8.550
 6005POPC   C2B36152  33.841   8.749   8.250
 6005POPC   C3B36153  33.832   8.735   7.950
 6005POPC   C4B36154  33.857   8.710   7.650
 6006POPC   NC336155  41.589  37.715   9.450
 6006POPC   PO436156  41.544  37.686   9.150
 6006POPC   GL136157  41.595  37.655   8.850
 6006POPC   GL236158  41.482  37.708   8.850
 6006POPC   C1A36159  41.560  37.683   8.550
 6006POPC   D2A36160  41.551  37.660   8.250
 6006POPC   C3A36161  41.561  37.693   7.950
 6006POPC   C4A36162  41.539  37.672   7.650
 6006POPC   C1B36163  41.344  37.765   8.550
 6006POPC   C2B36164  41.308  37.791   8.250
 6006POPC   C3B36165  41.338  37.716   7.950
 6006POPC   C4B36166  41.329  37.786   7.650
 6007POPC   NC336167   0.461   4.344   9.450
 6007POPC   PO436168   0.464   4.365   9.150
 6007POPC   GL136169   0.476   4.303   8.850
 6007POPC   GL236170   0.433   4.152   8.850
 6007POPC   C1A36171   0.449   4.350   8.550
 6007POPC   D2A36172   0.434   4.324   8.250
 6007POPC   C3A36173   0.431   4.270   7.950
 6007POPC   C4A36174   0.427   4.338   7.650
 6007POPC   C1B36175   0.366   4.056   8.550
 6007POPC   C2B36176   0.407   4.071   8.250
 6007POPC   C3B36177   0.363   4.119   7.950
 6007POPC   C4B36178   0.375   4.037   7.650
 6008POPC   NC336179  43.140  28.343   9.450
 6008POPC   PO436180  43.107  28.417   9.150
 6008POPC   GL136181  43.134  28.334   8.850
 6008POPC   GL236182  43.081  28.539   8.850
 6008POPC   C1A36183  43.082  28.371   8.550
 6008POPC   D2A36184  43.157  28.351   8.250
 6008POPC   C3A36185  43.064  28.373   7.950
 6008POPC   C4A36186  43.141  28.392   7.650
 6008POPC   C1B36187  43.178  28.622   8.550
 6008POPC   C2B36188  43.087  28.647   8.250
 6008POPC   C3B36189  43.083  28.584   7.950
 6008POPC   C4B36190  43.092  28.662   7.650
 6009POPC   NC336191  19.849  43.141   9.450
 6009POPC   PO436192  19.844  43.070   9.150
 6009POPC   GL136193  19.791  43.127   8.850
 6009POPC   GL236194  19.939  43.151   8.850
 6009POPC   C1A36195  19.840  43.110   8.550
 6009POPC   D2A36196  19.812  43.066   8.250
 6009POPC   C3A36197  19.839  43.130   7.950
 6009POPC   C4A36198  19.881  43.106   7.650
 6009POPC   C1B36199  20.020  43.181   8.550
 6009POPC   C2B36200  20.007  43.245   8.250
 6009POPC   C3B36201  20.028  43.270   7.950
 6009POPC   C4B36202  20.081  43.223   7.650
 6010POPC   NC336203  12.066  28.358   9.450
 6010POPC   PO436204  12.107  28.353   9.150
 6010POPC   GL136205  12.076  28.407   8.850
 6010POPC   GL236206  11.939  28.381   8.850
 6010POPC   C1A36207  12.103  28.341   8.550
 6010POPC   D2A36208  12.101  28.390   8.250
 6010POPC   C3A36209  12.040  28.382   7.950
 6010POPC   C4A36210  12.035  28.381   7.650
 6010POPC   C1B36211  11.858  28.458   8.550
 6010POPC   C2B36212  11.853  28.405   8.250
 6010POPC   C3B36213  11.881  28.475   7.950
 6010POPC   C4B36214  11.863  28.429   7.650
 6011POPC   NC336215   5.057   5.891   9.450
 6011POPC   PO436216   5.118   5.885   9.150
 6011POPC   GL136217   5.084   5.870   8.850
 6011POPC   GL236218   4.981   5.736   8.850
 6011POPC   C1A36219   5.048   5.914   8.550
 6011POPC   D2A36220   5.057   5.822   8.250
 6011POPC   C3A36221   5.138   5.885   7.950
 6011POPC   C4A36222   5.065   5.865   7.650
 6011POPC   C1B36223   4.909   5.686   8.550
 6011POPC   C2B36224   4.934   5.666   8.250
 6011POPC   C3B36225   4.875   5.643   7.950
 6011POPC   C4B36226   4.882   5.670   7.650
 6012POPC   NC336227  16.714  25.222   9.450
 6012POPC   PO436228  16.751  25.260   9.150
 6012POPC   GL136229  16.730  25.308   8.850
 6012POPC   GL236230  16.860  25.296   8.850
 6012POPC   C1A36231  16.739  25.261   8.550
 6012POPC   D2A36232  16.682  25.267   8.250
 6012POPC   C3A36233  16.765  25.255   7.950
 6012POPC   C4A36234  16.752  25.292   7.650
 6012POPC   C1B36235  16.994  25.331   8.550
 6012POPC   C2B36236  16.967  25.350   8.250
 6012POPC   C3B36237  16.961  25.275   7.950
 6012POPC   C4B36238  16.983  25.260   7.650
 6013POPC   NC336239  42.337  26.841   9.450
 6013POPC   PO436240  42.306  26.786   9.150
 6013POPC   GL136241  42.290  26.770   8.850
 6013POPC   GL236242  42.267  26.907   8.850
 6013POPC   C1A36243  42.348  26.833   8.550
 6013POPC   D2A36244  42.362  26.775   8.250
 6013POPC   C3A36245  42.285  26.819   7.950
 6013POPC   C4A36246  42.304  26.821   7.650
 6013POPC   C1B36247  42.145  26.943   8.550
 6013POPC   C2B36248  42.134  26.982   8.250
 6013POPC   C3B36249  42.128  26.950   7.950
 6013POPC   C4B36250  42.170  27.003   7.650
 6014POPC   NC336251  12.116   8.163   9.450
 6014POPC   PO436252  12.046   8.194   9.150
 6014POPC   GL136253  12.066   8.157   8.850
 6014POPC   GL236254  12.154   8.345   8.850
 6014POPC   C1A36255  12.089   8.232   8.550
 6014POPC   D2A36256  12.036   8.210   8.250
 6014POPC   C3A36257  12.060   8.160   7.950
 6014POPC   C4A36258  12.114   8.205   7.650
 6014POPC   C1B36259  12.179   8.435   8.550
 6014POPC   C2B36260  12.242   8.439   8.250
 6014POPC   C3B36261  12.188   8.357   7.950
 6014POPC   C4B36262  12.208   8.360   7.650
 6015POPC   NC336263  31.463   9.761   9.450
 6015POPC   PO436264  31.502   9.791   9.150
 6015POPC   GL136265  31.464   9.709   8.850
 6015POPC   GL236266  31.607   9.794   8.850
 6015POPC   C1A36267  31.478   9.798   8.550
 6015POPC   D2A36268  31.508   9.782   8.250
 6015POPC   C3A36269  31.499   9.729   7.950
 6015POPC   C4A36270  31.487   9.783   7.650
 6015POPC   C1B36271  31.685   9.868   8.550
 6015POPC   C2B36272  31.693   9.817   8.250
 6015POPC   C3B36273  31.750   9.885   7.950
 6015POPC   C4B36274  31.678   9.803   7.650
 6016POPC   NC336275  14.423  31.505   9.450
 6016POPC   PO436276  14.446  31.484   9.150
 6016POPC   GL136277  14.418  31.439   8.850
 6016POPC   GL236278  14.331  31.570   8.850
 6016POPC   C1A36279  14.423  31.476   8.550
 6016POPC   D2A36280  14.409  31.458   8.250
 6016POPC   C3A36281  14.390  31.513   7.950
 6016POPC   C4A36282  14.428  31.462   7.650
 6016POPC   C1B36283  14.381  31.739   8.550
 6016POPC   C2B36284  14.341  31.745   8.250
 6016POPC   C3B36285  14.372  31.739   7.950
 6016POPC   C4B36286  14.350  31.760   7.650
 6017POPC   NC336287  41.589  11.263   9.450
 6017POPC   PO436288  41.544  11.300   9.150
 6017POPC   GL136289  41.534  11.316   8.850
 6017POPC   GL236290  41.662  11.322   8.850
 6017POPC   C1A36291  41.589  11.345   8.550
 6017POPC   D2A36292  41.538  11.323   8.250
 6017POPC   C3A36293  41.573  11.347   7.950
 6017POPC   C4A36294  41.545  11.314   7.650
 6017POPC   C1B36295  41.831  11.313   8.550
 6017POPC   C2B36296  41.787  11.265   8.250
 6017POPC   C3B36297  41.819  11.278   7.950
 6017POPC   C4B36298  41.822  11.280   7.650
 6018POPC   NC336299  39.271  40.749   9.450
 6018POPC   PO436300  39.215  40.829   9.150
 6018POPC   GL136301  39.241  40.760   8.850
 6018POPC   GL236302  39.175  40.886   8.850
 6018POPC   C1A36303  39.209  40.765   8.550
 6018POPC   D2A36304  39.269  40.738   8.250
 6018POPC   C3A36305  39.271  40.814   7.950
 6018POPC   C4A36306  39.191  40.756   7.650
 6018POPC   C1B36307  39.101  41.003   8.550
 6018POPC   C2B36308  39.052  40.962   8.250
 6018POPC   C3B36309  39.083  40.964   7.950
 6018POPC   C4B36310  39.144  41.030   7.650
 6019POPC   NC336311  26.061  26.837   9.450
 6019POPC   PO436312  26.021  26.805   9.150
 6019POPC   GL136313  26.063  26.864   8.850
 6019POPC   GL236314  26.115  26.850   8.850
 6019POPC   C1A36315  26.038  26.866   8.550
 6019POPC   D2A36316  26.007  26.816   8.250
 6019POPC   C3A36317  26.081  26.851   7.950
 6019POPC   C4A36318  26.063  26.796   7.650
 6019POPC   C1B36319  26.239  26.911   8.550
 6019POPC   C2B36320  26.271  26.933   8.250
 6019POPC   C3B36321  26.203  26.909   7.950
 6019POPC   C4B36322  26.266  26.992   7.650
 6020POPC   NC336323  43.062  18.235   9.450
 6020POPC   PO436324  43.136  18.281   9.150
 6020POPC   GL136325  43.103  18.253   8.850
 6020POPC   GL236326  43.079  18.193   8.850
 6020POPC   C1A36327  43.097  18.295   8.550
 6020POPC   D2A36328  43.135  18.256   8.250
 6020POPC   C3A36329  43.070  18.276   7.950
 6020POPC   C4A36330  43.148  18.284   7.650
 6020POPC   C1B36331  43.073  18.011   8.550
 6020POPC   C2B36332  43.018  18.076   8.250
 6020POPC   C3B36333  42.996  18.001   7.950
 6020POPC   C4B36334  43.036  18.016   7.650
 6021POPC   NC336335   6.654  23.702   9.450
 6021POPC   PO436336   6.684  23.758   9.150
 6021POPC   GL136337   6.610  23.675   8.850
 6021POPC   GL236338   6.599  23.785   8.850
 6021POPC   C1A36339   6.617  23.683   8.550
 6021POPC   D2A36340   6.671  23.736   8.250
 6021POPC   C3A36341   6.687  23.738   7.950
 6021POPC   C4A36342   6.682  23.706   7.650
 6021POPC   C1B36343   6.513  23.945   8.550
 6021POPC   C2B36344   6.568  23.942   8.250
 6021POPC   C3B36345   6.541  23.933   7.950
 6021POPC   C4B36346   6.523  23.941   7.650
 6022POPC   NC336347  24.508   2.745   9.450
 6022POPC   PO436348  24.538   2.788   9.150
 6022POPC   GL136349  24.487   2.788   8.850
 6022POPC   GL236350  24.593   2.826   8.850
 6022POPC   C1A36351  24.450   2.735   8.550
 6022POPC   D2A36352  24.442   2.724   8.250
 6022POPC   C3A36353  24.498   2.810   7.950
 6022POPC   C4A36354  24.465   2.760   7.650
 6022POPC   C1B36355  24.685   2.850   8.550
 6022POPC   C2B36356  24.697   2.817   8.250
 6022POPC   C3B36357  24.760   2.867   7.950
 6022POPC   C4B36358  24.692   2.845   7.650
 6023POPC   NC336359   7.429   8.180   9.450
 6023POPC   PO436360   7.390   8.235   9.150
 6023POPC   GL136361   7.400   8.211   8.850
 6023POPC   GL236362   7.408   8.334   8.850
 6023POPC   C1A36363   7.451   8.204   8.550
 6023POPC   D2A36364   7.465   8.210   8.250
 6023POPC   C3A36365   7.385   8.197   7.950
 6023POPC   C4A36366   7.428   8.178   7.650
 6023POPC   C1B36367   7.383   8.405   8.550
 6023POPC   C2B36368   7.377   8.422   8.250
 6023POPC   C3B36369   7.414   8.474   7.950
 6023POPC   C4B36370   7.363   8.418   7.650
 6024POPC   NC336371  17.472  17.486   9.450
 6024POPC   PO436372  17.496  17.554   9.150
 6024POPC   GL136373  17.477  17.555   8.850
 6024POPC   GL236374  17.594  17.568   8.850
 6024POPC   C1A36375  17.479  17.553   8.550
 6024POPC   D2A36376  17.530  17.493   8.250
 6024POPC   C3A36377  17.529  17.521   7.950
 6024POPC   C4A36378  17.520  17.544   7.650
 6024POPC   C1B36379  17.709  17.690   8.550
 6024POPC   C2B36380  17.646  17.708   8.250
 6024POPC   C3B36381  17.684  17.694   7.950
 6024POPC   C4B36382  17.650  17.711   7.650
 6025POPC   NC336383  17.550  40.830   9.450
 6025POPC   PO436384  17.521  40.775   9.150
 6025POPC   GL136385  17.526  40.799   8.850
 6025POPC   GL236386  17.475  40.883   8.850
 6025POPC   C1A36387  17.541  40.820   8.550
 6025POPC   D2A36388  17.500  40.745   8.250
 6025POPC   C3A36389  17.539  40.811   7.950
 6025POPC   C4A36390  17.490  40.806   7.650
 6025POPC   C1B36391  17.580  41.061   8.550
 6025POPC   C2B36392  17.543  41.037   8.250
 6025POPC   C3B36393  17.497  41.006   7.950
 6025POPC   C4B36394  17.565  41.045   7.650
 6026POPC   NC336395  15.978  35.334   9.450
 6026POPC   PO436396  15.926  35.374   9.150
 6026POPC   GL136397  15.993  35.344   8.850
 6026POPC   GL236398  15.832  35.279   8.850
 6026POPC   C1A36399  15.999  35.378   8.550
 6026POPC   D2A36400  15.927  35.306   8.250
 6026POPC   C3A36401  15.995  35.323   7.950
 6026POPC   C4A36402  15.915  35.399   7.650
 6026POPC   C1B36403  15.730  35.279   8.550
 6026POPC   C2B36404  15.699  35.292   8.250
 6026POPC   C3B36405  15.746  35.231   7.950
 6026POPC   C4B36406  15.744  35.292   7.650
 6027POPC   NC336407  23.710  24.488   9.450
 6027POPC   PO436408  23.730  24.485   9.150
 6027POPC   GL136409  23.733  24.487   8.850
 6027POPC   GL236410  23.711  24.388   8.850
 6027POPC   C1A36411  23.738  24.490   8.550
 6027POPC   D2A36412  23.711  24.492   8.250
 6027POPC   C3A36413  23.707  24.443   7.950
 6027POPC   C4A36414  23.736  24.522   7.650
 6027POPC   C1B36415  23.724  24.245   8.550
 6027POPC   C2B36416  23.693  24.231   8.250
 6027POPC   C3B36417  23.655  24.263   7.950
 6027POPC   C4B36418  23.657  24.228   7.650
 6028POPC   NC336419  39.961  16.003   9.450
 6028POPC   PO436420  40.051  15.960   9.150
 6028POPC   GL136421  40.057  15.955   8.850
 6028POPC   GL236422  39.927  16.077   8.850
 6028POPC   C1A36423  40.004  15.924   8.550
 6028POPC   D2A36424  40.002  15.963   8.250
 6028POPC   C3A36425  40.001  15.936   7.950
 6028POPC   C4A36426  39.961  15.909   7.650
 6028POPC   C1B36427  39.895  16.151   8.550
 6028POPC   C2B36428  39.981  16.245   8.250
 6028POPC   C3B36429  39.942  16.208   7.950
 6028POPC   C4B36430  39.958  16.208   7.650
 6029POPC   NC336431   2.719  41.595   9.450
 6029POPC   PO436432   2.765  41.545   9.150
 6029POPC   GL136433   2.766  41.572   8.850
 6029POPC   GL236434   2.678  41.636   8.850
 6029POPC   C1A36435   2.737  41.541   8.550
 6029POPC   D2A36436   2.755  41.545   8.250
 6029POPC   C3A36437   2.728  41.523   7.950
 6029POPC   C4A36438   2.794  41.606   7.650
 6029POPC   C1B36439   2.524  41.722   8.550
 6029POPC   C2B36440   2.527  41.676   8.250
 6029POPC   C3B36441   2.559  41.661   7.950
 6029POPC   C4B36442   2.517  41.655   7.650
 6030POPC   NC336443   5.837   4.353   9.450
 6030POPC   PO436444   5.907   4.302   9.150
 6030POPC   GL136445   5.908   4.290   8.850
 6030POPC   GL236446   5.949   4.171   8.850
 6030POPC   C1A36447   5.898   4.300   8.550
 6030POPC   D2A36448   5.875   4.269   8.250
 6030POPC   C3A36449   5.827   4.358   7.950
 6030POPC   C4A36450   5.902   4.268   7.650
 6030POPC   C1B36451   6.001   4.123   8.550
 6030POPC   C2B36452   5.973   4.154   8.250
 6030POPC   C3B36453   5.975   4.103   7.950
 6030POPC   C4B36454   6.057   4.137   7.650
 6031POPC   NC336455  19.076  42.317   9.450
 6031POPC   PO436456  19.058  42.301   9.150
 6031POPC   GL136457  19.056  42.285   8.850
 6031POPC   GL236458  19.113  42.440   8.850
 6031POPC   C1A36459  19.065  42.378   8.550
 6031POPC   D2A36460  19.096  42.367   8.250
 6031POPC   C3A36461  19.040  42.303   7.950
 6031POPC   C4A36462  19.035  42.287   7.650
 6031POPC   C1B36463  19.149  42.603   8.550
 6031POPC   C2B36464  19.164  42.574   8.250
 6031POPC   C3B36465  19.139  42.559   7.950
 6031POPC   C4B36466  19.215  42.532   7.650
 6032POPC   NC336467  29.964  39.220   9.450
 6032POPC   PO436468  29.875  39.269   9.150
 6032POPC   GL136469  29.964  39.214   8.850
 6032POPC   GL236470  29.928  39.385   8.850
 6032POPC   C1A36471  29.911  39.267   8.550
 6032POPC   D2A36472  29.903  39.196   8.250
 6032POPC   C3A36473  29.967  39.210   7.950
 6032POPC   C4A36474  29.926  39.232   7.650
 6032POPC   C1B36475  29.955  39.482   8.550
 6032POPC   C2B36476  29.985  39.483   8.250
 6032POPC   C3B36477  30.000  39.516   7.950
 6032POPC   C4B36478  29.964  39.450   7.650
 6033POPC   NC336479  23.666  25.232   9.450
 6033POPC   PO436480  23.758  25.279   9.150
 6033POPC   GL136481  23.704  25.313   8.850
 6033POPC   GL236482  23.682  25.403   8.850
 6033POPC   C1A36483  23.734  25.297   8.550
 6033POPC   D2A36484  23.691  25.315   8.250
 6033POPC   C3A36485  23.750  25.286   7.950
 6033POPC   C4A36486  23.713  25.310   7.650
 6033POPC   C1B36487  23.770  25.556   8.550
 6033POPC   C2B36488  23.725  25.510   8.250
 6033POPC   C3B36489  23.774  25.488   7.950
 6033POPC   C4B36490  23.792  25.536   7.650
 6034POPC   NC336491  44.702   0.394   9.450
 6034POPC   PO436492  44.643   0.486   9.150
 6034POPC   GL136493  44.615   0.452   8.850
 6034POPC   GL236494  44.672   0.531   8.850
 6034POPC   C1A36495  44.669   0.488   8.550
 6034POPC   D2A36496  44.638   0.410   8.250
 6034POPC   C3A36497  44.631   0.444   7.950
 6034POPC   C4A36498  44.703   0.447   7.650
 6034POPC   C1B36499  44.688   0.668   8.550
 6034POPC   C2B36500  44.666   0.674   8.250
 6034POPC   C3B36501  44.709   0.677   7.950
 6034POPC   C4B36502  44.672   0.733   7.650
 6035POPC   NC336503  15.967  22.891   9.450
 6035POPC   PO436504  15.994  22.898   9.150
 6035POPC   GL136505  15.985  22.960   8.850
 6035POPC   GL236506  16.004  23.077   8.850
 6035POPC   C1A36507  15.919  22.935   8.550
 6035POPC   D2A36508  15.951  22.979   8.250
 6035POPC   C3A36509  15.999  22.935   7.950
 6035POPC   C4A36510  15.935  22.920   7.650
 6035POPC   C1B36511  16.011  23.184   8.550
 6035POPC   C2B36512  15.961  23.204   8.250
 6035POPC   C3B36513  15.998  23.234   7.950
 6035POPC   C4B36514  15.992  23.208   7.650
 6036POPC   NC336515   3.573   7.406   9.450
 6036POPC   PO436516   3.532   7.470   9.150
 6036POPC   GL136517   3.529   7.440   8.850
 6036POPC   GL236518   3.401   7.326   8.850
 6036POPC   C1A36519   3.511   7.408   8.550
 6036POPC   D2A36520   3.504   7.440   8.250
 6036POPC   C3A36521   3.511   7.398   7.950
 6036POPC   C4A36522   3.515   7.438   7.650
 6036POPC   C1B36523   3.335   7.231   8.550
 6036POPC   C2B36524   3.354   7.243   8.250
 6036POPC   C3B36525   3.380   7.295   7.950
 6036POPC   C4B36526   3.347   7.280   7.650
 6037POPC   NC336527  22.912  43.083   9.450
 6037POPC   PO436528  22.944  43.116   9.150
 6037POPC   GL136529  22.977  43.126   8.850
 6037POPC   GL236530  22.921  43.242   8.850
 6037POPC   C1A36531  22.966  43.116   8.550
 6037POPC   D2A36532  22.932  43.075   8.250
 6037POPC   C3A36533  22.918  43.066   7.950
 6037POPC   C4A36534  22.890  43.108   7.650
 6037POPC   C1B36535  22.998  43.407   8.550
 6037POPC   C2B36536  22.975  43.349   8.250
 6037POPC   C3B36537  22.992  43.363   7.950
 6037POPC   C4B36538  22.969  43.386   7.650
 6038POPC   NC336539  12.869  22.977   9.450
 6038POPC   PO436540  12.840  22.924   9.150
 6038POPC   GL136541  12.894  22.980   8.850
 6038POPC   GL236542  12.733  22.865   8.850
 6038POPC   C1A36543  12.820  22.968   8.550
 6038POPC   D2A36544  12.844  22.923   8.250
 6038POPC   C3A36545  12.809  22.901   7.950
 6038POPC   C4A36546  12.818  22.957   7.650
 6038POPC   C1B36547  12.575  22.871   8.550
 6038POPC   C2B36548  12.625  22.915   8.250
 6038POPC   C3B36549  12.637  22.866   7.950
 6038POPC   C4B36550  12.587  22.837   7.650
 6039POPC   NC336551  13.634  16.004   9.450
 6039POPC   PO436552  13.636  15.988   9.150
 6039POPC   GL136553  13.609  15.996   8.850
 6039POPC   GL236554  13.758  15.960   8.850
 6039POPC   C1A36555  13.644  15.995   8.550
 6039POPC   D2A36556  13.626  15.976   8.250
 6039POPC   C3A36557  13.594  15.973   7.950
 6039POPC   C4A36558  13.633  15.932   7.650
 6039POPC   C1B36559  13.894  16.026   8.550
 6039POPC   C2B36560  13.897  16.083   8.250
 6039POPC   C3B36561  13.878  16.052   7.950
 6039POPC   C4B36562  13.822  16.071   7.650
 6040POPC   NC336563  33.012   1.229   9.450
 6040POPC   PO436564  33.038   1.258   9.150
 6040POPC   GL136565  33.047   1.264   8.850
 6040POPC   GL236566  32.939   1.151   8.850
 6040POPC   C1A36567  32.999   1.170   8.550
 6040POPC   D2A36568  33.012   1.254   8.250
 6040POPC   C3A36569  32.996   1.241   7.950
 6040POPC   C4A36570  33.027   1.238   7.650
 6040POPC   C1B36571  32.893   1.021   8.550
 6040POPC   C2B36572  32.887   1.042   8.250
 6040POPC   C3B36573  32.826   0.993   7.950
 6040POPC   C4B36574  32.815   1.052   7.650
 6041POPC   NC336575   7.383  40.781   9.450
 6041POPC   PO436576   7.372  40.774   9.150
 6041POPC   GL136577   7.375  40.814   8.850
 6041POPC   GL236578   7.513  40.912   8.850
 6041POPC   C1A36579   7.458  40.776   8.550
 6041POPC   D2A36580   7.404  40.763   8.250
 6041POPC   C3A36581   7.457  40.804   7.950
 6041POPC   C4A36582   7.442  40.772   7.650
 6041POPC   C1B36583   7.537  41.020   8.550
 6041POPC   C2B36584   7.565  40.992   8.250
 6041POPC   C3B36585   7.491  41.052   7.950
 6041POPC   C4B36586   7.510  41.042   7.650
 6042POPC   NC336587   4.321  23.667   9.450
 6042POPC   PO436588   4.346  23.729   9.150
 6042POPC   GL136589   4.355  23.674   8.850
 6042POPC   GL236590   4.181  23.773   8.850
 6042POPC   C1A36591   4.337  23.759   8.550
 6042POPC   D2A36592   4.332  23.717   8.250
 6042POPC   C3A36593   4.305  23.672   7.950
 6042POPC   C4A36594   4.349  23.744   7.650
 6042POPC   C1B36595   4.080  23.790   8.550
 6042POPC   C2B36596   4.083  23.778   8.250
 6042POPC   C3B36597   4.109  23.822   7.950
 6042POPC   C4B36598   4.072  23.816   7.650
 6043POPC   NC336599  35.373  31.438   9.450
 6043POPC   PO436600  35.376  31.438   9.150
 6043POPC   GL136601  35.371  31.468   8.850
 6043POPC   GL236602  35.462  31.481   8.850
 6043POPC   C1A36603  35.390  31.484   8.550
 6043POPC   D2A36604  35.385  31.510   8.250
 6043POPC   C3A36605  35.366  31.453   7.950
 6043POPC   C4A36606  35.352  31.483   7.650
 6043POPC   C1B36607  35.647  31.418   8.550
 6043POPC   C2B36608  35.581  31.435   8.250
 6043POPC   C3B36609  35.576  31.427   7.950
 6043POPC   C4B36610  35.557  31.455   7.650
 6044POPC   NC336611  41.538  42.369   9.450
 6044POPC   PO436612  41.577  42.337   9.150
 6044POPC   GL136613  41.606  42.320   8.850
 6044POPC   GL236614  41.521  42.405   8.850
 6044POPC   C1A36615  41.514  42.329   8.550
 6044POPC   D2A36616  41.534  42.312   8.250
 6044POPC   C3A36617  41.566  42.301   7.950
 6044POPC   C4A36618  41.606  42.365   7.650
 6044POPC   C1B36619  41.368  42.547   8.550
 6044POPC   C2B36620  41.368  42.525   8.250
 6044POPC   C3B36621  41.372  42.530   7.950
 6044POPC   C4B36622  41.437  42.529   7.650
 6045POPC   NC336623   8.934  19.820   9.450
 6045POPC   PO436624   8.999  19.809   9.150
 6045POPC   GL136625   8.967  19.790   8.850
 6045POPC   GL236626   9.055  19.710   8.850
 6045POPC   C1A36627   8.934  19.857   8.550
 6045POPC   D2A36628   9.015  19.832   8.250
 6045POPC   C3A36629   8.996  19.869   7.950
 6045POPC   C4A36630   9.018  19.877   7.650
 6045POPC   C1B36631   9.149  19.686   8.550
 6045POPC   C2B36632   9.108  19.698   8.250
 6045POPC   C3B36633   9.152  19.613   7.950
 6045POPC   C4B36634   9.124  19.708   7.650
 6046POPC   NC336635  12.847  37.638   9.450
 6046POPC   PO436636  12.809  37.693   9.150
 6046POPC   GL136637  12.862  37.714   8.850
 6046POPC   GL236638  12.857  37.790   8.850
 6046POPC   C1A36639  12.830  37.691   8.550
 6046POPC   D2A36640  12.835  37.688   8.250
 6046POPC   C3A36641  12.852  37.721   7.950
 6046POPC   C4A36642  12.893  37.640   7.650
 6046POPC   C1B36643  12.800  37.951   8.550
 6046POPC   C2B36644  12.766  37.904   8.250
 6046POPC   C3B36645  12.736  37.953   7.950
 6046POPC   C4B36646  12.743  37.953   7.650
 6047POPC   NC336647  26.798  27.576   9.450
 6047POPC   PO436648  26.823  27.557   9.150
 6047POPC   GL136649  26.843  27.627   8.850
 6047POPC   GL236650  26.675  27.669   8.850
 6047POPC   C1A36651  26.817  27.571   8.550
 6047POPC   D2A36652  26.795  27.602   8.250
 6047POPC   C3A36653  26.780  27.634   7.950
 6047POPC   C4A36654  26.833  27.598   7.650
 6047POPC   C1B36655  26.622  27.712   8.550
 6047POPC   C2B36656  26.631  27.775   8.250
 6047POPC   C3B36657  26.647  27.733   7.950
 6047POPC   C4B36658  26.604  27.785   7.650
 6048POPC   NC336659  33.032  22.117   9.450
 6048POPC   PO436660  33.057  22.136   9.150
 6048POPC   GL136661  33.050  22.146   8.850
 6048POPC   GL236662  33.007  22.004   8.850
 6048POPC   C1A36663  32.997  22.140   8.550
 6048POPC   D2A36664  33.019  22.159   8.250
 6048POPC   C3A36665  32.992  22.170   7.950
 6048POPC   C4A36666  33.040  22.192   7.650
 6048POPC   C1B36667  33.083  21.915   8.550
 6048POPC   C2B36668  33.058  21.927   8.250
 6048POPC   C3B36669  33.017  21.901   7.950
 6048POPC   C4B36670  33.032  21.882   7.650
 6049POPC   NC336671   2.776   7.438   9.450
 6049POPC   PO436672   2.783   7.431   9.150
 6049POPC   GL136673   2.769   7.393   8.850
 6049POPC   GL236674   2.767   7.346   8.850
 6049POPC   C1A36675   2.780   7.420   8.550
 6049POPC   D2A36676   2.751   7.410   8.250
 6049POPC   C3A36677   2.765   7.414   7.950
 6049POPC   C4A36678   2.815   7.433   7.650
 6049POPC   C1B36679   2.814   7.149   8.550
 6049POPC   C2B36680   2.816   7.226   8.250
 6049POPC   C3B36681   2.839   7.223   7.950
 6049POPC   C4B36682   2.852   7.166   7.650
 6050POPC   NC336683  21.364  32.256   9.450
 6050POPC   PO436684  21.367  32.270   9.150
 6050POPC   GL136685  21.363  32.242   8.850
 6050POPC   GL236686  21.481  32.294   8.850
 6050POPC   C1A36687  21.388  32.247   8.550
 6050POPC   D2A36688  21.403  32.220   8.250
 6050POPC   C3A36689  21.386  32.211   7.950
 6050POPC   C4A36690  21.428  32.249   7.650
 6050POPC   C1B36691  21.596  32.287   8.550
 6050POPC   C2B36692  21.666  32.260   8.250
 6050POPC   C3B36693  21.665  32.203   7.950
 6050POPC   C4B36694  21.616  32.277   7.650
 6051POPC   NC336695  27.580  42.363   9.450
 6051POPC   PO436696  27.637  42.376   9.150
 6051POPC   GL136697  27.584  42.365   8.850
 6051POPC   GL236698  27.522  42.169   8.850
 6051POPC   C1A36699  27.587  42.333   8.550
 6051POPC   D2A36700  27.552  42.371   8.250
 6051POPC   C3A36701  27.640  42.372   7.950
 6051POPC   C4A36702  27.627  42.292   7.650
 6051POPC   C1B36703  27.523  42.143   8.550
 6051POPC   C2B36704  27.544  42.094   8.250
 6051POPC   C3B36705  27.460  42.093   7.950
 6051POPC   C4B36706  27.488  42.065   7.650
 6052POPC   NC336707  43.089  15.919   9.450
 6052POPC   PO436708  43.097  15.922   9.150
 6052POPC   GL136709  43.160  16.002   8.850
 6052POPC   GL236710  43.262  15.882   8.850
 6052POPC   C1A36711  43.066  15.918   8.550
 6052POPC   D2A36712  43.114  15.913   8.250
 6052POPC   C3A36713  43.152  15.948   7.950
 6052POPC   C4A36714  43.080  15.975   7.650
 6052POPC   C1B36715  43.380  15.851   8.550
 6052POPC   C2B36716  43.341  15.922   8.250
 6052POPC   C3B36717  43.328  15.935   7.950
 6052POPC   C4B36718  43.370  15.868   7.650
 6053POPC   NC336719   7.402  34.552   9.450
 6053POPC   PO436720   7.394  34.567   9.150
 6053POPC   GL136721   7.448  34.608   8.850
 6053POPC   GL236722   7.324  34.521   8.850
 6053POPC   C1A36723   7.445  34.604   8.550
 6053POPC   D2A36724   7.451  34.553   8.250
 6053POPC   C3A36725   7.403  34.569   7.950
 6053POPC   C4A36726   7.394  34.558   7.650
 6053POPC   C1B36727   7.195  34.549   8.550
 6053POPC   C2B36728   7.171  34.544   8.250
 6053POPC   C3B36729   7.182  34.532   7.950
 6053POPC   C4B36730   7.186  34.534   7.650
 6054POPC   NC336731   9.711  21.369   9.450
 6054POPC   PO436732   9.773  21.372   9.150
 6054POPC   GL136733   9.791  21.340   8.850
 6054POPC   GL236734   9.671  21.399   8.850
 6054POPC   C1A36735   9.786  21.406   8.550
 6054POPC   D2A36736   9.720  21.432   8.250
 6054POPC   C3A36737   9.754  21.394   7.950
 6054POPC   C4A36738   9.706  21.399   7.650
 6054POPC   C1B36739   9.526  21.501   8.550
 6054POPC   C2B36740   9.525  21.489   8.250
 6054POPC   C3B36741   9.562  21.495   7.950
 6054POPC   C4B36742   9.541  21.444   7.650
 6055POPC   NC336743  32.984  44.696   9.450
 6055POPC   PO436744  33.015  44.671   9.150
 6055POPC   GL136745  33.014  44.612   8.850
 6055POPC   GL236746  33.058  44.582   8.850
 6055POPC   C1A36747  33.027  44.679   8.550
 6055POPC   D2A36748  33.025  44.615   8.250
 6055POPC   C3A36749  33.055  44.623   7.950
 6055POPC   C4A36750  33.008  44.662   7.650
 6055POPC   C1B36751  33.181  44.414   8.550
 6055POPC   C2B36752  33.186  44.395   8.250
 6055POPC   C3B36753  33.106  44.406   7.950
 6055POPC   C4B36754  33.132  44.468   7.650
 6056POPC   NC336755  34.547   6.694   9.450
 6056POPC   PO436756  34.589   6.661   9.150
 6056POPC   GL136757  34.569   6.683   8.850
 6056POPC   GL236758  34.497   6.682   8.850
 6056POPC   C1A36759  34.552   6.618   8.550
 6056POPC   D2A36760  34.526   6.610   8.250
 6056POPC   C3A36761  34.607   6.636   7.950
 6056POPC   C4A36762  34.611   6.603   7.650
 6056POPC   C1B36763  34.347   6.801   8.550
 6056POPC   C2B36764  34.382   6.742   8.250
 6056POPC   C3B36765  34.335   6.800   7.950
 6056POPC   C4B36766  34.386   6.769   7.650
 6057POPC   NC336767  39.229  38.472   9.450
 6057POPC   PO436768  39.274  38.505   9.150
 6057POPC   GL136769  39.256  38.408   8.850
 6057POPC   GL236770  39.213  38.603   8.850
 6057POPC   C1A36771  39.245  38.458   8.550
 6057POPC   D2A36772  39.194  38.470   8.250
 6057POPC   C3A36773  39.219  38.504   7.950
 6057POPC   C4A36774  39.265  38.468   7.650
 6057POPC   C1B36775  39.134  38.654   8.550
 6057POPC   C2B36776  39.197  38.679   8.250
 6057POPC   C3B36777  39.139  38.716   7.950
 6057POPC   C4B36778  39.112  38.684   7.650
 6058POPC   NC336779  38.431  29.950   9.450
 6058POPC   PO436780  38.488  29.937   9.150
 6058POPC   GL136781  38.481  29.970   8.850
 6058POPC   GL236782  38.397  29.956   8.850
 6058POPC   C1A36783  38.434  29.902   8.550
 6058POPC   D2A36784  38.477  29.908   8.250
 6058POPC   C3A36785  38.431  29.886   7.950
 6058POPC   C4A36786  38.480  29.932   7.650
 6058POPC   C1B36787  38.237  30.083   8.550
 6058POPC   C2B36788  38.257  30.022   8.250
 6058POPC   C3B36789  38.267  30.057   7.950
 6058POPC   C4B36790  38.286  30.077   7.650
 6059POPC   NC336791  43.108  44.677   9.450
 6059POPC   PO436792  43.063  44.661   9.150
 6059POPC   GL136793  43.077  44.623   8.850
 6059POPC   GL236794  43.180  44.556   8.850
 6059POPC   C1A36795  43.078  44.621   8.550
 6059POPC   D2A36796  43.088  44.708   8.250
 6059POPC   C3A36797  43.107  44.681   7.950
 6059POPC   C4A36798  43.075  44.683   7.650
 6059POPC   C1B36799  43.308  44.509   8.550
 6059POPC   C2B36800  43.277  44.439   8.250
 6059POPC   C3B36801  43.320  44.442   7.950
 6059POPC   C4B36802  43.278  44.460   7.650
 6060POPC   NC336803   4.326  39.278   9.450
 6060POPC   PO436804   4.356  39.210   9.150
 6060POPC   GL136805   4.283  39.237   8.850
 6060POPC   GL236806   4.432  39.225   8.850
 6060POPC   C1A36807   4.297  39.270   8.550
 6060POPC   D2A36808   4.304  39.264   8.250
 6060POPC   C3A36809   4.336  39.272   7.950
 6060POPC   C4A36810   4.354  39.195   7.650
 6060POPC   C1B36811   4.550  39.123   8.550
 6060POPC   C2B36812   4.551  39.144   8.250
 6060POPC   C3B36813   4.527  39.190   7.950
 6060POPC   C4B36814   4.526  39.155   7.650
 6061POPC   NC336815   8.968  36.925   9.450
 6061POPC   PO436816   8.979  36.937   9.150
 6061POPC   GL136817   8.942  36.910   8.850
 6061POPC   GL236818   9.038  36.875   8.850
 6061POPC   C1A36819   9.000  36.901   8.550
 6061POPC   D2A36820   8.948  36.855   8.250
 6061POPC   C3A36821   8.998  36.929   7.950
 6061POPC   C4A36822   8.991  36.884   7.650
 6061POPC   C1B36823   9.175  36.775   8.550
 6061POPC   C2B36824   9.223  36.752   8.250
 6061POPC   C3B36825   9.144  36.789   7.950
 6061POPC   C4B36826   9.200  36.800   7.650
 6062POPC   NC336827   8.988  20.632   9.450
 6062POPC   PO436828   8.925  20.561   9.150
 6062POPC   GL136829   8.949  20.626   8.850
 6062POPC   GL236830   9.054  20.675   8.850
 6062POPC   C1A36831   9.017  20.562   8.550
 6062POPC   D2A36832   8.952  20.641   8.250
 6062POPC   C3A36833   8.943  20.645   7.950
 6062POPC   C4A36834   9.007  20.644   7.650
 6062POPC   C1B36835   9.208  20.759   8.550
 6062POPC   C2B36836   9.189  20.770   8.250
 6062POPC   C3B36837   9.163  20.738   7.950
 6062POPC   C4B36838   9.194  20.756   7.650
 6063POPC   NC336839   5.847   3.545   9.450
 6063POPC   PO436840   5.834   3.585   9.150
 6063POPC   GL136841   5.828   3.584   8.850
 6063POPC   GL236842   5.863   3.421   8.850
 6063POPC   C1A36843   5.888   3.518   8.550
 6063POPC   D2A36844   5.895   3.533   8.250
 6063POPC   C3A36845   5.823   3.509   7.950
 6063POPC   C4A36846   5.868   3.510   7.650
 6063POPC   C1B36847   5.922   3.270   8.550
 6063POPC   C2B36848   5.888   3.302   8.250
 6063POPC   C3B36849   5.917   3.245   7.950
 6063POPC   C4B36850   5.886   3.269   7.650
 6064POPC   NC336851  12.062  15.923   9.450
 6064POPC   PO436852  12.041  15.982   9.150
 6064POPC   GL136853  12.068  15.941   8.850
 6064POPC   GL236854  12.192  16.052   8.850
 6064POPC   C1A36855  12.101  15.980   8.550
 6064POPC   D2A36856  12.087  15.976   8.250
 6064POPC   C3A36857  12.046  15.982   7.950
 6064POPC   C4A36858  12.095  15.959   7.650
 6064POPC   C1B36859  12.253  16.060   8.550
 6064POPC   C2B36860  12.295  16.110   8.250
 6064POPC   C3B36861  12.284  16.151   7.950
 6064POPC   C4B36862  12.300  16.094   7.650
 6065POPC   NC336863  10.540  36.876   9.450
 6065POPC   PO436864  10.491  36.945   9.150
 6065POPC   GL136865  10.505  36.947   8.850
 6065POPC   GL236866  10.440  36.800   8.850
 6065POPC   C1A36867  10.499  36.891   8.550
 6065POPC   D2A36868  10.545  36.865   8.250
 6065POPC   C3A36869  10.498  36.901   7.950
 6065POPC   C4A36870  10.534  36.952   7.650
 6065POPC   C1B36871  10.383  36.772   8.550
 6065POPC   C2B36872  10.381  36.726   8.250
 6065POPC   C3B36873  10.315  36.780   7.950
 6065POPC   C4B36874  10.378  36.704   7.650
 6066POPC   NC336875  12.815  25.263   9.450
 6066POPC   PO436876  12.832  25.270   9.150
 6066POPC   GL136877  12.845  25.294   8.850
 6066POPC   GL236878  12.963  25.359   8.850
 6066POPC   C1A36879  12.890  25.299   8.550
 6066POPC   D2A36880  12.891  25.246   8.250
 6066POPC   C3A36881  12.836  25.264   7.950
 6066POPC   C4A36882  12.862  25.225   7.650
 6066POPC   C1B36883  13.069  25.378   8.550
 6066POPC   C2B36884  13.063  25.427   8.250
 6066POPC   C3B36885  13.012  25.424   7.950
 6066POPC   C4B36886  13.044  25.440   7.650
 6067POPC   NC336887  15.161  32.986   9.450
 6067POPC   PO436888  15.192  33.008   9.150
 6067POPC   GL136889  15.195  33.023   8.850
 6067POPC   GL236890  15.019  33.006   8.850
 6067POPC   C1A36891  15.200  33.021   8.550
 6067POPC   D2A36892  15.228  33.063   8.250
 6067POPC   C3A36893  15.157  32.978   7.950
 6067POPC   C4A36894  15.196  33.021   7.650
 6067POPC   C1B36895  14.952  33.092   8.550
 6067POPC   C2B36896  14.889  33.079   8.250
 6067POPC   C3B36897  14.885  33.073   7.950
 6067POPC   C4B36898  14.891  33.057   7.650
 6068POPC   NC336899  15.961  15.943   9.450
 6068POPC   PO436900  15.971  15.934   9.150
 6068POPC   GL136901  15.995  15.967   8.850
 6068POPC   GL236902  16.062  15.889   8.850
 6068POPC   C1A36903  15.963  15.910   8.550
 6068POPC   D2A36904  15.929  15.906   8.250
 6068POPC   C3A36905  15.956  15.911   7.950
 6068POPC   C4A36906  15.969  16.000   7.650
 6068POPC   C1B36907  16.192  15.827   8.550
 6068POPC   C2B36908  16.197  15.858   8.250
 6068POPC   C3B36909  16.194  15.811   7.950
 6068POPC   C4B36910  16.142  15.793   7.650
 6069POPC   NC336911  17.497   6.662   9.450
 6069POPC   PO436912  17.458   6.600   9.150
 6069POPC   GL136913  17.554   6.661   8.850
 6069POPC   GL236914  17.433   6.756   8.850
 6069POPC   C1A36915  17.524   6.617   8.550
 6069POPC   D2A36916  17.512   6.611   8.250
 6069POPC   C3A36917  17.483   6.624   7.950
 6069POPC   C4A36918  17.522   6.650   7.650
 6069POPC   C1B36919  17.420   6.894   8.550
 6069POPC   C2B36920  17.425   6.871   8.250
 6069POPC   C3B36921  17.374   6.837   7.950
 6069POPC   C4B36922  17.360   6.851   7.650
 6070POPC   NC336923  12.123   7.425   9.450
 6070POPC   PO436924  12.048   7.432   9.150
 6070POPC   GL136925  12.087   7.432   8.850
 6070POPC   GL236926  12.028   7.467   8.850
 6070POPC   C1A36927  12.122   7.442   8.550
 6070POPC   D2A36928  12.121   7.468   8.250
 6070POPC   C3A36929  12.040   7.419   7.950
 6070POPC   C4A36930  12.087   7.413   7.650
 6070POPC   C1B36931  11.869   7.597   8.550
 6070POPC   C2B36932  11.901   7.626   8.250
 6070POPC   C3B36933  11.947   7.576   7.950
 6070POPC   C4B36934  11.953   7.612   7.650
 6071POPC   NC336935  29.183  36.937   9.450
 6071POPC   PO436936  29.111  36.885   9.150
 6071POPC   GL136937  29.126  36.905   8.850
 6071POPC   GL236938  29.055  36.759   8.850
 6071POPC   C1A36939  29.140  36.929   8.550
 6071POPC   D2A36940  29.190  36.909   8.250
 6071POPC   C3A36941  29.106  36.935   7.950
 6071POPC   C4A36942  29.110  36.926   7.650
 6071POPC   C1B36943  29.010  36.683   8.550
 6071POPC   C2B36944  29.075  36.634   8.250
 6071POPC   C3B36945  29.080  36.656   7.950
 6071POPC   C4B36946  29.009  36.706   7.650
 6072POPC   NC336947   9.727  26.866   9.450
 6072POPC   PO436948   9.742  26.814   9.150
 6072POPC   GL136949   9.784  26.781   8.850
 6072POPC   GL236950   9.733  26.682   8.850
 6072POPC   C1A36951   9.708  26.794   8.550
 6072POPC   D2A36952   9.796  26.770   8.250
 6072POPC   C3A36953   9.783  26.866   7.950
 6072POPC   C4A36954   9.705  26.779   7.650
 6072POPC   C1B36955   9.585  26.563   8.550
 6072POPC   C2B36956   9.646  26.590   8.250
 6072POPC   C3B36957   9.586  26.553   7.950
 6072POPC   C4B36958   9.621  26.553   7.650
 6073POPC   NC336959  22.153  36.873   9.450
 6073POPC   PO436960  22.114  36.928   9.150
 6073POPC   GL136961  22.158  36.897   8.850
 6073POPC   GL236962  22.290  36.946   8.850
 6073POPC   C1A36963  22.118  36.937   8.550
 6073POPC   D2A36964  22.118  36.879   8.250
 6073POPC   C3A36965  22.115  36.862   7.950
 6073POPC   C4A36966  22.164  36.904   7.650
 6073POPC   C1B36967  22.406  37.015   8.550
 6073POPC   C2B36968  22.388  37.014   8.250
 6073POPC   C3B36969  22.428  36.984   7.950
 6073POPC   C4B36970  22.405  36.975   7.650
 6074POPC   NC336971  14.363  27.570   9.450
 6074POPC   PO436972  14.438  27.623   9.150
 6074POPC   GL136973  14.396  27.544   8.850
 6074POPC   GL236974  14.397  27.484   8.850
 6074POPC   C1A36975  14.411  27.586   8.550
 6074POPC   D2A36976  14.355  27.587   8.250
 6074POPC   C3A36977  14.355  27.568   7.950
 6074POPC   C4A36978  14.413  27.635   7.650
 6074POPC   C1B36979  14.451  27.343   8.550
 6074POPC   C2B36980  14.385  27.384   8.250
 6074POPC   C3B36981  14.480  27.343   7.950
 6074POPC   C4B36982  14.393  27.334   7.650
 6075POPC   NC336983   2.800  22.936   9.450
 6075POPC   PO436984   2.768  22.966   9.150
 6075POPC   GL136985   2.758  22.912   8.850
 6075POPC   GL236986   2.701  23.032   8.850
 6075POPC   C1A36987   2.756  22.897   8.550
 6075POPC   D2A36988   2.806  22.959   8.250
 6075POPC   C3A36989   2.806  22.957   7.950
 6075POPC   C4A36990   2.774  22.940   7.650
 6075POPC   C1B36991   2.721  23.145   8.550
 6075POPC   C2B36992   2.650  23.143   8.250
 6075POPC   C3B36993   2.679  23.145   7.950
 6075POPC   C4B36994   2.650  23.149   7.650
 6076POPC   NC336995  22.188  16.781   9.450
 6076POPC   PO436996  22.160  16.702   9.150
 6076POPC   GL136997  22.113  16.780   8.850
 6076POPC   GL236998  22.003  16.726   8.850
 6076POPC   C1A36999  22.123  16.765   8.550
 6076POPC   D2A37000  22.145  16.741   8.250
 6076POPC   C3A37001  22.122  16.711   7.950
 6076POPC   C4A37002  22.205  16.738   7.650
 6076POPC   C1B37003  21.952  16.689   8.550
 6076POPC   C2B37004  21.906  16.623   8.250
 6076POPC   C3B37005  21.891  16.692   7.950
 6076POPC   C4B37006  21.946  16.622   7.650
 6077POPC   NC337007  22.141  29.142   9.450
 6077POPC   PO437008  22.127  29.184   9.150
 6077POPC   GL137009  22.140  29.143   8.850
 6077POPC   GL237010  22.142  29.018   8.850
 6077POPC   C1A37011  22.116  29.176   8.550
 6077POPC   D2A37012  22.162  29.149   8.250
 6077POPC   C3A37013  22.189  29.149   7.950
 6077POPC   C4A37014  22.123  29.153   7.650
 6077POPC   C1B37015  22.096  28.866   8.550
 6077POPC   C2B37016  22.069  28.906   8.250
 6077POPC   C3B37017  22.061  28.952   7.950
 6077POPC   C4B37018  22.034  28.871   7.650
 6078POPC   NC337019  14.373  16.711   9.450
 6078POPC   PO437020  14.406  16.754   9.150
 6078POPC   GL137021  14.443  16.733   8.850
 6078POPC   GL237022  14.431  16.827   8.850
 6078POPC   C1A37023  14.453  16.730   8.550
 6078POPC   D2A37024  14.390  16.731   8.250
 6078POPC   C3A37025  14.450  16.715   7.950
 6078POPC   C4A37026  14.374  16.745   7.650
 6078POPC   C1B37027  14.342  16.930   8.550
 6078POPC   C2B37028  14.343  16.965   8.250
 6078POPC   C3B37029  14.399  16.960   7.950
 6078POPC   C4B37030  14.344  16.966   7.650
 6079POPC   NC337031  43.886  16.687   9.450
 6079POPC   PO437032  43.838  16.704   9.150
 6079POPC   GL137033  43.847  16.771   8.850
 6079POPC   GL237034  43.853  16.812   8.850
 6079POPC   C1A37035  43.883  16.751   8.550
 6079POPC   D2A37036  43.877  16.720   8.250
 6079POPC   C3A37037  43.894  16.719   7.950
 6079POPC   C4A37038  43.907  16.761   7.650
 6079POPC   C1B37039  43.799  16.998   8.550
 6079POPC   C2B37040  43.855  16.980   8.250
 6079POPC   C3B37041  43.785  16.927   7.950
 6079POPC   C4B37042  43.823  16.948   7.650
 6080POPC   NC337043  39.957  22.975   9.450
 6080POPC   PO437044  40.049  22.970   9.150
 6080POPC   GL137045  39.964  22.973   8.850
 6080POPC   GL237046  40.129  22.856   8.850
 6080POPC   C1A37047  39.984  22.915   8.550
 6080POPC   D2A37048  40.042  22.925   8.250
 6080POPC   C3A37049  39.968  22.938   7.950
 6080POPC   C4A37050  40.033  22.905   7.650
 6080POPC   C1B37051  40.129  22.713   8.550
 6080POPC   C2B37052  40.192  22.707   8.250
 6080POPC   C3B37053  40.147  22.689   7.950
 6080POPC   C4B37054  40.114  22.713   7.650
 6081POPC   NC337055   5.129  43.160   9.450
 6081POPC   PO437056   5.102  43.098   9.150
 6081POPC   GL137057   5.138  43.093   8.850
 6081POPC   GL237058   4.961  43.146   8.850
 6081POPC   C1A37059   5.068  43.103   8.550
 6081POPC   D2A37060   5.079  43.129   8.250
 6081POPC   C3A37061   5.082  43.072   7.950
 6081POPC   C4A37062   5.139  43.151   7.650
 6081POPC   C1B37063   4.845  43.195   8.550
 6081POPC   C2B37064   4.849  43.226   8.250
 6081POPC   C3B37065   4.863  43.214   7.950
 6081POPC   C4B37066   4.883  43.284   7.650
 6082POPC   NC337067  26.794  36.879   9.450
 6082POPC   PO437068  26.824  36.903   9.150
 6082POPC   GL137069  26.859  36.854   8.850
 6082POPC   GL237070  26.744  36.868   8.850
 6082POPC   C1A37071  26.860  36.908   8.550
 6082POPC   D2A37072  26.784  36.939   8.250
 6082POPC   C3A37073  26.859  36.895   7.950
 6082POPC   C4A37074  26.787  36.854   7.650
 6082POPC   C1B37075  26.624  36.817   8.550
 6082POPC   C2B37076  26.613  36.796   8.250
 6082POPC   C3B37077  26.566  36.866   7.950
 6082POPC   C4B37078  26.615  36.834   7.650
 6083POPC   NC337079  11.290  26.804   9.450
 6083POPC   PO437080  11.295  26.774   9.150
 6083POPC   GL137081  11.263  26.851   8.850
 6083POPC   GL237082  11.229  26.743   8.850
 6083POPC   C1A37083  11.285  26.851   8.550
 6083POPC   D2A37084  11.303  26.811   8.250
 6083POPC   C3A37085  11.340  26.844   7.950
 6083POPC   C4A37086  11.292  26.776   7.650
 6083POPC   C1B37087  11.089  26.659   8.550
 6083POPC   C2B37088  11.144  26.602   8.250
 6083POPC   C3B37089  11.157  26.694   7.950
 6083POPC   C4B37090  11.160  26.631   7.650
 6084POPC   NC337091  40.017  18.245   9.450
 6084POPC   PO437092  40.057  18.248   9.150
 6084POPC   GL137093  39.962  18.259   8.850
 6084POPC   GL237094  39.906  18.129   8.850
 6084POPC   C1A37095  39.986  18.251   8.550
 6084POPC   D2A37096  40.019  18.323   8.250
 6084POPC   C3A37097  39.969  18.258   7.950
 6084POPC   C4A37098  40.002  18.238   7.650
 6084POPC   C1B37099  39.872  18.057   8.550
 6084POPC   C2B37100  39.866  18.089   8.250
 6084POPC   C3B37101  39.867  18.058   7.950
 6084POPC   C4B37102  39.909  18.050   7.650
 6085POPC   NC337103  33.059  29.159   9.450
 6085POPC   PO437104  32.979  29.152   9.150
 6085POPC   GL137105  33.021  29.113   8.850
 6085POPC   GL237106  33.116  29.074   8.850
 6085POPC   C1A37107  33.045  29.111   8.550
 6085POPC   D2A37108  32.987  29.139   8.250
 6085POPC   C3A37109  32.989  29.162   7.950
 6085POPC   C4A37110  32.986  29.155   7.650
 6085POPC   C1B37111  33.254  29.048   8.550
 6085POPC   C2B37112  33.200  28.953   8.250
 6085POPC   C3B37113  33.190  28.987   7.950
 6085POPC   C4B37114  33.272  28.968   7.650
 6086POPC   NC337115  31.464  31.473   9.450
 6086POPC   PO437116  31.473  31.516   9.150
 6086POPC   GL137117  31.426  31.514   8.850
 6086POPC   GL237118  31.442  31.311   8.850
 6086POPC   C1A37119  31.475  31.502   8.550
 6086POPC   D2A37120  31.492  31.441   8.250
 6086POPC   C3A37121  31.509  31.468   7.950
 6086POPC   C4A37122  31.511  31.449   7.650
 6086POPC   C1B37123  31.356  31.192   8.550
 6086POPC   C2B37124  31.434  31.266   8.250
 6086POPC   C3B37125  31.368  31.242   7.950
 6086POPC   C4B37126  31.388  31.260   7.650
 6087POPC   NC337127  26.784  42.319   9.450
 6087POPC   PO437128  26.820  42.379   9.150
 6087POPC   GL137129  26.813  42.351   8.850
 6087POPC   GL237130  26.738  42.273   8.850
 6087POPC   C1A37131  26.822  42.314   8.550
 6087POPC   D2A37132  26.789  42.295   8.250
 6087POPC   C3A37133  26.770  42.304   7.950
 6087POPC   C4A37134  26.811  42.320   7.650
 6087POPC   C1B37135  26.593  42.153   8.550
 6087POPC   C2B37136  26.627  42.222   8.250
 6087POPC   C3B37137  26.611  42.246   7.950
 6087POPC   C4B37138  26.628  42.226   7.650
 6088POPC   NC337139  37.630  44.700   9.450
 6088POPC   PO437140  37.654  44.688   9.150
 6088POPC   GL137141  37.638  44.635   8.850
 6088POPC   GL237142  37.603  44.691   8.850
 6088POPC   C1A37143  37.726  44.685   8.550
 6088POPC   D2A37144  37.657  44.645   8.250
 6088POPC   C3A37145  37.711  44.614   7.950
 6088POPC   C4A37146  37.682  44.696   7.650
 6088POPC   C1B37147  37.415  44.596   8.550
 6088POPC   C2B37148  37.436  44.689   8.250
 6088POPC   C3B37149  37.431  44.596   7.950
 6088POPC   C4B37150  37.385  44.664   7.650
 6089POPC   NC337151  22.136  31.475   9.450
 6089POPC   PO437152  22.139  31.502   9.150
 6089POPC   GL137153  22.191  31.502   8.850
 6089POPC   GL237154  22.164  31.612   8.850
 6089POPC   C1A37155  22.199  31.520   8.550
 6089POPC   D2A37156  22.119  31.499   8.250
 6089POPC   C3A37157  22.166  31.514   7.950
 6089POPC   C4A37158  22.187  31.499   7.650
 6089POPC   C1B37159  22.147  31.674   8.550
 6089POPC   C2B37160  22.179  31.698   8.250
 6089POPC   C3B37161  22.173  31.771   7.950
 6089POPC   C4B37162  22.141  31.711   7.650
 6090POPC   NC337163  31.511  22.972   9.450
 6090POPC   PO437164  31.468  22.926   9.150
 6090POPC   GL137165  31.473  22.891   8.850
 6090POPC   GL237166  31.477  23.076   8.850
 6090POPC   C1A37167  31.436  22.898   8.550
 6090POPC   D2A37168  31.454  22.951   8.250
 6090POPC   C3A37169  31.452  22.937   7.950
 6090POPC   C4A37170  31.482  22.890   7.650
 6090POPC   C1B37171  31.580  23.141   8.550
 6090POPC   C2B37172  31.595  23.179   8.250
 6090POPC   C3B37173  31.606  23.138   7.950
 6090POPC   C4B37174  31.541  23.185   7.650
 6091POPC   NC337175  22.894  22.901   9.450
 6091POPC   PO437176  22.936  22.924   9.150
 6091POPC   GL137177  22.954  22.953   8.850
 6091POPC   GL237178  22.970  22.852   8.850
 6091POPC   C1A37179  22.908  22.952   8.550
 6091POPC   D2A37180  22.896  22.957   8.250
 6091POPC   C3A37181  22.928  22.928   7.950
 6091POPC   C4A37182  22.911  22.954   7.650
 6091POPC   C1B37183  23.015  22.713   8.550
 6091POPC   C2B37184  23.016  22.682   8.250
 6091POPC   C3B37185  23.076  22.753   7.950
 6091POPC   C4B37186  23.031  22.714   7.650
 6092POPC   NC337187  30.704  20.614   9.450
 6092POPC   PO437188  30.659  20.601   9.150
 6092POPC   GL137189  30.708  20.649   8.850
 6092POPC   GL237190  30.747  20.519   8.850
 6092POPC   C1A37191  30.709  20.619   8.550
 6092POPC   D2A37192  30.714  20.612   8.250
 6092POPC   C3A37193  30.693  20.587   7.950
 6092POPC   C4A37194  30.674  20.634   7.650
 6092POPC   C1B37195  30.709  20.351   8.550
 6092POPC   C2B37196  30.745  20.393   8.250
 6092POPC   C3B37197  30.695  20.367   7.950
 6092POPC   C4B37198  30.764  20.315   7.650
 6093POPC   NC337199  29.922  12.841   9.450
 6093POPC   PO437200  29.947  12.824   9.150
 6093POPC   GL137201  29.951  12.803   8.850
 6093POPC   GL237202  30.074  12.835   8.850
 6093POPC   C1A37203  29.873  12.863   8.550
 6093POPC   D2A37204  29.888  12.816   8.250
 6093POPC   C3A37205  29.920  12.824   7.950
 6093POPC   C4A37206  29.953  12.824   7.650
 6093POPC   C1B37207  30.158  12.787   8.550
 6093POPC   C2B37208  30.150  12.763   8.250
 6093POPC   C3B37209  30.108  12.779   7.950
 6093POPC   C4B37210  30.150  12.745   7.650
 6094POPC   NC337211  26.775  25.245   9.450
 6094POPC   PO437212  26.808  25.285   9.150
 6094POPC   GL137213  26.775  25.216   8.850
 6094POPC   GL237214  26.730  25.375   8.850
 6094POPC   C1A37215  26.849  25.290   8.550
 6094POPC   D2A37216  26.814  25.279   8.250
 6094POPC   C3A37217  26.770  25.218   7.950
 6094POPC   C4A37218  26.791  25.250   7.650
 6094POPC   C1B37219  26.561  25.369   8.550
 6094POPC   C2B37220  26.648  25.344   8.250
 6094POPC   C3B37221  26.566  25.409   7.950
 6094POPC   C4B37222  26.597  25.426   7.650
 6095POPC   NC337223  18.274  30.729   9.450
 6095POPC   PO437224  18.300  30.666   9.150
 6095POPC   GL137225  18.316  30.648   8.850
 6095POPC   GL237226  18.242  30.810   8.850
 6095POPC   C1A37227  18.250  30.747   8.550
 6095POPC   D2A37228  18.276  30.715   8.250
 6095POPC   C3A37229  18.319  30.743   7.950
 6095POPC   C4A37230  18.323  30.704   7.650
 6095POPC   C1B37231  18.219  30.953   8.550
 6095POPC   C2B37232  18.195  30.899   8.250
 6095POPC   C3B37233  18.228  30.892   7.950
 6095POPC   C4B37234  18.187  30.954   7.650
 6096POPC   NC337235  12.826  10.523   9.450
 6096POPC   PO437236  12.861  10.476   9.150
 6096POPC   GL137237  12.886  10.510   8.850
 6096POPC   GL237238  12.953  10.662   8.850
 6096POPC   C1A37239  12.812  10.482   8.550
 6096POPC   D2A37240  12.882  10.504   8.250
 6096POPC   C3A37241  12.870  10.507   7.950
 6096POPC   C4A37242  12.833  10.573   7.650
 6096POPC   C1B37243  12.978  10.748   8.550
 6096POPC   C2B37244  12.985  10.765   8.250
 6096POPC   C3B37245  12.975  10.787   7.950
 6096POPC   C4B37246  12.952  10.721   7.650
 6097POPC   NC337247  22.900   2.803   9.450
 6097POPC   PO437248  22.942   2.781   9.150
 6097POPC   GL137249  22.909   2.757   8.850
 6097POPC   GL237250  22.895   2.686   8.850
 6097POPC   C1A37251  22.953   2.726   8.550
 6097POPC   D2A37252  22.941   2.738   8.250
 6097POPC   C3A37253  22.966   2.718   7.950
 6097POPC   C4A37254  22.906   2.799   7.650
 6097POPC   C1B37255  22.894   2.506   8.550
 6097POPC   C2B37256  22.878   2.546   8.250
 6097POPC   C3B37257  22.823   2.532   7.950
 6097POPC   C4B37258  22.904   2.486   7.650
 6098POPC   NC337259  26.029  31.433   9.450
 6098POPC   PO437260  26.001  31.497   9.150
 6098POPC   GL137261  25.996  31.461   8.850
 6098POPC   GL237262  26.186  31.504   8.850
 6098POPC   C1A37263  26.000  31.522   8.550
 6098POPC   D2A37264  25.995  31.459   8.250
 6098POPC   C3A37265  26.045  31.492   7.950
 6098POPC   C4A37266  26.078  31.462   7.650
 6098POPC   C1B37267  26.287  31.403   8.550
 6098POPC   C2B37268  26.299  31.402   8.250
 6098POPC   C3B37269  26.249  31.451   7.950
 6098POPC   C4B37270  26.250  31.446   7.650
 6099POPC   NC337271  37.660  40.048   9.450
 6099POPC   PO437272  37.666  40.044   9.150
 6099POPC   GL137273  37.642  39.965   8.850
 6099POPC   GL237274  37.813  40.057   8.850
 6099POPC   C1A37275  37.659  40.031   8.550
 6099POPC   D2A37276  37.636  39.965   8.250
 6099POPC   C3A37277  37.653  40.032   7.950
 6099POPC   C4A37278  37.714  40.047   7.650
 6099POPC   C1B37279  37.848  40.166   8.550
 6099POPC   C2B37280  37.912  40.162   8.250
 6099POPC   C3B37281  37.854  40.185   7.950
 6099POPC   C4B37282  37.831  40.185   7.650
 6100POPC   NC337283  34.575  19.021   9.450
 6100POPC   PO437284  34.579  19.094   9.150
 6100POPC   GL137285  34.560  19.097   8.850
 6100POPC   GL237286  34.483  19.167   8.850
 6100POPC   C1A37287  34.597  19.029   8.550
 6100POPC   D2A37288  34.566  19.012   8.250
 6100POPC   C3A37289  34.540  19.038   7.950
 6100POPC   C4A37290  34.561  19.087   7.650
 6100POPC   C1B37291  34.375  19.232   8.550
 6100POPC   C2B37292  34.378  19.193   8.250
 6100POPC   C3B37293  34.386  19.146   7.950
 6100POPC   C4B37294  34.333  19.183   7.650
 6101POPC   NC337295   5.137  19.793   9.450
 6101POPC   PO437296   5.124  19.812   9.150
 6101POPC   GL137297   5.081  19.861   8.850
 6101POPC   GL237298   5.208  19.733   8.850
 6101POPC   C1A37299   5.124  19.860   8.550
 6101POPC   D2A37300   5.099  19.828   8.250
 6101POPC   C3A37301   5.093  19.835   7.950
 6101POPC   C4A37302   5.056  19.787   7.650
 6101POPC   C1B37303   5.241  19.617   8.550
 6101POPC   C2B37304   5.247  19.609   8.250
 6101POPC   C3B37305   5.239  19.671   7.950
 6101POPC   C4B37306   5.269  19.652   7.650
 6102POPC   NC337307  40.023  23.730   9.450
 6102POPC   PO437308  39.994  23.686   9.150
 6102POPC   GL137309  40.000  23.700   8.850
 6102POPC   GL237310  40.153  23.646   8.850
 6102POPC   C1A37311  39.991  23.695   8.550
 6102POPC   D2A37312  40.031  23.746   8.250
 6102POPC   C3A37313  40.036  23.691   7.950
 6102POPC   C4A37314  39.975  23.718   7.650
 6102POPC   C1B37315  40.222  23.639   8.550
 6102POPC   C2B37316  40.206  23.656   8.250
 6102POPC   C3B37317  40.280  23.615   7.950
 6102POPC   C4B37318  40.278  23.690   7.650
 6103POPC   NC337319   7.430  11.317   9.450
 6103POPC   PO437320   7.464  11.288   9.150
 6103POPC   GL137321   7.451  11.275   8.850
 6103POPC   GL237322   7.421  11.437   8.850
 6103POPC   C1A37323   7.399  11.325   8.550
 6103POPC   D2A37324   7.388  11.329   8.250
 6103POPC   C3A37325   7.437  11.295   7.950
 6103POPC   C4A37326   7.450  11.326   7.650
 6103POPC   C1B37327   7.526  11.542   8.550
 6103POPC   C2B37328   7.488  11.543   8.250
 6103POPC   C3B37329   7.476  11.584   7.950
 6103POPC   C4B37330   7.555  11.492   7.650
 6104POPC   NC337331  19.028  15.915   9.450
 6104POPC   PO437332  19.074  15.966   9.150
 6104POPC   GL137333  19.033  15.913   8.850
 6104POPC   GL237334  19.068  16.043   8.850
 6104POPC   C1A37335  19.027  15.976   8.550
 6104POPC   D2A37336  19.072  15.954   8.250
 6104POPC   C3A37337  19.092  15.926   7.950
 6104POPC   C4A37338  19.065  15.966   7.650
 6104POPC   C1B37339  19.031  16.239   8.550
 6104POPC   C2B37340  19.008  16.227   8.250
 6104POPC   C3B37341  19.030  16.232   7.950
 6104POPC   C4B37342  19.001  16.209   7.650
 6105POPC   NC337343   3.541  19.068   9.450
 6105POPC   PO437344   3.532  19.061   9.150
 6105POPC   GL137345   3.548  19.049   8.850
 6105POPC   GL237346   3.562  18.897   8.850
 6105POPC   C1A37347   3.493  19.044   8.550
 6105POPC   D2A37348   3.546  19.046   8.250
 6105POPC   C3A37349   3.589  19.098   7.950
 6105POPC   C4A37350   3.580  19.102   7.650
 6105POPC   C1B37351   3.481  18.771   8.550
 6105POPC   C2B37352   3.514  18.806   8.250
 6105POPC   C3B37353   3.560  18.842   7.950
 6105POPC   C4B37354   3.483  18.760   7.650
 6106POPC   NC337355  13.578  36.111   9.450
 6106POPC   PO437356  13.632  36.102   9.150
 6106POPC   GL137357  13.595  36.151   8.850
 6106POPC   GL237358  13.680  36.210   8.850
 6106POPC   C1A37359  13.642  36.124   8.550
 6106POPC   D2A37360  13.593  36.119   8.250
 6106POPC   C3A37361  13.674  36.172   7.950
 6106POPC   C4A37362  13.617  36.114   7.650
 6106POPC   C1B37363  13.813  36.287   8.550
 6106POPC   C2B37364  13.726  36.287   8.250
 6106POPC   C3B37365  13.823  36.349   7.950
 6106POPC   C4B37366  13.739  36.363   7.650
 6107POPC   NC337367  32.254   2.810   9.450
 6107POPC   PO437368  32.199   2.780   9.150
 6107POPC   GL137369  32.271   2.732   8.850
 6107POPC   GL237370  32.302   2.689   8.850
 6107POPC   C1A37371  32.262   2.804   8.550
 6107POPC   D2A37372  32.248   2.786   8.250
 6107POPC   C3A37373  32.290   2.799   7.950
 6107POPC   C4A37374  32.201   2.721   7.650
 6107POPC   C1B37375  32.342   2.544   8.550
 6107POPC   C2B37376  32.395   2.576   8.250
 6107POPC   C3B37377  32.411   2.529   7.950
 6107POPC   C4B37378  32.357   2.511   7.650
 6108POPC   NC337379  28.379  40.049   9.450
 6108POPC   PO437380  28.320  40.015   9.150
 6108POPC   GL137381  28.395  40.027   8.850
 6108POPC   GL237382  28.392  40.166   8.850
 6108POPC   C1A37383  28.320  40.053   8.550
 6108POPC   D2A37384  28.347  39.989   8.250
 6108POPC   C3A37385  28.338  40.001   7.950
 6108POPC   C4A37386  28.319  40.030   7.650
 6108POPC   C1B37387  28.463  40.257   8.550
 6108POPC   C2B37388  28.471  40.197   8.250
 6108POPC   C3B37389  28.467  40.269   7.950
 6108POPC   C4B37390  28.461  40.268   7.650
 6109POPC   NC337391   4.335  15.226   9.450
 6109POPC   PO437392   4.341  15.179   9.150
 6109POPC   GL137393   4.323  15.170   8.850
 6109POPC   GL237394   4.404  15.157   8.850
 6109POPC   C1A37395   4.289  15.206   8.550
 6109POPC   D2A37396   4.302  15.173   8.250
 6109POPC   C3A37397   4.323  15.185   7.950
 6109POPC   C4A37398   4.340  15.145   7.650
 6109POPC   C1B37399   4.545  15.039   8.550
 6109POPC   C2B37400   4.525  14.998   8.250
 6109POPC   C3B37401   4.507  15.064   7.950
 6109POPC   C4B37402   4.538  15.074   7.650
 6110POPC   NC337403  39.273  21.425   9.450
 6110POPC   PO437404  39.215  21.430   9.150
 6110POPC   GL137405  39.189  21.404   8.850
 6110POPC   GL237406  39.158  21.477   8.850
 6110POPC   C1A37407  39.250  21.362   8.550
 6110POPC   D2A37408  39.274  21.338   8.250
 6110POPC   C3A37409  39.202  21.429   7.950
 6110POPC   C4A37410  39.279  21.410   7.650
 6110POPC   C1B37411  39.081  21.646   8.550
 6110POPC   C2B37412  39.078  21.614   8.250
 6110POPC   C3B37413  39.148  21.603   7.950
 6110POPC   C4B37414  39.134  21.562   7.650
 6111POPC   NC337415  12.866   8.246   9.450
 6111POPC   PO437416  12.885   8.148   9.150
 6111POPC   GL137417  12.834   8.245   8.850
 6111POPC   GL237418  12.716   8.204   8.850
 6111POPC   C1A37419  12.855   8.179   8.550
 6111POPC   D2A37420  12.813   8.164   8.250
 6111POPC   C3A37421  12.875   8.172   7.950
 6111POPC   C4A37422  12.835   8.193   7.650
 6111POPC   C1B37423  12.602   8.205   8.550
 6111POPC   C2B37424  12.620   8.194   8.250
 6111POPC   C3B37425  12.586   8.214   7.950
 6111POPC   C4B37426  12.599   8.260   7.650
 6112POPC   NC337427   0.457   9.005   9.450
 6112POPC   PO437428   0.444   8.965   9.150
 6112POPC   GL137429   0.472   8.927   8.850
 6112POPC   GL237430   0.454   9.080   8.850
 6112POPC   C1A37431   0.390   8.952   8.550
 6112POPC   D2A37432   0.404   9.018   8.250
 6112POPC   C3A37433   0.417   8.987   7.950
 6112POPC   C4A37434   0.463   8.988   7.650
 6112POPC   C1B37435   0.484   9.205   8.550
 6112POPC   C2B37436   0.532   9.242   8.250
 6112POPC   C3B37437   0.546   9.213   7.950
 6112POPC   C4B37438   0.492   9.202   7.650
 6113POPC   NC337439  31.495   0.400   9.450
 6113POPC   PO437440  31.489   0.451   9.150
 6113POPC   GL137441  31.461   0.468   8.850
 6113POPC   GL237442  31.506   0.311   8.850
 6113POPC   C1A37443  31.508   0.443   8.550
 6113POPC   D2A37444  31.512   0.397   8.250
 6113POPC   C3A37445  31.449   0.396   7.950
 6113POPC   C4A37446  31.439   0.468   7.650
 6113POPC   C1B37447  31.612   0.200   8.550
 6113POPC   C2B37448  31.605   0.235   8.250
 6113POPC   C3B37449  31.634   0.287   7.950
 6113POPC   C4B37450  31.654   0.259   7.650
 6114POPC   NC337451  21.411   2.791   9.450
 6114POPC   PO437452  21.357   2.772   9.150
 6114POPC   GL137453  21.362   2.757   8.850
 6114POPC   GL237454  21.480   2.651   8.850
 6114POPC   C1A37455  21.337   2.731   8.550
 6114POPC   D2A37456  21.391   2.733   8.250
 6114POPC   C3A37457  21.372   2.743   7.950
 6114POPC   C4A37458  21.394   2.795   7.650
 6114POPC   C1B37459  21.559   2.575   8.550
 6114POPC   C2B37460  21.616   2.654   8.250
 6114POPC   C3B37461  21.598   2.634   7.950
 6114POPC   C4B37462  21.566   2.617   7.650
 6115POPC   NC337463  36.131  24.471   9.450
 6115POPC   PO437464  36.151  24.476   9.150
 6115POPC   GL137465  36.161  24.462   8.850
 6115POPC   GL237466  36.042  24.561   8.850
 6115POPC   C1A37467  36.139  24.484   8.550
 6115POPC   D2A37468  36.166  24.484   8.250
 6115POPC   C3A37469  36.097  24.457   7.950
 6115POPC   C4A37470  36.102  24.503   7.650
 6115POPC   C1B37471  35.938  24.598   8.550
 6115POPC   C2B37472  35.881  24.637   8.250
 6115POPC   C3B37473  35.925  24.569   7.950
 6115POPC   C4B37474  35.855  24.614   7.650
 6116POPC   NC337475  15.997  30.675   9.450
 6116POPC   PO437476  15.915  30.717   9.150
 6116POPC   GL137477  15.932  30.705   8.850
 6116POPC   GL237478  16.044  30.790   8.850
 6116POPC   C1A37479  15.997  30.740   8.550
 6116POPC   D2A37480  15.955  30.684   8.250
 6116POPC   C3A37481  15.945  30.667   7.950
 6116POPC   C4A37482  15.932  30.715   7.650
 6116POPC   C1B37483  16.137  30.821   8.550
 6116POPC   C2B37484  16.107  30.814   8.250
 6116POPC   C3B37485  16.119  30.892   7.950
 6116POPC   C4B37486  16.178  30.896   7.650
 6117POPC   NC337487  31.427  18.293   9.450
 6117POPC   PO437488  31.426  18.328   9.150
 6117POPC   GL137489  31.464  18.308   8.850
 6117POPC   GL237490  31.619  18.350   8.850
 6117POPC   C1A37491  31.490  18.266   8.550
 6117POPC   D2A37492  31.466  18.233   8.250
 6117POPC   C3A37493  31.429  18.280   7.950
 6117POPC   C4A37494  31.455  18.292   7.650
 6117POPC   C1B37495  31.680  18.322   8.550
 6117POPC   C2B37496  31.734  18.339   8.250
 6117POPC   C3B37497  31.728  18.290   7.950
 6117POPC   C4B37498  31.765  18.346   7.650
 6118POPC   NC337499  31.505  19.081   9.450
 6118POPC   PO437500  31.443  19.072   9.150
 6118POPC   GL137501  31.501  19.063   8.850
 6118POPC   GL237502  31.614  19.034   8.850
 6118POPC   C1A37503  31.434  19.085   8.550
 6118POPC   D2A37504  31.440  19.053   8.250
 6118POPC   C3A37505  31.510  19.108   7.950
 6118POPC   C4A37506  31.482  19.024   7.650
 6118POPC   C1B37507  31.771  19.062   8.550
 6118POPC   C2B37508  31.743  19.066   8.250
 6118POPC   C3B37509  31.698  19.062   7.950
 6118POPC   C4B37510  31.691  19.071   7.650
 6119POPC   NC337511  12.102  40.737   9.450
 6119POPC   PO437512  12.060  40.798   9.150
 6119POPC   GL137513  12.069  40.781   8.850
 6119POPC   GL237514  12.038  40.677   8.850
 6119POPC   C1A37515  12.040  40.810   8.550
 6119POPC   D2A37516  12.070  40.752   8.250
 6119POPC   C3A37517  12.065  40.775   7.950
 6119POPC   C4A37518  12.053  40.786   7.650
 6119POPC   C1B37519  11.956  40.594   8.550
 6119POPC   C2B37520  11.974  40.519   8.250
 6119POPC   C3B37521  11.982  40.511   7.950
 6119POPC   C4B37522  12.002  40.515   7.650
 6120POPC   NC337523  32.285  30.705   9.450
 6120POPC   PO437524  32.262  30.716   9.150
 6120POPC   GL137525  32.246  30.684   8.850
 6120POPC   GL237526  32.310  30.786   8.850
 6120POPC   C1A37527  32.199  30.733   8.550
 6120POPC   D2A37528  32.246  30.736   8.250
 6120POPC   C3A37529  32.260  30.728   7.950
 6120POPC   C4A37530  32.290  30.653   7.650
 6120POPC   C1B37531  32.395  30.913   8.550
 6120POPC   C2B37532  32.323  30.937   8.250
 6120POPC   C3B37533  32.313  30.895   7.950
 6120POPC   C4B37534  32.373  30.904   7.650
 6121POPC   NC337535  25.287  14.357   9.450
 6121POPC   PO437536  25.309  14.381   9.150
 6121POPC   GL137537  25.254  14.363   8.850
 6121POPC   GL237538  25.395  14.344   8.850
 6121POPC   C1A37539  25.305  14.437   8.550
 6121POPC   D2A37540  25.301  14.450   8.250
 6121POPC   C3A37541  25.313  14.360   7.950
 6121POPC   C4A37542  25.280  14.432   7.650
 6121POPC   C1B37543  25.498  14.356   8.550
 6121POPC   C2B37544  25.473  14.321   8.250
 6121POPC   C3B37545  25.560  14.343   7.950
 6121POPC   C4B37546  25.481  14.370   7.650
 6122POPC   NC337547  37.639   7.450   9.450
 6122POPC   PO437548  37.700   7.398   9.150
 6122POPC   GL137549  37.673   7.425   8.850
 6122POPC   GL237550  37.594   7.429   8.850
 6122POPC   C1A37551  37.695   7.388   8.550
 6122POPC   D2A37552  37.695   7.371   8.250
 6122POPC   C3A37553  37.704   7.454   7.950
 6122POPC   C4A37554  37.727   7.411   7.650
 6122POPC   C1B37555  37.419   7.472   8.550
 6122POPC   C2B37556  37.419   7.544   8.250
 6122POPC   C3B37557  37.414   7.520   7.950
 6122POPC   C4B37558  37.399   7.479   7.650
 6123POPC   NC337559  43.064  36.923   9.450
 6123POPC   PO437560  43.062  36.869   9.150
 6123POPC   GL137561  43.152  36.863   8.850
 6123POPC   GL237562  43.061  36.993   8.850
 6123POPC   C1A37563  43.070  36.939   8.550
 6123POPC   D2A37564  43.131  36.885   8.250
 6123POPC   C3A37565  43.068  36.904   7.950
 6123POPC   C4A37566  43.147  36.936   7.650
 6123POPC   C1B37567  42.962  37.081   8.550
 6123POPC   C2B37568  42.927  37.046   8.250
 6123POPC   C3B37569  42.947  37.046   7.950
 6123POPC   C4B37570  42.886  37.058   7.650
 6124POPC   NC337571  19.883  37.702   9.450
 6124POPC   PO437572  19.829  37.661   9.150
 6124POPC   GL137573  19.851  37.632   8.850
 6124POPC   GL237574  19.938  37.820   8.850
 6124POPC   C1A37575  19.859  37.700   8.550
 6124POPC   D2A37576  19.797  37.639   8.250
 6124POPC   C3A37577  19.833  37.659   7.950
 6124POPC   C4A37578  19.871  37.663   7.650
 6124POPC   C1B37579  19.960  37.923   8.550
 6124POPC   C2B37580  19.911  37.879   8.250
 6124POPC   C3B37581  19.983  37.924   7.950
 6124POPC   C4B37582  19.919  37.894   7.650
 6125POPC   NC337583   5.910  42.376   9.450
 6125POPC   PO437584   5.844  42.341   9.150
 6125POPC   GL137585   5.860  42.360   8.850
 6125POPC   GL237586   5.822  42.420   8.850
 6125POPC   C1A37587   5.862  42.381   8.550
 6125POPC   D2A37588   5.875  42.294   8.250
 6125POPC   C3A37589   5.894  42.357   7.950
 6125POPC   C4A37590   5.820  42.297   7.650
 6125POPC   C1B37591   5.736  42.533   8.550
 6125POPC   C2B37592   5.672  42.508   8.250
 6125POPC   C3B37593   5.700  42.572   7.950
 6125POPC   C4B37594   5.708  42.511   7.650
 6126POPC   NC337595  32.985   4.329   9.450
 6126POPC   PO437596  33.014   4.347   9.150
 6126POPC   GL137597  33.024   4.355   8.850
 6126POPC   GL237598  33.058   4.445   8.850
 6126POPC   C1A37599  32.980   4.303   8.550
 6126POPC   D2A37600  33.067   4.367   8.250
 6126POPC   C3A37601  33.066   4.299   7.950
 6126POPC   C4A37602  33.047   4.307   7.650
 6126POPC   C1B37603  33.141   4.522   8.550
 6126POPC   C2B37604  33.121   4.519   8.250
 6126POPC   C3B37605  33.187   4.544   7.950
 6126POPC   C4B37606  33.208   4.509   7.650
 6127POPC   NC337607  12.030  14.389   9.450
 6127POPC   PO437608  12.101  14.361   9.150
 6127POPC   GL137609  12.049  14.416   8.850
 6127POPC   GL237610  12.197  14.322   8.850
 6127POPC   C1A37611  12.034  14.390   8.550
 6127POPC   D2A37612  12.113  14.380   8.250
 6127POPC   C3A37613  12.050  14.356   7.950
 6127POPC   C4A37614  12.089  14.404   7.650
 6127POPC   C1B37615  12.315  14.280   8.550
 6127POPC   C2B37616  12.310  14.281   8.250
 6127POPC   C3B37617  12.333  14.335   7.950
 6127POPC   C4B37618  12.323  14.343   7.650
 6128POPC   NC337619  41.514  29.937   9.450
 6128POPC   PO437620  41.541  29.877   9.150
 6128POPC   GL137621  41.564  29.939   8.850
 6128POPC   GL237622  41.638  29.940   8.850
 6128POPC   C1A37623  41.534  29.899   8.550
 6128POPC   D2A37624  41.589  29.894   8.250
 6128POPC   C3A37625  41.560  29.905   7.950
 6128POPC   C4A37626  41.527  29.942   7.650
 6128POPC   C1B37627  41.853  29.837   8.550
 6128POPC   C2B37628  41.811  29.831   8.250
 6128POPC   C3B37629  41.791  29.916   7.950
 6128POPC   C4B37630  41.848  29.830   7.650
 6129POPC   NC337631  33.800   0.388   9.450
 6129POPC   PO437632  33.760   0.456   9.150
 6129POPC   GL137633  33.794   0.389   8.850
 6129POPC   GL237634  33.709   0.549   8.850
 6129POPC   C1A37635  33.846   0.397   8.550
 6129POPC   D2A37636  33.753   0.418   8.250
 6129POPC   C3A37637  33.803   0.407   7.950
 6129POPC   C4A37638  33.770   0.426   7.650
 6129POPC   C1B37639  33.711   0.707   8.550
 6129POPC   C2B37640  33.666   0.645   8.250
 6129POPC   C3B37641  33.708   0.634   7.950
 6129POPC   C4B37642  33.693   0.654   7.650
 6130POPC   NC337643   8.178  43.847   9.450
 6130POPC   PO437644   8.156  43.907   9.150
 6130POPC   GL137645   8.151  43.927   8.850
 6130POPC   GL237646   8.269  43.939   8.850
 6130POPC   C1A37647   8.214  43.855   8.550
 6130POPC   D2A37648   8.237  43.860   8.250
 6130POPC   C3A37649   8.165  43.883   7.950
 6130POPC   C4A37650   8.228  43.892   7.650
 6130POPC   C1B37651   8.404  43.989   8.550
 6130POPC   C2B37652   8.426  44.014   8.250
 6130POPC   C3B37653   8.375  43.977   7.950
 6130POPC   C4B37654   8.412  43.956   7.650
 6131POPC   NC337655  15.978  21.383   9.450
 6131POPC   PO437656  15.995  21.413   9.150
 6131POPC   GL137657  15.948  21.343   8.850
 6131POPC   GL237658  15.873  21.301   8.850
 6131POPC   C1A37659  15.924  21.418   8.550
 6131POPC   D2A37660  15.938  21.355   8.250
 6131POPC   C3A37661  15.963  21.390   7.950
 6131POPC   C4A37662  15.972  21.348   7.650
 6131POPC   C1B37663  15.823  21.155   8.550
 6131POPC   C2B37664  15.808  21.226   8.250
 6131POPC   C3B37665  15.848  21.194   7.950
 6131POPC   C4B37666  15.831  21.217   7.650
 6132POPC   NC337667   6.668  44.705   9.450
 6132POPC   PO437668   6.663  44.650   9.150
 6132POPC   GL137669   6.651  44.642   8.850
 6132POPC   GL237670   6.767  44.703   8.850
 6132POPC   C1A37671   6.656  44.631   8.550
 6132POPC   D2A37672   6.672  44.700   8.250
 6132POPC   C3A37673   6.626  44.670   7.950
 6132POPC   C4A37674   6.596  44.615   7.650
 6132POPC   C1B37675   6.825  44.761   8.550
 6132POPC   C2B37676   6.829  44.808   8.250
 6132POPC   C3B37677   6.818  44.764   7.950
 6132POPC   C4B37678   6.901  44.762   7.650
 6133POPC   NC337679  34.541   1.947   9.450
 6133POPC   PO437680  34.584   1.940   9.150
 6133POPC   GL137681  34.543   1.972   8.850
 6133POPC   GL237682  34.581   1.906   8.850
 6133POPC   C1A37683  34.556   1.957   8.550
 6133POPC   D2A37684  34.619   2.003   8.250
 6133POPC   C3A37685  34.584   2.010   7.950
 6133POPC   C4A37686  34.570   2.030   7.650
 6133POPC   C1B37687  34.671   1.708   8.550
 6133POPC   C2B37688  34.609   1.744   8.250
 6133POPC   C3B37689  34.686   1.739   7.950
 6133POPC   C4B37690  34.695   1.764   7.650
 6134POPC   NC337691  25.244  26.828   9.450
 6134POPC   PO437692  25.274  26.830   9.150
 6134POPC   GL137693  25.303  26.816   8.850
 6134POPC   GL237694  25.235  26.948   8.850
 6134POPC   C1A37695  25.228  26.781   8.550
 6134POPC   D2A37696  25.256  26.807   8.250
 6134POPC   C3A37697  25.263  26.776   7.950
 6134POPC   C4A37698  25.261  26.816   7.650
 6134POPC   C1B37699  25.142  27.017   8.550
 6134POPC   C2B37700  25.159  27.021   8.250
 6134POPC   C3B37701  25.119  27.017   7.950
 6134POPC   C4B37702  25.160  27.080   7.650
 6135POPC   NC337703  21.366  17.465   9.450
 6135POPC   PO437704  21.365  17.552   9.150
 6135POPC   GL137705  21.350  17.489   8.850
 6135POPC   GL237706  21.485  17.628   8.850
 6135POPC   C1A37707  21.432  17.461   8.550
 6135POPC   D2A37708  21.341  17.480   8.250
 6135POPC   C3A37709  21.398  17.462   7.950
 6135POPC   C4A37710  21.399  17.462   7.650
 6135POPC   C1B37711  21.570  17.737   8.550
 6135POPC   C2B37712  21.570  17.735   8.250
 6135POPC   C3B37713  21.564  17.723   7.950
 6135POPC   C4B37714  21.570  17.740   7.650
 6136POPC   NC337715  33.781  14.428   9.450
 6136POPC   PO437716  33.840  14.445   9.150
 6136POPC   GL137717  33.777  14.424   8.850
 6136POPC   GL237718  33.872  14.352   8.850
 6136POPC   C1A37719  33.784  14.404   8.550
 6136POPC   D2A37720  33.774  14.354   8.250
 6136POPC   C3A37721  33.836  14.443   7.950
 6136POPC   C4A37722  33.834  14.378   7.650
 6136POPC   C1B37723  34.029  14.294   8.550
 6136POPC   C2B37724  34.054  14.288   8.250
 6136POPC   C3B37725  34.020  14.268   7.950
 6136POPC   C4B37726  33.977  14.296   7.650
 6137POPC   NC337727  41.608   1.223   9.450
 6137POPC   PO437728  41.521   1.207   9.150
 6137POPC   GL137729  41.583   1.171   8.850
 6137POPC   GL237730  41.481   1.128   8.850
 6137POPC   C1A37731  41.530   1.192   8.550
 6137POPC   D2A37732  41.519   1.168   8.250
 6137POPC   C3A37733  41.565   1.173   7.950
 6137POPC   C4A37734  41.548   1.169   7.650
 6137POPC   C1B37735  41.540   0.984   8.550
 6137POPC   C2B37736  41.529   0.940   8.250
 6137POPC   C3B37737  41.487   0.982   7.950
 6137POPC   C4B37738  41.533   0.960   7.650
 6138POPC   NC337739  29.948   1.246   9.450
 6138POPC   PO437740  29.957   1.173   9.150
 6138POPC   GL137741  29.940   1.262   8.850
 6138POPC   GL237742  29.768   1.195   8.850
 6138POPC   C1A37743  29.882   1.199   8.550
 6138POPC   D2A37744  29.963   1.263   8.250
 6138POPC   C3A37745  29.968   1.200   7.950
 6138POPC   C4A37746  29.920   1.218   7.650
 6138POPC   C1B37747  29.695   1.242   8.550
 6138POPC   C2B37748  29.637   1.217   8.250
 6138POPC   C3B37749  29.696   1.187   7.950
 6138POPC   C4B37750  29.717   1.265   7.650
 6139POPC   NC337751  22.909  20.636   9.450
 6139POPC   PO437752  22.922  20.585   9.150
 6139POPC   GL137753  22.941  20.570   8.850
 6139POPC   GL237754  22.838  20.676   8.850
 6139POPC   C1A37755  22.898  20.634   8.550
 6139POPC   D2A37756  22.925  20.577   8.250
 6139POPC   C3A37757  22.937  20.622   7.950
 6139POPC   C4A37758  22.965  20.570   7.650
 6139POPC   C1B37759  22.701  20.711   8.550
 6139POPC   C2B37760  22.757  20.794   8.250
 6139POPC   C3B37761  22.700  20.722   7.950
 6139POPC   C4B37762  22.763  20.790   7.650
 6140POPC   NC337763  22.199   3.555   9.450
 6140POPC   PO437764  22.184   3.533   9.150
 6140POPC   GL137765  22.206   3.513   8.850
 6140POPC   GL237766  22.191   3.706   8.850
 6140POPC   C1A37767  22.174   3.551   8.550
 6140POPC   D2A37768  22.164   3.523   8.250
 6140POPC   C3A37769  22.210   3.550   7.950
 6140POPC   C4A37770  22.192   3.540   7.650
 6140POPC   C1B37771  22.223   3.775   8.550
 6140POPC   C2B37772  22.207   3.820   8.250
 6140POPC   C3B37773  22.163   3.827   7.950
 6140POPC   C4B37774  22.192   3.753   7.650
 6141POPC   NC337775   9.775   3.552   9.450
 6141POPC   PO437776   9.758   3.574   9.150
 6141POPC   GL137777   9.706   3.587   8.850
 6141POPC   GL237778   9.905   3.499   8.850
 6141POPC   C1A37779   9.707   3.562   8.550
 6141POPC   D2A37780   9.774   3.547   8.250
 6141POPC   C3A37781   9.755   3.576   7.950
 6141POPC   C4A37782   9.711   3.497   7.650
 6141POPC   C1B37783  10.020   3.527   8.550
 6141POPC   C2B37784   9.964   3.529   8.250
 6141POPC   C3B37785   9.983   3.540   7.950
 6141POPC   C4B37786   9.958   3.494   7.650
 6142POPC   NC337787   7.423  17.510   9.450
 6142POPC   PO437788   7.431  17.508   9.150
 6142POPC   GL137789   7.380  17.460   8.850
 6142POPC   GL237790   7.333  17.470   8.850
 6142POPC   C1A37791   7.408  17.477   8.550
 6142POPC   D2A37792   7.391  17.478   8.250
 6142POPC   C3A37793   7.408  17.541   7.950
 6142POPC   C4A37794   7.453  17.459   7.650
 6142POPC   C1B37795   7.212  17.434   8.550
 6142POPC   C2B37796   7.149  17.377   8.250
 6142POPC   C3B37797   7.192  17.383   7.950
 6142POPC   C4B37798   7.209  17.413   7.650
 6143POPC   NC337799   3.492  26.052   9.450
 6143POPC   PO437800   3.524  26.024   9.150
 6143POPC   GL137801   3.528  26.001   8.850
 6143POPC   GL237802   3.690  25.934   8.850
 6143POPC   C1A37803   3.555  26.081   8.550
 6143POPC   D2A37804   3.519  26.082   8.250
 6143POPC   C3A37805   3.502  26.004   7.950
 6143POPC   C4A37806   3.499  26.039   7.650
 6143POPC   C1B37807   3.788  25.899   8.550
 6143POPC   C2B37808   3.713  25.904   8.250
 6143POPC   C3B37809   3.736  25.895   7.950
 6143POPC   C4B37810   3.791  25.942   7.650
 6144POPC   NC337811   4.277  33.039   9.450
 6144POPC   PO437812   4.284  33.067   9.150
 6144POPC   GL137813   4.282  33.056   8.850
 6144POPC   GL237814   4.325  33.124   8.850
 6144POPC   C1A37815   4.338  32.989   8.550
 6144POPC   D2A37816   4.332  33.029   8.250
 6144POPC   C3A37817   4.327  33.015   7.950
 6144POPC   C4A37818   4.356  33.035   7.650
 6144POPC   C1B37819   4.457  33.228   8.550
 6144POPC   C2B37820   4.459  33.238   8.250
 6144POPC   C3B37821   4.458  33.248   7.950
 6144POPC   C4B37822   4.432  33.259   7.650
 6145POPC   NC337823  27.574  34.581   9.450
 6145POPC   PO437824  27.563  34.590   9.150
 6145POPC   GL137825  27.624  34.615   8.850
 6145POPC   GL237826  27.710  34.617   8.850
 6145POPC   C1A37827  27.635  34.585   8.550
 6145POPC   D2A37828  27.586  34.585   8.250
 6145POPC   C3A37829  27.581  34.542   7.950
 6145POPC   C4A37830  27.627  34.544   7.650
 6145POPC   C1B37831  27.747  34.784   8.550
 6145POPC   C2B37832  27.788  34.687   8.250
 6145POPC   C3B37833  27.785  34.750   7.950
 6145POPC   C4B37834  27.804  34.690   7.650
 6146POPC   NC337835   8.185  31.442   9.450
 6146POPC   PO437836   8.162  31.489   9.150
 6146POPC   GL137837   8.199  31.432   8.850
 6146POPC   GL237838   8.317  31.508   8.850
 6146POPC   C1A37839   8.230  31.454   8.550
 6146POPC   D2A37840   8.211  31.464   8.250
 6146POPC   C3A37841   8.218  31.517   7.950
 6146POPC   C4A37842   8.167  31.467   7.650
 6146POPC   C1B37843   8.347  31.620   8.550
 6146POPC   C2B37844   8.351  31.589   8.250
 6146POPC   C3B37845   8.382  31.618   7.950
 6146POPC   C4B37846   8.374  31.665   7.650
 6147POPC   NC337847  40.772   9.796   9.450
 6147POPC   PO437848  40.754   9.733   9.150
 6147POPC   GL137849  40.735   9.737   8.850
 6147POPC   GL237850  40.885   9.715   8.850
 6147POPC   C1A37851  40.746   9.789   8.550
 6147POPC   D2A37852  40.744   9.777   8.250
 6147POPC   C3A37853  40.737   9.778   7.950
 6147POPC   C4A37854  40.756   9.798   7.650
 6147POPC   C1B37855  40.987   9.716   8.550
 6147POPC   C2B37856  41.003   9.728   8.250
 6147POPC   C3B37857  41.077   9.658   7.950
 6147POPC   C4B37858  40.988   9.739   7.650
 6148POPC   NC337859  18.306   4.347   9.450
 6148POPC   PO437860  18.259   4.330   9.150
 6148POPC   GL137861  18.261   4.304   8.850
 6148POPC   GL237862  18.158   4.384   8.850
 6148POPC   C1A37863  18.278   4.291   8.550
 6148POPC   D2A37864  18.270   4.318   8.250
 6148POPC   C3A37865  18.323   4.328   7.950
 6148POPC   C4A37866  18.306   4.343   7.650
 6148POPC   C1B37867  18.077   4.402   8.550
 6148POPC   C2B37868  18.002   4.403   8.250
 6148POPC   C3B37869  18.039   4.369   7.950
 6148POPC   C4B37870  18.087   4.371   7.650
 6149POPC   NC337871  44.673   5.059   9.450
 6149POPC   PO437872  44.700   5.055   9.150
 6149POPC   GL137873  44.683   5.048   8.850
 6149POPC   GL237874  44.738   5.064   8.850
 6149POPC   C1A37875  44.647   5.088   8.550
 6149POPC   D2A37876  44.651   5.117   8.250
 6149POPC   C3A37877  44.654   5.124   7.950
 6149POPC   C4A37878  44.661   5.046   7.650
 6149POPC   C1B37879  44.864   5.068   8.550
 6149POPC   C2B37880  44.907   5.093   8.250
 6149POPC   C3B37881  44.866   5.019   7.950
 6149POPC   C4B37882  44.900   5.062   7.650
 6150POPC   NC337883  40.740  42.303   9.450
 6150POPC   PO437884  40.819  42.334   9.150
 6150POPC   GL137885  40.735  42.360   8.850
 6150POPC   GL237886  40.706  42.333   8.850
 6150POPC   C1A37887  40.765  42.374   8.550
 6150POPC   D2A37888  40.789  42.301   8.250
 6150POPC   C3A37889  40.818  42.362   7.950
 6150POPC   C4A37890  40.828  42.327   7.650
 6150POPC   C1B37891  40.497  42.290   8.550
 6150POPC   C2B37892  40.567  42.279   8.250
 6150POPC   C3B37893  40.543  42.294   7.950
 6150POPC   C4B37894  40.552  42.265   7.650
 6151POPC   NC337895   5.827  35.399   9.450
 6151POPC   PO437896   5.869  35.336   9.150
 6151POPC   GL137897   5.915  35.375   8.850
 6151POPC   GL237898   5.880  35.448   8.850
 6151POPC   C1A37899   5.914  35.321   8.550
 6151POPC   D2A37900   5.886  35.356   8.250
 6151POPC   C3A37901   5.911  35.306   7.950
 6151POPC   C4A37902   5.843  35.391   7.650
 6151POPC   C1B37903   5.833  35.600   8.550
 6151POPC   C2B37904   5.903  35.601   8.250
 6151POPC   C3B37905   5.881  35.629   7.950
 6151POPC   C4B37906   5.823  35.585   7.650
 6152POPC   NC337907   1.942   5.081   9.450
 6152POPC   PO437908   2.014   5.126   9.150
 6152POPC   GL137909   1.968   5.080   8.850
 6152POPC   GL237910   2.059   5.152   8.850
 6152POPC   C1A37911   1.948   5.068   8.550
 6152POPC   D2A37912   2.030   5.057   8.250
 6152POPC   C3A37913   2.008   5.135   7.950
 6152POPC   C4A37914   1.958   5.071   7.650
 6152POPC   C1B37915   2.170   5.242   8.550
 6152POPC   C2B37916   2.161   5.183   8.250
 6152POPC   C3B37917   2.171   5.200   7.950
 6152POPC   C4B37918   2.157   5.262   7.650
 6153POPC   NC337919  25.270  29.131   9.450
 6153POPC   PO437920  25.241  29.158   9.150
 6153POPC   GL137921  25.228  29.110   8.850
 6153POPC   GL237922  25.405  29.175   8.850
 6153POPC   C1A37923  25.269  29.103   8.550
 6153POPC   D2A37924  25.239  29.187   8.250
 6153POPC   C3A37925  25.223  29.105   7.950
 6153POPC   C4A37926  25.237  29.107   7.650
 6153POPC   C1B37927  25.544  29.192   8.550
 6153POPC   C2B37928  25.545  29.223   8.250
 6153POPC   C3B37929  25.533  29.176   7.950
 6153POPC   C4B37930  25.532  29.260   7.650
 6154POPC   NC337931  44.678  16.709   9.450
 6154POPC   PO437932  44.639  16.771   9.150
 6154POPC   GL137933  44.615  16.706   8.850
 6154POPC   GL237934  44.662  16.863   8.850
 6154POPC   C1A37935  44.637  16.685   8.550
 6154POPC   D2A37936  44.642  16.780   8.250
 6154POPC   C3A37937  44.636  16.748   7.950
 6154POPC   C4A37938  44.649  16.738   7.650
 6154POPC   C1B37939  44.695  16.983   8.550
 6154POPC   C2B37940  44.709  16.969   8.250
 6154POPC   C3B37941  44.714  16.999   7.950
 6154POPC   C4B37942  44.772  16.994   7.650
 6155POPC   NC337943  43.899   3.495   9.450
 6155POPC   PO437944  43.882   3.567   9.150
 6155POPC   GL137945  43.873   3.569   8.850
 6155POPC   GL237946  43.746   3.565   8.850
 6155POPC   C1A37947  43.902   3.582   8.550
 6155POPC   D2A37948  43.849   3.578   8.250
 6155POPC   C3A37949  43.896   3.533   7.950
 6155POPC   C4A37950  43.859   3.534   7.650
 6155POPC   C1B37951  43.592   3.447   8.550
 6155POPC   C2B37952  43.643   3.504   8.250
 6155POPC   C3B37953  43.617   3.470   7.950
 6155POPC   C4B37954  43.611   3.537   7.650
 6156POPC   NC337955  36.159  27.544   9.450
 6156POPC   PO437956  36.152  27.554   9.150
 6156POPC   GL137957  36.101  27.623   8.850
 6156POPC   GL237958  36.214  27.662   8.850
 6156POPC   C1A37959  36.103  27.555   8.550
 6156POPC   D2A37960  36.101  27.558   8.250
 6156POPC   C3A37961  36.141  27.552   7.950
 6156POPC   C4A37962  36.171  27.631   7.650
 6156POPC   C1B37963  36.238  27.859   8.550
 6156POPC   C2B37964  36.275  27.824   8.250
 6156POPC   C3B37965  36.245  27.812   7.950
 6156POPC   C4B37966  36.229  27.794   7.650
 6157POPC   NC337967   5.092  15.214   9.450
 6157POPC   PO437968   5.122  15.176   9.150
 6157POPC   GL137969   5.090  15.137   8.850
 6157POPC   GL237970   5.021  15.106   8.850
 6157POPC   C1A37971   5.047  15.144   8.550
 6157POPC   D2A37972   5.046  15.144   8.250
 6157POPC   C3A37973   5.046  15.157   7.950
 6157POPC   C4A37974   5.133  15.204   7.650
 6157POPC   C1B37975   4.980  14.967   8.550
 6157POPC   C2B37976   4.976  14.975   8.250
 6157POPC   C3B37977   4.947  15.023   7.950
 6157POPC   C4B37978   4.960  15.012   7.650
 6158POPC   NC337979   1.947  29.143   9.450
 6158POPC   PO437980   2.003  29.108   9.150
 6158POPC   GL137981   2.007  29.109   8.850
 6158POPC   GL237982   1.925  29.250   8.850
 6158POPC   C1A37983   2.000  29.142   8.550
 6158POPC   D2A37984   2.005  29.134   8.250
 6158POPC   C3A37985   1.993  29.158   7.950
 6158POPC   C4A37986   1.964  29.187   7.650
 6158POPC   C1B37987   1.767  29.317   8.550
 6158POPC   C2B37988   1.812  29.348   8.250
 6158POPC   C3B37989   1.776  29.348   7.950
 6158POPC   C4B37990   1.839  29.279   7.650
 6159POPC   NC337991  40.828  19.089   9.450
 6159POPC   PO437992  40.783  19.068   9.150
 6159POPC   GL137993  40.818  19.009   8.850
 6159POPC   GL237994  40.794  18.886   8.850
 6159POPC   C1A37995  40.761  19.013   8.550
 6159POPC   D2A37996  40.734  19.029   8.250
 6159POPC   C3A37997  40.776  19.105   7.950
 6159POPC   C4A37998  40.742  19.036   7.650
 6159POPC   C1B37999  40.726  18.808   8.550
 6159POPC   C2B38000  40.805  18.838   8.250
 6159POPC   C3B38001  40.763  18.789   7.950
 6159POPC   C4B38002  40.755  18.812   7.650
 6160POPC   NC338003  38.496  11.262   9.450
 6160POPC   PO438004  38.443  11.325   9.150
 6160POPC   GL138005  38.473  11.297   8.850
 6160POPC   GL238006  38.597  11.206   8.850
 6160POPC   C1A38007  38.410  11.272   8.550
 6160POPC   D2A38008  38.477  11.310   8.250
 6160POPC   C3A38009  38.463  11.312   7.950
 6160POPC   C4A38010  38.476  11.339   7.650
 6160POPC   C1B38011  38.685  11.189   8.550
 6160POPC   C2B38012  38.690  11.229   8.250
 6160POPC   C3B38013  38.689  11.222   7.950
 6160POPC   C4B38014  38.645  11.173   7.650
 6161POPC   NC338015  29.123  34.554   9.450
 6161POPC   PO438016  29.182  34.613   9.150
 6161POPC   GL138017  29.111  34.623   8.850
 6161POPC   GL238018  29.059  34.630   8.850
 6161POPC   C1A38019  29.112  34.561   8.550
 6161POPC   D2A38020  29.100  34.557   8.250
 6161POPC   C3A38021  29.116  34.535   7.950
 6161POPC   C4A38022  29.167  34.539   7.650
 6161POPC   C1B38023  28.921  34.588   8.550
 6161POPC   C2B38024  28.926  34.596   8.250
 6161POPC   C3B38025  28.941  34.641   7.950
 6161POPC   C4B38026  28.921  34.620   7.650
 6162POPC   NC338027  31.424  33.844   9.450
 6162POPC   PO438028  31.520  33.841   9.150
 6162POPC   GL138029  31.502  33.788   8.850
 6162POPC   GL238030  31.344  33.874   8.850
 6162POPC   C1A38031  31.486  33.835   8.550
 6162POPC   D2A38032  31.426  33.832   8.250
 6162POPC   C3A38033  31.510  33.830   7.950
 6162POPC   C4A38034  31.516  33.802   7.650
 6162POPC   C1B38035  31.220  33.878   8.550
 6162POPC   C2B38036  31.191  33.819   8.250
 6162POPC   C3B38037  31.278  33.884   7.950
 6162POPC   C4B38038  31.255  33.819   7.650
 6163POPC   NC338039  39.237  19.786   9.450
 6163POPC   PO438040  39.229  19.789   9.150
 6163POPC   GL138041  39.194  19.798   8.850
 6163POPC   GL238042  39.296  19.987   8.850
 6163POPC   C1A38043  39.259  19.868   8.550
 6163POPC   D2A38044  39.247  19.808   8.250
 6163POPC   C3A38045  39.254  19.822   7.950
 6163POPC   C4A38046  39.265  19.860   7.650
 6163POPC   C1B38047  39.400  20.006   8.550
 6163POPC   C2B38048  39.358  20.031   8.250
 6163POPC   C3B38049  39.418  20.072   7.950
 6163POPC   C4B38050  39.374  20.049   7.650
 6164POPC   NC338051   4.294  31.458   9.450
 6164POPC   PO438052   4.334  31.482   9.150
 6164POPC   GL138053   4.280  31.509   8.850
 6164POPC   GL238054   4.410  31.510   8.850
 6164POPC   C1A38055   4.289  31.474   8.550
 6164POPC   D2A38056   4.302  31.491   8.250
 6164POPC   C3A38057   4.277  31.494   7.950
 6164POPC   C4A38058   4.350  31.423   7.650
 6164POPC   C1B38059   4.533  31.674   8.550
 6164POPC   C2B38060   4.534  31.594   8.250
 6164POPC   C3B38061   4.490  31.588   7.950
 6164POPC   C4B38062   4.511  31.620   7.650
 6165POPC   NC338063  12.107  13.628   9.450
 6165POPC   PO438064  12.043  13.650   9.150
 6165POPC   GL138065  12.046  13.616   8.850
 6165POPC   GL238066  12.174  13.737   8.850
 6165POPC   C1A38067  12.045  13.652   8.550
 6165POPC   D2A38068  12.085  13.593   8.250
 6165POPC   C3A38069  12.030  13.613   7.950
 6165POPC   C4A38070  12.044  13.675   7.650
 6165POPC   C1B38071  12.323  13.820   8.550
 6165POPC   C2B38072  12.253  13.758   8.250
 6165POPC   C3B38073  12.282  13.816   7.950
 6165POPC   C4B38074  12.279  13.789   7.650
 6166POPC   NC338075  44.660  10.475   9.450
 6166POPC   PO438076  44.691  10.517   9.150
 6166POPC   GL138077  44.661  10.561   8.850
 6166POPC   GL238078  44.744  10.523   8.850
 6166POPC   C1A38079  44.667  10.569   8.550
 6166POPC   D2A38080  44.661  10.518   8.250
 6166POPC   C3A38081  44.638  10.510   7.950
 6166POPC   C4A38082  44.661  10.543   7.650
 6166POPC   C1B38083  44.932  10.494   8.550
 6166POPC   C2B38084  44.916  10.523   8.250
 6166POPC   C3B38085  44.940  10.531   7.950
 6166POPC   C4B38086  44.955  10.541   7.650
 6167POPC   NC338087  12.859  28.417   9.450
 6167POPC   PO438088  12.875  28.335   9.150
 6167POPC   GL138089  12.876  28.404   8.850
 6167POPC   GL238090  12.858  28.245   8.850
 6167POPC   C1A38091  12.867  28.326   8.550
 6167POPC   D2A38092  12.890  28.369   8.250
 6167POPC   C3A38093  12.824  28.347   7.950
 6167POPC   C4A38094  12.842  28.403   7.650
 6167POPC   C1B38095  12.938  28.162   8.550
 6167POPC   C2B38096  12.854  28.123   8.250
 6167POPC   C3B38097  12.926  28.162   7.950
 6167POPC   C4B38098  12.868  28.097   7.650
 6168POPC   NC338099  22.956  13.609   9.450
 6168POPC   PO438100  22.957  13.676   9.150
 6168POPC   GL138101  22.960  13.598   8.850
 6168POPC   GL238102  22.864  13.608   8.850
 6168POPC   C1A38103  22.939  13.633   8.550
 6168POPC   D2A38104  22.906  13.675   8.250
 6168POPC   C3A38105  22.967  13.626   7.950
 6168POPC   C4A38106  22.888  13.601   7.650
 6168POPC   C1B38107  22.685  13.540   8.550
 6168POPC   C2B38108  22.745  13.535   8.250
 6168POPC   C3B38109  22.709  13.527   7.950
 6168POPC   C4B38110  22.775  13.534   7.650
 6169POPC   NC338111   1.948  23.715   9.450
 6169POPC   PO438112   1.972  23.749   9.150
 6169POPC   GL138113   1.961  23.719   8.850
 6169POPC   GL238114   2.017  23.562   8.850
 6169POPC   C1A38115   2.028  23.764   8.550
 6169POPC   D2A38116   1.979  23.710   8.250
 6169POPC   C3A38117   2.031  23.758   7.950
 6169POPC   C4A38118   1.965  23.707   7.650
 6169POPC   C1B38119   2.105  23.494   8.550
 6169POPC   C2B38120   2.034  23.520   8.250
 6169POPC   C3B38121   2.024  23.517   7.950
 6169POPC   C4B38122   2.083  23.427   7.650
 6170POPC   NC338123  24.506  18.239   9.450
 6170POPC   PO438124  24.485  18.281   9.150
 6170POPC   GL138125  24.444  18.311   8.850
 6170POPC   GL238126  24.602  18.355   8.850
 6170POPC   C1A38127  24.469  18.261   8.550
 6170POPC   D2A38128  24.508  18.308   8.250
 6170POPC   C3A38129  24.440  18.326   7.950
 6170POPC   C4A38130  24.533  18.234   7.650
 6170POPC   C1B38131  24.701  18.437   8.550
 6170POPC   C2B38132  24.665  18.421   8.250
 6170POPC   C3B38133  24.705  18.439   7.950
 6170POPC   C4B38134  24.699  18.395   7.650
 6171POPC   NC338135   0.436  36.914   9.450
 6171POPC   PO438136   0.402  36.866   9.150
 6171POPC   GL138137   0.426  36.854   8.850
 6171POPC   GL238138   0.371  36.835   8.850
 6171POPC   C1A38139   0.389  36.858   8.550
 6171POPC   D2A38140   0.482  36.903   8.250
 6171POPC   C3A38141   0.401  36.894   7.950
 6171POPC   C4A38142   0.418  36.897   7.650
 6171POPC   C1B38143   0.300  36.678   8.550
 6171POPC   C2B38144   0.382  36.719   8.250
 6171POPC   C3B38145   0.363  36.652   7.950
 6171POPC   C4B38146   0.337  36.657   7.650
 6172POPC   NC338147  27.543  36.106   9.450
 6172POPC   PO438148  27.613  36.169   9.150
 6172POPC   GL138149  27.615  36.085   8.850
 6172POPC   GL238150  27.649  36.230   8.850
 6172POPC   C1A38151  27.592  36.162   8.550
 6172POPC   D2A38152  27.574  36.111   8.250
 6172POPC   C3A38153  27.566  36.137   7.950
 6172POPC   C4A38154  27.615  36.142   7.650
 6172POPC   C1B38155  27.695  36.301   8.550
 6172POPC   C2B38156  27.677  36.307   8.250
 6172POPC   C3B38157  27.763  36.342   7.950
 6172POPC   C4B38158  27.675  36.334   7.650
 6173POPC   NC338159  16.768  37.722   9.450
 6173POPC   PO438160  16.716  37.666   9.150
 6173POPC   GL138161  16.701  37.631   8.850
 6173POPC   GL238162  16.889  37.612   8.850
 6173POPC   C1A38163  16.698  37.662   8.550
 6173POPC   D2A38164  16.741  37.649   8.250
 6173POPC   C3A38165  16.684  37.683   7.950
 6173POPC   C4A38166  16.749  37.727   7.650
 6173POPC   C1B38167  17.007  37.611   8.550
 6173POPC   C2B38168  16.938  37.615   8.250
 6173POPC   C3B38169  16.966  37.588   7.950
 6173POPC   C4B38170  16.973  37.565   7.650
 6174POPC   NC338171  42.287  36.150   9.450
 6174POPC   PO438172  42.364  36.142   9.150
 6174POPC   GL138173  42.384  36.127   8.850
 6174POPC   GL238174  42.438  36.257   8.850
 6174POPC   C1A38175  42.337  36.170   8.550
 6174POPC   D2A38176  42.298  36.149   8.250
 6174POPC   C3A38177  42.306  36.085   7.950
 6174POPC   C4A38178  42.361  36.144   7.650
 6174POPC   C1B38179  42.532  36.322   8.550
 6174POPC   C2B38180  42.485  36.321   8.250
 6174POPC   C3B38181  42.501  36.246   7.950
 6174POPC   C4B38182  42.564  36.311   7.650
 6175POPC   NC338183   2.793  26.070   9.450
 6175POPC   PO438184   2.759  26.081   9.150
 6175POPC   GL138185   2.730  26.076   8.850
 6175POPC   GL238186   2.676  26.032   8.850
 6175POPC   C1A38187   2.740  26.045   8.550
 6175POPC   D2A38188   2.753  26.009   8.250
 6175POPC   C3A38189   2.798  26.089   7.950
 6175POPC   C4A38190   2.732  26.009   7.650
 6175POPC   C1B38191   2.575  25.963   8.550
 6175POPC   C2B38192   2.548  26.006   8.250
 6175POPC   C3B38193   2.493  25.954   7.950
 6175POPC   C4B38194   2.533  25.968   7.650
 6176POPC   NC338195  27.631  18.272   9.450
 6176POPC   PO438196  27.617  18.308   9.150
 6176POPC   GL138197  27.580  18.316   8.850
 6176POPC   GL238198  27.715  18.302   8.850
 6176POPC   C1A38199  27.619  18.275   8.550
 6176POPC   D2A38200  27.629  18.270   8.250
 6176POPC   C3A38201  27.620  18.322   7.950
 6176POPC   C4A38202  27.575  18.240   7.650
 6176POPC   C1B38203  27.790  18.410   8.550
 6176POPC   C2B38204  27.770  18.454   8.250
 6176POPC   C3B38205  27.840  18.420   7.950
 6176POPC   C4B38206  27.778  18.424   7.650
 6177POPC   NC338207  29.170  10.478   9.450
 6177POPC   PO438208  29.178  10.532   9.150
 6177POPC   GL138209  29.158  10.557   8.850
 6177POPC   GL238210  29.265  10.498   8.850
 6177POPC   C1A38211  29.130  10.520   8.550
 6177POPC   D2A38212  29.164  10.532   8.250
 6177POPC   C3A38213  29.132  10.570   7.950
 6177POPC   C4A38214  29.157  10.511   7.650
 6177POPC   C1B38215  29.393  10.596   8.550
 6177POPC   C2B38216  29.405  10.528   8.250
 6177POPC   C3B38217  29.417  10.529   7.950
 6177POPC   C4B38218  29.363  10.546   7.650
 6178POPC   NC338219  36.156  10.561   9.450
 6178POPC   PO438220  36.159  10.503   9.150
 6178POPC   GL138221  36.118  10.561   8.850
 6178POPC   GL238222  36.228  10.382   8.850
 6178POPC   C1A38223  36.093  10.505   8.550
 6178POPC   D2A38224  36.095  10.528   8.250
 6178POPC   C3A38225  36.172  10.526   7.950
 6178POPC   C4A38226  36.134  10.527   7.650
 6178POPC   C1B38227  36.243  10.348   8.550
 6178POPC   C2B38228  36.224  10.342   8.250
 6178POPC   C3B38229  36.226  10.330   7.950
 6178POPC   C4B38230  36.222  10.271   7.650
 6179POPC   NC338231  38.501  12.118   9.450
 6179POPC   PO438232  38.411  12.114   9.150
 6179POPC   GL138233  38.478  12.050   8.850
 6179POPC   GL238234  38.303  12.070   8.850
 6179POPC   C1A38235  38.476  12.086   8.550
 6179POPC   D2A38236  38.424  12.095   8.250
 6179POPC   C3A38237  38.464  12.085   7.950
 6179POPC   C4A38238  38.423  12.028   7.650
 6179POPC   C1B38239  38.164  12.096   8.550
 6179POPC   C2B38240  38.193  12.066   8.250
 6179POPC   C3B38241  38.251  12.020   7.950
 6179POPC   C4B38242  38.191  12.031   7.650
 6180POPC   NC338243  10.484  15.997   9.450
 6180POPC   PO438244  10.552  16.003   9.150
 6180POPC   GL138245  10.516  15.939   8.850
 6180POPC   GL238246  10.534  15.875   8.850
 6180POPC   C1A38247  10.488  15.936   8.550
 6180POPC   D2A38248  10.536  15.979   8.250
 6180POPC   C3A38249  10.478  15.921   7.950
 6180POPC   C4A38250  10.484  15.993   7.650
 6180POPC   C1B38251  10.534  15.678   8.550
 6180POPC   C2B38252  10.509  15.706   8.250
 6180POPC   C3B38253  10.605  15.725   7.950
 6180POPC   C4B38254  10.522  15.711   7.650
 6181POPC   NC338255  33.021  15.928   9.450
 6181POPC   PO438256  33.028  15.948   9.150
 6181POPC   GL138257  32.979  15.966   8.850
 6181POPC   GL238258  32.955  15.791   8.850
 6181POPC   C1A38259  33.046  15.982   8.550
 6181POPC   D2A38260  33.031  15.908   8.250
 6181POPC   C3A38261  32.988  15.971   7.950
 6181POPC   C4A38262  33.063  15.962   7.650
 6181POPC   C1B38263  32.953  15.725   8.550
 6181POPC   C2B38264  32.966  15.721   8.250
 6181POPC   C3B38265  32.922  15.754   7.950
 6181POPC   C4B38266  32.903  15.715   7.650
 6182POPC   NC338267  44.700   7.423   9.450
 6182POPC   PO438268  44.648   7.380   9.150
 6182POPC   GL138269  44.624   7.377   8.850
 6182POPC   GL238270  44.766   7.363   8.850
 6182POPC   C1A38271  44.677   7.408   8.550
 6182POPC   D2A38272  44.616   7.375   8.250
 6182POPC   C3A38273  44.688   7.427   7.950
 6182POPC   C4A38274  44.706   7.450   7.650
 6182POPC   C1B38275  44.916   7.308   8.550
 6182POPC   C2B38276  44.864   7.351   8.250
 6182POPC   C3B38277  44.862   7.368   7.950
 6182POPC   C4B38278  44.874   7.274   7.650
 6183POPC   NC338279  15.173   1.985   9.450
 6183POPC   PO438280  15.226   1.987   9.150
 6183POPC   GL138281  15.169   1.992   8.850
 6183POPC   GL238282  15.222   1.841   8.850
 6183POPC   C1A38283  15.212   2.017   8.550
 6183POPC   D2A38284  15.191   2.014   8.250
 6183POPC   C3A38285  15.201   2.014   7.950
 6183POPC   C4A38286  15.131   2.038   7.650
 6183POPC   C1B38287  15.256   1.736   8.550
 6183POPC   C2B38288  15.316   1.816   8.250
 6183POPC   C3B38289  15.323   1.750   7.950
 6183POPC   C4B38290  15.273   1.742   7.650
 6184POPC   NC338291  33.803  17.464   9.450
 6184POPC   PO438292  33.751  17.480   9.150
 6184POPC   GL138293  33.833  17.508   8.850
 6184POPC   GL238294  33.869  17.450   8.850
 6184POPC   C1A38295  33.798  17.473   8.550
 6184POPC   D2A38296  33.832  17.475   8.250
 6184POPC   C3A38297  33.755  17.541   7.950
 6184POPC   C4A38298  33.844  17.504   7.650
 6184POPC   C1B38299  34.003  17.336   8.550
 6184POPC   C2B38300  34.037  17.393   8.250
 6184POPC   C3B38301  33.967  17.343   7.950
 6184POPC   C4B38302  33.998  17.397   7.650
 6185POPC   NC338303  27.554  13.668   9.450
 6185POPC   PO438304  27.596  13.670   9.150
 6185POPC   GL138305  27.554  13.648   8.850
 6185POPC   GL238306  27.727  13.610   8.850
 6185POPC   C1A38307  27.624  13.620   8.550
 6185POPC   D2A38308  27.545  13.593   8.250
 6185POPC   C3A38309  27.640  13.599   7.950
 6185POPC   C4A38310  27.611  13.640   7.650
 6185POPC   C1B38311  27.839  13.543   8.550
 6185POPC   C2B38312  27.780  13.520   8.250
 6185POPC   C3B38313  27.809  13.528   7.950
 6185POPC   C4B38314  27.807  13.556   7.650
 6186POPC   NC338315   4.349   6.615   9.450
 6186POPC   PO438316   4.301   6.675   9.150
 6186POPC   GL138317   4.304   6.692   8.850
 6186POPC   GL238318   4.243   6.617   8.850
 6186POPC   C1A38319   4.294   6.623   8.550
 6186POPC   D2A38320   4.283   6.659   8.250
 6186POPC   C3A38321   4.288   6.611   7.950
 6186POPC   C4A38322   4.311   6.641   7.650
 6186POPC   C1B38323   4.125   6.516   8.550
 6186POPC   C2B38324   4.098   6.508   8.250
 6186POPC   C3B38325   4.129   6.573   7.950
 6186POPC   C4B38326   4.120   6.521   7.650
 6187POPC   NC338327  15.134  38.442   9.450
 6187POPC   PO438328  15.161  38.494   9.150
 6187POPC   GL138329  15.169  38.487   8.850
 6187POPC   GL238330  15.333  38.420   8.850
 6187POPC   C1A38331  15.202  38.434   8.550
 6187POPC   D2A38332  15.136  38.455   8.250
 6187POPC   C3A38333  15.168  38.484   7.950
 6187POPC   C4A38334  15.164  38.429   7.650
 6187POPC   C1B38335  15.377  38.359   8.550
 6187POPC   C2B38336  15.410  38.328   8.250
 6187POPC   C3B38337  15.340  38.290   7.950
 6187POPC   C4B38338  15.362  38.286   7.650
 6188POPC   NC338339  32.280  22.944   9.450
 6188POPC   PO438340  32.291  22.972   9.150
 6188POPC   GL138341  32.298  22.896   8.850
 6188POPC   GL238342  32.177  22.883   8.850
 6188POPC   C1A38343  32.277  22.970   8.550
 6188POPC   D2A38344  32.247  22.984   8.250
 6188POPC   C3A38345  32.209  22.987   7.950
 6188POPC   C4A38346  32.273  22.958   7.650
 6188POPC   C1B38347  32.144  22.760   8.550
 6188POPC   C2B38348  32.152  22.732   8.250
 6188POPC   C3B38349  32.116  22.683   7.950
 6188POPC   C4B38350  32.150  22.718   7.650
 6189POPC   NC338351  33.838  19.085   9.450
 6189POPC   PO438352  33.770  19.104   9.150
 6189POPC   GL138353  33.824  19.090   8.850
 6189POPC   GL238354  33.788  19.230   8.850
 6189POPC   C1A38355  33.776  19.036   8.550
 6189POPC   D2A38356  33.845  19.058   8.250
 6189POPC   C3A38357  33.836  19.105   7.950
 6189POPC   C4A38358  33.793  19.016   7.650
 6189POPC   C1B38359  33.769  19.334   8.550
 6189POPC   C2B38360  33.800  19.323   8.250
 6189POPC   C3B38361  33.816  19.262   7.950
 6189POPC   C4B38362  33.768  19.274   7.650
 6190POPC   NC338363  19.022  40.754   9.450
 6190POPC   PO438364  19.048  40.830   9.150
 6190POPC   GL138365  19.105  40.782   8.850
 6190POPC   GL238366  19.161  40.911   8.850
 6190POPC   C1A38367  19.029  40.815   8.550
 6190POPC   D2A38368  19.044  40.735   8.250
 6190POPC   C3A38369  19.089  40.781   7.950
 6190POPC   C4A38370  19.018  40.800   7.650
 6190POPC   C1B38371  19.231  41.024   8.550
 6190POPC   C2B38372  19.210  40.994   8.250
 6190POPC   C3B38373  19.156  40.989   7.950
 6190POPC   C4B38374  19.192  40.960   7.650
 6191POPC   NC338375  38.474   8.152   9.450
 6191POPC   PO438376  38.468   8.190   9.150
 6191POPC   GL138377  38.409   8.214   8.850
 6191POPC   GL238378  38.447   8.065   8.850
 6191POPC   C1A38379  38.434   8.178   8.550
 6191POPC   D2A38380  38.496   8.154   8.250
 6191POPC   C3A38381  38.455   8.153   7.950
 6191POPC   C4A38382  38.432   8.211   7.650
 6191POPC   C1B38383  38.379   7.974   8.550
 6191POPC   C2B38384  38.468   7.945   8.250
 6191POPC   C3B38385  38.432   7.954   7.950
 6191POPC   C4B38386  38.474   7.902   7.650
 6192POPC   NC338387  22.159  15.223   9.450
 6192POPC   PO438388  22.134  15.135   9.150
 6192POPC   GL138389  22.211  15.187   8.850
 6192POPC   GL238390  22.281  15.143   8.850
 6192POPC   C1A38391  22.176  15.220   8.550
 6192POPC   D2A38392  22.115  15.228   8.250
 6192POPC   C3A38393  22.171  15.182   7.950
 6192POPC   C4A38394  22.137  15.202   7.650
 6192POPC   C1B38395  22.356  15.032   8.550
 6192POPC   C2B38396  22.421  15.094   8.250
 6192POPC   C3B38397  22.411  15.107   7.950
 6192POPC   C4B38398  22.403  15.116   7.650
 6193POPC   NC338399  36.110   1.219   9.450
 6193POPC   PO438400  36.174   1.253   9.150
 6193POPC   GL138401  36.104   1.225   8.850
 6193POPC   GL238402  36.042   1.188   8.850
 6193POPC   C1A38403  36.143   1.251   8.550
 6193POPC   D2A38404  36.149   1.231   8.250
 6193POPC   C3A38405  36.163   1.202   7.950
 6193POPC   C4A38406  36.123   1.221   7.650
 6193POPC   C1B38407  35.948   1.073   8.550
 6193POPC   C2B38408  35.900   1.065   8.250
 6193POPC   C3B38409  35.873   1.051   7.950
 6193POPC   C4B38410  35.895   1.120   7.650
 6194POPC   NC338411   0.409  27.596   9.450
 6194POPC   PO438412   0.389  27.552   9.150
 6194POPC   GL138413   0.406  27.581   8.850
 6194POPC   GL238414   0.480  27.737   8.850
 6194POPC   C1A38415   0.390  27.621   8.550
 6194POPC   D2A38416   0.445  27.603   8.250
 6194POPC   C3A38417   0.462  27.637   7.950
 6194POPC   C4A38418   0.436  27.558   7.650
 6194POPC   C1B38419   0.531  27.875   8.550
 6194POPC   C2B38420   0.553  27.794   8.250
 6194POPC   C3B38421   0.525  27.873   7.950
 6194POPC   C4B38422   0.475  27.785   7.650
 6195POPC   NC338423  23.714   2.758   9.450
 6195POPC   PO438424  23.709   2.728   9.150
 6195POPC   GL138425  23.680   2.742   8.850
 6195POPC   GL238426  23.668   2.886   8.850
 6195POPC   C1A38427  23.704   2.759   8.550
 6195POPC   D2A38428  23.723   2.809   8.250
 6195POPC   C3A38429  23.720   2.735   7.950
 6195POPC   C4A38430  23.760   2.731   7.650
 6195POPC   C1B38431  23.498   2.985   8.550
 6195POPC   C2B38432  23.504   2.905   8.250
 6195POPC   C3B38433  23.518   2.989   7.950
 6195POPC   C4B38434  23.568   2.960   7.650
 6196POPC   NC338435  19.037  26.859   9.450
 6196POPC   PO438436  19.080  26.832   9.150
 6196POPC   GL138437  19.099  26.852   8.850
 6196POPC   GL238438  19.087  26.704   8.850
 6196POPC   C1A38439  19.088  26.819   8.550
 6196POPC   D2A38440  19.064  26.851   8.250
 6196POPC   C3A38441  19.048  26.809   7.950
 6196POPC   C4A38442  19.099  26.852   7.650
 6196POPC   C1B38443  19.014  26.577   8.550
 6196POPC   C2B38444  19.078  26.602   8.250
 6196POPC   C3B38445  19.012  26.553   7.950
 6196POPC   C4B38446  19.009  26.535   7.650
 6197POPC   NC338447  29.906   9.013   9.450
 6197POPC   PO438448  29.961   8.927   9.150
 6197POPC   GL138449  29.882   8.983   8.850
 6197POPC   GL238450  29.976   9.041   8.850
 6197POPC   C1A38451  29.941   8.980   8.550
 6197POPC   D2A38452  29.877   8.959   8.250
 6197POPC   C3A38453  29.886   8.993   7.950
 6197POPC   C4A38454  29.945   8.953   7.650
 6197POPC   C1B38455  30.019   9.176   8.550
 6197POPC   C2B38456  30.045   9.169   8.250
 6197POPC   C3B38457  29.994   9.191   7.950
 6197POPC   C4B38458  29.979   9.198   7.650
 6198POPC   NC338459  40.758  14.436   9.450
 6198POPC   PO438460  40.779  14.368   9.150
 6198POPC   GL138461  40.773  14.360   8.850
 6198POPC   GL238462  40.641  14.395   8.850
 6198POPC   C1A38463  40.821  14.402   8.550
 6198POPC   D2A38464  40.761  14.391   8.250
 6198POPC   C3A38465  40.737  14.354   7.950
 6198POPC   C4A38466  40.828  14.359   7.650
 6198POPC   C1B38467  40.549  14.344   8.550
 6198POPC   C2B38468  40.586  14.350   8.250
 6198POPC   C3B38469  40.564  14.306   7.950
 6198POPC   C4B38470  40.553  14.320   7.650
 6199POPC   NC338471  23.711  20.620   9.450
 6199POPC   PO438472  23.723  20.585   9.150
 6199POPC   GL138473  23.740  20.627   8.850
 6199POPC   GL238474  23.583  20.606   8.850
 6199POPC   C1A38475  23.723  20.629   8.550
 6199POPC   D2A38476  23.752  20.627   8.250
 6199POPC   C3A38477  23.748  20.584   7.950
 6199POPC   C4A38478  23.763  20.615   7.650
 6199POPC   C1B38479  23.474  20.713   8.550
 6199POPC   C2B38480  23.482  20.687   8.250
 6199POPC   C3B38481  23.438  20.742   7.950
 6199POPC   C4B38482  23.510  20.751   7.650
 6200POPC   NC338483  25.228  10.507   9.450
 6200POPC   PO438484  25.294  10.563   9.150
 6200POPC   GL138485  25.282  10.508   8.850
 6200POPC   GL238486  25.287  10.628   8.850
 6200POPC   C1A38487  25.249  10.549   8.550
 6200POPC   D2A38488  25.241  10.532   8.250
 6200POPC   C3A38489  25.285  10.556   7.950
 6200POPC   C4A38490  25.313  10.555   7.650
 6200POPC   C1B38491  25.337  10.800   8.550
 6200POPC   C2B38492  25.340  10.713   8.250
 6200POPC   C3B38493  25.364  10.755   7.950
 6200POPC   C4B38494  25.381  10.754   7.650
 6201POPC   NC338495  40.781  15.927   9.450
 6201POPC   PO438496  40.791  15.914   9.150
 6201POPC   GL138497  40.832  15.994   8.850
 6201POPC   GL238498  40.622  15.922   8.850
 6201POPC   C1A38499  40.763  15.985   8.550
 6201POPC   D2A38500  40.758  15.949   8.250
 6201POPC   C3A38501  40.798  15.952   7.950
 6201POPC   C4A38502  40.803  15.954   7.650
 6201POPC   C1B38503  40.530  15.852   8.550
 6201POPC   C2B38504  40.497  15.915   8.250
 6201POPC   C3B38505  40.584  15.939   7.950
 6201POPC   C4B38506  40.544  15.863   7.650
 6202POPC   NC338507  35.352  17.475   9.450
 6202POPC   PO438508  35.372  17.476   9.150
 6202POPC   GL138509  35.347  17.487   8.850
 6202POPC   GL238510  35.436  17.402   8.850
 6202POPC   C1A38511  35.343  17.521   8.550
 6202POPC   D2A38512  35.367  17.487   8.250
 6202POPC   C3A38513  35.365  17.507   7.950
 6202POPC   C4A38514  35.338  17.504   7.650
 6202POPC   C1B38515  35.493  17.281   8.550
 6202POPC   C2B38516  35.463  17.243   8.250
 6202POPC   C3B38517  35.407  17.318   7.950
 6202POPC   C4B38518  35.414  17.270   7.650
 6203POPC   NC338519  27.611  40.020   9.450
 6203POPC   PO438520  27.560  40.040   9.150
 6203POPC   GL138521  27.572  40.023   8.850
 6203POPC   GL238522  27.651  39.851   8.850
 6203POPC   C1A38523  27.612  40.025   8.550
 6203POPC   D2A38524  27.599  40.052   8.250
 6203POPC   C3A38525  27.626  39.958   7.950
 6203POPC   C4A38526  27.574  39.960   7.650
 6203POPC   C1B38527  27.680  39.773   8.550
 6203POPC   C2B38528  27.713  39.731   8.250
 6203POPC   C3B38529  27.678  39.804   7.950
 6203POPC   C4B38530  27.655  39.827   7.650
 6204POPC   NC338531   1.976   0.471   9.450
 6204POPC   PO438532   2.011   0.465   9.150
 6204POPC   GL138533   1.953   0.425   8.850
 6204POPC   GL238534   2.037   0.349   8.850
 6204POPC   C1A38535   1.949   0.422   8.550
 6204POPC   D2A38536   1.976   0.444   8.250
 6204POPC   C3A38537   2.034   0.390   7.950
 6204POPC   C4A38538   2.039   0.461   7.650
 6204POPC   C1B38539   2.099   0.232   8.550
 6204POPC   C2B38540   2.107   0.250   8.250
 6204POPC   C3B38541   2.123   0.214   7.950
 6204POPC   C4B38542   2.093   0.213   7.650
 6205POPC   NC338543  31.472  34.597   9.450
 6205POPC   PO438544  31.473  34.622   9.150
 6205POPC   GL138545  31.496  34.552   8.850
 6205POPC   GL238546  31.495  34.401   8.850
 6205POPC   C1A38547  31.430  34.564   8.550
 6205POPC   D2A38548  31.506  34.577   8.250
 6205POPC   C3A38549  31.435  34.556   7.950
 6205POPC   C4A38550  31.494  34.595   7.650
 6205POPC   C1B38551  31.461  34.373   8.550
 6205POPC   C2B38552  31.480  34.328   8.250
 6205POPC   C3B38553  31.444  34.308   7.950
 6205POPC   C4B38554  31.488  34.370   7.650
 6206POPC   NC338555   1.981  33.070   9.450
 6206POPC   PO438556   1.957  33.054   9.150
 6206POPC   GL138557   1.952  33.023   8.850
 6206POPC   GL238558   2.035  33.182   8.850
 6206POPC   C1A38559   2.033  33.033   8.550
 6206POPC   D2A38560   1.964  33.009   8.250
 6206POPC   C3A38561   1.988  33.021   7.950
 6206POPC   C4A38562   2.033  33.050   7.650
 6206POPC   C1B38563   1.993  33.274   8.550
 6206POPC   C2B38564   2.004  33.250   8.250
 6206POPC   C3B38565   2.030  33.272   7.950
 6206POPC   C4B38566   2.018  33.248   7.650
 6207POPC   NC338567  23.722  21.343   9.450
 6207POPC   PO438568  23.748  21.370   9.150
 6207POPC   GL138569  23.701  21.434   8.850
 6207POPC   GL238570  23.692  21.288   8.850
 6207POPC   C1A38571  23.746  21.386   8.550
 6207POPC   D2A38572  23.762  21.397   8.250
 6207POPC   C3A38573  23.755  21.414   7.950
 6207POPC   C4A38574  23.675  21.388   7.650
 6207POPC   C1B38575  23.697  21.123   8.550
 6207POPC   C2B38576  23.724  21.172   8.250
 6207POPC   C3B38577  23.777  21.145   7.950
 6207POPC   C4B38578  23.788  21.116   7.650
 6208POPC   NC338579   6.661  15.134   9.450
 6208POPC   PO438580   6.617  15.144   9.150
 6208POPC   GL138581   6.671  15.225   8.850
 6208POPC   GL238582   6.785  15.125   8.850
 6208POPC   C1A38583   6.648  15.163   8.550
 6208POPC   D2A38584   6.672  15.224   8.250
 6208POPC   C3A38585   6.640  15.213   7.950
 6208POPC   C4A38586   6.618  15.150   7.650
 6208POPC   C1B38587   6.897  15.100   8.550
 6208POPC   C2B38588   6.915  15.107   8.250
 6208POPC   C3B38589   6.856  15.163   7.950
 6208POPC   C4B38590   6.875  15.150   7.650
 6209POPC   NC338591  39.989  19.807   9.450
 6209POPC   PO438592  40.017  19.816   9.150
 6209POPC   GL138593  40.057  19.791   8.850
 6209POPC   GL238594  40.144  19.794   8.850
 6209POPC   C1A38595  40.023  19.829   8.550
 6209POPC   D2A38596  40.033  19.872   8.250
 6209POPC   C3A38597  39.974  19.821   7.950
 6209POPC   C4A38598  39.966  19.800   7.650
 6209POPC   C1B38599  40.212  19.746   8.550
 6209POPC   C2B38600  40.229  19.739   8.250
 6209POPC   C3B38601  40.234  19.725   7.950
 6209POPC   C4B38602  40.215  19.783   7.650
 6210POPC   NC338603  40.734  25.234   9.450
 6210POPC   PO438604  40.784  25.292   9.150
 6210POPC   GL138605  40.829  25.230   8.850
 6210POPC   GL238606  40.774  25.347   8.850
 6210POPC   C1A38607  40.829  25.278   8.550
 6210POPC   D2A38608  40.733  25.217   8.250
 6210POPC   C3A38609  40.782  25.310   7.950
 6210POPC   C4A38610  40.777  25.273   7.650
 6210POPC   C1B38611  40.784  25.476   8.550
 6210POPC   C2B38612  40.782  25.525   8.250
 6210POPC   C3B38613  40.740  25.505   7.950
 6210POPC   C4B38614  40.824  25.525   7.650
 6211POPC   NC338615  38.471   5.831   9.450
 6211POPC   PO438616  38.492   5.821   9.150
 6211POPC   GL138617  38.486   5.865   8.850
 6211POPC   GL238618  38.528   5.763   8.850
 6211POPC   C1A38619  38.502   5.877   8.550
 6211POPC   D2A38620  38.466   5.842   8.250
 6211POPC   C3A38621  38.491   5.864   7.950
 6211POPC   C4A38622  38.440   5.857   7.650
 6211POPC   C1B38623  38.634   5.730   8.550
 6211POPC   C2B38624  38.659   5.731   8.250
 6211POPC   C3B38625  38.614   5.709   7.950
 6211POPC   C4B38626  38.639   5.778   7.650
 6212POPC   NC338627  33.072   2.779   9.450
 6212POPC   PO438628  33.072   2.749   9.150
 6212POPC   GL138629  33.009   2.764   8.850
 6212POPC   GL238630  32.860   2.787   8.850
 6212POPC   C1A38631  33.067   2.809   8.550
 6212POPC   D2A38632  33.043   2.799   8.250
 6212POPC   C3A38633  33.031   2.752   7.950
 6212POPC   C4A38634  32.979   2.756   7.650
 6212POPC   C1B38635  32.790   2.800   8.550
 6212POPC   C2B38636  32.754   2.805   8.250
 6212POPC   C3B38637  32.745   2.809   7.950
 6212POPC   C4B38638  32.787   2.854   7.650
 6213POPC   NC338639  42.310  42.345   9.450
 6213POPC   PO438640  42.335  42.322   9.150
 6213POPC   GL138641  42.298  42.377   8.850
 6213POPC   GL238642  42.426  42.361   8.850
 6213POPC   C1A38643  42.303  42.376   8.550
 6213POPC   D2A38644  42.343  42.303   8.250
 6213POPC   C3A38645  42.312  42.323   7.950
 6213POPC   C4A38646  42.374  42.289   7.650
 6213POPC   C1B38647  42.575  42.413   8.550
 6213POPC   C2B38648  42.536  42.472   8.250
 6213POPC   C3B38649  42.540  42.471   7.950
 6213POPC   C4B38650  42.505  42.432   7.650
 6214POPC   NC338651  29.146   5.050   9.450
 6214POPC   PO438652  29.179   5.121   9.150
 6214POPC   GL138653  29.170   5.059   8.850
 6214POPC   GL238654  29.023   5.119   8.850
 6214POPC   C1A38655  29.141   5.122   8.550
 6214POPC   D2A38656  29.162   5.079   8.250
 6214POPC   C3A38657  29.114   5.124   7.950
 6214POPC   C4A38658  29.118   5.139   7.650
 6214POPC   C1B38659  28.940   5.143   8.550
 6214POPC   C2B38660  28.940   5.130   8.250
 6214POPC   C3B38661  28.943   5.199   7.950
 6214POPC   C4B38662  28.937   5.149   7.650
 6215POPC   NC338663  31.472  39.967   9.450
 6215POPC   PO438664  31.463  39.992   9.150
 6215POPC   GL138665  31.482  39.990   8.850
 6215POPC   GL238666  31.462  39.924   8.850
 6215POPC   C1A38667  31.505  39.980   8.550
 6215POPC   D2A38668  31.446  39.966   8.250
 6215POPC   C3A38669  31.477  39.984   7.950
 6215POPC   C4A38670  31.448  40.028   7.650
 6215POPC   C1B38671  31.408  39.754   8.550
 6215POPC   C2B38672  31.466  39.761   8.250
 6215POPC   C3B38673  31.431  39.766   7.950
 6215POPC   C4B38674  31.388  39.744   7.650
 6216POPC   NC338675   6.610  32.984   9.450
 6216POPC   PO438676   6.633  33.012   9.150
 6216POPC   GL138677   6.609  33.059   8.850
 6216POPC   GL238678   6.769  33.043   8.850
 6216POPC   C1A38679   6.602  33.015   8.550
 6216POPC   D2A38680   6.596  33.065   8.250
 6216POPC   C3A38681   6.618  33.061   7.950
 6216POPC   C4A38682   6.597  33.061   7.650
 6216POPC   C1B38683   6.881  32.962   8.550
 6216POPC   C2B38684   6.905  32.941   8.250
 6216POPC   C3B38685   6.895  32.940   7.950
 6216POPC   C4B38686   6.847  32.942   7.650
 6217POPC   NC338687  30.729  44.620   9.450
 6217POPC   PO438688  30.649  44.620   9.150
 6217POPC   GL138689  30.728  44.682   8.850
 6217POPC   GL238690  30.623  44.517   8.850
 6217POPC   C1A38691  30.721  44.681   8.550
 6217POPC   D2A38692  30.680  44.650   8.250
 6217POPC   C3A38693  30.708  44.640   7.950
 6217POPC   C4A38694  30.722  44.664   7.650
 6217POPC   C1B38695  30.596  44.444   8.550
 6217POPC   C2B38696  30.548  44.462   8.250
 6217POPC   C3B38697  30.571  44.397   7.950
 6217POPC   C4B38698  30.591  44.442   7.650
 6218POPC   NC338699  29.943   6.596   9.450
 6218POPC   PO438700  29.925   6.646   9.150
 6218POPC   GL138701  29.903   6.660   8.850
 6218POPC   GL238702  29.913   6.799   8.850
 6218POPC   C1A38703  29.960   6.664   8.550
 6218POPC   D2A38704  29.943   6.674   8.250
 6218POPC   C3A38705  29.884   6.598   7.950
 6218POPC   C4A38706  29.893   6.655   7.650
 6218POPC   C1B38707  29.943   6.846   8.550
 6218POPC   C2B38708  29.894   6.869   8.250
 6218POPC   C3B38709  29.934   6.897   7.950
 6218POPC   C4B38710  29.938   6.898   7.650
 6219POPC   NC338711  43.156  29.152   9.450
 6219POPC   PO438712  43.098  29.112   9.150
 6219POPC   GL138713  43.073  29.105   8.850
 6219POPC   GL238714  43.007  29.076   8.850
 6219POPC   C1A38715  43.131  29.126   8.550
 6219POPC   D2A38716  43.119  29.157   8.250
 6219POPC   C3A38717  43.078  29.140   7.950
 6219POPC   C4A38718  43.157  29.107   7.650
 6219POPC   C1B38719  42.909  29.020   8.550
 6219POPC   C2B38720  42.905  28.939   8.250
 6219POPC   C3B38721  42.956  28.945   7.950
 6219POPC   C4B38722  42.890  28.977   7.650
 6220POPC   NC338723  15.196  15.165   9.450
 6220POPC   PO438724  15.207  15.167   9.150
 6220POPC   GL138725  15.145  15.226   8.850
 6220POPC   GL238726  15.090  15.284   8.850
 6220POPC   C1A38727  15.168  15.175   8.550
 6220POPC   D2A38728  15.228  15.143   8.250
 6220POPC   C3A38729  15.225  15.198   7.950
 6220POPC   C4A38730  15.183  15.186   7.650
 6220POPC   C1B38731  14.956  15.277   8.550
 6220POPC   C2B38732  14.948  15.335   8.250
 6220POPC   C3B38733  14.961  15.310   7.950
 6220POPC   C4B38734  14.981  15.258   7.650
 6221POPC   NC338735   0.436  37.715   9.450
 6221POPC   PO438736   0.414  37.656   9.150
 6221POPC   GL138737   0.439  37.680   8.850
 6221POPC   GL238738   0.579  37.650   8.850
 6221POPC   C1A38739   0.487  37.656   8.550
 6221POPC   D2A38740   0.423  37.716   8.250
 6221POPC   C3A38741   0.475  37.667   7.950
 6221POPC   C4A38742   0.410  37.692   7.650
 6221POPC   C1B38743   0.695  37.655   8.550
 6221POPC   C2B38744   0.680  37.662   8.250
 6221POPC   C3B38745   0.661  37.610   7.950
 6221POPC   C4B38746   0.691  37.609   7.650
 6222POPC   NC338747  19.853   6.668   9.450
 6222POPC   PO438748  19.880   6.630   9.150
 6222POPC   GL138749  19.883   6.636   8.850
 6222POPC   GL238750  19.782   6.711   8.850
 6222POPC   C1A38751  19.868   6.647   8.550
 6222POPC   D2A38752  19.827   6.621   8.250
 6222POPC   C3A38753  19.856   6.656   7.950
 6222POPC   C4A38754  19.825   6.626   7.650
 6222POPC   C1B38755  19.616   6.863   8.550
 6222POPC   C2B38756  19.703   6.812   8.250
 6222POPC   C3B38757  19.681   6.833   7.950
 6222POPC   C4B38758  19.707   6.809   7.650
 6223POPC   NC338759   3.521   8.220   9.450
 6223POPC   PO438760   3.513   8.168   9.150
 6223POPC   GL138761   3.537   8.155   8.850
 6223POPC   GL238762   3.634   8.150   8.850
 6223POPC   C1A38763   3.497   8.177   8.550
 6223POPC   D2A38764   3.495   8.165   8.250
 6223POPC   C3A38765   3.589   8.196   7.950
 6223POPC   C4A38766   3.584   8.233   7.650
 6223POPC   C1B38767   3.834   8.197   8.550
 6223POPC   C2B38768   3.806   8.124   8.250
 6223POPC   C3B38769   3.762   8.109   7.950
 6223POPC   C4B38770   3.764   8.172   7.650
 6224POPC   NC338771  24.519  31.435   9.450
 6224POPC   PO438772  24.444  31.496   9.150
 6224POPC   GL138773  24.506  31.453   8.850
 6224POPC   GL238774  24.511  31.327   8.850
 6224POPC   C1A38775  24.480  31.462   8.550
 6224POPC   D2A38776  24.467  31.487   8.250
 6224POPC   C3A38777  24.530  31.422   7.950
 6224POPC   C4A38778  24.453  31.461   7.650
 6224POPC   C1B38779  24.501  31.257   8.550
 6224POPC   C2B38780  24.593  31.181   8.250
 6224POPC   C3B38781  24.533  31.238   7.950
 6224POPC   C4B38782  24.560  31.188   7.650
 6225POPC   NC338783  20.635  44.671   9.450
 6225POPC   PO438784  20.644  44.631   9.150
 6225POPC   GL138785  20.618  44.710   8.850
 6225POPC   GL238786  20.669  44.713   8.850
 6225POPC   C1A38787  20.660  44.672   8.550
 6225POPC   D2A38788  20.613  44.620   8.250
 6225POPC   C3A38789  20.588  44.664   7.950
 6225POPC   C4A38790  20.651  44.704   7.650
 6225POPC   C1B38791  20.821  44.864   8.550
 6225POPC   C2B38792  20.815  44.846   8.250
 6225POPC   C3B38793  20.823  44.812   7.950
 6225POPC   C4B38794  20.830  44.865   7.650
 6226POPC   NC338795   3.559  39.224   9.450
 6226POPC   PO438796   3.517  39.278   9.150
 6226POPC   GL138797   3.546  39.240   8.850
 6226POPC   GL238798   3.684  39.149   8.850
 6226POPC   C1A38799   3.553  39.190   8.550
 6226POPC   D2A38800   3.527  39.187   8.250
 6226POPC   C3A38801   3.494  39.265   7.950
 6226POPC   C4A38802   3.583  39.185   7.650
 6226POPC   C1B38803   3.793  39.091   8.550
 6226POPC   C2B38804   3.716  39.065   8.250
 6226POPC   C3B38805   3.805  39.081   7.950
 6226POPC   C4B38806   3.765  39.089   7.650
 6227POPC   NC338807   2.779  12.820   9.450
 6227POPC   PO438808   2.748  12.853   9.150
 6227POPC   GL138809   2.793  12.829   8.850
 6227POPC   GL238810   2.718  12.733   8.850
 6227POPC   C1A38811   2.717  12.868   8.550
 6227POPC   D2A38812   2.747  12.900   8.250
 6227POPC   C3A38813   2.763  12.858   7.950
 6227POPC   C4A38814   2.769  12.881   7.650
 6227POPC   C1B38815   2.619  12.715   8.550
 6227POPC   C2B38816   2.635  12.631   8.250
 6227POPC   C3B38817   2.587  12.627   7.950
 6227POPC   C4B38818   2.618  12.680   7.650
 6228POPC   NC338819  27.584  41.526   9.450
 6228POPC   PO438820  27.606  41.566   9.150
 6228POPC   GL138821  27.596  41.604   8.850
 6228POPC   GL238822  27.523  41.656   8.850
 6228POPC   C1A38823  27.598  41.538   8.550
 6228POPC   D2A38824  27.638  41.557   8.250
 6228POPC   C3A38825  27.550  41.532   7.950
 6228POPC   C4A38826  27.567  41.545   7.650
 6228POPC   C1B38827  27.444  41.733   8.550
 6228POPC   C2B38828  27.433  41.747   8.250
 6228POPC   C3B38829  27.515  41.769   7.950
 6228POPC   C4B38830  27.437  41.740   7.650
 6229POPC   NC338831  25.274  16.762   9.450
 6229POPC   PO438832  25.229  16.716   9.150
 6229POPC   GL138833  25.260  16.703   8.850
 6229POPC   GL238834  25.156  16.692   8.850
 6229POPC   C1A38835  25.298  16.744   8.550
 6229POPC   D2A38836  25.285  16.710   8.250
 6229POPC   C3A38837  25.233  16.697   7.950
 6229POPC   C4A38838  25.293  16.771   7.650
 6229POPC   C1B38839  24.999  16.719   8.550
 6229POPC   C2B38840  25.026  16.683   8.250
 6229POPC   C3B38841  25.011  16.711   7.950
 6229POPC   C4B38842  25.062  16.662   7.650
 6230POPC   NC338843  16.726  29.137   9.450
 6230POPC   PO438844  16.756  29.135   9.150
 6230POPC   GL138845  16.692  29.126   8.850
 6230POPC   GL238846  16.615  29.216   8.850
 6230POPC   C1A38847  16.728  29.186   8.550
 6230POPC   D2A38848  16.735  29.176   8.250
 6230POPC   C3A38849  16.704  29.113   7.950
 6230POPC   C4A38850  16.702  29.159   7.650
 6230POPC   C1B38851  16.516  29.304   8.550
 6230POPC   C2B38852  16.515  29.309   8.250
 6230POPC   C3B38853  16.544  29.294   7.950
 6230POPC   C4B38854  16.559  29.344   7.650
 6231POPC   NC338855  16.724   3.580   9.450
 6231POPC   PO438856  16.707   3.566   9.150
 6231POPC   GL138857  16.683   3.504   8.850
 6231POPC   GL238858  16.661   3.480   8.850
 6231POPC   C1A38859  16.757   3.503   8.550
 6231POPC   D2A38860  16.781   3.548   8.250
 6231POPC   C3A38861  16.734   3.538   7.950
 6231POPC   C4A38862  16.778   3.507   7.650
 6231POPC   C1B38863  16.529   3.376   8.550
 6231POPC   C2B38864  16.607   3.346   8.250
 6231POPC   C3B38865  16.588   3.351   7.950
 6231POPC   C4B38866  16.569   3.337   7.650
 6232POPC   NC338867   8.182   6.646   9.450
 6232POPC   PO438868   8.232   6.694   9.150
 6232POPC   GL138869   8.242   6.628   8.850
 6232POPC   GL238870   8.262   6.722   8.850
 6232POPC   C1A38871   8.171   6.637   8.550
 6232POPC   D2A38872   8.160   6.683   8.250
 6232POPC   C3A38873   8.168   6.614   7.950
 6232POPC   C4A38874   8.242   6.668   7.650
 6232POPC   C1B38875   8.401   6.839   8.550
 6232POPC   C2B38876   8.407   6.846   8.250
 6232POPC   C3B38877   8.349   6.784   7.950
 6232POPC   C4B38878   8.352   6.827   7.650
 6233POPC   NC338879  30.729  30.685   9.450
 6233POPC   PO438880  30.719  30.687   9.150
 6233POPC   GL138881  30.657  30.717   8.850
 6233POPC   GL238882  30.797  30.664   8.850
 6233POPC   C1A38883  30.709  30.717   8.550
 6233POPC   D2A38884  30.665  30.728   8.250
 6233POPC   C3A38885  30.662  30.672   7.950
 6233POPC   C4A38886  30.709  30.690   7.650
 6233POPC   C1B38887  30.966  30.669   8.550
 6233POPC   C2B38888  30.989  30.654   8.250
 6233POPC   C3B38889  30.943  30.693   7.950
 6233POPC   C4B38890  30.946  30.667   7.650
 6234POPC   NC338891  10.505  19.106   9.450
 6234POPC   PO438892  10.572  19.062   9.150
 6234POPC   GL138893  10.567  19.076   8.850
 6234POPC   GL238894  10.472  19.166   8.850
 6234POPC   C1A38895  10.542  19.094   8.550
 6234POPC   D2A38896  10.521  19.081   8.250
 6234POPC   C3A38897  10.563  19.019   7.950
 6234POPC   C4A38898  10.496  19.058   7.650
 6234POPC   C1B38899  10.388  19.317   8.550
 6234POPC   C2B38900  10.368  19.319   8.250
 6234POPC   C3B38901  10.371  19.252   7.950
 6234POPC   C4B38902  10.386  19.291   7.650
 6235POPC   NC338903  25.249   3.549   9.450
 6235POPC   PO438904  25.218   3.552   9.150
 6235POPC   GL138905  25.219   3.496   8.850
 6235POPC   GL238906  25.402   3.638   8.850
 6235POPC   C1A38907  25.306   3.509   8.550
 6235POPC   D2A38908  25.308   3.578   8.250
 6235POPC   C3A38909  25.218   3.497   7.950
 6235POPC   C4A38910  25.241   3.506   7.650
 6235POPC   C1B38911  25.445   3.738   8.550
 6235POPC   C2B38912  25.432   3.726   8.250
 6235POPC   C3B38913  25.483   3.752   7.950
 6235POPC   C4B38914  25.487   3.712   7.650
 6236POPC   NC338915  43.913  33.034   9.450
 6236POPC   PO438916  43.888  33.022   9.150
 6236POPC   GL138917  43.865  33.015   8.850
 6236POPC   GL238918  43.888  33.117   8.850
 6236POPC   C1A38919  43.868  33.006   8.550
 6236POPC   D2A38920  43.936  33.039   8.250
 6236POPC   C3A38921  43.875  33.044   7.950
 6236POPC   C4A38922  43.889  33.021   7.650
 6236POPC   C1B38923  43.760  33.227   8.550
 6236POPC   C2B38924  43.763  33.212   8.250
 6236POPC   C3B38925  43.770  33.305   7.950
 6236POPC   C4B38926  43.812  33.218   7.650
 6237POPC   NC338927  40.803   1.215   9.450
 6237POPC   PO438928  40.832   1.233   9.150
 6237POPC   GL138929  40.749   1.194   8.850
 6237POPC   GL238930  40.756   1.136   8.850
 6237POPC   C1A38931  40.743   1.223   8.550
 6237POPC   D2A38932  40.792   1.179   8.250
 6237POPC   C3A38933  40.803   1.246   7.950
 6237POPC   C4A38934  40.792   1.204   7.650
 6237POPC   C1B38935  40.776   0.995   8.550
 6237POPC   C2B38936  40.772   0.981   8.250
 6237POPC   C3B38937  40.806   0.957   7.950
 6237POPC   C4B38938  40.811   0.996   7.650
 6238POPC   NC338939  35.393  43.082   9.450
 6238POPC   PO438940  35.318  43.147   9.150
 6238POPC   GL138941  35.323  43.097   8.850
 6238POPC   GL238942  35.269  43.143   8.850
 6238POPC   C1A38943  35.388  43.106   8.550
 6238POPC   D2A38944  35.327  43.076   8.250
 6238POPC   C3A38945  35.373  43.153   7.950
 6238POPC   C4A38946  35.305  43.122   7.650
 6238POPC   C1B38947  35.196  43.249   8.550
 6238POPC   C2B38948  35.115  43.240   8.250
 6238POPC   C3B38949  35.177  43.264   7.950
 6238POPC   C4B38950  35.204  43.303   7.650
 6239POPC   NC338951   7.431  33.004   9.450
 6239POPC   PO438952   7.373  33.057   9.150
 6239POPC   GL138953   7.371  33.039   8.850
 6239POPC   GL238954   7.497  32.944   8.850
 6239POPC   C1A38955   7.431  33.057   8.550
 6239POPC   D2A38956   7.426  33.049   8.250
 6239POPC   C3A38957   7.384  32.991   7.950
 6239POPC   C4A38958   7.411  32.979   7.650
 6239POPC   C1B38959   7.555  32.846   8.550
 6239POPC   C2B38960   7.590  32.838   8.250
 6239POPC   C3B38961   7.571  32.797   7.950
 6239POPC   C4B38962   7.609  32.856   7.650
 6240POPC   NC338963  32.268  12.810   9.450
 6240POPC   PO438964  32.203  12.820   9.150
 6240POPC   GL138965  32.275  12.887   8.850
 6240POPC   GL238966  32.144  12.905   8.850
 6240POPC   C1A38967  32.212  12.853   8.550
 6240POPC   D2A38968  32.252  12.834   8.250
 6240POPC   C3A38969  32.233  12.847   7.950
 6240POPC   C4A38970  32.249  12.831   7.650
 6240POPC   C1B38971  32.064  13.002   8.550
 6240POPC   C2B38972  32.055  13.058   8.250
 6240POPC   C3B38973  32.059  13.028   7.950
 6240POPC   C4B38974  32.044  13.057   7.650
 6241POPC   NC338975  15.216  21.378   9.450
 6241POPC   PO438976  15.132  21.381   9.150
 6241POPC   GL138977  15.219  21.429   8.850
 6241POPC   GL238978  15.309  21.505   8.850
 6241POPC   C1A38979  15.223  21.413   8.550
 6241POPC   D2A38980  15.166  21.364   8.250
 6241POPC   C3A38981  15.155  21.394   7.950
 6241POPC   C4A38982  15.212  21.420   7.650
 6241POPC   C1B38983  15.384  21.528   8.550
 6241POPC   C2B38984  15.327  21.555   8.250
 6241POPC   C3B38985  15.353  21.531   7.950
 6241POPC   C4B38986  15.397  21.575   7.650
 6242POPC   NC338987  39.994  36.953   9.450
 6242POPC   PO438988  40.043  36.922   9.150
 6242POPC   GL138989  40.047  36.878   8.850
 6242POPC   GL238990  40.106  36.798   8.850
 6242POPC   C1A38991  39.973  36.856   8.550
 6242POPC   D2A38992  39.965  36.913   8.250
 6242POPC   C3A38993  39.996  36.912   7.950
 6242POPC   C4A38994  39.959  36.904   7.650
 6242POPC   C1B38995  40.222  36.735   8.550
 6242POPC   C2B38996  40.170  36.698   8.250
 6242POPC   C3B38997  40.167  36.749   7.950
 6242POPC   C4B38998  40.151  36.780   7.650
 6243POPC   NC338999  18.253  33.044   9.450
 6243POPC   PO439000  18.319  33.060   9.150
 6243POPC   GL139001  18.249  32.983   8.850
 6243POPC   GL239002  18.192  33.055   8.850
 6243POPC   C1A39003  18.326  32.990   8.550
 6243POPC   D2A39004  18.279  33.072   8.250
 6243POPC   C3A39005  18.328  32.990   7.950
 6243POPC   C4A39006  18.249  32.988   7.650
 6243POPC   C1B39007  18.079  32.995   8.550
 6243POPC   C2B39008  18.023  33.050   8.250
 6243POPC   C3B39009  17.991  33.051   7.950
 6243POPC   C4B39010  18.043  33.053   7.650
 6244POPC   NC339011  16.692  26.087   9.450
 6244POPC   PO439012  16.707  26.001   9.150
 6244POPC   GL139013  16.776  26.077   8.850
 6244POPC   GL239014  16.792  25.972   8.850
 6244POPC   C1A39015  16.766  26.087   8.550
 6244POPC   D2A39016  16.776  26.074   8.250
 6244POPC   C3A39017  16.714  26.090   7.950
 6244POPC   C4A39018  16.710  26.068   7.650
 6244POPC   C1B39019  16.921  25.863   8.550
 6244POPC   C2B39020  16.870  25.789   8.250
 6244POPC   C3B39021  16.839  25.837   7.950
 6244POPC   C4B39022  16.878  25.833   7.650
 6245POPC   NC339023  26.018  33.012   9.450
 6245POPC   PO439024  26.087  32.999   9.150
 6245POPC   GL139025  26.083  32.998   8.850
 6245POPC   GL239026  26.172  33.049   8.850
 6245POPC   C1A39027  26.043  33.061   8.550
 6245POPC   D2A39028  26.054  33.068   8.250
 6245POPC   C3A39029  26.044  33.025   7.950
 6245POPC   C4A39030  26.003  32.995   7.650
 6245POPC   C1B39031  26.243  33.044   8.550
 6245POPC   C2B39032  26.295  33.106   8.250
 6245POPC   C3B39033  26.256  33.103   7.950
 6245POPC   C4B39034  26.264  33.109   7.650
 6246POPC   NC339035  20.577   4.275   9.450
 6246POPC   PO439036  20.574   4.317   9.150
 6246POPC   GL139037  20.574   4.286   8.850
 6246POPC   GL239038  20.776   4.388   8.850
 6246POPC   C1A39039  20.587   4.334   8.550
 6246POPC   D2A39040  20.631   4.325   8.250
 6246POPC   C3A39041  20.620   4.300   7.950
 6246POPC   C4A39042  20.593   4.297   7.650
 6246POPC   C1B39043  20.810   4.391   8.550
 6246POPC   C2B39044  20.874   4.390   8.250
 6246POPC   C3B39045  20.882   4.386   7.950
 6246POPC   C4B39046  20.800   4.457   7.650
 6247POPC   NC339047  36.097  26.771   9.450
 6247POPC   PO439048  36.150  26.835   9.150
 6247POPC   GL139049  36.169  26.772   8.850
 6247POPC   GL239050  36.089  26.654   8.850
 6247POPC   C1A39051  36.177  26.788   8.550
 6247POPC   D2A39052  36.170  26.822   8.250
 6247POPC   C3A39053  36.108  26.792   7.950
 6247POPC   C4A39054  36.116  26.783   7.650
 6247POPC   C1B39055  36.082  26.602   8.550
 6247POPC   C2B39056  36.080  26.606   8.250
 6247POPC   C3B39057  36.038  26.528   7.950
 6247POPC   C4B39058  36.079  26.620   7.650
 6248POPC   NC339059  21.343  29.942   9.450
 6248POPC   PO439060  21.357  29.918   9.150
 6248POPC   GL139061  21.353  29.919   8.850
 6248POPC   GL239062  21.293  30.004   8.850
 6248POPC   C1A39063  21.412  29.898   8.550
 6248POPC   D2A39064  21.402  29.934   8.250
 6248POPC   C3A39065  21.428  29.924   7.950
 6248POPC   C4A39066  21.401  29.920   7.650
 6248POPC   C1B39067  21.268  30.145   8.550
 6248POPC   C2B39068  21.198  30.142   8.250
 6248POPC   C3B39069  21.223  30.086   7.950
 6248POPC   C4B39070  21.198  30.119   7.650
 6249POPC   NC339071  21.378  22.142   9.450
 6249POPC   PO439072  21.394  22.134   9.150
 6249POPC   GL139073  21.352  22.171   8.850
 6249POPC   GL239074  21.331  22.045   8.850
 6249POPC   C1A39075  21.406  22.158   8.550
 6249POPC   D2A39076  21.428  22.163   8.250
 6249POPC   C3A39077  21.364  22.119   7.950
 6249POPC   C4A39078  21.377  22.123   7.650
 6249POPC   C1B39079  21.298  21.893   8.550
 6249POPC   C2B39080  21.306  21.944   8.250
 6249POPC   C3B39081  21.390  21.904   7.950
 6249POPC   C4B39082  21.350  21.936   7.650
 6250POPC   NC339083  27.585  31.514   9.450
 6250POPC   PO439084  27.566  31.450   9.150
 6250POPC   GL139085  27.602  31.451   8.850
 6250POPC   GL239086  27.507  31.507   8.850
 6250POPC   C1A39087  27.599  31.426   8.550
 6250POPC   D2A39088  27.584  31.434   8.250
 6250POPC   C3A39089  27.587  31.482   7.950
 6250POPC   C4A39090  27.557  31.470   7.650
 6250POPC   C1B39091  27.368  31.471   8.550
 6250POPC   C2B39092  27.361  31.469   8.250
 6250POPC   C3B39093  27.361  31.480   7.950
 6250POPC   C4B39094  27.312  31.464   7.650
 6251POPC   NC339095  32.277  19.801   9.450
 6251POPC   PO439096  32.271  19.838   9.150
 6251POPC   GL139097  32.256  19.867   8.850
 6251POPC   GL239098  32.195  19.703   8.850
 6251POPC   C1A39099  32.215  19.862   8.550
 6251POPC   D2A39100  32.233  19.804   8.250
 6251POPC   C3A39101  32.231  19.831   7.950
 6251POPC   C4A39102  32.295  19.805   7.650
 6251POPC   C1B39103  32.183  19.583   8.550
 6251POPC   C2B39104  32.197  19.648   8.250
 6251POPC   C3B39105  32.158  19.579   7.950
 6251POPC   C4B39106  32.152  19.650   7.650
 6252POPC   NC339107  36.918   1.181   9.450
 6252POPC   PO439108  36.937   1.221   9.150
 6252POPC   GL139109  36.938   1.197   8.850
 6252POPC   GL239110  36.831   1.284   8.850
 6252POPC   C1A39111  36.905   1.188   8.550
 6252POPC   D2A39112  36.917   1.202   8.250
 6252POPC   C3A39113  36.923   1.197   7.950
 6252POPC   C4A39114  36.913   1.253   7.650
 6252POPC   C1B39115  36.669   1.305   8.550
 6252POPC   C2B39116  36.705   1.364   8.250
 6252POPC   C3B39117  36.639   1.374   7.950
 6252POPC   C4B39118  36.712   1.361   7.650
 6253POPC   NC339119   5.864  26.068   9.450
 6253POPC   PO439120   5.898  26.020   9.150
 6253POPC   GL139121   5.823  26.020   8.850
 6253POPC   GL239122   5.988  26.026   8.850
 6253POPC   C1A39123   5.915  25.995   8.550
 6253POPC   D2A39124   5.838  26.048   8.250
 6253POPC   C3A39125   5.825  25.999   7.950
 6253POPC   C4A39126   5.845  26.015   7.650
 6253POPC   C1B39127   6.092  25.911   8.550
 6253POPC   C2B39128   6.118  25.933   8.250
 6253POPC   C3B39129   6.133  25.993   7.950
 6253POPC   C4B39130   6.127  25.948   7.650
 6254POPC   NC339131   9.738  36.144   9.450
 6254POPC   PO439132   9.786  36.085   9.150
 6254POPC   GL139133   9.718  36.114   8.850
 6254POPC   GL239134   9.854  36.168   8.850
 6254POPC   C1A39135   9.751  36.160   8.550
 6254POPC   D2A39136   9.770  36.137   8.250
 6254POPC   C3A39137   9.779  36.174   7.950
 6254POPC   C4A39138   9.767  36.102   7.650
 6254POPC   C1B39139   9.944  36.224   8.550
 6254POPC   C2B39140   9.939  36.205   8.250
 6254POPC   C3B39141  10.015  36.290   7.950
 6254POPC   C4B39142   9.926  36.225   7.650
 6255POPC   NC339143  13.626  25.995   9.450
 6255POPC   PO439144  13.619  26.040   9.150
 6255POPC   GL139145  13.653  26.075   8.850
 6255POPC   GL239146  13.678  25.882   8.850
 6255POPC   C1A39147  13.596  26.090   8.550
 6255POPC   D2A39148  13.631  26.003   8.250
 6255POPC   C3A39149  13.628  26.059   7.950
 6255POPC   C4A39150  13.604  26.055   7.650
 6255POPC   C1B39151  13.648  25.780   8.550
 6255POPC   C2B39152  13.671  25.838   8.250
 6255POPC   C3B39153  13.672  25.746   7.950
 6255POPC   C4B39154  13.680  25.826   7.650
 6256POPC   NC339155   6.623   8.990   9.450
 6256POPC   PO439156   6.665   9.022   9.150
 6256POPC   GL139157   6.618   8.941   8.850
 6256POPC   GL239158   6.735   8.830   8.850
 6256POPC   C1A39159   6.643   8.942   8.550
 6256POPC   D2A39160   6.627   9.015   8.250
 6256POPC   C3A39161   6.689   8.986   7.950
 6256POPC   C4A39162   6.665   8.929   7.650
 6256POPC   C1B39163   6.711   8.767   8.550
 6256POPC   C2B39164   6.761   8.744   8.250
 6256POPC   C3B39165   6.698   8.725   7.950
 6256POPC   C4B39166   6.703   8.739   7.650
 6257POPC   NC339167   6.636  31.450   9.450
 6257POPC   PO439168   6.606  31.509   9.150
 6257POPC   GL139169   6.608  31.462   8.850
 6257POPC   GL239170   6.590  31.562   8.850
 6257POPC   C1A39171   6.666  31.460   8.550
 6257POPC   D2A39172   6.691  31.487   8.250
 6257POPC   C3A39173   6.633  31.433   7.950
 6257POPC   C4A39174   6.687  31.483   7.650
 6257POPC   C1B39175   6.597  31.724   8.550
 6257POPC   C2B39176   6.619  31.742   8.250
 6257POPC   C3B39177   6.605  31.759   7.950
 6257POPC   C4B39178   6.585  31.701   7.650
 6258POPC   NC339179  43.865  32.235   9.450
 6258POPC   PO439180  43.856  32.228   9.150
 6258POPC   GL139181  43.930  32.274   8.850
 6258POPC   GL239182  43.736  32.211   8.850
 6258POPC   C1A39183  43.903  32.297   8.550
 6258POPC   D2A39184  43.856  32.228   8.250
 6258POPC   C3A39185  43.853  32.244   7.950
 6258POPC   C4A39186  43.852  32.298   7.650
 6258POPC   C1B39187  43.641  32.153   8.550
 6258POPC   C2B39188  43.682  32.141   8.250
 6258POPC   C3B39189  43.598  32.190   7.950
 6258POPC   C4B39190  43.611  32.215   7.650
 6259POPC   NC339191   9.791  41.604   9.450
 6259POPC   PO439192   9.703  41.583   9.150
 6259POPC   GL139193   9.706  41.518   8.850
 6259POPC   GL239194   9.919  41.490   8.850
 6259POPC   C1A39195   9.772  41.550   8.550
 6259POPC   D2A39196   9.748  41.606   8.250
 6259POPC   C3A39197   9.739  41.559   7.950
 6259POPC   C4A39198   9.754  41.588   7.650
 6259POPC   C1B39199   9.954  41.512   8.550
 6259POPC   C2B39200  10.039  41.474   8.250
 6259POPC   C3B39201   9.978  41.474   7.950
 6259POPC   C4B39202  10.043  41.471   7.650
 6260POPC   NC339203  26.827  40.759   9.450
 6260POPC   PO439204  26.789  40.818   9.150
 6260POPC   GL139205  26.785  40.817   8.850
 6260POPC   GL239206  26.842  40.656   8.850
 6260POPC   C1A39207  26.824  40.754   8.550
 6260POPC   D2A39208  26.846  40.829   8.250
 6260POPC   C3A39209  26.817  40.770   7.950
 6260POPC   C4A39210  26.843  40.774   7.650
 6260POPC   C1B39211  26.852  40.499   8.550
 6260POPC   C2B39212  26.824  40.556   8.250
 6260POPC   C3B39213  26.902  40.500   7.950
 6260POPC   C4B39214  26.847  40.539   7.650
 6261POPC   NC339215  33.818  44.645   9.450
 6261POPC   PO439216  33.850  44.623   9.150
 6261POPC   GL139217  33.763  44.653   8.850
 6261POPC   GL239218  33.964  44.704   8.850
 6261POPC   C1A39219  33.752  44.617   8.550
 6261POPC   D2A39220  33.824  44.661   8.250
 6261POPC   C3A39221  33.833  44.630   7.950
 6261POPC   C4A39222  33.755  44.674   7.650
 6261POPC   C1B39223  34.020  44.799   8.550
 6261POPC   C2B39224  34.065  44.738   8.250
 6261POPC   C3B39225  34.016  44.774   7.950
 6261POPC   C4B39226  34.052  44.795   7.650
 6262POPC   NC339227  14.366  39.204   9.450
 6262POPC   PO439228  14.388  39.210   9.150
 6262POPC   GL139229  14.388  39.244   8.850
 6262POPC   GL239230  14.237  39.213   8.850
 6262POPC   C1A39231  14.354  39.245   8.550
 6262POPC   D2A39232  14.403  39.249   8.250
 6262POPC   C3A39233  14.439  39.198   7.950
 6262POPC   C4A39234  14.377  39.250   7.650
 6262POPC   C1B39235  14.137  39.296   8.550
 6262POPC   C2B39236  14.180  39.213   8.250
 6262POPC   C3B39237  14.144  39.232   7.950
 6262POPC   C4B39238  14.149  39.270   7.650
 6263POPC   NC339239  39.992   9.773   9.450
 6263POPC   PO439240  40.041   9.699   9.150
 6263POPC   GL139241  39.980   9.717   8.850
 6263POPC   GL239242  40.124   9.743   8.850
 6263POPC   C1A39243  40.031   9.729   8.550
 6263POPC   D2A39244  40.036   9.756   8.250
 6263POPC   C3A39245  40.038   9.757   7.950
 6263POPC   C4A39246  39.974   9.719   7.650
 6263POPC   C1B39247  40.234   9.679   8.550
 6263POPC   C2B39248  40.221   9.626   8.250
 6263POPC   C3B39249  40.213   9.614   7.950
 6263POPC   C4B39250  40.248   9.614   7.650
 6264POPC   NC339251   5.123  24.536   9.450
 6264POPC   PO439252   5.075  24.467   9.150
 6264POPC   GL139253   5.107  24.473   8.850
 6264POPC   GL239254   5.085  24.606   8.850
 6264POPC   C1A39255   5.119  24.492   8.550
 6264POPC   D2A39256   5.123  24.458   8.250
 6264POPC   C3A39257   5.119  24.491   7.950
 6264POPC   C4A39258   5.043  24.466   7.650
 6264POPC   C1B39259   5.102  24.723   8.550
 6264POPC   C2B39260   5.034  24.786   8.250
 6264POPC   C3B39261   5.093  24.695   7.950
 6264POPC   C4B39262   5.039  24.693   7.650
 6265POPC   NC339263  15.139   2.753   9.450
 6265POPC   PO439264  15.213   2.784   9.150
 6265POPC   GL139265  15.201   2.749   8.850
 6265POPC   GL239266  15.167   2.876   8.850
 6265POPC   C1A39267  15.192   2.719   8.550
 6265POPC   D2A39268  15.177   2.812   8.250
 6265POPC   C3A39269  15.172   2.770   7.950
 6265POPC   C4A39270  15.198   2.747   7.650
 6265POPC   C1B39271  15.162   2.972   8.550
 6265POPC   C2B39272  15.132   3.024   8.250
 6265POPC   C3B39273  15.170   3.039   7.950
 6265POPC   C4B39274  15.154   2.988   7.650
 6266POPC   NC339275  24.535  19.084   9.450
 6266POPC   PO439276  24.494  19.091   9.150
 6266POPC   GL139277  24.474  19.063   8.850
 6266POPC   GL239278  24.627  19.067   8.850
 6266POPC   C1A39279  24.473  19.077   8.550
 6266POPC   D2A39280  24.538  19.039   8.250
 6266POPC   C3A39281  24.508  19.064   7.950
 6266POPC   C4A39282  24.513  19.068   7.650
 6266POPC   C1B39283  24.682  18.948   8.550
 6266POPC   C2B39284  24.697  18.995   8.250
 6266POPC   C3B39285  24.761  18.993   7.950
 6266POPC   C4B39286  24.724  18.954   7.650
 6267POPC   NC339287  34.543  43.861   9.450
 6267POPC   PO439288  34.551  43.901   9.150
 6267POPC   GL139289  34.529  43.885   8.850
 6267POPC   GL239290  34.457  43.807   8.850
 6267POPC   C1A39291  34.575  43.931   8.550
 6267POPC   D2A39292  34.589  43.932   8.250
 6267POPC   C3A39293  34.577  43.872   7.950
 6267POPC   C4A39294  34.605  43.864   7.650
 6267POPC   C1B39295  34.338  43.822   8.550
 6267POPC   C2B39296  34.381  43.835   8.250
 6267POPC   C3B39297  34.339  43.769   7.950
 6267POPC   C4B39298  34.296  43.793   7.650
 6268POPC   NC339299  16.733  36.122   9.450
 6268POPC   PO439300  16.777  36.171   9.150
 6268POPC   GL139301  16.736  36.174   8.850
 6268POPC   GL239302  16.780  35.978   8.850
 6268POPC   C1A39303  16.702  36.136   8.550
 6268POPC   D2A39304  16.767  36.130   8.250
 6268POPC   C3A39305  16.723  36.141   7.950
 6268POPC   C4A39306  16.771  36.079   7.650
 6268POPC   C1B39307  16.810  35.940   8.550
 6268POPC   C2B39308  16.882  35.947   8.250
 6268POPC   C3B39309  16.847  35.882   7.950
 6268POPC   C4B39310  16.795  35.863   7.650
 6269POPC   NC339311  44.623   8.998   9.450
 6269POPC   PO439312  44.656   8.981   9.150
 6269POPC   GL139313  44.705   8.971   8.850
 6269POPC   GL239314  44.775   9.102   8.850
 6269POPC   C1A39315  44.661   8.941   8.550
 6269POPC   D2A39316  44.628   8.936   8.250
 6269POPC   C3A39317  44.697   8.987   7.950
 6269POPC   C4A39318  44.639   8.961   7.650
 6269POPC   C1B39319  44.794   9.135   8.550
 6269POPC   C2B39320  44.773   9.139   8.250
 6269POPC   C3B39321  44.837   9.176   7.950
 6269POPC   C4B39322  44.786   9.137   7.650
 6270POPC   NC339323  25.219  15.977   9.450
 6270POPC   PO439324  25.284  15.988   9.150
 6270POPC   GL139325  25.268  15.976   8.850
 6270POPC   GL239326  25.274  15.869   8.850
 6270POPC   C1A39327  25.249  15.956   8.550
 6270POPC   D2A39328  25.283  15.922   8.250
 6270POPC   C3A39329  25.266  15.963   7.950
 6270POPC   C4A39330  25.248  15.919   7.650
 6270POPC   C1B39331  25.428  15.776   8.550
 6270POPC   C2B39332  25.361  15.758   8.250
 6270POPC   C3B39333  25.332  15.711   7.950
 6270POPC   C4B39334  25.418  15.767   7.650
 6271POPC   NC339335   1.239  23.727   9.450
 6271POPC   PO439336   1.234  23.750   9.150
 6271POPC   GL139337   1.222  23.711   8.850
 6271POPC   GL239338   1.306  23.573   8.850
 6271POPC   C1A39339   1.247  23.689   8.550
 6271POPC   D2A39340   1.253  23.726   8.250
 6271POPC   C3A39341   1.182  23.682   7.950
 6271POPC   C4A39342   1.204  23.673   7.650
 6271POPC   C1B39343   1.315  23.560   8.550
 6271POPC   C2B39344   1.321  23.473   8.250
 6271POPC   C3B39345   1.375  23.515   7.950
 6271POPC   C4B39346   1.360  23.472   7.650
 6272POPC   NC339347  27.633  22.167   9.450
 6272POPC   PO439348  27.549  22.162   9.150
 6272POPC   GL139349  27.607  22.166   8.850
 6272POPC   GL239350  27.532  22.022   8.850
 6272POPC   C1A39351  27.634  22.133   8.550
 6272POPC   D2A39352  27.587  22.165   8.250
 6272POPC   C3A39353  27.568  22.175   7.950
 6272POPC   C4A39354  27.597  22.155   7.650
 6272POPC   C1B39355  27.585  21.917   8.550
 6272POPC   C2B39356  27.553  21.918   8.250
 6272POPC   C3B39357  27.574  21.947   7.950
 6272POPC   C4B39358  27.541  21.872   7.650
 6273POPC   NC339359   8.978   5.083   9.450
 6273POPC   PO439360   9.017   5.104   9.150
 6273POPC   GL139361   8.992   5.141   8.850
 6273POPC   GL239362   8.916   5.018   8.850
 6273POPC   C1A39363   9.010   5.135   8.550
 6273POPC   D2A39364   8.949   5.103   8.250
 6273POPC   C3A39365   8.926   5.055   7.950
 6273POPC   C4A39366   9.015   5.046   7.650
 6273POPC   C1B39367   8.751   4.930   8.550
 6273POPC   C2B39368   8.789   4.940   8.250
 6273POPC   C3B39369   8.790   4.894   7.950
 6273POPC   C4B39370   8.809   4.882   7.650
 6274POPC   NC339371   7.389   9.699   9.450
 6274POPC   PO439372   7.418   9.745   9.150
 6274POPC   GL139373   7.372   9.766   8.850
 6274POPC   GL239374   7.413   9.621   8.850
 6274POPC   C1A39375   7.462   9.729   8.550
 6274POPC   D2A39376   7.414   9.735   8.250
 6274POPC   C3A39377   7.400   9.777   7.950
 6274POPC   C4A39378   7.430   9.777   7.650
 6274POPC   C1B39379   7.390   9.552   8.550
 6274POPC   C2B39380   7.405   9.533   8.250
 6274POPC   C3B39381   7.321   9.546   7.950
 6274POPC   C4B39382   7.333   9.473   7.650
 6275POPC   NC339383  19.103  34.563   9.450
 6275POPC   PO439384  19.025  34.592   9.150
 6275POPC   GL139385  19.026  34.556   8.850
 6275POPC   GL239386  19.201  34.571   8.850
 6275POPC   C1A39387  19.107  34.582   8.550
 6275POPC   D2A39388  19.050  34.552   8.250
 6275POPC   C3A39389  19.028  34.601   7.950
 6275POPC   C4A39390  19.052  34.574   7.650
 6275POPC   C1B39391  19.280  34.614   8.550
 6275POPC   C2B39392  19.346  34.616   8.250
 6275POPC   C3B39393  19.306  34.630   7.950
 6275POPC   C4B39394  19.281  34.621   7.650
 6276POPC   NC339395   5.080  12.056   9.450
 6276POPC   PO439396   5.080  12.055   9.150
 6276POPC   GL139397   5.071  12.028   8.850
 6276POPC   GL239398   5.049  12.244   8.850
 6276POPC   C1A39399   5.050  12.091   8.550
 6276POPC   D2A39400   5.090  12.065   8.250
 6276POPC   C3A39401   5.131  12.036   7.950
 6276POPC   C4A39402   5.051  12.090   7.650
 6276POPC   C1B39403   5.074  12.368   8.550
 6276POPC   C2B39404   5.126  12.281   8.250
 6276POPC   C3B39405   5.046  12.351   7.950
 6276POPC   C4B39406   5.120  12.296   7.650
 6277POPC   NC339407  16.712  24.510   9.450
 6277POPC   PO439408  16.714  24.507   9.150
 6277POPC   GL139409  16.703  24.505   8.850
 6277POPC   GL239410  16.568  24.468   8.850
 6277POPC   C1A39411  16.770  24.531   8.550
 6277POPC   D2A39412  16.682  24.500   8.250
 6277POPC   C3A39413  16.687  24.517   7.950
 6277POPC   C4A39414  16.715  24.487   7.650
 6277POPC   C1B39415  16.509  24.494   8.550
 6277POPC   C2B39416  16.472  24.489   8.250
 6277POPC   C3B39417  16.499  24.567   7.950
 6277POPC   C4B39418  16.458  24.545   7.650
 6278POPC   NC339419  23.748  35.376   9.450
 6278POPC   PO439420  23.747  35.312   9.150
 6278POPC   GL139421  23.715  35.377   8.850
 6278POPC   GL239422  23.720  35.482   8.850
 6278POPC   C1A39423  23.718  35.303   8.550
 6278POPC   D2A39424  23.749  35.329   8.250
 6278POPC   C3A39425  23.705  35.307   7.950
 6278POPC   C4A39426  23.752  35.337   7.650
 6278POPC   C1B39427  23.593  35.584   8.550
 6278POPC   C2B39428  23.636  35.591   8.250
 6278POPC   C3B39429  23.609  35.620   7.950
 6278POPC   C4B39430  23.672  35.567   7.650
 6279POPC   NC339431  40.806  26.011   9.450
 6279POPC   PO439432  40.792  26.012   9.150
 6279POPC   GL139433  40.762  26.059   8.850
 6279POPC   GL239434  40.763  25.899   8.850
 6279POPC   C1A39435  40.824  26.038   8.550
 6279POPC   D2A39436  40.800  26.051   8.250
 6279POPC   C3A39437  40.776  26.023   7.950
 6279POPC   C4A39438  40.782  26.028   7.650
 6279POPC   C1B39439  40.717  25.801   8.550
 6279POPC   C2B39440  40.686  25.842   8.250
 6279POPC   C3B39441  40.668  25.768   7.950
 6279POPC   C4B39442  40.747  25.800   7.650
 6280POPC   NC339443  20.591  21.434   9.450
 6280POPC   PO439444  20.593  21.399   9.150
 6280POPC   GL139445  20.656  21.367   8.850
 6280POPC   GL239446  20.653  21.297   8.850
 6280POPC   C1A39447  20.632  21.431   8.550
 6280POPC   D2A39448  20.654  21.354   8.250
 6280POPC   C3A39449  20.633  21.378   7.950
 6280POPC   C4A39450  20.618  21.400   7.650
 6280POPC   C1B39451  20.679  21.213   8.550
 6280POPC   C2B39452  20.752  21.163   8.250
 6280POPC   C3B39453  20.754  21.172   7.950
 6280POPC   C4B39454  20.734  21.125   7.650
 6281POPC   NC339455  37.727  13.609   9.450
 6281POPC   PO439456  37.638  13.642   9.150
 6281POPC   GL139457  37.672  13.619   8.850
 6281POPC   GL239458  37.633  13.674   8.850
 6281POPC   C1A39459  37.726  13.584   8.550
 6281POPC   D2A39460  37.655  13.611   8.250
 6281POPC   C3A39461  37.708  13.606   7.950
 6281POPC   C4A39462  37.637  13.635   7.650
 6281POPC   C1B39463  37.553  13.862   8.550
 6281POPC   C2B39464  37.488  13.821   8.250
 6281POPC   C3B39465  37.492  13.841   7.950
 6281POPC   C4B39466  37.472  13.771   7.650
 6282POPC   NC339467  35.401  32.979   9.450
 6282POPC   PO439468  35.318  32.993   9.150
 6282POPC   GL139469  35.309  33.023   8.850
 6282POPC   GL239470  35.354  33.113   8.850
 6282POPC   C1A39471  35.321  33.015   8.550
 6282POPC   D2A39472  35.376  33.040   8.250
 6282POPC   C3A39473  35.329  33.064   7.950
 6282POPC   C4A39474  35.346  33.048   7.650
 6282POPC   C1B39475  35.289  33.275   8.550
 6282POPC   C2B39476  35.298  33.229   8.250
 6282POPC   C3B39477  35.310  33.303   7.950
 6282POPC   C4B39478  35.266  33.268   7.650
 6283POPC   NC339479   8.987  15.165   9.450
 6283POPC   PO439480   9.011  15.205   9.150
 6283POPC   GL139481   8.997  15.144   8.850
 6283POPC   GL239482   8.884  15.075   8.850
 6283POPC   C1A39483   9.001  15.174   8.550
 6283POPC   D2A39484   8.985  15.154   8.250
 6283POPC   C3A39485   8.981  15.170   7.950
 6283POPC   C4A39486   9.007  15.208   7.650
 6283POPC   C1B39487   8.830  15.028   8.550
 6283POPC   C2B39488   8.811  14.997   8.250
 6283POPC   C3B39489   8.798  14.991   7.950
 6283POPC   C4B39490   8.828  14.967   7.650
 6284POPC   NC339491  41.590  29.137   9.450
 6284POPC   PO439492  41.540  29.130   9.150
 6284POPC   GL139493  41.603  29.159   8.850
 6284POPC   GL239494  41.580  29.278   8.850
 6284POPC   C1A39495  41.559  29.158   8.550
 6284POPC   D2A39496  41.549  29.139   8.250
 6284POPC   C3A39497  41.553  29.115   7.950
 6284POPC   C4A39498  41.605  29.181   7.650
 6284POPC   C1B39499  41.594  29.385   8.550
 6284POPC   C2B39500  41.519  29.394   8.250
 6284POPC   C3B39501  41.598  29.378   7.950
 6284POPC   C4B39502  41.522  29.439   7.650
 6285POPC   NC339503  22.972  30.705   9.450
 6285POPC   PO439504  22.916  30.709   9.150
 6285POPC   GL139505  22.953  30.672   8.850
 6285POPC   GL239506  22.883  30.576   8.850
 6285POPC   C1A39507  22.969  30.662   8.550
 6285POPC   D2A39508  22.913  30.648   8.250
 6285POPC   C3A39509  22.949  30.746   7.950
 6285POPC   C4A39510  22.985  30.649   7.650
 6285POPC   C1B39511  22.850  30.429   8.550
 6285POPC   C2B39512  22.814  30.440   8.250
 6285POPC   C3B39513  22.800  30.476   7.950
 6285POPC   C4B39514  22.841  30.483   7.650
 6286POPC   NC339515  19.053   4.297   9.450
 6286POPC   PO439516  19.023   4.363   9.150
 6286POPC   GL139517  19.095   4.322   8.850
 6286POPC   GL239518  19.065   4.416   8.850
 6286POPC   C1A39519  19.096   4.359   8.550
 6286POPC   D2A39520  19.093   4.353   8.250
 6286POPC   C3A39521  19.049   4.350   7.950
 6286POPC   C4A39522  19.023   4.349   7.650
 6286POPC   C1B39523  19.117   4.534   8.550
 6286POPC   C2B39524  19.109   4.569   8.250
 6286POPC   C3B39525  19.164   4.568   7.950
 6286POPC   C4B39526  19.100   4.503   7.650
 6287POPC   NC339527  33.751  15.972   9.450
 6287POPC   PO439528  33.797  15.948   9.150
 6287POPC   GL139529  33.833  15.907   8.850
 6287POPC   GL239530  33.850  16.043   8.850
 6287POPC   C1A39531  33.768  15.961   8.550
 6287POPC   D2A39532  33.825  15.969   8.250
 6287POPC   C3A39533  33.816  15.922   7.950
 6287POPC   C4A39534  33.818  15.975   7.650
 6287POPC   C1B39535  33.875  16.207   8.550
 6287POPC   C2B39536  33.809  16.223   8.250
 6287POPC   C3B39537  33.847  16.164   7.950
 6287POPC   C4B39538  33.794  16.175   7.650
 6288POPC   NC339539  29.910  24.463   9.450
 6288POPC   PO439540  29.935  24.488   9.150
 6288POPC   GL139541  29.890  24.468   8.850
 6288POPC   GL239542  29.994  24.587   8.850
 6288POPC   C1A39543  29.895  24.505   8.550
 6288POPC   D2A39544  29.919  24.486   8.250
 6288POPC   C3A39545  29.955  24.506   7.950
 6288POPC   C4A39546  29.898  24.475   7.650
 6288POPC   C1B39547  30.041  24.678   8.550
 6288POPC   C2B39548  30.087  24.693   8.250
 6288POPC   C3B39549  30.075  24.645   7.950
 6288POPC   C4B39550  30.056  24.696   7.650
 6289POPC   NC339551  34.626   9.759   9.450
 6289POPC   PO439552  34.539   9.722   9.150
 6289POPC   GL139553  34.556   9.744   8.850
 6289POPC   GL239554  34.485   9.648   8.850
 6289POPC   C1A39555  34.605   9.784   8.550
 6289POPC   D2A39556  34.576   9.773   8.250
 6289POPC   C3A39557  34.563   9.780   7.950
 6289POPC   C4A39558  34.584   9.793   7.650
 6289POPC   C1B39559  34.325   9.696   8.550
 6289POPC   C2B39560  34.319   9.645   8.250
 6289POPC   C3B39561  34.355   9.600   7.950
 6289POPC   C4B39562  34.310   9.611   7.650
 6290POPC   NC339563  36.935  40.812   9.450
 6290POPC   PO439564  36.935  40.766   9.150
 6290POPC   GL139565  36.951  40.782   8.850
 6290POPC   GL239566  36.856  40.924   8.850
 6290POPC   C1A39567  36.911  40.791   8.550
 6290POPC   D2A39568  36.910  40.746   8.250
 6290POPC   C3A39569  36.938  40.763   7.950
 6290POPC   C4A39570  36.924  40.812   7.650
 6290POPC   C1B39571  36.773  40.963   8.550
 6290POPC   C2B39572  36.713  40.971   8.250
 6290POPC   C3B39573  36.737  40.992   7.950
 6290POPC   C4B39574  36.760  41.005   7.650
 6291POPC   NC339575   6.667   2.030   9.450
 6291POPC   PO439576   6.627   1.989   9.150
 6291POPC   GL139577   6.611   1.946   8.850
 6291POPC   GL239578   6.568   1.881   8.850
 6291POPC   C1A39579   6.683   1.975   8.550
 6291POPC   D2A39580   6.662   1.973   8.250
 6291POPC   C3A39581   6.600   2.028   7.950
 6291POPC   C4A39582   6.658   2.034   7.650
 6291POPC   C1B39583   6.568   1.787   8.550
 6291POPC   C2B39584   6.489   1.741   8.250
 6291POPC   C3B39585   6.482   1.801   7.950
 6291POPC   C4B39586   6.545   1.749   7.650
 6292POPC   NC339587  20.581  22.149   9.450
 6292POPC   PO439588  20.590  22.176   9.150
 6292POPC   GL139589  20.658  22.149   8.850
 6292POPC   GL239590  20.647  22.024   8.850
 6292POPC   C1A39591  20.622  22.168   8.550
 6292POPC   D2A39592  20.620  22.209   8.250
 6292POPC   C3A39593  20.615  22.207   7.950
 6292POPC   C4A39594  20.627  22.183   7.650
 6292POPC   C1B39595  20.583  21.927   8.550
 6292POPC   C2B39596  20.545  21.938   8.250
 6292POPC   C3B39597  20.590  21.957   7.950
 6292POPC   C4B39598  20.626  21.922   7.650
 6293POPC   NC339599  29.933  29.897   9.450
 6293POPC   PO439600  29.928  29.911   9.150
 6293POPC   GL139601  29.909  29.916   8.850
 6293POPC   GL239602  29.990  30.040   8.850
 6293POPC   C1A39603  29.909  29.914   8.550
 6293POPC   D2A39604  29.954  29.896   8.250
 6293POPC   C3A39605  29.930  29.928   7.950
 6293POPC   C4A39606  29.970  29.948   7.650
 6293POPC   C1B39607  30.060  30.136   8.550
 6293POPC   C2B39608  30.072  30.073   8.250
 6293POPC   C3B39609  30.121  30.100   7.950
 6293POPC   C4B39610  30.055  30.139   7.650
 6294POPC   NC339611   5.104   1.981   9.450
 6294POPC   PO439612   5.057   1.950   9.150
 6294POPC   GL139613   5.095   2.017   8.850
 6294POPC   GL239614   5.255   1.950   8.850
 6294POPC   C1A39615   5.083   2.026   8.550
 6294POPC   D2A39616   5.124   1.988   8.250
 6294POPC   C3A39617   5.101   1.994   7.950
 6294POPC   C4A39618   5.094   1.994   7.650
 6294POPC   C1B39619   5.312   1.972   8.550
 6294POPC   C2B39620   5.335   1.894   8.250
 6294POPC   C3B39621   5.345   1.919   7.950
 6294POPC   C4B39622   5.372   1.950   7.650
 6295POPC   NC339623   4.358  13.587   9.450
 6295POPC   PO439624   4.321  13.655   9.150
 6295POPC   GL139625   4.360  13.580   8.850
 6295POPC   GL239626   4.387  13.504   8.850
 6295POPC   C1A39627   4.286  13.659   8.550
 6295POPC   D2A39628   4.329  13.666   8.250
 6295POPC   C3A39629   4.344  13.642   7.950
 6295POPC   C4A39630   4.296  13.646   7.650
 6295POPC   C1B39631   4.416  13.365   8.550
 6295POPC   C2B39632   4.456  13.420   8.250
 6295POPC   C3B39633   4.400  13.376   7.950
 6295POPC   C4B39634   4.409  13.375   7.650
 6296POPC   NC339635  19.815  29.140   9.450
 6296POPC   PO439636  19.808  29.098   9.150
 6296POPC   GL139637  19.803  29.122   8.850
 6296POPC   GL239638  19.707  29.145   8.850
 6296POPC   C1A39639  19.869  29.181   8.550
 6296POPC   D2A39640  19.844  29.137   8.250
 6296POPC   C3A39641  19.788  29.151   7.950
 6296POPC   C4A39642  19.842  29.175   7.650
 6296POPC   C1B39643  19.566  29.087   8.550
 6296POPC   C2B39644  19.628  29.078   8.250
 6296POPC   C3B39645  19.558  29.085   7.950
 6296POPC   C4B39646  19.580  29.006   7.650
 6297POPC   NC339647   3.575  36.865   9.450
 6297POPC   PO439648   3.495  36.904   9.150
 6297POPC   GL139649   3.534  36.940   8.850
 6297POPC   GL239650   3.420  36.795   8.850
 6297POPC   C1A39651   3.541  36.903   8.550
 6297POPC   D2A39652   3.507  36.859   8.250
 6297POPC   C3A39653   3.501  36.886   7.950
 6297POPC   C4A39654   3.507  36.932   7.650
 6297POPC   C1B39655   3.289  36.807   8.550
 6297POPC   C2B39656   3.374  36.753   8.250
 6297POPC   C3B39657   3.347  36.782   7.950
 6297POPC   C4B39658   3.348  36.809   7.650
 6298POPC   NC339659  31.456   4.359   9.450
 6298POPC   PO439660  31.483   4.341   9.150
 6298POPC   GL139661  31.434   4.330   8.850
 6298POPC   GL239662  31.363   4.357   8.850
 6298POPC   C1A39663  31.428   4.315   8.550
 6298POPC   D2A39664  31.479   4.358   8.250
 6298POPC   C3A39665  31.450   4.340   7.950
 6298POPC   C4A39666  31.482   4.329   7.650
 6298POPC   C1B39667  31.324   4.449   8.550
 6298POPC   C2B39668  31.312   4.443   8.250
 6298POPC   C3B39669  31.311   4.515   7.950
 6298POPC   C4B39670  31.232   4.465   7.650
 6299POPC   NC339671  24.449  29.152   9.450
 6299POPC   PO439672  24.456  29.105   9.150
 6299POPC   GL139673  24.520  29.147   8.850
 6299POPC   GL239674  24.472  29.281   8.850
 6299POPC   C1A39675  24.442  29.183   8.550
 6299POPC   D2A39676  24.459  29.114   8.250
 6299POPC   C3A39677  24.461  29.118   7.950
 6299POPC   C4A39678  24.523  29.140   7.650
 6299POPC   C1B39679  24.395  29.367   8.550
 6299POPC   C2B39680  24.377  29.374   8.250
 6299POPC   C3B39681  24.354  29.397   7.950
 6299POPC   C4B39682  24.347  29.384   7.650
 6300POPC   NC339683   3.512  11.327   9.450
 6300POPC   PO439684   3.540  11.264   9.150
 6300POPC   GL139685   3.519  11.318   8.850
 6300POPC   GL239686   3.402  11.285   8.850
 6300POPC   C1A39687   3.542  11.252   8.550
 6300POPC   D2A39688   3.552  11.265   8.250
 6300POPC   C3A39689   3.541  11.294   7.950
 6300POPC   C4A39690   3.590  11.276   7.650
 6300POPC   C1B39691   3.337  11.229   8.550
 6300POPC   C2B39692   3.342  11.216   8.250
 6300POPC   C3B39693   3.327  11.301   7.950
 6300POPC   C4B39694   3.286  11.240   7.650
 6301POPC   NC339695  34.589  29.958   9.450
 6301POPC   PO439696  34.535  29.929   9.150
 6301POPC   GL139697  34.557  29.881   8.850
 6301POPC   GL239698  34.652  29.920   8.850
 6301POPC   C1A39699  34.526  29.939   8.550
 6301POPC   D2A39700  34.619  29.925   8.250
 6301POPC   C3A39701  34.602  29.888   7.950
 6301POPC   C4A39702  34.571  29.881   7.650
 6301POPC   C1B39703  34.844  29.909   8.550
 6301POPC   C2B39704  34.821  29.902   8.250
 6301POPC   C3B39705  34.828  29.916   7.950
 6301POPC   C4B39706  34.857  29.883   7.650
 6302POPC   NC339707  39.197  39.225   9.450
 6302POPC   PO439708  39.234  39.206   9.150
 6302POPC   GL139709  39.249  39.222   8.850
 6302POPC   GL239710  39.165  39.123   8.850
 6302POPC   C1A39711  39.195  39.210   8.550
 6302POPC   D2A39712  39.216  39.275   8.250
 6302POPC   C3A39713  39.192  39.253   7.950
 6302POPC   C4A39714  39.245  39.218   7.650
 6302POPC   C1B39715  39.044  39.066   8.550
 6302POPC   C2B39716  39.032  39.001   8.250
 6302POPC   C3B39717  39.102  39.022   7.950
 6302POPC   C4B39718  39.106  39.061   7.650
 6303POPC   NC339719   1.207  16.773   9.450
 6303POPC   PO439720   1.183  16.772   9.150
 6303POPC   GL139721   1.169  16.762   8.850
 6303POPC   GL239722   1.094  16.612   8.850
 6303POPC   C1A39723   1.189  16.706   8.550
 6303POPC   D2A39724   1.174  16.780   8.250
 6303POPC   C3A39725   1.260  16.727   7.950
 6303POPC   C4A39726   1.249  16.718   7.650
 6303POPC   C1B39727   1.063  16.530   8.550
 6303POPC   C2B39728   1.058  16.581   8.250
 6303POPC   C3B39729   1.004  16.519   7.950
 6303POPC   C4B39730   1.047  16.531   7.650
 6304POPC   NC339731   1.239  29.961   9.450
 6304POPC   PO439732   1.246  29.953   9.150
 6304POPC   GL139733   1.194  29.884   8.850
 6304POPC   GL239734   1.256  29.853   8.850
 6304POPC   C1A39735   1.178  29.890   8.550
 6304POPC   D2A39736   1.212  29.906   8.250
 6304POPC   C3A39737   1.221  29.963   7.950
 6304POPC   C4A39738   1.262  29.948   7.650
 6304POPC   C1B39739   1.290  29.732   8.550
 6304POPC   C2B39740   1.282  29.730   8.250
 6304POPC   C3B39741   1.370  29.690   7.950
 6304POPC   C4B39742   1.289  29.736   7.650
 6305POPC   NC339743  14.435  19.809   9.450
 6305POPC   PO439744  14.413  19.790   9.150
 6305POPC   GL139745  14.381  19.821   8.850
 6305POPC   GL239746  14.353  19.705   8.850
 6305POPC   C1A39747  14.445  19.794   8.550
 6305POPC   D2A39748  14.377  19.788   8.250
 6305POPC   C3A39749  14.382  19.808   7.950
 6305POPC   C4A39750  14.403  19.880   7.650
 6305POPC   C1B39751  14.354  19.599   8.550
 6305POPC   C2B39752  14.386  19.630   8.250
 6305POPC   C3B39753  14.392  19.537   7.950
 6305POPC   C4B39754  14.387  19.548   7.650
 6306POPC   NC339755  22.181   2.744   9.450
 6306POPC   PO439756  22.212   2.750   9.150
 6306POPC   GL139757  22.123   2.748   8.850
 6306POPC   GL239758  22.214   2.634   8.850
 6306POPC   C1A39759  22.182   2.737   8.550
 6306POPC   D2A39760  22.130   2.795   8.250
 6306POPC   C3A39761  22.175   2.753   7.950
 6306POPC   C4A39762  22.183   2.734   7.650
 6306POPC   C1B39763  22.220   2.468   8.550
 6306POPC   C2B39764  22.188   2.545   8.250
 6306POPC   C3B39765  22.194   2.474   7.950
 6306POPC   C4B39766  22.213   2.523   7.650
 6307POPC   NC339767  20.611   7.466   9.450
 6307POPC   PO439768  20.627   7.410   9.150
 6307POPC   GL139769  20.648   7.419   8.850
 6307POPC   GL239770  20.525   7.439   8.850
 6307POPC   C1A39771  20.606   7.390   8.550
 6307POPC   D2A39772  20.607   7.444   8.250
 6307POPC   C3A39773  20.659   7.374   7.950
 6307POPC   C4A39774  20.592   7.423   7.650
 6307POPC   C1B39775  20.391   7.469   8.550
 6307POPC   C2B39776  20.396   7.544   8.250
 6307POPC   C3B39777  20.330   7.545   7.950
 6307POPC   C4B39778  20.390   7.526   7.650
 6308POPC   NC339779   9.746  12.119   9.450
 6308POPC   PO439780   9.722  12.111   9.150
 6308POPC   GL139781   9.756  12.060   8.850
 6308POPC   GL239782   9.818  11.977   8.850
 6308POPC   C1A39783   9.775  12.035   8.550
 6308POPC   D2A39784   9.718  12.060   8.250
 6308POPC   C3A39785   9.785  12.041   7.950
 6308POPC   C4A39786   9.699  12.116   7.650
 6308POPC   C1B39787   9.787  11.803   8.550
 6308POPC   C2B39788   9.779  11.843   8.250
 6308POPC   C3B39789   9.805  11.867   7.950
 6308POPC   C4B39790   9.806  11.830   7.650
 6309POPC   NC339791  31.492  22.164   9.450
 6309POPC   PO439792  31.507  22.183   9.150
 6309POPC   GL139793  31.445  22.169   8.850
 6309POPC   GL239794  31.434  22.017   8.850
 6309POPC   C1A39795  31.499  22.197   8.550
 6309POPC   D2A39796  31.422  22.138   8.250
 6309POPC   C3A39797  31.475  22.173   7.950
 6309POPC   C4A39798  31.507  22.129   7.650
 6309POPC   C1B39799  31.304  21.924   8.550
 6309POPC   C2B39800  31.312  21.955   8.250
 6309POPC   C3B39801  31.274  21.967   7.950
 6309POPC   C4B39802  31.330  21.926   7.650
 6310POPC   NC339803   7.461  12.119   9.450
 6310POPC   PO439804   7.445  12.119   9.150
 6310POPC   GL139805   7.410  12.029   8.850
 6310POPC   GL239806   7.564  12.145   8.850
 6310POPC   C1A39807   7.380  12.089   8.550
 6310POPC   D2A39808   7.385  12.031   8.250
 6310POPC   C3A39809   7.461  12.095   7.950
 6310POPC   C4A39810   7.448  12.051   7.650
 6310POPC   C1B39811   7.627  12.239   8.550
 6310POPC   C2B39812   7.620  12.180   8.250
 6310POPC   C3B39813   7.653  12.189   7.950
 6310POPC   C4B39814   7.619  12.227   7.650
 6311POPC   NC339815  18.249   2.744   9.450
 6311POPC   PO439816  18.238   2.770   9.150
 6311POPC   GL139817  18.280   2.811   8.850
 6311POPC   GL239818  18.281   2.679   8.850
 6311POPC   C1A39819  18.238   2.753   8.550
 6311POPC   D2A39820  18.275   2.795   8.250
 6311POPC   C3A39821  18.320   2.772   7.950
 6311POPC   C4A39822  18.260   2.794   7.650
 6311POPC   C1B39823  18.147   2.527   8.550
 6311POPC   C2B39824  18.211   2.561   8.250
 6311POPC   C3B39825  18.225   2.567   7.950
 6311POPC   C4B39826  18.177   2.502   7.650
 6312POPC   NC339827   5.097  40.023   9.450
 6312POPC   PO439828   5.093  39.979   9.150
 6312POPC   GL139829   5.130  39.959   8.850
 6312POPC   GL239830   5.051  40.081   8.850
 6312POPC   C1A39831   5.063  40.027   8.550
 6312POPC   D2A39832   5.049  40.047   8.250
 6312POPC   C3A39833   5.120  40.039   7.950
 6312POPC   C4A39834   5.087  40.028   7.650
 6312POPC   C1B39835   4.873  40.194   8.550
 6312POPC   C2B39836   4.967  40.198   8.250
 6312POPC   C3B39837   4.916  40.211   7.950
 6312POPC   C4B39838   4.888  40.173   7.650
 6313POPC   NC339839  44.650  19.087   9.450
 6313POPC   PO439840  44.618  19.071   9.150
 6313POPC   GL139841  44.635  19.105   8.850
 6313POPC   GL239842  44.687  19.171   8.850
 6313POPC   C1A39843  44.630  19.104   8.550
 6313POPC   D2A39844  44.615  19.009   8.250
 6313POPC   C3A39845  44.690  19.104   7.950
 6313POPC   C4A39846  44.653  19.103   7.650
 6313POPC   C1B39847  44.702  19.331   8.550
 6313POPC   C2B39848  44.686  19.321   8.250
 6313POPC   C3B39849  44.694  19.318   7.950
 6313POPC   C4B39850  44.756  19.314   7.650
 6314POPC   NC339851  36.919   8.945   9.450
 6314POPC   PO439852  36.894   9.021   9.150
 6314POPC   GL139853  36.863   8.991   8.850
 6314POPC   GL239854  36.919   8.891   8.850
 6314POPC   C1A39855  36.906   8.972   8.550
 6314POPC   D2A39856  36.865   9.012   8.250
 6314POPC   C3A39857  36.937   8.967   7.950
 6314POPC   C4A39858  36.862   8.975   7.650
 6314POPC   C1B39859  36.827   8.737   8.550
 6314POPC   C2B39860  36.819   8.720   8.250
 6314POPC   C3B39861  36.881   8.735   7.950
 6314POPC   C4B39862  36.830   8.683   7.650
 6315POPC   NC339863  11.333  37.701   9.450
 6315POPC   PO439864  11.298  37.715   9.150
 6315POPC   GL139865  11.315  37.704   8.850
 6315POPC   GL239866  11.250  37.530   8.850
 6315POPC   C1A39867  11.328  37.647   8.550
 6315POPC   D2A39868  11.349  37.681   8.250
 6315POPC   C3A39869  11.331  37.724   7.950
 6315POPC   C4A39870  11.256  37.639   7.650
 6315POPC   C1B39871  11.256  37.406   8.550
 6315POPC   C2B39872  11.278  37.391   8.250
 6315POPC   C3B39873  11.273  37.432   7.950
 6315POPC   C4B39874  11.232  37.424   7.650
 6316POPC   NC339875  24.524   1.958   9.450
 6316POPC   PO439876  24.458   2.002   9.150
 6316POPC   GL139877  24.492   2.029   8.850
 6316POPC   GL239878  24.569   2.083   8.850
 6316POPC   C1A39879  24.487   2.006   8.550
 6316POPC   D2A39880  24.462   1.997   8.250
 6316POPC   C3A39881  24.501   2.018   7.950
 6316POPC   C4A39882  24.464   1.976   7.650
 6316POPC   C1B39883  24.713   2.191   8.550
 6316POPC   C2B39884  24.651   2.110   8.250
 6316POPC   C3B39885  24.684   2.153   7.950
 6316POPC   C4B39886  24.705   2.096   7.650
 6317POPC   NC339887   8.942  12.037   9.450
 6317POPC   PO439888   8.981  12.122   9.150
 6317POPC   GL139889   8.973  12.119   8.850
 6317POPC   GL239890   9.092  12.155   8.850
 6317POPC   C1A39891   8.983  12.038   8.550
 6317POPC   D2A39892   8.935  12.121   8.250
 6317POPC   C3A39893   9.020  12.045   7.950
 6317POPC   C4A39894   8.975  12.076   7.650
 6317POPC   C1B39895   9.183  12.195   8.550
 6317POPC   C2B39896   9.249  12.187   8.250
 6317POPC   C3B39897   9.182  12.140   7.950
 6317POPC   C4B39898   9.258  12.145   7.650
 6318POPC   NC339899  15.953  28.404   9.450
 6318POPC   PO439900  15.997  28.397   9.150
 6318POPC   GL139901  15.947  28.378   8.850
 6318POPC   GL239902  15.988  28.465   8.850
 6318POPC   C1A39903  15.956  28.324   8.550
 6318POPC   D2A39904  15.940  28.383   8.250
 6318POPC   C3A39905  15.985  28.330   7.950
 6318POPC   C4A39906  15.958  28.370   7.650
 6318POPC   C1B39907  16.024  28.600   8.550
 6318POPC   C2B39908  16.035  28.579   8.250
 6318POPC   C3B39909  16.063  28.560   7.950
 6318POPC   C4B39910  16.037  28.641   7.650
 6319POPC   NC339911  34.560  20.641   9.450
 6319POPC   PO439912  34.564  20.589   9.150
 6319POPC   GL139913  34.586  20.658   8.850
 6319POPC   GL239914  34.637  20.766   8.850
 6319POPC   C1A39915  34.570  20.640   8.550
 6319POPC   D2A39916  34.540  20.629   8.250
 6319POPC   C3A39917  34.562  20.592   7.950
 6319POPC   C4A39918  34.552  20.617   7.650
 6319POPC   C1B39919  34.716  20.795   8.550
 6319POPC   C2B39920  34.655  20.879   8.250
 6319POPC   C3B39921  34.691  20.867   7.950
 6319POPC   C4B39922  34.694  20.799   7.650
 6320POPC   NC339923  14.402  33.802   9.450
 6320POPC   PO439924  14.406  33.813   9.150
 6320POPC   GL139925  14.439  33.778   8.850
 6320POPC   GL239926  14.316  33.850   8.850
 6320POPC   C1A39927  14.407  33.842   8.550
 6320POPC   D2A39928  14.413  33.752   8.250
 6320POPC   C3A39929  14.377  33.828   7.950
 6320POPC   C4A39930  14.412  33.827   7.650
 6320POPC   C1B39931  14.199  33.876   8.550
 6320POPC   C2B39932  14.228  33.900   8.250
 6320POPC   C3B39933  14.195  33.944   7.950
 6320POPC   C4B39934  14.165  33.906   7.650
 6321POPC   NC339935   2.785   8.982   9.450
 6321POPC   PO439936   2.783   8.963   9.150
 6321POPC   GL139937   2.769   9.008   8.850
 6321POPC   GL239938   2.883   8.890   8.850
 6321POPC   C1A39939   2.723   8.986   8.550
 6321POPC   D2A39940   2.776   8.992   8.250
 6321POPC   C3A39941   2.738   8.996   7.950
 6321POPC   C4A39942   2.764   8.979   7.650
 6321POPC   C1B39943   2.978   8.941   8.550
 6321POPC   C2B39944   3.048   8.883   8.250
 6321POPC   C3B39945   3.016   8.879   7.950
 6321POPC   C4B39946   3.039   8.955   7.650
 6322POPC   NC339947  12.819   2.718   9.450
 6322POPC   PO439948  12.850   2.747   9.150
 6322POPC   GL139949  12.881   2.768   8.850
 6322POPC   GL239950  12.786   2.852   8.850
 6322POPC   C1A39951  12.805   2.764   8.550
 6322POPC   D2A39952  12.839   2.806   8.250
 6322POPC   C3A39953  12.841   2.789   7.950
 6322POPC   C4A39954  12.820   2.765   7.650
 6322POPC   C1B39955  12.747   3.031   8.550
 6322POPC   C2B39956  12.776   3.041   8.250
 6322POPC   C3B39957  12.790   2.966   7.950
 6322POPC   C4B39958  12.809   2.978   7.650
 6323POPC   NC339959  23.741  12.880   9.450
 6323POPC   PO439960  23.720  12.879   9.150
 6323POPC   GL139961  23.732  12.882   8.850
 6323POPC   GL239962  23.801  12.757   8.850
 6323POPC   C1A39963  23.674  12.861   8.550
 6323POPC   D2A39964  23.743  12.843   8.250
 6323POPC   C3A39965  23.762  12.855   7.950
 6323POPC   C4A39966  23.733  12.869   7.650
 6323POPC   C1B39967  23.811  12.698   8.550
 6323POPC   C2B39968  23.822  12.697   8.250
 6323POPC   C3B39969  23.871  12.676   7.950
 6323POPC   C4B39970  23.893  12.666   7.650
 6324POPC   NC339971  41.562   6.604   9.450
 6324POPC   PO439972  41.549   6.647   9.150
 6324POPC   GL139973  41.528   6.673   8.850
 6324POPC   GL239974  41.589   6.804   8.850
 6324POPC   C1A39975  41.534   6.607   8.550
 6324POPC   D2A39976  41.582   6.611   8.250
 6324POPC   C3A39977  41.580   6.661   7.950
 6324POPC   C4A39978  41.570   6.630   7.650
 6324POPC   C1B39979  41.567   6.931   8.550
 6324POPC   C2B39980  41.496   6.858   8.250
 6324POPC   C3B39981  41.569   6.862   7.950
 6324POPC   C4B39982  41.544   6.897   7.650
 6325POPC   NC339983  29.111  27.552   9.450
 6325POPC   PO439984  29.156  27.551   9.150
 6325POPC   GL139985  29.172  27.599   8.850
 6325POPC   GL239986  29.239  27.515   8.850
 6325POPC   C1A39987  29.169  27.639   8.550
 6325POPC   D2A39988  29.187  27.627   8.250
 6325POPC   C3A39989  29.119  27.634   7.950
 6325POPC   C4A39990  29.133  27.584   7.650
 6325POPC   C1B39991  29.402  27.470   8.550
 6325POPC   C2B39992  29.373  27.465   8.250
 6325POPC   C3B39993  29.403  27.453   7.950
 6325POPC   C4B39994  29.333  27.445   7.650
 6326POPC   NC339995  35.350  22.172   9.450
 6326POPC   PO439996  35.341  22.125   9.150
 6326POPC   GL139997  35.326  22.153   8.850
 6326POPC   GL239998  35.279  22.227   8.850
 6326POPC   C1A39999  35.345  22.127   8.550
 6326POPC   D2A40000  35.325  22.196   8.250
 6326POPC   C3A40001  35.326  22.171   7.950
 6326POPC   C4A40002  35.377  22.133   7.650
 6326POPC   C1B40003  35.099  22.295   8.550
 6326POPC   C2B40004  35.105  22.293   8.250
 6326POPC   C3B40005  35.127  22.308   7.950
 6326POPC   C4B40006  35.138  22.287   7.650
 6327POPC   NC340007  24.462  40.758   9.450
 6327POPC   PO440008  24.463  40.772   9.150
 6327POPC   GL140009  24.532  40.744   8.850
 6327POPC   GL240010  24.548  40.618   8.850
 6327POPC   C1A40011  24.478  40.734   8.550
 6327POPC   D2A40012  24.456  40.762   8.250
 6327POPC   C3A40013  24.444  40.784   7.950
 6327POPC   C4A40014  24.446  40.810   7.650
 6327POPC   C1B40015  24.581  40.502   8.550
 6327POPC   C2B40016  24.630  40.537   8.250
 6327POPC   C3B40017  24.614  40.559   7.950
 6327POPC   C4B40018  24.592  40.529   7.650
 6328POPC   NC340019   8.154   9.748   9.450
 6328POPC   PO440020   8.210   9.758   9.150
 6328POPC   GL140021   8.205   9.754   8.850
 6328POPC   GL240022   8.192   9.914   8.850
 6328POPC   C1A40023   8.224   9.732   8.550
 6328POPC   D2A40024   8.186   9.754   8.250
 6328POPC   C3A40025   8.199   9.725   7.950
 6328POPC   C4A40026   8.178   9.791   7.650
 6328POPC   C1B40027   8.185   9.968   8.550
 6328POPC   C2B40028   8.195   9.993   8.250
 6328POPC   C3B40029   8.179  10.014   7.950
 6328POPC   C4B40030   8.238  10.007   7.650
 6329POPC   NC340031  31.503  13.597   9.450
 6329POPC   PO440032  31.497  13.658   9.150
 6329POPC   GL140033  31.456  13.608   8.850
 6329POPC   GL240034  31.585  13.691   8.850
 6329POPC   C1A40035  31.428  13.672   8.550
 6329POPC   D2A40036  31.506  13.578   8.250
 6329POPC   C3A40037  31.433  13.667   7.950
 6329POPC   C4A40038  31.429  13.658   7.650
 6329POPC   C1B40039  31.685  13.829   8.550
 6329POPC   C2B40040  31.608  13.788   8.250
 6329POPC   C3B40041  31.590  13.841   7.950
 6329POPC   C4B40042  31.685  13.837   7.650
 6330POPC   NC340043  27.619   1.981   9.450
 6330POPC   PO440044  27.585   1.960   9.150
 6330POPC   GL140045  27.544   2.024   8.850
 6330POPC   GL240046  27.575   2.080   8.850
 6330POPC   C1A40047  27.612   1.940   8.550
 6330POPC   D2A40048  27.590   1.962   8.250
 6330POPC   C3A40049  27.549   1.960   7.950
 6330POPC   C4A40050  27.608   2.023   7.650
 6330POPC   C1B40051  27.505   2.279   8.550
 6330POPC   C2B40052  27.504   2.205   8.250
 6330POPC   C3B40053  27.537   2.217   7.950
 6330POPC   C4B40054  27.551   2.210   7.650
 6331POPC   NC340055  40.019   1.176   9.450
 6331POPC   PO440056  40.050   1.263   9.150
 6331POPC   GL140057  40.018   1.208   8.850
 6331POPC   GL240058  40.062   1.151   8.850
 6331POPC   C1A40059  40.000   1.220   8.550
 6331POPC   D2A40060  40.012   1.173   8.250
 6331POPC   C3A40061  39.977   1.238   7.950
 6331POPC   C4A40062  40.020   1.236   7.650
 6331POPC   C1B40063  40.158   0.998   8.550
 6331POPC   C2B40064  40.142   1.040   8.250
 6331POPC   C3B40065  40.176   1.015   7.950
 6331POPC   C4B40066  40.221   1.005   7.650
 6332POPC   NC340067  12.822  13.662   9.450
 6332POPC   PO440068  12.817  13.615   9.150
 6332POPC   GL140069  12.870  13.661   8.850
 6332POPC   GL240070  12.852  13.531   8.850
 6332POPC   C1A40071  12.867  13.584   8.550
 6332POPC   D2A40072  12.883  13.660   8.250
 6332POPC   C3A40073  12.895  13.586   7.950
 6332POPC   C4A40074  12.882  13.603   7.650
 6332POPC   C1B40075  12.755  13.372   8.550
 6332POPC   C2B40076  12.776  13.364   8.250
 6332POPC   C3B40077  12.824  13.393   7.950
 6332POPC   C4B40078  12.773  13.352   7.650
 6333POPC   NC340079  18.315  26.000   9.450
 6333POPC   PO440080  18.252  26.027   9.150
 6333POPC   GL140081  18.247  26.039   8.850
 6333POPC   GL240082  18.351  25.877   8.850
 6333POPC   C1A40083  18.251  26.030   8.550
 6333POPC   D2A40084  18.263  26.073   8.250
 6333POPC   C3A40085  18.282  26.048   7.950
 6333POPC   C4A40086  18.327  26.083   7.650
 6333POPC   C1B40087  18.320  25.781   8.550
 6333POPC   C2B40088  18.336  25.818   8.250
 6333POPC   C3B40089  18.287  25.805   7.950
 6333POPC   C4B40090  18.345  25.786   7.650
 6334POPC   NC340091  28.341  33.016   9.450
 6334POPC   PO440092  28.345  32.984   9.150
 6334POPC   GL140093  28.382  33.073   8.850
 6334POPC   GL240094  28.445  33.010   8.850
 6334POPC   C1A40095  28.402  32.999   8.550
 6334POPC   D2A40096  28.404  32.976   8.250
 6334POPC   C3A40097  28.338  32.983   7.950
 6334POPC   C4A40098  28.403  32.976   7.650
 6334POPC   C1B40099  28.620  33.093   8.550
 6334POPC   C2B40100  28.591  33.049   8.250
 6334POPC   C3B40101  28.641  33.013   7.950
 6334POPC   C4B40102  28.608  33.049   7.650
 6335POPC   NC340103   5.122  15.926   9.450
 6335POPC   PO440104   5.108  15.906   9.150
 6335POPC   GL140105   5.068  15.914   8.850
 6335POPC   GL240106   5.178  15.889   8.850
 6335POPC   C1A40107   5.138  15.996   8.550
 6335POPC   D2A40108   5.101  15.959   8.250
 6335POPC   C3A40109   5.111  15.988   7.950
 6335POPC   C4A40110   5.103  15.942   7.650
 6335POPC   C1B40111   5.360  15.838   8.550
 6335POPC   C2B40112   5.374  15.910   8.250
 6335POPC   C3B40113   5.360  15.914   7.950
 6335POPC   C4B40114   5.357  15.845   7.650
 6336POPC   NC340115   5.827  16.751   9.450
 6336POPC   PO440116   5.842  16.715   9.150
 6336POPC   GL140117   5.872  16.705   8.850
 6336POPC   GL240118   5.806  16.666   8.850
 6336POPC   C1A40119   5.871  16.730   8.550
 6336POPC   D2A40120   5.901  16.719   8.250
 6336POPC   C3A40121   5.843  16.714   7.950
 6336POPC   C4A40122   5.883  16.714   7.650
 6336POPC   C1B40123   5.766  16.473   8.550
 6336POPC   C2B40124   5.719  16.474   8.250
 6336POPC   C3B40125   5.730  16.550   7.950
 6336POPC   C4B40126   5.808  16.532   7.650
 6337POPC   NC340127  24.450   8.957   9.450
 6337POPC   PO440128  24.519   9.006   9.150
 6337POPC   GL140129  24.511   8.975   8.850
 6337POPC   GL240130  24.513   8.865   8.850
 6337POPC   C1A40131  24.525   8.976   8.550
 6337POPC   D2A40132  24.492   8.973   8.250
 6337POPC   C3A40133  24.479   8.979   7.950
 6337POPC   C4A40134  24.526   8.974   7.650
 6337POPC   C1B40135  24.427   8.734   8.550
 6337POPC   C2B40136  24.437   8.730   8.250
 6337POPC   C3B40137  24.438   8.697   7.950
 6337POPC   C4B40138  24.472   8.746   7.650
 6338POPC   NC340139  29.896  38.421   9.450
 6338POPC   PO440140  29.969  38.495   9.150
 6338POPC   GL140141  29.959  38.464   8.850
 6338POPC   GL240142  29.986  38.411   8.850
 6338POPC   C1A40143  29.966  38.461   8.550
 6338POPC   D2A40144  29.949  38.424   8.250
 6338POPC   C3A40145  29.871  38.489   7.950
 6338POPC   C4A40146  29.927  38.503   7.650
 6338POPC   C1B40147  30.154  38.382   8.550
 6338POPC   C2B40148  30.162  38.355   8.250
 6338POPC   C3B40149  30.109  38.317   7.950
 6338POPC   C4B40150  30.155  38.313   7.650
 6339POPC   NC340151   2.807  33.053   9.450
 6339POPC   PO440152   2.738  32.999   9.150
 6339POPC   GL140153   2.794  32.986   8.850
 6339POPC   GL240154   2.849  32.872   8.850
 6339POPC   C1A40155   2.786  32.977   8.550
 6339POPC   D2A40156   2.776  33.041   8.250
 6339POPC   C3A40157   2.806  33.037   7.950
 6339POPC   C4A40158   2.785  33.055   7.650
 6339POPC   C1B40159   2.882  32.815   8.550
 6339POPC   C2B40160   2.885  32.824   8.250
 6339POPC   C3B40161   2.839  32.757   7.950
 6339POPC   C4B40162   2.825  32.785   7.650
 6340POPC   NC340163  15.208  43.157   9.450
 6340POPC   PO440164  15.211  43.148   9.150
 6340POPC   GL140165  15.173  43.074   8.850
 6340POPC   GL240166  15.225  43.204   8.850
 6340POPC   C1A40167  15.203  43.120   8.550
 6340POPC   D2A40168  15.209  43.089   8.250
 6340POPC   C3A40169  15.184  43.075   7.950
 6340POPC   C4A40170  15.216  43.104   7.650
 6340POPC   C1B40171  15.284  43.390   8.550
 6340POPC   C2B40172  15.267  43.383   8.250
 6340POPC   C3B40173  15.282  43.378   7.950
 6340POPC   C4B40174  15.225  43.364   7.650
 6341POPC   NC340175  22.892  36.873   9.450
 6341POPC   PO440176  22.952  36.905   9.150
 6341POPC   GL140177  22.980  36.881   8.850
 6341POPC   GL240178  22.962  36.767   8.850
 6341POPC   C1A40179  22.944  36.862   8.550
 6341POPC   D2A40180  22.938  36.935   8.250
 6341POPC   C3A40181  22.971  36.867   7.950
 6341POPC   C4A40182  22.945  36.946   7.650
 6341POPC   C1B40183  22.971  36.634   8.550
 6341POPC   C2B40184  22.941  36.611   8.250
 6341POPC   C3B40185  22.975  36.655   7.950
 6341POPC   C4B40186  22.931  36.693   7.650
 6342POPC   NC340187  44.694   9.736   9.450
 6342POPC   PO440188  44.685   9.745   9.150
 6342POPC   GL140189  44.617   9.715   8.850
 6342POPC   GL240190  44.788   9.842   8.850
 6342POPC   C1A40191  44.659   9.766   8.550
 6342POPC   D2A40192  44.657   9.747   8.250
 6342POPC   C3A40193  44.683   9.758   7.950
 6342POPC   C4A40194  44.699   9.752   7.650
 6342POPC   C1B40195  44.834   9.901   8.550
 6342POPC   C2B40196  44.862   9.871   8.250
 6342POPC   C3B40197  44.902   9.881   7.950
 6342POPC   C4B40198  44.914   9.837   7.650
 6343POPC   NC340199  43.098   7.438   9.450
 6343POPC   PO440200  43.114   7.450   9.150
 6343POPC   GL140201  43.069   7.378   8.850
 6343POPC   GL240202  43.152   7.583   8.850
 6343POPC   C1A40203  43.088   7.418   8.550
 6343POPC   D2A40204  43.103   7.455   8.250
 6343POPC   C3A40205  43.124   7.392   7.950
 6343POPC   C4A40206  43.117   7.457   7.650
 6343POPC   C1B40207  43.153   7.682   8.550
 6343POPC   C2B40208  43.150   7.626   8.250
 6343POPC   C3B40209  43.172   7.654   7.950
 6343POPC   C4B40210  43.172   7.668   7.650
 6344POPC   NC340211  19.830   8.953   9.450
 6344POPC   PO440212  19.853   8.958   9.150
 6344POPC   GL140213  19.837   8.955   8.850
 6344POPC   GL240214  19.773   8.894   8.850
 6344POPC   C1A40215  19.834   8.980   8.550
 6344POPC   D2A40216  19.808   9.014   8.250
 6344POPC   C3A40217  19.840   8.995   7.950
 6344POPC   C4A40218  19.850   9.021   7.650
 6344POPC   C1B40219  19.817   8.719   8.550
 6344POPC   C2B40220  19.740   8.701   8.250
 6344POPC   C3B40221  19.801   8.734   7.950
 6344POPC   C4B40222  19.745   8.719   7.650
 6345POPC   NC340223  39.254  22.125   9.450
 6345POPC   PO440224  39.274  22.196   9.150
 6345POPC   GL140225  39.203  22.137   8.850
 6345POPC   GL240226  39.288  22.263   8.850
 6345POPC   C1A40227  39.270  22.202   8.550
 6345POPC   D2A40228  39.240  22.155   8.250
 6345POPC   C3A40229  39.247  22.173   7.950
 6345POPC   C4A40230  39.275  22.167   7.650
 6345POPC   C1B40231  39.343  22.398   8.550
 6345POPC   C2B40232  39.330  22.359   8.250
 6345POPC   C3B40233  39.343  22.384   7.950
 6345POPC   C4B40234  39.419  22.407   7.650
 6346POPC   NC340235   7.387  43.840   9.450
 6346POPC   PO440236   7.386  43.892   9.150
 6346POPC   GL140237   7.429  43.882   8.850
 6346POPC   GL240238   7.435  44.029   8.850
 6346POPC   C1A40239   7.376  43.916   8.550
 6346POPC   D2A40240   7.428  43.852   8.250
 6346POPC   C3A40241   7.464  43.889   7.950
 6346POPC   C4A40242   7.462  43.871   7.650
 6346POPC   C1B40243   7.574  44.137   8.550
 6346POPC   C2B40244   7.540  44.153   8.250
 6346POPC   C3B40245   7.566  44.141   7.950
 6346POPC   C4B40246   7.538  44.093   7.650
 6347POPC   NC340247  38.503  32.275   9.450
 6347POPC   PO440248  38.424  32.223   9.150
 6347POPC   GL140249  38.483  32.244   8.850
 6347POPC   GL240250  38.509  32.168   8.850
 6347POPC   C1A40251  38.455  32.231   8.550
 6347POPC   D2A40252  38.483  32.248   8.250
 6347POPC   C3A40253  38.458  32.290   7.950
 6347POPC   C4A40254  38.475  32.254   7.650
 6347POPC   C1B40255  38.495  31.981   8.550
 6347POPC   C2B40256  38.539  32.024   8.250
 6347POPC   C3B40257  38.556  31.986   7.950
 6347POPC   C4B40258  38.562  32.044   7.650
 6348POPC   NC340259   8.221  29.919   9.450
 6348POPC   PO440260   8.223  29.945   9.150
 6348POPC   GL140261   8.208  29.919   8.850
 6348POPC   GL240262   8.306  29.898   8.850
 6348POPC   C1A40263   8.246  29.963   8.550
 6348POPC   D2A40264   8.239  29.888   8.250
 6348POPC   C3A40265   8.151  29.907   7.950
 6348POPC   C4A40266   8.219  29.913   7.650
 6348POPC   C1B40267   8.485  29.930   8.550
 6348POPC   C2B40268   8.422  29.957   8.250
 6348POPC   C3B40269   8.463  29.928   7.950
 6348POPC   C4B40270   8.456  29.932   7.650
 6349POPC   NC340271  38.439   0.434   9.450
 6349POPC   PO440272  38.489   0.449   9.150
 6349POPC   GL140273  38.458   0.452   8.850
 6349POPC   GL240274  38.296   0.472   8.850
 6349POPC   C1A40275  38.410   0.396   8.550
 6349POPC   D2A40276  38.488   0.431   8.250
 6349POPC   C3A40277  38.489   0.412   7.950
 6349POPC   C4A40278  38.451   0.483   7.650
 6349POPC   C1B40279  38.223   0.472   8.550
 6349POPC   C2B40280  38.228   0.482   8.250
 6349POPC   C3B40281  38.219   0.504   7.950
 6349POPC   C4B40282  38.220   0.550   7.650
 6350POPC   NC340283  12.090   4.293   9.450
 6350POPC   PO440284  12.116   4.326   9.150
 6350POPC   GL140285  12.067   4.283   8.850
 6350POPC   GL240286  11.978   4.160   8.850
 6350POPC   C1A40287  12.107   4.285   8.550
 6350POPC   D2A40288  12.052   4.334   8.250
 6350POPC   C3A40289  12.072   4.313   7.950
 6350POPC   C4A40290  12.033   4.358   7.650
 6350POPC   C1B40291  11.963   4.089   8.550
 6350POPC   C2B40292  11.994   4.051   8.250
 6350POPC   C3B40293  11.930   4.074   7.950
 6350POPC   C4B40294  11.951   4.141   7.650
 6351POPC   NC340295  40.790   5.907   9.450
 6351POPC   PO440296  40.755   5.866   9.150
 6351POPC   GL140297  40.804   5.842   8.850
 6351POPC   GL240298  40.941   5.846   8.850
 6351POPC   C1A40299  40.783   5.902   8.550
 6351POPC   D2A40300  40.798   5.916   8.250
 6351POPC   C3A40301  40.800   5.821   7.950
 6351POPC   C4A40302  40.736   5.838   7.650
 6351POPC   C1B40303  40.982   5.806   8.550
 6351POPC   C2B40304  41.007   5.796   8.250
 6351POPC   C3B40305  41.035   5.835   7.950
 6351POPC   C4B40306  41.067   5.795   7.650
 6352POPC   NC340307   0.428  33.836   9.450
 6352POPC   PO440308   0.405  33.768   9.150
 6352POPC   GL140309   0.433  33.850   8.850
 6352POPC   GL240310   0.460  33.675   8.850
 6352POPC   C1A40311   0.486  33.765   8.550
 6352POPC   D2A40312   0.481  33.829   8.250
 6352POPC   C3A40313   0.412  33.751   7.950
 6352POPC   C4A40314   0.409  33.802   7.650
 6352POPC   C1B40315   0.362  33.599   8.550
 6352POPC   C2B40316   0.439  33.565   8.250
 6352POPC   C3B40317   0.378  33.583   7.950
 6352POPC   C4B40318   0.417  33.583   7.650
 6353POPC   NC340319  18.287   8.924   9.450
 6353POPC   PO440320  18.318   8.991   9.150
 6353POPC   GL140321  18.298   8.936   8.850
 6353POPC   GL240322  18.328   9.104   8.850
 6353POPC   C1A40323  18.316   8.998   8.550
 6353POPC   D2A40324  18.319   8.934   8.250
 6353POPC   C3A40325  18.326   8.993   7.950
 6353POPC   C4A40326  18.303   8.976   7.650
 6353POPC   C1B40327  18.350   9.213   8.550
 6353POPC   C2B40328  18.392   9.157   8.250
 6353POPC   C3B40329  18.408   9.210   7.950
 6353POPC   C4B40330  18.361   9.237   7.650
 6354POPC   NC340331  39.232  25.994   9.450
 6354POPC   PO440332  39.203  26.038   9.150
 6354POPC   GL140333  39.259  25.998   8.850
 6354POPC   GL240334  39.067  25.998   8.850
 6354POPC   C1A40335  39.203  26.090   8.550
 6354POPC   D2A40336  39.251  26.049   8.250
 6354POPC   C3A40337  39.189  26.029   7.950
 6354POPC   C4A40338  39.239  26.060   7.650
 6354POPC   C1B40339  39.037  25.941   8.550
 6354POPC   C2B40340  39.008  26.008   8.250
 6354POPC   C3B40341  39.030  25.926   7.950
 6354POPC   C4B40342  38.963  25.971   7.650
 6355POPC   NC340343  29.126  26.036   9.450
 6355POPC   PO440344  29.133  26.050   9.150
 6355POPC   GL140345  29.187  26.026   8.850
 6355POPC   GL240346  29.023  25.994   8.850
 6355POPC   C1A40347  29.148  26.090   8.550
 6355POPC   D2A40348  29.156  26.064   8.250
 6355POPC   C3A40349  29.147  26.086   7.950
 6355POPC   C4A40350  29.132  25.995   7.650
 6355POPC   C1B40351  28.892  25.983   8.550
 6355POPC   C2B40352  28.913  26.037   8.250
 6355POPC   C3B40353  28.928  25.995   7.950
 6355POPC   C4B40354  28.920  25.947   7.650
 6356POPC   NC340355   1.975  31.522   9.450
 6356POPC   PO440356   2.009  31.509   9.150
 6356POPC   GL140357   1.959  31.496   8.850
 6356POPC   GL240358   2.121  31.420   8.850
 6356POPC   C1A40359   1.962  31.459   8.550
 6356POPC   D2A40360   1.995  31.428   8.250
 6356POPC   C3A40361   2.015  31.430   7.950
 6356POPC   C4A40362   2.024  31.486   7.650
 6356POPC   C1B40363   2.174  31.247   8.550
 6356POPC   C2B40364   2.158  31.247   8.250
 6356POPC   C3B40365   2.180  31.292   7.950
 6356POPC   C4B40366   2.147  31.250   7.650
 6357POPC   NC340367  31.488   8.158   9.450
 6357POPC   PO440368  31.424   8.204   9.150
 6357POPC   GL140369  31.434   8.203   8.850
 6357POPC   GL240370  31.448   8.118   8.850
 6357POPC   C1A40371  31.456   8.236   8.550
 6357POPC   D2A40372  31.439   8.228   8.250
 6357POPC   C3A40373  31.513   8.198   7.950
 6357POPC   C4A40374  31.452   8.172   7.650
 6357POPC   C1B40375  31.537   7.954   8.550
 6357POPC   C2B40376  31.542   7.906   8.250
 6357POPC   C3B40377  31.519   7.934   7.950
 6357POPC   C4B40378  31.496   7.912   7.650
 6358POPC   NC340379  25.297  32.202   9.450
 6358POPC   PO440380  25.237  32.213   9.150
 6358POPC   GL140381  25.292  32.219   8.850
 6358POPC   GL240382  25.159  32.195   8.850
 6358POPC   C1A40383  25.259  32.286   8.550
 6358POPC   D2A40384  25.237  32.287   8.250
 6358POPC   C3A40385  25.315  32.223   7.950
 6358POPC   C4A40386  25.315  32.280   7.650
 6358POPC   C1B40387  25.036  32.281   8.550
 6358POPC   C2B40388  25.028  32.219   8.250
 6358POPC   C3B40389  24.972  32.251   7.950
 6358POPC   C4B40390  25.007  32.249   7.650
 6359POPC   NC340391  20.632  15.994   9.450
 6359POPC   PO440392  20.571  16.001   9.150
 6359POPC   GL140393  20.625  15.942   8.850
 6359POPC   GL240394  20.663  16.069   8.850
 6359POPC   C1A40395  20.636  15.920   8.550
 6359POPC   D2A40396  20.629  15.962   8.250
 6359POPC   C3A40397  20.624  15.933   7.950
 6359POPC   C4A40398  20.582  15.970   7.650
 6359POPC   C1B40399  20.796  16.118   8.550
 6359POPC   C2B40400  20.792  16.055   8.250
 6359POPC   C3B40401  20.792  16.148   7.950
 6359POPC   C4B40402  20.782  16.096   7.650
 6360POPC   NC340403  15.162  28.335   9.450
 6360POPC   PO440404  15.183  28.410   9.150
 6360POPC   GL140405  15.157  28.393   8.850
 6360POPC   GL240406  15.092  28.427   8.850
 6360POPC   C1A40407  15.183  28.417   8.550
 6360POPC   D2A40408  15.185  28.406   8.250
 6360POPC   C3A40409  15.184  28.328   7.950
 6360POPC   C4A40410  15.146  28.383   7.650
 6360POPC   C1B40411  14.977  28.476   8.550
 6360POPC   C2B40412  14.929  28.449   8.250
 6360POPC   C3B40413  14.891  28.463   7.950
 6360POPC   C4B40414  14.889  28.468   7.650
 6361POPC   NC340415  37.639   3.576   9.450
 6361POPC   PO440416  37.685   3.562   9.150
 6361POPC   GL140417  37.675   3.511   8.850
 6361POPC   GL240418  37.778   3.445   8.850
 6361POPC   C1A40419  37.669   3.520   8.550
 6361POPC   D2A40420  37.652   3.493   8.250
 6361POPC   C3A40421  37.714   3.536   7.950
 6361POPC   C4A40422  37.706   3.540   7.650
 6361POPC   C1B40423  37.780   3.351   8.550
 6361POPC   C2B40424  37.747   3.344   8.250
 6361POPC   C3B40425  37.833   3.270   7.950
 6361POPC   C4B40426  37.812   3.364   7.650
 6362POPC   NC340427  38.429  31.481   9.450
 6362POPC   PO440428  38.415  31.451   9.150
 6362POPC   GL140429  38.413  31.433   8.850
 6362POPC   GL240430  38.402  31.570   8.850
 6362POPC   C1A40431  38.457  31.425   8.550
 6362POPC   D2A40432  38.465  31.478   8.250
 6362POPC   C3A40433  38.427  31.518   7.950
 6362POPC   C4A40434  38.500  31.441   7.650
 6362POPC   C1B40435  38.371  31.715   8.550
 6362POPC   C2B40436  38.353  31.739   8.250
 6362POPC   C3B40437  38.429  31.706   7.950
 6362POPC   C4B40438  38.383  31.673   7.650
 6363POPC   NC340439  27.562  29.191   9.450
 6363POPC   PO440440  27.640  29.151   9.150
 6363POPC   GL140441  27.637  29.193   8.850
 6363POPC   GL240442  27.439  29.153   8.850
 6363POPC   C1A40443  27.544  29.194   8.550
 6363POPC   D2A40444  27.625  29.148   8.250
 6363POPC   C3A40445  27.633  29.095   7.950
 6363POPC   C4A40446  27.549  29.175   7.650
 6363POPC   C1B40447  27.311  29.274   8.550
 6363POPC   C2B40448  27.340  29.189   8.250
 6363POPC   C3B40449  27.353  29.210   7.950
 6363POPC   C4B40450  27.326  29.237   7.650
 6364POPC   NC340451  16.731   2.796   9.450
 6364POPC   PO440452  16.698   2.761   9.150
 6364POPC   GL140453  16.734   2.760   8.850
 6364POPC   GL240454  16.838   2.803   8.850
 6364POPC   C1A40455  16.701   2.747   8.550
 6364POPC   D2A40456  16.693   2.801   8.250
 6364POPC   C3A40457  16.730   2.779   7.950
 6364POPC   C4A40458  16.751   2.793   7.650
 6364POPC   C1B40459  16.950   2.772   8.550
 6364POPC   C2B40460  17.002   2.800   8.250
 6364POPC   C3B40461  17.014   2.752   7.950
 6364POPC   C4B40462  16.972   2.726   7.650
 6365POPC   NC340463  10.522  22.173   9.450
 6365POPC   PO440464  10.534  22.132   9.150
 6365POPC   GL140465  10.490  22.139   8.850
 6365POPC   GL240466  10.362  22.135   8.850
 6365POPC   C1A40467  10.530  22.166   8.550
 6365POPC   D2A40468  10.489  22.156   8.250
 6365POPC   C3A40469  10.526  22.136   7.950
 6365POPC   C4A40470  10.551  22.211   7.650
 6365POPC   C1B40471  10.295  22.108   8.550
 6365POPC   C2B40472  10.301  22.101   8.250
 6365POPC   C3B40473  10.243  22.100   7.950
 6365POPC   C4B40474  10.302  22.141   7.650
 6366POPC   NC340475  41.607  15.949   9.450
 6366POPC   PO440476  41.591  15.954   9.150
 6366POPC   GL140477  41.519  15.973   8.850
 6366POPC   GL240478  41.481  15.995   8.850
 6366POPC   C1A40479  41.532  15.965   8.550
 6366POPC   D2A40480  41.528  15.919   8.250
 6366POPC   C3A40481  41.558  15.999   7.950
 6366POPC   C4A40482  41.582  15.954   7.650
 6366POPC   C1B40483  41.297  16.006   8.550
 6366POPC   C2B40484  41.345  16.035   8.250
 6366POPC   C3B40485  41.346  15.995   7.950
 6366POPC   C4B40486  41.361  16.051   7.650
 6367POPC   NC340487  30.682  34.566   9.450
 6367POPC   PO440488  30.667  34.556   9.150
 6367POPC   GL140489  30.681  34.565   8.850
 6367POPC   GL240490  30.767  34.503   8.850
 6367POPC   C1A40491  30.698  34.566   8.550
 6367POPC   D2A40492  30.715  34.572   8.250
 6367POPC   C3A40493  30.693  34.532   7.950
 6367POPC   C4A40494  30.723  34.598   7.650
 6367POPC   C1B40495  30.954  34.390   8.550
 6367POPC   C2B40496  30.871  34.482   8.250
 6367POPC   C3B40497  30.864  34.480   7.950
 6367POPC   C4B40498  30.861  34.452   7.650
 6368POPC   NC340499  19.050   3.573   9.450
 6368POPC   PO440500  19.047   3.577   9.150
 6368POPC   GL140501  19.087   3.500   8.850
 6368POPC   GL240502  19.132   3.409   8.850
 6368POPC   C1A40503  19.058   3.559   8.550
 6368POPC   D2A40504  19.034   3.562   8.250
 6368POPC   C3A40505  19.106   3.500   7.950
 6368POPC   C4A40506  19.012   3.508   7.650
 6368POPC   C1B40507  19.198   3.374   8.550
 6368POPC   C2B40508  19.213   3.311   8.250
 6368POPC   C3B40509  19.234   3.334   7.950
 6368POPC   C4B40510  19.169   3.394   7.650
 6369POPC   NC340511  22.937  19.014   9.450
 6369POPC   PO440512  22.945  19.073   9.150
 6369POPC   GL140513  22.940  19.027   8.850
 6369POPC   GL240514  22.997  18.924   8.850
 6369POPC   C1A40515  22.929  19.083   8.550
 6369POPC   D2A40516  22.981  19.013   8.250
 6369POPC   C3A40517  22.920  19.041   7.950
 6369POPC   C4A40518  22.898  19.101   7.650
 6369POPC   C1B40519  23.060  18.899   8.550
 6369POPC   C2B40520  23.090  18.826   8.250
 6369POPC   C3B40521  23.057  18.877   7.950
 6369POPC   C4B40522  23.053  18.817   7.650
 6370POPC   NC340523   8.948  31.423   9.450
 6370POPC   PO440524   8.968  31.491   9.150
 6370POPC   GL140525   8.956  31.484   8.850
 6370POPC   GL240526   8.867  31.614   8.850
 6370POPC   C1A40527   9.001  31.479   8.550
 6370POPC   D2A40528   8.960  31.516   8.250
 6370POPC   C3A40529   8.991  31.468   7.950
 6370POPC   C4A40530   8.941  31.488   7.650
 6370POPC   C1B40531   8.839  31.726   8.550
 6370POPC   C2B40532   8.807  31.693   8.250
 6370POPC   C3B40533   8.818  31.712   7.950
 6370POPC   C4B40534   8.877  31.708   7.650
 6371POPC   NC340535  10.531  25.247   9.450
 6371POPC   PO440536  10.496  25.218   9.150
 6371POPC   GL140537  10.512  25.237   8.850
 6371POPC   GL240538  10.674  25.219   8.850
 6371POPC   C1A40539  10.491  25.303   8.550
 6371POPC   D2A40540  10.501  25.251   8.250
 6371POPC   C3A40541  10.554  25.315   7.950
 6371POPC   C4A40542  10.533  25.235   7.650
 6371POPC   C1B40543  10.794  25.260   8.550
 6371POPC   C2B40544  10.765  25.218   8.250
 6371POPC   C3B40545  10.746  25.199   7.950
 6371POPC   C4B40546  10.805  25.275   7.650
 6372POPC   NC340547  33.825  23.741   9.450
 6372POPC   PO440548  33.754  23.679   9.150
 6372POPC   GL140549  33.845  23.686   8.850
 6372POPC   GL240550  33.954  23.753   8.850
 6372POPC   C1A40551  33.783  23.712   8.550
 6372POPC   D2A40552  33.824  23.751   8.250
 6372POPC   C3A40553  33.794  23.698   7.950
 6372POPC   C4A40554  33.825  23.759   7.650
 6372POPC   C1B40555  34.075  23.699   8.550
 6372POPC   C2B40556  34.089  23.688   8.250
 6372POPC   C3B40557  34.032  23.726   7.950
 6372POPC   C4B40558  34.005  23.725   7.650
 6373POPC   NC340559  42.288  33.796   9.450
 6373POPC   PO440560  42.361  33.801   9.150
 6373POPC   GL140561  42.319  33.814   8.850
 6373POPC   GL240562  42.249  33.887   8.850
 6373POPC   C1A40563  42.368  33.804   8.550
 6373POPC   D2A40564  42.355  33.754   8.250
 6373POPC   C3A40565  42.285  33.826   7.950
 6373POPC   C4A40566  42.379  33.844   7.650
 6373POPC   C1B40567  42.112  34.003   8.550
 6373POPC   C2B40568  42.200  33.989   8.250
 6373POPC   C3B40569  42.197  33.938   7.950
 6373POPC   C4B40570  42.197  33.943   7.650
 6374POPC   NC340571   0.455  32.990   9.450
 6374POPC   PO440572   0.402  33.012   9.150
 6374POPC   GL140573   0.453  33.006   8.850
 6374POPC   GL240574   0.357  33.012   8.850
 6374POPC   C1A40575   0.430  33.006   8.550
 6374POPC   D2A40576   0.454  33.051   8.250
 6374POPC   C3A40577   0.454  33.024   7.950
 6374POPC   C4A40578   0.441  33.004   7.650
 6374POPC   C1B40579   0.142  33.110   8.550
 6374POPC   C2B40580   0.164  33.041   8.250
 6374POPC   C3B40581   0.227  33.048   7.950
 6374POPC   C4B40582   0.231  33.021   7.650
 6375POPC   NC340583  29.902  17.552   9.450
 6375POPC   PO440584  29.879  17.532   9.150
 6375POPC   GL140585  29.946  17.480   8.850
 6375POPC   GL240586  30.066  17.564   8.850
 6375POPC   C1A40587  29.955  17.525   8.550
 6375POPC   D2A40588  29.933  17.488   8.250
 6375POPC   C3A40589  29.934  17.504   7.950
 6375POPC   C4A40590  29.923  17.484   7.650
 6375POPC   C1B40591  30.154  17.559   8.550
 6375POPC   C2B40592  30.146  17.545   8.250
 6375POPC   C3B40593  30.162  17.626   7.950
 6375POPC   C4B40594  30.190  17.612   7.650
 6376POPC   NC340595  36.112  29.886   9.450
 6376POPC   PO440596  36.086  29.971   9.150
 6376POPC   GL140597  36.128  29.881   8.850
 6376POPC   GL240598  36.071  30.014   8.850
 6376POPC   C1A40599  36.116  29.964   8.550
 6376POPC   D2A40600  36.116  29.932   8.250
 6376POPC   C3A40601  36.150  29.950   7.950
 6376POPC   C4A40602  36.122  29.871   7.650
 6376POPC   C1B40603  36.011  30.099   8.550
 6376POPC   C2B40604  35.997  30.156   8.250
 6376POPC   C3B40605  36.062  30.170   7.950
 6376POPC   C4B40606  36.010  30.122   7.650
 6377POPC   NC340607   5.097  34.609   9.450
 6377POPC   PO440608   5.104  34.535   9.150
 6377POPC   GL140609   5.081  34.581   8.850
 6377POPC   GL240610   5.125  34.638   8.850
 6377POPC   C1A40611   5.096  34.616   8.550
 6377POPC   D2A40612   5.070  34.607   8.250
 6377POPC   C3A40613   5.131  34.586   7.950
 6377POPC   C4A40614   5.135  34.573   7.650
 6377POPC   C1B40615   5.263  34.766   8.550
 6377POPC   C2B40616   5.283  34.728   8.250
 6377POPC   C3B40617   5.218  34.730   7.950
 6377POPC   C4B40618   5.216  34.806   7.650
 6378POPC   NC340619   6.623  32.295   9.450
 6378POPC   PO440620   6.654  32.287   9.150
 6378POPC   GL140621   6.662  32.246   8.850
 6378POPC   GL240622   6.545  32.235   8.850
 6378POPC   C1A40623   6.669  32.246   8.550
 6378POPC   D2A40624   6.649  32.201   8.250
 6378POPC   C3A40625   6.630  32.294   7.950
 6378POPC   C4A40626   6.634  32.228   7.650
 6378POPC   C1B40627   6.429  32.119   8.550
 6378POPC   C2B40628   6.457  32.172   8.250
 6378POPC   C3B40629   6.456  32.147   7.950
 6378POPC   C4B40630   6.413  32.086   7.650
 6379POPC   NC340631  13.621   2.009   9.450
 6379POPC   PO440632  13.640   1.969   9.150
 6379POPC   GL140633  13.665   1.979   8.850
 6379POPC   GL240634  13.480   1.930   8.850
 6379POPC   C1A40635  13.652   1.968   8.550
 6379POPC   D2A40636  13.671   2.011   8.250
 6379POPC   C3A40637  13.677   1.963   7.950
 6379POPC   C4A40638  13.591   1.965   7.650
 6379POPC   C1B40639  13.345   1.960   8.550
 6379POPC   C2B40640  13.395   1.934   8.250
 6379POPC   C3B40641  13.339   1.943   7.950
 6379POPC   C4B40642  13.373   1.937   7.650
 6380POPC   NC340643  32.987  13.625   9.450
 6380POPC   PO440644  33.039  13.591   9.150
 6380POPC   GL140645  33.057  13.621   8.850
 6380POPC   GL240646  33.114  13.683   8.850
 6380POPC   C1A40647  33.074  13.607   8.550
 6380POPC   D2A40648  33.053  13.592   8.250
 6380POPC   C3A40649  32.990  13.669   7.950
 6380POPC   C4A40650  33.034  13.624   7.650
 6380POPC   C1B40651  33.218  13.749   8.550
 6380POPC   C2B40652  33.256  13.674   8.250
 6380POPC   C3B40653  33.237  13.677   7.950
 6380POPC   C4B40654  33.231  13.668   7.650
 6381POPC   NC340655   0.457   9.773   5.550
 6381POPC   PO440656   0.463   9.758   5.850
 6381POPC   GL140657   0.452   9.711   6.150
 6381POPC   GL240658   0.347   9.675   6.150
 6381POPC   C1A40659   0.485   9.745   6.450
 6381POPC   D2A40660   0.446   9.740   6.750
 6381POPC   C3A40661   0.404   9.709   7.050
 6381POPC   C4A40662   0.422   9.728   7.350
 6381POPC   C1B40663   0.307   9.489   6.450
 6381POPC   C2B40664   0.347   9.542   6.750
 6381POPC   C3B40665   0.298   9.494   7.050
 6381POPC   C4B40666   0.321   9.559   7.350
 6382POPC   NC340667   3.514  24.533   5.550
 6382POPC   PO440668   3.520  24.449   5.850
 6382POPC   GL140669   3.578  24.444   6.150
 6382POPC   GL240670   3.695  24.454   6.150
 6382POPC   C1A40671   3.578  24.441   6.450
 6382POPC   D2A40672   3.566  24.462   6.750
 6382POPC   C3A40673   3.569  24.500   7.050
 6382POPC   C4A40674   3.583  24.500   7.350
 6382POPC   C1B40675   3.814  24.432   6.450
 6382POPC   C2B40676   3.792  24.435   6.750
 6382POPC   C3B40677   3.749  24.463   7.050
 6382POPC   C4B40678   3.796  24.459   7.350
 6383POPC   NC340679  26.000  43.922   5.550
 6383POPC   PO440680  26.064  43.885   5.850
 6383POPC   GL140681  26.089  43.927   6.150
 6383POPC   GL240682  26.012  43.797   6.150
 6383POPC   C1A40683  26.030  43.929   6.450
 6383POPC   D2A40684  26.070  43.933   6.750
 6383POPC   C3A40685  26.025  43.924   7.050
 6383POPC   C4A40686  26.047  43.871   7.350
 6383POPC   C1B40687  26.110  43.630   6.450
 6383POPC   C2B40688  26.030  43.606   6.750
 6383POPC   C3B40689  26.110  43.657   7.050
 6383POPC   C4B40690  26.104  43.665   7.350
 6384POPC   NC340691   8.158   1.196   5.550
 6384POPC   PO440692   8.176   1.263   5.850
 6384POPC   GL140693   8.222   1.256   6.150
 6384POPC   GL240694   8.052   1.130   6.150
 6384POPC   C1A40695   8.224   1.254   6.450
 6384POPC   D2A40696   8.203   1.253   6.750
 6384POPC   C3A40697   8.222   1.229   7.050
 6384POPC   C4A40698   8.229   1.164   7.350
 6384POPC   C1B40699   7.976   1.055   6.450
 6384POPC   C2B40700   8.019   1.127   6.750
 6384POPC   C3B40701   7.963   1.106   7.050
 6384POPC   C4B40702   8.017   1.081   7.350
 6385POPC   NC340703  28.347  33.048   5.550
 6385POPC   PO440704  28.374  33.066   5.850
 6385POPC   GL140705  28.364  33.028   6.150
 6385POPC   GL240706  28.406  32.877   6.150
 6385POPC   C1A40707  28.353  33.073   6.450
 6385POPC   D2A40708  28.404  33.041   6.750
 6385POPC   C3A40709  28.343  32.997   7.050
 6385POPC   C4A40710  28.330  33.011   7.350
 6385POPC   C1B40711  28.474  32.829   6.450
 6385POPC   C2B40712  28.536  32.840   6.750
 6385POPC   C3B40713  28.478  32.813   7.050
 6385POPC   C4B40714  28.513  32.769   7.350
 6386POPC   NC340715  33.841   7.407   5.550
 6386POPC   PO440716  33.820   7.401   5.850
 6386POPC   GL140717  33.846   7.408   6.150
 6386POPC   GL240718  33.673   7.473   6.150
 6386POPC   C1A40719  33.826   7.428   6.450
 6386POPC   D2A40720  33.821   7.373   6.750
 6386POPC   C3A40721  33.803   7.460   7.050
 6386POPC   C4A40722  33.757   7.384   7.350
 6386POPC   C1B40723  33.594   7.515   6.450
 6386POPC   C2B40724  33.548   7.501   6.750
 6386POPC   C3B40725  33.514   7.512   7.050
 6386POPC   C4B40726  33.550   7.520   7.350
 6387POPC   NC340727  18.271  19.087   5.550
 6387POPC   PO440728  18.274  19.064   5.850
 6387POPC   GL140729  18.242  19.046   6.150
 6387POPC   GL240730  18.197  18.955   6.150
 6387POPC   C1A40731  18.328  19.025   6.450
 6387POPC   D2A40732  18.245  19.021   6.750
 6387POPC   C3A40733  18.307  19.049   7.050
 6387POPC   C4A40734  18.254  19.031   7.350
 6387POPC   C1B40735  18.157  18.855   6.450
 6387POPC   C2B40736  18.225  18.816   6.750
 6387POPC   C3B40737  18.181  18.784   7.050
 6387POPC   C4B40738  18.180  18.789   7.350
 6388POPC   NC340739  40.823  39.957   5.550
 6388POPC   PO440740  40.798  40.015   5.850
 6388POPC   GL140741  40.750  40.023   6.150
 6388POPC   GL240742  40.725  40.102   6.150
 6388POPC   C1A40743  40.740  39.970   6.450
 6388POPC   D2A40744  40.764  40.036   6.750
 6388POPC   C3A40745  40.748  40.042   7.050
 6388POPC   C4A40746  40.742  40.031   7.350
 6388POPC   C1B40747  40.660  40.236   6.450
 6388POPC   C2B40748  40.598  40.235   6.750
 6388POPC   C3B40749  40.655  40.244   7.050
 6388POPC   C4B40750  40.616  40.168   7.350
 6389POPC   NC340751  38.461  28.389   5.550
 6389POPC   PO440752  38.498  28.323   5.850
 6389POPC   GL140753  38.414  28.395   6.150
 6389POPC   GL240754  38.569  28.323   6.150
 6389POPC   C1A40755  38.412  28.408   6.450
 6389POPC   D2A40756  38.446  28.333   6.750
 6389POPC   C3A40757  38.412  28.381   7.050
 6389POPC   C4A40758  38.418  28.405   7.350
 6389POPC   C1B40759  38.691  28.239   6.450
 6389POPC   C2B40760  38.677  28.199   6.750
 6389POPC   C3B40761  38.651  28.242   7.050
 6389POPC   C4B40762  38.639  28.274   7.350
 6390POPC   NC340763  32.286  39.996   5.550
 6390POPC   PO440764  32.292  39.985   5.850
 6390POPC   GL140765  32.231  39.969   6.150
 6390POPC   GL240766  32.244  40.145   6.150
 6390POPC   C1A40767  32.235  40.048   6.450
 6390POPC   D2A40768  32.293  40.031   6.750
 6390POPC   C3A40769  32.282  39.984   7.050
 6390POPC   C4A40770  32.245  39.964   7.350
 6390POPC   C1B40771  32.183  40.288   6.450
 6390POPC   C2B40772  32.261  40.287   6.750
 6390POPC   C3B40773  32.262  40.292   7.050
 6390POPC   C4B40774  32.231  40.208   7.350
 6391POPC   NC340775  30.665  28.337   5.550
 6391POPC   PO440776  30.691  28.343   5.850
 6391POPC   GL140777  30.708  28.376   6.150
 6391POPC   GL240778  30.736  28.233   6.150
 6391POPC   C1A40779  30.685  28.377   6.450
 6391POPC   D2A40780  30.732  28.359   6.750
 6391POPC   C3A40781  30.653  28.336   7.050
 6391POPC   C4A40782  30.705  28.411   7.350
 6391POPC   C1B40783  30.809  28.205   6.450
 6391POPC   C2B40784  30.816  28.206   6.750
 6391POPC   C3B40785  30.800  28.132   7.050
 6391POPC   C4B40786  30.818  28.186   7.350
 6392POPC   NC340787  29.912  12.900   5.550
 6392POPC   PO440788  29.889  12.873   5.850
 6392POPC   GL140789  29.912  12.805   6.150
 6392POPC   GL240790  29.785  12.780   6.150
 6392POPC   C1A40791  29.945  12.901   6.450
 6392POPC   D2A40792  29.891  12.857   6.750
 6392POPC   C3A40793  29.876  12.883   7.050
 6392POPC   C4A40794  29.937  12.858   7.350
 6392POPC   C1B40795  29.705  12.751   6.450
 6392POPC   C2B40796  29.724  12.780   6.750
 6392POPC   C3B40797  29.692  12.731   7.050
 6392POPC   C4B40798  29.741  12.743   7.350
 6393POPC   NC340799  10.482  37.658   5.550
 6393POPC   PO440800  10.530  37.694   5.850
 6393POPC   GL140801  10.508  37.726   6.150
 6393POPC   GL240802  10.535  37.569   6.150
 6393POPC   C1A40803  10.538  37.634   6.450
 6393POPC   D2A40804  10.566  37.631   6.750
 6393POPC   C3A40805  10.519  37.659   7.050
 6393POPC   C4A40806  10.559  37.693   7.350
 6393POPC   C1B40807  10.445  37.471   6.450
 6393POPC   C2B40808  10.504  37.411   6.750
 6393POPC   C3B40809  10.518  37.448   7.050
 6393POPC   C4B40810  10.530  37.437   7.350
 6394POPC   NC340811  16.746  16.001   5.550
 6394POPC   PO440812  16.712  15.982   5.850
 6394POPC   GL140813  16.769  15.946   6.150
 6394POPC   GL240814  16.740  16.080   6.150
 6394POPC   C1A40815  16.751  15.976   6.450
 6394POPC   D2A40816  16.715  16.001   6.750
 6394POPC   C3A40817  16.763  15.959   7.050
 6394POPC   C4A40818  16.775  15.966   7.350
 6394POPC   C1B40819  16.691  16.201   6.450
 6394POPC   C2B40820  16.632  16.163   6.750
 6394POPC   C3B40821  16.709  16.228   7.050
 6394POPC   C4B40822  16.646  16.188   7.350
 6395POPC   NC340823  32.264  44.654   5.550
 6395POPC   PO440824  32.214  44.703   5.850
 6395POPC   GL140825  32.263  44.699   6.150
 6395POPC   GL240826  32.311  44.550   6.150
 6395POPC   C1A40827  32.203  44.693   6.450
 6395POPC   D2A40828  32.287  44.674   6.750
 6395POPC   C3A40829  32.205  44.624   7.050
 6395POPC   C4A40830  32.213  44.639   7.350
 6395POPC   C1B40831  32.473  44.501   6.450
 6395POPC   C2B40832  32.441  44.513   6.750
 6395POPC   C3B40833  32.496  44.503   7.050
 6395POPC   C4B40834  32.476  44.545   7.350
 6396POPC   NC340835  16.757  43.870   5.550
 6396POPC   PO440836  16.702  43.894   5.850
 6396POPC   GL140837  16.692  43.921   6.150
 6396POPC   GL240838  16.607  43.770   6.150
 6396POPC   C1A40839  16.778  43.916   6.450
 6396POPC   D2A40840  16.698  43.919   6.750
 6396POPC   C3A40841  16.711  43.841   7.050
 6396POPC   C4A40842  16.707  43.929   7.350
 6396POPC   C1B40843  16.568  43.712   6.450
 6396POPC   C2B40844  16.569  43.756   6.750
 6396POPC   C3B40845  16.511  43.718   7.050
 6396POPC   C4B40846  16.591  43.686   7.350
 6397POPC   NC340847  43.160  32.240   5.550
 6397POPC   PO440848  43.115  32.212   5.850
 6397POPC   GL140849  43.082  32.271   6.150
 6397POPC   GL240850  43.033  32.338   6.150
 6397POPC   C1A40851  43.089  32.266   6.450
 6397POPC   D2A40852  43.111  32.213   6.750
 6397POPC   C3A40853  43.159  32.199   7.050
 6397POPC   C4A40854  43.127  32.285   7.350
 6397POPC   C1B40855  42.902  32.391   6.450
 6397POPC   C2B40856  42.919  32.307   6.750
 6397POPC   C3B40857  42.859  32.367   7.050
 6397POPC   C4B40858  42.848  32.340   7.350
 6398POPC   NC340859  10.532   3.582   5.550
 6398POPC   PO440860  10.566   3.574   5.850
 6398POPC   GL140861  10.497   3.537   6.150
 6398POPC   GL240862  10.663   3.517   6.150
 6398POPC   C1A40863  10.486   3.492   6.450
 6398POPC   D2A40864  10.486   3.542   6.750
 6398POPC   C3A40865  10.547   3.527   7.050
 6398POPC   C4A40866  10.478   3.589   7.350
 6398POPC   C1B40867  10.757   3.473   6.450
 6398POPC   C2B40868  10.759   3.488   6.750
 6398POPC   C3B40869  10.813   3.468   7.050
 6398POPC   C4B40870  10.737   3.434   7.350
 6399POPC   NC340871  10.484  40.739   5.550
 6399POPC   PO440872  10.560  40.791   5.850
 6399POPC   GL140873  10.484  40.826   6.150
 6399POPC   GL240874  10.559  40.909   6.150
 6399POPC   C1A40875  10.490  40.832   6.450
 6399POPC   D2A40876  10.562  40.743   6.750
 6399POPC   C3A40877  10.522  40.806   7.050
 6399POPC   C4A40878  10.562  40.817   7.350
 6399POPC   C1B40879  10.574  41.027   6.450
 6399POPC   C2B40880  10.603  41.038   6.750
 6399POPC   C3B40881  10.568  41.003   7.050
 6399POPC   C4B40882  10.552  41.067   7.350
 6400POPC   NC340883  19.092   4.364   5.550
 6400POPC   PO440884  19.092   4.364   5.850
 6400POPC   GL140885  19.017   4.355   6.150
 6400POPC   GL240886  18.911   4.310   6.150
 6400POPC   C1A40887  19.052   4.309   6.450
 6400POPC   D2A40888  19.086   4.342   6.750
 6400POPC   C3A40889  19.014   4.323   7.050
 6400POPC   C4A40890  19.010   4.330   7.350
 6400POPC   C1B40891  18.812   4.302   6.450
 6400POPC   C2B40892  18.797   4.237   6.750
 6400POPC   C3B40893  18.836   4.232   7.050
 6400POPC   C4B40894  18.803   4.279   7.350
 6401POPC   NC340895  36.089   0.397   5.550
 6401POPC   PO440896  36.116   0.426   5.850
 6401POPC   GL140897  36.150   0.399   6.150
 6401POPC   GL240898  36.249   0.397   6.150
 6401POPC   C1A40899  36.104   0.407   6.450
 6401POPC   D2A40900  36.168   0.450   6.750
 6401POPC   C3A40901  36.104   0.442   7.050
 6401POPC   C4A40902  36.098   0.411   7.350
 6401POPC   C1B40903  36.404   0.360   6.450
 6401POPC   C2B40904  36.345   0.389   6.750
 6401POPC   C3B40905  36.394   0.387   7.050
 6401POPC   C4B40906  36.408   0.356   7.350
 6402POPC   NC340907  25.224   5.899   5.550
 6402POPC   PO440908  25.286   5.904   5.850
 6402POPC   GL140909  25.293   5.836   6.150
 6402POPC   GL240910  25.375   5.954   6.150
 6402POPC   C1A40911  25.312   5.844   6.450
 6402POPC   D2A40912  25.269   5.832   6.750
 6402POPC   C3A40913  25.253   5.913   7.050
 6402POPC   C4A40914  25.278   5.888   7.350
 6402POPC   C1B40915  25.439   6.004   6.450
 6402POPC   C2B40916  25.490   5.970   6.750
 6402POPC   C3B40917  25.448   6.048   7.050
 6402POPC   C4B40918  25.477   5.977   7.350
 6403POPC   NC340919  22.942  31.473   5.550
 6403POPC   PO440920  22.897  31.499   5.850
 6403POPC   GL140921  22.889  31.490   6.150
 6403POPC   GL240922  23.094  31.439   6.150
 6403POPC   C1A40923  22.973  31.457   6.450
 6403POPC   D2A40924  22.954  31.436   6.750
 6403POPC   C3A40925  22.923  31.516   7.050
 6403POPC   C4A40926  22.914  31.435   7.350
 6403POPC   C1B40927  23.186  31.397   6.450
 6403POPC   C2B40928  23.177  31.392   6.750
 6403POPC   C3B40929  23.220  31.462   7.050
 6403POPC   C4B40930  23.230  31.382   7.350
 6404POPC   NC340931  21.365  28.416   5.550
 6404POPC   PO440932  21.359  28.345   5.850
 6404POPC   GL140933  21.366  28.356   6.150
 6404POPC   GL240934  21.467  28.283   6.150
 6404POPC   C1A40935  21.342  28.395   6.450
 6404POPC   D2A40936  21.422  28.386   6.750
 6404POPC   C3A40937  21.356  28.358   7.050
 6404POPC   C4A40938  21.423  28.353   7.350
 6404POPC   C1B40939  21.564  28.190   6.450
 6404POPC   C2B40940  21.596  28.216   6.750
 6404POPC   C3B40941  21.577  28.178   7.050
 6404POPC   C4B40942  21.583  28.199   7.350
 6405POPC   NC340943  26.054  36.119   5.550
 6405POPC   PO440944  26.089  36.152   5.850
 6405POPC   GL140945  25.993  36.169   6.150
 6405POPC   GL240946  26.149  35.984   6.150
 6405POPC   C1A40947  26.057  36.120   6.450
 6405POPC   D2A40948  26.035  36.150   6.750
 6405POPC   C3A40949  26.087  36.131   7.050
 6405POPC   C4A40950  26.046  36.098   7.350
 6405POPC   C1B40951  26.179  35.904   6.450
 6405POPC   C2B40952  26.144  35.903   6.750
 6405POPC   C3B40953  26.158  35.934   7.050
 6405POPC   C4B40954  26.157  35.953   7.350
 6406POPC   NC340955   4.290   7.405   5.550
 6406POPC   PO440956   4.361   7.373   5.850
 6406POPC   GL140957   4.296   7.460   6.150
 6406POPC   GL240958   4.445   7.384   6.150
 6406POPC   C1A40959   4.277   7.454   6.450
 6406POPC   D2A40960   4.319   7.437   6.750
 6406POPC   C3A40961   4.287   7.394   7.050
 6406POPC   C4A40962   4.364   7.400   7.350
 6406POPC   C1B40963   4.512   7.383   6.450
 6406POPC   C2B40964   4.542   7.342   6.750
 6406POPC   C3B40965   4.545   7.301   7.050
 6406POPC   C4B40966   4.513   7.298   7.350
 6407POPC   NC340967  36.920  33.783   5.550
 6407POPC   PO440968  36.869  33.820   5.850
 6407POPC   GL140969  36.886  33.798   6.150
 6407POPC   GL240970  37.011  33.762   6.150
 6407POPC   C1A40971  36.898  33.794   6.450
 6407POPC   D2A40972  36.870  33.799   6.750
 6407POPC   C3A40973  36.919  33.819   7.050
 6407POPC   C4A40974  36.878  33.764   7.350
 6407POPC   C1B40975  37.147  33.840   6.450
 6407POPC   C2B40976  37.170  33.814   6.750
 6407POPC   C3B40977  37.109  33.817   7.050
 6407POPC   C4B40978  37.104  33.815   7.350
 6408POPC   NC340979  16.685   7.397   5.550
 6408POPC   PO440980  16.734   7.454   5.850
 6408POPC   GL140981  16.757   7.448   6.150
 6408POPC   GL240982  16.820   7.345   6.150
 6408POPC   C1A40983  16.722   7.381   6.450
 6408POPC   D2A40984  16.702   7.445   6.750
 6408POPC   C3A40985  16.766   7.421   7.050
 6408POPC   C4A40986  16.682   7.409   7.350
 6408POPC   C1B40987  16.926   7.296   6.450
 6408POPC   C2B40988  16.883   7.305   6.750
 6408POPC   C3B40989  16.978   7.266   7.050
 6408POPC   C4B40990  16.964   7.308   7.350
 6409POPC   NC340991  19.852   8.971   5.550
 6409POPC   PO440992  19.836   8.969   5.850
 6409POPC   GL140993  19.807   8.988   6.150
 6409POPC   GL240994  19.760   8.864   6.150
 6409POPC   C1A40995  19.846   8.926   6.450
 6409POPC   D2A40996  19.807   8.931   6.750
 6409POPC   C3A40997  19.856   8.940   7.050
 6409POPC   C4A40998  19.829   9.007   7.350
 6409POPC   C1B40999  19.742   8.715   6.450
 6409POPC   C2B41000  19.706   8.757   6.750
 6409POPC   C3B41001  19.700   8.736   7.050
 6409POPC   C4B41002  19.732   8.759   7.350
 6410POPC   NC341003  36.870   3.507   5.550
 6410POPC   PO441004  36.917   3.498   5.850
 6410POPC   GL141005  36.914   3.585   6.150
 6410POPC   GL241006  36.963   3.452   6.150
 6410POPC   C1A41007  36.871   3.561   6.450
 6410POPC   D2A41008  36.861   3.557   6.750
 6410POPC   C3A41009  36.942   3.496   7.050
 6410POPC   C4A41010  36.890   3.504   7.350
 6410POPC   C1B41011  37.082   3.391   6.450
 6410POPC   C2B41012  37.168   3.397   6.750
 6410POPC   C3B41013  37.146   3.411   7.050
 6410POPC   C4B41014  37.146   3.464   7.350
 6411POPC   NC341015   1.171   2.005   5.550
 6411POPC   PO441016   1.259   1.956   5.850
 6411POPC   GL141017   1.246   1.994   6.150
 6411POPC   GL241018   1.114   1.869   6.150
 6411POPC   C1A41019   1.210   1.962   6.450
 6411POPC   D2A41020   1.238   2.000   6.750
 6411POPC   C3A41021   1.184   2.029   7.050
 6411POPC   C4A41022   1.240   1.968   7.350
 6411POPC   C1B41023   1.055   1.739   6.450
 6411POPC   C2B41024   1.089   1.788   6.750
 6411POPC   C3B41025   1.133   1.810   7.050
 6411POPC   C4B41026   1.056   1.781   7.350
 6412POPC   NC341027  16.731  27.546   5.550
 6412POPC   PO441028  16.772  27.559   5.850
 6412POPC   GL141029  16.751  27.604   6.150
 6412POPC   GL241030  16.844  27.489   6.150
 6412POPC   C1A41031  16.774  27.624   6.450
 6412POPC   D2A41032  16.777  27.612   6.750
 6412POPC   C3A41033  16.742  27.620   7.050
 6412POPC   C4A41034  16.762  27.604   7.350
 6412POPC   C1B41035  16.870  27.371   6.450
 6412POPC   C2B41036  16.839  27.421   6.750
 6412POPC   C3B41037  16.841  27.386   7.050
 6412POPC   C4B41038  16.839  27.405   7.350
 6413POPC   NC341039  29.880   4.330   5.550
 6413POPC   PO441040  29.947   4.282   5.850
 6413POPC   GL141041  29.968   4.365   6.150
 6413POPC   GL241042  29.822   4.428   6.150
 6413POPC   C1A41043  29.968   4.318   6.450
 6413POPC   D2A41044  29.887   4.295   6.750
 6413POPC   C3A41045  29.928   4.280   7.050
 6413POPC   C4A41046  29.968   4.367   7.350
 6413POPC   C1B41047  29.762   4.452   6.450
 6413POPC   C2B41048  29.690   4.514   6.750
 6413POPC   C3B41049  29.745   4.512   7.050
 6413POPC   C4B41050  29.775   4.459   7.350
 6414POPC   NC341051  21.419   5.845   5.550
 6414POPC   PO441052  21.365   5.834   5.850
 6414POPC   GL141053  21.394   5.819   6.150
 6414POPC   GL241054  21.306   5.955   6.150
 6414POPC   C1A41055  21.398   5.880   6.450
 6414POPC   D2A41056  21.397   5.910   6.750
 6414POPC   C3A41057  21.385   5.848   7.050
 6414POPC   C4A41058  21.342   5.912   7.350
 6414POPC   C1B41059  21.237   6.111   6.450
 6414POPC   C2B41060  21.248   6.041   6.750
 6414POPC   C3B41061  21.192   6.057   7.050
 6414POPC   C4B41062  21.269   6.040   7.350
 6415POPC   NC341063  44.628  36.940   5.550
 6415POPC   PO441064  44.644  36.911   5.850
 6415POPC   GL141065  44.617  36.948   6.150
 6415POPC   GL241066  44.563  36.971   6.150
 6415POPC   C1A41067  44.692  36.867   6.450
 6415POPC   D2A41068  44.678  36.892   6.750
 6415POPC   C3A41069  44.709  36.857   7.050
 6415POPC   C4A41070  44.707  36.900   7.350
 6415POPC   C1B41071  44.388  36.931   6.450
 6415POPC   C2B41072  44.425  36.959   6.750
 6415POPC   C3B41073  44.378  36.987   7.050
 6415POPC   C4B41074  44.418  36.991   7.350
 6416POPC   NC341075  15.131  29.948   5.550
 6416POPC   PO441076  15.133  29.964   5.850
 6416POPC   GL141077  15.150  29.888   6.150
 6416POPC   GL241078  15.177  30.046   6.150
 6416POPC   C1A41079  15.166  29.925   6.450
 6416POPC   D2A41080  15.153  29.892   6.750
 6416POPC   C3A41081  15.210  29.946   7.050
 6416POPC   C4A41082  15.157  29.919   7.350
 6416POPC   C1B41083  15.249  30.118   6.450
 6416POPC   C2B41084  15.265  30.141   6.750
 6416POPC   C3B41085  15.281  30.201   7.050
 6416POPC   C4B41086  15.266  30.201   7.350
 6417POPC   NC341087   5.896   0.452   5.550
 6417POPC   PO441088   5.857   0.476   5.850
 6417POPC   GL141089   5.822   0.428   6.150
 6417POPC   GL241090   5.789   0.367   6.150
 6417POPC   C1A41091   5.826   0.467   6.450
 6417POPC   D2A41092   5.854   0.445   6.750
 6417POPC   C3A41093   5.832   0.390   7.050
 6417POPC   C4A41094   5.854   0.397   7.350
 6417POPC   C1B41095   5.838   0.208   6.450
 6417POPC   C2B41096   5.753   0.177   6.750
 6417POPC   C3B41097   5.800   0.168   7.050
 6417POPC   C4B41098   5.829   0.220   7.350
 6418POPC   NC341099  33.779  18.294   5.550
 6418POPC   PO441100  33.826  18.318   5.850
 6418POPC   GL141101  33.773  18.285   6.150
 6418POPC   GL241102  33.801  18.208   6.150
 6418POPC   C1A41103  33.750  18.254   6.450
 6418POPC   D2A41104  33.823  18.328   6.750
 6418POPC   C3A41105  33.755  18.273   7.050
 6418POPC   C4A41106  33.798  18.317   7.350
 6418POPC   C1B41107  33.894  18.058   6.450
 6418POPC   C2B41108  33.884  18.062   6.750
 6418POPC   C3B41109  33.807  18.030   7.050
 6418POPC   C4B41110  33.816  18.009   7.350
 6419POPC   NC341111  18.275  17.530   5.550
 6419POPC   PO441112  18.261  17.530   5.850
 6419POPC   GL141113  18.246  17.530   6.150
 6419POPC   GL241114  18.442  17.439   6.150
 6419POPC   C1A41115  18.307  17.510   6.450
 6419POPC   D2A41116  18.312  17.529   6.750
 6419POPC   C3A41117  18.289  17.476   7.050
 6419POPC   C4A41118  18.238  17.528   7.350
 6419POPC   C1B41119  18.519  17.361   6.450
 6419POPC   C2B41120  18.465  17.347   6.750
 6419POPC   C3B41121  18.539  17.436   7.050
 6419POPC   C4B41122  18.554  17.394   7.350
 6420POPC   NC341123  25.242  29.192   5.550
 6420POPC   PO441124  25.258  29.189   5.850
 6420POPC   GL141125  25.303  29.189   6.150
 6420POPC   GL241126  25.360  29.059   6.150
 6420POPC   C1A41127  25.226  29.182   6.450
 6420POPC   D2A41128  25.297  29.151   6.750
 6420POPC   C3A41129  25.315  29.119   7.050
 6420POPC   C4A41130  25.265  29.171   7.350
 6420POPC   C1B41131  25.344  28.914   6.450
 6420POPC   C2B41132  25.328  28.950   6.750
 6420POPC   C3B41133  25.341  28.932   7.050
 6420POPC   C4B41134  25.411  28.888   7.350
 6421POPC   NC341135  27.624  16.702   5.550
 6421POPC   PO441136  27.557  16.760   5.850
 6421POPC   GL141137  27.590  16.776   6.150
 6421POPC   GL241138  27.676  16.790   6.150
 6421POPC   C1A41139  27.612  16.699   6.450
 6421POPC   D2A41140  27.566  16.756   6.750
 6421POPC   C3A41141  27.576  16.715   7.050
 6421POPC   C4A41142  27.547  16.771   7.350
 6421POPC   C1B41143  27.855  16.817   6.450
 6421POPC   C2B41144  27.878  16.808   6.750
 6421POPC   C3B41145  27.846  16.856   7.050
 6421POPC   C4B41146  27.815  16.775   7.350
 6422POPC   NC341147  33.807  43.893   5.550
 6422POPC   PO441148  33.764  43.858   5.850
 6422POPC   GL141149  33.815  43.845   6.150
 6422POPC   GL241150  33.798  44.030   6.150
 6422POPC   C1A41151  33.768  43.918   6.450
 6422POPC   D2A41152  33.808  43.860   6.750
 6422POPC   C3A41153  33.817  43.883   7.050
 6422POPC   C4A41154  33.802  43.849   7.350
 6422POPC   C1B41155  33.804  44.097   6.450
 6422POPC   C2B41156  33.763  44.168   6.750
 6422POPC   C3B41157  33.797  44.127   7.050
 6422POPC   C4B41158  33.771  44.089   7.350
 6423POPC   NC341159  38.416  40.032   5.550
 6423POPC   PO441160  38.448  39.995   5.850
 6423POPC   GL141161  38.501  39.983   6.150
 6423POPC   GL241162  38.286  40.045   6.150
 6423POPC   C1A41163  38.469  39.980   6.450
 6423POPC   D2A41164  38.461  39.989   6.750
 6423POPC   C3A41165  38.469  40.003   7.050
 6423POPC   C4A41166  38.475  40.033   7.350
 6423POPC   C1B41167  38.203  40.010   6.450
 6423POPC   C2B41168  38.163  39.957   6.750
 6423POPC   C3B41169  38.254  39.964   7.050
 6423POPC   C4B41170  38.244  39.948   7.350
 6424POPC   NC341171   6.686  32.242   5.550
 6424POPC   PO441172   6.681  32.216   5.850
 6424POPC   GL141173   6.622  32.210   6.150
 6424POPC   GL241174   6.765  32.228   6.150
 6424POPC   C1A41175   6.629  32.291   6.450
 6424POPC   D2A41176   6.600  32.242   6.750
 6424POPC   C3A41177   6.624  32.241   7.050
 6424POPC   C4A41178   6.647  32.227   7.350
 6424POPC   C1B41179   6.859  32.211   6.450
 6424POPC   C2B41180   6.886  32.136   6.750
 6424POPC   C3B41181   6.916  32.193   7.050
 6424POPC   C4B41182   6.922  32.216   7.350
 6425POPC   NC341183   5.070  14.433   5.550
 6425POPC   PO441184   5.103  14.360   5.850
 6425POPC   GL141185   5.130  14.410   6.150
 6425POPC   GL241186   5.055  14.257   6.150
 6425POPC   C1A41187   5.097  14.424   6.450
 6425POPC   D2A41188   5.082  14.376   6.750
 6425POPC   C3A41189   5.103  14.451   7.050
 6425POPC   C4A41190   5.060  14.440   7.350
 6425POPC   C1B41191   5.067  14.148   6.450
 6425POPC   C2B41192   5.100  14.188   6.750
 6425POPC   C3B41193   5.055  14.178   7.050
 6425POPC   C4B41194   5.093  14.169   7.350
 6426POPC   NC341195  13.598  11.350   5.550
 6426POPC   PO441196  13.638  11.255   5.850
 6426POPC   GL141197  13.622  11.267   6.150
 6426POPC   GL241198  13.690  11.416   6.150
 6426POPC   C1A41199  13.648  11.257   6.450
 6426POPC   D2A41200  13.637  11.296   6.750
 6426POPC   C3A41201  13.602  11.333   7.050
 6426POPC   C4A41202  13.579  11.320   7.350
 6426POPC   C1B41203  13.809  11.443   6.450
 6426POPC   C2B41204  13.763  11.444   6.750
 6426POPC   C3B41205  13.807  11.453   7.050
 6426POPC   C4B41206  13.815  11.440   7.350
 6427POPC   NC341207   0.460  38.449   5.550
 6427POPC   PO441208   0.450  38.471   5.850
 6427POPC   GL141209   0.417  38.462   6.150
 6427POPC   GL241210   0.498  38.598   6.150
 6427POPC   C1A41211   0.475  38.428   6.450
 6427POPC   D2A41212   0.488  38.489   6.750
 6427POPC   C3A41213   0.410  38.445   7.050
 6427POPC   C4A41214   0.412  38.448   7.350
 6427POPC   C1B41215   0.598  38.636   6.450
 6427POPC   C2B41216   0.603  38.657   6.750
 6427POPC   C3B41217   0.636  38.685   7.050
 6427POPC   C4B41218   0.597  38.606   7.350
 6428POPC   NC341219  10.477  25.229   5.550
 6428POPC   PO441220  10.503  25.223   5.850
 6428POPC   GL141221  10.487  25.225   6.150
 6428POPC   GL241222  10.667  25.174   6.150
 6428POPC   C1A41223  10.477  25.310   6.450
 6428POPC   D2A41224  10.547  25.303   6.750
 6428POPC   C3A41225  10.514  25.257   7.050
 6428POPC   C4A41226  10.534  25.313   7.350
 6428POPC   C1B41227  10.674  25.093   6.450
 6428POPC   C2B41228  10.742  25.138   6.750
 6428POPC   C3B41229  10.743  25.118   7.050
 6428POPC   C4B41230  10.761  25.141   7.350
 6429POPC   NC341231  32.225   4.344   5.550
 6429POPC   PO441232  32.209   4.336   5.850
 6429POPC   GL141233  32.213   4.350   6.150
 6429POPC   GL241234  32.220   4.427   6.150
 6429POPC   C1A41235  32.241   4.288   6.450
 6429POPC   D2A41236  32.201   4.340   6.750
 6429POPC   C3A41237  32.254   4.294   7.050
 6429POPC   C4A41238  32.208   4.339   7.350
 6429POPC   C1B41239  32.272   4.575   6.450
 6429POPC   C2B41240  32.265   4.589   6.750
 6429POPC   C3B41241  32.291   4.567   7.050
 6429POPC   C4B41242  32.259   4.578   7.350
 6430POPC   NC341243   0.413  14.396   5.550
 6430POPC   PO441244   0.399  14.450   5.850
 6430POPC   GL141245   0.432  14.427   6.150
 6430POPC   GL241246   0.337  14.381   6.150
 6430POPC   C1A41247   0.439  14.453   6.450
 6430POPC   D2A41248   0.459  14.354   6.750
 6430POPC   C3A41249   0.448  14.369   7.050
 6430POPC   C4A41250   0.484  14.409   7.350
 6430POPC   C1B41251   0.181  14.392   6.450
 6430POPC   C2B41252   0.221  14.402   6.750
 6430POPC   C3B41253   0.207  14.419   7.050
 6430POPC   C4B41254   0.190  14.443   7.350
 6431POPC   NC341255  32.980  40.024   5.550
 6431POPC   PO441256  33.024  40.043   5.850
 6431POPC   GL141257  32.999  40.021   6.150
 6431POPC   GL241258  32.961  40.036   6.150
 6431POPC   C1A41259  33.046  40.041   6.450
 6431POPC   D2A41260  33.034  40.025   6.750
 6431POPC   C3A41261  33.004  39.980   7.050
 6431POPC   C4A41262  32.978  40.042   7.350
 6431POPC   C1B41263  32.817  40.072   6.450
 6431POPC   C2B41264  32.753  40.143   6.750
 6431POPC   C3B41265  32.838  40.130   7.050
 6431POPC   C4B41266  32.785  40.085   7.350
 6432POPC   NC341267  30.744   7.448   5.550
 6432POPC   PO441268  30.717   7.398   5.850
 6432POPC   GL141269  30.706   7.372   6.150
 6432POPC   GL241270  30.583   7.480   6.150
 6432POPC   C1A41271  30.670   7.461   6.450
 6432POPC   D2A41272  30.697   7.471   6.750
 6432POPC   C3A41273  30.668   7.416   7.050
 6432POPC   C4A41274  30.676   7.379   7.350
 6432POPC   C1B41275  30.448   7.434   6.450
 6432POPC   C2B41276  30.433   7.499   6.750
 6432POPC   C3B41277  30.469   7.459   7.050
 6432POPC   C4B41278  30.482   7.461   7.350
 6433POPC   NC341279  38.495  39.253   5.550
 6433POPC   PO441280  38.426  39.182   5.850
 6433POPC   GL141281  38.414  39.278   6.150
 6433POPC   GL241282  38.303  39.234   6.150
 6433POPC   C1A41283  38.419  39.232   6.450
 6433POPC   D2A41284  38.477  39.248   6.750
 6433POPC   C3A41285  38.502  39.243   7.050
 6433POPC   C4A41286  38.426  39.212   7.350
 6433POPC   C1B41287  38.255  39.295   6.450
 6433POPC   C2B41288  38.259  39.231   6.750
 6433POPC   C3B41289  38.227  39.264   7.050
 6433POPC   C4B41290  38.203  39.299   7.350
 6434POPC   NC341291  28.360  26.091   5.550
 6434POPC   PO441292  28.355  26.019   5.850
 6434POPC   GL141293  28.388  26.060   6.150
 6434POPC   GL241294  28.316  26.170   6.150
 6434POPC   C1A41295  28.400  26.014   6.450
 6434POPC   D2A41296  28.385  26.091   6.750
 6434POPC   C3A41297  28.419  26.008   7.050
 6434POPC   C4A41298  28.370  26.045   7.350
 6434POPC   C1B41299  28.257  26.234   6.450
 6434POPC   C2B41300  28.256  26.315   6.750
 6434POPC   C3B41301  28.285  26.230   7.050
 6434POPC   C4B41302  28.240  26.292   7.350
 6435POPC   NC341303  29.124  43.078   5.550
 6435POPC   PO441304  29.179  43.110   5.850
 6435POPC   GL141305  29.178  43.123   6.150
 6435POPC   GL241306  29.157  42.969   6.150
 6435POPC   C1A41307  29.159  43.117   6.450
 6435POPC   D2A41308  29.189  43.113   6.750
 6435POPC   C3A41309  29.189  43.076   7.050
 6435POPC   C4A41310  29.172  43.127   7.350
 6435POPC   C1B41311  29.195  42.845   6.450
 6435POPC   C2B41312  29.111  42.892   6.750
 6435POPC   C3B41313  29.121  42.893   7.050
 6435POPC   C4B41314  29.110  42.872   7.350
 6436POPC   NC341315   1.195  36.156   5.550
 6436POPC   PO441316   1.168  36.115   5.850
 6436POPC   GL141317   1.166  36.124   6.150
 6436POPC   GL241318   1.061  36.050   6.150
 6436POPC   C1A41319   1.183  36.129   6.450
 6436POPC   D2A41320   1.238  36.132   6.750
 6436POPC   C3A41321   1.199  36.158   7.050
 6436POPC   C4A41322   1.189  36.110   7.350
 6436POPC   C1B41323   1.019  36.085   6.450
 6436POPC   C2B41324   0.970  36.072   6.750
 6436POPC   C3B41325   0.999  36.059   7.050
 6436POPC   C4B41326   0.989  36.065   7.350
 6437POPC   NC341327   4.361  36.120   5.550
 6437POPC   PO441328   4.335  36.100   5.850
 6437POPC   GL141329   4.319  36.156   6.150
 6437POPC   GL241330   4.365  35.975   6.150
 6437POPC   C1A41331   4.336  36.130   6.450
 6437POPC   D2A41332   4.358  36.169   6.750
 6437POPC   C3A41333   4.357  36.125   7.050
 6437POPC   C4A41334   4.346  36.098   7.350
 6437POPC   C1B41335   4.409  35.931   6.450
 6437POPC   C2B41336   4.436  35.908   6.750
 6437POPC   C3B41337   4.402  35.899   7.050
 6437POPC   C4B41338   4.407  35.893   7.350
 6438POPC   NC341339  22.162  35.331   5.550
 6438POPC   PO441340  22.146  35.345   5.850
 6438POPC   GL141341  22.166  35.355   6.150
 6438POPC   GL241342  22.228  35.281   6.150
 6438POPC   C1A41343  22.170  35.361   6.450
 6438POPC   D2A41344  22.184  35.317   6.750
 6438POPC   C3A41345  22.165  35.392   7.050
 6438POPC   C4A41346  22.126  35.346   7.350
 6438POPC   C1B41347  22.288  35.157   6.450
 6438POPC   C2B41348  22.294  35.190   6.750
 6438POPC   C3B41349  22.302  35.141   7.050
 6438POPC   C4B41350  22.338  35.192   7.350
 6439POPC   NC341351  20.652  11.295   5.550
 6439POPC   PO441352  20.637  11.264   5.850
 6439POPC   GL141353  20.563  11.280   6.150
 6439POPC   GL241354  20.709  11.378   6.150
 6439POPC   C1A41355  20.563  11.314   6.450
 6439POPC   D2A41356  20.630  11.345   6.750
 6439POPC   C3A41357  20.571  11.305   7.050
 6439POPC   C4A41358  20.596  11.318   7.350
 6439POPC   C1B41359  20.723  11.509   6.450
 6439POPC   C2B41360  20.752  11.550   6.750
 6439POPC   C3B41361  20.761  11.474   7.050
 6439POPC   C4B41362  20.693  11.513   7.350
 6440POPC   NC341363  26.067  11.294   5.550
 6440POPC   PO441364  26.066  11.322   5.850
 6440POPC   GL141365  26.047  11.318   6.150
 6440POPC   GL241366  26.191  11.195   6.150
 6440POPC   C1A41367  26.025  11.322   6.450
 6440POPC   D2A41368  26.066  11.296   6.750
 6440POPC   C3A41369  26.087  11.297   7.050
 6440POPC   C4A41370  26.085  11.288   7.350
 6440POPC   C1B41371  26.206  11.155   6.450
 6440POPC   C2B41372  26.220  11.140   6.750
 6440POPC   C3B41373  26.270  11.136   7.050
 6440POPC   C4B41374  26.300  11.138   7.350
 6441POPC   NC341375  17.461  19.062   5.550
 6441POPC   PO441376  17.480  19.097   5.850
 6441POPC   GL141377  17.511  19.082   6.150
 6441POPC   GL241378  17.596  19.203   6.150
 6441POPC   C1A41379  17.503  19.066   6.450
 6441POPC   D2A41380  17.528  19.097   6.750
 6441POPC   C3A41381  17.522  19.072   7.050
 6441POPC   C4A41382  17.525  19.096   7.350
 6441POPC   C1B41383  17.642  19.302   6.450
 6441POPC   C2B41384  17.571  19.255   6.750
 6441POPC   C3B41385  17.565  19.246   7.050
 6441POPC   C4B41386  17.651  19.242   7.350
 6442POPC   NC341387  15.169  10.547   5.550
 6442POPC   PO441388  15.161  10.559   5.850
 6442POPC   GL141389  15.202  10.491   6.150
 6442POPC   GL241390  15.215  10.414   6.150
 6442POPC   C1A41391  15.216  10.503   6.450
 6442POPC   D2A41392  15.174  10.480   6.750
 6442POPC   C3A41393  15.160  10.533   7.050
 6442POPC   C4A41394  15.217  10.512   7.350
 6442POPC   C1B41395  15.200  10.282   6.450
 6442POPC   C2B41396  15.193  10.286   6.750
 6442POPC   C3B41397  15.260  10.244   7.050
 6442POPC   C4B41398  15.243  10.256   7.350
 6443POPC   NC341399   3.519  40.819   5.550
 6443POPC   PO441400   3.540  40.765   5.850
 6443POPC   GL141401   3.499  40.739   6.150
 6443POPC   GL241402   3.658  40.800   6.150
 6443POPC   C1A41403   3.533  40.771   6.450
 6443POPC   D2A41404   3.579  40.803   6.750
 6443POPC   C3A41405   3.579  40.765   7.050
 6443POPC   C4A41406   3.517  40.779   7.350
 6443POPC   C1B41407   3.723  40.867   6.450
 6443POPC   C2B41408   3.777  40.937   6.750
 6443POPC   C3B41409   3.761  40.867   7.050
 6443POPC   C4B41410   3.769  40.933   7.350
 6444POPC   NC341411  18.300   7.429   5.550
 6444POPC   PO441412  18.284   7.408   5.850
 6444POPC   GL141413  18.323   7.464   6.150
 6444POPC   GL241414  18.216   7.275   6.150
 6444POPC   C1A41415  18.247   7.437   6.450
 6444POPC   D2A41416  18.249   7.388   6.750
 6444POPC   C3A41417  18.294   7.438   7.050
 6444POPC   C4A41418  18.280   7.469   7.350
 6444POPC   C1B41419  18.162   7.172   6.450
 6444POPC   C2B41420  18.216   7.168   6.750
 6444POPC   C3B41421  18.223   7.171   7.050
 6444POPC   C4B41422  18.220   7.165   7.350
 6445POPC   NC341423  23.673  21.412   5.550
 6445POPC   PO441424  23.670  21.385   5.850
 6445POPC   GL141425  23.732  21.426   6.150
 6445POPC   GL241426  23.786  21.309   6.150
 6445POPC   C1A41427  23.748  21.360   6.450
 6445POPC   D2A41428  23.744  21.392   6.750
 6445POPC   C3A41429  23.699  21.426   7.050
 6445POPC   C4A41430  23.667  21.399   7.350
 6445POPC   C1B41431  23.995  21.335   6.450
 6445POPC   C2B41432  23.972  21.282   6.750
 6445POPC   C3B41433  23.906  21.300   7.050
 6445POPC   C4B41434  23.957  21.339   7.350
 6446POPC   NC341435  24.508   1.247   5.550
 6446POPC   PO441436  24.526   1.248   5.850
 6446POPC   GL141437  24.521   1.232   6.150
 6446POPC   GL241438  24.441   1.279   6.150
 6446POPC   C1A41439  24.511   1.245   6.450
 6446POPC   D2A41440  24.513   1.166   6.750
 6446POPC   C3A41441  24.514   1.255   7.050
 6446POPC   C4A41442  24.448   1.245   7.350
 6446POPC   C1B41443  24.406   1.394   6.450
 6446POPC   C2B41444  24.424   1.466   6.750
 6446POPC   C3B41445  24.406   1.400   7.050
 6446POPC   C4B41446  24.367   1.474   7.350
 6447POPC   NC341447  22.125  36.898   5.550
 6447POPC   PO441448  22.174  36.863   5.850
 6447POPC   GL141449  22.118  36.939   6.150
 6447POPC   GL241450  22.079  37.003   6.150
 6447POPC   C1A41451  22.152  36.883   6.450
 6447POPC   D2A41452  22.180  36.884   6.750
 6447POPC   C3A41453  22.198  36.922   7.050
 6447POPC   C4A41454  22.114  36.857   7.350
 6447POPC   C1B41455  22.050  37.051   6.450
 6447POPC   C2B41456  22.048  37.132   6.750
 6447POPC   C3B41457  21.981  37.132   7.050
 6447POPC   C4B41458  22.015  37.145   7.350
 6448POPC   NC341459  10.557  12.856   5.550
 6448POPC   PO441460  10.499  12.824   5.850
 6448POPC   GL141461  10.566  12.816   6.150
 6448POPC   GL241462  10.538  12.932   6.150
 6448POPC   C1A41463  10.527  12.861   6.450
 6448POPC   D2A41464  10.523  12.841   6.750
 6448POPC   C3A41465  10.565  12.880   7.050
 6448POPC   C4A41466  10.536  12.868   7.350
 6448POPC   C1B41467  10.515  13.150   6.450
 6448POPC   C2B41468  10.545  13.083   6.750
 6448POPC   C3B41469  10.534  13.091   7.050
 6448POPC   C4B41470  10.481  13.058   7.350
 6449POPC   NC341471  29.941  26.866   5.550
 6449POPC   PO441472  29.938  26.785   5.850
 6449POPC   GL141473  29.874  26.832   6.150
 6449POPC   GL241474  29.838  26.842   6.150
 6449POPC   C1A41475  29.920  26.841   6.450
 6449POPC   D2A41476  29.945  26.840   6.750
 6449POPC   C3A41477  29.950  26.865   7.050
 6449POPC   C4A41478  29.879  26.859   7.350
 6449POPC   C1B41479  29.699  26.867   6.450
 6449POPC   C2B41480  29.645  26.846   6.750
 6449POPC   C3B41481  29.649  26.852   7.050
 6449POPC   C4B41482  29.700  26.905   7.350
 6450POPC   NC341483  41.601  17.535   5.550
 6450POPC   PO441484  41.582  17.553   5.850
 6450POPC   GL141485  41.525  17.468   6.150
 6450POPC   GL241486  41.704  17.506   6.150
 6450POPC   C1A41487  41.520  17.469   6.450
 6450POPC   D2A41488  41.575  17.552   6.750
 6450POPC   C3A41489  41.583  17.482   7.050
 6450POPC   C4A41490  41.569  17.491   7.350
 6450POPC   C1B41491  41.854  17.518   6.450
 6450POPC   C2B41492  41.821  17.493   6.750
 6450POPC   C3B41493  41.854  17.480   7.050
 6450POPC   C4B41494  41.803  17.501   7.350
 6451POPC   NC341495   8.177   0.476   5.550
 6451POPC   PO441496   8.177   0.428   5.850
 6451POPC   GL141497   8.154   0.486   6.150
 6451POPC   GL241498   8.347   0.427   6.150
 6451POPC   C1A41499   8.173   0.475   6.450
 6451POPC   D2A41500   8.167   0.419   6.750
 6451POPC   C3A41501   8.192   0.439   7.050
 6451POPC   C4A41502   8.203   0.408   7.350
 6451POPC   C1B41503   8.428   0.463   6.450
 6451POPC   C2B41504   8.429   0.459   6.750
 6451POPC   C3B41505   8.453   0.475   7.050
 6451POPC   C4B41506   8.421   0.500   7.350
 6452POPC   NC341507  43.094  10.525   5.550
 6452POPC   PO441508  43.135  10.487   5.850
 6452POPC   GL141509  43.142  10.478   6.150
 6452POPC   GL241510  43.219  10.588   6.150
 6452POPC   C1A41511  43.067  10.492   6.450
 6452POPC   D2A41512  43.128  10.508   6.750
 6452POPC   C3A41513  43.124  10.486   7.050
 6452POPC   C4A41514  43.090  10.497   7.350
 6452POPC   C1B41515  43.288  10.601   6.450
 6452POPC   C2B41516  43.318  10.622   6.750
 6452POPC   C3B41517  43.370  10.651   7.050
 6452POPC   C4B41518  43.319  10.647   7.350
 6453POPC   NC341519   7.421  30.680   5.550
 6453POPC   PO441520   7.380  30.690   5.850
 6453POPC   GL141521   7.405  30.719   6.150
 6453POPC   GL241522   7.450  30.560   6.150
 6453POPC   C1A41523   7.445  30.674   6.450
 6453POPC   D2A41524   7.470  30.727   6.750
 6453POPC   C3A41525   7.407  30.712   7.050
 6453POPC   C4A41526   7.444  30.650   7.350
 6453POPC   C1B41527   7.582  30.457   6.450
 6453POPC   C2B41528   7.533  30.529   6.750
 6453POPC   C3B41529   7.584  30.481   7.050
 6453POPC   C4B41530   7.577  30.504   7.350
 6454POPC   NC341531  36.934  11.331   5.550
 6454POPC   PO441532  36.877  11.305   5.850
 6454POPC   GL141533  36.892  11.262   6.150
 6454POPC   GL241534  36.877  11.198   6.150
 6454POPC   C1A41535  36.933  11.267   6.450
 6454POPC   D2A41536  36.882  11.267   6.750
 6454POPC   C3A41537  36.948  11.302   7.050
 6454POPC   C4A41538  36.943  11.325   7.350
 6454POPC   C1B41539  36.790  11.042   6.450
 6454POPC   C2B41540  36.770  11.044   6.750
 6454POPC   C3B41541  36.767  11.108   7.050
 6454POPC   C4B41542  36.853  11.057   7.350
 6455POPC   NC341543   5.843   6.623   5.550
 6455POPC   PO441544   5.861   6.632   5.850
 6455POPC   GL141545   5.872   6.595   6.150
 6455POPC   GL241546   5.940   6.664   6.150
 6455POPC   C1A41547   5.872   6.658   6.450
 6455POPC   D2A41548   5.846   6.686   6.750
 6455POPC   C3A41549   5.902   6.641   7.050
 6455POPC   C4A41550   5.898   6.684   7.350
 6455POPC   C1B41551   6.089   6.826   6.450
 6455POPC   C2B41552   6.060   6.821   6.750
 6455POPC   C3B41553   6.099   6.766   7.050
 6455POPC   C4B41554   6.120   6.747   7.350
 6456POPC   NC341555   1.255   5.062   5.550
 6456POPC   PO441556   1.227   5.078   5.850
 6456POPC   GL141557   1.178   5.135   6.150
 6456POPC   GL241558   1.284   5.169   6.150
 6456POPC   C1A41559   1.242   5.081   6.450
 6456POPC   D2A41560   1.263   5.114   6.750
 6456POPC   C3A41561   1.182   5.088   7.050
 6456POPC   C4A41562   1.213   5.118   7.350
 6456POPC   C1B41563   1.431   5.205   6.450
 6456POPC   C2B41564   1.426   5.222   6.750
 6456POPC   C3B41565   1.455   5.138   7.050
 6456POPC   C4B41566   1.420   5.161   7.350
 6457POPC   NC341567  14.372  34.615   5.550
 6457POPC   PO441568  14.416  34.552   5.850
 6457POPC   GL141569  14.378  34.593   6.150
 6457POPC   GL241570  14.326  34.742   6.150
 6457POPC   C1A41571  14.365  34.553   6.450
 6457POPC   D2A41572  14.381  34.585   6.750
 6457POPC   C3A41573  14.412  34.618   7.050
 6457POPC   C4A41574  14.421  34.576   7.350
 6457POPC   C1B41575  14.352  34.852   6.450
 6457POPC   C2B41576  14.292  34.847   6.750
 6457POPC   C3B41577  14.362  34.835   7.050
 6457POPC   C4B41578  14.288  34.810   7.350
 6458POPC   NC341579  43.092  33.833   5.550
 6458POPC   PO441580  43.127  33.801   5.850
 6458POPC   GL141581  43.145  33.762   6.150
 6458POPC   GL241582  43.116  33.663   6.150
 6458POPC   C1A41583  43.102  33.835   6.450
 6458POPC   D2A41584  43.096  33.825   6.750
 6458POPC   C3A41585  43.117  33.752   7.050
 6458POPC   C4A41586  43.144  33.817   7.350
 6458POPC   C1B41587  43.107  33.525   6.450
 6458POPC   C2B41588  43.161  33.562   6.750
 6458POPC   C3B41589  43.074  33.533   7.050
 6458POPC   C4B41590  43.125  33.525   7.350
 6459POPC   NC341591   8.234   4.326   5.550
 6459POPC   PO441592   8.216   4.308   5.850
 6459POPC   GL141593   8.206   4.327   6.150
 6459POPC   GL241594   8.094   4.443   6.150
 6459POPC   C1A41595   8.244   4.312   6.450
 6459POPC   D2A41596   8.188   4.278   6.750
 6459POPC   C3A41597   8.220   4.307   7.050
 6459POPC   C4A41598   8.213   4.302   7.350
 6459POPC   C1B41599   8.039   4.570   6.450
 6459POPC   C2B41600   8.023   4.516   6.750
 6459POPC   C3B41601   8.031   4.575   7.050
 6459POPC   C4B41602   8.096   4.536   7.350
 6460POPC   NC341603  30.740  32.238   5.550
 6460POPC   PO441604  30.663  32.242   5.850
 6460POPC   GL141605  30.681  32.251   6.150
 6460POPC   GL241606  30.809  32.310   6.150
 6460POPC   C1A41607  30.745  32.249   6.450
 6460POPC   D2A41608  30.728  32.200   6.750
 6460POPC   C3A41609  30.653  32.200   7.050
 6460POPC   C4A41610  30.650  32.230   7.350
 6460POPC   C1B41611  30.863  32.394   6.450
 6460POPC   C2B41612  30.930  32.383   6.750
 6460POPC   C3B41613  30.915  32.392   7.050
 6460POPC   C4B41614  30.895  32.423   7.350
 6461POPC   NC341615  41.532   3.555   5.550
 6461POPC   PO441616  41.565   3.498   5.850
 6461POPC   GL141617  41.546   3.572   6.150
 6461POPC   GL241618  41.505   3.419   6.150
 6461POPC   C1A41619  41.579   3.536   6.450
 6461POPC   D2A41620  41.520   3.492   6.750
 6461POPC   C3A41621  41.606   3.537   7.050
 6461POPC   C4A41622  41.601   3.543   7.350
 6461POPC   C1B41623  41.353   3.369   6.450
 6461POPC   C2B41624  41.378   3.347   6.750
 6461POPC   C3B41625  41.342   3.405   7.050
 6461POPC   C4B41626  41.378   3.404   7.350
 6462POPC   NC341627  25.301  35.332   5.550
 6462POPC   PO441628  25.286  35.308   5.850
 6462POPC   GL141629  25.240  35.386   6.150
 6462POPC   GL241630  25.381  35.388   6.150
 6462POPC   C1A41631  25.241  35.361   6.450
 6462POPC   D2A41632  25.298  35.395   6.750
 6462POPC   C3A41633  25.240  35.330   7.050
 6462POPC   C4A41634  25.240  35.400   7.350
 6462POPC   C1B41635  25.553  35.471   6.450
 6462POPC   C2B41636  25.477  35.423   6.750
 6462POPC   C3B41637  25.522  35.473   7.050
 6462POPC   C4B41638  25.464  35.411   7.350
 6463POPC   NC341639  18.258  41.564   5.550
 6463POPC   PO441640  18.279  41.578   5.850
 6463POPC   GL141641  18.320  41.584   6.150
 6463POPC   GL241642  18.166  41.630   6.150
 6463POPC   C1A41643  18.277  41.527   6.450
 6463POPC   D2A41644  18.244  41.517   6.750
 6463POPC   C3A41645  18.278  41.520   7.050
 6463POPC   C4A41646  18.328  41.547   7.350
 6463POPC   C1B41647  18.103  41.740   6.450
 6463POPC   C2B41648  18.082  41.781   6.750
 6463POPC   C3B41649  18.066  41.719   7.050
 6463POPC   C4B41650  18.103  41.690   7.350
 6464POPC   NC341651   1.165   5.850   5.550
 6464POPC   PO441652   1.197   5.905   5.850
 6464POPC   GL141653   1.197   5.886   6.150
 6464POPC   GL241654   1.344   5.864   6.150
 6464POPC   C1A41655   1.227   5.891   6.450
 6464POPC   D2A41656   1.248   5.855   6.750
 6464POPC   C3A41657   1.208   5.887   7.050
 6464POPC   C4A41658   1.218   5.823   7.350
 6464POPC   C1B41659   1.476   5.840   6.450
 6464POPC   C2B41660   1.432   5.897   6.750
 6464POPC   C3B41661   1.443   5.852   7.050
 6464POPC   C4B41662   1.462   5.907   7.350
 6465POPC   NC341663  28.337   0.482   5.550
 6465POPC   PO441664  28.322   0.436   5.850
 6465POPC   GL141665  28.418   0.448   6.150
 6465POPC   GL241666  28.355   0.276   6.150
 6465POPC   C1A41667  28.378   0.393   6.450
 6465POPC   D2A41668  28.415   0.470   6.750
 6465POPC   C3A41669  28.383   0.393   7.050
 6465POPC   C4A41670  28.337   0.418   7.350
 6465POPC   C1B41671  28.399   0.212   6.450
 6465POPC   C2B41672  28.324   0.164   6.750
 6465POPC   C3B41673  28.383   0.203   7.050
 6465POPC   C4B41674  28.301   0.224   7.350
 6466POPC   NC341675  41.533  24.526   5.550
 6466POPC   PO441676  41.509  24.442   5.850
 6466POPC   GL141677  41.571  24.468   6.150
 6466POPC   GL241678  41.467  24.404   6.150
 6466POPC   C1A41679  41.543  24.517   6.450
 6466POPC   D2A41680  41.536  24.461   6.750
 6466POPC   C3A41681  41.588  24.472   7.050
 6466POPC   C4A41682  41.590  24.486   7.350
 6466POPC   C1B41683  41.457  24.273   6.450
 6466POPC   C2B41684  41.436  24.258   6.750
 6466POPC   C3B41685  41.440  24.269   7.050
 6466POPC   C4B41686  41.469  24.245   7.350
 6467POPC   NC341687  20.624   7.466   5.550
 6467POPC   PO441688  20.643   7.458   5.850
 6467POPC   GL141689  20.578   7.376   6.150
 6467POPC   GL241690  20.551   7.388   6.150
 6467POPC   C1A41691  20.655   7.394   6.450
 6467POPC   D2A41692  20.615   7.391   6.750
 6467POPC   C3A41693  20.649   7.436   7.050
 6467POPC   C4A41694  20.561   7.380   7.350
 6467POPC   C1B41695  20.357   7.304   6.450
 6467POPC   C2B41696  20.365   7.249   6.750
 6467POPC   C3B41697  20.427   7.327   7.050
 6467POPC   C4B41698  20.366   7.258   7.350
 6468POPC   NC341699  38.492   9.747   5.550
 6468POPC   PO441700  38.505   9.793   5.850
 6468POPC   GL141701  38.496   9.763   6.150
 6468POPC   GL241702  38.341   9.649   6.150
 6468POPC   C1A41703  38.410   9.773   6.450
 6468POPC   D2A41704  38.434   9.716   6.750
 6468POPC   C3A41705  38.443   9.737   7.050
 6468POPC   C4A41706  38.456   9.783   7.350
 6468POPC   C1B41707  38.241   9.667   6.450
 6468POPC   C2B41708  38.265   9.669   6.750
 6468POPC   C3B41709  38.271   9.631   7.050
 6468POPC   C4B41710  38.264   9.642   7.350
 6469POPC   NC341711  12.081  33.028   5.550
 6469POPC   PO441712  12.053  33.007   5.850
 6469POPC   GL141713  12.057  33.041   6.150
 6469POPC   GL241714  12.009  33.132   6.150
 6469POPC   C1A41715  12.075  33.016   6.450
 6469POPC   D2A41716  12.099  33.011   6.750
 6469POPC   C3A41717  12.094  33.031   7.050
 6469POPC   C4A41718  12.091  33.023   7.350
 6469POPC   C1B41719  12.075  33.317   6.450
 6469POPC   C2B41720  12.018  33.298   6.750
 6469POPC   C3B41721  12.039  33.225   7.050
 6469POPC   C4B41722  12.004  33.304   7.350
 6470POPC   NC341723  14.438  19.013   5.550
 6470POPC   PO441724  14.375  19.042   5.850
 6470POPC   GL141725  14.412  19.095   6.150
 6470POPC   GL241726  14.316  18.987   6.150
 6470POPC   C1A41727  14.402  19.075   6.450
 6470POPC   D2A41728  14.357  19.070   6.750
 6470POPC   C3A41729  14.410  19.016   7.050
 6470POPC   C4A41730  14.418  19.081   7.350
 6470POPC   C1B41731  14.255  18.820   6.450
 6470POPC   C2B41732  14.272  18.914   6.750
 6470POPC   C3B41733  14.264  18.890   7.050
 6470POPC   C4B41734  14.215  18.864   7.350
 6471POPC   NC341735   1.177  26.829   5.550
 6471POPC   PO441736   1.231  26.769   5.850
 6471POPC   GL141737   1.208  26.866   6.150
 6471POPC   GL241738   1.230  26.676   6.150
 6471POPC   C1A41739   1.167  26.855   6.450
 6471POPC   D2A41740   1.197  26.777   6.750
 6471POPC   C3A41741   1.179  26.769   7.050
 6471POPC   C4A41742   1.187  26.859   7.350
 6471POPC   C1B41743   1.260  26.615   6.450
 6471POPC   C2B41744   1.249  26.521   6.750
 6471POPC   C3B41745   1.199  26.595   7.050
 6471POPC   C4B41746   1.210  26.530   7.350
 6472POPC   NC341747   7.431  44.635   5.550
 6472POPC   PO441748   7.434  44.684   5.850
 6472POPC   GL141749   7.445  44.681   6.150
 6472POPC   GL241750   7.365  44.754   6.150
 6472POPC   C1A41751   7.443  44.651   6.450
 6472POPC   D2A41752   7.449  44.628   6.750
 6472POPC   C3A41753   7.412  44.622   7.050
 6472POPC   C4A41754   7.430  44.697   7.350
 6472POPC   C1B41755   7.308  44.921   6.450
 6472POPC   C2B41756   7.259  44.867   6.750
 6472POPC   C3B41757   7.258  44.901   7.050
 6472POPC   C4B41758   7.323  44.835   7.350
 6473POPC   NC341759  25.310   0.483   5.550
 6473POPC   PO441760  25.283   0.413   5.850
 6473POPC   GL141761  25.272   0.461   6.150
 6473POPC   GL241762  25.200   0.378   6.150
 6473POPC   C1A41763  25.295   0.443   6.450
 6473POPC   D2A41764  25.304   0.469   6.750
 6473POPC   C3A41765  25.290   0.417   7.050
 6473POPC   C4A41766  25.221   0.481   7.350
 6473POPC   C1B41767  25.126   0.217   6.450
 6473POPC   C2B41768  25.175   0.191   6.750
 6473POPC   C3B41769  25.140   0.218   7.050
 6473POPC   C4B41770  25.098   0.218   7.350
 6474POPC   NC341771   7.466  43.905   5.550
 6474POPC   PO441772   7.380  43.849   5.850
 6474POPC   GL141773   7.439  43.926   6.150
 6474POPC   GL241774   7.529  43.968   6.150
 6474POPC   C1A41775   7.371  43.852   6.450
 6474POPC   D2A41776   7.428  43.874   6.750
 6474POPC   C3A41777   7.419  43.859   7.050
 6474POPC   C4A41778   7.409  43.868   7.350
 6474POPC   C1B41779   7.619  44.075   6.450
 6474POPC   C2B41780   7.549  44.113   6.750
 6474POPC   C3B41781   7.563  44.029   7.050
 6474POPC   C4B41782   7.571  44.034   7.350
 6475POPC   NC341783  13.641  16.704   5.550
 6475POPC   PO441784  13.657  16.700   5.850
 6475POPC   GL141785  13.582  16.739   6.150
 6475POPC   GL241786  13.596  16.885   6.150
 6475POPC   C1A41787  13.645  16.739   6.450
 6475POPC   D2A41788  13.612  16.749   6.750
 6475POPC   C3A41789  13.615  16.723   7.050
 6475POPC   C4A41790  13.615  16.778   7.350
 6475POPC   C1B41791  13.567  16.932   6.450
 6475POPC   C2B41792  13.612  16.928   6.750
 6475POPC   C3B41793  13.541  16.982   7.050
 6475POPC   C4B41794  13.624  16.996   7.350
 6476POPC   NC341795  16.715  36.922   5.550
 6476POPC   PO441796  16.763  36.899   5.850
 6476POPC   GL141797  16.697  36.930   6.150
 6476POPC   GL241798  16.899  36.964   6.150
 6476POPC   C1A41799  16.759  36.923   6.450
 6476POPC   D2A41800  16.743  36.911   6.750
 6476POPC   C3A41801  16.715  36.919   7.050
 6476POPC   C4A41802  16.695  36.946   7.350
 6476POPC   C1B41803  16.997  36.947   6.450
 6476POPC   C2B41804  17.023  36.912   6.750
 6476POPC   C3B41805  16.976  36.912   7.050
 6476POPC   C4B41806  16.973  36.879   7.350
 6477POPC   NC341807   9.021  43.071   5.550
 6477POPC   PO441808   9.019  43.102   5.850
 6477POPC   GL141809   8.975  43.156   6.150
 6477POPC   GL241810   8.960  42.941   6.150
 6477POPC   C1A41811   9.013  43.069   6.450
 6477POPC   D2A41812   8.969  43.090   6.750
 6477POPC   C3A41813   8.931  43.073   7.050
 6477POPC   C4A41814   9.009  43.063   7.350
 6477POPC   C1B41815   9.040  42.821   6.450
 6477POPC   C2B41816   8.991  42.830   6.750
 6477POPC   C3B41817   8.982  42.825   7.050
 6477POPC   C4B41818   8.986  42.891   7.350
 6478POPC   NC341819  24.539  33.758   5.550
 6478POPC   PO441820  24.535  33.803   5.850
 6478POPC   GL141821  24.508  33.846   6.150
 6478POPC   GL241822  24.607  33.896   6.150
 6478POPC   C1A41823  24.471  33.809   6.450
 6478POPC   D2A41824  24.462  33.837   6.750
 6478POPC   C3A41825  24.510  33.811   7.050
 6478POPC   C4A41826  24.476  33.833   7.350
 6478POPC   C1B41827  24.705  33.855   6.450
 6478POPC   C2B41828  24.747  33.886   6.750
 6478POPC   C3B41829  24.733  33.898   7.050
 6478POPC   C4B41830  24.744  33.889   7.350
 6479POPC   NC341831  23.675  29.967   5.550
 6479POPC   PO441832  23.731  29.893   5.850
 6479POPC   GL141833  23.756  29.881   6.150
 6479POPC   GL241834  23.824  29.925   6.150
 6479POPC   C1A41835  23.708  29.961   6.450
 6479POPC   D2A41836  23.723  29.925   6.750
 6479POPC   C3A41837  23.756  29.889   7.050
 6479POPC   C4A41838  23.736  29.913   7.350
 6479POPC   C1B41839  23.921  29.965   6.450
 6479POPC   C2B41840  24.011  29.893   6.750
 6479POPC   C3B41841  23.970  29.969   7.050
 6479POPC   C4B41842  23.927  29.929   7.350
 6480POPC   NC341843  20.582  36.928   5.550
 6480POPC   PO441844  20.629  36.910   5.850
 6480POPC   GL141845  20.634  36.885   6.150
 6480POPC   GL241846  20.652  36.775   6.150
 6480POPC   C1A41847  20.606  36.869   6.450
 6480POPC   D2A41848  20.649  36.917   6.750
 6480POPC   C3A41849  20.648  36.881   7.050
 6480POPC   C4A41850  20.588  36.942   7.350
 6480POPC   C1B41851  20.604  36.692   6.450
 6480POPC   C2B41852  20.569  36.645   6.750
 6480POPC   C3B41853  20.573  36.635   7.050
 6480POPC   C4B41854  20.586  36.677   7.350
 6481POPC   NC341855  14.441  18.309   5.550
 6481POPC   PO441856  14.363  18.285   5.850
 6481POPC   GL141857  14.411  18.294   6.150
 6481POPC   GL241858  14.458  18.376   6.150
 6481POPC   C1A41859  14.365  18.319   6.450
 6481POPC   D2A41860  14.419  18.267   6.750
 6481POPC   C3A41861  14.398  18.248   7.050
 6481POPC   C4A41862  14.452  18.248   7.350
 6481POPC   C1B41863  14.578  18.395   6.450
 6481POPC   C2B41864  14.628  18.452   6.750
 6481POPC   C3B41865  14.642  18.397   7.050
 6481POPC   C4B41866  14.631  18.399   7.350
 6482POPC   NC341867  36.925  33.032   5.550
 6482POPC   PO441868  36.928  33.025   5.850
 6482POPC   GL141869  36.886  33.071   6.150
 6482POPC   GL241870  36.922  32.945   6.150
 6482POPC   C1A41871  36.894  33.070   6.450
 6482POPC   D2A41872  36.903  32.988   6.750
 6482POPC   C3A41873  36.868  33.067   7.050
 6482POPC   C4A41874  36.905  33.055   7.350
 6482POPC   C1B41875  36.932  32.766   6.450
 6482POPC   C2B41876  36.936  32.752   6.750
 6482POPC   C3B41877  36.944  32.745   7.050
 6482POPC   C4B41878  36.984  32.787   7.350
 6483POPC   NC341879  43.079   0.447   5.550
 6483POPC   PO441880  43.121   0.398   5.850
 6483POPC   GL141881  43.068   0.425   6.150
 6483POPC   GL241882  43.241   0.464   6.150
 6483POPC   C1A41883  43.130   0.459   6.450
 6483POPC   D2A41884  43.144   0.435   6.750
 6483POPC   C3A41885  43.152   0.458   7.050
 6483POPC   C4A41886  43.083   0.394   7.350
 6483POPC   C1B41887  43.309   0.564   6.450
 6483POPC   C2B41888  43.350   0.478   6.750
 6483POPC   C3B41889  43.299   0.526   7.050
 6483POPC   C4B41890  43.363   0.493   7.350
 6484POPC   NC341891  11.287  24.476   5.550
 6484POPC   PO441892  11.294  24.518   5.850
 6484POPC   GL141893  11.291  24.497   6.150
 6484POPC   GL241894  11.397  24.559   6.150
 6484POPC   C1A41895  11.253  24.452   6.450
 6484POPC   D2A41896  11.343  24.515   6.750
 6484POPC   C3A41897  11.269  24.504   7.050
 6484POPC   C4A41898  11.331  24.515   7.350
 6484POPC   C1B41899  11.466  24.617   6.450
 6484POPC   C2B41900  11.526  24.667   6.750
 6484POPC   C3B41901  11.474  24.674   7.050
 6484POPC   C4B41902  11.527  24.690   7.350
 6485POPC   NC341903  19.806  15.163   5.550
 6485POPC   PO441904  19.858  15.218   5.850
 6485POPC   GL141905  19.829  15.213   6.150
 6485POPC   GL241906  19.863  15.099   6.150
 6485POPC   C1A41907  19.835  15.144   6.450
 6485POPC   D2A41908  19.786  15.218   6.750
 6485POPC   C3A41909  19.840  15.143   7.050
 6485POPC   C4A41910  19.857  15.138   7.350
 6485POPC   C1B41911  19.894  14.979   6.450
 6485POPC   C2B41912  19.973  14.997   6.750
 6485POPC   C3B41913  19.889  14.980   7.050
 6485POPC   C4B41914  19.922  14.981   7.350
 6486POPC   NC341915  30.700  18.299   5.550
 6486POPC   PO441916  30.710  18.301   5.850
 6486POPC   GL141917  30.663  18.317   6.150
 6486POPC   GL241918  30.568  18.256   6.150
 6486POPC   C1A41919  30.660  18.326   6.450
 6486POPC   D2A41920  30.742  18.308   6.750
 6486POPC   C3A41921  30.686  18.246   7.050
 6486POPC   C4A41922  30.658  18.244   7.350
 6486POPC   C1B41923  30.478  18.351   6.450
 6486POPC   C2B41924  30.424  18.261   6.750
 6486POPC   C3B41925  30.462  18.281   7.050
 6486POPC   C4B41926  30.421  18.343   7.350
 6487POPC   NC341927  39.182  12.072   5.550
 6487POPC   PO441928  39.270  12.041   5.850
 6487POPC   GL141929  39.201  12.038   6.150
 6487POPC   GL241930  39.143  12.153   6.150
 6487POPC   C1A41931  39.275  12.074   6.450
 6487POPC   D2A41932  39.242  12.052   6.750
 6487POPC   C3A41933  39.272  12.038   7.050
 6487POPC   C4A41934  39.201  12.115   7.350
 6487POPC   C1B41935  39.036  12.224   6.450
 6487POPC   C2B41936  39.010  12.234   6.750
 6487POPC   C3B41937  39.076  12.243   7.050
 6487POPC   C4B41938  39.073  12.215   7.350
 6488POPC   NC341939  40.024  36.171   5.550
 6488POPC   PO441940  39.980  36.169   5.850
 6488POPC   GL141941  40.047  36.171   6.150
 6488POPC   GL241942  39.854  36.143   6.150
 6488POPC   C1A41943  40.056  36.110   6.450
 6488POPC   D2A41944  39.969  36.122   6.750
 6488POPC   C3A41945  40.025  36.128   7.050
 6488POPC   C4A41946  39.960  36.088   7.350
 6488POPC   C1B41947  39.730  36.193   6.450
 6488POPC   C2B41948  39.810  36.237   6.750
 6488POPC   C3B41949  39.781  36.232   7.050
 6488POPC   C4B41950  39.733  36.213   7.350
 6489POPC   NC341951   1.221  24.528   5.550
 6489POPC   PO441952   1.237  24.537   5.850
 6489POPC   GL141953   1.249  24.495   6.150
 6489POPC   GL241954   1.322  24.432   6.150
 6489POPC   C1A41955   1.170  24.495   6.450
 6489POPC   D2A41956   1.171  24.537   6.750
 6489POPC   C3A41957   1.208  24.477   7.050
 6489POPC   C4A41958   1.205  24.450   7.350
 6489POPC   C1B41959   1.475  24.429   6.450
 6489POPC   C2B41960   1.474  24.422   6.750
 6489POPC   C3B41961   1.439  24.467   7.050
 6489POPC   C4B41962   1.461  24.478   7.350
 6490POPC   NC341963  31.430  27.592   5.550
 6490POPC   PO441964  31.493  27.567   5.850
 6490POPC   GL141965  31.516  27.558   6.150
 6490POPC   GL241966  31.345  27.521   6.150
 6490POPC   C1A41967  31.476  27.569   6.450
 6490POPC   D2A41968  31.473  27.635   6.750
 6490POPC   C3A41969  31.441  27.643   7.050
 6490POPC   C4A41970  31.462  27.561   7.350
 6490POPC   C1B41971  31.215  27.499   6.450
 6490POPC   C2B41972  31.270  27.486   6.750
 6490POPC   C3B41973  31.233  27.445   7.050
 6490POPC   C4B41974  31.239  27.526   7.350
 6491POPC   NC341975  22.152  30.653   5.550
 6491POPC   PO441976  22.181  30.663   5.850
 6491POPC   GL141977  22.125  30.723   6.150
 6491POPC   GL241978  22.280  30.694   6.150
 6491POPC   C1A41979  22.187  30.712   6.450
 6491POPC   D2A41980  22.150  30.662   6.750
 6491POPC   C3A41981  22.136  30.724   7.050
 6491POPC   C4A41982  22.178  30.714   7.350
 6491POPC   C1B41983  22.454  30.767   6.450
 6491POPC   C2B41984  22.424  30.781   6.750
 6491POPC   C3B41985  22.436  30.783   7.050
 6491POPC   C4B41986  22.366  30.786   7.350
 6492POPC   NC341987  16.682  19.021   5.550
 6492POPC   PO441988  16.780  19.092   5.850
 6492POPC   GL141989  16.710  19.017   6.150
 6492POPC   GL241990  16.780  18.996   6.150
 6492POPC   C1A41991  16.740  19.046   6.450
 6492POPC   D2A41992  16.760  19.080   6.750
 6492POPC   C3A41993  16.729  19.047   7.050
 6492POPC   C4A41994  16.734  19.038   7.350
 6492POPC   C1B41995  16.924  18.932   6.450
 6492POPC   C2B41996  16.937  18.861   6.750
 6492POPC   C3B41997  16.918  18.840   7.050
 6492POPC   C4B41998  16.922  18.875   7.350
 6493POPC   NC341999  24.456   7.444   5.550
 6493POPC   PO442000  24.460   7.375   5.850
 6493POPC   GL142001  24.483   7.406   6.150
 6493POPC   GL242002  24.606   7.377   6.150
 6493POPC   C1A42003  24.522   7.435   6.450
 6493POPC   D2A42004  24.521   7.383   6.750
 6493POPC   C3A42005  24.473   7.398   7.050
 6493POPC   C4A42006  24.492   7.422   7.350
 6493POPC   C1B42007  24.757   7.405   6.450
 6493POPC   C2B42008  24.744   7.386   6.750
 6493POPC   C3B42009  24.747   7.388   7.050
 6493POPC   C4B42010  24.694   7.451   7.350
 6494POPC   NC342011  33.070  20.571   5.550
 6494POPC   PO442012  32.983  20.657   5.850
 6494POPC   GL142013  33.036  20.626   6.150
 6494POPC   GL242014  33.018  20.742   6.150
 6494POPC   C1A42015  33.031  20.605   6.450
 6494POPC   D2A42016  33.008  20.655   6.750
 6494POPC   C3A42017  33.024  20.655   7.050
 6494POPC   C4A42018  33.018  20.589   7.350
 6494POPC   C1B42019  32.880  20.789   6.450
 6494POPC   C2B42020  32.905  20.807   6.750
 6494POPC   C3B42021  32.910  20.852   7.050
 6494POPC   C4B42022  32.943  20.800   7.350
 6495POPC   NC342023  22.894   9.781   5.550
 6495POPC   PO442024  22.931   9.738   5.850
 6495POPC   GL142025  22.945   9.755   6.150
 6495POPC   GL242026  23.017   9.763   6.150
 6495POPC   C1A42027  22.933   9.772   6.450
 6495POPC   D2A42028  22.925   9.719   6.750
 6495POPC   C3A42029  22.914   9.726   7.050
 6495POPC   C4A42030  22.980   9.786   7.350
 6495POPC   C1B42031  23.146   9.743   6.450
 6495POPC   C2B42032  23.200   9.740   6.750
 6495POPC   C3B42033  23.184   9.735   7.050
 6495POPC   C4B42034  23.226   9.712   7.350
 6496POPC   NC342035  18.320  43.904   5.550
 6496POPC   PO442036  18.268  43.866   5.850
 6496POPC   GL142037  18.241  43.857   6.150
 6496POPC   GL242038  18.286  44.043   6.150
 6496POPC   C1A42039  18.255  43.904   6.450
 6496POPC   D2A42040  18.308  43.922   6.750
 6496POPC   C3A42041  18.272  43.923   7.050
 6496POPC   C4A42042  18.329  43.910   7.350
 6496POPC   C1B42043  18.341  44.136   6.450
 6496POPC   C2B42044  18.283  44.142   6.750
 6496POPC   C3B42045  18.267  44.087   7.050
 6496POPC   C4B42046  18.290  44.152   7.350
 6497POPC   NC342047  29.168  26.837   5.550
 6497POPC   PO442048  29.131  26.787   5.850
 6497POPC   GL142049  29.101  26.771   6.150
 6497POPC   GL242050  29.205  26.699   6.150
 6497POPC   C1A42051  29.154  26.793   6.450
 6497POPC   D2A42052  29.100  26.794   6.750
 6497POPC   C3A42053  29.154  26.788   7.050
 6497POPC   C4A42054  29.178  26.857   7.350
 6497POPC   C1B42055  29.203  26.553   6.450
 6497POPC   C2B42056  29.210  26.548   6.750
 6497POPC   C3B42057  29.234  26.560   7.050
 6497POPC   C4B42058  29.173  26.561   7.350
 6498POPC   NC342059  26.788   1.947   5.550
 6498POPC   PO442060  26.814   2.010   5.850
 6498POPC   GL142061  26.861   2.002   6.150
 6498POPC   GL242062  26.779   1.860   6.150
 6498POPC   C1A42063  26.848   1.944   6.450
 6498POPC   D2A42064  26.777   2.039   6.750
 6498POPC   C3A42065  26.854   1.995   7.050
 6498POPC   C4A42066  26.778   2.021   7.350
 6498POPC   C1B42067  26.746   1.730   6.450
 6498POPC   C2B42068  26.805   1.769   6.750
 6498POPC   C3B42069  26.780   1.731   7.050
 6498POPC   C4B42070  26.783   1.736   7.350
 6499POPC   NC342071   0.473  18.240   5.550
 6499POPC   PO442072   0.389  18.254   5.850
 6499POPC   GL142073   0.393  18.293   6.150
 6499POPC   GL242074   0.359  18.281   6.150
 6499POPC   C1A42075   0.443  18.255   6.450
 6499POPC   D2A42076   0.400  18.245   6.750
 6499POPC   C3A42077   0.469  18.318   7.050
 6499POPC   C4A42078   0.460  18.290   7.350
 6499POPC   C1B42079   0.160  18.213   6.450
 6499POPC   C2B42080   0.206  18.235   6.750
 6499POPC   C3B42081   0.225  18.209   7.050
 6499POPC   C4B42082   0.246  18.215   7.350
 6500POPC   NC342083  36.942  19.021   5.550
 6500POPC   PO442084  36.898  19.070   5.850
 6500POPC   GL142085  36.888  19.023   6.150
 6500POPC   GL242086  36.997  19.011   6.150
 6500POPC   C1A42087  36.887  19.018   6.450
 6500POPC   D2A42088  36.920  19.067   6.750
 6500POPC   C3A42089  36.884  19.023   7.050
 6500POPC   C4A42090  36.926  19.100   7.350
 6500POPC   C1B42091  37.149  18.940   6.450
 6500POPC   C2B42092  37.061  18.915   6.750
 6500POPC   C3B42093  37.082  18.865   7.050
 6500POPC   C4B42094  37.101  18.908   7.350
 6501POPC   NC342095  13.614   9.744   5.550
 6501POPC   PO442096  13.612   9.772   5.850
 6501POPC   GL142097  13.623   9.767   6.150
 6501POPC   GL242098  13.719   9.688   6.150
 6501POPC   C1A42099  13.619   9.782   6.450
 6501POPC   D2A42100  13.619   9.729   6.750
 6501POPC   C3A42101  13.600   9.739   7.050
 6501POPC   C4A42102  13.627   9.736   7.350
 6501POPC   C1B42103  13.852   9.676   6.450
 6501POPC   C2B42104  13.831   9.673   6.750
 6501POPC   C3B42105  13.892   9.670   7.050
 6501POPC   C4B42106  13.830   9.679   7.350
 6502POPC   NC342107  14.444  31.439   5.550
 6502POPC   PO442108  14.410  31.498   5.850
 6502POPC   GL142109  14.441  31.474   6.150
 6502POPC   GL242110  14.354  31.615   6.150
 6502POPC   C1A42111  14.425  31.459   6.450
 6502POPC   D2A42112  14.436  31.517   6.750
 6502POPC   C3A42113  14.424  31.494   7.050
 6502POPC   C4A42114  14.358  31.484   7.350
 6502POPC   C1B42115  14.319  31.681   6.450
 6502POPC   C2B42116  14.384  31.723   6.750
 6502POPC   C3B42117  14.305  31.685   7.050
 6502POPC   C4B42118  14.364  31.729   7.350
 6503POPC   NC342119  28.395  17.460   5.550
 6503POPC   PO442120  28.324  17.488   5.850
 6503POPC   GL142121  28.405  17.525   6.150
 6503POPC   GL242122  28.260  17.371   6.150
 6503POPC   C1A42123  28.342  17.528   6.450
 6503POPC   D2A42124  28.375  17.502   6.750
 6503POPC   C3A42125  28.323  17.498   7.050
 6503POPC   C4A42126  28.378  17.497   7.350
 6503POPC   C1B42127  28.228  17.280   6.450
 6503POPC   C2B42128  28.171  17.345   6.750
 6503POPC   C3B42129  28.220  17.283   7.050
 6503POPC   C4B42130  28.225  17.367   7.350
 6504POPC   NC342131  34.563   4.351   5.550
 6504POPC   PO442132  34.557   4.352   5.850
 6504POPC   GL142133  34.544   4.334   6.150
 6504POPC   GL242134  34.590   4.486   6.150
 6504POPC   C1A42135  34.571   4.357   6.450
 6504POPC   D2A42136  34.530   4.313   6.750
 6504POPC   C3A42137  34.591   4.355   7.050
 6504POPC   C4A42138  34.594   4.334   7.350
 6504POPC   C1B42139  34.533   4.600   6.450
 6504POPC   C2B42140  34.504   4.537   6.750
 6504POPC   C3B42141  34.557   4.584   7.050
 6504POPC   C4B42142  34.567   4.613   7.350
 6505POPC   NC342143   1.972  16.725   5.550
 6505POPC   PO442144   2.024  16.780   5.850
 6505POPC   GL142145   1.991  16.719   6.150
 6505POPC   GL242146   1.914  16.850   6.150
 6505POPC   C1A42147   1.963  16.704   6.450
 6505POPC   D2A42148   1.940  16.755   6.750
 6505POPC   C3A42149   2.032  16.734   7.050
 6505POPC   C4A42150   2.001  16.756   7.350
 6505POPC   C1B42151   1.854  16.976   6.450
 6505POPC   C2B42152   1.876  16.978   6.750
 6505POPC   C3B42153   1.914  16.965   7.050
 6505POPC   C4B42154   1.872  16.965   7.350
 6506POPC   NC342155   1.259  43.849   5.550
 6506POPC   PO442156   1.177  43.867   5.850
 6506POPC   GL142157   1.177  43.880   6.150
 6506POPC   GL242158   1.103  43.840   6.150
 6506POPC   C1A42159   1.200  43.917   6.450
 6506POPC   D2A42160   1.198  43.848   6.750
 6506POPC   C3A42161   1.200  43.852   7.050
 6506POPC   C4A42162   1.232  43.887   7.350
 6506POPC   C1B42163   0.991  43.787   6.450
 6506POPC   C2B42164   1.003  43.842   6.750
 6506POPC   C3B42165   0.925  43.859   7.050
 6506POPC   C4B42166   0.982  43.772   7.350
 6507POPC   NC342167   2.731   0.444   5.550
 6507POPC   PO442168   2.779   0.425   5.850
 6507POPC   GL142169   2.739   0.487   6.150
 6507POPC   GL242170   2.854   0.321   6.150
 6507POPC   C1A42171   2.806   0.397   6.450
 6507POPC   D2A42172   2.764   0.428   6.750
 6507POPC   C3A42173   2.772   0.402   7.050
 6507POPC   C4A42174   2.762   0.411   7.350
 6507POPC   C1B42175   2.934   0.227   6.450
 6507POPC   C2B42176   2.966   0.226   6.750
 6507POPC   C3B42177   2.921   0.289   7.050
 6507POPC   C4B42178   2.929   0.287   7.350
 6508POPC   NC342179   8.962  17.543   5.550
 6508POPC   PO442180   9.018  17.555   5.850
 6508POPC   GL142181   9.014  17.550   6.150
 6508POPC   GL242182   8.886  17.541   6.150
 6508POPC   C1A42183   8.932  17.544   6.450
 6508POPC   D2A42184   8.951  17.514   6.750
 6508POPC   C3A42185   9.009  17.483   7.050
 6508POPC   C4A42186   9.010  17.554   7.350
 6508POPC   C1B42187   8.765  17.666   6.450
 6508POPC   C2B42188   8.748  17.691   6.750
 6508POPC   C3B42189   8.788  17.668   7.050
 6508POPC   C4B42190   8.739  17.618   7.350
 6509POPC   NC342191   2.033  14.375   5.550
 6509POPC   PO442192   2.033  14.378   5.850
 6509POPC   GL142193   1.958  14.374   6.150
 6509POPC   GL242194   1.939  14.318   6.150
 6509POPC   C1A42195   1.951  14.405   6.450
 6509POPC   D2A42196   2.015  14.416   6.750
 6509POPC   C3A42197   2.024  14.417   7.050
 6509POPC   C4A42198   1.953  14.424   7.350
 6509POPC   C1B42199   1.890  14.221   6.450
 6509POPC   C2B42200   1.871  14.146   6.750
 6509POPC   C3B42201   1.900  14.136   7.050
 6509POPC   C4B42202   1.901  14.161   7.350
 6510POPC   NC342203  18.265  29.156   5.550
 6510POPC   PO442204  18.324  29.178   5.850
 6510POPC   GL142205  18.318  29.138   6.150
 6510POPC   GL242206  18.390  29.126   6.150
 6510POPC   C1A42207  18.271  29.124   6.450
 6510POPC   D2A42208  18.306  29.112   6.750
 6510POPC   C3A42209  18.292  29.159   7.050
 6510POPC   C4A42210  18.248  29.148   7.350
 6510POPC   C1B42211  18.549  29.159   6.450
 6510POPC   C2B42212  18.543  29.112   6.750
 6510POPC   C3B42213  18.547  29.160   7.050
 6510POPC   C4B42214  18.490  29.071   7.350
 6511POPC   NC342215  13.637  24.483   5.550
 6511POPC   PO442216  13.626  24.510   5.850
 6511POPC   GL142217  13.628  24.502   6.150
 6511POPC   GL242218  13.581  24.406   6.150
 6511POPC   C1A42219  13.605  24.448   6.450
 6511POPC   D2A42220  13.652  24.487   6.750
 6511POPC   C3A42221  13.629  24.456   7.050
 6511POPC   C4A42222  13.669  24.494   7.350
 6511POPC   C1B42223  13.457  24.269   6.450
 6511POPC   C2B42224  13.406  24.284   6.750
 6511POPC   C3B42225  13.439  24.309   7.050
 6511POPC   C4B42226  13.420  24.308   7.350
 6512POPC   NC342227  22.183  19.056   5.550
 6512POPC   PO442228  22.198  19.108   5.850
 6512POPC   GL142229  22.154  19.089   6.150
 6512POPC   GL242230  22.224  19.025   6.150
 6512POPC   C1A42231  22.175  19.027   6.450
 6512POPC   D2A42232  22.205  19.058   6.750
 6512POPC   C3A42233  22.140  19.033   7.050
 6512POPC   C4A42234  22.160  19.081   7.350
 6512POPC   C1B42235  22.342  18.946   6.450
 6512POPC   C2B42236  22.365  18.867   6.750
 6512POPC   C3B42237  22.382  18.939   7.050
 6512POPC   C4B42238  22.337  18.861   7.350
 6513POPC   NC342239  26.801   1.176   5.550
 6513POPC   PO442240  26.807   1.246   5.850
 6513POPC   GL142241  26.839   1.244   6.150
 6513POPC   GL242242  26.882   1.150   6.150
 6513POPC   C1A42243  26.855   1.236   6.450
 6513POPC   D2A42244  26.824   1.256   6.750
 6513POPC   C3A42245  26.780   1.260   7.050
 6513POPC   C4A42246  26.769   1.236   7.350
 6513POPC   C1B42247  26.980   1.034   6.450
 6513POPC   C2B42248  27.004   1.075   6.750
 6513POPC   C3B42249  26.977   1.109   7.050
 6513POPC   C4B42250  26.998   1.036   7.350
 6514POPC   NC342251  36.917  20.606   5.550
 6514POPC   PO442252  36.949  20.583   5.850
 6514POPC   GL142253  36.928  20.638   6.150
 6514POPC   GL242254  36.892  20.737   6.150
 6514POPC   C1A42255  36.913  20.590   6.450
 6514POPC   D2A42256  36.857  20.614   6.750
 6514POPC   C3A42257  36.898  20.579   7.050
 6514POPC   C4A42258  36.869  20.584   7.350
 6514POPC   C1B42259  36.892  20.871   6.450
 6514POPC   C2B42260  36.910  20.894   6.750
 6514POPC   C3B42261  36.921  20.841   7.050
 6514POPC   C4B42262  36.857  20.855   7.350
 6515POPC   NC342263  39.185  12.846   5.550
 6515POPC   PO442264  39.267  12.824   5.850
 6515POPC   GL142265  39.235  12.810   6.150
 6515POPC   GL242266  39.172  12.967   6.150
 6515POPC   C1A42267  39.218  12.808   6.450
 6515POPC   D2A42268  39.262  12.836   6.750
 6515POPC   C3A42269  39.272  12.857   7.050
 6515POPC   C4A42270  39.229  12.898   7.350
 6515POPC   C1B42271  39.137  13.104   6.450
 6515POPC   C2B42272  39.197  13.125   6.750
 6515POPC   C3B42273  39.173  13.082   7.050
 6515POPC   C4B42274  39.202  13.045   7.350
 6516POPC   NC342275  10.486  10.567   5.550
 6516POPC   PO442276  10.515  10.522   5.850
 6516POPC   GL142277  10.526  10.552   6.150
 6516POPC   GL242278  10.488  10.356   6.150
 6516POPC   C1A42279  10.495  10.564   6.450
 6516POPC   D2A42280  10.477  10.553   6.750
 6516POPC   C3A42281  10.476  10.502   7.050
 6516POPC   C4A42282  10.564  10.487   7.350
 6516POPC   C1B42283  10.462  10.240   6.450
 6516POPC   C2B42284  10.540  10.312   6.750
 6516POPC   C3B42285  10.536  10.273   7.050
 6516POPC   C4B42286  10.501  10.234   7.350
 6517POPC   NC342287  14.410  10.509   5.550
 6517POPC   PO442288  14.387  10.546   5.850
 6517POPC   GL142289  14.404  10.528   6.150
 6517POPC   GL242290  14.550  10.617   6.150
 6517POPC   C1A42291  14.406  10.478   6.450
 6517POPC   D2A42292  14.444  10.540   6.750
 6517POPC   C3A42293  14.452  10.568   7.050
 6517POPC   C4A42294  14.401  10.561   7.350
 6517POPC   C1B42295  14.641  10.714   6.450
 6517POPC   C2B42296  14.591  10.650   6.750
 6517POPC   C3B42297  14.563  10.642   7.050
 6517POPC   C4B42298  14.576  10.716   7.350
 6518POPC   NC342299   3.568  44.650   5.550
 6518POPC   PO442300   3.544  44.646   5.850
 6518POPC   GL142301   3.585  44.704   6.150
 6518POPC   GL242302   3.596  44.764   6.150
 6518POPC   C1A42303   3.505  44.643   6.450
 6518POPC   D2A42304   3.533  44.614   6.750
 6518POPC   C3A42305   3.565  44.679   7.050
 6518POPC   C4A42306   3.542  44.686   7.350
 6518POPC   C1B42307   3.586  44.862   6.450
 6518POPC   C2B42308   3.557  44.867   6.750
 6518POPC   C3B42309   3.559  44.902   7.050
 6518POPC   C4B42310   3.628  44.924   7.350
 6519POPC   NC342311   6.634  33.792   5.550
 6519POPC   PO442312   6.599  33.791   5.850
 6519POPC   GL142313   6.597  33.751   6.150
 6519POPC   GL242314   6.634  33.971   6.150
 6519POPC   C1A42315   6.640  33.837   6.450
 6519POPC   D2A42316   6.659  33.769   6.750
 6519POPC   C3A42317   6.602  33.834   7.050
 6519POPC   C4A42318   6.608  33.805   7.350
 6519POPC   C1B42319   6.611  34.025   6.450
 6519POPC   C2B42320   6.620  34.057   6.750
 6519POPC   C3B42321   6.633  34.041   7.050
 6519POPC   C4B42322   6.613  34.054   7.350
 6520POPC   NC342323  27.634  33.056   5.550
 6520POPC   PO442324  27.599  33.058   5.850
 6520POPC   GL142325  27.564  33.011   6.150
 6520POPC   GL242326  27.548  32.964   6.150
 6520POPC   C1A42327  27.553  33.034   6.450
 6520POPC   D2A42328  27.635  33.007   6.750
 6520POPC   C3A42329  27.583  33.045   7.050
 6520POPC   C4A42330  27.594  32.987   7.350
 6520POPC   C1B42331  27.425  32.771   6.450
 6520POPC   C2B42332  27.479  32.831   6.750
 6520POPC   C3B42333  27.497  32.797   7.050
 6520POPC   C4B42334  27.459  32.777   7.350
 6521POPC   NC342335  36.884  32.264   5.550
 6521POPC   PO442336  36.868  32.220   5.850
 6521POPC   GL142337  36.903  32.267   6.150
 6521POPC   GL242338  37.002  32.310   6.150
 6521POPC   C1A42339  36.880  32.253   6.450
 6521POPC   D2A42340  36.898  32.198   6.750
 6521POPC   C3A42341  36.856  32.242   7.050
 6521POPC   C4A42342  36.869  32.256   7.350
 6521POPC   C1B42343  37.143  32.364   6.450
 6521POPC   C2B42344  37.067  32.436   6.750
 6521POPC   C3B42345  37.077  32.424   7.050
 6521POPC   C4B42346  37.099  32.354   7.350
 6522POPC   NC342347   1.240  41.510   5.550
 6522POPC   PO442348   1.165  41.563   5.850
 6522POPC   GL142349   1.174  41.524   6.150
 6522POPC   GL242350   1.279  41.419   6.150
 6522POPC   C1A42351   1.258  41.582   6.450
 6522POPC   D2A42352   1.214  41.534   6.750
 6522POPC   C3A42353   1.254  41.565   7.050
 6522POPC   C4A42354   1.216  41.564   7.350
 6522POPC   C1B42355   1.253  41.333   6.450
 6522POPC   C2B42356   1.250  41.296   6.750
 6522POPC   C3B42357   1.216  41.352   7.050
 6522POPC   C4B42358   1.272  41.319   7.350
 6523POPC   NC342359  16.000  30.665   5.550
 6523POPC   PO442360  15.941  30.655   5.850
 6523POPC   GL142361  15.930  30.671   6.150
 6523POPC   GL242362  15.907  30.866   6.150
 6523POPC   C1A42363  15.910  30.712   6.450
 6523POPC   D2A42364  15.967  30.666   6.750
 6523POPC   C3A42365  15.915  30.685   7.050
 6523POPC   C4A42366  16.003  30.719   7.350
 6523POPC   C1B42367  15.950  30.932   6.450
 6523POPC   C2B42368  15.943  30.915   6.750
 6523POPC   C3B42369  15.948  30.963   7.050
 6523POPC   C4B42370  15.972  30.948   7.350
 6524POPC   NC342371   5.848  35.378   5.550
 6524POPC   PO442372   5.874  35.392   5.850
 6524POPC   GL142373   5.838  35.339   6.150
 6524POPC   GL242374   5.750  35.407   6.150
 6524POPC   C1A42375   5.895  35.327   6.450
 6524POPC   D2A42376   5.877  35.337   6.750
 6524POPC   C3A42377   5.834  35.398   7.050
 6524POPC   C4A42378   5.886  35.353   7.350
 6524POPC   C1B42379   5.684  35.472   6.450
 6524POPC   C2B42380   5.686  35.491   6.750
 6524POPC   C3B42381   5.606  35.409   7.050
 6524POPC   C4B42382   5.605  35.470   7.350
 6525POPC   NC342383   7.406   9.755   5.550
 6525POPC   PO442384   7.415   9.796   5.850
 6525POPC   GL142385   7.444   9.751   6.150
 6525POPC   GL242386   7.375   9.646   6.150
 6525POPC   C1A42387   7.459   9.765   6.450
 6525POPC   D2A42388   7.444   9.699   6.750
 6525POPC   C3A42389   7.374   9.706   7.050
 6525POPC   C4A42390   7.406   9.751   7.350
 6525POPC   C1B42391   7.362   9.508   6.450
 6525POPC   C2B42392   7.399   9.458   6.750
 6525POPC   C3B42393   7.434   9.515   7.050
 6525POPC   C4B42394   7.425   9.537   7.350
 6526POPC   NC342395  28.402  34.605   5.550
 6526POPC   PO442396  28.320  34.535   5.850
 6526POPC   GL142397  28.387  34.560   6.150
 6526POPC   GL242398  28.246  34.603   6.150
 6526POPC   C1A42399  28.324  34.611   6.450
 6526POPC   D2A42400  28.366  34.573   6.750
 6526POPC   C3A42401  28.335  34.602   7.050
 6526POPC   C4A42402  28.413  34.594   7.350
 6526POPC   C1B42403  28.105  34.694   6.450
 6526POPC   C2B42404  28.158  34.666   6.750
 6526POPC   C3B42405  28.149  34.654   7.050
 6526POPC   C4B42406  28.114  34.722   7.350
 6527POPC   NC342407  21.359  33.068   5.550
 6527POPC   PO442408  21.337  32.992   5.850
 6527POPC   GL142409  21.343  32.994   6.150
 6527POPC   GL242410  21.272  33.045   6.150
 6527POPC   C1A42411  21.376  33.008   6.450
 6527POPC   D2A42412  21.398  33.027   6.750
 6527POPC   C3A42413  21.367  33.035   7.050
 6527POPC   C4A42414  21.431  33.067   7.350
 6527POPC   C1B42415  21.180  33.102   6.450
 6527POPC   C2B42416  21.121  33.167   6.750
 6527POPC   C3B42417  21.149  33.185   7.050
 6527POPC   C4B42418  21.114  33.107   7.350
 6528POPC   NC342419  26.800  14.380   5.550
 6528POPC   PO442420  26.767  14.365   5.850
 6528POPC   GL142421  26.812  14.445   6.150
 6528POPC   GL242422  26.863  14.313   6.150
 6528POPC   C1A42423  26.833  14.385   6.450
 6528POPC   D2A42424  26.846  14.450   6.750
 6528POPC   C3A42425  26.824  14.433   7.050
 6528POPC   C4A42426  26.814  14.363   7.350
 6528POPC   C1B42427  26.905  14.200   6.450
 6528POPC   C2B42428  26.898  14.201   6.750
 6528POPC   C3B42429  26.901  14.173   7.050
 6528POPC   C4B42430  26.982  14.142   7.350
 6529POPC   NC342431   6.610  34.612   5.550
 6529POPC   PO442432   6.614  34.603   5.850
 6529POPC   GL142433   6.654  34.604   6.150
 6529POPC   GL242434   6.601  34.447   6.150
 6529POPC   C1A42435   6.654  34.548   6.450
 6529POPC   D2A42436   6.600  34.604   6.750
 6529POPC   C3A42437   6.605  34.573   7.050
 6529POPC   C4A42438   6.671  34.622   7.350
 6529POPC   C1B42439   6.543  34.350   6.450
 6529POPC   C2B42440   6.536  34.338   6.750
 6529POPC   C3B42441   6.499  34.383   7.050
 6529POPC   C4B42442   6.453  34.342   7.350
 6530POPC   NC342443  16.712  35.311   5.550
 6530POPC   PO442444  16.752  35.363   5.850
 6530POPC   GL142445  16.692  35.355   6.150
 6530POPC   GL242446  16.884  35.296   6.150
 6530POPC   C1A42447  16.762  35.387   6.450
 6530POPC   D2A42448  16.728  35.347   6.750
 6530POPC   C3A42449  16.739  35.330   7.050
 6530POPC   C4A42450  16.775  35.308   7.350
 6530POPC   C1B42451  16.943  35.252   6.450
 6530POPC   C2B42452  16.992  35.317   6.750
 6530POPC   C3B42453  17.014  35.237   7.050
 6530POPC   C4B42454  16.931  35.303   7.350
 6531POPC   NC342455  26.054   3.513   5.550
 6531POPC   PO442456  26.014   3.585   5.850
 6531POPC   GL142457  26.052   3.563   6.150
 6531POPC   GL242458  25.925   3.603   6.150
 6531POPC   C1A42459  26.072   3.506   6.450
 6531POPC   D2A42460  26.020   3.578   6.750
 6531POPC   C3A42461  26.046   3.515   7.050
 6531POPC   C4A42462  26.000   3.555   7.350
 6531POPC   C1B42463  25.831   3.627   6.450
 6531POPC   C2B42464  25.782   3.624   6.750
 6531POPC   C3B42465  25.854   3.647   7.050
 6531POPC   C4B42466  25.844   3.633   7.350
 6532POPC   NC342467  25.251  29.874   5.550
 6532POPC   PO442468  25.288  29.970   5.850
 6532POPC   GL142469  25.226  29.917   6.150
 6532POPC   GL242470  25.383  29.895   6.150
 6532POPC   C1A42471  25.218  29.894   6.450
 6532POPC   D2A42472  25.230  29.914   6.750
 6532POPC   C3A42473  25.242  29.944   7.050
 6532POPC   C4A42474  25.292  29.965   7.350
 6532POPC   C1B42475  25.519  29.804   6.450
 6532POPC   C2B42476  25.458  29.824   6.750
 6532POPC   C3B42477  25.464  29.814   7.050
 6532POPC   C4B42478  25.456  29.773   7.350
 6533POPC   NC342479   7.468  41.572   5.550
 6533POPC   PO442480   7.380  41.582   5.850
 6533POPC   GL142481   7.446  41.587   6.150
 6533POPC   GL242482   7.327  41.647   6.150
 6533POPC   C1A42483   7.384  41.513   6.450
 6533POPC   D2A42484   7.413  41.596   6.750
 6533POPC   C3A42485   7.464  41.510   7.050
 6533POPC   C4A42486   7.436  41.570   7.350
 6533POPC   C1B42487   7.295  41.733   6.450
 6533POPC   C2B42488   7.312  41.799   6.750
 6533POPC   C3B42489   7.246  41.757   7.050
 6533POPC   C4B42490   7.292  41.812   7.350
 6534POPC   NC342491   2.030   1.258   5.550
 6534POPC   PO442492   1.949   1.187   5.850
 6534POPC   GL142493   2.002   1.191   6.150
 6534POPC   GL242494   2.043   1.331   6.150
 6534POPC   C1A42495   1.984   1.171   6.450
 6534POPC   D2A42496   2.006   1.234   6.750
 6534POPC   C3A42497   2.022   1.215   7.050
 6534POPC   C4A42498   2.002   1.201   7.350
 6534POPC   C1B42499   2.142   1.370   6.450
 6534POPC   C2B42500   2.134   1.377   6.750
 6534POPC   C3B42501   2.083   1.429   7.050
 6534POPC   C4B42502   2.125   1.395   7.350
 6535POPC   NC342503  35.321  30.739   5.550
 6535POPC   PO442504  35.380  30.648   5.850
 6535POPC   GL142505  35.349  30.676   6.150
 6535POPC   GL242506  35.489  30.769   6.150
 6535POPC   C1A42507  35.384  30.706   6.450
 6535POPC   D2A42508  35.313  30.702   6.750
 6535POPC   C3A42509  35.310  30.722   7.050
 6535POPC   C4A42510  35.343  30.730   7.350
 6535POPC   C1B42511  35.559  30.786   6.450
 6535POPC   C2B42512  35.623  30.786   6.750
 6535POPC   C3B42513  35.555  30.776   7.050
 6535POPC   C4B42514  35.562  30.725   7.350
 6536POPC   NC342515  19.840  30.743   5.550
 6536POPC   PO442516  19.841  30.679   5.850
 6536POPC   GL142517  19.815  30.668   6.150
 6536POPC   GL242518  19.687  30.802   6.150
 6536POPC   C1A42519  19.822  30.726   6.450
 6536POPC   D2A42520  19.796  30.668   6.750
 6536POPC   C3A42521  19.807  30.707   7.050
 6536POPC   C4A42522  19.806  30.707   7.350
 6536POPC   C1B42523  19.579  30.820   6.450
 6536POPC   C2B42524  19.565  30.780   6.750
 6536POPC   C3B42525  19.608  30.838   7.050
 6536POPC   C4B42526  19.654  30.807   7.350
 6537POPC   NC342527  32.234  31.482   5.550
 6537POPC   PO442528  32.205  31.491   5.850
 6537POPC   GL142529  32.213  31.513   6.150
 6537POPC   GL242530  32.094  31.496   6.150
 6537POPC   C1A42531  32.280  31.501   6.450
 6537POPC   D2A42532  32.244  31.500   6.750
 6537POPC   C3A42533  32.263  31.520   7.050
 6537POPC   C4A42534  32.286  31.427   7.350
 6537POPC   C1B42535  32.027  31.449   6.450
 6537POPC   C2B42536  32.003  31.448   6.750
 6537POPC   C3B42537  31.997  31.435   7.050
 6537POPC   C4B42538  32.004  31.395   7.350
 6538POPC   NC342539  22.915  43.893   5.550
 6538POPC   PO442540  22.912  43.907   5.850
 6538POPC   GL142541  22.959  43.874   6.150
 6538POPC   GL242542  22.817  43.904   6.150
 6538POPC   C1A42543  22.977  43.878   6.450
 6538POPC   D2A42544  22.936  43.881   6.750
 6538POPC   C3A42545  22.986  43.910   7.050
 6538POPC   C4A42546  22.964  43.845   7.350
 6538POPC   C1B42547  22.690  43.877   6.450
 6538POPC   C2B42548  22.713  43.842   6.750
 6538POPC   C3B42549  22.672  43.887   7.050
 6538POPC   C4B42550  22.709  43.841   7.350
 6539POPC   NC342551  38.432  33.780   5.550
 6539POPC   PO442552  38.450  33.761   5.850
 6539POPC   GL142553  38.467  33.752   6.150
 6539POPC   GL242554  38.341  33.754   6.150
 6539POPC   C1A42555  38.409  33.813   6.450
 6539POPC   D2A42556  38.469  33.800   6.750
 6539POPC   C3A42557  38.445  33.802   7.050
 6539POPC   C4A42558  38.451  33.765   7.350
 6539POPC   C1B42559  38.263  33.642   6.450
 6539POPC   C2B42560  38.285  33.629   6.750
 6539POPC   C3B42561  38.229  33.649   7.050
 6539POPC   C4B42562  38.263  33.667   7.350
 6540POPC   NC342563  22.208  12.825   5.550
 6540POPC   PO442564  22.149  12.867   5.850
 6540POPC   GL142565  22.171  12.826   6.150
 6540POPC   GL242566  22.055  12.903   6.150
 6540POPC   C1A42567  22.171  12.893   6.450
 6540POPC   D2A42568  22.174  12.861   6.750
 6540POPC   C3A42569  22.143  12.873   7.050
 6540POPC   C4A42570  22.138  12.855   7.350
 6540POPC   C1B42571  21.946  12.911   6.450
 6540POPC   C2B42572  21.922  12.874   6.750
 6540POPC   C3B42573  21.926  12.880   7.050
 6540POPC   C4B42574  21.934  12.881   7.350
 6541POPC   NC342575   5.125  42.337   5.550
 6541POPC   PO442576   5.073  42.286   5.850
 6541POPC   GL142577   5.132  42.321   6.150
 6541POPC   GL242578   5.018  42.370   6.150
 6541POPC   C1A42579   5.073  42.345   6.450
 6541POPC   D2A42580   5.115  42.322   6.750
 6541POPC   C3A42581   5.075  42.377   7.050
 6541POPC   C4A42582   5.091  42.361   7.350
 6541POPC   C1B42583   4.908  42.475   6.450
 6541POPC   C2B42584   4.937  42.511   6.750
 6541POPC   C3B42585   4.897  42.458   7.050
 6541POPC   C4B42586   4.917  42.467   7.350
 6542POPC   NC342587  39.276   7.384   5.550
 6542POPC   PO442588  39.184   7.415   5.850
 6542POPC   GL142589  39.227   7.466   6.150
 6542POPC   GL242590  39.075   7.447   6.150
 6542POPC   C1A42591  39.244   7.390   6.450
 6542POPC   D2A42592  39.241   7.404   6.750
 6542POPC   C3A42593  39.197   7.468   7.050
 6542POPC   C4A42594  39.201   7.395   7.350
 6542POPC   C1B42595  39.033   7.531   6.450
 6542POPC   C2B42596  39.007   7.529   6.750
 6542POPC   C3B42597  38.992   7.562   7.050
 6542POPC   C4B42598  39.023   7.512   7.350
 6543POPC   NC342599  19.884   2.809   5.550
 6543POPC   PO442600  19.867   2.718   5.850
 6543POPC   GL142601  19.869   2.776   6.150
 6543POPC   GL242602  19.734   2.890   6.150
 6543POPC   C1A42603  19.847   2.780   6.450
 6543POPC   D2A42604  19.845   2.810   6.750
 6543POPC   C3A42605  19.810   2.792   7.050
 6543POPC   C4A42606  19.788   2.746   7.350
 6543POPC   C1B42607  19.599   2.935   6.450
 6543POPC   C2B42608  19.603   2.942   6.750
 6543POPC   C3B42609  19.603   2.904   7.050
 6543POPC   C4B42610  19.657   2.963   7.350
 6544POPC   NC342611  23.664  15.939   5.550
 6544POPC   PO442612  23.683  15.978   5.850
 6544POPC   GL142613  23.751  15.944   6.150
 6544POPC   GL242614  23.739  15.816   6.150
 6544POPC   C1A42615  23.726  15.944   6.450
 6544POPC   D2A42616  23.671  15.950   6.750
 6544POPC   C3A42617  23.727  15.984   7.050
 6544POPC   C4A42618  23.686  15.920   7.350
 6544POPC   C1B42619  23.816  15.721   6.450
 6544POPC   C2B42620  23.812  15.735   6.750
 6544POPC   C3B42621  23.773  15.745   7.050
 6544POPC   C4B42622  23.738  15.758   7.350
 6545POPC   NC342623  42.319  33.831   5.550
 6545POPC   PO442624  42.379  33.793   5.850
 6545POPC   GL142625  42.328  33.784   6.150
 6545POPC   GL242626  42.292  33.959   6.150
 6545POPC   C1A42627  42.371  33.848   6.450
 6545POPC   D2A42628  42.297  33.828   6.750
 6545POPC   C3A42629  42.317  33.832   7.050
 6545POPC   C4A42630  42.313  33.752   7.350
 6545POPC   C1B42631  42.256  34.001   6.450
 6545POPC   C2B42632  42.325  34.026   6.750
 6545POPC   C3B42633  42.275  34.026   7.050
 6545POPC   C4B42634  42.246  34.090   7.350
 6546POPC   NC342635   5.079   1.991   5.550
 6546POPC   PO442636   5.049   1.971   5.850
 6546POPC   GL142637   5.096   2.029   6.150
 6546POPC   GL242638   5.079   2.136   6.150
 6546POPC   C1A42639   5.065   1.942   6.450
 6546POPC   D2A42640   5.070   1.987   6.750
 6546POPC   C3A42641   5.070   2.026   7.050
 6546POPC   C4A42642   5.050   2.038   7.350
 6546POPC   C1B42643   5.034   2.226   6.450
 6546POPC   C2B42644   5.011   2.275   6.750
 6546POPC   C3B42645   5.031   2.233   7.050
 6546POPC   C4B42646   5.015   2.210   7.350
 6547POPC   NC342647  15.979  22.166   5.550
 6547POPC   PO442648  15.962  22.116   5.850
 6547POPC   GL142649  15.975  22.185   6.150
 6547POPC   GL242650  15.897  22.040   6.150
 6547POPC   C1A42651  15.971  22.192   6.450
 6547POPC   D2A42652  15.970  22.135   6.750
 6547POPC   C3A42653  15.936  22.130   7.050
 6547POPC   C4A42654  15.909  22.154   7.350
 6547POPC   C1B42655  15.867  21.918   6.450
 6547POPC   C2B42656  15.834  21.979   6.750
 6547POPC   C3B42657  15.849  21.915   7.050
 6547POPC   C4B42658  15.849  21.935   7.350
 6548POPC   NC342659  21.429   7.439   5.550
 6548POPC   PO442660  21.377   7.444   5.850
 6548POPC   GL142661  21.411   7.399   6.150
 6548POPC   GL242662  21.445   7.312   6.150
 6548POPC   C1A42663  21.338   7.372   6.450
 6548POPC   D2A42664  21.341   7.455   6.750
 6548POPC   C3A42665  21.417   7.387   7.050
 6548POPC   C4A42666  21.364   7.389   7.350
 6548POPC   C1B42667  21.520   7.261   6.450
 6548POPC   C2B42668  21.526   7.222   6.750
 6548POPC   C3B42669  21.572   7.178   7.050
 6548POPC   C4B42670  21.552   7.267   7.350
 6549POPC   NC342671  39.269  44.653   5.550
 6549POPC   PO442672  39.249  44.612   5.850
 6549POPC   GL142673  39.201  44.707   6.150
 6549POPC   GL242674  39.133  44.654   6.150
 6549POPC   C1A42675  39.238  44.679   6.450
 6549POPC   D2A42676  39.259  44.695   6.750
 6549POPC   C3A42677  39.213  44.636   7.050
 6549POPC   C4A42678  39.279  44.686   7.350
 6549POPC   C1B42679  38.956  44.680   6.450
 6549POPC   C2B42680  38.984  44.642   6.750
 6549POPC   C3B42681  38.983  44.660   7.050
 6549POPC   C4B42682  38.985  44.671   7.350
 6550POPC   NC342683  35.315  42.325   5.550
 6550POPC   PO442684  35.393  42.369   5.850
 6550POPC   GL142685  35.352  42.318   6.150
 6550POPC   GL242686  35.224  42.274   6.150
 6550POPC   C1A42687  35.401  42.363   6.450
 6550POPC   D2A42688  35.380  42.360   6.750
 6550POPC   C3A42689  35.330  42.290   7.050
 6550POPC   C4A42690  35.356  42.370   7.350
 6550POPC   C1B42691  35.119  42.236   6.450
 6550POPC   C2B42692  35.115  42.180   6.750
 6550POPC   C3B42693  35.117  42.245   7.050
 6550POPC   C4B42694  35.188  42.153   7.350
 6551POPC   NC342695  10.492  36.153   5.550
 6551POPC   PO442696  10.493  36.123   5.850
 6551POPC   GL142697  10.485  36.164   6.150
 6551POPC   GL242698  10.367  36.159   6.150
 6551POPC   C1A42699  10.495  36.098   6.450
 6551POPC   D2A42700  10.567  36.146   6.750
 6551POPC   C3A42701  10.550  36.079   7.050
 6551POPC   C4A42702  10.565  36.160   7.350
 6551POPC   C1B42703  10.240  36.184   6.450
 6551POPC   C2B42704  10.239  36.131   6.750
 6551POPC   C3B42705  10.278  36.163   7.050
 6551POPC   C4B42706  10.259  36.140   7.350
 6552POPC   NC342707  16.778  22.949   5.550
 6552POPC   PO442708  16.744  22.897   5.850
 6552POPC   GL142709  16.774  22.985   6.150
 6552POPC   GL242710  16.854  22.887   6.150
 6552POPC   C1A42711  16.745  22.897   6.450
 6552POPC   D2A42712  16.764  22.953   6.750
 6552POPC   C3A42713  16.780  22.968   7.050
 6552POPC   C4A42714  16.764  22.982   7.350
 6552POPC   C1B42715  16.976  22.965   6.450
 6552POPC   C2B42716  16.954  22.883   6.750
 6552POPC   C3B42717  17.028  22.921   7.050
 6552POPC   C4B42718  17.026  22.906   7.350
 6553POPC   NC342719   5.049   5.122   5.550
 6553POPC   PO442720   5.092   5.052   5.850
 6553POPC   GL142721   5.083   5.083   6.150
 6553POPC   GL242722   5.074   4.958   6.150
 6553POPC   C1A42723   5.139   5.093   6.450
 6553POPC   D2A42724   5.090   5.061   6.750
 6553POPC   C3A42725   5.065   5.097   7.050
 6553POPC   C4A42726   5.096   5.089   7.350
 6553POPC   C1B42727   4.985   4.822   6.450
 6553POPC   C2B42728   5.024   4.872   6.750
 6553POPC   C3B42729   4.983   4.873   7.050
 6553POPC   C4B42730   4.959   4.890   7.350
 6554POPC   NC342731  38.430  38.479   5.550
 6554POPC   PO442732  38.436  38.475   5.850
 6554POPC   GL142733  38.431  38.424   6.150
 6554POPC   GL242734  38.563  38.306   6.150
 6554POPC   C1A42735  38.457  38.466   6.450
 6554POPC   D2A42736  38.467  38.500   6.750
 6554POPC   C3A42737  38.449  38.472   7.050
 6554POPC   C4A42738  38.466  38.448   7.350
 6554POPC   C1B42739  38.556  38.250   6.450
 6554POPC   C2B42740  38.567  38.209   6.750
 6554POPC   C3B42741  38.590  38.263   7.050
 6554POPC   C4B42742  38.615  38.294   7.350
 6555POPC   NC342743  17.545  36.916   5.550
 6555POPC   PO442744  17.468  36.925   5.850
 6555POPC   GL142745  17.516  36.920   6.150
 6555POPC   GL242746  17.517  37.011   6.150
 6555POPC   C1A42747  17.550  36.933   6.450
 6555POPC   D2A42748  17.477  36.894   6.750
 6555POPC   C3A42749  17.467  36.898   7.050
 6555POPC   C4A42750  17.515  36.953   7.350
 6555POPC   C1B42751  17.446  37.137   6.450
 6555POPC   C2B42752  17.426  37.163   6.750
 6555POPC   C3B42753  17.452  37.114   7.050
 6555POPC   C4B42754  17.416  37.104   7.350
 6556POPC   NC342755  22.912  22.155   5.550
 6556POPC   PO442756  22.958  22.116   5.850
 6556POPC   GL142757  22.942  22.167   6.150
 6556POPC   GL242758  23.024  22.033   6.150
 6556POPC   C1A42759  22.927  22.124   6.450
 6556POPC   D2A42760  22.960  22.206   6.750
 6556POPC   C3A42761  22.987  22.180   7.050
 6556POPC   C4A42762  22.969  22.197   7.350
 6556POPC   C1B42763  23.093  21.983   6.450
 6556POPC   C2B42764  23.112  21.934   6.750
 6556POPC   C3B42765  23.114  21.935   7.050
 6556POPC   C4B42766  23.079  21.977   7.350
 6557POPC   NC342767   6.611  14.372   5.550
 6557POPC   PO442768   6.659  14.401   5.850
 6557POPC   GL142769   6.635  14.406   6.150
 6557POPC   GL242770   6.544  14.496   6.150
 6557POPC   C1A42771   6.693  14.409   6.450
 6557POPC   D2A42772   6.645  14.446   6.750
 6557POPC   C3A42773   6.663  14.374   7.050
 6557POPC   C4A42774   6.666  14.451   7.350
 6557POPC   C1B42775   6.396  14.548   6.450
 6557POPC   C2B42776   6.390  14.548   6.750
 6557POPC   C3B42777   6.424  14.493   7.050
 6557POPC   C4B42778   6.411  14.546   7.350
 6558POPC   NC342779  40.770  17.546   5.550
 6558POPC   PO442780  40.737  17.502   5.850
 6558POPC   GL142781  40.742  17.478   6.150
 6558POPC   GL242782  40.761  17.610   6.150
 6558POPC   C1A42783  40.755  17.555   6.450
 6558POPC   D2A42784  40.760  17.486   6.750
 6558POPC   C3A42785  40.774  17.457   7.050
 6558POPC   C4A42786  40.753  17.508   7.350
 6558POPC   C1B42787  40.632  17.690   6.450
 6558POPC   C2B42788  40.668  17.739   6.750
 6558POPC   C3B42789  40.685  17.712   7.050
 6558POPC   C4B42790  40.701  17.731   7.350
 6559POPC   NC342791  12.076  35.316   5.550
 6559POPC   PO442792  12.036  35.320   5.850
 6559POPC   GL142793  12.042  35.343   6.150
 6559POPC   GL242794  12.077  35.222   6.150
 6559POPC   C1A42795  12.110  35.315   6.450
 6559POPC   D2A42796  12.064  35.332   6.750
 6559POPC   C3A42797  12.049  35.332   7.050
 6559POPC   C4A42798  12.105  35.343   7.350
 6559POPC   C1B42799  12.158  35.089   6.450
 6559POPC   C2B42800  12.206  35.084   6.750
 6559POPC   C3B42801  12.183  35.125   7.050
 6559POPC   C4B42802  12.165  35.114   7.350
 6560POPC   NC342803  26.005  19.072   5.550
 6560POPC   PO442804  25.995  19.031   5.850
 6560POPC   GL142805  26.051  19.057   6.150
 6560POPC   GL242806  25.883  19.086   6.150
 6560POPC   C1A42807  26.034  19.019   6.450
 6560POPC   D2A42808  26.022  19.090   6.750
 6560POPC   C3A42809  26.071  19.057   7.050
 6560POPC   C4A42810  26.077  19.101   7.350
 6560POPC   C1B42811  25.827  19.106   6.450
 6560POPC   C2B42812  25.774  19.168   6.750
 6560POPC   C3B42813  25.815  19.167   7.050
 6560POPC   C4B42814  25.827  19.117   7.350
 6561POPC   NC342815  19.822  38.424   5.550
 6561POPC   PO442816  19.818  38.409   5.850
 6561POPC   GL142817  19.860  38.482   6.150
 6561POPC   GL242818  19.726  38.565   6.150
 6561POPC   C1A42819  19.861  38.454   6.450
 6561POPC   D2A42820  19.831  38.439   6.750
 6561POPC   C3A42821  19.841  38.445   7.050
 6561POPC   C4A42822  19.799  38.472   7.350
 6561POPC   C1B42823  19.681  38.603   6.450
 6561POPC   C2B42824  19.700  38.689   6.750
 6561POPC   C3B42825  19.695  38.688   7.050
 6561POPC   C4B42826  19.684  38.645   7.350
 6562POPC   NC342827  38.452  36.857   5.550
 6562POPC   PO442828  38.486  36.932   5.850
 6562POPC   GL142829  38.445  36.945   6.150
 6562POPC   GL242830  38.527  36.806   6.150
 6562POPC   C1A42831  38.481  36.902   6.450
 6562POPC   D2A42832  38.458  36.946   6.750
 6562POPC   C3A42833  38.439  36.919   7.050
 6562POPC   C4A42834  38.441  36.939   7.350
 6562POPC   C1B42835  38.633  36.726   6.450
 6562POPC   C2B42836  38.592  36.731   6.750
 6562POPC   C3B42837  38.592  36.741   7.050
 6562POPC   C4B42838  38.649  36.759   7.350
 6563POPC   NC342839  35.379  32.985   5.550
 6563POPC   PO442840  35.335  32.991   5.850
 6563POPC   GL142841  35.312  33.000   6.150
 6563POPC   GL242842  35.429  33.102   6.150
 6563POPC   C1A42843  35.358  33.025   6.450
 6563POPC   D2A42844  35.333  33.068   6.750
 6563POPC   C3A42845  35.343  32.994   7.050
 6563POPC   C4A42846  35.339  32.998   7.350
 6563POPC   C1B42847  35.518  33.237   6.450
 6563POPC   C2B42848  35.494  33.272   6.750
 6563POPC   C3B42849  35.496  33.231   7.050
 6563POPC   C4B42850  35.448  33.216   7.350
 6564POPC   NC342851  30.692  16.716   5.550
 6564POPC   PO442852  30.702  16.688   5.850
 6564POPC   GL142853  30.673  16.722   6.150
 6564POPC   GL242854  30.746  16.656   6.150
 6564POPC   C1A42855  30.668  16.761   6.450
 6564POPC   D2A42856  30.702  16.710   6.750
 6564POPC   C3A42857  30.739  16.772   7.050
 6564POPC   C4A42858  30.709  16.765   7.350
 6564POPC   C1B42859  30.762  16.447   6.450
 6564POPC   C2B42860  30.773  16.454   6.750
 6564POPC   C3B42861  30.751  16.489   7.050
 6564POPC   C4B42862  30.716  16.491   7.350
 6565POPC   NC342863  14.443  27.599   5.550
 6565POPC   PO442864  14.431  27.614   5.850
 6565POPC   GL142865  14.369  27.555   6.150
 6565POPC   GL242866  14.414  27.709   6.150
 6565POPC   C1A42867  14.412  27.619   6.450
 6565POPC   D2A42868  14.443  27.630   6.750
 6565POPC   C3A42869  14.360  27.594   7.050
 6565POPC   C4A42870  14.384  27.570   7.350
 6565POPC   C1B42871  14.348  27.800   6.450
 6565POPC   C2B42872  14.310  27.864   6.750
 6565POPC   C3B42873  14.356  27.790   7.050
 6565POPC   C4B42874  14.345  27.802   7.350
 6566POPC   NC342875  34.579  31.446   5.550
 6566POPC   PO442876  34.625  31.506   5.850
 6566POPC   GL142877  34.541  31.519   6.150
 6566POPC   GL242878  34.502  31.371   6.150
 6566POPC   C1A42879  34.566  31.469   6.450
 6566POPC   D2A42880  34.568  31.444   6.750
 6566POPC   C3A42881  34.618  31.516   7.050
 6566POPC   C4A42882  34.592  31.475   7.350
 6566POPC   C1B42883  34.441  31.314   6.450
 6566POPC   C2B42884  34.418  31.254   6.750
 6566POPC   C3B42885  34.434  31.296   7.050
 6566POPC   C4B42886  34.447  31.310   7.350
 6567POPC   NC342887   3.525  14.355   5.550
 6567POPC   PO442888   3.533  14.425   5.850
 6567POPC   GL142889   3.546  14.373   6.150
 6567POPC   GL242890   3.496  14.327   6.150
 6567POPC   C1A42891   3.493  14.449   6.450
 6567POPC   D2A42892   3.551  14.424   6.750
 6567POPC   C3A42893   3.511  14.439   7.050
 6567POPC   C4A42894   3.545  14.377   7.350
 6567POPC   C1B42895   3.534  14.104   6.450
 6567POPC   C2B42896   3.529  14.175   6.750
 6567POPC   C3B42897   3.526  14.163   7.050
 6567POPC   C4B42898   3.537  14.112   7.350
 6568POPC   NC342899  27.569  14.424   5.550
 6568POPC   PO442900  27.547  14.410   5.850
 6568POPC   GL142901  27.544  14.402   6.150
 6568POPC   GL242902  27.492  14.388   6.150
 6568POPC   C1A42903  27.616  14.401   6.450
 6568POPC   D2A42904  27.617  14.437   6.750
 6568POPC   C3A42905  27.613  14.431   7.050
 6568POPC   C4A42906  27.582  14.414   7.350
 6568POPC   C1B42907  27.380  14.247   6.450
 6568POPC   C2B42908  27.367  14.268   6.750
 6568POPC   C3B42909  27.345  14.234   7.050
 6568POPC   C4B42910  27.336  14.274   7.350
 6569POPC   NC342911  23.685   5.082   5.550
 6569POPC   PO442912  23.689   5.113   5.850
 6569POPC   GL142913  23.756   5.135   6.150
 6569POPC   GL242914  23.815   5.009   6.150
 6569POPC   C1A42915  23.710   5.142   6.450
 6569POPC   D2A42916  23.684   5.059   6.750
 6569POPC   C3A42917  23.744   5.086   7.050
 6569POPC   C4A42918  23.729   5.077   7.350
 6569POPC   C1B42919  23.976   5.005   6.450
 6569POPC   C2B42920  23.905   4.965   6.750
 6569POPC   C3B42921  23.942   5.038   7.050
 6569POPC   C4B42922  23.930   4.983   7.350
 6570POPC   NC342923   2.782   2.775   5.550
 6570POPC   PO442924   2.771   2.796   5.850
 6570POPC   GL142925   2.746   2.726   6.150
 6570POPC   GL242926   2.680   2.811   6.150
 6570POPC   C1A42927   2.720   2.753   6.450
 6570POPC   D2A42928   2.813   2.741   6.750
 6570POPC   C3A42929   2.778   2.780   7.050
 6570POPC   C4A42930   2.741   2.758   7.350
 6570POPC   C1B42931   2.536   2.804   6.450
 6570POPC   C2B42932   2.533   2.821   6.750
 6570POPC   C3B42933   2.519   2.850   7.050
 6570POPC   C4B42934   2.569   2.885   7.350
 6571POPC   NC342935   1.941  31.453   5.550
 6571POPC   PO442936   1.945  31.450   5.850
 6571POPC   GL142937   1.952  31.494   6.150
 6571POPC   GL242938   2.028  31.392   6.150
 6571POPC   C1A42939   1.969  31.428   6.450
 6571POPC   D2A42940   2.014  31.518   6.750
 6571POPC   C3A42941   1.994  31.464   7.050
 6571POPC   C4A42942   2.038  31.496   7.350
 6571POPC   C1B42943   2.102  31.256   6.450
 6571POPC   C2B42944   2.119  31.266   6.750
 6571POPC   C3B42945   2.114  31.232   7.050
 6571POPC   C4B42946   2.178  31.303   7.350
 6572POPC   NC342947   0.450   2.733   5.550
 6572POPC   PO442948   0.406   2.779   5.850
 6572POPC   GL142949   0.479   2.742   6.150
 6572POPC   GL242950   0.385   2.934   6.150
 6572POPC   C1A42951   0.442   2.772   6.450
 6572POPC   D2A42952   0.407   2.752   6.750
 6572POPC   C3A42953   0.436   2.725   7.050
 6572POPC   C4A42954   0.461   2.759   7.350
 6572POPC   C1B42955   0.459   3.025   6.450
 6572POPC   C2B42956   0.473   2.972   6.750
 6572POPC   C3B42957   0.465   3.042   7.050
 6572POPC   C4B42958   0.469   3.058   7.350
 6573POPC   NC342959  35.322   2.726   5.550
 6573POPC   PO442960  35.397   2.763   5.850
 6573POPC   GL142961  35.343   2.783   6.150
 6573POPC   GL242962  35.399   2.701   6.150
 6573POPC   C1A42963  35.364   2.762   6.450
 6573POPC   D2A42964  35.309   2.775   6.750
 6573POPC   C3A42965  35.360   2.785   7.050
 6573POPC   C4A42966  35.353   2.771   7.350
 6573POPC   C1B42967  35.497   2.566   6.450
 6573POPC   C2B42968  35.479   2.609   6.750
 6573POPC   C3B42969  35.491   2.606   7.050
 6573POPC   C4B42970  35.544   2.598   7.350
 6574POPC   NC342971  22.185   7.443   5.550
 6574POPC   PO442972  22.151   7.383   5.850
 6574POPC   GL142973  22.207   7.430   6.150
 6574POPC   GL242974  22.226   7.308   6.150
 6574POPC   C1A42975  22.143   7.449   6.450
 6574POPC   D2A42976  22.170   7.388   6.750
 6574POPC   C3A42977  22.203   7.436   7.050
 6574POPC   C4A42978  22.124   7.413   7.350
 6574POPC   C1B42979  22.254   7.155   6.450
 6574POPC   C2B42980  22.236   7.202   6.750
 6574POPC   C3B42981  22.262   7.234   7.050
 6574POPC   C4B42982  22.255   7.177   7.350
 6575POPC   NC342983  33.015  43.899   5.550
 6575POPC   PO442984  32.980  43.874   5.850
 6575POPC   GL142985  33.072  43.881   6.150
 6575POPC   GL242986  33.173  43.949   6.150
 6575POPC   C1A42987  33.027  43.862   6.450
 6575POPC   D2A42988  32.995  43.860   6.750
 6575POPC   C3A42989  33.049  43.936   7.050
 6575POPC   C4A42990  32.980  43.909   7.350
 6575POPC   C1B42991  33.237  44.001   6.450
 6575POPC   C2B42992  33.208  43.969   6.750
 6575POPC   C3B42993  33.221  43.962   7.050
 6575POPC   C4B42994  33.298  44.020   7.350
 6576POPC   NC342995  19.035  30.717   5.550
 6576POPC   PO442996  19.098  30.684   5.850
 6576POPC   GL142997  19.054  30.682   6.150
 6576POPC   GL242998  19.054  30.532   6.150
 6576POPC   C1A42999  19.109  30.668   6.450
 6576POPC   D2A43000  19.082  30.651   6.750
 6576POPC   C3A43001  19.029  30.683   7.050
 6576POPC   C4A43002  19.017  30.672   7.350
 6576POPC   C1B43003  19.058  30.410   6.450
 6576POPC   C2B43004  19.076  30.496   6.750
 6576POPC   C3B43005  19.058  30.401   7.050
 6576POPC   C4B43006  19.101  30.440   7.350
 6577POPC   NC343007   5.083  30.739   5.550
 6577POPC   PO443008   5.049  30.719   5.850
 6577POPC   GL143009   5.055  30.693   6.150
 6577POPC   GL243010   5.129  30.861   6.150
 6577POPC   C1A43011   5.088  30.686   6.450
 6577POPC   D2A43012   5.061  30.703   6.750
 6577POPC   C3A43013   5.099  30.665   7.050
 6577POPC   C4A43014   5.125  30.706   7.350
 6577POPC   C1B43015   5.193  30.892   6.450
 6577POPC   C2B43016   5.215  30.935   6.750
 6577POPC   C3B43017   5.166  30.930   7.050
 6577POPC   C4B43018   5.155  30.959   7.350
 6578POPC   NC343019  29.160   5.141   5.550
 6578POPC   PO443020  29.119   5.116   5.850
 6578POPC   GL143021  29.128   5.113   6.150
 6578POPC   GL243022  29.031   5.087   6.150
 6578POPC   C1A43023  29.154   5.102   6.450
 6578POPC   D2A43024  29.138   5.080   6.750
 6578POPC   C3A43025  29.180   5.111   7.050
 6578POPC   C4A43026  29.138   5.121   7.350
 6578POPC   C1B43027  28.934   4.979   6.450
 6578POPC   C2B43028  28.856   5.049   6.750
 6578POPC   C3B43029  28.855   4.982   7.050
 6578POPC   C4B43030  28.918   5.016   7.350
 6579POPC   NC343031  32.217  21.424   5.550
 6579POPC   PO443032  32.201  21.414   5.850
 6579POPC   GL143033  32.263  21.342   6.150
 6579POPC   GL243034  32.188  21.255   6.150
 6579POPC   C1A43035  32.227  21.350   6.450
 6579POPC   D2A43036  32.285  21.402   6.750
 6579POPC   C3A43037  32.266  21.344   7.050
 6579POPC   C4A43038  32.243  21.362   7.350
 6579POPC   C1B43039  32.167  21.173   6.450
 6579POPC   C2B43040  32.137  21.208   6.750
 6579POPC   C3B43041  32.086  21.116   7.050
 6579POPC   C4B43042  32.175  21.168   7.350
 6580POPC   NC343043  29.913  10.518   5.550
 6580POPC   PO443044  29.952  10.523   5.850
 6580POPC   GL143045  29.919  10.524   6.150
 6580POPC   GL243046  29.934  10.355   6.150
 6580POPC   C1A43047  29.965  10.474   6.450
 6580POPC   D2A43048  29.873  10.475   6.750
 6580POPC   C3A43049  29.936  10.506   7.050
 6580POPC   C4A43050  29.924  10.510   7.350
 6580POPC   C1B43051  29.919  10.252   6.450
 6580POPC   C2B43052  29.878  10.281   6.750
 6580POPC   C3B43053  29.928  10.318   7.050
 6580POPC   C4B43054  29.900  10.288   7.350
 6581POPC   NC343055   6.685  31.452   5.550
 6581POPC   PO443056   6.660  31.498   5.850
 6581POPC   GL143057   6.672  31.463   6.150
 6581POPC   GL243058   6.615  31.396   6.150
 6581POPC   C1A43059   6.694  31.426   6.450
 6581POPC   D2A43060   6.622  31.520   6.750
 6581POPC   C3A43061   6.638  31.508   7.050
 6581POPC   C4A43062   6.641  31.446   7.350
 6581POPC   C1B43063   6.682  31.269   6.450
 6581POPC   C2B43064   6.676  31.211   6.750
 6581POPC   C3B43065   6.657  31.216   7.050
 6581POPC   C4B43066   6.653  31.267   7.350
 6582POPC   NC343067  29.113  30.696   5.550
 6582POPC   PO443068  29.128  30.654   5.850
 6582POPC   GL143069  29.158  30.738   6.150
 6582POPC   GL243070  29.256  30.812   6.150
 6582POPC   C1A43071  29.129  30.698   6.450
 6582POPC   D2A43072  29.103  30.717   6.750
 6582POPC   C3A43073  29.190  30.648   7.050
 6582POPC   C4A43074  29.140  30.660   7.350
 6582POPC   C1B43075  29.312  30.864   6.450
 6582POPC   C2B43076  29.402  30.798   6.750
 6582POPC   C3B43077  29.356  30.825   7.050
 6582POPC   C4B43078  29.402  30.871   7.350
 6583POPC   NC343079  39.996   4.312   5.550
 6583POPC   PO443080  40.016   4.347   5.850
 6583POPC   GL143081  39.990   4.284   6.150
 6583POPC   GL243082  40.032   4.409   6.150
 6583POPC   C1A43083  40.006   4.331   6.450
 6583POPC   D2A43084  40.043   4.364   6.750
 6583POPC   C3A43085  40.043   4.366   7.050
 6583POPC   C4A43086  40.023   4.343   7.350
 6583POPC   C1B43087  39.960   4.516   6.450
 6583POPC   C2B43088  40.006   4.559   6.750
 6583POPC   C3B43089  39.950   4.534   7.050
 6583POPC   C4B43090  39.953   4.519   7.350
 6584POPC   NC343091   8.948   5.129   5.550
 6584POPC   PO443092   8.961   5.109   5.850
 6584POPC   GL143093   8.931   5.120   6.150
 6584POPC   GL243094   8.854   5.178   6.150
 6584POPC   C1A43095   8.939   5.073   6.450
 6584POPC   D2A43096   9.011   5.069   6.750
 6584POPC   C3A43097   8.945   5.094   7.050
 6584POPC   C4A43098   8.931   5.060   7.350
 6584POPC   C1B43099   8.768   5.324   6.450
 6584POPC   C2B43100   8.824   5.324   6.750
 6584POPC   C3B43101   8.808   5.260   7.050
 6584POPC   C4B43102   8.814   5.268   7.350
 6585POPC   NC343103  22.178   0.444   5.550
 6585POPC   PO443104  22.136   0.405   5.850
 6585POPC   GL143105  22.203   0.443   6.150
 6585POPC   GL243106  22.268   0.534   6.150
 6585POPC   C1A43107  22.187   0.459   6.450
 6585POPC   D2A43108  22.120   0.484   6.750
 6585POPC   C3A43109  22.118   0.458   7.050
 6585POPC   C4A43110  22.171   0.404   7.350
 6585POPC   C1B43111  22.353   0.600   6.450
 6585POPC   C2B43112  22.403   0.557   6.750
 6585POPC   C3B43113  22.404   0.602   7.050
 6585POPC   C4B43114  22.393   0.609   7.350
 6586POPC   NC343115  14.400  26.053   5.550
 6586POPC   PO443116  14.375  26.034   5.850
 6586POPC   GL143117  14.391  26.042   6.150
 6586POPC   GL243118  14.327  25.978   6.150
 6586POPC   C1A43119  14.404  26.050   6.450
 6586POPC   D2A43120  14.445  26.029   6.750
 6586POPC   C3A43121  14.405  26.014   7.050
 6586POPC   C4A43122  14.366  26.027   7.350
 6586POPC   C1B43123  14.193  25.886   6.450
 6586POPC   C2B43124  14.189  25.916   6.750
 6586POPC   C3B43125  14.233  25.887   7.050
 6586POPC   C4B43126  14.167  25.856   7.350
 6587POPC   NC343127   8.167  29.877   5.550
 6587POPC   PO443128   8.210  29.934   5.850
 6587POPC   GL143129   8.207  29.889   6.150
 6587POPC   GL243130   8.034  29.907   6.150
 6587POPC   C1A43131   8.162  29.909   6.450
 6587POPC   D2A43132   8.221  29.956   6.750
 6587POPC   C3A43133   8.171  29.921   7.050
 6587POPC   C4A43134   8.223  29.908   7.350
 6587POPC   C1B43135   7.982  29.920   6.450
 6587POPC   C2B43136   7.982  29.888   6.750
 6587POPC   C3B43137   7.977  29.896   7.050
 6587POPC   C4B43138   7.939  29.936   7.350
 6588POPC   NC343139  43.103   3.507   5.550
 6588POPC   PO443140  43.074   3.544   5.850
 6588POPC   GL143141  43.144   3.492   6.150
 6588POPC   GL243142  43.212   3.460   6.150
 6588POPC   C1A43143  43.063   3.520   6.450
 6588POPC   D2A43144  43.092   3.589   6.750
 6588POPC   C3A43145  43.107   3.493   7.050
 6588POPC   C4A43146  43.065   3.585   7.350
 6588POPC   C1B43147  43.329   3.469   6.450
 6588POPC   C2B43148  43.384   3.497   6.750
 6588POPC   C3B43149  43.368   3.436   7.050
 6588POPC   C4B43150  43.348   3.463   7.350
 6589POPC   NC343151  32.243  24.483   5.550
 6589POPC   PO443152  32.241  24.470   5.850
 6589POPC   GL143153  32.201  24.530   6.150
 6589POPC   GL243154  32.347  24.502   6.150
 6589POPC   C1A43155  32.222  24.472   6.450
 6589POPC   D2A43156  32.262  24.491   6.750
 6589POPC   C3A43157  32.248  24.457   7.050
 6589POPC   C4A43158  32.288  24.482   7.350
 6589POPC   C1B43159  32.446  24.520   6.450
 6589POPC   C2B43160  32.530  24.526   6.750
 6589POPC   C3B43161  32.499  24.595   7.050
 6589POPC   C4B43162  32.459  24.541   7.350
 6590POPC   NC343163   4.328  34.611   5.550
 6590POPC   PO443164   4.327  34.558   5.850
 6590POPC   GL143165   4.339  34.566   6.150
 6590POPC   GL243166   4.370  34.646   6.150
 6590POPC   C1A43167   4.367  34.603   6.450
 6590POPC   D2A43168   4.348  34.573   6.750
 6590POPC   C3A43169   4.274  34.574   7.050
 6590POPC   C4A43170   4.360  34.595   7.350
 6590POPC   C1B43171   4.451  34.796   6.450
 6590POPC   C2B43172   4.424  34.736   6.750
 6590POPC   C3B43173   4.431  34.736   7.050
 6590POPC   C4B43174   4.482  34.751   7.350
 6591POPC   NC343175  22.177  11.346   5.550
 6591POPC   PO443176  22.211  11.293   5.850
 6591POPC   GL143177  22.167  11.262   6.150
 6591POPC   GL243178  22.113  11.432   6.150
 6591POPC   C1A43179  22.201  11.332   6.450
 6591POPC   D2A43180  22.150  11.295   6.750
 6591POPC   C3A43181  22.201  11.337   7.050
 6591POPC   C4A43182  22.131  11.278   7.350
 6591POPC   C1B43183  22.078  11.534   6.450
 6591POPC   C2B43184  22.158  11.503   6.750
 6591POPC   C3B43185  22.139  11.529   7.050
 6591POPC   C4B43186  22.140  11.595   7.350
 6592POPC   NC343187   7.442  17.547   5.550
 6592POPC   PO443188   7.438  17.535   5.850
 6592POPC   GL143189   7.391  17.527   6.150
 6592POPC   GL243190   7.388  17.344   6.150
 6592POPC   C1A43191   7.428  17.540   6.450
 6592POPC   D2A43192   7.390  17.467   6.750
 6592POPC   C3A43193   7.411  17.510   7.050
 6592POPC   C4A43194   7.380  17.509   7.350
 6592POPC   C1B43195   7.332  17.310   6.450
 6592POPC   C2B43196   7.298  17.290   6.750
 6592POPC   C3B43197   7.279  17.243   7.050
 6592POPC   C4B43198   7.350  17.249   7.350
 6593POPC   NC343199  38.452  41.511   5.550
 6593POPC   PO443200  38.439  41.533   5.850
 6593POPC   GL143201  38.419  41.516   6.150
 6593POPC   GL243202  38.463  41.709   6.150
 6593POPC   C1A43203  38.495  41.571   6.450
 6593POPC   D2A43204  38.478  41.539   6.750
 6593POPC   C3A43205  38.413  41.537   7.050
 6593POPC   C4A43206  38.505  41.546   7.350
 6593POPC   C1B43207  38.375  41.787   6.450
 6593POPC   C2B43208  38.364  41.800   6.750
 6593POPC   C3B43209  38.382  41.816   7.050
 6593POPC   C4B43210  38.416  41.831   7.350
 6594POPC   NC343211   7.439   2.800   5.550
 6594POPC   PO443212   7.467   2.802   5.850
 6594POPC   GL143213   7.433   2.728   6.150
 6594POPC   GL243214   7.359   2.639   6.150
 6594POPC   C1A43215   7.382   2.736   6.450
 6594POPC   D2A43216   7.413   2.781   6.750
 6594POPC   C3A43217   7.391   2.722   7.050
 6594POPC   C4A43218   7.455   2.766   7.350
 6594POPC   C1B43219   7.276   2.556   6.450
 6594POPC   C2B43220   7.201   2.550   6.750
 6594POPC   C3B43221   7.221   2.596   7.050
 6594POPC   C4B43222   7.238   2.612   7.350
 6595POPC   NC343223  38.439  33.056   5.550
 6595POPC   PO443224  38.408  32.981   5.850
 6595POPC   GL143225  38.417  32.994   6.150
 6595POPC   GL243226  38.399  32.962   6.150
 6595POPC   C1A43227  38.479  33.052   6.450
 6595POPC   D2A43228  38.475  33.016   6.750
 6595POPC   C3A43229  38.504  33.022   7.050
 6595POPC   C4A43230  38.500  33.062   7.350
 6595POPC   C1B43231  38.218  32.829   6.450
 6595POPC   C2B43232  38.264  32.864   6.750
 6595POPC   C3B43233  38.206  32.836   7.050
 6595POPC   C4B43234  38.236  32.830   7.350
 6596POPC   NC343235  39.211  36.859   5.550
 6596POPC   PO443236  39.182  36.902   5.850
 6596POPC   GL143237  39.267  36.870   6.150
 6596POPC   GL243238  39.189  37.010   6.150
 6596POPC   C1A43239  39.215  36.922   6.450
 6596POPC   D2A43240  39.278  36.864   6.750
 6596POPC   C3A43241  39.211  36.887   7.050
 6596POPC   C4A43242  39.182  36.930   7.350
 6596POPC   C1B43243  39.165  37.174   6.450
 6596POPC   C2B43244  39.240  37.139   6.750
 6596POPC   C3B43245  39.163  37.103   7.050
 6596POPC   C4B43246  39.168  37.178   7.350
 6597POPC   NC343247  21.351  15.960   5.550
 6597POPC   PO443248  21.401  15.992   5.850
 6597POPC   GL143249  21.403  15.914   6.150
 6597POPC   GL243250  21.380  16.112   6.150
 6597POPC   C1A43251  21.404  15.969   6.450
 6597POPC   D2A43252  21.381  16.002   6.750
 6597POPC   C3A43253  21.392  16.005   7.050
 6597POPC   C4A43254  21.383  15.990   7.350
 6597POPC   C1B43255  21.380  16.223   6.450
 6597POPC   C2B43256  21.377  16.228   6.750
 6597POPC   C3B43257  21.381  16.221   7.050
 6597POPC   C4B43258  21.444  16.249   7.350
 6598POPC   NC343259  11.300  38.431   5.550
 6598POPC   PO443260  11.337  38.469   5.850
 6598POPC   GL143261  11.252  38.429   6.150
 6598POPC   GL243262  11.371  38.330   6.150
 6598POPC   C1A43263  11.262  38.460   6.450
 6598POPC   D2A43264  11.309  38.414   6.750
 6598POPC   C3A43265  11.297  38.451   7.050
 6598POPC   C4A43266  11.266  38.500   7.350
 6598POPC   C1B43267  11.488  38.331   6.450
 6598POPC   C2B43268  11.449  38.279   6.750
 6598POPC   C3B43269  11.539  38.267   7.050
 6598POPC   C4B43270  11.456  38.280   7.350
 6599POPC   NC343271  16.690  32.276   5.550
 6599POPC   PO443272  16.760  32.249   5.850
 6599POPC   GL143273  16.717  32.220   6.150
 6599POPC   GL243274  16.670  32.141   6.150
 6599POPC   C1A43275  16.766  32.247   6.450
 6599POPC   D2A43276  16.705  32.223   6.750
 6599POPC   C3A43277  16.717  32.209   7.050
 6599POPC   C4A43278  16.769  32.294   7.350
 6599POPC   C1B43279  16.673  32.022   6.450
 6599POPC   C2B43280  16.701  31.972   6.750
 6599POPC   C3B43281  16.659  31.970   7.050
 6599POPC   C4B43282  16.681  31.983   7.350
 6600POPC   NC343283   8.196  35.309   5.550
 6600POPC   PO443284   8.236  35.365   5.850
 6600POPC   GL143285   8.198  35.338   6.150
 6600POPC   GL243286   8.027  35.343   6.150
 6600POPC   C1A43287   8.192  35.332   6.450
 6600POPC   D2A43288   8.154  35.396   6.750
 6600POPC   C3A43289   8.192  35.327   7.050
 6600POPC   C4A43290   8.174  35.314   7.350
 6600POPC   C1B43291   7.904  35.358   6.450
 6600POPC   C2B43292   7.929  35.276   6.750
 6600POPC   C3B43293   7.922  35.282   7.050
 6600POPC   C4B43294   7.919  35.318   7.350
 6601POPC   NC343295  40.006  43.118   5.550
 6601POPC   PO443296  40.012  43.099   5.850
 6601POPC   GL143297  39.971  43.143   6.150
 6601POPC   GL243298  39.971  42.998   6.150
 6601POPC   C1A43299  39.983  43.146   6.450
 6601POPC   D2A43300  40.018  43.134   6.750
 6601POPC   C3A43301  39.998  43.107   7.050
 6601POPC   C4A43302  40.019  43.115   7.350
 6601POPC   C1B43303  40.011  42.884   6.450
 6601POPC   C2B43304  39.951  42.812   6.750
 6601POPC   C3B43305  39.960  42.813   7.050
 6601POPC   C4B43306  39.995  42.852   7.350
 6602POPC   NC343307  43.912   3.539   5.550
 6602POPC   PO443308  43.873   3.564   5.850
 6602POPC   GL143309  43.888   3.497   6.150
 6602POPC   GL243310  43.975   3.483   6.150
 6602POPC   C1A43311  43.925   3.571   6.450
 6602POPC   D2A43312  43.911   3.530   6.750
 6602POPC   C3A43313  43.839   3.575   7.050
 6602POPC   C4A43314  43.902   3.555   7.350
 6602POPC   C1B43315  44.150   3.426   6.450
 6602POPC   C2B43316  44.118   3.461   6.750
 6602POPC   C3B43317  44.101   3.481   7.050
 6602POPC   C4B43318  44.134   3.403   7.350
 6603POPC   NC343319   2.809  16.745   5.550
 6603POPC   PO443320   2.792  16.745   5.850
 6603POPC   GL143321   2.790  16.736   6.150
 6603POPC   GL243322   2.866  16.658   6.150
 6603POPC   C1A43323   2.761  16.755   6.450
 6603POPC   D2A43324   2.796  16.750   6.750
 6603POPC   C3A43325   2.810  16.721   7.050
 6603POPC   C4A43326   2.768  16.756   7.350
 6603POPC   C1B43327   2.919  16.577   6.450
 6603POPC   C2B43328   2.933  16.589   6.750
 6603POPC   C3B43329   2.924  16.592   7.050
 6603POPC   C4B43330   2.899  16.546   7.350
 6604POPC   NC343331  44.631  35.360   5.550
 6604POPC   PO443332  44.674  35.311   5.850
 6604POPC   GL143333  44.688  35.372   6.150
 6604POPC   GL243334  44.567  35.426   6.150
 6604POPC   C1A43335  44.618  35.306   6.450
 6604POPC   D2A43336  44.674  35.358   6.750
 6604POPC   C3A43337  44.707  35.384   7.050
 6604POPC   C4A43338  44.613  35.341   7.350
 6604POPC   C1B43339  44.535  35.529   6.450
 6604POPC   C2B43340  44.571  35.590   6.750
 6604POPC   C3B43341  44.529  35.609   7.050
 6604POPC   C4B43342  44.541  35.608   7.350
 6605POPC   NC343343  32.226   6.641   5.550
 6605POPC   PO443344  32.201   6.600   5.850
 6605POPC   GL143345  32.247   6.689   6.150
 6605POPC   GL243346  32.111   6.618   6.150
 6605POPC   C1A43347  32.228   6.677   6.450
 6605POPC   D2A43348  32.257   6.669   6.750
 6605POPC   C3A43349  32.246   6.626   7.050
 6605POPC   C4A43350  32.267   6.652   7.350
 6605POPC   C1B43351  31.969   6.524   6.450
 6605POPC   C2B43352  32.002   6.580   6.750
 6605POPC   C3B43353  32.025   6.583   7.050
 6605POPC   C4B43354  31.965   6.545   7.350
 6606POPC   NC343355   4.354   2.717   5.550
 6606POPC   PO443356   4.339   2.740   5.850
 6606POPC   GL143357   4.351   2.810   6.150
 6606POPC   GL243358   4.179   2.700   6.150
 6606POPC   C1A43359   4.365   2.739   6.450
 6606POPC   D2A43360   4.361   2.815   6.750
 6606POPC   C3A43361   4.349   2.718   7.050
 6606POPC   C4A43362   4.287   2.760   7.350
 6606POPC   C1B43363   4.121   2.705   6.450
 6606POPC   C2B43364   4.088   2.723   6.750
 6606POPC   C3B43365   4.102   2.762   7.050
 6606POPC   C4B43366   4.077   2.688   7.350
 6607POPC   NC343367   5.126  44.692   5.550
 6607POPC   PO443368   5.122  44.677   5.850
 6607POPC   GL143369   5.116  44.646   6.150
 6607POPC   GL243370   5.187  44.536   6.150
 6607POPC   C1A43371   5.069  44.673   6.450
 6607POPC   D2A43372   5.079  44.708   6.750
 6607POPC   C3A43373   5.125  44.681   7.050
 6607POPC   C4A43374   5.110  44.694   7.350
 6607POPC   C1B43375   5.257  44.434   6.450
 6607POPC   C2B43376   5.235  44.446   6.750
 6607POPC   C3B43377   5.235  44.417   7.050
 6607POPC   C4B43378   5.279  44.480   7.350
 6608POPC   NC343379  17.502  26.824   5.550
 6608POPC   PO443380  17.537  26.795   5.850
 6608POPC   GL143381  17.512  26.792   6.150
 6608POPC   GL243382  17.605  26.764   6.150
 6608POPC   C1A43383  17.509  26.842   6.450
 6608POPC   D2A43384  17.553  26.839   6.750
 6608POPC   C3A43385  17.462  26.777   7.050
 6608POPC   C4A43386  17.488  26.825   7.350
 6608POPC   C1B43387  17.657  26.620   6.450
 6608POPC   C2B43388  17.706  26.703   6.750
 6608POPC   C3B43389  17.676  26.680   7.050
 6608POPC   C4B43390  17.667  26.689   7.350
 6609POPC   NC343391   3.530   0.411   5.550
 6609POPC   PO443392   3.551   0.406   5.850
 6609POPC   GL143393   3.512   0.460   6.150
 6609POPC   GL243394   3.437   0.459   6.150
 6609POPC   C1A43395   3.504   0.439   6.450
 6609POPC   D2A43396   3.549   0.431   6.750
 6609POPC   C3A43397   3.555   0.470   7.050
 6609POPC   C4A43398   3.565   0.444   7.350
 6609POPC   C1B43399   3.337   0.384   6.450
 6609POPC   C2B43400   3.315   0.405   6.750
 6609POPC   C3B43401   3.268   0.397   7.050
 6609POPC   C4B43402   3.242   0.414   7.350
 6610POPC   NC343403  37.694   2.002   5.550
 6610POPC   PO443404  37.682   2.004   5.850
 6610POPC   GL143405  37.728   1.999   6.150
 6610POPC   GL243406  37.581   2.022   6.150
 6610POPC   C1A43407  37.692   2.016   6.450
 6610POPC   D2A43408  37.710   2.029   6.750
 6610POPC   C3A43409  37.648   2.013   7.050
 6610POPC   C4A43410  37.648   2.002   7.350
 6610POPC   C1B43411  37.411   2.093   6.450
 6610POPC   C2B43412  37.421   2.140   6.750
 6610POPC   C3B43413  37.471   2.068   7.050
 6610POPC   C4B43414  37.455   2.141   7.350
 6611POPC   NC343415  20.617  19.076   5.550
 6611POPC   PO443416  20.631  19.042   5.850
 6611POPC   GL143417  20.643  19.020   6.150
 6611POPC   GL243418  20.691  18.972   6.150
 6611POPC   C1A43419  20.638  19.105   6.450
 6611POPC   D2A43420  20.652  19.030   6.750
 6611POPC   C3A43421  20.588  19.079   7.050
 6611POPC   C4A43422  20.567  19.009   7.350
 6611POPC   C1B43423  20.835  18.949   6.450
 6611POPC   C2B43424  20.823  18.869   6.750
 6611POPC   C3B43425  20.792  18.881   7.050
 6611POPC   C4B43426  20.783  18.892   7.350
 6612POPC   NC343427  22.196   8.154   5.550
 6612POPC   PO443428  22.123   8.228   5.850
 6612POPC   GL143429  22.170   8.151   6.150
 6612POPC   GL243430  22.194   8.115   6.150
 6612POPC   C1A43431  22.114   8.191   6.450
 6612POPC   D2A43432  22.150   8.174   6.750
 6612POPC   C3A43433  22.150   8.192   7.050
 6612POPC   C4A43434  22.170   8.242   7.350
 6612POPC   C1B43435  22.253   7.908   6.450
 6612POPC   C2B43436  22.227   7.997   6.750
 6612POPC   C3B43437  22.260   7.962   7.050
 6612POPC   C4B43438  22.198   7.947   7.350
 6613POPC   NC343439   3.540  12.841   5.550
 6613POPC   PO443440   3.571  12.880   5.850
 6613POPC   GL143441   3.523  12.875   6.150
 6613POPC   GL243442   3.470  12.731   6.150
 6613POPC   C1A43443   3.535  12.810   6.450
 6613POPC   D2A43444   3.564  12.873   6.750
 6613POPC   C3A43445   3.499  12.817   7.050
 6613POPC   C4A43446   3.556  12.882   7.350
 6613POPC   C1B43447   3.300  12.710   6.450
 6613POPC   C2B43448   3.383  12.701   6.750
 6613POPC   C3B43449   3.340  12.666   7.050
 6613POPC   C4B43450   3.356  12.730   7.350
 6614POPC   NC343451  43.928  10.550   5.550
 6614POPC   PO443452  43.840  10.504   5.850
 6614POPC   GL143453  43.879  10.547   6.150
 6614POPC   GL243454  44.011  10.576   6.150
 6614POPC   C1A43455  43.881  10.538   6.450
 6614POPC   D2A43456  43.908  10.572   6.750
 6614POPC   C3A43457  43.891  10.531   7.050
 6614POPC   C4A43458  43.863  10.553   7.350
 6614POPC   C1B43459  44.050  10.735   6.450
 6614POPC   C2B43460  44.067  10.719   6.750
 6614POPC   C3B43461  44.042  10.674   7.050
 6614POPC   C4B43462  44.104  10.746   7.350
 6615POPC   NC343463  12.817  42.362   5.550
 6615POPC   PO443464  12.861  42.374   5.850
 6615POPC   GL143465  12.821  42.339   6.150
 6615POPC   GL243466  12.790  42.440   6.150
 6615POPC   C1A43467  12.887  42.295   6.450
 6615POPC   D2A43468  12.805  42.308   6.750
 6615POPC   C3A43469  12.869  42.292   7.050
 6615POPC   C4A43470  12.841  42.372   7.350
 6615POPC   C1B43471  12.837  42.569   6.450
 6615POPC   C2B43472  12.852  42.573   6.750
 6615POPC   C3B43473  12.767  42.542   7.050
 6615POPC   C4B43474  12.854  42.573   7.350
 6616POPC   NC343475   8.956  36.091   5.550
 6616POPC   PO443476   8.958  36.101   5.850
 6616POPC   GL143477   8.947  36.143   6.150
 6616POPC   GL243478   8.853  36.058   6.150
 6616POPC   C1A43479   8.986  36.148   6.450
 6616POPC   D2A43480   9.007  36.078   6.750
 6616POPC   C3A43481   8.967  36.159   7.050
 6616POPC   C4A43482   8.929  36.126   7.350
 6616POPC   C1B43483   8.800  35.957   6.450
 6616POPC   C2B43484   8.735  35.975   6.750
 6616POPC   C3B43485   8.812  35.938   7.050
 6616POPC   C4B43486   8.774  35.979   7.350
 6617POPC   NC343487  24.469  24.503   5.550
 6617POPC   PO443488  24.479  24.538   5.850
 6617POPC   GL143489  24.467  24.479   6.150
 6617POPC   GL243490  24.570  24.408   6.150
 6617POPC   C1A43491  24.470  24.536   6.450
 6617POPC   D2A43492  24.506  24.488   6.750
 6617POPC   C3A43493  24.497  24.446   7.050
 6617POPC   C4A43494  24.490  24.481   7.350
 6617POPC   C1B43495  24.719  24.364   6.450
 6617POPC   C2B43496  24.694  24.326   6.750
 6617POPC   C3B43497  24.679  24.348   7.050
 6617POPC   C4B43498  24.690  24.296   7.350
 6618POPC   NC343499  33.005  27.572   5.550
 6618POPC   PO443500  33.009  27.628   5.850
 6618POPC   GL143501  32.990  27.605   6.150
 6618POPC   GL243502  33.196  27.567   6.150
 6618POPC   C1A43503  32.995  27.545   6.450
 6618POPC   D2A43504  33.066  27.634   6.750
 6618POPC   C3A43505  33.060  27.584   7.050
 6618POPC   C4A43506  33.074  27.612   7.350
 6618POPC   C1B43507  33.297  27.593   6.450
 6618POPC   C2B43508  33.247  27.605   6.750
 6618POPC   C3B43509  33.295  27.531   7.050
 6618POPC   C4B43510  33.229  27.553   7.350
 6619POPC   NC343511  29.926  43.107   5.550
 6619POPC   PO443512  29.875  43.095   5.850
 6619POPC   GL143513  29.875  43.115   6.150
 6619POPC   GL243514  29.856  43.061   6.150
 6619POPC   C1A43515  29.919  43.123   6.450
 6619POPC   D2A43516  29.948  43.160   6.750
 6619POPC   C3A43517  29.883  43.069   7.050
 6619POPC   C4A43518  29.935  43.142   7.350
 6619POPC   C1B43519  29.786  42.982   6.450
 6619POPC   C2B43520  29.764  42.988   6.750
 6619POPC   C3B43521  29.759  42.957   7.050
 6619POPC   C4B43522  29.707  42.925   7.350
 6620POPC   NC343523  22.127  29.174   5.550
 6620POPC   PO443524  22.181  29.112   5.850
 6620POPC   GL143525  22.150  29.173   6.150
 6620POPC   GL243526  22.274  29.242   6.150
 6620POPC   C1A43527  22.211  29.104   6.450
 6620POPC   D2A43528  22.208  29.148   6.750
 6620POPC   C3A43529  22.148  29.192   7.050
 6620POPC   C4A43530  22.131  29.109   7.350
 6620POPC   C1B43531  22.378  29.322   6.450
 6620POPC   C2B43532  22.359  29.270   6.750
 6620POPC   C3B43533  22.325  29.283   7.050
 6620POPC   C4B43534  22.345  29.319   7.350
 6621POPC   NC343535   6.604   6.607   5.550
 6621POPC   PO443536   6.596   6.595   5.850
 6621POPC   GL143537   6.643   6.650   6.150
 6621POPC   GL243538   6.565   6.691   6.150
 6621POPC   C1A43539   6.655   6.604   6.450
 6621POPC   D2A43540   6.669   6.685   6.750
 6621POPC   C3A43541   6.643   6.604   7.050
 6621POPC   C4A43542   6.606   6.654   7.350
 6621POPC   C1B43543   6.407   6.631   6.450
 6621POPC   C2B43544   6.352   6.652   6.750
 6621POPC   C3B43545   6.390   6.632   7.050
 6621POPC   C4B43546   6.357   6.662   7.350
 6622POPC   NC343547  34.567  24.510   5.550
 6622POPC   PO443548  34.598  24.455   5.850
 6622POPC   GL143549  34.581  24.478   6.150
 6622POPC   GL243550  34.539  24.650   6.150
 6622POPC   C1A43551  34.543  24.460   6.450
 6622POPC   D2A43552  34.584  24.507   6.750
 6622POPC   C3A43553  34.576  24.494   7.050
 6622POPC   C4A43554  34.576  24.480   7.350
 6622POPC   C1B43555  34.468  24.698   6.450
 6622POPC   C2B43556  34.502  24.756   6.750
 6622POPC   C3B43557  34.529  24.738   7.050
 6622POPC   C4B43558  34.555  24.685   7.350
 6623POPC   NC343559  40.042  26.838   5.550
 6623POPC   PO443560  39.992  26.768   5.850
 6623POPC   GL143561  39.962  26.842   6.150
 6623POPC   GL243562  40.042  26.928   6.150
 6623POPC   C1A43563  39.961  26.769   6.450
 6623POPC   D2A43564  39.999  26.837   6.750
 6623POPC   C3A43565  40.018  26.774   7.050
 6623POPC   C4A43566  39.992  26.768   7.350
 6623POPC   C1B43567  39.995  27.090   6.450
 6623POPC   C2B43568  39.992  27.036   6.750
 6623POPC   C3B43569  40.037  27.067   7.050
 6623POPC   C4B43570  40.003  27.087   7.350
 6624POPC   NC343571   7.426   1.940   5.550
 6624POPC   PO443572   7.440   1.994   5.850
 6624POPC   GL143573   7.384   1.954   6.150
 6624POPC   GL243574   7.381   1.858   6.150
 6624POPC   C1A43575   7.452   2.026   6.450
 6624POPC   D2A43576   7.464   1.988   6.750
 6624POPC   C3A43577   7.468   1.952   7.050
 6624POPC   C4A43578   7.391   2.016   7.350
 6624POPC   C1B43579   7.327   1.731   6.450
 6624POPC   C2B43580   7.323   1.787   6.750
 6624POPC   C3B43581   7.329   1.792   7.050
 6624POPC   C4B43582   7.302   1.754   7.350
 6625POPC   NC343583  32.992   8.243   5.550
 6625POPC   PO443584  33.049   8.161   5.850
 6625POPC   GL143585  33.072   8.179   6.150
 6625POPC   GL243586  32.949   8.228   6.150
 6625POPC   C1A43587  33.053   8.186   6.450
 6625POPC   D2A43588  32.986   8.229   6.750
 6625POPC   C3A43589  33.034   8.198   7.050
 6625POPC   C4A43590  33.020   8.163   7.350
 6625POPC   C1B43591  32.793   8.308   6.450
 6625POPC   C2B43592  32.810   8.311   6.750
 6625POPC   C3B43593  32.819   8.325   7.050
 6625POPC   C4B43594  32.810   8.298   7.350
 6626POPC   NC343595  26.039  22.957   5.550
 6626POPC   PO443596  26.051  22.891   5.850
 6626POPC   GL143597  26.006  22.943   6.150
 6626POPC   GL243598  25.955  23.043   6.150
 6626POPC   C1A43599  26.070  22.952   6.450
 6626POPC   D2A43600  26.056  22.918   6.750
 6626POPC   C3A43601  26.063  22.925   7.050
 6626POPC   C4A43602  26.008  22.898   7.350
 6626POPC   C1B43603  25.889  23.094   6.450
 6626POPC   C2B43604  25.866  23.167   6.750
 6626POPC   C3B43605  25.915  23.092   7.050
 6626POPC   C4B43606  25.898  23.099   7.350
 6627POPC   NC343607   4.357   3.509   5.550
 6627POPC   PO443608   4.333   3.556   5.850
 6627POPC   GL143609   4.294   3.535   6.150
 6627POPC   GL243610   4.165   3.496   6.150
 6627POPC   C1A43611   4.311   3.577   6.450
 6627POPC   D2A43612   4.341   3.541   6.750
 6627POPC   C3A43613   4.281   3.547   7.050
 6627POPC   C4A43614   4.346   3.562   7.350
 6627POPC   C1B43615   4.054   3.483   6.450
 6627POPC   C2B43616   4.055   3.548   6.750
 6627POPC   C3B43617   4.031   3.536   7.050
 6627POPC   C4B43618   4.038   3.481   7.350
 6628POPC   NC343619  22.155  36.100   5.550
 6628POPC   PO443620  22.151  36.141   5.850
 6628POPC   GL143621  22.173  36.126   6.150
 6628POPC   GL243622  22.229  36.100   6.150
 6628POPC   C1A43623  22.205  36.138   6.450
 6628POPC   D2A43624  22.154  36.082   6.750
 6628POPC   C3A43625  22.147  36.129   7.050
 6628POPC   C4A43626  22.164  36.085   7.350
 6628POPC   C1B43627  22.368  35.943   6.450
 6628POPC   C2B43628  22.366  35.984   6.750
 6628POPC   C3B43629  22.347  35.946   7.050
 6628POPC   C4B43630  22.353  35.979   7.350
 6629POPC   NC343631  28.386  12.067   5.550
 6629POPC   PO443632  28.407  12.108   5.850
 6629POPC   GL143633  28.341  12.083   6.150
 6629POPC   GL243634  28.321  12.195   6.150
 6629POPC   C1A43635  28.395  12.091   6.450
 6629POPC   D2A43636  28.406  12.108   6.750
 6629POPC   C3A43637  28.332  12.054   7.050
 6629POPC   C4A43638  28.346  12.108   7.350
 6629POPC   C1B43639  28.284  12.254   6.450
 6629POPC   C2B43640  28.247  12.303   6.750
 6629POPC   C3B43641  28.243  12.330   7.050
 6629POPC   C4B43642  28.306  12.352   7.350
 6630POPC   NC343643   5.078   1.211   5.550
 6630POPC   PO443644   5.109   1.236   5.850
 6630POPC   GL143645   5.136   1.251   6.150
 6630POPC   GL243646   4.998   1.208   6.150
 6630POPC   C1A43647   5.137   1.194   6.450
 6630POPC   D2A43648   5.057   1.198   6.750
 6630POPC   C3A43649   5.080   1.189   7.050
 6630POPC   C4A43650   5.133   1.193   7.350
 6630POPC   C1B43651   4.830   1.179   6.450
 6630POPC   C2B43652   4.843   1.130   6.750
 6630POPC   C3B43653   4.839   1.119   7.050
 6630POPC   C4B43654   4.887   1.186   7.350
 6631POPC   NC343655  35.304  25.304   5.550
 6631POPC   PO443656  35.315  25.255   5.850
 6631POPC   GL143657  35.370  25.297   6.150
 6631POPC   GL243658  35.288  25.149   6.150
 6631POPC   C1A43659  35.342  25.281   6.450
 6631POPC   D2A43660  35.316  25.244   6.750
 6631POPC   C3A43661  35.363  25.223   7.050
 6631POPC   C4A43662  35.391  25.227   7.350
 6631POPC   C1B43663  35.301  25.037   6.450
 6631POPC   C2B43664  35.235  25.051   6.750
 6631POPC   C3B43665  35.280  24.989   7.050
 6631POPC   C4B43666  35.300  25.044   7.350
 6632POPC   NC343667   5.044  16.759   5.550
 6632POPC   PO443668   5.045  16.765   5.850
 6632POPC   GL143669   5.111  16.763   6.150
 6632POPC   GL243670   5.020  16.820   6.150
 6632POPC   C1A43671   5.091  16.707   6.450
 6632POPC   D2A43672   5.046  16.747   6.750
 6632POPC   C3A43673   5.044  16.710   7.050
 6632POPC   C4A43674   5.046  16.736   7.350
 6632POPC   C1B43675   4.953  16.896   6.450
 6632POPC   C2B43676   4.895  16.953   6.750
 6632POPC   C3B43677   4.939  16.873   7.050
 6632POPC   C4B43678   4.976  16.939   7.350
 6633POPC   NC343679  42.376  29.179   5.550
 6633POPC   PO443680  42.324  29.153   5.850
 6633POPC   GL143681  42.307  29.137   6.150
 6633POPC   GL243682  42.452  29.116   6.150
 6633POPC   C1A43683  42.368  29.167   6.450
 6633POPC   D2A43684  42.297  29.111   6.750
 6633POPC   C3A43685  42.359  29.116   7.050
 6633POPC   C4A43686  42.313  29.126   7.350
 6633POPC   C1B43687  42.558  29.011   6.450
 6633POPC   C2B43688  42.600  29.080   6.750
 6633POPC   C3B43689  42.600  28.988   7.050
 6633POPC   C4B43690  42.531  29.064   7.350
 6634POPC   NC343691  20.638  28.403   5.550
 6634POPC   PO443692  20.606  28.321   5.850
 6634POPC   GL143693  20.617  28.343   6.150
 6634POPC   GL243694  20.729  28.429   6.150
 6634POPC   C1A43695  20.653  28.344   6.450
 6634POPC   D2A43696  20.597  28.378   6.750
 6634POPC   C3A43697  20.565  28.387   7.050
 6634POPC   C4A43698  20.639  28.319   7.350
 6634POPC   C1B43699  20.887  28.414   6.450
 6634POPC   C2B43700  20.825  28.446   6.750
 6634POPC   C3B43701  20.827  28.419   7.050
 6634POPC   C4B43702  20.835  28.432   7.350
 6635POPC   NC343703  28.324  19.823   5.550
 6635POPC   PO443704  28.368  19.809   5.850
 6635POPC   GL143705  28.391  19.809   6.150
 6635POPC   GL243706  28.419  19.908   6.150
 6635POPC   C1A43707  28.403  19.850   6.450
 6635POPC   D2A43708  28.379  19.825   6.750
 6635POPC   C3A43709  28.354  19.855   7.050
 6635POPC   C4A43710  28.405  19.852   7.350
 6635POPC   C1B43711  28.517  20.024   6.450
 6635POPC   C2B43712  28.559  19.983   6.750
 6635POPC   C3B43713  28.552  20.006   7.050
 6635POPC   C4B43714  28.593  20.045   7.350
 6636POPC   NC343715   9.712  21.419   5.550
 6636POPC   PO443716   9.769  21.350   5.850
 6636POPC   GL143717   9.704  21.369   6.150
 6636POPC   GL243718   9.770  21.501   6.150
 6636POPC   C1A43719   9.733  21.392   6.450
 6636POPC   D2A43720   9.714  21.337   6.750
 6636POPC   C3A43721   9.794  21.350   7.050
 6636POPC   C4A43722   9.760  21.365   7.350
 6636POPC   C1B43723   9.680  21.666   6.450
 6636POPC   C2B43724   9.655  21.675   6.750
 6636POPC   C3B43725   9.655  21.605   7.050
 6636POPC   C4B43726   9.675  21.597   7.350
 6637POPC   NC343727   2.805  32.984   5.550
 6637POPC   PO443728   2.768  33.021   5.850
 6637POPC   GL143729   2.745  33.042   6.150
 6637POPC   GL243730   2.623  33.110   6.150
 6637POPC   C1A43731   2.762  32.981   6.450
 6637POPC   D2A43732   2.805  33.053   6.750
 6637POPC   C3A43733   2.806  33.010   7.050
 6637POPC   C4A43734   2.789  33.011   7.350
 6637POPC   C1B43735   2.521  33.138   6.450
 6637POPC   C2B43736   2.556  33.115   6.750
 6637POPC   C3B43737   2.569  33.098   7.050
 6637POPC   C4B43738   2.540  33.188   7.350
 6638POPC   NC343739   8.954  12.058   5.550
 6638POPC   PO443740   8.968  12.036   5.850
 6638POPC   GL143741   8.996  12.035   6.150
 6638POPC   GL243742   8.865  12.171   6.150
 6638POPC   C1A43743   8.942  12.062   6.450
 6638POPC   D2A43744   8.931  12.041   6.750
 6638POPC   C3A43745   8.977  12.123   7.050
 6638POPC   C4A43746   9.019  12.041   7.350
 6638POPC   C1B43747   8.804  12.278   6.450
 6638POPC   C2B43748   8.787  12.293   6.750
 6638POPC   C3B43749   8.811  12.329   7.050
 6638POPC   C4B43750   8.851  12.238   7.350
 6639POPC   NC343751  37.634  43.865   5.550
 6639POPC   PO443752  37.666  43.933   5.850
 6639POPC   GL143753  37.703  43.900   6.150
 6639POPC   GL243754  37.682  44.007   6.150
 6639POPC   C1A43755  37.686  43.857   6.450
 6639POPC   D2A43756  37.708  43.906   6.750
 6639POPC   C3A43757  37.658  43.870   7.050
 6639POPC   C4A43758  37.700  43.905   7.350
 6639POPC   C1B43759  37.667  44.087   6.450
 6639POPC   C2B43760  37.687  44.140   6.750
 6639POPC   C3B43761  37.655  44.095   7.050
 6639POPC   C4B43762  37.680  44.114   7.350
 6640POPC   NC343763  16.776  29.939   5.550
 6640POPC   PO443764  16.754  29.884   5.850
 6640POPC   GL143765  16.721  29.926   6.150
 6640POPC   GL243766  16.753  30.050   6.150
 6640POPC   C1A43767  16.705  29.916   6.450
 6640POPC   D2A43768  16.739  29.920   6.750
 6640POPC   C3A43769  16.708  29.877   7.050
 6640POPC   C4A43770  16.778  29.896   7.350
 6640POPC   C1B43771  16.853  30.183   6.450
 6640POPC   C2B43772  16.831  30.130   6.750
 6640POPC   C3B43773  16.789  30.201   7.050
 6640POPC   C4B43774  16.811  30.202   7.350
 6641POPC   NC343775  36.898  23.706   5.550
 6641POPC   PO443776  36.926  23.679   5.850
 6641POPC   GL143777  36.861  23.680   6.150
 6641POPC   GL243778  36.801  23.837   6.150
 6641POPC   C1A43779  36.913  23.733   6.450
 6641POPC   D2A43780  36.912  23.692   6.750
 6641POPC   C3A43781  36.857  23.730   7.050
 6641POPC   C4A43782  36.866  23.704   7.350
 6641POPC   C1B43783  36.801  23.957   6.450
 6641POPC   C2B43784  36.757  23.902   6.750
 6641POPC   C3B43785  36.781  23.935   7.050
 6641POPC   C4B43786  36.738  23.907   7.350
 6642POPC   NC343787  32.249  25.283   5.550
 6642POPC   PO443788  32.249  25.301   5.850
 6642POPC   GL143789  32.283  25.288   6.150
 6642POPC   GL243790  32.273  25.182   6.150
 6642POPC   C1A43791  32.292  25.304   6.450
 6642POPC   D2A43792  32.244  25.240   6.750
 6642POPC   C3A43793  32.272  25.248   7.050
 6642POPC   C4A43794  32.238  25.222   7.350
 6642POPC   C1B43795  32.336  25.026   6.450
 6642POPC   C2B43796  32.327  25.079   6.750
 6642POPC   C3B43797  32.331  25.038   7.050
 6642POPC   C4B43798  32.363  25.063   7.350
 6643POPC   NC343799  17.508  25.302   5.550
 6643POPC   PO443800  17.524  25.268   5.850
 6643POPC   GL143801  17.550  25.300   6.150
 6643POPC   GL243802  17.357  25.151   6.150
 6643POPC   C1A43803  17.497  25.253   6.450
 6643POPC   D2A43804  17.515  25.217   6.750
 6643POPC   C3A43805  17.535  25.311   7.050
 6643POPC   C4A43806  17.505  25.248   7.350
 6643POPC   C1B43807  17.314  25.174   6.450
 6643POPC   C2B43808  17.339  25.108   6.750
 6643POPC   C3B43809  17.318  25.131   7.050
 6643POPC   C4B43810  17.326  25.140   7.350
 6644POPC   NC343811   8.210  41.576   5.550
 6644POPC   PO443812   8.169  41.531   5.850
 6644POPC   GL143813   8.220  41.591   6.150
 6644POPC   GL243814   8.270  41.559   6.150
 6644POPC   C1A43815   8.178  41.609   6.450
 6644POPC   D2A43816   8.209  41.514   6.750
 6644POPC   C3A43817   8.154  41.600   7.050
 6644POPC   C4A43818   8.153  41.591   7.350
 6644POPC   C1B43819   8.399  41.513   6.450
 6644POPC   C2B43820   8.447  41.548   6.750
 6644POPC   C3B43821   8.459  41.509   7.050
 6644POPC   C4B43822   8.478  41.495   7.350
 6645POPC   NC343823  29.160  14.422   5.550
 6645POPC   PO443824  29.118  14.430   5.850
 6645POPC   GL143825  29.163  14.374   6.150
 6645POPC   GL243826  29.068  14.282   6.150
 6645POPC   C1A43827  29.184  14.372   6.450
 6645POPC   D2A43828  29.099  14.399   6.750
 6645POPC   C3A43829  29.124  14.380   7.050
 6645POPC   C4A43830  29.137  14.410   7.350
 6645POPC   C1B43831  29.049  14.199   6.450
 6645POPC   C2B43832  29.115  14.131   6.750
 6645POPC   C3B43833  29.109  14.155   7.050
 6645POPC   C4B43834  29.084  14.152   7.350
 6646POPC   NC343835  19.856  29.922   5.550
 6646POPC   PO443836  19.819  29.885   5.850
 6646POPC   GL143837  19.799  29.931   6.150
 6646POPC   GL243838  19.719  29.974   6.150
 6646POPC   C1A43839  19.836  29.904   6.450
 6646POPC   D2A43840  19.804  29.933   6.750
 6646POPC   C3A43841  19.864  29.871   7.050
 6646POPC   C4A43842  19.791  29.871   7.350
 6646POPC   C1B43843  19.588  30.021   6.450
 6646POPC   C2B43844  19.571  29.966   6.750
 6646POPC   C3B43845  19.553  29.933   7.050
 6646POPC   C4B43846  19.638  29.990   7.350
 6647POPC   NC343847  20.630  34.596   5.550
 6647POPC   PO443848  20.602  34.527   5.850
 6647POPC   GL143849  20.658  34.607   6.150
 6647POPC   GL243850  20.566  34.747   6.150
 6647POPC   C1A43851  20.638  34.551   6.450
 6647POPC   D2A43852  20.646  34.529   6.750
 6647POPC   C3A43853  20.588  34.553   7.050
 6647POPC   C4A43854  20.609  34.569   7.350
 6647POPC   C1B43855  20.582  34.848   6.450
 6647POPC   C2B43856  20.644  34.836   6.750
 6647POPC   C3B43857  20.589  34.788   7.050
 6647POPC   C4B43858  20.616  34.799   7.350
 6648POPC   NC343859  15.968  16.693   5.550
 6648POPC   PO443860  16.001  16.685   5.850
 6648POPC   GL143861  16.003  16.739   6.150
 6648POPC   GL243862  16.038  16.802   6.150
 6648POPC   C1A43863  15.991  16.709   6.450
 6648POPC   D2A43864  15.971  16.703   6.750
 6648POPC   C3A43865  15.958  16.697   7.050
 6648POPC   C4A43866  15.950  16.720   7.350
 6648POPC   C1B43867  16.095  16.928   6.450
 6648POPC   C2B43868  16.176  16.864   6.750
 6648POPC   C3B43869  16.167  16.921   7.050
 6648POPC   C4B43870  16.158  16.913   7.350
 6649POPC   NC343871  19.038  10.511   5.550
 6649POPC   PO443872  19.070  10.513   5.850
 6649POPC   GL143873  19.059  10.564   6.150
 6649POPC   GL243874  18.998  10.610   6.150
 6649POPC   C1A43875  19.011  10.511   6.450
 6649POPC   D2A43876  19.036  10.553   6.750
 6649POPC   C3A43877  19.012  10.478   7.050
 6649POPC   C4A43878  19.091  10.495   7.350
 6649POPC   C1B43879  18.941  10.746   6.450
 6649POPC   C2B43880  19.007  10.751   6.750
 6649POPC   C3B43881  18.953  10.706   7.050
 6649POPC   C4B43882  18.994  10.802   7.350
 6650POPC   NC343883  20.597  43.123   5.550
 6650POPC   PO443884  20.630  43.078   5.850
 6650POPC   GL143885  20.646  43.152   6.150
 6650POPC   GL243886  20.723  43.152   6.150
 6650POPC   C1A43887  20.642  43.135   6.450
 6650POPC   D2A43888  20.572  43.137   6.750
 6650POPC   C3A43889  20.600  43.070   7.050
 6650POPC   C4A43890  20.659  43.116   7.350
 6650POPC   C1B43891  20.812  43.192   6.450
 6650POPC   C2B43892  20.900  43.159   6.750
 6650POPC   C3B43893  20.901  43.144   7.050
 6650POPC   C4B43894  20.902  43.129   7.350
 6651POPC   NC343895  35.392  34.593   5.550
 6651POPC   PO443896  35.358  34.592   5.850
 6651POPC   GL143897  35.342  34.598   6.150
 6651POPC   GL243898  35.411  34.492   6.150
 6651POPC   C1A43899  35.339  34.580   6.450
 6651POPC   D2A43900  35.315  34.533   6.750
 6651POPC   C3A43901  35.383  34.615   7.050
 6651POPC   C4A43902  35.341  34.561   7.350
 6651POPC   C1B43903  35.443  34.320   6.450
 6651POPC   C2B43904  35.419  34.348   6.750
 6651POPC   C3B43905  35.384  34.306   7.050
 6651POPC   C4B43906  35.446  34.283   7.350
 6652POPC   NC343907  21.338   8.246   5.550
 6652POPC   PO443908  21.370   8.228   5.850
 6652POPC   GL143909  21.343   8.215   6.150
 6652POPC   GL243910  21.299   8.305   6.150
 6652POPC   C1A43911  21.407   8.246   6.450
 6652POPC   D2A43912  21.403   8.221   6.750
 6652POPC   C3A43913  21.351   8.246   7.050
 6652POPC   C4A43914  21.387   8.187   7.350
 6652POPC   C1B43915  21.204   8.370   6.450
 6652POPC   C2B43916  21.154   8.394   6.750
 6652POPC   C3B43917  21.166   8.321   7.050
 6652POPC   C4B43918  21.219   8.366   7.350
 6653POPC   NC343919   1.219  29.105   5.550
 6653POPC   PO443920   1.231  29.189   5.850
 6653POPC   GL143921   1.210  29.147   6.150
 6653POPC   GL243922   1.149  29.295   6.150
 6653POPC   C1A43923   1.248  29.099   6.450
 6653POPC   D2A43924   1.220  29.131   6.750
 6653POPC   C3A43925   1.189  29.111   7.050
 6653POPC   C4A43926   1.174  29.144   7.350
 6653POPC   C1B43927   1.119  29.383   6.450
 6653POPC   C2B43928   1.047  29.325   6.750
 6653POPC   C3B43929   1.044  29.335   7.050
 6653POPC   C4B43930   1.050  29.384   7.350
 6654POPC   NC343931  14.382  37.719   5.550
 6654POPC   PO443932  14.388  37.663   5.850
 6654POPC   GL143933  14.355  37.632   6.150
 6654POPC   GL243934  14.448  37.546   6.150
 6654POPC   C1A43935  14.442  37.651   6.450
 6654POPC   D2A43936  14.425  37.701   6.750
 6654POPC   C3A43937  14.386  37.703   7.050
 6654POPC   C4A43938  14.452  37.676   7.350
 6654POPC   C1B43939  14.541  37.481   6.450
 6654POPC   C2B43940  14.466  37.451   6.750
 6654POPC   C3B43941  14.551  37.431   7.050
 6654POPC   C4B43942  14.525  37.488   7.350
 6655POPC   NC343943  12.120  32.239   5.550
 6655POPC   PO443944  12.026  32.257   5.850
 6655POPC   GL143945  12.049  32.298   6.150
 6655POPC   GL243946  11.999  32.332   6.150
 6655POPC   C1A43947  12.091  32.275   6.450
 6655POPC   D2A43948  12.045  32.210   6.750
 6655POPC   C3A43949  12.077  32.231   7.050
 6655POPC   C4A43950  12.112  32.256   7.350
 6655POPC   C1B43951  11.816  32.322   6.450
 6655POPC   C2B43952  11.825  32.382   6.750
 6655POPC   C3B43953  11.807  32.360   7.050
 6655POPC   C4B43954  11.816  32.350   7.350
 6656POPC   NC343955  21.433   8.952   5.550
 6656POPC   PO443956  21.415   8.966   5.850
 6656POPC   GL143957  21.396   8.998   6.150
 6656POPC   GL243958  21.475   9.119   6.150
 6656POPC   C1A43959  21.366   8.980   6.450
 6656POPC   D2A43960  21.358   8.938   6.750
 6656POPC   C3A43961  21.421   8.929   7.050
 6656POPC   C4A43962  21.359   8.970   7.350
 6656POPC   C1B43963  21.536   9.186   6.450
 6656POPC   C2B43964  21.506   9.182   6.750
 6656POPC   C3B43965  21.546   9.142   7.050
 6656POPC   C4B43966  21.562   9.130   7.350
 6657POPC   NC343967   9.735  15.959   5.550
 6657POPC   PO443968   9.789  15.925   5.850
 6657POPC   GL143969   9.742  15.943   6.150
 6657POPC   GL243970   9.758  15.872   6.150
 6657POPC   C1A43971   9.776  15.920   6.450
 6657POPC   D2A43972   9.778  15.972   6.750
 6657POPC   C3A43973   9.777  15.913   7.050
 6657POPC   C4A43974   9.775  15.932   7.350
 6657POPC   C1B43975   9.720  15.740   6.450
 6657POPC   C2B43976   9.692  15.724   6.750
 6657POPC   C3B43977   9.650  15.677   7.050
 6657POPC   C4B43978   9.643  15.665   7.350
 6658POPC   NC343979  33.035  28.347   5.550
 6658POPC   PO443980  33.054  28.332   5.850
 6658POPC   GL143981  32.982  28.383   6.150
 6658POPC   GL243982  32.923  28.303   6.150
 6658POPC   C1A43983  33.050  28.385   6.450
 6658POPC   D2A43984  33.025  28.352   6.750
 6658POPC   C3A43985  33.001  28.340   7.050
 6658POPC   C4A43986  33.033  28.400   7.350
 6658POPC   C1B43987  32.842  28.274   6.450
 6658POPC   C2B43988  32.798  28.291   6.750
 6658POPC   C3B43989  32.776  28.242   7.050
 6658POPC   C4B43990  32.831  28.269   7.350
 6659POPC   NC343991   9.711  34.561   5.550
 6659POPC   PO443992   9.774  34.580   5.850
 6659POPC   GL143993   9.715  34.559   6.150
 6659POPC   GL243994   9.801  34.679   6.150
 6659POPC   C1A43995   9.770  34.589   6.450
 6659POPC   D2A43996   9.709  34.571   6.750
 6659POPC   C3A43997   9.735  34.588   7.050
 6659POPC   C4A43998   9.721  34.584   7.350
 6659POPC   C1B43999   9.778  34.811   6.450
 6659POPC   C2B44000   9.818  34.782   6.750
 6659POPC   C3B44001   9.802  34.856   7.050
 6659POPC   C4B44002   9.780  34.831   7.350
 6660POPC   NC344003  39.205   1.227   5.550
 6660POPC   PO444004  39.218   1.245   5.850
 6660POPC   GL144005  39.196   1.200   6.150
 6660POPC   GL244006  39.378   1.177   6.150
 6660POPC   C1A44007  39.250   1.211   6.450
 6660POPC   D2A44008  39.194   1.205   6.750
 6660POPC   C3A44009  39.187   1.200   7.050
 6660POPC   C4A44010  39.255   1.232   7.350
 6660POPC   C1B44011  39.436   1.072   6.450
 6660POPC   C2B44012  39.489   1.099   6.750
 6660POPC   C3B44013  39.483   1.057   7.050
 6660POPC   C4B44014  39.499   1.119   7.350
 6661POPC   NC344015   8.964  33.772   5.550
 6661POPC   PO444016   8.962  33.825   5.850
 6661POPC   GL144017   8.985  33.787   6.150
 6661POPC   GL244018   9.108  33.827   6.150
 6661POPC   C1A44019   9.011  33.843   6.450
 6661POPC   D2A44020   9.011  33.756   6.750
 6661POPC   C3A44021   8.968  33.848   7.050
 6661POPC   C4A44022   9.016  33.779   7.350
 6661POPC   C1B44023   9.207  33.925   6.450
 6661POPC   C2B44024   9.176  33.968   6.750
 6661POPC   C3B44025   9.125  33.925   7.050
 6661POPC   C4B44026   9.137  33.980   7.350
 6662POPC   NC344027  25.236  39.200   5.550
 6662POPC   PO444028  25.253  39.191   5.850
 6662POPC   GL144029  25.305  39.217   6.150
 6662POPC   GL244030  25.399  39.286   6.150
 6662POPC   C1A44031  25.313  39.268   6.450
 6662POPC   D2A44032  25.239  39.206   6.750
 6662POPC   C3A44033  25.295  39.217   7.050
 6662POPC   C4A44034  25.272  39.277   7.350
 6662POPC   C1B44035  25.508  39.291   6.450
 6662POPC   C2B44036  25.501  39.276   6.750
 6662POPC   C3B44037  25.491  39.269   7.050
 6662POPC   C4B44038  25.503  39.257   7.350
 6663POPC   NC344039  17.482  15.184   5.550
 6663POPC   PO444040  17.548  15.150   5.850
 6663POPC   GL144041  17.552  15.180   6.150
 6663POPC   GL244042  17.589  15.110   6.150
 6663POPC   C1A44043  17.518  15.187   6.450
 6663POPC   D2A44044  17.556  15.147   6.750
 6663POPC   C3A44045  17.461  15.223   7.050
 6663POPC   C4A44046  17.479  15.184   7.350
 6663POPC   C1B44047  17.765  15.042   6.450
 6663POPC   C2B44048  17.687  15.036   6.750
 6663POPC   C3B44049  17.755  15.094   7.050
 6663POPC   C4B44050  17.771  15.025   7.350
 6664POPC   NC344051  22.141  28.323   5.550
 6664POPC   PO444052  22.155  28.352   5.850
 6664POPC   GL144053  22.129  28.408   6.150
 6664POPC   GL244054  22.040  28.390   6.150
 6664POPC   C1A44055  22.191  28.334   6.450
 6664POPC   D2A44056  22.146  28.419   6.750
 6664POPC   C3A44057  22.145  28.399   7.050
 6664POPC   C4A44058  22.131  28.392   7.350
 6664POPC   C1B44059  21.877  28.320   6.450
 6664POPC   C2B44060  21.914  28.373   6.750
 6664POPC   C3B44061  21.896  28.337   7.050
 6664POPC   C4B44062  21.938  28.359   7.350
 6665POPC   NC344063  13.587  36.868   5.550
 6665POPC   PO444064  13.628  36.868   5.850
 6665POPC   GL144065  13.638  36.951   6.150
 6665POPC   GL244066  13.663  36.781   6.150
 6665POPC   C1A44067  13.608  36.886   6.450
 6665POPC   D2A44068  13.595  36.858   6.750
 6665POPC   C3A44069  13.610  36.883   7.050
 6665POPC   C4A44070  13.628  36.864   7.350
 6665POPC   C1B44071  13.759  36.690   6.450
 6665POPC   C2B44072  13.707  36.686   6.750
 6665POPC   C3B44073  13.722  36.645   7.050
 6665POPC   C4B44074  13.699  36.683   7.350
 6666POPC   NC344075  10.529   7.442   5.550
 6666POPC   PO444076  10.536   7.371   5.850
 6666POPC   GL144077  10.543   7.407   6.150
 6666POPC   GL244078  10.673   7.344   6.150
 6666POPC   C1A44079  10.537   7.413   6.450
 6666POPC   D2A44080  10.562   7.421   6.750
 6666POPC   C3A44081  10.516   7.399   7.050
 6666POPC   C4A44082  10.525   7.410   7.350
 6666POPC   C1B44083  10.782   7.304   6.450
 6666POPC   C2B44084  10.767   7.235   6.750
 6666POPC   C3B44085  10.720   7.311   7.050
 6666POPC   C4B44086  10.774   7.249   7.350
 6667POPC   NC344087  24.526  14.374   5.550
 6667POPC   PO444088  24.523  14.430   5.850
 6667POPC   GL144089  24.533  14.411   6.150
 6667POPC   GL244090  24.431  14.542   6.150
 6667POPC   C1A44091  24.532  14.401   6.450
 6667POPC   D2A44092  24.482  14.398   6.750
 6667POPC   C3A44093  24.525  14.436   7.050
 6667POPC   C4A44094  24.445  14.409   7.350
 6667POPC   C1B44095  24.390  14.624   6.450
 6667POPC   C2B44096  24.410  14.671   6.750
 6667POPC   C3B44097  24.410  14.653   7.050
 6667POPC   C4B44098  24.351  14.578   7.350
 6668POPC   NC344099   0.418  41.517   5.550
 6668POPC   PO444100   0.397  41.540   5.850
 6668POPC   GL144101   0.457  41.539   6.150
 6668POPC   GL244102   0.351  41.591   6.150
 6668POPC   C1A44103   0.475  41.541   6.450
 6668POPC   D2A44104   0.402  41.573   6.750
 6668POPC   C3A44105   0.393  41.565   7.050
 6668POPC   C4A44106   0.475  41.530   7.350
 6668POPC   C1B44107   0.168  41.614   6.450
 6668POPC   C2B44108   0.226  41.654   6.750
 6668POPC   C3B44109   0.204  41.667   7.050
 6668POPC   C4B44110   0.170  41.688   7.350
 6669POPC   NC344111  38.415  18.241   5.550
 6669POPC   PO444112  38.448  18.291   5.850
 6669POPC   GL144113  38.442  18.317   6.150
 6669POPC   GL244114  38.561  18.348   6.150
 6669POPC   C1A44115  38.477  18.289   6.450
 6669POPC   D2A44116  38.485  18.237   6.750
 6669POPC   C3A44117  38.429  18.267   7.050
 6669POPC   C4A44118  38.427  18.268   7.350
 6669POPC   C1B44119  38.700  18.357   6.450
 6669POPC   C2B44120  38.722  18.342   6.750
 6669POPC   C3B44121  38.738  18.334   7.050
 6669POPC   C4B44122  38.686  18.343   7.350
 6670POPC   NC344123  13.599  29.163   5.550
 6670POPC   PO444124  13.599  29.097   5.850
 6670POPC   GL144125  13.634  29.170   6.150
 6670POPC   GL244126  13.657  29.042   6.150
 6670POPC   C1A44127  13.652  29.187   6.450
 6670POPC   D2A44128  13.657  29.108   6.750
 6670POPC   C3A44129  13.625  29.112   7.050
 6670POPC   C4A44130  13.582  29.162   7.350
 6670POPC   C1B44131  13.775  28.943   6.450
 6670POPC   C2B44132  13.758  28.890   6.750
 6670POPC   C3B44133  13.777  28.923   7.050
 6670POPC   C4B44134  13.763  28.919   7.350
 6671POPC   NC344135  15.939  39.989   5.550
 6671POPC   PO444136  15.923  40.034   5.850
 6671POPC   GL144137  15.982  39.975   6.150
 6671POPC   GL244138  15.868  40.008   6.150
 6671POPC   C1A44139  15.949  40.042   6.450
 6671POPC   D2A44140  15.930  40.042   6.750
 6671POPC   C3A44141  15.928  39.986   7.050
 6671POPC   C4A44142  15.952  39.978   7.350
 6671POPC   C1B44143  15.735  40.060   6.450
 6671POPC   C2B44144  15.731  40.074   6.750
 6671POPC   C3B44145  15.665  40.080   7.050
 6671POPC   C4B44146  15.739  40.030   7.350
 6672POPC   NC344147  10.543  26.842   5.550
 6672POPC   PO444148  10.483  26.802   5.850
 6672POPC   GL144149  10.505  26.809   6.150
 6672POPC   GL244150  10.541  26.881   6.150
 6672POPC   C1A44151  10.487  26.795   6.450
 6672POPC   D2A44152  10.502  26.846   6.750
 6672POPC   C3A44153  10.537  26.862   7.050
 6672POPC   C4A44154  10.573  26.791   7.350
 6672POPC   C1B44155  10.660  27.085   6.450
 6672POPC   C2B44156  10.684  27.003   6.750
 6672POPC   C3B44157  10.661  27.065   7.050
 6672POPC   C4B44158  10.658  27.014   7.350
 6673POPC   NC344159  29.886  40.040   5.550
 6673POPC   PO444160  29.930  40.039   5.850
 6673POPC   GL144161  29.892  40.021   6.150
 6673POPC   GL244162  29.830  40.055   6.150
 6673POPC   C1A44163  29.919  40.018   6.450
 6673POPC   D2A44164  29.955  39.983   6.750
 6673POPC   C3A44165  29.927  39.987   7.050
 6673POPC   C4A44166  29.947  39.964   7.350
 6673POPC   C1B44167  29.762  40.194   6.450
 6673POPC   C2B44168  29.712  40.214   6.750
 6673POPC   C3B44169  29.730  40.148   7.050
 6673POPC   C4B44170  29.770  40.174   7.350
 6674POPC   NC344171  10.478  39.251   5.550
 6674POPC   PO444172  10.477  39.219   5.850
 6674POPC   GL144173  10.560  39.194   6.150
 6674POPC   GL244174  10.609  39.194   6.150
 6674POPC   C1A44175  10.545  39.206   6.450
 6674POPC   D2A44176  10.493  39.204   6.750
 6674POPC   C3A44177  10.506  39.232   7.050
 6674POPC   C4A44178  10.569  39.194   7.350
 6674POPC   C1B44179  10.786  39.157   6.450
 6674POPC   C2B44180  10.794  39.156   6.750
 6674POPC   C3B44181  10.723  39.155   7.050
 6674POPC   C4B44182  10.789  39.189   7.350
 6675POPC   NC344183   9.750  12.879   5.550
 6675POPC   PO444184   9.727  12.815   5.850
 6675POPC   GL144185   9.797  12.871   6.150
 6675POPC   GL244186   9.846  12.993   6.150
 6675POPC   C1A44187   9.788  12.866   6.450
 6675POPC   D2A44188   9.703  12.873   6.750
 6675POPC   C3A44189   9.709  12.823   7.050
 6675POPC   C4A44190   9.778  12.826   7.350
 6675POPC   C1B44191   9.905  13.040   6.450
 6675POPC   C2B44192   9.967  13.002   6.750
 6675POPC   C3B44193   9.961  13.064   7.050
 6675POPC   C4B44194   9.893  13.048   7.350
 6676POPC   NC344195  30.743  20.652   5.550
 6676POPC   PO444196  30.668  20.604   5.850
 6676POPC   GL144197  30.649  20.641   6.150
 6676POPC   GL244198  30.853  20.653   6.150
 6676POPC   C1A44199  30.684  20.619   6.450
 6676POPC   D2A44200  30.663  20.571   6.750
 6676POPC   C3A44201  30.697  20.587   7.050
 6676POPC   C4A44202  30.694  20.582   7.350
 6676POPC   C1B44203  30.951  20.651   6.450
 6676POPC   C2B44204  30.902  20.663   6.750
 6676POPC   C3B44205  30.983  20.668   7.050
 6676POPC   C4B44206  30.949  20.584   7.350
 6677POPC   NC344207  12.829  15.164   5.550
 6677POPC   PO444208  12.843  15.223   5.850
 6677POPC   GL144209  12.848  15.202   6.150
 6677POPC   GL244210  12.839  15.347   6.150
 6677POPC   C1A44211  12.864  15.213   6.450
 6677POPC   D2A44212  12.894  15.184   6.750
 6677POPC   C3A44213  12.876  15.226   7.050
 6677POPC   C4A44214  12.831  15.205   7.350
 6677POPC   C1B44215  12.870  15.411   6.450
 6677POPC   C2B44216  12.855  15.429   6.750
 6677POPC   C3B44217  12.917  15.428   7.050
 6677POPC   C4B44218  12.883  15.456   7.350
 6678POPC   NC344219   9.770  42.355   5.550
 6678POPC   PO444220   9.728  42.350   5.850
 6678POPC   GL144221   9.731  42.339   6.150
 6678POPC   GL244222   9.609  42.315   6.150
 6678POPC   C1A44223   9.787  42.366   6.450
 6678POPC   D2A44224   9.766  42.355   6.750
 6678POPC   C3A44225   9.760  42.303   7.050
 6678POPC   C4A44226   9.712  42.325   7.350
 6678POPC   C1B44227   9.461  42.329   6.450
 6678POPC   C2B44228   9.490  42.390   6.750
 6678POPC   C3B44229   9.455  42.310   7.050
 6678POPC   C4B44230   9.489  42.384   7.350
 6679POPC   NC344231   5.060  33.026   5.550
 6679POPC   PO444232   5.059  33.015   5.850
 6679POPC   GL144233   5.138  32.997   6.150
 6679POPC   GL244234   5.173  32.860   6.150
 6679POPC   C1A44235   5.101  33.024   6.450
 6679POPC   D2A44236   5.062  32.977   6.750
 6679POPC   C3A44237   5.072  33.041   7.050
 6679POPC   C4A44238   5.123  33.038   7.350
 6679POPC   C1B44239   5.234  32.833   6.450
 6679POPC   C2B44240   5.192  32.775   6.750
 6679POPC   C3B44241   5.159  32.825   7.050
 6679POPC   C4B44242   5.215  32.814   7.350
 6680POPC   NC344243  34.612   5.910   5.550
 6680POPC   PO444244  34.582   5.888   5.850
 6680POPC   GL144245  34.618   5.849   6.150
 6680POPC   GL244246  34.642   5.883   6.150
 6680POPC   C1A44247  34.550   5.855   6.450
 6680POPC   D2A44248  34.545   5.866   6.750
 6680POPC   C3A44249  34.593   5.905   7.050
 6680POPC   C4A44250  34.561   5.825   7.350
 6680POPC   C1B44251  34.789   5.952   6.450
 6680POPC   C2B44252  34.818   5.974   6.750
 6680POPC   C3B44253  34.804   5.974   7.050
 6680POPC   C4B44254  34.822   6.024   7.350
 6681POPC   NC344255  29.142  24.444   5.550
 6681POPC   PO444256  29.116  24.465   5.850
 6681POPC   GL144257  29.104  24.459   6.150
 6681POPC   GL244258  29.251  24.641   6.150
 6681POPC   C1A44259  29.095  24.445   6.450
 6681POPC   D2A44260  29.127  24.527   6.750
 6681POPC   C3A44261  29.102  24.468   7.050
 6681POPC   C4A44262  29.108  24.475   7.350
 6681POPC   C1B44263  29.255  24.681   6.450
 6681POPC   C2B44264  29.292  24.669   6.750
 6681POPC   C3B44265  29.305  24.750   7.050
 6681POPC   C4B44266  29.222  24.696   7.350
 6682POPC   NC344267  10.524  23.699   5.550
 6682POPC   PO444268  10.498  23.678   5.850
 6682POPC   GL144269  10.484  23.742   6.150
 6682POPC   GL244270  10.533  23.869   6.150
 6682POPC   C1A44271  10.518  23.717   6.450
 6682POPC   D2A44272  10.529  23.683   6.750
 6682POPC   C3A44273  10.537  23.733   7.050
 6682POPC   C4A44274  10.546  23.729   7.350
 6682POPC   C1B44275  10.466  23.976   6.450
 6682POPC   C2B44276  10.485  23.970   6.750
 6682POPC   C3B44277  10.488  23.955   7.050
 6682POPC   C4B44278  10.485  23.918   7.350
 6683POPC   NC344279  27.621  29.938   5.550
 6683POPC   PO444280  27.584  29.921   5.850
 6683POPC   GL144281  27.604  29.920   6.150
 6683POPC   GL244282  27.446  29.865   6.150
 6683POPC   C1A44283  27.588  29.935   6.450
 6683POPC   D2A44284  27.546  29.963   6.750
 6683POPC   C3A44285  27.591  29.957   7.050
 6683POPC   C4A44286  27.643  29.921   7.350
 6683POPC   C1B44287  27.389  29.830   6.450
 6683POPC   C2B44288  27.396  29.802   6.750
 6683POPC   C3B44289  27.392  29.793   7.050
 6683POPC   C4B44290  27.349  29.762   7.350
 6684POPC   NC344291  18.256  28.322   5.550
 6684POPC   PO444292  18.246  28.412   5.850
 6684POPC   GL144293  18.331  28.374   6.150
 6684POPC   GL244294  18.308  28.510   6.150
 6684POPC   C1A44295  18.283  28.333   6.450
 6684POPC   D2A44296  18.304  28.374   6.750
 6684POPC   C3A44297  18.311  28.347   7.050
 6684POPC   C4A44298  18.255  28.410   7.350
 6684POPC   C1B44299  18.351  28.647   6.450
 6684POPC   C2B44300  18.315  28.589   6.750
 6684POPC   C3B44301  18.296  28.621   7.050
 6684POPC   C4B44302  18.304  28.587   7.350
 6685POPC   NC344303  27.545  38.494   5.550
 6685POPC   PO444304  27.598  38.498   5.850
 6685POPC   GL144305  27.613  38.497   6.150
 6685POPC   GL244306  27.620  38.356   6.150
 6685POPC   C1A44307  27.602  38.447   6.450
 6685POPC   D2A44308  27.563  38.472   6.750
 6685POPC   C3A44309  27.546  38.459   7.050
 6685POPC   C4A44310  27.580  38.505   7.350
 6685POPC   C1B44311  27.595  38.163   6.450
 6685POPC   C2B44312  27.613  38.214   6.750
 6685POPC   C3B44313  27.627  38.228   7.050
 6685POPC   C4B44314  27.554  38.199   7.350
 6686POPC   NC344315   7.403  38.439   5.550
 6686POPC   PO444316   7.431  38.505   5.850
 6686POPC   GL144317   7.407  38.407   6.150
 6686POPC   GL244318   7.374  38.336   6.150
 6686POPC   C1A44319   7.397  38.408   6.450
 6686POPC   D2A44320   7.458  38.486   6.750
 6686POPC   C3A44321   7.414  38.416   7.050
 6686POPC   C4A44322   7.411  38.495   7.350
 6686POPC   C1B44323   7.201  38.280   6.450
 6686POPC   C2B44324   7.215  38.232   6.750
 6686POPC   C3B44325   7.273  38.279   7.050
 6686POPC   C4B44326   7.195  38.323   7.350
 6687POPC   NC344327  17.526  43.110   5.550
 6687POPC   PO444328  17.505  43.064   5.850
 6687POPC   GL144329  17.523  43.070   6.150
 6687POPC   GL244330  17.596  43.128   6.150
 6687POPC   C1A44331  17.551  43.158   6.450
 6687POPC   D2A44332  17.515  43.062   6.750
 6687POPC   C3A44333  17.540  43.110   7.050
 6687POPC   C4A44334  17.537  43.065   7.350
 6687POPC   C1B44335  17.714  43.215   6.450
 6687POPC   C2B44336  17.738  43.250   6.750
 6687POPC   C3B44337  17.749  43.234   7.050
 6687POPC   C4B44338  17.725  43.254   7.350
 6688POPC   NC344339  39.215  17.512   5.550
 6688POPC   PO444340  39.245  17.540   5.850
 6688POPC   GL144341  39.245  17.496   6.150
 6688POPC   GL244342  39.112  17.517   6.150
 6688POPC   C1A44343  39.208  17.554   6.450
 6688POPC   D2A44344  39.189  17.537   6.750
 6688POPC   C3A44345  39.264  17.544   7.050
 6688POPC   C4A44346  39.270  17.505   7.350
 6688POPC   C1B44347  38.963  17.482   6.450
 6688POPC   C2B44348  38.950  17.481   6.750
 6688POPC   C3B44349  38.953  17.432   7.050
 6688POPC   C4B44350  39.005  17.403   7.350
 6689POPC   NC344351  17.491  10.491   5.550
 6689POPC   PO444352  17.535  10.497   5.850
 6689POPC   GL144353  17.510  10.563   6.150
 6689POPC   GL244354  17.632  10.642   6.150
 6689POPC   C1A44355  17.520  10.513   6.450
 6689POPC   D2A44356  17.493  10.565   6.750
 6689POPC   C3A44357  17.517  10.490   7.050
 6689POPC   C4A44358  17.503  10.527   7.350
 6689POPC   C1B44359  17.653  10.700   6.450
 6689POPC   C2B44360  17.640  10.715   6.750
 6689POPC   C3B44361  17.682  10.648   7.050
 6689POPC   C4B44362  17.703  10.680   7.350
 6690POPC   NC344363  12.119  31.467   5.550
 6690POPC   PO444364  12.035  31.491   5.850
 6690POPC   GL144365  12.066  31.511   6.150
 6690POPC   GL244366  12.190  31.444   6.150
 6690POPC   C1A44367  12.026  31.476   6.450
 6690POPC   D2A44368  12.045  31.428   6.750
 6690POPC   C3A44369  12.051  31.484   7.050
 6690POPC   C4A44370  12.027  31.433   7.350
 6690POPC   C1B44371  12.313  31.453   6.450
 6690POPC   C2B44372  12.373  31.422   6.750
 6690POPC   C3B44373  12.337  31.409   7.050
 6690POPC   C4B44374  12.285  31.416   7.350
 6691POPC   NC344375   9.012  31.497   5.550
 6691POPC   PO444376   8.949  31.522   5.850
 6691POPC   GL144377   9.005  31.464   6.150
 6691POPC   GL244378   8.969  31.631   6.150
 6691POPC   C1A44379   8.945  31.433   6.450
 6691POPC   D2A44380   8.947  31.438   6.750
 6691POPC   C3A44381   8.986  31.458   7.050
 6691POPC   C4A44382   8.926  31.425   7.350
 6691POPC   C1B44383   8.953  31.685   6.450
 6691POPC   C2B44384   9.008  31.707   6.750
 6691POPC   C3B44385   9.022  31.736   7.050
 6691POPC   C4B44386   8.960  31.759   7.350
 6692POPC   NC344387  21.373   1.954   5.550
 6692POPC   PO444388  21.435   2.027   5.850
 6692POPC   GL144389  21.353   1.996   6.150
 6692POPC   GL244390  21.235   1.953   6.150
 6692POPC   C1A44391  21.350   1.952   6.450
 6692POPC   D2A44392  21.345   2.009   6.750
 6692POPC   C3A44393  21.384   2.020   7.050
 6692POPC   C4A44394  21.365   1.940   7.350
 6692POPC   C1B44395  21.168   2.021   6.450
 6692POPC   C2B44396  21.163   1.988   6.750
 6692POPC   C3B44397  21.122   1.936   7.050
 6692POPC   C4B44398  21.182   1.937   7.350
 6693POPC   NC344399  34.578   5.088   5.550
 6693POPC   PO444400  34.557   5.137   5.850
 6693POPC   GL144401  34.596   5.048   6.150
 6693POPC   GL244402  34.582   5.186   6.150
 6693POPC   C1A44403  34.581   5.104   6.450
 6693POPC   D2A44404  34.579   5.083   6.750
 6693POPC   C3A44405  34.529   5.065   7.050
 6693POPC   C4A44406  34.542   5.044   7.350
 6693POPC   C1B44407  34.625   5.366   6.450
 6693POPC   C2B44408  34.621   5.367   6.750
 6693POPC   C3B44409  34.636   5.386   7.050
 6693POPC   C4B44410  34.636   5.389   7.350
 6694POPC   NC344411  44.690  34.619   5.550
 6694POPC   PO444412  44.672  34.550   5.850
 6694POPC   GL144413  44.702  34.534   6.150
 6694POPC   GL244414  44.686  34.709   6.150
 6694POPC   C1A44415  44.618  34.616   6.450
 6694POPC   D2A44416  44.673  34.562   6.750
 6694POPC   C3A44417  44.663  34.609   7.050
 6694POPC   C4A44418  44.680  34.613   7.350
 6694POPC   C1B44419  44.747  34.863   6.450
 6694POPC   C2B44420  44.711  34.841   6.750
 6694POPC   C3B44421  44.709  34.852   7.050
 6694POPC   C4B44422  44.715  34.784   7.350
 6695POPC   NC344423  33.073   3.540   5.550
 6695POPC   PO444424  33.071   3.531   5.850
 6695POPC   GL144425  32.998   3.514   6.150
 6695POPC   GL244426  32.929   3.664   6.150
 6695POPC   C1A44427  33.043   3.513   6.450
 6695POPC   D2A44428  33.010   3.528   6.750
 6695POPC   C3A44429  33.035   3.500   7.050
 6695POPC   C4A44430  33.038   3.534   7.350
 6695POPC   C1B44431  32.882   3.747   6.450
 6695POPC   C2B44432  32.895   3.726   6.750
 6695POPC   C3B44433  32.881   3.796   7.050
 6695POPC   C4B44434  32.938   3.716   7.350
 6696POPC   NC344435   3.493   5.082   5.550
 6696POPC   PO444436   3.589   5.080   5.850
 6696POPC   GL144437   3.503   5.135   6.150
 6696POPC   GL244438   3.631   5.040   6.150
 6696POPC   C1A44439   3.589   5.083   6.450
 6696POPC   D2A44440   3.501   5.054   6.750
 6696POPC   C3A44441   3.527   5.126   7.050
 6696POPC   C4A44442   3.552   5.119   7.350
 6696POPC   C1B44443   3.742   4.899   6.450
 6696POPC   C2B44444   3.734   4.977   6.750
 6696POPC   C3B44445   3.742   4.990   7.050
 6696POPC   C4B44446   3.749   4.953   7.350
 6697POPC   NC344447  30.670  37.631   5.550
 6697POPC   PO444448  30.698  37.698   5.850
 6697POPC   GL144449  30.672  37.668   6.150
 6697POPC   GL244450  30.609  37.612   6.150
 6697POPC   C1A44451  30.678  37.667   6.450
 6697POPC   D2A44452  30.722  37.641   6.750
 6697POPC   C3A44453  30.654  37.697   7.050
 6697POPC   C4A44454  30.735  37.678   7.350
 6697POPC   C1B44455  30.589  37.518   6.450
 6697POPC   C2B44456  30.576  37.486   6.750
 6697POPC   C3B44457  30.590  37.516   7.050
 6697POPC   C4B44458  30.580  37.478   7.350
 6698POPC   NC344459  29.136  39.245   5.550
 6698POPC   PO444460  29.178  39.236   5.850
 6698POPC   GL144461  29.175  39.264   6.150
 6698POPC   GL244462  29.051  39.267   6.150
 6698POPC   C1A44463  29.143  39.228   6.450
 6698POPC   D2A44464  29.177  39.233   6.750
 6698POPC   C3A44465  29.133  39.244   7.050
 6698POPC   C4A44466  29.158  39.212   7.350
 6698POPC   C1B44467  28.906  39.225   6.450
 6698POPC   C2B44468  28.933  39.312   6.750
 6698POPC   C3B44469  28.871  39.309   7.050
 6698POPC   C4B44470  28.857  39.231   7.350
 6699POPC   NC344471  18.308  16.754   5.550
 6699POPC   PO444472  18.291  16.683   5.850
 6699POPC   GL144473  18.284  16.775   6.150
 6699POPC   GL244474  18.234  16.851   6.150
 6699POPC   C1A44475  18.255  16.724   6.450
 6699POPC   D2A44476  18.287  16.742   6.750
 6699POPC   C3A44477  18.272  16.720   7.050
 6699POPC   C4A44478  18.318  16.713   7.350
 6699POPC   C1B44479  18.169  16.951   6.450
 6699POPC   C2B44480  18.181  16.941   6.750
 6699POPC   C3B44481  18.123  16.946   7.050
 6699POPC   C4B44482  18.113  16.949   7.350
 6700POPC   NC344483  31.427  25.308   5.550
 6700POPC   PO444484  31.495  25.252   5.850
 6700POPC   GL144485  31.502  25.231   6.150
 6700POPC   GL244486  31.350  25.229   6.150
 6700POPC   C1A44487  31.431  25.280   6.450
 6700POPC   D2A44488  31.507  25.278   6.750
 6700POPC   C3A44489  31.429  25.238   7.050
 6700POPC   C4A44490  31.457  25.313   7.350
 6700POPC   C1B44491  31.212  25.299   6.450
 6700POPC   C2B44492  31.253  25.304   6.750
 6700POPC   C3B44493  31.256  25.301   7.050
 6700POPC   C4B44494  31.182  25.317   7.350
 6701POPC   NC344495   9.754   0.439   5.550
 6701POPC   PO444496   9.791   0.448   5.850
 6701POPC   GL144497   9.702   0.428   6.150
 6701POPC   GL244498   9.672   0.412   6.150
 6701POPC   C1A44499   9.789   0.477   6.450
 6701POPC   D2A44500   9.715   0.460   6.750
 6701POPC   C3A44501   9.736   0.435   7.050
 6701POPC   C4A44502   9.705   0.464   7.350
 6701POPC   C1B44503   9.478   0.425   6.450
 6701POPC   C2B44504   9.466   0.423   6.750
 6701POPC   C3B44505   9.481   0.440   7.050
 6701POPC   C4B44506   9.487   0.421   7.350
 6702POPC   NC344507  36.893  31.516   5.550
 6702POPC   PO444508  36.920  31.481   5.850
 6702POPC   GL144509  36.931  31.491   6.150
 6702POPC   GL244510  36.802  31.383   6.150
 6702POPC   C1A44511  36.865  31.483   6.450
 6702POPC   D2A44512  36.894  31.471   6.750
 6702POPC   C3A44513  36.937  31.515   7.050
 6702POPC   C4A44514  36.865  31.517   7.350
 6702POPC   C1B44515  36.710  31.315   6.450
 6702POPC   C2B44516  36.690  31.277   6.750
 6702POPC   C3B44517  36.733  31.327   7.050
 6702POPC   C4B44518  36.760  31.289   7.350
 6703POPC   NC344519  28.355  25.263   5.550
 6703POPC   PO444520  28.353  25.251   5.850
 6703POPC   GL144521  28.388  25.278   6.150
 6703POPC   GL244522  28.395  25.349   6.150
 6703POPC   C1A44523  28.365  25.269   6.450
 6703POPC   D2A44524  28.325  25.288   6.750
 6703POPC   C3A44525  28.366  25.248   7.050
 6703POPC   C4A44526  28.378  25.265   7.350
 6703POPC   C1B44527  28.369  25.467   6.450
 6703POPC   C2B44528  28.421  25.465   6.750
 6703POPC   C3B44529  28.421  25.503   7.050
 6703POPC   C4B44530  28.424  25.511   7.350
 6704POPC   NC344531  29.115  36.171   5.550
 6704POPC   PO444532  29.159  36.135   5.850
 6704POPC   GL144533  29.130  36.171   6.150
 6704POPC   GL244534  29.247  36.165   6.150
 6704POPC   C1A44535  29.162  36.103   6.450
 6704POPC   D2A44536  29.114  36.159   6.750
 6704POPC   C3A44537  29.186  36.145   7.050
 6704POPC   C4A44538  29.114  36.151   7.350
 6704POPC   C1B44539  29.426  36.074   6.450
 6704POPC   C2B44540  29.424  36.143   6.750
 6704POPC   C3B44541  29.390  36.072   7.050
 6704POPC   C4B44542  29.411  36.078   7.350
 6705POPC   NC344543  19.863   5.094   5.550
 6705POPC   PO444544  19.851   5.045   5.850
 6705POPC   GL144545  19.850   5.141   6.150
 6705POPC   GL244546  19.766   4.929   6.150
 6705POPC   C1A44547  19.836   5.069   6.450
 6705POPC   D2A44548  19.841   5.078   6.750
 6705POPC   C3A44549  19.878   5.076   7.050
 6705POPC   C4A44550  19.812   5.072   7.350
 6705POPC   C1B44551  19.711   4.886   6.450
 6705POPC   C2B44552  19.694   4.842   6.750
 6705POPC   C3B44553  19.754   4.837   7.050
 6705POPC   C4B44554  19.731   4.838   7.350
 6706POPC   NC344555  10.516   1.960   5.550
 6706POPC   PO444556  10.559   1.971   5.850
 6706POPC   GL144557  10.569   1.950   6.150
 6706POPC   GL244558  10.486   2.149   6.150
 6706POPC   C1A44559  10.533   1.976   6.450
 6706POPC   D2A44560  10.476   2.017   6.750
 6706POPC   C3A44561  10.544   1.945   7.050
 6706POPC   C4A44562  10.524   1.975   7.350
 6706POPC   C1B44563  10.458   2.184   6.450
 6706POPC   C2B44564  10.426   2.183   6.750
 6706POPC   C3B44565  10.419   2.191   7.050
 6706POPC   C4B44566  10.483   2.198   7.350
 6707POPC   NC344567   3.506  10.512   5.550
 6707POPC   PO444568   3.580  10.570   5.850
 6707POPC   GL144569   3.553  10.544   6.150
 6707POPC   GL244570   3.422  10.461   6.150
 6707POPC   C1A44571   3.580  10.530   6.450
 6707POPC   D2A44572   3.501  10.504   6.750
 6707POPC   C3A44573   3.562  10.524   7.050
 6707POPC   C4A44574   3.496  10.509   7.350
 6707POPC   C1B44575   3.358  10.444   6.450
 6707POPC   C2B44576   3.273  10.405   6.750
 6707POPC   C3B44577   3.285  10.365   7.050
 6707POPC   C4B44578   3.323  10.368   7.350
 6708POPC   NC344579  33.009  12.821   5.550
 6708POPC   PO444580  32.985  12.885   5.850
 6708POPC   GL144581  33.055  12.880   6.150
 6708POPC   GL244582  33.049  12.764   6.150
 6708POPC   C1A44583  33.048  12.876   6.450
 6708POPC   D2A44584  33.038  12.829   6.750
 6708POPC   C3A44585  33.036  12.818   7.050
 6708POPC   C4A44586  33.043  12.854   7.350
 6708POPC   C1B44587  33.043  12.585   6.450
 6708POPC   C2B44588  33.015  12.639   6.750
 6708POPC   C3B44589  33.073  12.575   7.050
 6708POPC   C4B44590  33.026  12.611   7.350
 6709POPC   NC344591  29.915  33.758   5.550
 6709POPC   PO444592  29.897  33.786   5.850
 6709POPC   GL144593  29.886  33.843   6.150
 6709POPC   GL244594  29.867  33.642   6.150
 6709POPC   C1A44595  29.922  33.818   6.450
 6709POPC   D2A44596  29.904  33.830   6.750
 6709POPC   C3A44597  29.968  33.811   7.050
 6709POPC   C4A44598  29.912  33.828   7.350
 6709POPC   C1B44599  29.874  33.541   6.450
 6709POPC   C2B44600  29.853  33.555   6.750
 6709POPC   C3B44601  29.888  33.516   7.050
 6709POPC   C4B44602  29.904  33.538   7.350
 6710POPC   NC344603  23.678  20.564   5.550
 6710POPC   PO444604  23.719  20.610   5.850
 6710POPC   GL144605  23.722  20.628   6.150
 6710POPC   GL244606  23.875  20.618   6.150
 6710POPC   C1A44607  23.679  20.628   6.450
 6710POPC   D2A44608  23.679  20.607   6.750
 6710POPC   C3A44609  23.713  20.649   7.050
 6710POPC   C4A44610  23.685  20.588   7.350
 6710POPC   C1B44611  23.977  20.598   6.450
 6710POPC   C2B44612  23.931  20.623   6.750
 6710POPC   C3B44613  23.976  20.573   7.050
 6710POPC   C4B44614  23.928  20.607   7.350
 6711POPC   NC344615   5.880  12.048   5.550
 6711POPC   PO444616   5.891  12.073   5.850
 6711POPC   GL144617   5.856  12.066   6.150
 6711POPC   GL244618   5.849  12.246   6.150
 6711POPC   C1A44619   5.840  12.094   6.450
 6711POPC   D2A44620   5.851  12.117   6.750
 6711POPC   C3A44621   5.831  12.064   7.050
 6711POPC   C4A44622   5.846  12.063   7.350
 6711POPC   C1B44623   5.837  12.275   6.450
 6711POPC   C2B44624   5.868  12.371   6.750
 6711POPC   C3B44625   5.843  12.315   7.050
 6711POPC   C4B44626   5.796  12.287   7.350
 6712POPC   NC344627  26.771   0.406   5.550
 6712POPC   PO444628  26.785   0.422   5.850
 6712POPC   GL144629  26.796   0.389   6.150
 6712POPC   GL244630  26.846   0.577   6.150
 6712POPC   C1A44631  26.798   0.461   6.450
 6712POPC   D2A44632  26.817   0.424   6.750
 6712POPC   C3A44633  26.791   0.432   7.050
 6712POPC   C4A44634  26.830   0.415   7.350
 6712POPC   C1B44635  26.830   0.642   6.450
 6712POPC   C2B44636  26.887   0.703   6.750
 6712POPC   C3B44637  26.811   0.694   7.050
 6712POPC   C4B44638  26.806   0.702   7.350
 6713POPC   NC344639   4.357  44.630   5.550
 6713POPC   PO444640   4.361  44.674   5.850
 6713POPC   GL144641   4.307  44.685   6.150
 6713POPC   GL244642   4.225  44.650   6.150
 6713POPC   C1A44643   4.304  44.655   6.450
 6713POPC   D2A44644   4.306  44.654   6.750
 6713POPC   C3A44645   4.341  44.663   7.050
 6713POPC   C4A44646   4.336  44.627   7.350
 6713POPC   C1B44647   4.023  44.694   6.450
 6713POPC   C2B44648   4.114  44.664   6.750
 6713POPC   C3B44649   4.033  44.675   7.050
 6713POPC   C4B44650   4.098  44.714   7.350
 6714POPC   NC344651  37.660  15.164   5.550
 6714POPC   PO444652  37.643  15.191   5.850
 6714POPC   GL144653  37.684  15.220   6.150
 6714POPC   GL244654  37.628  15.267   6.150
 6714POPC   C1A44655  37.672  15.149   6.450
 6714POPC   D2A44656  37.668  15.154   6.750
 6714POPC   C3A44657  37.647  15.215   7.050
 6714POPC   C4A44658  37.711  15.141   7.350
 6714POPC   C1B44659  37.553  15.351   6.450
 6714POPC   C2B44660  37.484  15.359   6.750
 6714POPC   C3B44661  37.501  15.403   7.050
 6714POPC   C4B44662  37.552  15.393   7.350
 6715POPC   NC344663  29.876  34.570   5.550
 6715POPC   PO444664  29.891  34.556   5.850
 6715POPC   GL144665  29.969  34.556   6.150
 6715POPC   GL244666  29.890  34.425   6.150
 6715POPC   C1A44667  29.942  34.593   6.450
 6715POPC   D2A44668  29.885  34.572   6.750
 6715POPC   C3A44669  29.878  34.624   7.050
 6715POPC   C4A44670  29.938  34.538   7.350
 6715POPC   C1B44671  29.982  34.278   6.450
 6715POPC   C2B44672  29.974  34.339   6.750
 6715POPC   C3B44673  29.946  34.291   7.050
 6715POPC   C4B44674  29.920  34.366   7.350
 6716POPC   NC344675  32.292  27.564   5.550
 6716POPC   PO444676  32.255  27.545   5.850
 6716POPC   GL144677  32.206  27.625   6.150
 6716POPC   GL244678  32.389  27.498   6.150
 6716POPC   C1A44679  32.243  27.635   6.450
 6716POPC   D2A44680  32.202  27.628   6.750
 6716POPC   C3A44681  32.273  27.546   7.050
 6716POPC   C4A44682  32.265  27.597   7.350
 6716POPC   C1B44683  32.484  27.419   6.450
 6716POPC   C2B44684  32.477  27.429   6.750
 6716POPC   C3B44685  32.489  27.430   7.050
 6716POPC   C4B44686  32.479  27.417   7.350
 6717POPC   NC344687  33.043   7.375   5.550
 6717POPC   PO444688  33.031   7.455   5.850
 6717POPC   GL144689  33.035   7.461   6.150
 6717POPC   GL244690  33.048   7.533   6.150
 6717POPC   C1A44691  33.028   7.450   6.450
 6717POPC   D2A44692  32.998   7.428   6.750
 6717POPC   C3A44693  33.029   7.413   7.050
 6717POPC   C4A44694  33.010   7.424   7.350
 6717POPC   C1B44695  33.152   7.689   6.450
 6717POPC   C2B44696  33.176   7.667   6.750
 6717POPC   C3B44697  33.129   7.687   7.050
 6717POPC   C4B44698  33.138   7.620   7.350
 6718POPC   NC344699  21.427  17.522   5.550
 6718POPC   PO444700  21.435  17.534   5.850
 6718POPC   GL144701  21.375  17.468   6.150
 6718POPC   GL244702  21.315  17.409   6.150
 6718POPC   C1A44703  21.384  17.511   6.450
 6718POPC   D2A44704  21.425  17.513   6.750
 6718POPC   C3A44705  21.360  17.552   7.050
 6718POPC   C4A44706  21.345  17.548   7.350
 6718POPC   C1B44707  21.223  17.323   6.450
 6718POPC   C2B44708  21.232  17.329   6.750
 6718POPC   C3B44709  21.169  17.363   7.050
 6718POPC   C4B44710  21.188  17.372   7.350
 6719POPC   NC344711  40.829  36.924   5.550
 6719POPC   PO444712  40.745  36.950   5.850
 6719POPC   GL144713  40.744  36.863   6.150
 6719POPC   GL244714  40.701  36.952   6.150
 6719POPC   C1A44715  40.831  36.865   6.450
 6719POPC   D2A44716  40.804  36.941   6.750
 6719POPC   C3A44717  40.824  36.909   7.050
 6719POPC   C4A44718  40.765  36.944   7.350
 6719POPC   C1B44719  40.569  36.973   6.450
 6719POPC   C2B44720  40.571  36.897   6.750
 6719POPC   C3B44721  40.569  36.889   7.050
 6719POPC   C4B44722  40.495  36.974   7.350
 6720POPC   NC344723  42.335  43.141   5.550
 6720POPC   PO444724  42.318  43.110   5.850
 6720POPC   GL144725  42.346  43.068   6.150
 6720POPC   GL244726  42.279  42.984   6.150
 6720POPC   C1A44727  42.327  43.094   6.450
 6720POPC   D2A44728  42.329  43.092   6.750
 6720POPC   C3A44729  42.317  43.092   7.050
 6720POPC   C4A44730  42.377  43.089   7.350
 6720POPC   C1B44731  42.324  42.850   6.450
 6720POPC   C2B44732  42.273  42.881   6.750
 6720POPC   C3B44733  42.260  42.887   7.050
 6720POPC   C4B44734  42.281  42.873   7.350
 6721POPC   NC344735  30.657  38.423   5.550
 6721POPC   PO444736  30.680  38.490   5.850
 6721POPC   GL144737  30.686  38.490   6.150
 6721POPC   GL244738  30.616  38.554   6.150
 6721POPC   C1A44739  30.664  38.480   6.450
 6721POPC   D2A44740  30.698  38.487   6.750
 6721POPC   C3A44741  30.664  38.424   7.050
 6721POPC   C4A44742  30.665  38.466   7.350
 6721POPC   C1B44743  30.499  38.624   6.450
 6721POPC   C2B44744  30.471  38.620   6.750
 6721POPC   C3B44745  30.457  38.541   7.050
 6721POPC   C4B44746  30.454  38.617   7.350
 6722POPC   NC344747   5.827  25.995   5.550
 6722POPC   PO444748   5.882  26.058   5.850
 6722POPC   GL144749   5.859  26.078   6.150
 6722POPC   GL244750   5.858  26.136   6.150
 6722POPC   C1A44751   5.883  26.043   6.450
 6722POPC   D2A44752   5.902  26.088   6.750
 6722POPC   C3A44753   5.848  26.049   7.050
 6722POPC   C4A44754   5.820  26.027   7.350
 6722POPC   C1B44755   5.969  26.247   6.450
 6722POPC   C2B44756   5.880  26.315   6.750
 6722POPC   C3B44757   5.944  26.249   7.050
 6722POPC   C4B44758   5.962  26.272   7.350
 6723POPC   NC344759  22.945  34.596   5.550
 6723POPC   PO444760  22.910  34.557   5.850
 6723POPC   GL144761  22.962  34.528   6.150
 6723POPC   GL244762  22.974  34.665   6.150
 6723POPC   C1A44763  22.986  34.602   6.450
 6723POPC   D2A44764  22.938  34.604   6.750
 6723POPC   C3A44765  22.936  34.541   7.050
 6723POPC   C4A44766  22.915  34.592   7.350
 6723POPC   C1B44767  22.999  34.800   6.450
 6723POPC   C2B44768  22.942  34.808   6.750
 6723POPC   C3B44769  22.916  34.819   7.050
 6723POPC   C4B44770  22.981  34.789   7.350
 6724POPC   NC344771  15.963  15.154   5.550
 6724POPC   PO444772  15.981  15.213   5.850
 6724POPC   GL144773  15.908  15.131   6.150
 6724POPC   GL244774  15.922  15.055   6.150
 6724POPC   C1A44775  15.992  15.176   6.450
 6724POPC   D2A44776  15.973  15.160   6.750
 6724POPC   C3A44777  15.972  15.191   7.050
 6724POPC   C4A44778  15.993  15.148   7.350
 6724POPC   C1B44779  15.938  14.949   6.450
 6724POPC   C2B44780  15.913  14.887   6.750
 6724POPC   C3B44781  15.979  14.954   7.050
 6724POPC   C4B44782  15.889  14.978   7.350
 6725POPC   NC344783  13.624  23.717   5.550
 6725POPC   PO444784  13.620  23.679   5.850
 6725POPC   GL144785  13.585  23.671   6.150
 6725POPC   GL244786  13.523  23.741   6.150
 6725POPC   C1A44787  13.609  23.742   6.450
 6725POPC   D2A44788  13.581  23.665   6.750
 6725POPC   C3A44789  13.642  23.701   7.050
 6725POPC   C4A44790  13.607  23.695   7.350
 6725POPC   C1B44791  13.436  23.828   6.450
 6725POPC   C2B44792  13.459  23.800   6.750
 6725POPC   C3B44793  13.418  23.834   7.050
 6725POPC   C4B44794  13.371  23.830   7.350
 6726POPC   NC344795  15.194  36.919   5.550
 6726POPC   PO444796  15.228  36.905   5.850
 6726POPC   GL144797  15.198  36.916   6.150
 6726POPC   GL244798  15.143  36.987   6.150
 6726POPC   C1A44799  15.143  36.952   6.450
 6726POPC   D2A44800  15.157  36.860   6.750
 6726POPC   C3A44801  15.159  36.942   7.050
 6726POPC   C4A44802  15.148  36.948   7.350
 6726POPC   C1B44803  14.991  37.116   6.450
 6726POPC   C2B44804  15.018  37.040   6.750
 6726POPC   C3B44805  15.034  37.106   7.050
 6726POPC   C4B44806  15.007  37.105   7.350
 6727POPC   NC344807  26.806  43.908   5.550
 6727POPC   PO444808  26.817  43.886   5.850
 6727POPC   GL144809  26.856  43.841   6.150
 6727POPC   GL244810  26.967  43.958   6.150
 6727POPC   C1A44811  26.788  43.922   6.450
 6727POPC   D2A44812  26.777  43.922   6.750
 6727POPC   C3A44813  26.812  43.885   7.050
 6727POPC   C4A44814  26.832  43.890   7.350
 6727POPC   C1B44815  27.010  43.975   6.450
 6727POPC   C2B44816  27.012  44.025   6.750
 6727POPC   C3B44817  27.011  43.968   7.050
 6727POPC   C4B44818  27.017  44.005   7.350
 6728POPC   NC344819  28.349  36.862   5.550
 6728POPC   PO444820  28.412  36.889   5.850
 6728POPC   GL144821  28.371  36.921   6.150
 6728POPC   GL244822  28.439  36.984   6.150
 6728POPC   C1A44823  28.331  36.862   6.450
 6728POPC   D2A44824  28.341  36.915   6.750
 6728POPC   C3A44825  28.395  36.886   7.050
 6728POPC   C4A44826  28.320  36.860   7.350
 6728POPC   C1B44827  28.413  37.177   6.450
 6728POPC   C2B44828  28.426  37.154   6.750
 6728POPC   C3B44829  28.450  37.156   7.050
 6728POPC   C4B44830  28.407  37.187   7.350
 6729POPC   NC344831  39.251  13.615   5.550
 6729POPC   PO444832  39.185  13.668   5.850
 6729POPC   GL144833  39.205  13.594   6.150
 6729POPC   GL244834  39.162  13.546   6.150
 6729POPC   C1A44835  39.280  13.600   6.450
 6729POPC   D2A44836  39.258  13.604   6.750
 6729POPC   C3A44837  39.233  13.585   7.050
 6729POPC   C4A44838  39.256  13.633   7.350
 6729POPC   C1B44839  39.046  13.477   6.450
 6729POPC   C2B44840  39.057  13.426   6.750
 6729POPC   C3B44841  39.120  13.420   7.050
 6729POPC   C4B44842  39.108  13.421   7.350
 6730POPC   NC344843  14.395  30.649   5.550
 6730POPC   PO444844  14.362  30.739   5.850
 6730POPC   GL144845  14.388  30.700   6.150
 6730POPC   GL244846  14.385  30.781   6.150
 6730POPC   C1A44847  14.450  30.652   6.450
 6730POPC   D2A44848  14.390  30.734   6.750
 6730POPC   C3A44849  14.370  30.721   7.050
 6730POPC   C4A44850  14.401  30.704   7.350
 6730POPC   C1B44851  14.400  30.992   6.450
 6730POPC   C2B44852  14.341  30.920   6.750
 6730POPC   C3B44853  14.422  30.943   7.050
 6730POPC   C4B44854  14.408  30.910   7.350
 6731POPC   NC344855  39.985  25.299   5.550
 6731POPC   PO444856  40.055  25.270   5.850
 6731POPC   GL144857  39.997  25.260   6.150
 6731POPC   GL244858  40.036  25.173   6.150
 6731POPC   C1A44859  40.000  25.239   6.450
 6731POPC   D2A44860  40.002  25.263   6.750
 6731POPC   C3A44861  40.034  25.280   7.050
 6731POPC   C4A44862  40.004  25.276   7.350
 6731POPC   C1B44863  40.100  25.050   6.450
 6731POPC   C2B44864  40.079  25.069   6.750
 6731POPC   C3B44865  40.112  25.050   7.050
 6731POPC   C4B44866  40.140  25.030   7.350
 6732POPC   NC344867  15.918  36.937   5.550
 6732POPC   PO444868  15.920  36.866   5.850
 6732POPC   GL144869  15.918  36.945   6.150
 6732POPC   GL244870  16.095  36.811   6.150
 6732POPC   C1A44871  15.963  36.910   6.450
 6732POPC   D2A44872  15.950  36.953   6.750
 6732POPC   C3A44873  15.927  36.862   7.050
 6732POPC   C4A44874  15.927  36.873   7.350
 6732POPC   C1B44875  16.175  36.768   6.450
 6732POPC   C2B44876  16.177  36.797   6.750
 6732POPC   C3B44877  16.157  36.779   7.050
 6732POPC   C4B44878  16.193  36.797   7.350
 6733POPC   NC344879  15.990  12.045   5.550
 6733POPC   PO444880  15.922  12.112   5.850
 6733POPC   GL144881  15.940  12.076   6.150
 6733POPC   GL244882  16.011  12.160   6.150
 6733POPC   C1A44883  15.931  12.077   6.450
 6733POPC   D2A44884  15.916  12.066   6.750
 6733POPC   C3A44885  15.951  12.099   7.050
 6733POPC   C4A44886  15.932  12.056   7.350
 6733POPC   C1B44887  16.048  12.282   6.450
 6733POPC   C2B44888  16.113  12.291   6.750
 6733POPC   C3B44889  16.079  12.334   7.050
 6733POPC   C4B44890  16.090  12.297   7.350
 6734POPC   NC344891   6.653  15.916   5.550
 6734POPC   PO444892   6.607  15.998   5.850
 6734POPC   GL144893   6.657  15.978   6.150
 6734POPC   GL244894   6.610  15.790   6.150
 6734POPC   C1A44895   6.657  15.906   6.450
 6734POPC   D2A44896   6.628  15.978   6.750
 6734POPC   C3A44897   6.688  15.940   7.050
 6734POPC   C4A44898   6.675  15.997   7.350
 6734POPC   C1B44899   6.526  15.760   6.450
 6734POPC   C2B44900   6.603  15.746   6.750
 6734POPC   C3B44901   6.563  15.714   7.050
 6734POPC   C4B44902   6.615  15.705   7.350
 6735POPC   NC344903  39.997  22.165   5.550
 6735POPC   PO444904  40.047  22.146   5.850
 6735POPC   GL144905  39.993  22.138   6.150
 6735POPC   GL244906  39.864  22.153   6.150
 6735POPC   C1A44907  40.012  22.169   6.450
 6735POPC   D2A44908  39.963  22.189   6.750
 6735POPC   C3A44909  40.006  22.158   7.050
 6735POPC   C4A44910  39.984  22.140   7.350
 6735POPC   C1B44911  39.779  22.060   6.450
 6735POPC   C2B44912  39.733  22.124   6.750
 6735POPC   C3B44913  39.739  22.050   7.050
 6735POPC   C4B44914  39.763  22.061   7.350
 6736POPC   NC344915  20.566  22.169   5.550
 6736POPC   PO444916  20.639  22.167   5.850
 6736POPC   GL144917  20.582  22.171   6.150
 6736POPC   GL244918  20.737  22.182   6.150
 6736POPC   C1A44919  20.612  22.112   6.450
 6736POPC   D2A44920  20.653  22.195   6.750
 6736POPC   C3A44921  20.660  22.126   7.050
 6736POPC   C4A44922  20.656  22.170   7.350
 6736POPC   C1B44923  20.802  22.230   6.450
 6736POPC   C2B44924  20.860  22.236   6.750
 6736POPC   C3B44925  20.853  22.252   7.050
 6736POPC   C4B44926  20.855  22.241   7.350
 6737POPC   NC344927  10.523  43.068   5.550
 6737POPC   PO444928  10.498  43.097   5.850
 6737POPC   GL144929  10.527  43.068   6.150
 6737POPC   GL244930  10.376  43.052   6.150
 6737POPC   C1A44931  10.551  43.155   6.450
 6737POPC   D2A44932  10.489  43.149   6.750
 6737POPC   C3A44933  10.550  43.109   7.050
 6737POPC   C4A44934  10.542  43.091   7.350
 6737POPC   C1B44935  10.329  42.993   6.450
 6737POPC   C2B44936  10.335  42.957   6.750
 6737POPC   C3B44937  10.345  42.998   7.050
 6737POPC   C4B44938  10.331  42.964   7.350
 6738POPC   NC344939  25.230   9.798   5.550
 6738POPC   PO444940  25.305   9.791   5.850
 6738POPC   GL144941  25.257   9.727   6.150
 6738POPC   GL244942  25.427   9.696   6.150
 6738POPC   C1A44943  25.303   9.758   6.450
 6738POPC   D2A44944  25.291   9.780   6.750
 6738POPC   C3A44945  25.293   9.733   7.050
 6738POPC   C4A44946  25.274   9.777   7.350
 6738POPC   C1B44947  25.534   9.704   6.450
 6738POPC   C2B44948  25.491   9.707   6.750
 6738POPC   C3B44949  25.477   9.753   7.050
 6738POPC   C4B44950  25.538   9.772   7.350
 6739POPC   NC344951   9.749   5.821   5.550
 6739POPC   PO444952   9.795   5.873   5.850
 6739POPC   GL144953   9.718   5.847   6.150
 6739POPC   GL244954   9.661   5.879   6.150
 6739POPC   C1A44955   9.718   5.910   6.450
 6739POPC   D2A44956   9.719   5.842   6.750
 6739POPC   C3A44957   9.783   5.918   7.050
 6739POPC   C4A44958   9.718   5.858   7.350
 6739POPC   C1B44959   9.510   5.788   6.450
 6739POPC   C2B44960   9.497   5.786   6.750
 6739POPC   C3B44961   9.484   5.862   7.050
 6739POPC   C4B44962   9.464   5.795   7.350
 6740POPC   NC344963  38.475  17.509   5.550
 6740POPC   PO444964  38.503  17.467   5.850
 6740POPC   GL144965  38.446  17.546   6.150
 6740POPC   GL244966  38.495  17.569   6.150
 6740POPC   C1A44967  38.453  17.505   6.450
 6740POPC   D2A44968  38.452  17.547   6.750
 6740POPC   C3A44969  38.502  17.459   7.050
 6740POPC   C4A44970  38.436  17.526   7.350
 6740POPC   C1B44971  38.656  17.718   6.450
 6740POPC   C2B44972  38.595  17.638   6.750
 6740POPC   C3B44973  38.637  17.698   7.050
 6740POPC   C4B44974  38.636  17.718   7.350
 6741POPC   NC344975   4.332  15.203   5.550
 6741POPC   PO444976   4.347  15.192   5.850
 6741POPC   GL144977   4.316  15.177   6.150
 6741POPC   GL244978   4.476  15.240   6.150
 6741POPC   C1A44979   4.297  15.147   6.450
 6741POPC   D2A44980   4.308  15.165   6.750
 6741POPC   C3A44981   4.322  15.186   7.050
 6741POPC   C4A44982   4.267  15.173   7.350
 6741POPC   C1B44983   4.517  15.208   6.450
 6741POPC   C2B44984   4.563  15.220   6.750
 6741POPC   C3B44985   4.566  15.260   7.050
 6741POPC   C4B44986   4.602  15.255   7.350
 6742POPC   NC344987   3.539  15.940   5.550
 6742POPC   PO444988   3.522  15.924   5.850
 6742POPC   GL144989   3.582  15.953   6.150
 6742POPC   GL244990   3.491  16.026   6.150
 6742POPC   C1A44991   3.531  15.987   6.450
 6742POPC   D2A44992   3.531  15.998   6.750
 6742POPC   C3A44993   3.590  15.917   7.050
 6742POPC   C4A44994   3.571  15.917   7.350
 6742POPC   C1B44995   3.488  16.141   6.450
 6742POPC   C2B44996   3.410  16.160   6.750
 6742POPC   C3B44997   3.419  16.170   7.050
 6742POPC   C4B44998   3.467  16.200   7.350
 6743POPC   NC344999  38.450  11.253   5.550
 6743POPC   PO445000  38.443  11.254   5.850
 6743POPC   GL145001  38.440  11.281   6.150
 6743POPC   GL245002  38.567  11.339   6.150
 6743POPC   C1A45003  38.465  11.349   6.450
 6743POPC   D2A45004  38.495  11.324   6.750
 6743POPC   C3A45005  38.493  11.306   7.050
 6743POPC   C4A45006  38.451  11.286   7.350
 6743POPC   C1B45007  38.726  11.419   6.450
 6743POPC   C2B45008  38.647  11.415   6.750
 6743POPC   C3B45009  38.708  11.446   7.050
 6743POPC   C4B45010  38.722  11.452   7.350
 6744POPC   NC345011  22.177  17.474   5.550
 6744POPC   PO445012  22.210  17.545   5.850
 6744POPC   GL145013  22.205  17.506   6.150
 6744POPC   GL245014  22.052  17.609   6.150
 6744POPC   C1A45015  22.162  17.539   6.450
 6744POPC   D2A45016  22.173  17.463   6.750
 6744POPC   C3A45017  22.158  17.498   7.050
 6744POPC   C4A45018  22.171  17.522   7.350
 6744POPC   C1B45019  21.976  17.613   6.450
 6744POPC   C2B45020  21.959  17.604   6.750
 6744POPC   C3B45021  21.969  17.593   7.050
 6744POPC   C4B45022  21.980  17.659   7.350
 6745POPC   NC345023  38.452   7.449   5.550
 6745POPC   PO445024  38.414   7.384   5.850
 6745POPC   GL145025  38.487   7.452   6.150
 6745POPC   GL245026  38.550   7.292   6.150
 6745POPC   C1A45027  38.411   7.403   6.450
 6745POPC   D2A45028  38.433   7.431   6.750
 6745POPC   C3A45029  38.454   7.439   7.050
 6745POPC   C4A45030  38.467   7.420   7.350
 6745POPC   C1B45031  38.627   7.187   6.450
 6745POPC   C2B45032  38.580   7.236   6.750
 6745POPC   C3B45033  38.624   7.204   7.050
 6745POPC   C4B45034  38.607   7.194   7.350
 6746POPC   NC345035  21.410  12.858   5.550
 6746POPC   PO445036  21.341  12.813   5.850
 6746POPC   GL145037  21.403  12.885   6.150
 6746POPC   GL245038  21.259  12.898   6.150
 6746POPC   C1A45039  21.403  12.806   6.450
 6746POPC   D2A45040  21.347  12.815   6.750
 6746POPC   C3A45041  21.383  12.813   7.050
 6746POPC   C4A45042  21.340  12.889   7.350
 6746POPC   C1B45043  21.210  13.016   6.450
 6746POPC   C2B45044  21.218  13.000   6.750
 6746POPC   C3B45045  21.220  13.031   7.050
 6746POPC   C4B45046  21.179  12.961   7.350
 6747POPC   NC345047  13.663  25.264   5.550
 6747POPC   PO445048  13.646  25.305   5.850
 6747POPC   GL145049  13.596  25.274   6.150
 6747POPC   GL245050  13.570  25.409   6.150
 6747POPC   C1A45051  13.670  25.218   6.450
 6747POPC   D2A45052  13.657  25.286   6.750
 6747POPC   C3A45053  13.671  25.303   7.050
 6747POPC   C4A45054  13.629  25.263   7.350
 6747POPC   C1B45055  13.572  25.531   6.450
 6747POPC   C2B45056  13.565  25.512   6.750
 6747POPC   C3B45057  13.616  25.555   7.050
 6747POPC   C4B45058  13.608  25.545   7.350
 6748POPC   NC345059  38.416  35.397   5.550
 6748POPC   PO445060  38.431  35.366   5.850
 6748POPC   GL145061  38.460  35.391   6.150
 6748POPC   GL245062  38.409  35.198   6.150
 6748POPC   C1A45063  38.457  35.311   6.450
 6748POPC   D2A45064  38.487  35.352   6.750
 6748POPC   C3A45065  38.421  35.393   7.050
 6748POPC   C4A45066  38.419  35.376   7.350
 6748POPC   C1B45067  38.374  35.115   6.450
 6748POPC   C2B45068  38.387  35.108   6.750
 6748POPC   C3B45069  38.442  35.104   7.050
 6748POPC   C4B45070  38.404  35.104   7.350
 6749POPC   NC345071   9.786  43.098   5.550
 6749POPC   PO445072   9.778  43.080   5.850
 6749POPC   GL145073   9.723  43.128   6.150
 6749POPC   GL245074   9.761  43.220   6.150
 6749POPC   C1A45075   9.746  43.111   6.450
 6749POPC   D2A45076   9.719  43.155   6.750
 6749POPC   C3A45077   9.775  43.074   7.050
 6749POPC   C4A45078   9.741  43.065   7.350
 6749POPC   C1B45079   9.919  43.278   6.450
 6749POPC   C2B45080   9.871  43.363   6.750
 6749POPC   C3B45081   9.825  43.290   7.050
 6749POPC   C4B45082   9.916  43.347   7.350
 6750POPC   NC345083   6.654   5.089   5.550
 6750POPC   PO445084   6.598   5.125   5.850
 6750POPC   GL145085   6.668   5.143   6.150
 6750POPC   GL245086   6.728   5.237   6.150
 6750POPC   C1A45087   6.662   5.142   6.450
 6750POPC   D2A45088   6.617   5.067   6.750
 6750POPC   C3A45089   6.673   5.052   7.050
 6750POPC   C4A45090   6.670   5.123   7.350
 6750POPC   C1B45091   6.787   5.277   6.450
 6750POPC   C2B45092   6.764   5.357   6.750
 6750POPC   C3B45093   6.752   5.329   7.050
 6750POPC   C4B45094   6.768   5.320   7.350
 6751POPC   NC345095   1.973  26.849   5.550
 6751POPC   PO445096   1.979  26.773   5.850
 6751POPC   GL145097   2.011  26.830   6.150
 6751POPC   GL245098   2.049  26.654   6.150
 6751POPC   C1A45099   1.963  26.789   6.450
 6751POPC   D2A45100   1.991  26.843   6.750
 6751POPC   C3A45101   1.954  26.810   7.050
 6751POPC   C4A45102   1.948  26.818   7.350
 6751POPC   C1B45103   2.019  26.568   6.450
 6751POPC   C2B45104   2.019  26.583   6.750
 6751POPC   C3B45105   2.089  26.546   7.050
 6751POPC   C4B45106   2.018  26.544   7.350
 6752POPC   NC345107   3.541  39.258   5.550
 6752POPC   PO445108   3.563  39.260   5.850
 6752POPC   GL145109   3.588  39.240   6.150
 6752POPC   GL245110   3.635  39.325   6.150
 6752POPC   C1A45111   3.566  39.184   6.450
 6752POPC   D2A45112   3.570  39.214   6.750
 6752POPC   C3A45113   3.584  39.201   7.050
 6752POPC   C4A45114   3.576  39.199   7.350
 6752POPC   C1B45115   3.774  39.419   6.450
 6752POPC   C2B45116   3.722  39.441   6.750
 6752POPC   C3B45117   3.677  39.354   7.050
 6752POPC   C4B45118   3.773  39.357   7.350
 6753POPC   NC345119  43.094  17.459   5.550
 6753POPC   PO445120  43.099  17.467   5.850
 6753POPC   GL145121  43.132  17.476   6.150
 6753POPC   GL245122  43.160  17.365   6.150
 6753POPC   C1A45123  43.094  17.521   6.450
 6753POPC   D2A45124  43.063  17.510   6.750
 6753POPC   C3A45125  43.068  17.539   7.050
 6753POPC   C4A45126  43.152  17.532   7.350
 6753POPC   C1B45127  43.264  17.342   6.450
 6753POPC   C2B45128  43.291  17.282   6.750
 6753POPC   C3B45129  43.208  17.340   7.050
 6753POPC   C4B45130  43.264  17.334   7.350
 6754POPC   NC345131  20.620   0.469   5.550
 6754POPC   PO445132  20.609   0.478   5.850
 6754POPC   GL145133  20.645   0.404   6.150
 6754POPC   GL245134  20.632   0.327   6.150
 6754POPC   C1A45135  20.578   0.447   6.450
 6754POPC   D2A45136  20.618   0.442   6.750
 6754POPC   C3A45137  20.643   0.392   7.050
 6754POPC   C4A45138  20.612   0.429   7.350
 6754POPC   C1B45139  20.719   0.217   6.450
 6754POPC   C2B45140  20.755   0.265   6.750
 6754POPC   C3B45141  20.776   0.237   7.050
 6754POPC   C4B45142  20.740   0.204   7.350
 6755POPC   NC345143  25.250  38.451   5.550
 6755POPC   PO445144  25.306  38.414   5.850
 6755POPC   GL145145  25.219  38.498   6.150
 6755POPC   GL245146  25.160  38.483   6.150
 6755POPC   C1A45147  25.235  38.415   6.450
 6755POPC   D2A45148  25.265  38.445   6.750
 6755POPC   C3A45149  25.284  38.487   7.050
 6755POPC   C4A45150  25.235  38.490   7.350
 6755POPC   C1B45151  24.987  38.481   6.450
 6755POPC   C2B45152  24.991  38.478   6.750
 6755POPC   C3B45153  25.049  38.455   7.050
 6755POPC   C4B45154  24.974  38.434   7.350
 6756POPC   NC345155  18.240  36.129   5.550
 6756POPC   PO445156  18.312  36.165   5.850
 6756POPC   GL145157  18.259  36.148   6.150
 6756POPC   GL245158  18.168  36.163   6.150
 6756POPC   C1A45159  18.268  36.120   6.450
 6756POPC   D2A45160  18.240  36.140   6.750
 6756POPC   C3A45161  18.329  36.150   7.050
 6756POPC   C4A45162  18.327  36.091   7.350
 6756POPC   C1B45163  18.090  36.226   6.450
 6756POPC   C2B45164  18.043  36.270   6.750
 6756POPC   C3B45165  18.091  36.271   7.050
 6756POPC   C4B45166  18.072  36.224   7.350
 6757POPC   NC345167  44.706  32.248   5.550
 6757POPC   PO445168  44.696  32.226   5.850
 6757POPC   GL145169  44.708  32.252   6.150
 6757POPC   GL245170  44.711  32.171   6.150
 6757POPC   C1A45171  44.677  32.268   6.450
 6757POPC   D2A45172  44.701  32.212   6.750
 6757POPC   C3A45173  44.708  32.292   7.050
 6757POPC   C4A45174  44.620  32.277   7.350
 6757POPC   C1B45175  44.858  32.003   6.450
 6757POPC   C2B45176  44.840  32.045   6.750
 6757POPC   C3B45177  44.788  32.075   7.050
 6757POPC   C4B45178  44.768  32.055   7.350
 6758POPC   NC345179  10.515  42.303   5.550
 6758POPC   PO445180  10.568  42.373   5.850
 6758POPC   GL145181  10.564  42.353   6.150
 6758POPC   GL245182  10.457  42.455   6.150
 6758POPC   C1A45183  10.525  42.322   6.450
 6758POPC   D2A45184  10.506  42.373   6.750
 6758POPC   C3A45185  10.508  42.376   7.050
 6758POPC   C4A45186  10.494  42.373   7.350
 6758POPC   C1B45187  10.384  42.582   6.450
 6758POPC   C2B45188  10.438  42.573   6.750
 6758POPC   C3B45189  10.399  42.558   7.050
 6758POPC   C4B45190  10.450  42.535   7.350
 6759POPC   NC345191  44.634  10.551   5.550
 6759POPC   PO445192  44.684  10.535   5.850
 6759POPC   GL145193  44.685  10.532   6.150
 6759POPC   GL245194  44.619  10.661   6.150
 6759POPC   C1A45195  44.689  10.527   6.450
 6759POPC   D2A45196  44.625  10.515   6.750
 6759POPC   C3A45197  44.646  10.522   7.050
 6759POPC   C4A45198  44.627  10.484   7.350
 6759POPC   C1B45199  44.554  10.760   6.450
 6759POPC   C2B45200  44.495  10.714   6.750
 6759POPC   C3B45201  44.555  10.747   7.050
 6759POPC   C4B45202  44.470  10.725   7.350
 6760POPC   NC345203  39.194  16.744   5.550
 6760POPC   PO445204  39.197  16.717   5.850
 6760POPC   GL145205  39.209  16.775   6.150
 6760POPC   GL245206  39.235  16.866   6.150
 6760POPC   C1A45207  39.255  16.720   6.450
 6760POPC   D2A45208  39.270  16.741   6.750
 6760POPC   C3A45209  39.279  16.706   7.050
 6760POPC   C4A45210  39.237  16.682   7.350
 6760POPC   C1B45211  39.165  16.959   6.450
 6760POPC   C2B45212  39.203  16.960   6.750
 6760POPC   C3B45213  39.167  16.938   7.050
 6760POPC   C4B45214  39.123  16.936   7.350
 6761POPC   NC345215  42.332  16.708   5.550
 6761POPC   PO445216  42.320  16.715   5.850
 6761POPC   GL145217  42.334  16.716   6.150
 6761POPC   GL245218  42.413  16.670   6.150
 6761POPC   C1A45219  42.371  16.705   6.450
 6761POPC   D2A45220  42.364  16.693   6.750
 6761POPC   C3A45221  42.377  16.769   7.050
 6761POPC   C4A45222  42.322  16.706   7.350
 6761POPC   C1B45223  42.584  16.594   6.450
 6761POPC   C2B45224  42.523  16.535   6.750
 6761POPC   C3B45225  42.543  16.592   7.050
 6761POPC   C4B45226  42.539  16.570   7.350
 6762POPC   NC345227  14.447  29.095   5.550
 6762POPC   PO445228  14.429  29.170   5.850
 6762POPC   GL145229  14.439  29.166   6.150
 6762POPC   GL245230  14.280  29.254   6.150
 6762POPC   C1A45231  14.414  29.134   6.450
 6762POPC   D2A45232  14.446  29.156   6.750
 6762POPC   C3A45233  14.423  29.119   7.050
 6762POPC   C4A45234  14.422  29.137   7.350
 6762POPC   C1B45235  14.275  29.368   6.450
 6762POPC   C2B45236  14.254  29.361   6.750
 6762POPC   C3B45237  14.268  29.335   7.050
 6762POPC   C4B45238  14.261  29.310   7.350
 6763POPC   NC345239  29.918  24.451   5.550
 6763POPC   PO445240  29.945  24.444   5.850
 6763POPC   GL145241  29.880  24.494   6.150
 6763POPC   GL245242  29.941  24.658   6.150
 6763POPC   C1A45243  29.917  24.509   6.450
 6763POPC   D2A45244  29.919  24.443   6.750
 6763POPC   C3A45245  29.892  24.458   7.050
 6763POPC   C4A45246  29.892  24.444   7.350
 6763POPC   C1B45247  29.867  24.703   6.450
 6763POPC   C2B45248  29.883  24.702   6.750
 6763POPC   C3B45249  29.865  24.774   7.050
 6763POPC   C4B45250  29.916  24.717   7.350
 6764POPC   NC345251   8.227  23.762   5.550
 6764POPC   PO445252   8.243  23.743   5.850
 6764POPC   GL145253   8.217  23.755   6.150
 6764POPC   GL245254   8.195  23.805   6.150
 6764POPC   C1A45255   8.242  23.682   6.450
 6764POPC   D2A45256   8.194  23.669   6.750
 6764POPC   C3A45257   8.179  23.675   7.050
 6764POPC   C4A45258   8.176  23.728   7.350
 6764POPC   C1B45259   8.199  23.994   6.450
 6764POPC   C2B45260   8.150  23.982   6.750
 6764POPC   C3B45261   8.176  23.998   7.050
 6764POPC   C4B45262   8.130  23.951   7.350
 6765POPC   NC345263  20.567  19.835   5.550
 6765POPC   PO445264  20.608  19.826   5.850
 6765POPC   GL145265  20.647  19.792   6.150
 6765POPC   GL245266  20.653  19.913   6.150
 6765POPC   C1A45267  20.582  19.814   6.450
 6765POPC   D2A45268  20.614  19.851   6.750
 6765POPC   C3A45269  20.580  19.791   7.050
 6765POPC   C4A45270  20.612  19.825   7.350
 6765POPC   C1B45271  20.817  20.018   6.450
 6765POPC   C2B45272  20.802  20.074   6.750
 6765POPC   C3B45273  20.771  19.987   7.050
 6765POPC   C4B45274  20.741  20.029   7.350
 6766POPC   NC345275  22.919   2.810   5.550
 6766POPC   PO445276  22.967   2.719   5.850
 6766POPC   GL145277  22.925   2.771   6.150
 6766POPC   GL245278  23.037   2.682   6.150
 6766POPC   C1A45279  22.947   2.813   6.450
 6766POPC   D2A45280  22.932   2.770   6.750
 6766POPC   C3A45281  22.890   2.724   7.050
 6766POPC   C4A45282  22.967   2.793   7.350
 6766POPC   C1B45283  23.018   2.512   6.450
 6766POPC   C2B45284  23.054   2.511   6.750
 6766POPC   C3B45285  23.102   2.541   7.050
 6766POPC   C4B45286  23.033   2.504   7.350
 6767POPC   NC345287  17.507  44.631   5.550
 6767POPC   PO445288  17.517  44.616   5.850
 6767POPC   GL145289  17.516  44.690   6.150
 6767POPC   GL245290  17.388  44.703   6.150
 6767POPC   C1A45291  17.529  44.669   6.450
 6767POPC   D2A45292  17.533  44.661   6.750
 6767POPC   C3A45293  17.546  44.676   7.050
 6767POPC   C4A45294  17.479  44.646   7.350
 6767POPC   C1B45295  17.346  44.788   6.450
 6767POPC   C2B45296  17.344  44.772   6.750
 6767POPC   C3B45297  17.335  44.840   7.050
 6767POPC   C4B45298  17.283  44.852   7.350
 6768POPC   NC345299  18.289  31.435   5.550
 6768POPC   PO445300  18.301  31.517   5.850
 6768POPC   GL145301  18.309  31.470   6.150
 6768POPC   GL245302  18.128  31.446   6.150
 6768POPC   C1A45303  18.285  31.513   6.450
 6768POPC   D2A45304  18.302  31.474   6.750
 6768POPC   C3A45305  18.251  31.476   7.050
 6768POPC   C4A45306  18.271  31.425   7.350
 6768POPC   C1B45307  18.036  31.442   6.450
 6768POPC   C2B45308  18.067  31.475   6.750
 6768POPC   C3B45309  18.086  31.418   7.050
 6768POPC   C4B45310  18.055  31.433   7.350
 6769POPC   NC345311   8.216  44.631   5.550
 6769POPC   PO445312   8.149  44.707   5.850
 6769POPC   GL145313   8.238  44.653   6.150
 6769POPC   GL245314   8.293  44.576   6.150
 6769POPC   C1A45315   8.235  44.674   6.450
 6769POPC   D2A45316   8.153  44.693   6.750
 6769POPC   C3A45317   8.191  44.620   7.050
 6769POPC   C4A45318   8.216  44.625   7.350
 6769POPC   C1B45319   8.328  44.432   6.450
 6769POPC   C2B45320   8.282  44.408   6.750
 6769POPC   C3B45321   8.270  44.479   7.050
 6769POPC   C4B45322   8.321  44.409   7.350
 6770POPC   NC345323   3.566  38.471   5.550
 6770POPC   PO445324   3.532  38.459   5.850
 6770POPC   GL145325   3.552  38.503   6.150
 6770POPC   GL245326   3.637  38.401   6.150
 6770POPC   C1A45327   3.557  38.503   6.450
 6770POPC   D2A45328   3.505  38.478   6.750
 6770POPC   C3A45329   3.500  38.416   7.050
 6770POPC   C4A45330   3.518  38.424   7.350
 6770POPC   C1B45331   3.716  38.307   6.450
 6770POPC   C2B45332   3.741  38.362   6.750
 6770POPC   C3B45333   3.782  38.360   7.050
 6770POPC   C4B45334   3.727  38.302   7.350
 6771POPC   NC345335  28.387  10.524   5.550
 6771POPC   PO445336  28.412  10.548   5.850
 6771POPC   GL145337  28.397  10.536   6.150
 6771POPC   GL245338  28.241  10.432   6.150
 6771POPC   C1A45339  28.399  10.527   6.450
 6771POPC   D2A45340  28.392  10.479   6.750
 6771POPC   C3A45341  28.413  10.478   7.050
 6771POPC   C4A45342  28.382  10.537   7.350
 6771POPC   C1B45343  28.158  10.470   6.450
 6771POPC   C2B45344  28.140  10.417   6.750
 6771POPC   C3B45345  28.133  10.384   7.050
 6771POPC   C4B45346  28.098  10.472   7.350
 6772POPC   NC345347  34.583  32.298   5.550
 6772POPC   PO445348  34.566  32.291   5.850
 6772POPC   GL145349  34.568  32.257   6.150
 6772POPC   GL245350  34.630  32.096   6.150
 6772POPC   C1A45351  34.620  32.293   6.450
 6772POPC   D2A45352  34.596  32.297   6.750
 6772POPC   C3A45353  34.582  32.244   7.050
 6772POPC   C4A45354  34.550  32.237   7.350
 6772POPC   C1B45355  34.671  31.982   6.450
 6772POPC   C2B45356  34.659  32.013   6.750
 6772POPC   C3B45357  34.647  31.987   7.050
 6772POPC   C4B45358  34.678  32.061   7.350
 6773POPC   NC345359  33.043  35.389   5.550
 6773POPC   PO445360  33.055  35.401   5.850
 6773POPC   GL145361  33.071  35.379   6.150
 6773POPC   GL245362  33.089  35.430   6.150
 6773POPC   C1A45363  32.988  35.394   6.450
 6773POPC   D2A45364  33.034  35.380   6.750
 6773POPC   C3A45365  33.038  35.360   7.050
 6773POPC   C4A45366  33.062  35.390   7.350
 6773POPC   C1B45367  33.119  35.576   6.450
 6773POPC   C2B45368  33.141  35.604   6.750
 6773POPC   C3B45369  33.062  35.578   7.050
 6773POPC   C4B45370  33.113  35.612   7.350
 6774POPC   NC345371  39.216  39.243   5.550
 6774POPC   PO445372  39.213  39.263   5.850
 6774POPC   GL145373  39.250  39.200   6.150
 6774POPC   GL245374  39.195  39.131   6.150
 6774POPC   C1A45375  39.216  39.256   6.450
 6774POPC   D2A45376  39.254  39.216   6.750
 6774POPC   C3A45377  39.202  39.205   7.050
 6774POPC   C4A45378  39.228  39.269   7.350
 6774POPC   C1B45379  39.127  39.045   6.450
 6774POPC   C2B45380  39.084  39.010   6.750
 6774POPC   C3B45381  39.062  39.058   7.050
 6774POPC   C4B45382  39.090  39.051   7.350
 6775POPC   NC345383   8.240  33.827   5.550
 6775POPC   PO445384   8.211  33.778   5.850
 6775POPC   GL145385   8.172  33.751   6.150
 6775POPC   GL245386   8.192  33.883   6.150
 6775POPC   C1A45387   8.238  33.834   6.450
 6775POPC   D2A45388   8.150  33.834   6.750
 6775POPC   C3A45389   8.208  33.817   7.050
 6775POPC   C4A45390   8.180  33.812   7.350
 6775POPC   C1B45391   8.147  34.008   6.450
 6775POPC   C2B45392   8.191  34.095   6.750
 6775POPC   C3B45393   8.197  34.083   7.050
 6775POPC   C4B45394   8.127  34.067   7.350
 6776POPC   NC345395   9.724  40.748   5.550
 6776POPC   PO445396   9.746  40.805   5.850
 6776POPC   GL145397   9.704  40.824   6.150
 6776POPC   GL245398   9.736  40.680   6.150
 6776POPC   C1A45399   9.788  40.752   6.450
 6776POPC   D2A45400   9.773  40.801   6.750
 6776POPC   C3A45401   9.714  40.744   7.050
 6776POPC   C4A45402   9.729  40.751   7.350
 6776POPC   C1B45403   9.614  40.551   6.450
 6776POPC   C2B45404   9.643  40.569   6.750
 6776POPC   C3B45405   9.656  40.549   7.050
 6776POPC   C4B45406   9.625  40.590   7.350
 6777POPC   NC345407  12.115  33.812   5.550
 6777POPC   PO445408  12.088  33.783   5.850
 6777POPC   GL145409  12.057  33.848   6.150
 6777POPC   GL245410  12.175  33.827   6.150
 6777POPC   C1A45411  12.069  33.771   6.450
 6777POPC   D2A45412  12.062  33.767   6.750
 6777POPC   C3A45413  12.046  33.817   7.050
 6777POPC   C4A45414  12.051  33.786   7.350
 6777POPC   C1B45415  12.301  33.951   6.450
 6777POPC   C2B45416  12.312  33.936   6.750
 6777POPC   C3B45417  12.325  33.921   7.050
 6777POPC   C4B45418  12.333  33.905   7.350
 6778POPC   NC345419  37.677  35.382   5.550
 6778POPC   PO445420  37.714  35.393   5.850
 6778POPC   GL145421  37.640  35.347   6.150
 6778POPC   GL245422  37.753  35.241   6.150
 6778POPC   C1A45423  37.657  35.401   6.450
 6778POPC   D2A45424  37.640  35.374   6.750
 6778POPC   C3A45425  37.684  35.333   7.050
 6778POPC   C4A45426  37.717  35.357   7.350
 6778POPC   C1B45427  37.739  35.086   6.450
 6778POPC   C2B45428  37.739  35.115   6.750
 6778POPC   C3B45429  37.755  35.109   7.050
 6778POPC   C4B45430  37.730  35.138   7.350
 6779POPC   NC345431   1.198  29.953   5.550
 6779POPC   PO445432   1.193  29.909   5.850
 6779POPC   GL145433   1.182  29.878   6.150
 6779POPC   GL245434   1.110  29.921   6.150
 6779POPC   C1A45435   1.173  29.900   6.450
 6779POPC   D2A45436   1.183  29.876   6.750
 6779POPC   C3A45437   1.244  29.932   7.050
 6779POPC   C4A45438   1.245  29.874   7.350
 6779POPC   C1B45439   0.937  30.009   6.450
 6779POPC   C2B45440   1.021  30.008   6.750
 6779POPC   C3B45441   0.964  29.956   7.050
 6779POPC   C4B45442   0.952  30.002   7.350
 6780POPC   NC345443  20.620   8.962   5.550
 6780POPC   PO445444  20.602   9.013   5.850
 6780POPC   GL145445  20.633   8.961   6.150
 6780POPC   GL245446  20.513   9.059   6.150
 6780POPC   C1A45447  20.605   8.959   6.450
 6780POPC   D2A45448  20.621   9.015   6.750
 6780POPC   C3A45449  20.646   8.995   7.050
 6780POPC   C4A45450  20.580   9.011   7.350
 6780POPC   C1B45451  20.510   9.152   6.450
 6780POPC   C2B45452  20.453   9.145   6.750
 6780POPC   C3B45453  20.454   9.179   7.050
 6780POPC   C4B45454  20.453   9.143   7.350
 6781POPC   NC345455  37.686  26.043   5.550
 6781POPC   PO445456  37.697  26.067   5.850
 6781POPC   GL145457  37.635  26.042   6.150
 6781POPC   GL245458  37.689  26.173   6.150
 6781POPC   C1A45459  37.650  26.037   6.450
 6781POPC   D2A45460  37.679  26.072   6.750
 6781POPC   C3A45461  37.690  26.077   7.050
 6781POPC   C4A45462  37.725  26.009   7.350
 6781POPC   C1B45463  37.768  26.307   6.450
 6781POPC   C2B45464  37.775  26.319   6.750
 6781POPC   C3B45465  37.791  26.288   7.050
 6781POPC   C4B45466  37.792  26.301   7.350
 6782POPC   NC345467  24.457  29.168   5.550
 6782POPC   PO445468  24.512  29.123   5.850
 6782POPC   GL145469  24.475  29.176   6.150
 6782POPC   GL245470  24.389  29.133   6.150
 6782POPC   C1A45471  24.493  29.136   6.450
 6782POPC   D2A45472  24.476  29.140   6.750
 6782POPC   C3A45473  24.518  29.160   7.050
 6782POPC   C4A45474  24.497  29.152   7.350
 6782POPC   C1B45475  24.262  29.132   6.450
 6782POPC   C2B45476  24.235  29.086   6.750
 6782POPC   C3B45477  24.263  29.066   7.050
 6782POPC   C4B45478  24.255  29.047   7.350
 6783POPC   NC345479  43.919  44.673   5.550
 6783POPC   PO445480  43.910  44.623   5.850
 6783POPC   GL145481  43.872  44.617   6.150
 6783POPC   GL245482  43.982  44.740   6.150
 6783POPC   C1A45483  43.865  44.613   6.450
 6783POPC   D2A45484  43.866  44.698   6.750
 6783POPC   C3A45485  43.840  44.668   7.050
 6783POPC   C4A45486  43.929  44.620   7.350
 6783POPC   C1B45487  44.107  44.891   6.450
 6783POPC   C2B45488  44.056  44.872   6.750
 6783POPC   C3B45489  44.036  44.873   7.050
 6783POPC   C4B45490  44.080  44.858   7.350
 6784POPC   NC345491  42.368  42.297   5.550
 6784POPC   PO445492  42.339  42.379   5.850
 6784POPC   GL145493  42.336  42.294   6.150
 6784POPC   GL245494  42.479  42.437   6.150
 6784POPC   C1A45495  42.354  42.294   6.450
 6784POPC   D2A45496  42.379  42.313   6.750
 6784POPC   C3A45497  42.347  42.358   7.050
 6784POPC   C4A45498  42.334  42.310   7.350
 6784POPC   C1B45499  42.506  42.462   6.450
 6784POPC   C2B45500  42.585  42.482   6.750
 6784POPC   C3B45501  42.549  42.495   7.050
 6784POPC   C4B45502  42.593  42.462   7.350
 6785POPC   NC345503  11.347   3.493   5.550
 6785POPC   PO445504  11.305   3.513   5.850
 6785POPC   GL145505  11.297   3.572   6.150
 6785POPC   GL245506  11.349   3.713   6.150
 6785POPC   C1A45507  11.268   3.578   6.450
 6785POPC   D2A45508  11.270   3.532   6.750
 6785POPC   C3A45509  11.328   3.525   7.050
 6785POPC   C4A45510  11.336   3.501   7.350
 6785POPC   C1B45511  11.290   3.773   6.450
 6785POPC   C2B45512  11.326   3.797   6.750
 6785POPC   C3B45513  11.280   3.818   7.050
 6785POPC   C4B45514  11.286   3.807   7.350
 6786POPC   NC345515  39.256  31.442   5.550
 6786POPC   PO445516  39.224  31.486   5.850
 6786POPC   GL145517  39.265  31.441   6.150
 6786POPC   GL245518  39.136  31.383   6.150
 6786POPC   C1A45519  39.215  31.491   6.450
 6786POPC   D2A45520  39.200  31.490   6.750
 6786POPC   C3A45521  39.275  31.520   7.050
 6786POPC   C4A45522  39.265  31.462   7.350
 6786POPC   C1B45523  39.002  31.343   6.450
 6786POPC   C2B45524  38.993  31.351   6.750
 6786POPC   C3B45525  39.005  31.354   7.050
 6786POPC   C4B45526  39.071  31.296   7.350
 6787POPC   NC345527  39.252  26.033   5.550
 6787POPC   PO445528  39.215  26.035   5.850
 6787POPC   GL145529  39.254  26.026   6.150
 6787POPC   GL245530  39.269  25.869   6.150
 6787POPC   C1A45531  39.210  26.073   6.450
 6787POPC   D2A45532  39.232  26.061   6.750
 6787POPC   C3A45533  39.269  26.004   7.050
 6787POPC   C4A45534  39.267  26.047   7.350
 6787POPC   C1B45535  39.262  25.751   6.450
 6787POPC   C2B45536  39.206  25.828   6.750
 6787POPC   C3B45537  39.229  25.838   7.050
 6787POPC   C4B45538  39.205  25.773   7.350
 6788POPC   NC345539  12.875  14.416   5.550
 6788POPC   PO445540  12.828  14.376   5.850
 6788POPC   GL145541  12.877  14.363   6.150
 6788POPC   GL245542  12.762  14.420   6.150
 6788POPC   C1A45543  12.892  14.356   6.450
 6788POPC   D2A45544  12.827  14.450   6.750
 6788POPC   C3A45545  12.823  14.364   7.050
 6788POPC   C4A45546  12.896  14.380   7.350
 6788POPC   C1B45547  12.612  14.542   6.450
 6788POPC   C2B45548  12.669  14.484   6.750
 6788POPC   C3B45549  12.621  14.513   7.050
 6788POPC   C4B45550  12.667  14.490   7.350
 6789POPC   NC345551   2.019   3.530   5.550
 6789POPC   PO445552   1.944   3.577   5.850
 6789POPC   GL145553   2.033   3.508   6.150
 6789POPC   GL245554   2.050   3.371   6.150
 6789POPC   C1A45555   1.992   3.553   6.450
 6789POPC   D2A45556   2.036   3.503   6.750
 6789POPC   C3A45557   2.031   3.513   7.050
 6789POPC   C4A45558   2.022   3.556   7.350
 6789POPC   C1B45559   2.093   3.291   6.450
 6789POPC   C2B45560   2.050   3.292   6.750
 6789POPC   C3B45561   2.013   3.323   7.050
 6789POPC   C4B45562   2.065   3.345   7.350
 6790POPC   NC345563  24.503   4.336   5.550
 6790POPC   PO445564  24.535   4.272   5.850
 6790POPC   GL145565  24.465   4.361   6.150
 6790POPC   GL245566  24.375   4.367   6.150
 6790POPC   C1A45567  24.472   4.299   6.450
 6790POPC   D2A45568  24.475   4.289   6.750
 6790POPC   C3A45569  24.446   4.308   7.050
 6790POPC   C4A45570  24.462   4.334   7.350
 6790POPC   C1B45571  24.252   4.325   6.450
 6790POPC   C2B45572  24.233   4.304   6.750
 6790POPC   C3B45573  24.205   4.324   7.050
 6790POPC   C4B45574  24.218   4.316   7.350
 6791POPC   NC345575   9.795  12.036   5.550
 6791POPC   PO445576   9.789  12.049   5.850
 6791POPC   GL145577   9.702  12.035   6.150
 6791POPC   GL245578   9.647  11.942   6.150
 6791POPC   C1A45579   9.742  12.108   6.450
 6791POPC   D2A45580   9.737  12.087   6.750
 6791POPC   C3A45581   9.717  12.113   7.050
 6791POPC   C4A45582   9.769  12.055   7.350
 6791POPC   C1B45583   9.568  11.930   6.450
 6791POPC   C2B45584   9.570  11.886   6.750
 6791POPC   C3B45585   9.602  11.865   7.050
 6791POPC   C4B45586   9.539  11.852   7.350
 6792POPC   NC345587  23.707  11.263   5.550
 6792POPC   PO445588  23.680  11.257   5.850
 6792POPC   GL145589  23.705  11.307   6.150
 6792POPC   GL245590  23.886  11.276   6.150
 6792POPC   C1A45591  23.678  11.288   6.450
 6792POPC   D2A45592  23.692  11.306   6.750
 6792POPC   C3A45593  23.686  11.348   7.050
 6792POPC   C4A45594  23.698  11.255   7.350
 6792POPC   C1B45595  23.958  11.270   6.450
 6792POPC   C2B45596  23.996  11.318   6.750
 6792POPC   C3B45597  23.918  11.278   7.050
 6792POPC   C4B45598  23.974  11.365   7.350
 6793POPC   NC345599   5.845  20.653   5.550
 6793POPC   PO445600   5.857  20.579   5.850
 6793POPC   GL145601   5.868  20.622   6.150
 6793POPC   GL245602   5.874  20.749   6.150
 6793POPC   C1A45603   5.878  20.598   6.450
 6793POPC   D2A45604   5.854  20.640   6.750
 6793POPC   C3A45605   5.831  20.625   7.050
 6793POPC   C4A45606   5.839  20.619   7.350
 6793POPC   C1B45607   5.977  20.802   6.450
 6793POPC   C2B45608   5.941  20.870   6.750
 6793POPC   C3B45609   5.944  20.835   7.050
 6793POPC   C4B45610   5.986  20.807   7.350
 6794POPC   NC345611  31.472  11.259   5.550
 6794POPC   PO445612  31.483  11.336   5.850
 6794POPC   GL145613  31.426  11.300   6.150
 6794POPC   GL245614  31.382  11.436   6.150
 6794POPC   C1A45615  31.433  11.348   6.450
 6794POPC   D2A45616  31.462  11.255   6.750
 6794POPC   C3A45617  31.474  11.325   7.050
 6794POPC   C4A45618  31.472  11.347   7.350
 6794POPC   C1B45619  31.351  11.493   6.450
 6794POPC   C2B45620  31.354  11.503   6.750
 6794POPC   C3B45621  31.417  11.543   7.050
 6794POPC   C4B45622  31.326  11.541   7.350
 6795POPC   NC345623   5.103   2.722   5.550
 6795POPC   PO445624   5.129   2.807   5.850
 6795POPC   GL145625   5.094   2.791   6.150
 6795POPC   GL245626   4.957   2.720   6.150
 6795POPC   C1A45627   5.066   2.797   6.450
 6795POPC   D2A45628   5.082   2.740   6.750
 6795POPC   C3A45629   5.111   2.770   7.050
 6795POPC   C4A45630   5.077   2.727   7.350
 6795POPC   C1B45631   4.893   2.715   6.450
 6795POPC   C2B45632   4.895   2.626   6.750
 6795POPC   C3B45633   4.818   2.685   7.050
 6795POPC   C4B45634   4.889   2.647   7.350
 6796POPC   NC345635  26.077  31.522   5.550
 6796POPC   PO445636  26.060  31.452   5.850
 6796POPC   GL145637  26.032  31.440   6.150
 6796POPC   GL245638  26.169  31.364   6.150
 6796POPC   C1A45639  26.016  31.432   6.450
 6796POPC   D2A45640  26.028  31.447   6.750
 6796POPC   C3A45641  26.062  31.438   7.050
 6796POPC   C4A45642  26.002  31.424   7.350
 6796POPC   C1B45643  26.275  31.302   6.450
 6796POPC   C2B45644  26.271  31.284   6.750
 6796POPC   C3B45645  26.271  31.367   7.050
 6796POPC   C4B45646  26.214  31.376   7.350
 6797POPC   NC345647   1.186  12.036   5.550
 6797POPC   PO445648   1.195  12.040   5.850
 6797POPC   GL145649   1.191  12.109   6.150
 6797POPC   GL245650   1.096  11.960   6.150
 6797POPC   C1A45651   1.165  12.096   6.450
 6797POPC   D2A45652   1.179  12.126   6.750
 6797POPC   C3A45653   1.175  12.075   7.050
 6797POPC   C4A45654   1.248  12.111   7.350
 6797POPC   C1B45655   1.073  11.920   6.450
 6797POPC   C2B45656   1.015  11.889   6.750
 6797POPC   C3B45657   1.033  11.914   7.050
 6797POPC   C4B45658   1.058  11.843   7.350
 6798POPC   NC345659  42.306  34.572   5.550
 6798POPC   PO445660  42.350  34.537   5.850
 6798POPC   GL145661  42.301  34.568   6.150
 6798POPC   GL245662  42.356  34.487   6.150
 6798POPC   C1A45663  42.382  34.608   6.450
 6798POPC   D2A45664  42.322  34.588   6.750
 6798POPC   C3A45665  42.307  34.530   7.050
 6798POPC   C4A45666  42.307  34.576   7.350
 6798POPC   C1B45667  42.320  34.309   6.450
 6798POPC   C2B45668  42.359  34.369   6.750
 6798POPC   C3B45669  42.314  34.290   7.050
 6798POPC   C4B45670  42.378  34.364   7.350
 6799POPC   NC345671   2.758  36.918   5.550
 6799POPC   PO445672   2.794  36.908   5.850
 6799POPC   GL145673   2.779  36.888   6.150
 6799POPC   GL245674   2.653  36.824   6.150
 6799POPC   C1A45675   2.779  36.879   6.450
 6799POPC   D2A45676   2.739  36.906   6.750
 6799POPC   C3A45677   2.739  36.864   7.050
 6799POPC   C4A45678   2.725  36.877   7.350
 6799POPC   C1B45679   2.508  36.738   6.450
 6799POPC   C2B45680   2.555  36.726   6.750
 6799POPC   C3B45681   2.534  36.813   7.050
 6799POPC   C4B45682   2.572  36.730   7.350
 6800POPC   NC345683   6.619  24.512   5.550
 6800POPC   PO445684   6.689  24.489   5.850
 6800POPC   GL145685   6.656  24.539   6.150
 6800POPC   GL245686   6.730  24.403   6.150
 6800POPC   C1A45687   6.641  24.479   6.450
 6800POPC   D2A45688   6.606  24.479   6.750
 6800POPC   C3A45689   6.602  24.460   7.050
 6800POPC   C4A45690   6.659  24.486   7.350
 6800POPC   C1B45691   6.927  24.422   6.450
 6800POPC   C2B45692   6.881  24.398   6.750
 6800POPC   C3B45693   6.833  24.391   7.050
 6800POPC   C4B45694   6.914  24.372   7.350
 6801POPC   NC345695  36.895  43.102   5.550
 6801POPC   PO445696  36.876  43.149   5.850
 6801POPC   GL145697  36.917  43.080   6.150
 6801POPC   GL245698  36.815  42.997   6.150
 6801POPC   C1A45699  36.897  43.104   6.450
 6801POPC   D2A45700  36.937  43.149   6.750
 6801POPC   C3A45701  36.947  43.097   7.050
 6801POPC   C4A45702  36.913  43.093   7.350
 6801POPC   C1B45703  36.815  42.926   6.450
 6801POPC   C2B45704  36.852  42.919   6.750
 6801POPC   C3B45705  36.845  42.884   7.050
 6801POPC   C4B45706  36.810  42.864   7.350
 6802POPC   NC345707  34.601  36.104   5.550
 6802POPC   PO445708  34.527  36.177   5.850
 6802POPC   GL145709  34.543  36.086   6.150
 6802POPC   GL245710  34.507  36.043   6.150
 6802POPC   C1A45711  34.544  36.155   6.450
 6802POPC   D2A45712  34.596  36.109   6.750
 6802POPC   C3A45713  34.561  36.133   7.050
 6802POPC   C4A45714  34.573  36.152   7.350
 6802POPC   C1B45715  34.313  36.081   6.450
 6802POPC   C2B45716  34.305  35.990   6.750
 6802POPC   C3B45717  34.340  36.026   7.050
 6802POPC   C4B45718  34.309  35.996   7.350
 6803POPC   NC345719   0.437   5.873   5.550
 6803POPC   PO445720   0.435   5.912   5.850
 6803POPC   GL145721   0.421   5.867   6.150
 6803POPC   GL245722   0.468   5.802   6.150
 6803POPC   C1A45723   0.473   5.854   6.450
 6803POPC   D2A45724   0.472   5.849   6.750
 6803POPC   C3A45725   0.475   5.871   7.050
 6803POPC   C4A45726   0.446   5.828   7.350
 6803POPC   C1B45727   0.617   5.641   6.450
 6803POPC   C2B45728   0.598   5.650   6.750
 6803POPC   C3B45729   0.626   5.674   7.050
 6803POPC   C4B45730   0.602   5.690   7.350
 6804POPC   NC345731  33.793  43.095   5.550
 6804POPC   PO445732  33.763  43.096   5.850
 6804POPC   GL145733  33.824  43.142   6.150
 6804POPC   GL245734  33.764  42.948   6.150
 6804POPC   C1A45735  33.785  43.071   6.450
 6804POPC   D2A45736  33.756  43.093   6.750
 6804POPC   C3A45737  33.758  43.068   7.050
 6804POPC   C4A45738  33.825  43.128   7.350
 6804POPC   C1B45739  33.718  42.882   6.450
 6804POPC   C2B45740  33.742  42.929   6.750
 6804POPC   C3B45741  33.670  42.924   7.050
 6804POPC   C4B45742  33.670  42.840   7.350
 6805POPC   NC345743  26.000  39.255   5.550
 6805POPC   PO445744  26.001  39.268   5.850
 6805POPC   GL145745  26.077  39.224   6.150
 6805POPC   GL245746  25.923  39.260   6.150
 6805POPC   C1A45747  26.011  39.267   6.450
 6805POPC   D2A45748  26.016  39.237   6.750
 6805POPC   C3A45749  26.075  39.213   7.050
 6805POPC   C4A45750  26.011  39.280   7.350
 6805POPC   C1B45751  25.754  39.288   6.450
 6805POPC   C2B45752  25.775  39.292   6.750
 6805POPC   C3B45753  25.779  39.277   7.050
 6805POPC   C4B45754  25.781  39.283   7.350
 6806POPC   NC345755  31.432  44.663   5.550
 6806POPC   PO445756  31.431  44.683   5.850
 6806POPC   GL145757  31.502  44.613   6.150
 6806POPC   GL245758  31.631  44.733   6.150
 6806POPC   C1A45759  31.491  44.641   6.450
 6806POPC   D2A45760  31.509  44.645   6.750
 6806POPC   C3A45761  31.455  44.634   7.050
 6806POPC   C4A45762  31.498  44.687   7.350
 6806POPC   C1B45763  31.727  44.785   6.450
 6806POPC   C2B45764  31.744  44.738   6.750
 6806POPC   C3B45765  31.726  44.800   7.050
 6806POPC   C4B45766  31.657  44.764   7.350
 6807POPC   NC345767  43.159  44.651   5.550
 6807POPC   PO445768  43.125  44.696   5.850
 6807POPC   GL145769  43.134  44.684   6.150
 6807POPC   GL245770  42.965  44.605   6.150
 6807POPC   C1A45771  43.061  44.688   6.450
 6807POPC   D2A45772  43.143  44.650   6.750
 6807POPC   C3A45773  43.121  44.662   7.050
 6807POPC   C4A45774  43.066  44.643   7.350
 6807POPC   C1B45775  42.874  44.567   6.450
 6807POPC   C2B45776  42.943  44.569   6.750
 6807POPC   C3B45777  42.863  44.554   7.050
 6807POPC   C4B45778  42.914  44.492   7.350
 6808POPC   NC345779  40.778  42.344   5.550
 6808POPC   PO445780  40.798  42.343   5.850
 6808POPC   GL145781  40.756  42.325   6.150
 6808POPC   GL245782  40.887  42.459   6.150
 6808POPC   C1A45783  40.780  42.320   6.450
 6808POPC   D2A45784  40.799  42.322   6.750
 6808POPC   C3A45785  40.734  42.309   7.050
 6808POPC   C4A45786  40.811  42.363   7.350
 6808POPC   C1B45787  40.940  42.546   6.450
 6808POPC   C2B45788  40.901  42.564   6.750
 6808POPC   C3B45789  40.876  42.569   7.050
 6808POPC   C4B45790  40.884  42.541   7.350
 6809POPC   NC345791  19.789  20.652   5.550
 6809POPC   PO445792  19.840  20.608   5.850
 6809POPC   GL145793  19.820  20.579   6.150
 6809POPC   GL245794  19.938  20.732   6.150
 6809POPC   C1A45795  19.833  20.582   6.450
 6809POPC   D2A45796  19.806  20.624   6.750
 6809POPC   C3A45797  19.817  20.592   7.050
 6809POPC   C4A45798  19.804  20.575   7.350
 6809POPC   C1B45799  20.029  20.747   6.450
 6809POPC   C2B45800  19.963  20.754   6.750
 6809POPC   C3B45801  19.982  20.831   7.050
 6809POPC   C4B45802  19.984  20.819   7.350
 6810POPC   NC345803  15.964  24.518   5.550
 6810POPC   PO445804  15.923  24.509   5.850
 6810POPC   GL145805  16.003  24.453   6.150
 6810POPC   GL245806  15.964  24.325   6.150
 6810POPC   C1A45807  15.980  24.493   6.450
 6810POPC   D2A45808  15.971  24.532   6.750
 6810POPC   C3A45809  15.906  24.478   7.050
 6810POPC   C4A45810  15.952  24.488   7.350
 6810POPC   C1B45811  15.829  24.234   6.450
 6810POPC   C2B45812  15.883  24.303   6.750
 6810POPC   C3B45813  15.861  24.261   7.050
 6810POPC   C4B45814  15.860  24.265   7.350
 6811POPC   NC345815  27.612  44.675   5.550
 6811POPC   PO445816  27.558  44.684   5.850
 6811POPC   GL145817  27.616  44.647   6.150
 6811POPC   GL245818  27.702  44.746   6.150
 6811POPC   C1A45819  27.585  44.688   6.450
 6811POPC   D2A45820  27.606  44.647   6.750
 6811POPC   C3A45821  27.573  44.693   7.050
 6811POPC   C4A45822  27.615  44.699   7.350
 6811POPC   C1B45823  27.851  44.747   6.450
 6811POPC   C2B45824  27.818  44.763   6.750
 6811POPC   C3B45825  27.833  44.757   7.050
 6811POPC   C4B45826  27.852  44.806   7.350
 6812POPC   NC345827  43.915  16.685   5.550
 6812POPC   PO445828  43.921  16.735   5.850
 6812POPC   GL145829  43.847  16.764   6.150
 6812POPC   GL245830  43.792  16.721   6.150
 6812POPC   C1A45831  43.906  16.724   6.450
 6812POPC   D2A45832  43.846  16.697   6.750
 6812POPC   C3A45833  43.895  16.702   7.050
 6812POPC   C4A45834  43.864  16.751   7.350
 6812POPC   C1B45835  43.637  16.755   6.450
 6812POPC   C2B45836  43.642  16.827   6.750
 6812POPC   C3B45837  43.610  16.772   7.050
 6812POPC   C4B45838  43.623  16.826   7.350
 6813POPC   NC345839  10.523  19.063   5.550
 6813POPC   PO445840  10.518  19.071   5.850
 6813POPC   GL145841  10.550  19.025   6.150
 6813POPC   GL245842  10.386  19.109   6.150
 6813POPC   C1A45843  10.566  19.050   6.450
 6813POPC   D2A45844  10.528  19.032   6.750
 6813POPC   C3A45845  10.537  19.019   7.050
 6813POPC   C4A45846  10.541  19.063   7.350
 6813POPC   C1B45847  10.303  19.087   6.450
 6813POPC   C2B45848  10.245  19.161   6.750
 6813POPC   C3B45849  10.320  19.176   7.050
 6813POPC   C4B45850  10.255  19.107   7.350
 6814POPC   NC345851  39.958  20.599   5.550
 6814POPC   PO445852  39.964  20.590   5.850
 6814POPC   GL145853  40.011  20.567   6.150
 6814POPC   GL245854  40.151  20.635   6.150
 6814POPC   C1A45855  39.988  20.587   6.450
 6814POPC   D2A45856  39.983  20.628   6.750
 6814POPC   C3A45857  39.965  20.616   7.050
 6814POPC   C4A45858  40.048  20.579   7.350
 6814POPC   C1B45859  40.183  20.762   6.450
 6814POPC   C2B45860  40.234  20.761   6.750
 6814POPC   C3B45861  40.186  20.700   7.050
 6814POPC   C4B45862  40.233  20.727   7.350
 6815POPC   NC345863  12.029  19.847   5.550
 6815POPC   PO445864  12.115  19.820   5.850
 6815POPC   GL145865  12.034  19.788   6.150
 6815POPC   GL245866  11.944  19.845   6.150
 6815POPC   C1A45867  12.111  19.851   6.450
 6815POPC   D2A45868  12.036  19.869   6.750
 6815POPC   C3A45869  12.099  19.837   7.050
 6815POPC   C4A45870  12.051  19.808   7.350
 6815POPC   C1B45871  11.844  19.884   6.450
 6815POPC   C2B45872  11.818  19.925   6.750
 6815POPC   C3B45873  11.869  19.892   7.050
 6815POPC   C4B45874  11.840  19.861   7.350
 6816POPC   NC345875   0.392  32.231   5.550
 6816POPC   PO445876   0.427  32.202   5.850
 6816POPC   GL145877   0.425  32.282   6.150
 6816POPC   GL245878   0.578  32.373   6.150
 6816POPC   C1A45879   0.426  32.211   6.450
 6816POPC   D2A45880   0.400  32.244   6.750
 6816POPC   C3A45881   0.466  32.249   7.050
 6816POPC   C4A45882   0.459  32.261   7.350
 6816POPC   C1B45883   0.655  32.412   6.450
 6816POPC   C2B45884   0.662  32.390   6.750
 6816POPC   C3B45885   0.594  32.392   7.050
 6816POPC   C4B45886   0.602  32.447   7.350
 6817POPC   NC345887  42.327  26.831   5.550
 6817POPC   PO445888  42.335  26.833   5.850
 6817POPC   GL145889  42.301  26.805   6.150
 6817POPC   GL245890  42.208  26.726   6.150
 6817POPC   C1A45891  42.363  26.814   6.450
 6817POPC   D2A45892  42.379  26.789   6.750
 6817POPC   C3A45893  42.366  26.825   7.050
 6817POPC   C4A45894  42.340  26.769   7.350
 6817POPC   C1B45895  42.128  26.683   6.450
 6817POPC   C2B45896  42.078  26.750   6.750
 6817POPC   C3B45897  42.130  26.708   7.050
 6817POPC   C4B45898  42.093  26.731   7.350
 6818POPC   NC345899  38.427   4.305   5.550
 6818POPC   PO445900  38.442   4.289   5.850
 6818POPC   GL145901  38.479   4.345   6.150
 6818POPC   GL245902  38.323   4.301   6.150
 6818POPC   C1A45903  38.499   4.284   6.450
 6818POPC   D2A45904  38.453   4.340   6.750
 6818POPC   C3A45905  38.480   4.335   7.050
 6818POPC   C4A45906  38.450   4.323   7.350
 6818POPC   C1B45907  38.206   4.179   6.450
 6818POPC   C2B45908  38.201   4.256   6.750
 6818POPC   C3B45909  38.256   4.227   7.050
 6818POPC   C4B45910  38.250   4.191   7.350
 6819POPC   NC345911  23.736  34.619   5.550
 6819POPC   PO445912  23.674  34.622   5.850
 6819POPC   GL145913  23.744  34.571   6.150
 6819POPC   GL245914  23.638  34.657   6.150
 6819POPC   C1A45915  23.704  34.596   6.450
 6819POPC   D2A45916  23.693  34.617   6.750
 6819POPC   C3A45917  23.709  34.550   7.050
 6819POPC   C4A45918  23.686  34.546   7.350
 6819POPC   C1B45919  23.603  34.762   6.450
 6819POPC   C2B45920  23.554  34.765   6.750
 6819POPC   C3B45921  23.539  34.814   7.050
 6819POPC   C4B45922  23.589  34.786   7.350
 6820POPC   NC345923   1.977  39.203   5.550
 6820POPC   PO445924   2.031  39.200   5.850
 6820POPC   GL145925   1.982  39.226   6.150
 6820POPC   GL245926   1.954  39.327   6.150
 6820POPC   C1A45927   1.945  39.182   6.450
 6820POPC   D2A45928   2.023  39.230   6.750
 6820POPC   C3A45929   1.998  39.184   7.050
 6820POPC   C4A45930   1.961  39.199   7.350
 6820POPC   C1B45931   1.846  39.433   6.450
 6820POPC   C2B45932   1.799  39.430   6.750
 6820POPC   C3B45933   1.888  39.413   7.050
 6820POPC   C4B45934   1.888  39.451   7.350
 6821POPC   NC345935  13.660  13.650   5.550
 6821POPC   PO445936  13.607  13.611   5.850
 6821POPC   GL145937  13.604  13.621   6.150
 6821POPC   GL245938  13.688  13.539   6.150
 6821POPC   C1A45939  13.654  13.644   6.450
 6821POPC   D2A45940  13.628  13.640   6.750
 6821POPC   C3A45941  13.598  13.588   7.050
 6821POPC   C4A45942  13.630  13.614   7.350
 6821POPC   C1B45943  13.789  13.429   6.450
 6821POPC   C2B45944  13.776  13.478   6.750
 6821POPC   C3B45945  13.824  13.441   7.050
 6821POPC   C4B45946  13.829  13.443   7.350
 6822POPC   NC345947  35.348  15.993   5.550
 6822POPC   PO445948  35.356  15.951   5.850
 6822POPC   GL145949  35.370  15.958   6.150
 6822POPC   GL245950  35.230  15.931   6.150
 6822POPC   C1A45951  35.376  15.975   6.450
 6822POPC   D2A45952  35.308  15.939   6.750
 6822POPC   C3A45953  35.353  15.921   7.050
 6822POPC   C4A45954  35.350  16.004   7.350
 6822POPC   C1B45955  35.081  15.798   6.450
 6822POPC   C2B45956  35.129  15.796   6.750
 6822POPC   C3B45957  35.111  15.868   7.050
 6822POPC   C4B45958  35.177  15.817   7.350
 6823POPC   NC345959  33.063  13.582   5.550
 6823POPC   PO445960  33.069  13.584   5.850
 6823POPC   GL145961  33.014  13.597   6.150
 6823POPC   GL245962  32.882  13.689   6.150
 6823POPC   C1A45963  33.071  13.628   6.450
 6823POPC   D2A45964  33.013  13.658   6.750
 6823POPC   C3A45965  32.997  13.647   7.050
 6823POPC   C4A45966  32.977  13.622   7.350
 6823POPC   C1B45967  32.787  13.763   6.450
 6823POPC   C2B45968  32.812  13.782   6.750
 6823POPC   C3B45969  32.858  13.804   7.050
 6823POPC   C4B45970  32.802  13.762   7.350
 6824POPC   NC345971  20.591  32.980   5.550
 6824POPC   PO445972  20.633  33.028   5.850
 6824POPC   GL145973  20.580  32.997   6.150
 6824POPC   GL245974  20.592  32.932   6.150
 6824POPC   C1A45975  20.569  32.982   6.450
 6824POPC   D2A45976  20.659  33.050   6.750
 6824POPC   C3A45977  20.565  33.032   7.050
 6824POPC   C4A45978  20.565  33.051   7.350
 6824POPC   C1B45979  20.598  32.786   6.450
 6824POPC   C2B45980  20.568  32.774   6.750
 6824POPC   C3B45981  20.569  32.782   7.050
 6824POPC   C4B45982  20.596  32.778   7.350
 6825POPC   NC345983  38.501  31.457   5.550
 6825POPC   PO445984  38.407  31.514   5.850
 6825POPC   GL145985  38.409  31.507   6.150
 6825POPC   GL245986  38.463  31.626   6.150
 6825POPC   C1A45987  38.457  31.491   6.450
 6825POPC   D2A45988  38.466  31.483   6.750
 6825POPC   C3A45989  38.426  31.427   7.050
 6825POPC   C4A45990  38.484  31.422   7.350
 6825POPC   C1B45991  38.573  31.670   6.450
 6825POPC   C2B45992  38.556  31.656   6.750
 6825POPC   C3B45993  38.559  31.716   7.050
 6825POPC   C4B45994  38.513  31.717   7.350
 6826POPC   NC345995  20.577  15.149   5.550
 6826POPC   PO445996  20.621  15.180   5.850
 6826POPC   GL145997  20.613  15.139   6.150
 6826POPC   GL245998  20.518  15.278   6.150
 6826POPC   C1A45999  20.643  15.221   6.450
 6826POPC   D2A46000  20.603  15.227   6.750
 6826POPC   C3A46001  20.615  15.188   7.050
 6826POPC   C4A46002  20.614  15.156   7.350
 6826POPC   C1B46003  20.521  15.394   6.450
 6826POPC   C2B46004  20.550  15.461   6.750
 6826POPC   C3B46005  20.475  15.419   7.050
 6826POPC   C4B46006  20.532  15.375   7.350
 6827POPC   NC346007  29.150  22.900   5.550
 6827POPC   PO446008  29.168  22.925   5.850
 6827POPC   GL146009  29.101  22.975   6.150
 6827POPC   GL246010  29.203  22.995   6.150
 6827POPC   C1A46011  29.187  22.932   6.450
 6827POPC   D2A46012  29.136  22.891   6.750
 6827POPC   C3A46013  29.121  22.938   7.050
 6827POPC   C4A46014  29.187  22.917   7.350
 6827POPC   C1B46015  29.280  23.135   6.450
 6827POPC   C2B46016  29.296  23.124   6.750
 6827POPC   C3B46017  29.303  23.186   7.050
 6827POPC   C4B46018  29.333  23.153   7.350
 6828POPC   NC346019   8.983  37.702   5.550
 6828POPC   PO446020   9.021  37.664   5.850
 6828POPC   GL146021   8.956  37.667   6.150
 6828POPC   GL246022   9.039  37.595   6.150
 6828POPC   C1A46023   9.015  37.642   6.450
 6828POPC   D2A46024   8.980  37.647   6.750
 6828POPC   C3A46025   9.008  37.700   7.050
 6828POPC   C4A46026   8.955  37.723   7.350
 6828POPC   C1B46027   9.101  37.461   6.450
 6828POPC   C2B46028   9.121  37.475   6.750
 6828POPC   C3B46029   9.122  37.479   7.050
 6828POPC   C4B46030   9.029  37.487   7.350
 6829POPC   NC346031  32.234  38.414   5.550
 6829POPC   PO446032  32.220  38.494   5.850
 6829POPC   GL146033  32.285  38.441   6.150
 6829POPC   GL246034  32.365  38.388   6.150
 6829POPC   C1A46035  32.295  38.457   6.450
 6829POPC   D2A46036  32.218  38.411   6.750
 6829POPC   C3A46037  32.209  38.448   7.050
 6829POPC   C4A46038  32.276  38.424   7.350
 6829POPC   C1B46039  32.424  38.294   6.450
 6829POPC   C2B46040  32.424  38.294   6.750
 6829POPC   C3B46041  32.425  38.311   7.050
 6829POPC   C4B46042  32.449  38.378   7.350
 6830POPC   NC346043  40.770  28.325   5.550
 6830POPC   PO446044  40.825  28.350   5.850
 6830POPC   GL146045  40.797  28.385   6.150
 6830POPC   GL246046  40.777  28.473   6.150
 6830POPC   C1A46047  40.805  28.327   6.450
 6830POPC   D2A46048  40.764  28.379   6.750
 6830POPC   C3A46049  40.754  28.365   7.050
 6830POPC   C4A46050  40.777  28.336   7.350
 6830POPC   C1B46051  40.807  28.663   6.450
 6830POPC   C2B46052  40.786  28.605   6.750
 6830POPC   C3B46053  40.752  28.659   7.050
 6830POPC   C4B46054  40.783  28.663   7.350
 6831POPC   NC346055  39.248  37.690   5.550
 6831POPC   PO446056  39.230  37.660   5.850
 6831POPC   GL146057  39.186  37.724   6.150
 6831POPC   GL246058  39.128  37.764   6.150
 6831POPC   C1A46059  39.201  37.655   6.450
 6831POPC   D2A46060  39.207  37.671   6.750
 6831POPC   C3A46061  39.252  37.694   7.050
 6831POPC   C4A46062  39.251  37.673   7.350
 6831POPC   C1B46063  39.089  37.888   6.450
 6831POPC   C2B46064  39.115  37.923   6.750
 6831POPC   C3B46065  39.107  37.924   7.050
 6831POPC   C4B46066  39.025  37.925   7.350
 6832POPC   NC346067  18.271  20.643   5.550
 6832POPC   PO446068  18.310  20.597   5.850
 6832POPC   GL146069  18.271  20.610   6.150
 6832POPC   GL246070  18.193  20.533   6.150
 6832POPC   C1A46071  18.247  20.582   6.450
 6832POPC   D2A46072  18.319  20.613   6.750
 6832POPC   C3A46073  18.249  20.573   7.050
 6832POPC   C4A46074  18.257  20.623   7.350
 6832POPC   C1B46075  18.129  20.400   6.450
 6832POPC   C2B46076  18.220  20.347   6.750
 6832POPC   C3B46077  18.159  20.364   7.050
 6832POPC   C4B46078  18.199  20.342   7.350
 6833POPC   NC346079  18.328  40.752   5.550
 6833POPC   PO446080  18.325  40.821   5.850
 6833POPC   GL146081  18.241  40.808   6.150
 6833POPC   GL246082  18.430  40.733   6.150
 6833POPC   C1A46083  18.283  40.777   6.450
 6833POPC   D2A46084  18.309  40.782   6.750
 6833POPC   C3A46085  18.327  40.821   7.050
 6833POPC   C4A46086  18.276  40.781   7.350
 6833POPC   C1B46087  18.541  40.628   6.450
 6833POPC   C2B46088  18.490  40.620   6.750
 6833POPC   C3B46089  18.488  40.601   7.050
 6833POPC   C4B46090  18.529  40.646   7.350
 6834POPC   NC346091  33.772  42.359   5.550
 6834POPC   PO446092  33.833  42.341   5.850
 6834POPC   GL146093  33.786  42.320   6.150
 6834POPC   GL246094  33.786  42.204   6.150
 6834POPC   C1A46095  33.842  42.302   6.450
 6834POPC   D2A46096  33.830  42.337   6.750
 6834POPC   C3A46097  33.785  42.380   7.050
 6834POPC   C4A46098  33.842  42.355   7.350
 6834POPC   C1B46099  33.739  42.106   6.450
 6834POPC   C2B46100  33.729  42.102   6.750
 6834POPC   C3B46101  33.740  42.147   7.050
 6834POPC   C4B46102  33.739  42.059   7.350
 6835POPC   NC346103  22.924   7.396   5.550
 6835POPC   PO446104  22.900   7.464   5.850
 6835POPC   GL146105  22.977   7.428   6.150
 6835POPC   GL246106  22.843   7.372   6.150
 6835POPC   C1A46107  22.890   7.376   6.450
 6835POPC   D2A46108  22.957   7.447   6.750
 6835POPC   C3A46109  22.966   7.454   7.050
 6835POPC   C4A46110  22.964   7.449   7.350
 6835POPC   C1B46111  22.658   7.398   6.450
 6835POPC   C2B46112  22.702   7.356   6.750
 6835POPC   C3B46113  22.726   7.404   7.050
 6835POPC   C4B46114  22.702   7.417   7.350
 6836POPC   NC346115  36.939  41.538   5.550
 6836POPC   PO446116  36.928  41.566   5.850
 6836POPC   GL146117  36.951  41.551   6.150
 6836POPC   GL246118  36.756  41.615   6.150
 6836POPC   C1A46119  36.866  41.554   6.450
 6836POPC   D2A46120  36.865  41.577   6.750
 6836POPC   C3A46121  36.934  41.517   7.050
 6836POPC   C4A46122  36.896  41.529   7.350
 6836POPC   C1B46123  36.623  41.623   6.450
 6836POPC   C2B46124  36.633  41.665   6.750
 6836POPC   C3B46125  36.673  41.621   7.050
 6836POPC   C4B46126  36.621  41.656   7.350
 6837POPC   NC346127  34.623  20.592   5.550
 6837POPC   PO446128  34.576  20.563   5.850
 6837POPC   GL146129  34.529  20.644   6.150
 6837POPC   GL246130  34.511  20.619   6.150
 6837POPC   C1A46131  34.610  20.574   6.450
 6837POPC   D2A46132  34.604  20.606   6.750
 6837POPC   C3A46133  34.563  20.563   7.050
 6837POPC   C4A46134  34.609  20.583   7.350
 6837POPC   C1B46135  34.353  20.684   6.450
 6837POPC   C2B46136  34.315  20.709   6.750
 6837POPC   C3B46137  34.305  20.707   7.050
 6837POPC   C4B46138  34.334  20.742   7.350
 6838POPC   NC346139  34.593   3.524   5.550
 6838POPC   PO446140  34.588   3.499   5.850
 6838POPC   GL146141  34.571   3.519   6.150
 6838POPC   GL246142  34.622   3.678   6.150
 6838POPC   C1A46143  34.559   3.500   6.450
 6838POPC   D2A46144  34.527   3.534   6.750
 6838POPC   C3A46145  34.621   3.513   7.050
 6838POPC   C4A46146  34.611   3.554   7.350
 6838POPC   C1B46147  34.699   3.764   6.450
 6838POPC   C2B46148  34.777   3.692   6.750
 6838POPC   C3B46149  34.735   3.765   7.050
 6838POPC   C4B46150  34.723   3.727   7.350
 6839POPC   NC346151  19.794  40.010   5.550
 6839POPC   PO446152  19.854  40.021   5.850
 6839POPC   GL146153  19.838  40.010   6.150
 6839POPC   GL246154  19.950  39.962   6.150
 6839POPC   C1A46155  19.819  40.025   6.450
 6839POPC   D2A46156  19.859  40.031   6.750
 6839POPC   C3A46157  19.838  40.021   7.050
 6839POPC   C4A46158  19.819  39.974   7.350
 6839POPC   C1B46159  19.968  39.844   6.450
 6839POPC   C2B46160  19.989  39.824   6.750
 6839POPC   C3B46161  20.012  39.811   7.050
 6839POPC   C4B46162  20.007  39.820   7.350
 6840POPC   NC346163  22.195  13.586   5.550
 6840POPC   PO446164  22.209  13.599   5.850
 6840POPC   GL146165  22.195  13.655   6.150
 6840POPC   GL246166  22.304  13.677   6.150
 6840POPC   C1A46167  22.136  13.634   6.450
 6840POPC   D2A46168  22.205  13.607   6.750
 6840POPC   C3A46169  22.205  13.616   7.050
 6840POPC   C4A46170  22.183  13.601   7.350
 6840POPC   C1B46171  22.393  13.774   6.450
 6840POPC   C2B46172  22.349  13.755   6.750
 6840POPC   C3B46173  22.350  13.757   7.050
 6840POPC   C4B46174  22.395  13.704   7.350
 6841POPC   NC346175  16.687  14.396   5.550
 6841POPC   PO446176  16.751  14.362   5.850
 6841POPC   GL146177  16.777  14.431   6.150
 6841POPC   GL246178  16.631  14.509   6.150
 6841POPC   C1A46179  16.683  14.366   6.450
 6841POPC   D2A46180  16.733  14.385   6.750
 6841POPC   C3A46181  16.703  14.424   7.050
 6841POPC   C4A46182  16.773  14.382   7.350
 6841POPC   C1B46183  16.562  14.573   6.450
 6841POPC   C2B46184  16.586  14.544   6.750
 6841POPC   C3B46185  16.579  14.535   7.050
 6841POPC   C4B46186  16.530  14.551   7.350
 6842POPC   NC346187  12.070  21.360   5.550
 6842POPC   PO446188  12.080  21.341   5.850
 6842POPC   GL146189  12.085  21.426   6.150
 6842POPC   GL246190  11.982  21.310   6.150
 6842POPC   C1A46191  12.063  21.416   6.450
 6842POPC   D2A46192  12.080  21.409   6.750
 6842POPC   C3A46193  12.118  21.418   7.050
 6842POPC   C4A46194  12.080  21.337   7.350
 6842POPC   C1B46195  11.884  21.272   6.450
 6842POPC   C2B46196  11.857  21.263   6.750
 6842POPC   C3B46197  11.825  21.331   7.050
 6842POPC   C4B46198  11.819  21.356   7.350
 6843POPC   NC346199  41.510  37.642   5.550
 6843POPC   PO446200  41.534  37.666   5.850
 6843POPC   GL146201  41.582  37.721   6.150
 6843POPC   GL246202  41.545  37.834   6.150
 6843POPC   C1A46203  41.542  37.667   6.450
 6843POPC   D2A46204  41.580  37.655   6.750
 6843POPC   C3A46205  41.539  37.696   7.050
 6843POPC   C4A46206  41.601  37.644   7.350
 6843POPC   C1B46207  41.535  37.964   6.450
 6843POPC   C2B46208  41.493  37.905   6.750
 6843POPC   C3B46209  41.501  37.929   7.050
 6843POPC   C4B46210  41.439  37.958   7.350
 6844POPC   NC346211  43.839   4.273   5.550
 6844POPC   PO446212  43.882   4.286   5.850
 6844POPC   GL146213  43.855   4.297   6.150
 6844POPC   GL246214  43.924   4.188   6.150
 6844POPC   C1A46215  43.919   4.286   6.450
 6844POPC   D2A46216  43.936   4.330   6.750
 6844POPC   C3A46217  43.901   4.313   7.050
 6844POPC   C4A46218  43.906   4.322   7.350
 6844POPC   C1B46219  44.013   4.148   6.450
 6844POPC   C2B46220  44.000   4.089   6.750
 6844POPC   C3B46221  44.046   4.121   7.050
 6844POPC   C4B46222  44.037   4.080   7.350
 6845POPC   NC346223   1.207  37.695   5.550
 6845POPC   PO446224   1.216  37.633   5.850
 6845POPC   GL146225   1.194  37.667   6.150
 6845POPC   GL246226   1.160  37.748   6.150
 6845POPC   C1A46227   1.174  37.717   6.450
 6845POPC   D2A46228   1.234  37.650   6.750
 6845POPC   C3A46229   1.173  37.722   7.050
 6845POPC   C4A46230   1.195  37.666   7.350
 6845POPC   C1B46231   1.105  37.921   6.450
 6845POPC   C2B46232   1.146  37.909   6.750
 6845POPC   C3B46233   1.129  37.948   7.050
 6845POPC   C4B46234   1.151  37.903   7.350
 6846POPC   NC346235   4.294  28.355   5.550
 6846POPC   PO446236   4.349  28.340   5.850
 6846POPC   GL146237   4.363  28.371   6.150
 6846POPC   GL246238   4.355  28.515   6.150
 6846POPC   C1A46239   4.334  28.370   6.450
 6846POPC   D2A46240   4.316  28.384   6.750
 6846POPC   C3A46241   4.299  28.336   7.050
 6846POPC   C4A46242   4.305  28.370   7.350
 6846POPC   C1B46243   4.443  28.606   6.450
 6846POPC   C2B46244   4.460  28.523   6.750
 6846POPC   C3B46245   4.461  28.517   7.050
 6846POPC   C4B46246   4.458  28.603   7.350
 6847POPC   NC346247  26.809  22.118   5.550
 6847POPC   PO446248  26.843  22.204   5.850
 6847POPC   GL146249  26.853  22.148   6.150
 6847POPC   GL246250  26.961  22.185   6.150
 6847POPC   C1A46251  26.792  22.210   6.450
 6847POPC   D2A46252  26.769  22.116   6.750
 6847POPC   C3A46253  26.857  22.113   7.050
 6847POPC   C4A46254  26.847  22.193   7.350
 6847POPC   C1B46255  27.075  22.295   6.450
 6847POPC   C2B46256  27.008  22.275   6.750
 6847POPC   C3B46257  26.997  22.294   7.050
 6847POPC   C4B46258  27.090  22.305   7.350
 6848POPC   NC346259  12.050   8.192   5.550
 6848POPC   PO446260  12.095   8.238   5.850
 6848POPC   GL146261  12.057   8.189   6.150
 6848POPC   GL246262  11.975   8.141   6.150
 6848POPC   C1A46263  12.101   8.218   6.450
 6848POPC   D2A46264  12.093   8.213   6.750
 6848POPC   C3A46265  12.108   8.151   7.050
 6848POPC   C4A46266  12.080   8.163   7.350
 6848POPC   C1B46267  11.926   8.003   6.450
 6848POPC   C2B46268  11.939   8.000   6.750
 6848POPC   C3B46269  11.936   7.978   7.050
 6848POPC   C4B46270  11.899   7.983   7.350
 6849POPC   NC346271  23.693  25.232   5.550
 6849POPC   PO446272  23.724  25.312   5.850
 6849POPC   GL146273  23.762  25.248   6.150
 6849POPC   GL246274  23.635  25.300   6.150
 6849POPC   C1A46275  23.739  25.262   6.450
 6849POPC   D2A46276  23.688  25.254   6.750
 6849POPC   C3A46277  23.674  25.267   7.050
 6849POPC   C4A46278  23.672  25.255   7.350
 6849POPC   C1B46279  23.545  25.358   6.450
 6849POPC   C2B46280  23.479  25.408   6.750
 6849POPC   C3B46281  23.546  25.399   7.050
 6849POPC   C4B46282  23.503  25.378   7.350
 6850POPC   NC346283   8.938  19.061   5.550
 6850POPC   PO446284   8.987  19.035   5.850
 6850POPC   GL146285   8.974  19.068   6.150
 6850POPC   GL246286   8.984  18.908   6.150
 6850POPC   C1A46287   8.968  19.057   6.450
 6850POPC   D2A46288   9.016  19.049   6.750
 6850POPC   C3A46289   8.999  19.022   7.050
 6850POPC   C4A46290   8.997  19.023   7.350
 6850POPC   C1B46291   9.058  18.846   6.450
 6850POPC   C2B46292   9.079  18.782   6.750
 6850POPC   C3B46293   9.061  18.849   7.050
 6850POPC   C4B46294   9.057  18.868   7.350
 6851POPC   NC346295  26.076   5.884   5.550
 6851POPC   PO446296  26.060   5.878   5.850
 6851POPC   GL146297  26.016   5.821   6.150
 6851POPC   GL246298  26.122   5.998   6.150
 6851POPC   C1A46299  26.036   5.878   6.450
 6851POPC   D2A46300  26.091   5.819   6.750
 6851POPC   C3A46301  26.029   5.824   7.050
 6851POPC   C4A46302  26.076   5.898   7.350
 6851POPC   C1B46303  26.148   6.103   6.450
 6851POPC   C2B46304  26.221   6.084   6.750
 6851POPC   C3B46305  26.216   6.088   7.050
 6851POPC   C4B46306  26.228   6.034   7.350
 6852POPC   NC346307  22.899  33.756   5.550
 6852POPC   PO446308  22.964  33.803   5.850
 6852POPC   GL146309  22.926  33.842   6.150
 6852POPC   GL246310  22.958  33.883   6.150
 6852POPC   C1A46311  22.902  33.837   6.450
 6852POPC   D2A46312  22.966  33.783   6.750
 6852POPC   C3A46313  22.908  33.813   7.050
 6852POPC   C4A46314  22.897  33.755   7.350
 6852POPC   C1B46315  22.954  34.072   6.450
 6852POPC   C2B46316  22.952  34.089   6.750
 6852POPC   C3B46317  22.959  34.017   7.050
 6852POPC   C4B46318  22.976  34.016   7.350
 6853POPC   NC346319   2.756  31.442   5.550
 6853POPC   PO446320   2.795  31.435   5.850
 6853POPC   GL146321   2.724  31.439   6.150
 6853POPC   GL246322   2.685  31.584   6.150
 6853POPC   C1A46323   2.717  31.438   6.450
 6853POPC   D2A46324   2.781  31.484   6.750
 6853POPC   C3A46325   2.792  31.464   7.050
 6853POPC   C4A46326   2.732  31.522   7.350
 6853POPC   C1B46327   2.661  31.661   6.450
 6853POPC   C2B46328   2.574  31.700   6.750
 6853POPC   C3B46329   2.620  31.654   7.050
 6853POPC   C4B46330   2.666  31.703   7.350
 6854POPC   NC346331  31.447  34.625   5.550
 6854POPC   PO446332  31.520  34.592   5.850
 6854POPC   GL146333  31.467  34.617   6.150
 6854POPC   GL246334  31.335  34.551   6.150
 6854POPC   C1A46335  31.435  34.618   6.450
 6854POPC   D2A46336  31.511  34.571   6.750
 6854POPC   C3A46337  31.470  34.575   7.050
 6854POPC   C4A46338  31.457  34.568   7.350
 6854POPC   C1B46339  31.189  34.572   6.450
 6854POPC   C2B46340  31.249  34.564   6.750
 6854POPC   C3B46341  31.252  34.560   7.050
 6854POPC   C4B46342  31.182  34.499   7.350
 6855POPC   NC346343  44.622   3.561   5.550
 6855POPC   PO446344  44.621   3.563   5.850
 6855POPC   GL146345  44.666   3.510   6.150
 6855POPC   GL246346  44.561   3.598   6.150
 6855POPC   C1A46347  44.620   3.554   6.450
 6855POPC   D2A46348  44.654   3.509   6.750
 6855POPC   C3A46349  44.711   3.557   7.050
 6855POPC   C4A46350  44.684   3.553   7.350
 6855POPC   C1B46351  44.528   3.783   6.450
 6855POPC   C2B46352  44.543   3.699   6.750
 6855POPC   C3B46353  44.542   3.732   7.050
 6855POPC   C4B46354  44.505   3.698   7.350
 6856POPC   NC346355  14.439   3.498   5.550
 6856POPC   PO446356  14.443   3.517   5.850
 6856POPC   GL146357  14.358   3.583   6.150
 6856POPC   GL246358  14.419   3.453   6.150
 6856POPC   C1A46359  14.416   3.535   6.450
 6856POPC   D2A46360  14.417   3.581   6.750
 6856POPC   C3A46361  14.383   3.565   7.050
 6856POPC   C4A46362  14.356   3.517   7.350
 6856POPC   C1B46363  14.456   3.251   6.450
 6856POPC   C2B46364  14.442   3.244   6.750
 6856POPC   C3B46365  14.404   3.301   7.050
 6856POPC   C4B46366  14.396   3.279   7.350
 6857POPC   NC346367  25.261  43.909   5.550
 6857POPC   PO446368  25.216  43.865   5.850
 6857POPC   GL146369  25.223  43.907   6.150
 6857POPC   GL246370  25.359  43.760   6.150
 6857POPC   C1A46371  25.258  43.842   6.450
 6857POPC   D2A46372  25.236  43.922   6.750
 6857POPC   C3A46373  25.279  43.878   7.050
 6857POPC   C4A46374  25.219  43.891   7.350
 6857POPC   C1B46375  25.406  43.649   6.450
 6857POPC   C2B46376  25.357  43.698   6.750
 6857POPC   C3B46377  25.362  43.707   7.050
 6857POPC   C4B46378  25.426  43.655   7.350
 6858POPC   NC346379  24.481  19.066   5.550
 6858POPC   PO446380  24.476  19.087   5.850
 6858POPC   GL146381  24.503  19.045   6.150
 6858POPC   GL246382  24.453  19.167   6.150
 6858POPC   C1A46383  24.533  19.036   6.450
 6858POPC   D2A46384  24.482  19.050   6.750
 6858POPC   C3A46385  24.530  19.011   7.050
 6858POPC   C4A46386  24.508  19.089   7.350
 6858POPC   C1B46387  24.366  19.292   6.450
 6858POPC   C2B46388  24.313  19.234   6.750
 6858POPC   C3B46389  24.340  19.211   7.050
 6858POPC   C4B46390  24.328  19.226   7.350
 6859POPC   NC346391  41.552  29.970   5.550
 6859POPC   PO446392  41.544  29.926   5.850
 6859POPC   GL146393  41.538  29.911   6.150
 6859POPC   GL246394  41.564  29.844   6.150
 6859POPC   C1A46395  41.509  29.970   6.450
 6859POPC   D2A46396  41.605  29.872   6.750
 6859POPC   C3A46397  41.510  29.930   7.050
 6859POPC   C4A46398  41.543  29.959   7.350
 6859POPC   C1B46399  41.602  29.643   6.450
 6859POPC   C2B46400  41.604  29.680   6.750
 6859POPC   C3B46401  41.600  29.636   7.050
 6859POPC   C4B46402  41.642  29.657   7.350
 6860POPC   NC346403  20.607  10.499   5.550
 6860POPC   PO446404  20.595  10.479   5.850
 6860POPC   GL146405  20.628  10.545   6.150
 6860POPC   GL246406  20.449  10.561   6.150
 6860POPC   C1A46407  20.622  10.572   6.450
 6860POPC   D2A46408  20.639  10.499   6.750
 6860POPC   C3A46409  20.583  10.509   7.050
 6860POPC   C4A46410  20.620  10.564   7.350
 6860POPC   C1B46411  20.371  10.654   6.450
 6860POPC   C2B46412  20.328  10.656   6.750
 6860POPC   C3B46413  20.377  10.635   7.050
 6860POPC   C4B46414  20.343  10.593   7.350
 6861POPC   NC346415  37.634  42.320   5.550
 6861POPC   PO446416  37.686  42.363   5.850
 6861POPC   GL146417  37.662  42.294   6.150
 6861POPC   GL246418  37.801  42.301   6.150
 6861POPC   C1A46419  37.698  42.357   6.450
 6861POPC   D2A46420  37.659  42.334   6.750
 6861POPC   C3A46421  37.631  42.343   7.050
 6861POPC   C4A46422  37.710  42.347   7.350
 6861POPC   C1B46423  37.896  42.208   6.450
 6861POPC   C2B46424  37.906  42.157   6.750
 6861POPC   C3B46425  37.930  42.204   7.050
 6861POPC   C4B46426  37.920  42.247   7.350
 6862POPC   NC346427   4.298  15.929   5.550
 6862POPC   PO446428   4.269  15.961   5.850
 6862POPC   GL146429   4.360  15.982   6.150
 6862POPC   GL246430   4.398  15.973   6.150
 6862POPC   C1A46431   4.357  15.973   6.450
 6862POPC   D2A46432   4.299  16.004   6.750
 6862POPC   C3A46433   4.331  15.909   7.050
 6862POPC   C4A46434   4.316  15.987   7.350
 6862POPC   C1B46435   4.527  15.944   6.450
 6862POPC   C2B46436   4.586  15.888   6.750
 6862POPC   C3B46437   4.515  15.910   7.050
 6862POPC   C4B46438   4.603  15.934   7.350
 6863POPC   NC346439  20.615   9.724   5.550
 6863POPC   PO446440  20.596   9.759   5.850
 6863POPC   GL146441  20.649   9.722   6.150
 6863POPC   GL246442  20.729   9.621   6.150
 6863POPC   C1A46443  20.584   9.761   6.450
 6863POPC   D2A46444  20.563   9.764   6.750
 6863POPC   C3A46445  20.658   9.785   7.050
 6863POPC   C4A46446  20.569   9.794   7.350
 6863POPC   C1B46447  20.837   9.620   6.450
 6863POPC   C2B46448  20.776   9.559   6.750
 6863POPC   C3B46449  20.770   9.585   7.050
 6863POPC   C4B46450  20.747   9.558   7.350
 6864POPC   NC346451   8.985   7.469   5.550
 6864POPC   PO446452   9.000   7.381   5.850
 6864POPC   GL146453   8.937   7.432   6.150
 6864POPC   GL246454   8.963   7.304   6.150
 6864POPC   C1A46455   8.993   7.385   6.450
 6864POPC   D2A46456   8.942   7.410   6.750
 6864POPC   C3A46457   9.016   7.417   7.050
 6864POPC   C4A46458   8.960   7.432   7.350
 6864POPC   C1B46459   8.851   7.201   6.450
 6864POPC   C2B46460   8.849   7.227   6.750
 6864POPC   C3B46461   8.901   7.234   7.050
 6864POPC   C4B46462   8.872   7.151   7.350
 6865POPC   NC346463   1.185  15.154   5.550
 6865POPC   PO446464   1.260  15.194   5.850
 6865POPC   GL146465   1.264  15.204   6.150
 6865POPC   GL246466   1.240  15.284   6.150
 6865POPC   C1A46467   1.235  15.152   6.450
 6865POPC   D2A46468   1.203  15.215   6.750
 6865POPC   C3A46469   1.218  15.175   7.050
 6865POPC   C4A46470   1.250  15.140   7.350
 6865POPC   C1B46471   1.263  15.388   6.450
 6865POPC   C2B46472   1.249  15.476   6.750
 6865POPC   C3B46473   1.231  15.388   7.050
 6865POPC   C4B46474   1.246  15.451   7.350
 6866POPC   NC346475   8.933  44.652   5.550
 6866POPC   PO446476   8.984  44.643   5.850
 6866POPC   GL146477   8.999  44.706   6.150
 6866POPC   GL246478   8.843  44.540   6.150
 6866POPC   C1A46479   8.924  44.705   6.450
 6866POPC   D2A46480   9.014  44.705   6.750
 6866POPC   C3A46481   8.941  44.696   7.050
 6866POPC   C4A46482   8.994  44.687   7.350
 6866POPC   C1B46483   8.745  44.463   6.450
 6866POPC   C2B46484   8.732  44.479   6.750
 6866POPC   C3B46485   8.781  44.557   7.050
 6866POPC   C4B46486   8.749  44.528   7.350
 6867POPC   NC346487  43.143  18.295   5.550
 6867POPC   PO446488  43.066  18.306   5.850
 6867POPC   GL146489  43.083  18.309   6.150
 6867POPC   GL246490  43.248  18.179   6.150
 6867POPC   C1A46491  43.074  18.299   6.450
 6867POPC   D2A46492  43.080  18.287   6.750
 6867POPC   C3A46493  43.102  18.234   7.050
 6867POPC   C4A46494  43.146  18.272   7.350
 6867POPC   C1B46495  43.309  18.165   6.450
 6867POPC   C2B46496  43.357  18.148   6.750
 6867POPC   C3B46497  43.284  18.184   7.050
 6867POPC   C4B46498  43.299  18.133   7.350
 6868POPC   NC346499  33.023  23.683   5.550
 6868POPC   PO446500  32.976  23.695   5.850
 6868POPC   GL146501  32.999  23.701   6.150
 6868POPC   GL246502  33.043  23.569   6.150
 6868POPC   C1A46503  33.018  23.746   6.450
 6868POPC   D2A46504  33.012  23.715   6.750
 6868POPC   C3A46505  32.996  23.669   7.050
 6868POPC   C4A46506  33.008  23.739   7.350
 6868POPC   C1B46507  33.093  23.495   6.450
 6868POPC   C2B46508  33.120  23.473   6.750
 6868POPC   C3B46509  33.108  23.426   7.050
 6868POPC   C4B46510  33.109  23.438   7.350
 6869POPC   NC346511  19.056  19.057   5.550
 6869POPC   PO446512  19.083  19.067   5.850
 6869POPC   GL146513  19.082  19.085   6.150
 6869POPC   GL246514  19.150  19.136   6.150
 6869POPC   C1A46515  19.066  19.044   6.450
 6869POPC   D2A46516  19.092  19.043   6.750
 6869POPC   C3A46517  19.089  19.036   7.050
 6869POPC   C4A46518  19.032  19.092   7.350
 6869POPC   C1B46519  19.244  19.103   6.450
 6869POPC   C2B46520  19.315  19.184   6.750
 6869POPC   C3B46521  19.330  19.129   7.050
 6869POPC   C4B46522  19.265  19.125   7.350
 6870POPC   NC346523  39.213  28.322   5.550
 6870POPC   PO446524  39.240  28.399   5.850
 6870POPC   GL146525  39.270  28.415   6.150
 6870POPC   GL246526  39.162  28.224   6.150
 6870POPC   C1A46527  39.258  28.348   6.450
 6870POPC   D2A46528  39.254  28.366   6.750
 6870POPC   C3A46529  39.183  28.324   7.050
 6870POPC   C4A46530  39.235  28.348   7.350
 6870POPC   C1B46531  39.188  28.170   6.450
 6870POPC   C2B46532  39.119  28.098   6.750
 6870POPC   C3B46533  39.137  28.159   7.050
 6870POPC   C4B46534  39.145  28.128   7.350
 6871POPC   NC346535   1.256  16.683   5.550
 6871POPC   PO446536   1.225  16.748   5.850
 6871POPC   GL146537   1.236  16.705   6.150
 6871POPC   GL246538   1.245  16.610   6.150
 6871POPC   C1A46539   1.241  16.760   6.450
 6871POPC   D2A46540   1.194  16.762   6.750
 6871POPC   C3A46541   1.218  16.740   7.050
 6871POPC   C4A46542   1.191  16.771   7.350
 6871POPC   C1B46543   1.330  16.489   6.450
 6871POPC   C2B46544   1.406  16.538   6.750
 6871POPC   C3B46545   1.359  16.534   7.050
 6871POPC   C4B46546   1.400  16.496   7.350
 6872POPC   NC346547  15.979  21.356   5.550
 6872POPC   PO446548  15.967  21.366   5.850
 6872POPC   GL146549  15.922  21.366   6.150
 6872POPC   GL246550  15.975  21.472   6.150
 6872POPC   C1A46551  15.998  21.416   6.450
 6872POPC   D2A46552  15.985  21.374   6.750
 6872POPC   C3A46553  15.940  21.395   7.050
 6872POPC   C4A46554  15.963  21.419   7.350
 6872POPC   C1B46555  15.989  21.678   6.450
 6872POPC   C2B46556  15.986  21.625   6.750
 6872POPC   C3B46557  15.944  21.653   7.050
 6872POPC   C4B46558  15.991  21.637   7.350
 6873POPC   NC346559  31.468  17.486   5.550
 6873POPC   PO446560  31.519  17.526   5.850
 6873POPC   GL146561  31.471  17.503   6.150
 6873POPC   GL246562  31.375  17.610   6.150
 6873POPC   C1A46563  31.471  17.485   6.450
 6873POPC   D2A46564  31.467  17.492   6.750
 6873POPC   C3A46565  31.437  17.458   7.050
 6873POPC   C4A46566  31.448  17.540   7.350
 6873POPC   C1B46567  31.324  17.653   6.450
 6873POPC   C2B46568  31.239  17.648   6.750
 6873POPC   C3B46569  31.326  17.692   7.050
 6873POPC   C4B46570  31.302  17.622   7.350
 6874POPC   NC346571  21.400  10.500   5.550
 6874POPC   PO446572  21.435  10.487   5.850
 6874POPC   GL146573  21.366  10.530   6.150
 6874POPC   GL246574  21.477  10.539   6.150
 6874POPC   C1A46575  21.343  10.481   6.450
 6874POPC   D2A46576  21.406  10.566   6.750
 6874POPC   C3A46577  21.367  10.557   7.050
 6874POPC   C4A46578  21.392  10.564   7.350
 6874POPC   C1B46579  21.620  10.507   6.450
 6874POPC   C2B46580  21.642  10.455   6.750
 6874POPC   C3B46581  21.599  10.494   7.050
 6874POPC   C4B46582  21.628  10.494   7.350
 6875POPC   NC346583  21.402   6.604   5.550
 6875POPC   PO446584  21.363   6.634   5.850
 6875POPC   GL146585  21.342   6.677   6.150
 6875POPC   GL246586  21.253   6.615   6.150
 6875POPC   C1A46587  21.429   6.672   6.450
 6875POPC   D2A46588  21.366   6.664   6.750
 6875POPC   C3A46589  21.372   6.608   7.050
 6875POPC   C4A46590  21.409   6.674   7.350
 6875POPC   C1B46591  21.161   6.569   6.450
 6875POPC   C2B46592  21.197   6.502   6.750
 6875POPC   C3B46593  21.151   6.508   7.050
 6875POPC   C4B46594  21.188   6.555   7.350
 6876POPC   NC346595  16.756   1.990   5.550
 6876POPC   PO446596  16.747   2.003   5.850
 6876POPC   GL146597  16.742   1.976   6.150
 6876POPC   GL246598  16.685   2.129   6.150
 6876POPC   C1A46599  16.748   1.998   6.450
 6876POPC   D2A46600  16.735   2.010   6.750
 6876POPC   C3A46601  16.765   2.002   7.050
 6876POPC   C4A46602  16.774   2.006   7.350
 6876POPC   C1B46603  16.683   2.234   6.450
 6876POPC   C2B46604  16.681   2.221   6.750
 6876POPC   C3B46605  16.718   2.265   7.050
 6876POPC   C4B46606  16.659   2.241   7.350
 6877POPC   NC346607   1.975  34.532   5.550
 6877POPC   PO446608   2.018  34.570   5.850
 6877POPC   GL146609   2.007  34.589   6.150
 6877POPC   GL246610   2.072  34.441   6.150
 6877POPC   C1A46611   2.026  34.605   6.450
 6877POPC   D2A46612   1.959  34.573   6.750
 6877POPC   C3A46613   2.002  34.621   7.050
 6877POPC   C4A46614   1.956  34.546   7.350
 6877POPC   C1B46615   2.105  34.379   6.450
 6877POPC   C2B46616   2.064  34.388   6.750
 6877POPC   C3B46617   2.049  34.391   7.050
 6877POPC   C4B46618   2.085  34.367   7.350
 6878POPC   NC346619   2.790  29.147   5.550
 6878POPC   PO446620   2.750  29.104   5.850
 6878POPC   GL146621   2.760  29.136   6.150
 6878POPC   GL246622   2.867  29.200   6.150
 6878POPC   C1A46623   2.727  29.179   6.450
 6878POPC   D2A46624   2.805  29.135   6.750
 6878POPC   C3A46625   2.761  29.152   7.050
 6878POPC   C4A46626   2.744  29.158   7.350
 6878POPC   C1B46627   2.932  29.309   6.450
 6878POPC   C2B46628   2.905  29.353   6.750
 6878POPC   C3B46629   2.860  29.383   7.050
 6878POPC   C4B46630   2.865  29.343   7.350
 6879POPC   NC346631   3.585  31.498   5.550
 6879POPC   PO446632   3.567  31.426   5.850
 6879POPC   GL146633   3.504  31.449   6.150
 6879POPC   GL246634   3.669  31.404   6.150
 6879POPC   C1A46635   3.570  31.510   6.450
 6879POPC   D2A46636   3.540  31.431   6.750
 6879POPC   C3A46637   3.528  31.459   7.050
 6879POPC   C4A46638   3.543  31.424   7.350
 6879POPC   C1B46639   3.729  31.341   6.450
 6879POPC   C2B46640   3.793  31.319   6.750
 6879POPC   C3B46641   3.766  31.385   7.050
 6879POPC   C4B46642   3.752  31.405   7.350
 6880POPC   NC346643  33.025  11.250   5.550
 6880POPC   PO446644  33.033  11.348   5.850
 6880POPC   GL146645  33.008  11.268   6.150
 6880POPC   GL246646  32.946  11.328   6.150
 6880POPC   C1A46647  32.986  11.327   6.450
 6880POPC   D2A46648  33.059  11.338   6.750
 6880POPC   C3A46649  32.984  11.337   7.050
 6880POPC   C4A46650  33.072  11.306   7.350
 6880POPC   C1B46651  32.845  11.482   6.450
 6880POPC   C2B46652  32.784  11.405   6.750
 6880POPC   C3B46653  32.767  11.421   7.050
 6880POPC   C4B46654  32.794  11.397   7.350
 6881POPC   NC346655  34.583  43.076   5.550
 6881POPC   PO446656  34.535  43.149   5.850
 6881POPC   GL146657  34.537  43.146   6.150
 6881POPC   GL246658  34.499  43.127   6.150
 6881POPC   C1A46659  34.607  43.144   6.450
 6881POPC   D2A46660  34.596  43.072   6.750
 6881POPC   C3A46661  34.605  43.105   7.050
 6881POPC   C4A46662  34.611  43.067   7.350
 6881POPC   C1B46663  34.293  43.118   6.450
 6881POPC   C2B46664  34.359  43.196   6.750
 6881POPC   C3B46665  34.293  43.130   7.050
 6881POPC   C4B46666  34.319  43.112   7.350
 6882POPC   NC346667  15.154   8.244   5.550
 6882POPC   PO446668  15.131   8.187   5.850
 6882POPC   GL146669  15.174   8.175   6.150
 6882POPC   GL246670  15.289   8.139   6.150
 6882POPC   C1A46671  15.219   8.171   6.450
 6882POPC   D2A46672  15.208   8.181   6.750
 6882POPC   C3A46673  15.152   8.193   7.050
 6882POPC   C4A46674  15.141   8.193   7.350
 6882POPC   C1B46675  15.469   8.134   6.450
 6882POPC   C2B46676  15.385   8.141   6.750
 6882POPC   C3B46677  15.433   8.200   7.050
 6882POPC   C4B46678  15.458   8.181   7.350
 6883POPC   NC346679   2.001  11.342   5.550
 6883POPC   PO446680   1.947  11.349   5.850
 6883POPC   GL146681   1.947  11.254   6.150
 6883POPC   GL246682   1.904  11.324   6.150
 6883POPC   C1A46683   2.028  11.340   6.450
 6883POPC   D2A46684   1.960  11.302   6.750
 6883POPC   C3A46685   1.947  11.257   7.050
 6883POPC   C4A46686   1.973  11.296   7.350
 6883POPC   C1B46687   1.784  11.484   6.450
 6883POPC   C2B46688   1.766  11.440   6.750
 6883POPC   C3B46689   1.820  11.484   7.050
 6883POPC   C4B46690   1.758  11.448   7.350
 6884POPC   NC346691  44.631   5.827   5.550
 6884POPC   PO446692  44.711   5.836   5.850
 6884POPC   GL146693  44.648   5.909   6.150
 6884POPC   GL246694  44.571   5.997   6.150
 6884POPC   C1A46695  44.655   5.863   6.450
 6884POPC   D2A46696  44.668   5.847   6.750
 6884POPC   C3A46697  44.652   5.822   7.050
 6884POPC   C4A46698  44.613   5.823   7.350
 6884POPC   C1B46699  44.563   6.105   6.450
 6884POPC   C2B46700  44.528   6.068   6.750
 6884POPC   C3B46701  44.535   6.069   7.050
 6884POPC   C4B46702  44.507   6.032   7.350
 6885POPC   NC346703  24.470  20.620   5.550
 6885POPC   PO446704  24.457  20.588   5.850
 6885POPC   GL146705  24.507  20.593   6.150
 6885POPC   GL246706  24.413  20.552   6.150
 6885POPC   C1A46707  24.452  20.656   6.450
 6885POPC   D2A46708  24.492  20.575   6.750
 6885POPC   C3A46709  24.472  20.658   7.050
 6885POPC   C4A46710  24.469  20.587   7.350
 6885POPC   C1B46711  24.290  20.447   6.450
 6885POPC   C2B46712  24.269  20.411   6.750
 6885POPC   C3B46713  24.289  20.486   7.050
 6885POPC   C4B46714  24.258  20.406   7.350
 6886POPC   NC346715  28.413  29.169   5.550
 6886POPC   PO446716  28.349  29.157   5.850
 6886POPC   GL146717  28.380  29.164   6.150
 6886POPC   GL246718  28.501  29.204   6.150
 6886POPC   C1A46719  28.362  29.189   6.450
 6886POPC   D2A46720  28.405  29.102   6.750
 6886POPC   C3A46721  28.391  29.098   7.050
 6886POPC   C4A46722  28.385  29.114   7.350
 6886POPC   C1B46723  28.583  29.135   6.450
 6886POPC   C2B46724  28.642  29.158   6.750
 6886POPC   C3B46725  28.627  29.186   7.050
 6886POPC   C4B46726  28.592  29.155   7.350
 6887POPC   NC346727  33.832  44.627   5.550
 6887POPC   PO446728  33.829  44.690   5.850
 6887POPC   GL146729  33.819  44.627   6.150
 6887POPC   GL246730  33.735  44.551   6.150
 6887POPC   C1A46731  33.803  44.629   6.450
 6887POPC   D2A46732  33.791  44.684   6.750
 6887POPC   C3A46733  33.822  44.673   7.050
 6887POPC   C4A46734  33.827  44.707   7.350
 6887POPC   C1B46735  33.568  44.547   6.450
 6887POPC   C2B46736  33.630  44.531   6.750
 6887POPC   C3B46737  33.579  44.470   7.050
 6887POPC   C4B46738  33.651  44.527   7.350
 6888POPC   NC346739   9.756  39.972   5.550
 6888POPC   PO446740   9.788  40.020   5.850
 6888POPC   GL146741   9.775  40.005   6.150
 6888POPC   GL246742   9.663  40.147   6.150
 6888POPC   C1A46743   9.771  40.003   6.450
 6888POPC   D2A46744   9.745  39.974   6.750
 6888POPC   C3A46745   9.770  39.994   7.050
 6888POPC   C4A46746   9.735  40.033   7.350
 6888POPC   C1B46747   9.670  40.268   6.450
 6888POPC   C2B46748   9.636  40.202   6.750
 6888POPC   C3B46749   9.689  40.186   7.050
 6888POPC   C4B46750   9.662  40.212   7.350
 6889POPC   NC346751  36.155  34.559   5.550
 6889POPC   PO446752  36.117  34.530   5.850
 6889POPC   GL146753  36.129  34.595   6.150
 6889POPC   GL246754  36.135  34.673   6.150
 6889POPC   C1A46755  36.135  34.538   6.450
 6889POPC   D2A46756  36.158  34.573   6.750
 6889POPC   C3A46757  36.114  34.578   7.050
 6889POPC   C4A46758  36.135  34.559   7.350
 6889POPC   C1B46759  36.024  34.812   6.450
 6889POPC   C2B46760  36.011  34.795   6.750
 6889POPC   C3B46761  36.008  34.773   7.050
 6889POPC   C4B46762  36.044  34.786   7.350
 6890POPC   NC346763  39.265  34.623   5.550
 6890POPC   PO446764  39.239  34.561   5.850
 6890POPC   GL146765  39.229  34.576   6.150
 6890POPC   GL246766  39.148  34.660   6.150
 6890POPC   C1A46767  39.229  34.528   6.450
 6890POPC   D2A46768  39.268  34.534   6.750
 6890POPC   C3A46769  39.261  34.572   7.050
 6890POPC   C4A46770  39.238  34.554   7.350
 6890POPC   C1B46771  39.114  34.761   6.450
 6890POPC   C2B46772  39.094  34.815   6.750
 6890POPC   C3B46773  39.069  34.758   7.050
 6890POPC   C4B46774  39.100  34.810   7.350
 6891POPC   NC346775  29.154  43.923   5.550
 6891POPC   PO446776  29.163  43.841   5.850
 6891POPC   GL146777  29.166  43.843   6.150
 6891POPC   GL246778  29.068  43.920   6.150
 6891POPC   C1A46779  29.169  43.909   6.450
 6891POPC   D2A46780  29.151  43.908   6.750
 6891POPC   C3A46781  29.135  43.932   7.050
 6891POPC   C4A46782  29.143  43.874   7.350
 6891POPC   C1B46783  28.891  43.913   6.450
 6891POPC   C2B46784  28.925  43.938   6.750
 6891POPC   C3B46785  28.914  43.869   7.050
 6891POPC   C4B46786  28.856  43.922   7.350
 6892POPC   NC346787  19.831  15.949   5.550
 6892POPC   PO446788  19.813  15.925   5.850
 6892POPC   GL146789  19.788  15.998   6.150
 6892POPC   GL246790  19.818  16.101   6.150
 6892POPC   C1A46791  19.884  15.914   6.450
 6892POPC   D2A46792  19.864  15.958   6.750
 6892POPC   C3A46793  19.838  15.955   7.050
 6892POPC   C4A46794  19.878  15.956   7.350
 6892POPC   C1B46795  19.700  16.138   6.450
 6892POPC   C2B46796  19.742  16.194   6.750
 6892POPC   C3B46797  19.750  16.163   7.050
 6892POPC   C4B46798  19.733  16.228   7.350
 6893POPC   NC346799  42.363  19.069   5.550
 6893POPC   PO446800  42.307  19.096   5.850
 6893POPC   GL146801  42.313  19.012   6.150
 6893POPC   GL246802  42.384  18.927   6.150
 6893POPC   C1A46803  42.323  19.012   6.450
 6893POPC   D2A46804  42.305  19.090   6.750
 6893POPC   C3A46805  42.319  19.068   7.050
 6893POPC   C4A46806  42.321  19.073   7.350
 6893POPC   C1B46807  42.433  18.846   6.450
 6893POPC   C2B46808  42.425  18.857   6.750
 6893POPC   C3B46809  42.378  18.843   7.050
 6893POPC   C4B46810  42.432  18.853   7.350
 6894POPC   NC346811  14.402   1.181   5.550
 6894POPC   PO446812  14.413   1.245   5.850
 6894POPC   GL146813  14.439   1.231   6.150
 6894POPC   GL246814  14.391   1.366   6.150
 6894POPC   C1A46815  14.399   1.199   6.450
 6894POPC   D2A46816  14.389   1.194   6.750
 6894POPC   C3A46817  14.400   1.187   7.050
 6894POPC   C4A46818  14.406   1.222   7.350
 6894POPC   C1B46819  14.370   1.463   6.450
 6894POPC   C2B46820  14.424   1.426   6.750
 6894POPC   C3B46821  14.358   1.488   7.050
 6894POPC   C4B46822  14.358   1.464   7.350
 6895POPC   NC346823  40.738  29.182   5.550
 6895POPC   PO446824  40.827  29.103   5.850
 6895POPC   GL146825  40.750  29.151   6.150
 6895POPC   GL246826  40.868  29.160   6.150
 6895POPC   C1A46827  40.823  29.139   6.450
 6895POPC   D2A46828  40.798  29.185   6.750
 6895POPC   C3A46829  40.773  29.168   7.050
 6895POPC   C4A46830  40.804  29.186   7.350
 6895POPC   C1B46831  40.989  29.059   6.450
 6895POPC   C2B46832  41.067  29.097   6.750
 6895POPC   C3B46833  41.060  29.046   7.050
 6895POPC   C4B46834  41.055  29.101   7.350
 6896POPC   NC346835  33.755  24.509   5.550
 6896POPC   PO446836  33.800  24.502   5.850
 6896POPC   GL146837  33.827  24.467   6.150
 6896POPC   GL246838  33.692  24.543   6.150
 6896POPC   C1A46839  33.848  24.474   6.450
 6896POPC   D2A46840  33.767  24.465   6.750
 6896POPC   C3A46841  33.825  24.489   7.050
 6896POPC   C4A46842  33.827  24.496   7.350
 6896POPC   C1B46843  33.644  24.609   6.450
 6896POPC   C2B46844  33.650  24.674   6.750
 6896POPC   C3B46845  33.633  24.693   7.050
 6896POPC   C4B46846  33.573  24.628   7.350
 6897POPC   NC346847   0.428   3.547   5.550
 6897POPC   PO446848   0.456   3.500   5.850
 6897POPC   GL146849   0.458   3.559   6.150
 6897POPC   GL246850   0.546   3.625   6.150
 6897POPC   C1A46851   0.441   3.525   6.450
 6897POPC   D2A46852   0.417   3.524   6.750
 6897POPC   C3A46853   0.431   3.504   7.050
 6897POPC   C4A46854   0.449   3.559   7.350
 6897POPC   C1B46855   0.623   3.673   6.450
 6897POPC   C2B46856   0.625   3.609   6.750
 6897POPC   C3B46857   0.715   3.608   7.050
 6897POPC   C4B46858   0.717   3.598   7.350
 6898POPC   NC346859  21.370   9.741   5.550
 6898POPC   PO446860  21.421   9.786   5.850
 6898POPC   GL146861  21.362   9.762   6.150
 6898POPC   GL246862  21.503   9.683   6.150
 6898POPC   C1A46863  21.373   9.746   6.450
 6898POPC   D2A46864  21.380   9.784   6.750
 6898POPC   C3A46865  21.343   9.755   7.050
 6898POPC   C4A46866  21.406   9.780   7.350
 6898POPC   C1B46867  21.518   9.543   6.450
 6898POPC   C2B46868  21.584   9.596   6.750
 6898POPC   C3B46869  21.515   9.535   7.050
 6898POPC   C4B46870  21.518   9.579   7.350
 6899POPC   NC346871  10.573   0.429   5.550
 6899POPC   PO446872  10.521   0.481   5.850
 6899POPC   GL146873  10.491   0.412   6.150
 6899POPC   GL246874  10.443   0.599   6.150
 6899POPC   C1A46875  10.541   0.421   6.450
 6899POPC   D2A46876  10.518   0.459   6.750
 6899POPC   C3A46877  10.509   0.460   7.050
 6899POPC   C4A46878  10.508   0.394   7.350
 6899POPC   C1B46879  10.442   0.696   6.450
 6899POPC   C2B46880  10.411   0.702   6.750
 6899POPC   C3B46881  10.449   0.711   7.050
 6899POPC   C4B46882  10.449   0.632   7.350
 6900POPC   NC346883  22.953  44.648   5.550
 6900POPC   PO446884  22.901  44.620   5.850
 6900POPC   GL146885  22.912  44.698   6.150
 6900POPC   GL246886  22.785  44.625   6.150
 6900POPC   C1A46887  22.954  44.672   6.450
 6900POPC   D2A46888  22.899  44.664   6.750
 6900POPC   C3A46889  22.901  44.687   7.050
 6900POPC   C4A46890  22.956  44.660   7.350
 6900POPC   C1B46891  22.683  44.558   6.450
 6900POPC   C2B46892  22.699  44.615   6.750
 6900POPC   C3B46893  22.688  44.535   7.050
 6900POPC   C4B46894  22.696  44.599   7.350
 6901POPC   NC346895  12.865   9.760   5.550
 6901POPC   PO446896  12.847   9.700   5.850
 6901POPC   GL146897  12.807   9.716   6.150
 6901POPC   GL246898  12.934   9.631   6.150
 6901POPC   C1A46899  12.892   9.722   6.450
 6901POPC   D2A46900  12.822   9.732   6.750
 6901POPC   C3A46901  12.848   9.703   7.050
 6901POPC   C4A46902  12.841   9.728   7.350
 6901POPC   C1B46903  12.913   9.482   6.450
 6901POPC   C2B46904  12.939   9.546   6.750
 6901POPC   C3B46905  12.925   9.472   7.050
 6901POPC   C4B46906  12.915   9.515   7.350
 6902POPC   NC346907   8.209  27.611   5.550
 6902POPC   PO446908   8.174  27.595   5.850
 6902POPC   GL146909   8.158  27.569   6.150
 6902POPC   GL246910   8.218  27.434   6.150
 6902POPC   C1A46911   8.150  27.549   6.450
 6902POPC   D2A46912   8.236  27.627   6.750
 6902POPC   C3A46913   8.180  27.620   7.050
 6902POPC   C4A46914   8.211  27.592   7.350
 6902POPC   C1B46915   8.118  27.309   6.450
 6902POPC   C2B46916   8.190  27.342   6.750
 6902POPC   C3B46917   8.131  27.317   7.050
 6902POPC   C4B46918   8.114  27.366   7.350
 6903POPC   NC346919  11.326  26.056   5.550
 6903POPC   PO446920  11.270  26.078   5.850
 6903POPC   GL146921  11.290  26.075   6.150
 6903POPC   GL246922  11.393  26.157   6.150
 6903POPC   C1A46923  11.313  26.064   6.450
 6903POPC   D2A46924  11.334  26.044   6.750
 6903POPC   C3A46925  11.277  26.048   7.050
 6903POPC   C4A46926  11.336  26.024   7.350
 6903POPC   C1B46927  11.470  26.273   6.450
 6903POPC   C2B46928  11.473  26.250   6.750
 6903POPC   C3B46929  11.459  26.186   7.050
 6903POPC   C4B46930  11.428  26.252   7.350
 6904POPC   NC346931   8.930   0.431   5.550
 6904POPC   PO446932   8.966   0.407   5.850
 6904POPC   GL146933   9.011   0.454   6.150
 6904POPC   GL246934   8.869   0.441   6.150
 6904POPC   C1A46935   8.951   0.465   6.450
 6904POPC   D2A46936   8.948   0.420   6.750
 6904POPC   C3A46937   9.010   0.434   7.050
 6904POPC   C4A46938   8.934   0.449   7.350
 6904POPC   C1B46939   8.712   0.402   6.450
 6904POPC   C2B46940   8.676   0.436   6.750
 6904POPC   C3B46941   8.703   0.415   7.050
 6904POPC   C4B46942   8.766   0.362   7.350
 6905POPC   NC346943  28.335   4.306   5.550
 6905POPC   PO446944  28.330   4.342   5.850
 6905POPC   GL146945  28.391   4.337   6.150
 6905POPC   GL246946  28.507   4.189   6.150
 6905POPC   C1A46947  28.376   4.314   6.450
 6905POPC   D2A46948  28.400   4.357   6.750
 6905POPC   C3A46949  28.402   4.282   7.050
 6905POPC   C4A46950  28.340   4.327   7.350
 6905POPC   C1B46951  28.574   4.154   6.450
 6905POPC   C2B46952  28.536   4.136   6.750
 6905POPC   C3B46953  28.555   4.156   7.050
 6905POPC   C4B46954  28.585   4.150   7.350
 6906POPC   NC346955  14.419   8.244   5.550
 6906POPC   PO446956  14.398   8.245   5.850
 6906POPC   GL146957  14.406   8.245   6.150
 6906POPC   GL246958  14.315   8.084   6.150
 6906POPC   C1A46959  14.406   8.190   6.450
 6906POPC   D2A46960  14.450   8.228   6.750
 6906POPC   C3A46961  14.361   8.189   7.050
 6906POPC   C4A46962  14.432   8.230   7.350
 6906POPC   C1B46963  14.164   8.035   6.450
 6906POPC   C2B46964  14.232   8.003   6.750
 6906POPC   C3B46965  14.223   8.085   7.050
 6906POPC   C4B46966  14.181   8.000   7.350
 6907POPC   NC346967   8.925  28.380   5.550
 6907POPC   PO446968   8.981  28.335   5.850
 6907POPC   GL146969   8.926  28.338   6.150
 6907POPC   GL246970   8.963  28.487   6.150
 6907POPC   C1A46971   9.011  28.393   6.450
 6907POPC   D2A46972   8.923  28.329   6.750
 6907POPC   C3A46973   9.005  28.382   7.050
 6907POPC   C4A46974   8.946  28.328   7.350
 6907POPC   C1B46975   8.861  28.599   6.450
 6907POPC   C2B46976   8.888  28.618   6.750
 6907POPC   C3B46977   8.870  28.588   7.050
 6907POPC   C4B46978   8.916  28.553   7.350
 6908POPC   NC346979  31.469   5.900   5.550
 6908POPC   PO446980  31.515   5.869   5.850
 6908POPC   GL146981  31.522   5.821   6.150
 6908POPC   GL246982  31.501   6.044   6.150
 6908POPC   C1A46983  31.442   5.824   6.450
 6908POPC   D2A46984  31.456   5.880   6.750
 6908POPC   C3A46985  31.466   5.865   7.050
 6908POPC   C4A46986  31.451   5.831   7.350
 6908POPC   C1B46987  31.475   6.168   6.450
 6908POPC   C2B46988  31.429   6.085   6.750
 6908POPC   C3B46989  31.430   6.070   7.050
 6908POPC   C4B46990  31.455   6.098   7.350
 6909POPC   NC346991  25.233  22.902   5.550
 6909POPC   PO446992  25.276  22.914   5.850
 6909POPC   GL146993  25.221  22.978   6.150
 6909POPC   GL246994  25.176  22.836   6.150
 6909POPC   C1A46995  25.294  22.961   6.450
 6909POPC   D2A46996  25.268  22.943   6.750
 6909POPC   C3A46997  25.253  22.944   7.050
 6909POPC   C4A46998  25.234  22.967   7.350
 6909POPC   C1B46999  24.993  22.864   6.450
 6909POPC   C2B47000  25.018  22.809   6.750
 6909POPC   C3B47001  25.060  22.789   7.050
 6909POPC   C4B47002  25.028  22.782   7.350
 6910POPC   NC347003  15.936  31.511   5.550
 6910POPC   PO447004  15.968  31.498   5.850
 6910POPC   GL147005  15.921  31.463   6.150
 6910POPC   GL247006  15.957  31.386   6.150
 6910POPC   C1A47007  15.992  31.423   6.450
 6910POPC   D2A47008  15.929  31.476   6.750
 6910POPC   C3A47009  15.921  31.456   7.050
 6910POPC   C4A47010  15.948  31.486   7.350
 6910POPC   C1B47011  15.839  31.215   6.450
 6910POPC   C2B47012  15.930  31.244   6.750
 6910POPC   C3B47013  15.853  31.246   7.050
 6910POPC   C4B47014  15.855  31.189   7.350
 6911POPC   NC347015  44.704  43.842   5.550
 6911POPC   PO447016  44.659  43.916   5.850
 6911POPC   GL147017  44.693  43.877   6.150
 6911POPC   GL247018  44.606  43.759   6.150
 6911POPC   C1A47019  44.679  43.859   6.450
 6911POPC   D2A47020  44.661  43.886   6.750
 6911POPC   C3A47021  44.641  43.901   7.050
 6911POPC   C4A47022  44.686  43.863   7.350
 6911POPC   C1B47023  44.548  43.709   6.450
 6911POPC   C2B47024  44.511  43.705   6.750
 6911POPC   C3B47025  44.467  43.703   7.050
 6911POPC   C4B47026  44.469  43.727   7.350
 6912POPC   NC347027  41.594  25.282   5.550
 6912POPC   PO447028  41.549  25.230   5.850
 6912POPC   GL147029  41.563  25.231   6.150
 6912POPC   GL247030  41.531  25.098   6.150
 6912POPC   C1A47031  41.564  25.249   6.450
 6912POPC   D2A47032  41.535  25.261   6.750
 6912POPC   C3A47033  41.548  25.289   7.050
 6912POPC   C4A47034  41.538  25.263   7.350
 6912POPC   C1B47035  41.565  24.975   6.450
 6912POPC   C2B47036  41.499  25.003   6.750
 6912POPC   C3B47037  41.485  24.984   7.050
 6912POPC   C4B47038  41.549  24.986   7.350
 6913POPC   NC347039   3.542  13.617   5.550
 6913POPC   PO447040   3.526  13.658   5.850
 6913POPC   GL147041   3.555  13.671   6.150
 6913POPC   GL247042   3.380  13.684   6.150
 6913POPC   C1A47043   3.553  13.672   6.450
 6913POPC   D2A47044   3.500  13.624   6.750
 6913POPC   C3A47045   3.528  13.646   7.050
 6913POPC   C4A47046   3.527  13.657   7.350
 6913POPC   C1B47047   3.325  13.635   6.450
 6913POPC   C2B47048   3.268  13.721   6.750
 6913POPC   C3B47049   3.277  13.634   7.050
 6913POPC   C4B47050   3.310  13.676   7.350
 6914POPC   NC347051  37.639  27.611   5.550
 6914POPC   PO447052  37.654  27.624   5.850
 6914POPC   GL147053  37.634  27.570   6.150
 6914POPC   GL247054  37.760  27.638   6.150
 6914POPC   C1A47055  37.651  27.600   6.450
 6914POPC   D2A47056  37.710  27.571   6.750
 6914POPC   C3A47057  37.661  27.553   7.050
 6914POPC   C4A47058  37.674  27.625   7.350
 6914POPC   C1B47059  37.866  27.779   6.450
 6914POPC   C2B47060  37.908  27.814   6.750
 6914POPC   C3B47061  37.910  27.812   7.050
 6914POPC   C4B47062  37.909  27.780   7.350
 6915POPC   NC347063  32.282  43.143   5.550
 6915POPC   PO447064  32.222  43.095   5.850
 6915POPC   GL147065  32.219  43.104   6.150
 6915POPC   GL247066  32.410  43.115   6.150
 6915POPC   C1A47067  32.282  43.071   6.450
 6915POPC   D2A47068  32.222  43.151   6.750
 6915POPC   C3A47069  32.283  43.095   7.050
 6915POPC   C4A47070  32.219  43.115   7.350
 6915POPC   C1B47071  32.510  43.187   6.450
 6915POPC   C2B47072  32.492  43.140   6.750
 6915POPC   C3B47073  32.489  43.175   7.050
 6915POPC   C4B47074  32.508  43.186   7.350
 6916POPC   NC347075  41.538  11.323   5.550
 6916POPC   PO447076  41.546  11.274   5.850
 6916POPC   GL147077  41.547  11.328   6.150
 6916POPC   GL247078  41.465  11.360   6.150
 6916POPC   C1A47079  41.520  11.251   6.450
 6916POPC   D2A47080  41.559  11.281   6.750
 6916POPC   C3A47081  41.593  11.328   7.050
 6916POPC   C4A47082  41.573  11.280   7.350
 6916POPC   C1B47083  41.354  11.343   6.450
 6916POPC   C2B47084  41.359  11.354   6.750
 6916POPC   C3B47085  41.310  11.351   7.050
 6916POPC   C4B47086  41.313  11.292   7.350
 6917POPC   NC347087  28.361  22.924   5.550
 6917POPC   PO447088  28.361  22.915   5.850
 6917POPC   GL147089  28.340  22.905   6.150
 6917POPC   GL247090  28.238  22.971   6.150
 6917POPC   C1A47091  28.417  22.912   6.450
 6917POPC   D2A47092  28.383  22.942   6.750
 6917POPC   C3A47093  28.378  22.960   7.050
 6917POPC   C4A47094  28.402  22.960   7.350
 6917POPC   C1B47095  28.117  23.101   6.450
 6917POPC   C2B47096  28.135  23.066   6.750
 6917POPC   C3B47097  28.108  23.019   7.050
 6917POPC   C4B47098  28.154  23.015   7.350
 6918POPC   NC347099  12.876   2.735   5.550
 6918POPC   PO447100  12.806   2.739   5.850
 6918POPC   GL147101  12.892   2.756   6.150
 6918POPC   GL247102  12.960   2.697   6.150
 6918POPC   C1A47103  12.869   2.814   6.450
 6918POPC   D2A47104  12.864   2.741   6.750
 6918POPC   C3A47105  12.832   2.761   7.050
 6918POPC   C4A47106  12.885   2.755   7.350
 6918POPC   C1B47107  12.947   2.516   6.450
 6918POPC   C2B47108  13.026   2.571   6.750
 6918POPC   C3B47109  13.035   2.547   7.050
 6918POPC   C4B47110  12.962   2.579   7.350
 6919POPC   NC347111   5.052  15.207   5.550
 6919POPC   PO447112   5.064  15.179   5.850
 6919POPC   GL147113   5.139  15.206   6.150
 6919POPC   GL247114   4.935  15.159   6.150
 6919POPC   C1A47115   5.113  15.132   6.450
 6919POPC   D2A47116   5.133  15.199   6.750
 6919POPC   C3A47117   5.058  15.152   7.050
 6919POPC   C4A47118   5.060  15.212   7.350
 6919POPC   C1B47119   4.861  15.165   6.450
 6919POPC   C2B47120   4.888  15.119   6.750
 6919POPC   C3B47121   4.837  15.135   7.050
 6919POPC   C4B47122   4.873  15.189   7.350
 6920POPC   NC347123  13.642  21.401   5.550
 6920POPC   PO447124  13.581  21.390   5.850
 6920POPC   GL147125  13.619  21.377   6.150
 6920POPC   GL247126  13.685  21.299   6.150
 6920POPC   C1A47127  13.599  21.433   6.450
 6920POPC   D2A47128  13.590  21.379   6.750
 6920POPC   C3A47129  13.586  21.406   7.050
 6920POPC   C4A47130  13.609  21.362   7.350
 6920POPC   C1B47131  13.683  21.191   6.450
 6920POPC   C2B47132  13.762  21.110   6.750
 6920POPC   C3B47133  13.712  21.115   7.050
 6920POPC   C4B47134  13.693  21.143   7.350
 6921POPC   NC347135  35.324  16.701   5.550
 6921POPC   PO447136  35.344  16.688   5.850
 6921POPC   GL147137  35.397  16.732   6.150
 6921POPC   GL247138  35.423  16.818   6.150
 6921POPC   C1A47139  35.396  16.738   6.450
 6921POPC   D2A47140  35.365  16.685   6.750
 6921POPC   C3A47141  35.392  16.745   7.050
 6921POPC   C4A47142  35.319  16.767   7.350
 6921POPC   C1B47143  35.350  16.945   6.450
 6921POPC   C2B47144  35.354  16.959   6.750
 6921POPC   C3B47145  35.442  16.933   7.050
 6921POPC   C4B47146  35.439  16.975   7.350
 6922POPC   NC347147  22.958  25.270   5.550
 6922POPC   PO447148  22.912  25.288   5.850
 6922POPC   GL147149  22.897  25.232   6.150
 6922POPC   GL247150  22.829  25.227   6.150
 6922POPC   C1A47151  22.898  25.292   6.450
 6922POPC   D2A47152  22.924  25.220   6.750
 6922POPC   C3A47153  22.895  25.223   7.050
 6922POPC   C4A47154  22.920  25.299   7.350
 6922POPC   C1B47155  22.679  25.292   6.450
 6922POPC   C2B47156  22.643  25.317   6.750
 6922POPC   C3B47157  22.682  25.319   7.050
 6922POPC   C4B47158  22.733  25.237   7.350
 6923POPC   NC347159  21.364  33.829   5.550
 6923POPC   PO447160  21.419  33.765   5.850
 6923POPC   GL147161  21.430  33.802   6.150
 6923POPC   GL247162  21.493  33.915   6.150
 6923POPC   C1A47163  21.359  33.812   6.450
 6923POPC   D2A47164  21.366  33.822   6.750
 6923POPC   C3A47165  21.416  33.816   7.050
 6923POPC   C4A47166  21.346  33.791   7.350
 6923POPC   C1B47167  21.631  33.910   6.450
 6923POPC   C2B47168  21.623  33.955   6.750
 6923POPC   C3B47169  21.534  33.957   7.050
 6923POPC   C4B47170  21.613  33.949   7.350
 6924POPC   NC347171  22.153  33.833   5.550
 6924POPC   PO447172  22.171  33.801   5.850
 6924POPC   GL147173  22.171  33.808   6.150
 6924POPC   GL247174  22.194  33.713   6.150
 6924POPC   C1A47175  22.149  33.816   6.450
 6924POPC   D2A47176  22.212  33.800   6.750
 6924POPC   C3A47177  22.121  33.760   7.050
 6924POPC   C4A47178  22.193  33.825   7.350
 6924POPC   C1B47179  22.210  33.516   6.450
 6924POPC   C2B47180  22.195  33.582   6.750
 6924POPC   C3B47181  22.181  33.535   7.050
 6924POPC   C4B47182  22.195  33.530   7.350
 6925POPC   NC347183  39.249  43.908   5.550
 6925POPC   PO447184  39.244  43.876   5.850
 6925POPC   GL147185  39.275  43.887   6.150
 6925POPC   GL247186  39.303  43.798   6.150
 6925POPC   C1A47187  39.247  43.927   6.450
 6925POPC   D2A47188  39.202  43.868   6.750
 6925POPC   C3A47189  39.240  43.839   7.050
 6925POPC   C4A47190  39.244  43.854   7.350
 6925POPC   C1B47191  39.450  43.700   6.450
 6925POPC   C2B47192  39.478  43.776   6.750
 6925POPC   C3B47193  39.419  43.750   7.050
 6925POPC   C4B47194  39.438  43.776   7.350
 6926POPC   NC347195   5.879   8.150   5.550
 6926POPC   PO447196   5.916   8.155   5.850
 6926POPC   GL147197   5.846   8.167   6.150
 6926POPC   GL247198   5.710   8.265   6.150
 6926POPC   C1A47199   5.884   8.189   6.450
 6926POPC   D2A47200   5.864   8.206   6.750
 6926POPC   C3A47201   5.862   8.160   7.050
 6926POPC   C4A47202   5.853   8.203   7.350
 6926POPC   C1B47203   5.672   8.324   6.450
 6926POPC   C2B47204   5.603   8.289   6.750
 6926POPC   C3B47205   5.682   8.329   7.050
 6926POPC   C4B47206   5.586   8.248   7.350
 6927POPC   NC347207  15.194  31.490   5.550
 6927POPC   PO447208  15.182  31.515   5.850
 6927POPC   GL147209  15.147  31.440   6.150
 6927POPC   GL247210  15.159  31.301   6.150
 6927POPC   C1A47211  15.201  31.437   6.450
 6927POPC   D2A47212  15.143  31.494   6.750
 6927POPC   C3A47213  15.146  31.453   7.050
 6927POPC   C4A47214  15.153  31.462   7.350
 6927POPC   C1B47215  15.191  31.264   6.450
 6927POPC   C2B47216  15.235  31.237   6.750
 6927POPC   C3B47217  15.237  31.262   7.050
 6927POPC   C4B47218  15.275  31.272   7.350
 6928POPC   NC347219  43.151  29.118   5.550
 6928POPC   PO447220  43.060  29.188   5.850
 6928POPC   GL147221  43.091  29.173   6.150
 6928POPC   GL247222  43.208  29.045   6.150
 6928POPC   C1A47223  43.082  29.129   6.450
 6928POPC   D2A47224  43.130  29.115   6.750
 6928POPC   C3A47225  43.100  29.124   7.050
 6928POPC   C4A47226  43.086  29.126   7.350
 6928POPC   C1B47227  43.320  28.997   6.450
 6928POPC   C2B47228  43.318  29.036   6.750
 6928POPC   C3B47229  43.314  29.070   7.050
 6928POPC   C4B47230  43.367  29.001   7.350
 6929POPC   NC347231  31.437   8.948   5.550
 6929POPC   PO447232  31.499   8.964   5.850
 6929POPC   GL147233  31.430   8.974   6.150
 6929POPC   GL247234  31.554   9.107   6.150
 6929POPC   C1A47235  31.469   9.001   6.450
 6929POPC   D2A47236  31.503   8.955   6.750
 6929POPC   C3A47237  31.454   8.955   7.050
 6929POPC   C4A47238  31.435   8.963   7.350
 6929POPC   C1B47239  31.649   9.195   6.450
 6929POPC   C2B47240  31.631   9.144   6.750
 6929POPC   C3B47241  31.678   9.191   7.050
 6929POPC   C4B47242  31.675   9.138   7.350
 6930POPC   NC347243  19.072  38.439   5.550
 6930POPC   PO447244  19.102  38.467   5.850
 6930POPC   GL147245  19.069  38.505   6.150
 6930POPC   GL247246  19.130  38.484   6.150
 6930POPC   C1A47247  19.098  38.479   6.450
 6930POPC   D2A47248  19.015  38.480   6.750
 6930POPC   C3A47249  19.081  38.478   7.050
 6930POPC   C4A47250  19.028  38.476   7.350
 6930POPC   C1B47251  19.243  38.599   6.450
 6930POPC   C2B47252  19.308  38.569   6.750
 6930POPC   C3B47253  19.239  38.605   7.050
 6930POPC   C4B47254  19.250  38.594   7.350
 6931POPC   NC347255  33.779   6.643   5.550
 6931POPC   PO447256  33.780   6.627   5.850
 6931POPC   GL147257  33.829   6.656   6.150
 6931POPC   GL247258  33.755   6.700   6.150
 6931POPC   C1A47259  33.810   6.684   6.450
 6931POPC   D2A47260  33.784   6.664   6.750
 6931POPC   C3A47261  33.752   6.685   7.050
 6931POPC   C4A47262  33.832   6.654   7.350
 6931POPC   C1B47263  33.608   6.805   6.450
 6931POPC   C2B47264  33.654   6.887   6.750
 6931POPC   C3B47265  33.650   6.880   7.050
 6931POPC   C4B47266  33.676   6.806   7.350
 6932POPC   NC347267  16.685  41.554   5.550
 6932POPC   PO447268  16.760  41.516   5.850
 6932POPC   GL147269  16.739  41.598   6.150
 6932POPC   GL247270  16.594  41.491   6.150
 6932POPC   C1A47271  16.687  41.571   6.450
 6932POPC   D2A47272  16.697  41.589   6.750
 6932POPC   C3A47273  16.700  41.529   7.050
 6932POPC   C4A47274  16.768  41.525   7.350
 6932POPC   C1B47275  16.497  41.399   6.450
 6932POPC   C2B47276  16.588  41.355   6.750
 6932POPC   C3B47277  16.532  41.359   7.050
 6932POPC   C4B47278  16.533  41.345   7.350
 6933POPC   NC347279  12.079  12.104   5.550
 6933POPC   PO447280  12.027  12.083   5.850
 6933POPC   GL147281  12.094  12.115   6.150
 6933POPC   GL247282  12.237  12.114   6.150
 6933POPC   C1A47283  12.105  12.036   6.450
 6933POPC   D2A47284  12.063  12.124   6.750
 6933POPC   C3A47285  12.083  12.119   7.050
 6933POPC   C4A47286  12.099  12.042   7.350
 6933POPC   C1B47287  12.273  12.140   6.450
 6933POPC   C2B47288  12.363  12.168   6.750
 6933POPC   C3B47289  12.331  12.185   7.050
 6933POPC   C4B47290  12.347  12.170   7.350
 6934POPC   NC347291  29.908  20.576   5.550
 6934POPC   PO447292  29.926  20.570   5.850
 6934POPC   GL147293  29.908  20.581   6.150
 6934POPC   GL247294  29.848  20.676   6.150
 6934POPC   C1A47295  29.947  20.582   6.450
 6934POPC   D2A47296  29.885  20.569   6.750
 6934POPC   C3A47297  29.884  20.577   7.050
 6934POPC   C4A47298  29.877  20.566   7.350
 6934POPC   C1B47299  29.707  20.689   6.450
 6934POPC   C2B47300  29.647  20.630   6.750
 6934POPC   C3B47301  29.710  20.705   7.050
 6934POPC   C4B47302  29.721  20.627   7.350
 6935POPC   NC347303  28.408  23.731   5.550
 6935POPC   PO447304  28.358  23.738   5.850
 6935POPC   GL147305  28.336  23.688   6.150
 6935POPC   GL247306  28.467  23.749   6.150
 6935POPC   C1A47307  28.374  23.737   6.450
 6935POPC   D2A47308  28.418  23.683   6.750
 6935POPC   C3A47309  28.383  23.722   7.050
 6935POPC   C4A47310  28.358  23.723   7.350
 6935POPC   C1B47311  28.585  23.724   6.450
 6935POPC   C2B47312  28.624  23.772   6.750
 6935POPC   C3B47313  28.606  23.732   7.050
 6935POPC   C4B47314  28.582  23.727   7.350
 6936POPC   NC347315  17.501  15.922   5.550
 6936POPC   PO447316  17.528  15.990   5.850
 6936POPC   GL147317  17.529  15.954   6.150
 6936POPC   GL247318  17.576  15.868   6.150
 6936POPC   C1A47319  17.477  15.908   6.450
 6936POPC   D2A47320  17.490  15.923   6.750
 6936POPC   C3A47321  17.514  15.913   7.050
 6936POPC   C4A47322  17.499  15.962   7.350
 6936POPC   C1B47323  17.740  15.871   6.450
 6936POPC   C2B47324  17.771  15.877   6.750
 6936POPC   C3B47325  17.768  15.820   7.050
 6936POPC   C4B47326  17.701  15.818   7.350
 6937POPC   NC347327  15.139  36.173   5.550
 6937POPC   PO447328  15.189  36.085   5.850
 6937POPC   GL147329  15.166  36.152   6.150
 6937POPC   GL247330  15.269  36.060   6.150
 6937POPC   C1A47331  15.210  36.141   6.450
 6937POPC   D2A47332  15.218  36.118   6.750
 6937POPC   C3A47333  15.163  36.142   7.050
 6937POPC   C4A47334  15.193  36.119   7.350
 6937POPC   C1B47335  15.334  35.914   6.450
 6937POPC   C2B47336  15.295  35.960   6.750
 6937POPC   C3B47337  15.365  35.949   7.050
 6937POPC   C4B47338  15.321  35.935   7.350
 6938POPC   NC347339  39.201   4.267   5.550
 6938POPC   PO447340  39.188   4.343   5.850
 6938POPC   GL147341  39.247   4.311   6.150
 6938POPC   GL247342  39.164   4.267   6.150
 6938POPC   C1A47343  39.257   4.342   6.450
 6938POPC   D2A47344  39.222   4.341   6.750
 6938POPC   C3A47345  39.206   4.346   7.050
 6938POPC   C4A47346  39.189   4.348   7.350
 6938POPC   C1B47347  38.993   4.185   6.450
 6938POPC   C2B47348  39.001   4.228   6.750
 6938POPC   C3B47349  39.000   4.177   7.050
 6938POPC   C4B47350  39.017   4.232   7.350
 6939POPC   NC347351  18.249  42.336   5.550
 6939POPC   PO447352  18.254  42.318   5.850
 6939POPC   GL147353  18.324  42.297   6.150
 6939POPC   GL247354  18.300  42.478   6.150
 6939POPC   C1A47355  18.261  42.343   6.450
 6939POPC   D2A47356  18.295  42.348   6.750
 6939POPC   C3A47357  18.257  42.384   7.050
 6939POPC   C4A47358  18.287  42.348   7.350
 6939POPC   C1B47359  18.318  42.564   6.450
 6939POPC   C2B47360  18.288  42.578   6.750
 6939POPC   C3B47361  18.298  42.560   7.050
 6939POPC   C4B47362  18.380  42.537   7.350
 6940POPC   NC347363  24.519  22.129   5.550
 6940POPC   PO447364  24.539  22.167   5.850
 6940POPC   GL147365  24.472  22.203   6.150
 6940POPC   GL247366  24.437  22.042   6.150
 6940POPC   C1A47367  24.539  22.127   6.450
 6940POPC   D2A47368  24.534  22.139   6.750
 6940POPC   C3A47369  24.534  22.173   7.050
 6940POPC   C4A47370  24.472  22.153   7.350
 6940POPC   C1B47371  24.342  21.973   6.450
 6940POPC   C2B47372  24.380  21.986   6.750
 6940POPC   C3B47373  24.336  21.964   7.050
 6940POPC   C4B47374  24.412  21.908   7.350
 6941POPC   NC347375  39.231  40.735   5.550
 6941POPC   PO447376  39.230  40.750   5.850
 6941POPC   GL147377  39.184  40.817   6.150
 6941POPC   GL247378  39.197  40.882   6.150
 6941POPC   C1A47379  39.231  40.782   6.450
 6941POPC   D2A47380  39.263  40.734   6.750
 6941POPC   C3A47381  39.218  40.814   7.050
 6941POPC   C4A47382  39.194  40.758   7.350
 6941POPC   C1B47383  39.242  41.062   6.450
 6941POPC   C2B47384  39.168  41.042   6.750
 6941POPC   C3B47385  39.177  41.058   7.050
 6941POPC   C4B47386  39.233  41.023   7.350
 6942POPC   NC347387  13.614  19.827   5.550
 6942POPC   PO447388  13.599  19.871   5.850
 6942POPC   GL147389  13.614  19.858   6.150
 6942POPC   GL247390  13.753  19.888   6.150
 6942POPC   C1A47391  13.592  19.851   6.450
 6942POPC   D2A47392  13.579  19.802   6.750
 6942POPC   C3A47393  13.666  19.805   7.050
 6942POPC   C4A47394  13.666  19.841   7.350
 6942POPC   C1B47395  13.893  19.938   6.450
 6942POPC   C2B47396  13.862  19.983   6.750
 6942POPC   C3B47397  13.861  19.968   7.050
 6942POPC   C4B47398  13.859  19.945   7.350
 6943POPC   NC347399   5.858  29.942   5.550
 6943POPC   PO447400   5.888  29.876   5.850
 6943POPC   GL147401   5.900  29.890   6.150
 6943POPC   GL247402   5.966  29.947   6.150
 6943POPC   C1A47403   5.910  29.944   6.450
 6943POPC   D2A47404   5.844  29.963   6.750
 6943POPC   C3A47405   5.911  29.954   7.050
 6943POPC   C4A47406   5.876  29.930   7.350
 6943POPC   C1B47407   6.076  29.930   6.450
 6943POPC   C2B47408   6.075  29.994   6.750
 6943POPC   C3B47409   6.154  29.939   7.050
 6943POPC   C4B47410   6.145  29.991   7.350
 6944POPC   NC347411   8.227   8.935   5.550
 6944POPC   PO447412   8.214   8.946   5.850
 6944POPC   GL147413   8.229   8.975   6.150
 6944POPC   GL247414   8.140   8.861   6.150
 6944POPC   C1A47415   8.209   8.942   6.450
 6944POPC   D2A47416   8.151   8.930   6.750
 6944POPC   C3A47417   8.168   8.926   7.050
 6944POPC   C4A47418   8.225   9.017   7.350
 6944POPC   C1B47419   7.946   8.811   6.450
 6944POPC   C2B47420   7.958   8.822   6.750
 6944POPC   C3B47421   7.973   8.797   7.050
 6944POPC   C4B47422   8.029   8.856   7.350
 6945POPC   NC347423   0.409   1.949   5.550
 6945POPC   PO447424   0.409   2.015   5.850
 6945POPC   GL147425   0.468   2.016   6.150
 6945POPC   GL247426   0.527   1.895   6.150
 6945POPC   C1A47427   0.405   1.978   6.450
 6945POPC   D2A47428   0.480   1.953   6.750
 6945POPC   C3A47429   0.480   2.011   7.050
 6945POPC   C4A47430   0.485   1.998   7.350
 6945POPC   C1B47431   0.651   1.830   6.450
 6945POPC   C2B47432   0.700   1.849   6.750
 6945POPC   C3B47433   0.677   1.841   7.050
 6945POPC   C4B47434   0.684   1.850   7.350
 6946POPC   NC347435  22.934  29.903   5.550
 6946POPC   PO447436  22.925  29.950   5.850
 6946POPC   GL147437  22.928  29.908   6.150
 6946POPC   GL247438  23.005  29.780   6.150
 6946POPC   C1A47439  22.919  29.945   6.450
 6946POPC   D2A47440  22.961  29.962   6.750
 6946POPC   C3A47441  22.900  29.920   7.050
 6946POPC   C4A47442  22.968  29.932   7.350
 6946POPC   C1B47443  23.099  29.748   6.450
 6946POPC   C2B47444  23.135  29.738   6.750
 6946POPC   C3B47445  23.128  29.739   7.050
 6946POPC   C4B47446  23.071  29.706   7.350
 6947POPC   NC347447   8.925  16.755   5.550
 6947POPC   PO447448   8.978  16.774   5.850
 6947POPC   GL147449   8.966  16.771   6.150
 6947POPC   GL247450   8.997  16.636   6.150
 6947POPC   C1A47451   9.007  16.688   6.450
 6947POPC   D2A47452   8.986  16.741   6.750
 6947POPC   C3A47453   8.931  16.741   7.050
 6947POPC   C4A47454   9.013  16.728   7.350
 6947POPC   C1B47455   8.999  16.531   6.450
 6947POPC   C2B47456   8.948  16.461   6.750
 6947POPC   C3B47457   8.927  16.477   7.050
 6947POPC   C4B47458   8.957  16.460   7.350
 6948POPC   NC347459   1.252  32.240   5.550
 6948POPC   PO447460   1.180  32.203   5.850
 6948POPC   GL147461   1.263  32.296   6.150
 6948POPC   GL247462   1.321  32.370   6.150
 6948POPC   C1A47463   1.178  32.252   6.450
 6948POPC   D2A47464   1.248  32.254   6.750
 6948POPC   C3A47465   1.222  32.286   7.050
 6948POPC   C4A47466   1.184  32.258   7.350
 6948POPC   C1B47467   1.355  32.419   6.450
 6948POPC   C2B47468   1.376  32.486   6.750
 6948POPC   C3B47469   1.346  32.473   7.050
 6948POPC   C4B47470   1.306  32.454   7.350
 6949POPC   NC347471  22.947   8.930   5.550
 6949POPC   PO447472  22.896   9.009   5.850
 6949POPC   GL147473  22.907   8.937   6.150
 6949POPC   GL247474  23.011   9.018   6.150
 6949POPC   C1A47475  22.920   8.946   6.450
 6949POPC   D2A47476  22.983   8.970   6.750
 6949POPC   C3A47477  22.940   8.997   7.050
 6949POPC   C4A47478  22.929   8.995   7.350
 6949POPC   C1B47479  23.162   9.160   6.450
 6949POPC   C2B47480  23.139   9.108   6.750
 6949POPC   C3B47481  23.090   9.103   7.050
 6949POPC   C4B47482  23.163   9.187   7.350
 6950POPC   NC347483  43.142   1.255   5.550
 6950POPC   PO447484  43.068   1.216   5.850
 6950POPC   GL147485  43.124   1.191   6.150
 6950POPC   GL247486  43.144   1.096   6.150
 6950POPC   C1A47487  43.135   1.223   6.450
 6950POPC   D2A47488  43.069   1.173   6.750
 6950POPC   C3A47489  43.076   1.239   7.050
 6950POPC   C4A47490  43.066   1.259   7.350
 6950POPC   C1B47491  43.123   0.967   6.450
 6950POPC   C2B47492  43.126   1.001   6.750
 6950POPC   C3B47493  43.118   0.990   7.050
 6950POPC   C4B47494  43.175   0.988   7.350
 6951POPC   NC347495  12.058  20.561   5.550
 6951POPC   PO447496  12.111  20.592   5.850
 6951POPC   GL147497  12.067  20.627   6.150
 6951POPC   GL247498  12.031  20.537   6.150
 6951POPC   C1A47499  12.032  20.582   6.450
 6951POPC   D2A47500  12.060  20.658   6.750
 6951POPC   C3A47501  12.094  20.651   7.050
 6951POPC   C4A47502  12.081  20.628   7.350
 6951POPC   C1B47503  12.014  20.424   6.450
 6951POPC   C2B47504  11.960  20.354   6.750
 6951POPC   C3B47505  11.955  20.386   7.050
 6951POPC   C4B47506  11.961  20.340   7.350
 6952POPC   NC347507  11.287   1.176   5.550
 6952POPC   PO447508  11.297   1.239   5.850
 6952POPC   GL147509  11.284   1.216   6.150
 6952POPC   GL247510  11.167   1.260   6.150
 6952POPC   C1A47511  11.308   1.226   6.450
 6952POPC   D2A47512  11.258   1.204   6.750
 6952POPC   C3A47513  11.297   1.220   7.050
 6952POPC   C4A47514  11.281   1.232   7.350
 6952POPC   C1B47515  11.169   1.365   6.450
 6952POPC   C2B47516  11.137   1.384   6.750
 6952POPC   C3B47517  11.109   1.361   7.050
 6952POPC   C4B47518  11.116   1.386   7.350
 6953POPC   NC347519  33.800  40.029   5.550
 6953POPC   PO447520  33.791  40.006   5.850
 6953POPC   GL147521  33.821  40.025   6.150
 6953POPC   GL247522  33.859  40.164   6.150
 6953POPC   C1A47523  33.798  39.971   6.450
 6953POPC   D2A47524  33.793  40.003   6.750
 6953POPC   C3A47525  33.770  39.980   7.050
 6953POPC   C4A47526  33.793  39.958   7.350
 6953POPC   C1B47527  33.841  40.254   6.450
 6953POPC   C2B47528  33.856  40.255   6.750
 6953POPC   C3B47529  33.919  40.203   7.050
 6953POPC   C4B47530  33.919  40.249   7.350
 6954POPC   NC347531  21.381  16.682   5.550
 6954POPC   PO447532  21.394  16.700   5.850
 6954POPC   GL147533  21.348  16.749   6.150
 6954POPC   GL247534  21.289  16.657   6.150
 6954POPC   C1A47535  21.377  16.732   6.450
 6954POPC   D2A47536  21.411  16.707   6.750
 6954POPC   C3A47537  21.387  16.704   7.050
 6954POPC   C4A47538  21.384  16.775   7.350
 6954POPC   C1B47539  21.242  16.594   6.450
 6954POPC   C2B47540  21.210  16.541   6.750
 6954POPC   C3B47541  21.178  16.564   7.050
 6954POPC   C4B47542  21.196  16.612   7.350
 6955POPC   NC347543  33.829  31.443   5.550
 6955POPC   PO447544  33.759  31.447   5.850
 6955POPC   GL147545  33.816  31.441   6.150
 6955POPC   GL247546  33.725  31.336   6.150
 6955POPC   C1A47547  33.793  31.490   6.450
 6955POPC   D2A47548  33.756  31.517   6.750
 6955POPC   C3A47549  33.800  31.435   7.050
 6955POPC   C4A47550  33.797  31.431   7.350
 6955POPC   C1B47551  33.639  31.216   6.450
 6955POPC   C2B47552  33.704  31.306   6.750
 6955POPC   C3B47553  33.696  31.288   7.050
 6955POPC   C4B47554  33.672  31.273   7.350
 6956POPC   NC347555  33.815  29.126   5.550
 6956POPC   PO447556  33.804  29.120   5.850
 6956POPC   GL147557  33.836  29.182   6.150
 6956POPC   GL247558  33.917  29.139   6.150
 6956POPC   C1A47559  33.817  29.186   6.450
 6956POPC   D2A47560  33.812  29.171   6.750
 6956POPC   C3A47561  33.782  29.139   7.050
 6956POPC   C4A47562  33.829  29.181   7.350
 6956POPC   C1B47563  34.070  29.159   6.450
 6956POPC   C2B47564  34.040  29.162   6.750
 6956POPC   C3B47565  34.020  29.144   7.050
 6956POPC   C4B47566  34.004  29.143   7.350
 6957POPC   NC347567  44.688  44.689   5.550
 6957POPC   PO447568  44.680  44.710   5.850
 6957POPC   GL147569  44.674  44.710   6.150
 6957POPC   GL247570  44.558  44.594   6.150
 6957POPC   C1A47571  44.709  44.616   6.450
 6957POPC   D2A47572  44.693  44.621   6.750
 6957POPC   C3A47573  44.672  44.645   7.050
 6957POPC   C4A47574  44.687  44.639   7.350
 6957POPC   C1B47575  44.458  44.546   6.450
 6957POPC   C2B47576  44.485  44.535   6.750
 6957POPC   C3B47577  44.464  44.499   7.050
 6957POPC   C4B47578  44.414  44.581   7.350
 6958POPC   NC347579  26.040  29.149   5.550
 6958POPC   PO447580  26.020  29.122   5.850
 6958POPC   GL147581  26.023  29.186   6.150
 6958POPC   GL247582  25.941  29.199   6.150
 6958POPC   C1A47583  26.004  29.111   6.450
 6958POPC   D2A47584  26.010  29.153   6.750
 6958POPC   C3A47585  26.008  29.113   7.050
 6958POPC   C4A47586  25.999  29.159   7.350
 6958POPC   C1B47587  25.863  29.351   6.450
 6958POPC   C2B47588  25.848  29.346   6.750
 6958POPC   C3B47589  25.903  29.328   7.050
 6958POPC   C4B47590  25.850  29.344   7.350
 6959POPC   NC347591  28.391  39.218   5.550
 6959POPC   PO447592  28.405  39.222   5.850
 6959POPC   GL147593  28.328  39.274   6.150
 6959POPC   GL247594  28.314  39.058   6.150
 6959POPC   C1A47595  28.415  39.245   6.450
 6959POPC   D2A47596  28.418  39.191   6.750
 6959POPC   C3A47597  28.364  39.277   7.050
 6959POPC   C4A47598  28.345  39.254   7.350
 6959POPC   C1B47599  28.352  38.972   6.450
 6959POPC   C2B47600  28.363  38.976   6.750
 6959POPC   C3B47601  28.312  38.993   7.050
 6959POPC   C4B47602  28.327  38.945   7.350
 6960POPC   NC347603  10.498   2.754   5.550
 6960POPC   PO447604  10.549   2.716   5.850
 6960POPC   GL147605  10.483   2.737   6.150
 6960POPC   GL247606  10.640   2.729   6.150
 6960POPC   C1A47607  10.539   2.796   6.450
 6960POPC   D2A47608  10.539   2.760   6.750
 6960POPC   C3A47609  10.516   2.752   7.050
 6960POPC   C4A47610  10.532   2.768   7.350
 6960POPC   C1B47611  10.757   2.674   6.450
 6960POPC   C2B47612  10.777   2.592   6.750
 6960POPC   C3B47613  10.716   2.597   7.050
 6960POPC   C4B47614  10.722   2.671   7.350
 6961POPC   NC347615  10.506  41.607   5.550
 6961POPC   PO447616  10.549  41.544   5.850
 6961POPC   GL147617  10.543  41.535   6.150
 6961POPC   GL247618  10.386  41.554   6.150
 6961POPC   C1A47619  10.486  41.568   6.450
 6961POPC   D2A47620  10.490  41.601   6.750
 6961POPC   C3A47621  10.563  41.509   7.050
 6961POPC   C4A47622  10.562  41.548   7.350
 6961POPC   C1B47623  10.272  41.592   6.450
 6961POPC   C2B47624  10.264  41.579   6.750
 6961POPC   C3B47625  10.247  41.584   7.050
 6961POPC   C4B47626  10.245  41.556   7.350
 6962POPC   NC347627   6.675  36.157   5.550
 6962POPC   PO447628   6.621  36.139   5.850
 6962POPC   GL147629   6.679  36.104   6.150
 6962POPC   GL247630   6.798  36.047   6.150
 6962POPC   C1A47631   6.603  36.168   6.450
 6962POPC   D2A47632   6.658  36.112   6.750
 6962POPC   C3A47633   6.666  36.090   7.050
 6962POPC   C4A47634   6.645  36.147   7.350
 6962POPC   C1B47635   6.901  36.040   6.450
 6962POPC   C2B47636   6.863  35.980   6.750
 6962POPC   C3B47637   6.891  36.000   7.050
 6962POPC   C4B47638   6.864  36.054   7.350
 6963POPC   NC347639  36.109  23.691   5.550
 6963POPC   PO447640  36.107  23.708   5.850
 6963POPC   GL147641  36.158  23.753   6.150
 6963POPC   GL247642  36.021  23.689   6.150
 6963POPC   C1A47643  36.090  23.752   6.450
 6963POPC   D2A47644  36.092  23.676   6.750
 6963POPC   C3A47645  36.130  23.744   7.050
 6963POPC   C4A47646  36.103  23.719   7.350
 6963POPC   C1B47647  35.833  23.721   6.450
 6963POPC   C2B47648  35.884  23.702   6.750
 6963POPC   C3B47649  35.924  23.752   7.050
 6963POPC   C4B47650  35.874  23.728   7.350
 6964POPC   NC347651  18.305  10.534   5.550
 6964POPC   PO447652  18.297  10.522   5.850
 6964POPC   GL147653  18.233  10.522   6.150
 6964POPC   GL247654  18.200  10.456   6.150
 6964POPC   C1A47655  18.285  10.509   6.450
 6964POPC   D2A47656  18.318  10.521   6.750
 6964POPC   C3A47657  18.332  10.551   7.050
 6964POPC   C4A47658  18.284  10.476   7.350
 6964POPC   C1B47659  18.089  10.375   6.450
 6964POPC   C2B47660  18.121  10.392   6.750
 6964POPC   C3B47661  18.083  10.333   7.050
 6964POPC   C4B47662  18.052  10.352   7.350
 6965POPC   NC347663  22.168  27.604   5.550
 6965POPC   PO447664  22.124  27.555   5.850
 6965POPC   GL147665  22.170  27.594   6.150
 6965POPC   GL247666  22.084  27.464   6.150
 6965POPC   C1A47667  22.119  27.634   6.450
 6965POPC   D2A47668  22.186  27.586   6.750
 6965POPC   C3A47669  22.170  27.567   7.050
 6965POPC   C4A47670  22.159  27.592   7.350
 6965POPC   C1B47671  22.034  27.344   6.450
 6965POPC   C2B47672  22.057  27.408   6.750
 6965POPC   C3B47673  22.024  27.422   7.050
 6965POPC   C4B47674  21.992  27.418   7.350
 6966POPC   NC347675  32.229  32.253   5.550
 6966POPC   PO447676  32.231  32.253   5.850
 6966POPC   GL147677  32.272  32.256   6.150
 6966POPC   GL247678  32.277  32.405   6.150
 6966POPC   C1A47679  32.261  32.279   6.450
 6966POPC   D2A47680  32.298  32.245   6.750
 6966POPC   C3A47681  32.294  32.219   7.050
 6966POPC   C4A47682  32.223  32.244   7.350
 6966POPC   C1B47683  32.351  32.441   6.450
 6966POPC   C2B47684  32.418  32.470   6.750
 6966POPC   C3B47685  32.322  32.446   7.050
 6966POPC   C4B47686  32.325  32.483   7.350
 6967POPC   NC347687  19.851   9.769   5.550
 6967POPC   PO447688  19.881   9.712   5.850
 6967POPC   GL147689  19.788   9.758   6.150
 6967POPC   GL247690  19.921   9.744   6.150
 6967POPC   C1A47691  19.883   9.783   6.450
 6967POPC   D2A47692  19.830   9.762   6.750
 6967POPC   C3A47693  19.839   9.713   7.050
 6967POPC   C4A47694  19.871   9.759   7.350
 6967POPC   C1B47695  20.031   9.674   6.450
 6967POPC   C2B47696  20.119   9.644   6.750
 6967POPC   C3B47697  20.070   9.696   7.050
 6967POPC   C4B47698  20.083   9.677   7.350
 6968POPC   NC347699   6.644   2.762   5.550
 6968POPC   PO447700   6.653   2.793   5.850
 6968POPC   GL147701   6.606   2.794   6.150
 6968POPC   GL247702   6.480   2.826   6.150
 6968POPC   C1A47703   6.692   2.753   6.450
 6968POPC   D2A47704   6.684   2.763   6.750
 6968POPC   C3A47705   6.630   2.718   7.050
 6968POPC   C4A47706   6.633   2.734   7.350
 6968POPC   C1B47707   6.396   2.861   6.450
 6968POPC   C2B47708   6.376   2.829   6.750
 6968POPC   C3B47709   6.395   2.803   7.050
 6968POPC   C4B47710   6.415   2.839   7.350
 6969POPC   NC347711  27.572   1.992   5.550
 6969POPC   PO447712  27.586   1.986   5.850
 6969POPC   GL147713  27.641   1.985   6.150
 6969POPC   GL247714  27.516   2.014   6.150
 6969POPC   C1A47715  27.612   2.014   6.450
 6969POPC   D2A47716  27.641   1.958   6.750
 6969POPC   C3A47717  27.554   1.973   7.050
 6969POPC   C4A47718  27.569   1.965   7.350
 6969POPC   C1B47719  27.308   1.955   6.450
 6969POPC   C2B47720  27.320   1.992   6.750
 6969POPC   C3B47721  27.332   1.909   7.050
 6969POPC   C4B47722  27.314   1.953   7.350
 6970POPC   NC347723  42.337  44.696   5.550
 6970POPC   PO447724  42.328  44.677   5.850
 6970POPC   GL147725  42.314  44.650   6.150
 6970POPC   GL247726  42.298  44.567   6.150
 6970POPC   C1A47727  42.301  44.699   6.450
 6970POPC   D2A47728  42.309  44.703   6.750
 6970POPC   C3A47729  42.369  44.705   7.050
 6970POPC   C4A47730  42.359  44.669   7.350
 6970POPC   C1B47731  42.172  44.493   6.450
 6970POPC   C2B47732  42.211  44.503   6.750
 6970POPC   C3B47733  42.212  44.455   7.050
 6970POPC   C4B47734  42.203  44.483   7.350
 6971POPC   NC347735  24.469  29.915   5.550
 6971POPC   PO447736  24.442  29.930   5.850
 6971POPC   GL147737  24.445  29.892   6.150
 6971POPC   GL247738  24.517  29.782   6.150
 6971POPC   C1A47739  24.507  29.925   6.450
 6971POPC   D2A47740  24.470  29.968   6.750
 6971POPC   C3A47741  24.480  29.896   7.050
 6971POPC   C4A47742  24.499  29.951   7.350
 6971POPC   C1B47743  24.530  29.653   6.450
 6971POPC   C2B47744  24.518  29.647   6.750
 6971POPC   C3B47745  24.506  29.632   7.050
 6971POPC   C4B47746  24.528  29.707   7.350
 6972POPC   NC347747  26.030  25.309   5.550
 6972POPC   PO447748  26.014  25.302   5.850
 6972POPC   GL147749  26.084  25.289   6.150
 6972POPC   GL247750  25.923  25.328   6.150
 6972POPC   C1A47751  25.993  25.295   6.450
 6972POPC   D2A47752  26.000  25.250   6.750
 6972POPC   C3A47753  26.078  25.277   7.050
 6972POPC   C4A47754  26.071  25.217   7.350
 6972POPC   C1B47755  25.760  25.387   6.450
 6972POPC   C2B47756  25.791  25.369   6.750
 6972POPC   C3B47757  25.812  25.344   7.050
 6972POPC   C4B47758  25.815  25.372   7.350
 6973POPC   NC347759  22.117   2.744   5.550
 6973POPC   PO447760  22.195   2.803   5.850
 6973POPC   GL147761  22.191   2.731   6.150
 6973POPC   GL247762  22.271   2.661   6.150
 6973POPC   C1A47763  22.153   2.794   6.450
 6973POPC   D2A47764  22.198   2.784   6.750
 6973POPC   C3A47765  22.201   2.780   7.050
 6973POPC   C4A47766  22.118   2.795   7.350
 6973POPC   C1B47767  22.402   2.584   6.450
 6973POPC   C2B47768  22.312   2.610   6.750
 6973POPC   C3B47769  22.345   2.577   7.050
 6973POPC   C4B47770  22.401   2.646   7.350
 6974POPC   NC347771  22.897  35.302   5.550
 6974POPC   PO447772  22.906  35.328   5.850
 6974POPC   GL147773  22.899  35.317   6.150
 6974POPC   GL247774  22.894  35.490   6.150
 6974POPC   C1A47775  22.967  35.323   6.450
 6974POPC   D2A47776  22.952  35.316   6.750
 6974POPC   C3A47777  22.939  35.351   7.050
 6974POPC   C4A47778  22.888  35.320   7.350
 6974POPC   C1B47779  22.902  35.605   6.450
 6974POPC   C2B47780  22.880  35.552   6.750
 6974POPC   C3B47781  22.907  35.636   7.050
 6974POPC   C4B47782  22.944  35.602   7.350
 6975POPC   NC347783   1.260  34.602   5.550
 6975POPC   PO447784   1.216  34.609   5.850
 6975POPC   GL147785   1.232  34.547   6.150
 6975POPC   GL247786   1.307  34.689   6.150
 6975POPC   C1A47787   1.247  34.625   6.450
 6975POPC   D2A47788   1.242  34.527   6.750
 6975POPC   C3A47789   1.175  34.620   7.050
 6975POPC   C4A47790   1.175  34.540   7.350
 6975POPC   C1B47791   1.376  34.731   6.450
 6975POPC   C2B47792   1.401  34.700   6.750
 6975POPC   C3B47793   1.453  34.713   7.050
 6975POPC   C4B47794   1.423  34.671   7.350
 6976POPC   NC347795  43.086  26.016   5.550
 6976POPC   PO447796  43.147  26.033   5.850
 6976POPC   GL147797  43.063  26.065   6.150
 6976POPC   GL247798  43.119  25.930   6.150
 6976POPC   C1A47799  43.128  26.067   6.450
 6976POPC   D2A47800  43.078  26.017   6.750
 6976POPC   C3A47801  43.121  26.074   7.050
 6976POPC   C4A47802  43.073  26.041   7.350
 6976POPC   C1B47803  43.229  25.802   6.450
 6976POPC   C2B47804  43.190  25.799   6.750
 6976POPC   C3B47805  43.246  25.796   7.050
 6976POPC   C4B47806  43.167  25.779   7.350
 6977POPC   NC347807  32.992  26.850   5.550
 6977POPC   PO447808  33.033  26.825   5.850
 6977POPC   GL147809  33.021  26.792   6.150
 6977POPC   GL247810  32.958  26.851   6.150
 6977POPC   C1A47811  33.037  26.774   6.450
 6977POPC   D2A47812  33.000  26.796   6.750
 6977POPC   C3A47813  33.014  26.791   7.050
 6977POPC   C4A47814  32.983  26.785   7.350
 6977POPC   C1B47815  32.764  26.898   6.450
 6977POPC   C2B47816  32.763  26.939   6.750
 6977POPC   C3B47817  32.752  26.941   7.050
 6977POPC   C4B47818  32.797  26.902   7.350
 6978POPC   NC347819  31.514  19.789   5.550
 6978POPC   PO447820  31.456  19.803   5.850
 6978POPC   GL147821  31.479  19.869   6.150
 6978POPC   GL247822  31.524  19.712   6.150
 6978POPC   C1A47823  31.480  19.789   6.450
 6978POPC   D2A47824  31.455  19.805   6.750
 6978POPC   C3A47825  31.467  19.881   7.050
 6978POPC   C4A47826  31.511  19.834   7.350
 6978POPC   C1B47827  31.496  19.629   6.450
 6978POPC   C2B47828  31.469  19.544   6.750
 6978POPC   C3B47829  31.438  19.540   7.050
 6978POPC   C4B47830  31.518  19.538   7.350
 6979POPC   NC347831  30.699  23.714   5.550
 6979POPC   PO447832  30.670  23.671   5.850
 6979POPC   GL147833  30.734  23.708   6.150
 6979POPC   GL247834  30.818  23.780   6.150
 6979POPC   C1A47835  30.683  23.755   6.450
 6979POPC   D2A47836  30.697  23.692   6.750
 6979POPC   C3A47837  30.660  23.730   7.050
 6979POPC   C4A47838  30.733  23.738   7.350
 6979POPC   C1B47839  30.975  23.819   6.450
 6979POPC   C2B47840  30.945  23.754   6.750
 6979POPC   C3B47841  30.916  23.765   7.050
 6979POPC   C4B47842  30.965  23.786   7.350
 6980POPC   NC347843   5.841  42.326   5.550
 6980POPC   PO447844   5.885  42.347   5.850
 6980POPC   GL147845   5.859  42.350   6.150
 6980POPC   GL247846   5.809  42.430   6.150
 6980POPC   C1A47847   5.853  42.346   6.450
 6980POPC   D2A47848   5.831  42.367   6.750
 6980POPC   C3A47849   5.909  42.331   7.050
 6980POPC   C4A47850   5.874  42.358   7.350
 6980POPC   C1B47851   5.699  42.501   6.450
 6980POPC   C2B47852   5.724  42.459   6.750
 6980POPC   C3B47853   5.648  42.474   7.050
 6980POPC   C4B47854   5.688  42.520   7.350
 6981POPC   NC347855  27.564  36.923   5.550
 6981POPC   PO447856  27.580  36.944   5.850
 6981POPC   GL147857  27.626  36.951   6.150
 6981POPC   GL247858  27.561  36.782   6.150
 6981POPC   C1A47859  27.599  36.949   6.450
 6981POPC   D2A47860  27.586  36.909   6.750
 6981POPC   C3A47861  27.607  36.893   7.050
 6981POPC   C4A47862  27.616  36.935   7.350
 6981POPC   C1B47863  27.409  36.724   6.450
 6981POPC   C2B47864  27.450  36.674   6.750
 6981POPC   C3B47865  27.489  36.719   7.050
 6981POPC   C4B47866  27.410  36.723   7.350
 6982POPC   NC347867  29.170  35.397   5.550
 6982POPC   PO447868  29.112  35.347   5.850
 6982POPC   GL147869  29.166  35.308   6.150
 6982POPC   GL247870  29.020  35.338   6.150
 6982POPC   C1A47871  29.109  35.337   6.450
 6982POPC   D2A47872  29.168  35.332   6.750
 6982POPC   C3A47873  29.146  35.367   7.050
 6982POPC   C4A47874  29.176  35.370   7.350
 6982POPC   C1B47875  28.915  35.303   6.450
 6982POPC   C2B47876  28.887  35.291   6.750
 6982POPC   C3B47877  28.881  35.254   7.050
 6982POPC   C4B47878  28.868  35.238   7.350
 6983POPC   NC347879  29.932  39.271   5.550
 6983POPC   PO447880  29.936  39.267   5.850
 6983POPC   GL147881  29.935  39.187   6.150
 6983POPC   GL247882  29.776  39.252   6.150
 6983POPC   C1A47883  29.956  39.280   6.450
 6983POPC   D2A47884  29.891  39.183   6.750
 6983POPC   C3A47885  29.898  39.199   7.050
 6983POPC   C4A47886  29.926  39.215   7.350
 6983POPC   C1B47887  29.642  39.208   6.450
 6983POPC   C2B47888  29.703  39.262   6.750
 6983POPC   C3B47889  29.685  39.248   7.050
 6983POPC   C4B47890  29.705  39.253   7.350
 6984POPC   NC347891  40.047  28.351   5.550
 6984POPC   PO447892  39.961  28.343   5.850
 6984POPC   GL147893  40.001  28.393   6.150
 6984POPC   GL247894  39.922  28.267   6.150
 6984POPC   C1A47895  40.009  28.405   6.450
 6984POPC   D2A47896  39.976  28.319   6.750
 6984POPC   C3A47897  40.056  28.330   7.050
 6984POPC   C4A47898  40.019  28.358   7.350
 6984POPC   C1B47899  39.904  28.197   6.450
 6984POPC   C2B47900  39.838  28.118   6.750
 6984POPC   C3B47901  39.834  28.196   7.050
 6984POPC   C4B47902  39.860  28.133   7.350
 6985POPC   NC347903  44.626  38.500   5.550
 6985POPC   PO447904  44.669  38.473   5.850
 6985POPC   GL147905  44.703  38.464   6.150
 6985POPC   GL247906  44.566  38.329   6.150
 6985POPC   C1A47907  44.670  38.475   6.450
 6985POPC   D2A47908  44.620  38.494   6.750
 6985POPC   C3A47909  44.697  38.463   7.050
 6985POPC   C4A47910  44.681  38.476   7.350
 6985POPC   C1B47911  44.497  38.266   6.450
 6985POPC   C2B47912  44.448  38.335   6.750
 6985POPC   C3B47913  44.497  38.348   7.050
 6985POPC   C4B47914  44.428  38.350   7.350
 6986POPC   NC347915  40.783  24.467   5.550
 6986POPC   PO447916  40.818  24.441   5.850
 6986POPC   GL147917  40.792  24.505   6.150
 6986POPC   GL247918  40.885  24.402   6.150
 6986POPC   C1A47919  40.787  24.478   6.450
 6986POPC   D2A47920  40.811  24.492   6.750
 6986POPC   C3A47921  40.752  24.523   7.050
 6986POPC   C4A47922  40.805  24.463   7.350
 6986POPC   C1B47923  40.954  24.333   6.450
 6986POPC   C2B47924  40.922  24.242   6.750
 6986POPC   C3B47925  40.957  24.255   7.050
 6986POPC   C4B47926  40.893  24.292   7.350
 6987POPC   NC347927  12.823  40.018   5.550
 6987POPC   PO447928  12.879  39.974   5.850
 6987POPC   GL147929  12.847  40.042   6.150
 6987POPC   GL247930  13.003  39.971   6.150
 6987POPC   C1A47931  12.844  40.014   6.450
 6987POPC   D2A47932  12.812  40.004   6.750
 6987POPC   C3A47933  12.820  40.018   7.050
 6987POPC   C4A47934  12.821  40.020   7.350
 6987POPC   C1B47935  13.110  39.965   6.450
 6987POPC   C2B47936  13.084  40.029   6.750
 6987POPC   C3B47937  13.096  40.003   7.050
 6987POPC   C4B47938  13.112  40.022   7.350
 6988POPC   NC347939   8.191  36.880   5.550
 6988POPC   PO447940   8.244  36.882   5.850
 6988POPC   GL147941   8.194  36.860   6.150
 6988POPC   GL247942   8.106  36.994   6.150
 6988POPC   C1A47943   8.229  36.916   6.450
 6988POPC   D2A47944   8.191  36.884   6.750
 6988POPC   C3A47945   8.231  36.923   7.050
 6988POPC   C4A47946   8.242  36.906   7.350
 6988POPC   C1B47947   8.019  37.107   6.450
 6988POPC   C2B47948   8.013  37.131   6.750
 6988POPC   C3B47949   8.007  37.055   7.050
 6988POPC   C4B47950   7.989  37.107   7.350
 6989POPC   NC347951  23.692   2.790   5.550
 6989POPC   PO447952  23.740   2.811   5.850
 6989POPC   GL147953  23.691   2.770   6.150
 6989POPC   GL247954  23.851   2.719   6.150
 6989POPC   C1A47955  23.709   2.803   6.450
 6989POPC   D2A47956  23.761   2.773   6.750
 6989POPC   C3A47957  23.699   2.810   7.050
 6989POPC   C4A47958  23.761   2.740   7.350
 6989POPC   C1B47959  23.959   2.710   6.450
 6989POPC   C2B47960  23.982   2.735   6.750
 6989POPC   C3B47961  23.932   2.780   7.050
 6989POPC   C4B47962  23.995   2.754   7.350
 6990POPC   NC347963  23.669  22.958   5.550
 6990POPC   PO447964  23.719  22.917   5.850
 6990POPC   GL147965  23.730  22.942   6.150
 6990POPC   GL247966  23.607  22.839   6.150
 6990POPC   C1A47967  23.764  22.928   6.450
 6990POPC   D2A47968  23.732  22.964   6.750
 6990POPC   C3A47969  23.702  22.896   7.050
 6990POPC   C4A47970  23.715  22.898   7.350
 6990POPC   C1B47971  23.519  22.753   6.450
 6990POPC   C2B47972  23.497  22.818   6.750
 6990POPC   C3B47973  23.535  22.793   7.050
 6990POPC   C4B47974  23.490  22.779   7.350
 6991POPC   NC347975  20.575  29.137   5.550
 6991POPC   PO447976  20.594  29.191   5.850
 6991POPC   GL147977  20.633  29.181   6.150
 6991POPC   GL247978  20.524  29.216   6.150
 6991POPC   C1A47979  20.579  29.152   6.450
 6991POPC   D2A47980  20.612  29.149   6.750
 6991POPC   C3A47981  20.643  29.119   7.050
 6991POPC   C4A47982  20.617  29.184   7.350
 6991POPC   C1B47983  20.411  29.341   6.450
 6991POPC   C2B47984  20.376  29.288   6.750
 6991POPC   C3B47985  20.381  29.300   7.050
 6991POPC   C4B47986  20.381  29.333   7.350
 6992POPC   NC347987   7.395   0.451   5.550
 6992POPC   PO447988   7.464   0.476   5.850
 6992POPC   GL147989   7.422   0.482   6.150
 6992POPC   GL247990   7.283   0.546   6.150
 6992POPC   C1A47991   7.427   0.476   6.450
 6992POPC   D2A47992   7.460   0.456   6.750
 6992POPC   C3A47993   7.430   0.409   7.050
 6992POPC   C4A47994   7.376   0.434   7.350
 6992POPC   C1B47995   7.184   0.540   6.450
 6992POPC   C2B47996   7.203   0.522   6.750
 6992POPC   C3B47997   7.244   0.546   7.050
 6992POPC   C4B47998   7.234   0.554   7.350
 6993POPC   NC347999  32.272  15.953   5.550
 6993POPC   PO448000  32.254  15.914   5.850
 6993POPC   GL148001  32.295  15.907   6.150
 6993POPC   GL248002  32.229  16.094   6.150
 6993POPC   C1A48003  32.217  15.927   6.450
 6993POPC   D2A48004  32.297  15.978   6.750
 6993POPC   C3A48005  32.251  15.998   7.050
 6993POPC   C4A48006  32.254  15.947   7.350
 6993POPC   C1B48007  32.246  16.178   6.450
 6993POPC   C2B48008  32.224  16.219   6.750
 6993POPC   C3B48009  32.221  16.178   7.050
 6993POPC   C4B48010  32.248  16.189   7.350
 6994POPC   NC348011   8.234  36.175   5.550
 6994POPC   PO448012   8.161  36.177   5.850
 6994POPC   GL148013   8.150  36.122   6.150
 6994POPC   GL248014   8.077  36.090   6.150
 6994POPC   C1A48015   8.236  36.097   6.450
 6994POPC   D2A48016   8.179  36.127   6.750
 6994POPC   C3A48017   8.241  36.156   7.050
 6994POPC   C4A48018   8.222  36.160   7.350
 6994POPC   C1B48019   7.987  36.157   6.450
 6994POPC   C2B48020   7.974  36.133   6.750
 6994POPC   C3B48021   7.994  36.114   7.050
 6994POPC   C4B48022   7.929  36.192   7.350
 6995POPC   NC348023  18.329  22.980   5.550
 6995POPC   PO448024  18.234  22.940   5.850
 6995POPC   GL148025  18.238  22.965   6.150
 6995POPC   GL248026  18.150  22.837   6.150
 6995POPC   C1A48027  18.332  22.914   6.450
 6995POPC   D2A48028  18.244  22.968   6.750
 6995POPC   C3A48029  18.294  22.949   7.050
 6995POPC   C4A48030  18.283  22.913   7.350
 6995POPC   C1B48031  18.073  22.787   6.450
 6995POPC   C2B48032  18.037  22.811   6.750
 6995POPC   C3B48033  18.068  22.787   7.050
 6995POPC   C4B48034  18.056  22.825   7.350
 6996POPC   NC348035  36.172  35.396   5.550
 6996POPC   PO448036  36.131  35.319   5.850
 6996POPC   GL148037  36.109  35.393   6.150
 6996POPC   GL248038  36.047  35.297   6.150
 6996POPC   C1A48039  36.115  35.393   6.450
 6996POPC   D2A48040  36.156  35.337   6.750
 6996POPC   C3A48041  36.103  35.400   7.050
 6996POPC   C4A48042  36.113  35.318   7.350
 6996POPC   C1B48043  35.845  35.286   6.450
 6996POPC   C2B48044  35.918  35.302   6.750
 6996POPC   C3B48045  35.840  35.263   7.050
 6996POPC   C4B48046  35.838  35.258   7.350
 6997POPC   NC348047  36.923  15.995   5.550
 6997POPC   PO448048  36.860  15.907   5.850
 6997POPC   GL148049  36.931  15.968   6.150
 6997POPC   GL248050  36.764  15.953   6.150
 6997POPC   C1A48051  36.914  15.948   6.450
 6997POPC   D2A48052  36.951  15.932   6.750
 6997POPC   C3A48053  36.910  15.909   7.050
 6997POPC   C4A48054  36.893  15.979   7.350
 6997POPC   C1B48055  36.721  15.893   6.450
 6997POPC   C2B48056  36.663  15.903   6.750
 6997POPC   C3B48057  36.648  15.876   7.050
 6997POPC   C4B48058  36.651  15.843   7.350
 6998POPC   NC348059  30.668  31.490   5.550
 6998POPC   PO448060  30.672  31.443   5.850
 6998POPC   GL148061  30.714  31.443   6.150
 6998POPC   GL248062  30.786  31.395   6.150
 6998POPC   C1A48063  30.735  31.457   6.450
 6998POPC   D2A48064  30.733  31.447   6.750
 6998POPC   C3A48065  30.659  31.443   7.050
 6998POPC   C4A48066  30.699  31.450   7.350
 6998POPC   C1B48067  30.975  31.418   6.450
 6998POPC   C2B48068  30.900  31.414   6.750
 6998POPC   C3B48069  30.901  31.423   7.050
 6998POPC   C4B48070  30.911  31.333   7.350
 6999POPC   NC348071  44.672   8.220   5.550
 6999POPC   PO448072  44.639   8.227   5.850
 6999POPC   GL148073  44.614   8.216   6.150
 6999POPC   GL248074  44.814   8.244   6.150
 6999POPC   C1A48075  44.622   8.191   6.450
 6999POPC   D2A48076  44.647   8.171   6.750
 6999POPC   C3A48077  44.684   8.170   7.050
 6999POPC   C4A48078  44.665   8.173   7.350
 6999POPC   C1B48079  44.865   8.296   6.450
 6999POPC   C2B48080  44.925   8.314   6.750
 6999POPC   C3B48081  44.930   8.274   7.050
 6999POPC   C4B48082  44.904   8.288   7.350
 7000POPC   NC348083  28.380  38.455   5.550
 7000POPC   PO448084  28.370  38.416   5.850
 7000POPC   GL148085  28.373  38.469   6.150
 7000POPC   GL248086  28.406  38.381   6.150
 7000POPC   C1A48087  28.354  38.423   6.450
 7000POPC   D2A48088  28.345  38.418   6.750
 7000POPC   C3A48089  28.413  38.468   7.050
 7000POPC   C4A48090  28.410  38.453   7.350
 7000POPC   C1B48091  28.465  38.228   6.450
 7000POPC   C2B48092  28.545  38.294   6.750
 7000POPC   C3B48093  28.470  38.284   7.050
 7000POPC   C4B48094  28.541  38.276   7.350
 7001POPC   NC348095  25.246   6.613   5.550
 7001POPC   PO448096  25.278   6.637   5.850
 7001POPC   GL148097  25.312   6.646   6.150
 7001POPC   GL248098  25.378   6.587   6.150
 7001POPC   C1A48099  25.297   6.618   6.450
 7001POPC   D2A48100  25.222   6.621   6.750
 7001POPC   C3A48101  25.277   6.621   7.050
 7001POPC   C4A48102  25.298   6.663   7.350
 7001POPC   C1B48103  25.431   6.497   6.450
 7001POPC   C2B48104  25.395   6.453   6.750
 7001POPC   C3B48105  25.478   6.416   7.050
 7001POPC   C4B48106  25.386   6.471   7.350
 7002POPC   NC348107  40.748  22.177   5.550
 7002POPC   PO448108  40.778  22.194   5.850
 7002POPC   GL148109  40.767  22.190   6.150
 7002POPC   GL248110  40.762  22.042   6.150
 7002POPC   C1A48111  40.769  22.211   6.450
 7002POPC   D2A48112  40.739  22.191   6.750
 7002POPC   C3A48113  40.765  22.208   7.050
 7002POPC   C4A48114  40.751  22.175   7.350
 7002POPC   C1B48115  40.719  21.905   6.450
 7002POPC   C2B48116  40.710  21.890   6.750
 7002POPC   C3B48117  40.787  21.864   7.050
 7002POPC   C4B48118  40.725  21.889   7.350
 7003POPC   NC348119  38.439  12.123   5.550
 7003POPC   PO448120  38.445  12.101   5.850
 7003POPC   GL148121  38.460  12.084   6.150
 7003POPC   GL248122  38.578  12.155   6.150
 7003POPC   C1A48123  38.491  12.103   6.450
 7003POPC   D2A48124  38.470  12.031   6.750
 7003POPC   C3A48125  38.413  12.121   7.050
 7003POPC   C4A48126  38.418  12.119   7.350
 7003POPC   C1B48127  38.740  12.187   6.450
 7003POPC   C2B48128  38.713  12.171   6.750
 7003POPC   C3B48129  38.701  12.113   7.050
 7003POPC   C4B48130  38.650  12.095   7.350
 7004POPC   NC348131  40.044  15.928   5.550
 7004POPC   PO448132  39.985  15.924   5.850
 7004POPC   GL148133  39.998  15.981   6.150
 7004POPC   GL248134  40.095  15.866   6.150
 7004POPC   C1A48135  39.985  15.981   6.450
 7004POPC   D2A48136  40.046  15.963   6.750
 7004POPC   C3A48137  40.030  15.957   7.050
 7004POPC   C4A48138  39.980  15.972   7.350
 7004POPC   C1B48139  40.132  15.742   6.450
 7004POPC   C2B48140  40.114  15.767   6.750
 7004POPC   C3B48141  40.105  15.782   7.050
 7004POPC   C4B48142  40.119  15.751   7.350
 7005POPC   NC348143   2.722  25.219   5.550
 7005POPC   PO448144   2.752  25.303   5.850
 7005POPC   GL148145   2.778  25.223   6.150
 7005POPC   GL248146   2.798  25.139   6.150
 7005POPC   C1A48147   2.770  25.290   6.450
 7005POPC   D2A48148   2.809  25.223   6.750
 7005POPC   C3A48149   2.792  25.282   7.050
 7005POPC   C4A48150   2.803  25.246   7.350
 7005POPC   C1B48151   2.704  25.045   6.450
 7005POPC   C2B48152   2.688  25.061   6.750
 7005POPC   C3B48153   2.692  25.047   7.050
 7005POPC   C4B48154   2.695  24.969   7.350
 7006POPC   NC348155  29.095  41.553   5.550
 7006POPC   PO448156  29.173  41.565   5.850
 7006POPC   GL148157  29.128  41.543   6.150
 7006POPC   GL248158  29.175  41.445   6.150
 7006POPC   C1A48159  29.193  41.561   6.450
 7006POPC   D2A48160  29.100  41.543   6.750
 7006POPC   C3A48161  29.127  41.584   7.050
 7006POPC   C4A48162  29.120  41.546   7.350
 7006POPC   C1B48163  29.209  41.326   6.450
 7006POPC   C2B48164  29.221  41.329   6.750
 7006POPC   C3B48165  29.165  41.279   7.050
 7006POPC   C4B48166  29.238  41.313   7.350
 7007POPC   NC348167   1.983  42.302   5.550
 7007POPC   PO448168   1.981  42.299   5.850
 7007POPC   GL148169   2.015  42.307   6.150
 7007POPC   GL248170   2.073  42.297   6.150
 7007POPC   C1A48171   2.034  42.379   6.450
 7007POPC   D2A48172   2.000  42.319   6.750
 7007POPC   C3A48173   1.950  42.351   7.050
 7007POPC   C4A48174   1.944  42.354   7.350
 7007POPC   C1B48175   2.233  42.204   6.450
 7007POPC   C2B48176   2.189  42.217   6.750
 7007POPC   C3B48177   2.196  42.201   7.050
 7007POPC   C4B48178   2.254  42.246   7.350
 7008POPC   NC348179   5.907  30.695   5.550
 7008POPC   PO448180   5.853  30.735   5.850
 7008POPC   GL148181   5.886  30.695   6.150
 7008POPC   GL248182   5.798  30.777   6.150
 7008POPC   C1A48183   5.884  30.660   6.450
 7008POPC   D2A48184   5.883  30.673   6.750
 7008POPC   C3A48185   5.859  30.651   7.050
 7008POPC   C4A48186   5.917  30.711   7.350
 7008POPC   C1B48187   5.744  30.915   6.450
 7008POPC   C2B48188   5.793  30.972   6.750
 7008POPC   C3B48189   5.770  30.887   7.050
 7008POPC   C4B48190   5.783  30.892   7.350
 7009POPC   NC348191  41.527   2.786   5.550
 7009POPC   PO448192  41.562   2.746   5.850
 7009POPC   GL148193  41.603   2.733   6.150
 7009POPC   GL248194  41.526   2.688   6.150
 7009POPC   C1A48195  41.607   2.815   6.450
 7009POPC   D2A48196  41.582   2.773   6.750
 7009POPC   C3A48197  41.557   2.789   7.050
 7009POPC   C4A48198  41.525   2.766   7.350
 7009POPC   C1B48199  41.441   2.609   6.450
 7009POPC   C2B48200  41.388   2.566   6.750
 7009POPC   C3B48201  41.431   2.610   7.050
 7009POPC   C4B48202  41.432   2.561   7.350
 7010POPC   NC348203  41.597  15.191   5.550
 7010POPC   PO448204  41.582  15.203   5.850
 7010POPC   GL148205  41.556  15.165   6.150
 7010POPC   GL248206  41.709  15.123   6.150
 7010POPC   C1A48207  41.527  15.148   6.450
 7010POPC   D2A48208  41.530  15.147   6.750
 7010POPC   C3A48209  41.533  15.174   7.050
 7010POPC   C4A48210  41.537  15.189   7.350
 7010POPC   C1B48211  41.801  15.024   6.450
 7010POPC   C2B48212  41.767  15.066   6.750
 7010POPC   C3B48213  41.796  15.031   7.050
 7010POPC   C4B48214  41.722  15.091   7.350
 7011POPC   NC348215  12.817  20.578   5.550
 7011POPC   PO448216  12.862  20.647   5.850
 7011POPC   GL148217  12.871  20.630   6.150
 7011POPC   GL248218  12.789  20.544   6.150
 7011POPC   C1A48219  12.802  20.631   6.450
 7011POPC   D2A48220  12.843  20.641   6.750
 7011POPC   C3A48221  12.829  20.580   7.050
 7011POPC   C4A48222  12.819  20.586   7.350
 7011POPC   C1B48223  12.758  20.425   6.450
 7011POPC   C2B48224  12.740  20.366   6.750
 7011POPC   C3B48225  12.673  20.357   7.050
 7011POPC   C4B48226  12.737  20.401   7.350
 7012POPC   NC348227  14.383  39.204   5.550
 7012POPC   PO448228  14.426  39.182   5.850
 7012POPC   GL148229  14.368  39.189   6.150
 7012POPC   GL248230  14.318  39.089   6.150
 7012POPC   C1A48231  14.449  39.209   6.450
 7012POPC   D2A48232  14.434  39.223   6.750
 7012POPC   C3A48233  14.447  39.249   7.050
 7012POPC   C4A48234  14.402  39.225   7.350
 7012POPC   C1B48235  14.242  39.059   6.450
 7012POPC   C2B48236  14.276  39.046   6.750
 7012POPC   C3B48237  14.246  39.021   7.050
 7012POPC   C4B48238  14.213  39.001   7.350
 7013POPC   NC348239   5.064   6.670   5.550
 7013POPC   PO448240   5.140   6.603   5.850
 7013POPC   GL148241   5.101   6.596   6.150
 7013POPC   GL248242   5.197   6.637   6.150
 7013POPC   C1A48243   5.067   6.652   6.450
 7013POPC   D2A48244   5.130   6.660   6.750
 7013POPC   C3A48245   5.084   6.653   7.050
 7013POPC   C4A48246   5.089   6.685   7.350
 7013POPC   C1B48247   5.351   6.609   6.450
 7013POPC   C2B48248   5.337   6.672   6.750
 7013POPC   C3B48249   5.324   6.685   7.050
 7013POPC   C4B48250   5.340   6.647   7.350
 7014POPC   NC348251   5.888  31.517   5.550
 7014POPC   PO448252   5.835  31.437   5.850
 7014POPC   GL148253   5.886  31.494   6.150
 7014POPC   GL248254   5.835  31.389   6.150
 7014POPC   C1A48255   5.881  31.508   6.450
 7014POPC   D2A48256   5.858  31.432   6.750
 7014POPC   C3A48257   5.914  31.515   7.050
 7014POPC   C4A48258   5.886  31.438   7.350
 7014POPC   C1B48259   5.874  31.209   6.450
 7014POPC   C2B48260   5.813  31.228   6.750
 7014POPC   C3B48261   5.786  31.221   7.050
 7014POPC   C4B48262   5.781  31.215   7.350
 7015POPC   NC348263  22.136  10.491   5.550
 7015POPC   PO448264  22.176  10.521   5.850
 7015POPC   GL148265  22.121  10.513   6.150
 7015POPC   GL248266  22.232  10.657   6.150
 7015POPC   C1A48267  22.208  10.494   6.450
 7015POPC   D2A48268  22.130  10.508   6.750
 7015POPC   C3A48269  22.202  10.569   7.050
 7015POPC   C4A48270  22.147  10.556   7.350
 7015POPC   C1B48271  22.273  10.690   6.450
 7015POPC   C2B48272  22.269  10.729   6.750
 7015POPC   C3B48273  22.320  10.707   7.050
 7015POPC   C4B48274  22.342  10.756   7.350
 7016POPC   NC348275  41.529  28.412   5.550
 7016POPC   PO448276  41.606  28.320   5.850
 7016POPC   GL148277  41.538  28.339   6.150
 7016POPC   GL248278  41.664  28.310   6.150
 7016POPC   C1A48279  41.548  28.347   6.450
 7016POPC   D2A48280  41.541  28.329   6.750
 7016POPC   C3A48281  41.509  28.391   7.050
 7016POPC   C4A48282  41.555  28.331   7.350
 7016POPC   C1B48283  41.793  28.324   6.450
 7016POPC   C2B48284  41.808  28.311   6.750
 7016POPC   C3B48285  41.798  28.342   7.050
 7016POPC   C4B48286  41.778  28.264   7.350
 7017POPC   NC348287  37.724  26.797   5.550
 7017POPC   PO448288  37.659  26.804   5.850
 7017POPC   GL148289  37.649  26.805   6.150
 7017POPC   GL248290  37.708  26.911   6.150
 7017POPC   C1A48291  37.641  26.785   6.450
 7017POPC   D2A48292  37.663  26.825   6.750
 7017POPC   C3A48293  37.672  26.828   7.050
 7017POPC   C4A48294  37.666  26.851   7.350
 7017POPC   C1B48295  37.858  26.993   6.450
 7017POPC   C2B48296  37.814  27.008   6.750
 7017POPC   C3B48297  37.876  27.022   7.050
 7017POPC   C4B48298  37.834  26.999   7.350
 7018POPC   NC348299   5.913  44.665   5.550
 7018POPC   PO448300   5.864  44.660   5.850
 7018POPC   GL148301   5.918  44.612   6.150
 7018POPC   GL248302   5.927  44.588   6.150
 7018POPC   C1A48303   5.876  44.672   6.450
 7018POPC   D2A48304   5.860  44.675   6.750
 7018POPC   C3A48305   5.911  44.625   7.050
 7018POPC   C4A48306   5.846  44.631   7.350
 7018POPC   C1B48307   5.894  44.465   6.450
 7018POPC   C2B48308   5.987  44.453   6.750
 7018POPC   C3B48309   5.938  44.391   7.050
 7018POPC   C4B48310   5.961  44.407   7.350
 7019POPC   NC348311   7.466   3.561   5.550
 7019POPC   PO448312   7.394   3.496   5.850
 7019POPC   GL148313   7.403   3.498   6.150
 7019POPC   GL248314   7.421   3.661   6.150
 7019POPC   C1A48315   7.446   3.549   6.450
 7019POPC   D2A48316   7.399   3.513   6.750
 7019POPC   C3A48317   7.452   3.501   7.050
 7019POPC   C4A48318   7.407   3.566   7.350
 7019POPC   C1B48319   7.379   3.766   6.450
 7019POPC   C2B48320   7.366   3.825   6.750
 7019POPC   C3B48321   7.450   3.829   7.050
 7019POPC   C4B48322   7.414   3.830   7.350
 7020POPC   NC348323  23.676  32.214   5.550
 7020POPC   PO448324  23.716  32.257   5.850
 7020POPC   GL148325  23.756  32.272   6.150
 7020POPC   GL248326  23.566  32.311   6.150
 7020POPC   C1A48327  23.729  32.225   6.450
 7020POPC   D2A48328  23.755  32.260   6.750
 7020POPC   C3A48329  23.680  32.219   7.050
 7020POPC   C4A48330  23.683  32.286   7.350
 7020POPC   C1B48331  23.442  32.398   6.450
 7020POPC   C2B48332  23.487  32.340   6.750
 7020POPC   C3B48333  23.447  32.376   7.050
 7020POPC   C4B48334  23.480  32.303   7.350
 7021POPC   NC348335  11.289  36.856   5.550
 7021POPC   PO448336  11.255  36.935   5.850
 7021POPC   GL148337  11.333  36.857   6.150
 7021POPC   GL248338  11.388  37.043   6.150
 7021POPC   C1A48339  11.329  36.865   6.450
 7021POPC   D2A48340  11.298  36.923   6.750
 7021POPC   C3A48341  11.341  36.856   7.050
 7021POPC   C4A48342  11.290  36.897   7.350
 7021POPC   C1B48343  11.450  37.065   6.450
 7021POPC   C2B48344  11.463  37.124   6.750
 7021POPC   C3B48345  11.475  37.109   7.050
 7021POPC   C4B48346  11.460  37.091   7.350
 7022POPC   NC348347   2.724  39.269   5.550
 7022POPC   PO448348   2.783  39.189   5.850
 7022POPC   GL148349   2.732  39.261   6.150
 7022POPC   GL248350   2.634  39.179   6.150
 7022POPC   C1A48351   2.805  39.223   6.450
 7022POPC   D2A48352   2.730  39.200   6.750
 7022POPC   C3A48353   2.752  39.280   7.050
 7022POPC   C4A48354   2.782  39.262   7.350
 7022POPC   C1B48355   2.580  39.134   6.450
 7022POPC   C2B48356   2.535  39.081   6.750
 7022POPC   C3B48357   2.579  39.088   7.050
 7022POPC   C4B48358   2.544  39.137   7.350
 7023POPC   NC348359  11.279   5.836   5.550
 7023POPC   PO448360  11.270   5.827   5.850
 7023POPC   GL148361  11.307   5.877   6.150
 7023POPC   GL248362  11.302   5.760   6.150
 7023POPC   C1A48363  11.321   5.826   6.450
 7023POPC   D2A48364  11.330   5.908   6.750
 7023POPC   C3A48365  11.333   5.856   7.050
 7023POPC   C4A48366  11.302   5.850   7.350
 7023POPC   C1B48367  11.391   5.673   6.450
 7023POPC   C2B48368  11.352   5.632   6.750
 7023POPC   C3B48369  11.407   5.676   7.050
 7023POPC   C4B48370  11.436   5.600   7.350
 7024POPC   NC348371  10.505  19.809   5.550
 7024POPC   PO448372  10.499  19.807   5.850
 7024POPC   GL148373  10.560  19.809   6.150
 7024POPC   GL248374  10.589  19.769   6.150
 7024POPC   C1A48375  10.551  19.816   6.450
 7024POPC   D2A48376  10.539  19.796   6.750
 7024POPC   C3A48377  10.535  19.855   7.050
 7024POPC   C4A48378  10.545  19.791   7.350
 7024POPC   C1B48379  10.661  19.658   6.450
 7024POPC   C2B48380  10.722  19.628   6.750
 7024POPC   C3B48381  10.693  19.685   7.050
 7024POPC   C4B48382  10.725  19.694   7.350
 7025POPC   NC348383  17.480  41.524   5.550
 7025POPC   PO448384  17.512  41.597   5.850
 7025POPC   GL148385  17.510  41.594   6.150
 7025POPC   GL248386  17.425  41.464   6.150
 7025POPC   C1A48387  17.541  41.522   6.450
 7025POPC   D2A48388  17.470  41.602   6.750
 7025POPC   C3A48389  17.536  41.586   7.050
 7025POPC   C4A48390  17.534  41.593   7.350
 7025POPC   C1B48391  17.383  41.288   6.450
 7025POPC   C2B48392  17.466  41.346   6.750
 7025POPC   C3B48393  17.456  41.281   7.050
 7025POPC   C4B48394  17.386  41.298   7.350
 7026POPC   NC348395   0.467  33.766   5.550
 7026POPC   PO448396   0.447  33.787   5.850
 7026POPC   GL148397   0.465  33.775   6.150
 7026POPC   GL248398   0.518  33.744   6.150
 7026POPC   C1A48399   0.454  33.818   6.450
 7026POPC   D2A48400   0.462  33.821   6.750
 7026POPC   C3A48401   0.395  33.793   7.050
 7026POPC   C4A48402   0.466  33.784   7.350
 7026POPC   C1B48403   0.614  33.628   6.450
 7026POPC   C2B48404   0.594  33.585   6.750
 7026POPC   C3B48405   0.638  33.666   7.050
 7026POPC   C4B48406   0.638  33.666   7.350
 7027POPC   NC348407  12.846  33.780   5.550
 7027POPC   PO448408  12.824  33.770   5.850
 7027POPC   GL148409  12.834  33.800   6.150
 7027POPC   GL248410  12.821  33.875   6.150
 7027POPC   C1A48411  12.802  33.803   6.450
 7027POPC   D2A48412  12.860  33.846   6.750
 7027POPC   C3A48413  12.855  33.761   7.050
 7027POPC   C4A48414  12.861  33.769   7.350
 7027POPC   C1B48415  12.734  34.029   6.450
 7027POPC   C2B48416  12.729  33.986   6.750
 7027POPC   C3B48417  12.799  34.011   7.050
 7027POPC   C4B48418  12.736  34.056   7.350
 7028POPC   NC348419  44.686  25.249   5.550
 7028POPC   PO448420  44.635  25.227   5.850
 7028POPC   GL148421  44.638  25.296   6.150
 7028POPC   GL248422  44.650  25.111   6.150
 7028POPC   C1A48423  44.665  25.265   6.450
 7028POPC   D2A48424  44.675  25.225   6.750
 7028POPC   C3A48425  44.646  25.248   7.050
 7028POPC   C4A48426  44.616  25.258   7.350
 7028POPC   C1B48427  44.634  25.051   6.450
 7028POPC   C2B48428  44.712  25.005   6.750
 7028POPC   C3B48429  44.663  24.999   7.050
 7028POPC   C4B48430  44.641  25.036   7.350
 7029POPC   NC348431  24.493  17.551   5.550
 7029POPC   PO448432  24.440  17.511   5.850
 7029POPC   GL148433  24.460  17.508   6.150
 7029POPC   GL248434  24.435  17.605   6.150
 7029POPC   C1A48435  24.533  17.527   6.450
 7029POPC   D2A48436  24.476  17.535   6.750
 7029POPC   C3A48437  24.451  17.500   7.050
 7029POPC   C4A48438  24.529  17.460   7.350
 7029POPC   C1B48439  24.282  17.662   6.450
 7029POPC   C2B48440  24.321  17.648   6.750
 7029POPC   C3B48441  24.243  17.634   7.050
 7029POPC   C4B48442  24.287  17.635   7.350
 7030POPC   NC348443  23.749  41.601   5.550
 7030POPC   PO448444  23.681  41.535   5.850
 7030POPC   GL148445  23.679  41.545   6.150
 7030POPC   GL248446  23.725  41.654   6.150
 7030POPC   C1A48447  23.684  41.601   6.450
 7030POPC   D2A48448  23.684  41.595   6.750
 7030POPC   C3A48449  23.682  41.584   7.050
 7030POPC   C4A48450  23.676  41.582   7.350
 7030POPC   C1B48451  23.731  41.851   6.450
 7030POPC   C2B48452  23.700  41.850   6.750
 7030POPC   C3B48453  23.751  41.838   7.050
 7030POPC   C4B48454  23.750  41.837   7.350
 7031POPC   NC348455  17.529  43.902   5.550
 7031POPC   PO448456  17.483  43.892   5.850
 7031POPC   GL148457  17.490  43.860   6.150
 7031POPC   GL248458  17.599  43.869   6.150
 7031POPC   C1A48459  17.526  43.910   6.450
 7031POPC   D2A48460  17.487  43.844   6.750
 7031POPC   C3A48461  17.496  43.852   7.050
 7031POPC   C4A48462  17.542  43.856   7.350
 7031POPC   C1B48463  17.714  43.897   6.450
 7031POPC   C2B48464  17.729  43.970   6.750
 7031POPC   C3B48465  17.731  43.973   7.050
 7031POPC   C4B48466  17.788  43.945   7.350
 7032POPC   NC348467  41.516  35.320   5.550
 7032POPC   PO448468  41.560  35.360   5.850
 7032POPC   GL148469  41.564  35.385   6.150
 7032POPC   GL248470  41.416  35.347   6.150
 7032POPC   C1A48471  41.577  35.306   6.450
 7032POPC   D2A48472  41.519  35.376   6.750
 7032POPC   C3A48473  41.606  35.371   7.050
 7032POPC   C4A48474  41.583  35.362   7.350
 7032POPC   C1B48475  41.275  35.363   6.450
 7032POPC   C2B48476  41.322  35.361   6.750
 7032POPC   C3B48477  41.309  35.350   7.050
 7032POPC   C4B48478  41.321  35.356   7.350
 7033POPC   NC348479   8.165  11.304   5.550
 7033POPC   PO448480   8.217  11.317   5.850
 7033POPC   GL148481   8.159  11.257   6.150
 7033POPC   GL248482   8.282  11.247   6.150
 7033POPC   C1A48483   8.169  11.341   6.450
 7033POPC   D2A48484   8.198  11.349   6.750
 7033POPC   C3A48485   8.231  11.292   7.050
 7033POPC   C4A48486   8.153  11.268   7.350
 7033POPC   C1B48487   8.389  11.134   6.450
 7033POPC   C2B48488   8.399  11.153   6.750
 7033POPC   C3B48489   8.359  11.084   7.050
 7033POPC   C4B48490   8.403  11.095   7.350
 7034POPC   NC348491  22.961  43.107   5.550
 7034POPC   PO448492  22.915  43.068   5.850
 7034POPC   GL148493  22.983  43.093   6.150
 7034POPC   GL248494  22.970  43.232   6.150
 7034POPC   C1A48495  22.969  43.140   6.450
 7034POPC   D2A48496  22.893  43.145   6.750
 7034POPC   C3A48497  22.938  43.157   7.050
 7034POPC   C4A48498  22.901  43.063   7.350
 7034POPC   C1B48499  23.059  43.383   6.450
 7034POPC   C2B48500  23.005  43.324   6.750
 7034POPC   C3B48501  23.072  43.305   7.050
 7034POPC   C4B48502  23.000  43.347   7.350
 7035POPC   NC348503  29.891  36.157   5.550
 7035POPC   PO448504  29.888  36.170   5.850
 7035POPC   GL148505  29.923  36.118   6.150
 7035POPC   GL248506  30.026  36.083   6.150
 7035POPC   C1A48507  29.937  36.171   6.450
 7035POPC   D2A48508  29.948  36.161   6.750
 7035POPC   C3A48509  29.887  36.142   7.050
 7035POPC   C4A48510  29.927  36.121   7.350
 7035POPC   C1B48511  30.132  36.025   6.450
 7035POPC   C2B48512  30.111  36.022   6.750
 7035POPC   C3B48513  30.181  36.069   7.050
 7035POPC   C4B48514  30.117  36.013   7.350
 7036POPC   NC348515   5.142  28.383   5.550
 7036POPC   PO448516   5.059  28.392   5.850
 7036POPC   GL148517   5.132  28.399   6.150
 7036POPC   GL248518   5.219  28.355   6.150
 7036POPC   C1A48519   5.104  28.359   6.450
 7036POPC   D2A48520   5.111  28.407   6.750
 7036POPC   C3A48521   5.101  28.382   7.050
 7036POPC   C4A48522   5.102  28.387   7.350
 7036POPC   C1B48523   5.333  28.333   6.450
 7036POPC   C2B48524   5.383  28.321   6.750
 7036POPC   C3B48525   5.344  28.328   7.050
 7036POPC   C4B48526   5.300  28.286   7.350
 7037POPC   NC348527  27.617  12.866   5.550
 7037POPC   PO448528  27.588  12.884   5.850
 7037POPC   GL148529  27.606  12.825   6.150
 7037POPC   GL248530  27.675  12.772   6.150
 7037POPC   C1A48531  27.578  12.813   6.450
 7037POPC   D2A48532  27.628  12.875   6.750
 7037POPC   C3A48533  27.601  12.902   7.050
 7037POPC   C4A48534  27.579  12.865   7.350
 7037POPC   C1B48535  27.842  12.745   6.450
 7037POPC   C2B48536  27.828  12.785   6.750
 7037POPC   C3B48537  27.782  12.730   7.050
 7037POPC   C4B48538  27.777  12.754   7.350
 7038POPC   NC348539  31.483  21.424   5.550
 7038POPC   PO448540  31.484  21.433   5.850
 7038POPC   GL148541  31.500  21.381   6.150
 7038POPC   GL248542  31.355  21.365   6.150
 7038POPC   C1A48543  31.478  21.384   6.450
 7038POPC   D2A48544  31.427  21.338   6.750
 7038POPC   C3A48545  31.436  21.401   7.050
 7038POPC   C4A48546  31.434  21.402   7.350
 7038POPC   C1B48547  31.231  21.365   6.450
 7038POPC   C2B48548  31.185  21.391   6.750
 7038POPC   C3B48549  31.264  21.432   7.050
 7038POPC   C4B48550  31.234  21.369   7.350
 7039POPC   NC348551  30.689  29.104   5.550
 7039POPC   PO448552  30.702  29.108   5.850
 7039POPC   GL148553  30.697  29.110   6.150
 7039POPC   GL248554  30.706  29.301   6.150
 7039POPC   C1A48555  30.737  29.102   6.450
 7039POPC   D2A48556  30.710  29.109   6.750
 7039POPC   C3A48557  30.652  29.161   7.050
 7039POPC   C4A48558  30.679  29.147   7.350
 7039POPC   C1B48559  30.764  29.394   6.450
 7039POPC   C2B48560  30.822  29.344   6.750
 7039POPC   C3B48561  30.773  29.343   7.050
 7039POPC   C4B48562  30.789  29.389   7.350
 7040POPC   NC348563  32.985  25.259   5.550
 7040POPC   PO448564  32.997  25.280   5.850
 7040POPC   GL148565  32.983  25.229   6.150
 7040POPC   GL248566  33.071  25.399   6.150
 7040POPC   C1A48567  33.016  25.231   6.450
 7040POPC   D2A48568  33.060  25.216   6.750
 7040POPC   C3A48569  33.070  25.295   7.050
 7040POPC   C4A48570  33.022  25.287   7.350
 7040POPC   C1B48571  33.157  25.514   6.450
 7040POPC   C2B48572  33.127  25.479   6.750
 7040POPC   C3B48573  33.154  25.505   7.050
 7040POPC   C4B48574  33.154  25.451   7.350
 7041POPC   NC348575   8.246  31.464   5.550
 7041POPC   PO448576   8.243  31.448   5.850
 7041POPC   GL148577   8.170  31.425   6.150
 7041POPC   GL248578   8.266  31.318   6.150
 7041POPC   C1A48579   8.230  31.456   6.450
 7041POPC   D2A48580   8.171  31.496   6.750
 7041POPC   C3A48581   8.207  31.507   7.050
 7041POPC   C4A48582   8.156  31.498   7.350
 7041POPC   C1B48583   8.265  31.261   6.450
 7041POPC   C2B48584   8.208  31.207   6.750
 7041POPC   C3B48585   8.203  31.220   7.050
 7041POPC   C4B48586   8.200  31.183   7.350
 7042POPC   NC348587  26.832  26.073   5.550
 7042POPC   PO448588  26.792  26.012   5.850
 7042POPC   GL148589  26.842  26.061   6.150
 7042POPC   GL248590  26.880  26.155   6.150
 7042POPC   C1A48591  26.837  26.019   6.450
 7042POPC   D2A48592  26.856  26.071   6.750
 7042POPC   C3A48593  26.827  26.027   7.050
 7042POPC   C4A48594  26.771  26.004   7.350
 7042POPC   C1B48595  26.876  26.267   6.450
 7042POPC   C2B48596  26.886  26.271   6.750
 7042POPC   C3B48597  26.851  26.327   7.050
 7042POPC   C4B48598  26.874  26.292   7.350
 7043POPC   NC348599  11.294  20.627   5.550
 7043POPC   PO448600  11.279  20.612   5.850
 7043POPC   GL148601  11.298  20.586   6.150
 7043POPC   GL248602  11.396  20.755   6.150
 7043POPC   C1A48603  11.350  20.650   6.450
 7043POPC   D2A48604  11.316  20.568   6.750
 7043POPC   C3A48605  11.321  20.633   7.050
 7043POPC   C4A48606  11.259  20.568   7.350
 7043POPC   C1B48607  11.442  20.856   6.450
 7043POPC   C2B48608  11.375  20.804   6.750
 7043POPC   C3B48609  11.437  20.821   7.050
 7043POPC   C4B48610  11.417  20.874   7.350
 7044POPC   NC348611  17.493  31.445   5.550
 7044POPC   PO448612  17.473  31.514   5.850
 7044POPC   GL148613  17.478  31.508   6.150
 7044POPC   GL248614  17.615  31.339   6.150
 7044POPC   C1A48615  17.512  31.519   6.450
 7044POPC   D2A48616  17.502  31.511   6.750
 7044POPC   C3A48617  17.526  31.464   7.050
 7044POPC   C4A48618  17.513  31.475   7.350
 7044POPC   C1B48619  17.667  31.336   6.450
 7044POPC   C2B48620  17.727  31.303   6.750
 7044POPC   C3B48621  17.729  31.312   7.050
 7044POPC   C4B48622  17.685  31.261   7.350
 7045POPC   NC348623  25.289   2.814   5.550
 7045POPC   PO448624  25.294   2.740   5.850
 7045POPC   GL148625  25.270   2.790   6.150
 7045POPC   GL248626  25.172   2.717   6.150
 7045POPC   C1A48627  25.224   2.768   6.450
 7045POPC   D2A48628  25.227   2.760   6.750
 7045POPC   C3A48629  25.292   2.811   7.050
 7045POPC   C4A48630  25.227   2.804   7.350
 7045POPC   C1B48631  24.996   2.711   6.450
 7045POPC   C2B48632  24.987   2.699   6.750
 7045POPC   C3B48633  25.045   2.678   7.050
 7045POPC   C4B48634  25.045   2.711   7.350
 7046POPC   NC348635  19.072   5.846   5.550
 7046POPC   PO448636  19.081   5.893   5.850
 7046POPC   GL148637  19.086   5.869   6.150
 7046POPC   GL248638  18.994   5.750   6.150
 7046POPC   C1A48639  19.053   5.829   6.450
 7046POPC   D2A48640  19.079   5.904   6.750
 7046POPC   C3A48641  19.018   5.891   7.050
 7046POPC   C4A48642  19.039   5.907   7.350
 7046POPC   C1B48643  18.968   5.692   6.450
 7046POPC   C2B48644  18.943   5.693   6.750
 7046POPC   C3B48645  18.951   5.636   7.050
 7046POPC   C4B48646  18.920   5.638   7.350
 7047POPC   NC348647  38.442  37.664   5.550
 7047POPC   PO448648  38.471  37.696   5.850
 7047POPC   GL148649  38.484  37.640   6.150
 7047POPC   GL248650  38.353  37.762   6.150
 7047POPC   C1A48651  38.435  37.709   6.450
 7047POPC   D2A48652  38.426  37.704   6.750
 7047POPC   C3A48653  38.466  37.672   7.050
 7047POPC   C4A48654  38.436  37.654   7.350
 7047POPC   C1B48655  38.289  37.860   6.450
 7047POPC   C2B48656  38.231  37.864   6.750
 7047POPC   C3B48657  38.221  37.825   7.050
 7047POPC   C4B48658  38.247  37.868   7.350
 7048POPC   NC348659  15.944  17.500   5.550
 7048POPC   PO448660  15.932  17.464   5.850
 7048POPC   GL148661  15.985  17.557   6.150
 7048POPC   GL248662  16.048  17.439   6.150
 7048POPC   C1A48663  15.943  17.477   6.450
 7048POPC   D2A48664  15.996  17.552   6.750
 7048POPC   C3A48665  15.941  17.523   7.050
 7048POPC   C4A48666  15.976  17.533   7.350
 7048POPC   C1B48667  16.246  17.492   6.450
 7048POPC   C2B48668  16.163  17.505   6.750
 7048POPC   C3B48669  16.170  17.516   7.050
 7048POPC   C4B48670  16.160  17.482   7.350
 7049POPC   NC348671   3.588   6.603   5.550
 7049POPC   PO448672   3.495   6.605   5.850
 7049POPC   GL148673   3.541   6.646   6.150
 7049POPC   GL248674   3.493   6.679   6.150
 7049POPC   C1A48675   3.526   6.635   6.450
 7049POPC   D2A48676   3.501   6.667   6.750
 7049POPC   C3A48677   3.551   6.678   7.050
 7049POPC   C4A48678   3.576   6.682   7.350
 7049POPC   C1B48679   3.371   6.769   6.450
 7049POPC   C2B48680   3.336   6.786   6.750
 7049POPC   C3B48681   3.328   6.805   7.050
 7049POPC   C4B48682   3.327   6.767   7.350
 7050POPC   NC348683  31.512   0.463   5.550
 7050POPC   PO448684  31.515   0.425   5.850
 7050POPC   GL148685  31.462   0.444   6.150
 7050POPC   GL248686  31.587   0.313   6.150
 7050POPC   C1A48687  31.497   0.472   6.450
 7050POPC   D2A48688  31.432   0.476   6.750
 7050POPC   C3A48689  31.504   0.448   7.050
 7050POPC   C4A48690  31.452   0.467   7.350
 7050POPC   C1B48691  31.710   0.261   6.450
 7050POPC   C2B48692  31.694   0.241   6.750
 7050POPC   C3B48693  31.650   0.281   7.050
 7050POPC   C4B48694  31.710   0.237   7.350
 7051POPC   NC348695   7.461  35.389   5.550
 7051POPC   PO448696   7.405  35.332   5.850
 7051POPC   GL148697   7.458  35.387   6.150
 7051POPC   GL248698   7.361  35.257   6.150
 7051POPC   C1A48699   7.372  35.366   6.450
 7051POPC   D2A48700   7.415  35.342   6.750
 7051POPC   C3A48701   7.435  35.309   7.050
 7051POPC   C4A48702   7.411  35.302   7.350
 7051POPC   C1B48703   7.269  35.143   6.450
 7051POPC   C2B48704   7.243  35.125   6.750
 7051POPC   C3B48705   7.300  35.204   7.050
 7051POPC   C4B48706   7.228  35.162   7.350
 7052POPC   NC348707  10.511  32.980   5.550
 7052POPC   PO448708  10.496  33.011   5.850
 7052POPC   GL148709  10.566  33.040   6.150
 7052POPC   GL248710  10.691  33.053   6.150
 7052POPC   C1A48711  10.549  32.988   6.450
 7052POPC   D2A48712  10.494  33.054   6.750
 7052POPC   C3A48713  10.530  33.054   7.050
 7052POPC   C4A48714  10.546  33.058   7.350
 7052POPC   C1B48715  10.809  33.045   6.450
 7052POPC   C2B48716  10.798  32.996   6.750
 7052POPC   C3B48717  10.731  33.075   7.050
 7052POPC   C4B48718  10.781  33.058   7.350
 7053POPC   NC348719   1.953  15.210   5.550
 7053POPC   PO448720   1.976  15.163   5.850
 7053POPC   GL148721   1.975  15.165   6.150
 7053POPC   GL248722   2.067  15.095   6.150
 7053POPC   C1A48723   2.026  15.179   6.450
 7053POPC   D2A48724   1.987  15.174   6.750
 7053POPC   C3A48725   1.946  15.132   7.050
 7053POPC   C4A48726   1.959  15.194   7.350
 7053POPC   C1B48727   2.165  14.996   6.450
 7053POPC   C2B48728   2.201  15.057   6.750
 7053POPC   C3B48729   2.152  15.065   7.050
 7053POPC   C4B48730   2.163  15.064   7.350
 7054POPC   NC348731  29.937   8.971   5.550
 7054POPC   PO448732  29.953   9.022   5.850
 7054POPC   GL148733  29.900   8.965   6.150
 7054POPC   GL248734  29.920   9.123   6.150
 7054POPC   C1A48735  29.871   9.008   6.450
 7054POPC   D2A48736  29.913   8.989   6.750
 7054POPC   C3A48737  29.917   9.015   7.050
 7054POPC   C4A48738  29.945   9.010   7.350
 7054POPC   C1B48739  29.834   9.180   6.450
 7054POPC   C2B48740  29.827   9.191   6.750
 7054POPC   C3B48741  29.826   9.249   7.050
 7054POPC   C4B48742  29.913   9.258   7.350
 7055POPC   NC348743   2.022  35.348   5.550
 7055POPC   PO448744   1.943  35.371   5.850
 7055POPC   GL148745   1.998  35.347   6.150
 7055POPC   GL248746   1.886  35.354   6.150
 7055POPC   C1A48747   1.986  35.357   6.450
 7055POPC   D2A48748   1.992  35.315   6.750
 7055POPC   C3A48749   2.028  35.391   7.050
 7055POPC   C4A48750   1.975  35.312   7.350
 7055POPC   C1B48751   1.777  35.284   6.450
 7055POPC   C2B48752   1.725  35.226   6.750
 7055POPC   C3B48753   1.745  35.298   7.050
 7055POPC   C4B48754   1.733  35.238   7.350
 7056POPC   NC348755  23.669  33.807   5.550
 7056POPC   PO448756  23.689  33.843   5.850
 7056POPC   GL148757  23.685  33.814   6.150
 7056POPC   GL248758  23.579  33.756   6.150
 7056POPC   C1A48759  23.665  33.780   6.450
 7056POPC   D2A48760  23.675  33.763   6.750
 7056POPC   C3A48761  23.731  33.816   7.050
 7056POPC   C4A48762  23.676  33.802   7.350
 7056POPC   C1B48763  23.535  33.643   6.450
 7056POPC   C2B48764  23.497  33.703   6.750
 7056POPC   C3B48765  23.519  33.671   7.050
 7056POPC   C4B48766  23.478  33.670   7.350
 7057POPC   NC348767  36.087   2.802   5.550
 7057POPC   PO448768  36.121   2.812   5.850
 7057POPC   GL148769  36.155   2.779   6.150
 7057POPC   GL248770  35.999   2.683   6.150
 7057POPC   C1A48771  36.105   2.806   6.450
 7057POPC   D2A48772  36.081   2.719   6.750
 7057POPC   C3A48773  36.085   2.803   7.050
 7057POPC   C4A48774  36.121   2.766   7.350
 7057POPC   C1B48775  35.889   2.659   6.450
 7057POPC   C2B48776  35.915   2.600   6.750
 7057POPC   C3B48777  35.857   2.608   7.050
 7057POPC   C4B48778  35.941   2.603   7.350
 7058POPC   NC348779  30.703  13.677   5.550
 7058POPC   PO448780  30.651  13.610   5.850
 7058POPC   GL148781  30.647  13.670   6.150
 7058POPC   GL248782  30.598  13.632   6.150
 7058POPC   C1A48783  30.649  13.661   6.450
 7058POPC   D2A48784  30.671  13.666   6.750
 7058POPC   C3A48785  30.725  13.604   7.050
 7058POPC   C4A48786  30.725  13.602   7.350
 7058POPC   C1B48787  30.418  13.582   6.450
 7058POPC   C2B48788  30.463  13.556   6.750
 7058POPC   C3B48789  30.440  13.576   7.050
 7058POPC   C4B48790  30.460  13.500   7.350
 7059POPC   NC348791  44.641  19.094   5.550
 7059POPC   PO448792  44.710  19.020   5.850
 7059POPC   GL148793  44.643  19.106   6.150
 7059POPC   GL248794  44.502  19.054   6.150
 7059POPC   C1A48795  44.711  19.099   6.450
 7059POPC   D2A48796  44.642  19.102   6.750
 7059POPC   C3A48797  44.639  19.078   7.050
 7059POPC   C4A48798  44.646  19.067   7.350
 7059POPC   C1B48799  44.364  19.080   6.450
 7059POPC   C2B48800  44.416  19.095   6.750
 7059POPC   C3B48801  44.376  19.054   7.050
 7059POPC   C4B48802  44.410  19.059   7.350
 7060POPC   NC348803  11.282   2.778   5.550
 7060POPC   PO448804  11.340   2.802   5.850
 7060POPC   GL148805  11.339   2.805   6.150
 7060POPC   GL248806  11.402   2.785   6.150
 7060POPC   C1A48807  11.281   2.804   6.450
 7060POPC   D2A48808  11.317   2.807   6.750
 7060POPC   C3A48809  11.309   2.747   7.050
 7060POPC   C4A48810  11.272   2.772   7.350
 7060POPC   C1B48811  11.556   2.844   6.450
 7060POPC   C2B48812  11.507   2.802   6.750
 7060POPC   C3B48813  11.497   2.798   7.050
 7060POPC   C4B48814  11.521   2.791   7.350
 7061POPC   NC348815   5.872  15.960   5.550
 7061POPC   PO448816   5.838  15.961   5.850
 7061POPC   GL148817   5.893  15.938   6.150
 7061POPC   GL248818   5.713  15.992   6.150
 7061POPC   C1A48819   5.884  15.922   6.450
 7061POPC   D2A48820   5.910  16.000   6.750
 7061POPC   C3A48821   5.881  15.908   7.050
 7061POPC   C4A48822   5.865  15.990   7.350
 7061POPC   C1B48823   5.632  15.968   6.450
 7061POPC   C2B48824   5.600  15.969   6.750
 7061POPC   C3B48825   5.650  16.006   7.050
 7061POPC   C4B48826   5.642  15.978   7.350
 7062POPC   NC348827  29.934  22.943   5.550
 7062POPC   PO448828  29.964  22.965   5.850
 7062POPC   GL148829  29.970  22.929   6.150
 7062POPC   GL248830  29.814  22.986   6.150
 7062POPC   C1A48831  29.926  22.973   6.450
 7062POPC   D2A48832  29.873  22.942   6.750
 7062POPC   C3A48833  29.881  22.905   7.050
 7062POPC   C4A48834  29.893  22.939   7.350
 7062POPC   C1B48835  29.718  23.143   6.450
 7062POPC   C2B48836  29.703  23.076   6.750
 7062POPC   C3B48837  29.708  23.124   7.050
 7062POPC   C4B48838  29.703  23.099   7.350
 7063POPC   NC348839  35.322  32.251   5.550
 7063POPC   PO448840  35.340  32.291   5.850
 7063POPC   GL148841  35.345  32.258   6.150
 7063POPC   GL248842  35.495  32.289   6.150
 7063POPC   C1A48843  35.378  32.218   6.450
 7063POPC   D2A48844  35.383  32.220   6.750
 7063POPC   C3A48845  35.329  32.218   7.050
 7063POPC   C4A48846  35.361  32.241   7.350
 7063POPC   C1B48847  35.635  32.258   6.450
 7063POPC   C2B48848  35.639  32.329   6.750
 7063POPC   C3B48849  35.645  32.305   7.050
 7063POPC   C4B48850  35.594  32.233   7.350
 7064POPC   NC348851  13.641  37.701   5.550
 7064POPC   PO448852  13.669  37.711   5.850
 7064POPC   GL148853  13.658  37.668   6.150
 7064POPC   GL248854  13.681  37.772   6.150
 7064POPC   C1A48855  13.643  37.649   6.450
 7064POPC   D2A48856  13.633  37.691   6.750
 7064POPC   C3A48857  13.629  37.640   7.050
 7064POPC   C4A48858  13.633  37.689   7.350
 7064POPC   C1B48859  13.644  37.896   6.450
 7064POPC   C2B48860  13.642  37.966   6.750
 7064POPC   C3B48861  13.679  37.891   7.050
 7064POPC   C4B48862  13.690  37.963   7.350
 7065POPC   NC348863  26.040  28.398   5.550
 7065POPC   PO448864  26.081  28.412   5.850
 7065POPC   GL148865  26.059  28.367   6.150
 7065POPC   GL248866  26.102  28.319   6.150
 7065POPC   C1A48867  26.077  28.409   6.450
 7065POPC   D2A48868  26.051  28.418   6.750
 7065POPC   C3A48869  26.081  28.369   7.050
 7065POPC   C4A48870  26.066  28.391   7.350
 7065POPC   C1B48871  26.310  28.237   6.450
 7065POPC   C2B48872  26.309  28.273   6.750
 7065POPC   C3B48873  26.282  28.246   7.050
 7065POPC   C4B48874  26.244  28.210   7.350
 7066POPC   NC348875  42.358  25.291   5.550
 7066POPC   PO448876  42.362  25.230   5.850
 7066POPC   GL148877  42.295  25.232   6.150
 7066POPC   GL248878  42.341  25.101   6.150
 7066POPC   C1A48879  42.368  25.300   6.450
 7066POPC   D2A48880  42.369  25.245   6.750
 7066POPC   C3A48881  42.384  25.221   7.050
 7066POPC   C4A48882  42.355  25.217   7.350
 7066POPC   C1B48883  42.296  24.982   6.450
 7066POPC   C2B48884  42.344  25.006   6.750
 7066POPC   C3B48885  42.298  25.047   7.050
 7066POPC   C4B48886  42.356  25.005   7.350
 7067POPC   NC348887  19.021  17.462   5.550
 7067POPC   PO448888  19.101  17.545   5.850
 7067POPC   GL148889  19.024  17.514   6.150
 7067POPC   GL248890  19.229  17.579   6.150
 7067POPC   C1A48891  19.091  17.538   6.450
 7067POPC   D2A48892  19.071  17.514   6.750
 7067POPC   C3A48893  19.064  17.540   7.050
 7067POPC   C4A48894  19.038  17.537   7.350
 7067POPC   C1B48895  19.312  17.594   6.450
 7067POPC   C2B48896  19.317  17.518   6.750
 7067POPC   C3B48897  19.350  17.520   7.050
 7067POPC   C4B48898  19.310  17.572   7.350
 7068POPC   NC348899  12.898   4.307   5.550
 7068POPC   PO448900  12.848   4.285   5.850
 7068POPC   GL148901  12.814   4.356   6.150
 7068POPC   GL248902  12.985   4.236   6.150
 7068POPC   C1A48903  12.838   4.324   6.450
 7068POPC   D2A48904  12.833   4.285   6.750
 7068POPC   C3A48905  12.875   4.280   7.050
 7068POPC   C4A48906  12.818   4.306   7.350
 7068POPC   C1B48907  13.056   4.186   6.450
 7068POPC   C2B48908  13.055   4.217   6.750
 7068POPC   C3B48909  13.038   4.205   7.050
 7068POPC   C4B48910  13.041   4.161   7.350
 7069POPC   NC348911  35.353  24.479   5.550
 7069POPC   PO448912  35.393  24.454   5.850
 7069POPC   GL148913  35.400  24.443   6.150
 7069POPC   GL248914  35.243  24.527   6.150
 7069POPC   C1A48915  35.339  24.468   6.450
 7069POPC   D2A48916  35.367  24.464   6.750
 7069POPC   C3A48917  35.310  24.450   7.050
 7069POPC   C4A48918  35.333  24.465   7.350
 7069POPC   C1B48919  35.168  24.610   6.450
 7069POPC   C2B48920  35.201  24.625   6.750
 7069POPC   C3B48921  35.162  24.688   7.050
 7069POPC   C4B48922  35.153  24.674   7.350
 7070POPC   NC348923  13.673  43.155   5.550
 7070POPC   PO448924  13.670  43.149   5.850
 7070POPC   GL148925  13.652  43.154   6.150
 7070POPC   GL248926  13.641  43.020   6.150
 7070POPC   C1A48927  13.597  43.085   6.450
 7070POPC   D2A48928  13.600  43.116   6.750
 7070POPC   C3A48929  13.658  43.116   7.050
 7070POPC   C4A48930  13.588  43.081   7.350
 7070POPC   C1B48931  13.662  42.843   6.450
 7070POPC   C2B48932  13.601  42.872   6.750
 7070POPC   C3B48933  13.625  42.856   7.050
 7070POPC   C4B48934  13.671  42.813   7.350
 7071POPC   NC348935  35.368  19.847   5.550
 7071POPC   PO448936  35.304  19.854   5.850
 7071POPC   GL148937  35.326  19.858   6.150
 7071POPC   GL248938  35.308  19.750   6.150
 7071POPC   C1A48939  35.367  19.848   6.450
 7071POPC   D2A48940  35.377  19.870   6.750
 7071POPC   C3A48941  35.393  19.800   7.050
 7071POPC   C4A48942  35.311  19.843   7.350
 7071POPC   C1B48943  35.197  19.576   6.450
 7071POPC   C2B48944  35.225  19.586   6.750
 7071POPC   C3B48945  35.214  19.576   7.050
 7071POPC   C4B48946  35.244  19.608   7.350
 7072POPC   NC348947   6.603  13.615   5.550
 7072POPC   PO448948   6.686  13.654   5.850
 7072POPC   GL148949   6.675  13.591   6.150
 7072POPC   GL248950   6.773  13.497   6.150
 7072POPC   C1A48951   6.694  13.661   6.450
 7072POPC   D2A48952   6.614  13.622   6.750
 7072POPC   C3A48953   6.611  13.652   7.050
 7072POPC   C4A48954   6.602  13.659   7.350
 7072POPC   C1B48955   6.778  13.409   6.450
 7072POPC   C2B48956   6.782  13.456   6.750
 7072POPC   C3B48957   6.796  13.416   7.050
 7072POPC   C4B48958   6.863  13.496   7.350
 7073POPC   NC348959  19.065  22.904   5.550
 7073POPC   PO448960  19.077  22.892   5.850
 7073POPC   GL148961  19.101  22.909   6.150
 7073POPC   GL248962  19.009  22.890   6.150
 7073POPC   C1A48963  19.074  22.968   6.450
 7073POPC   D2A48964  19.044  22.981   6.750
 7073POPC   C3A48965  19.027  22.956   7.050
 7073POPC   C4A48966  19.018  22.968   7.350
 7073POPC   C1B48967  18.841  22.753   6.450
 7073POPC   C2B48968  18.841  22.811   6.750
 7073POPC   C3B48969  18.855  22.785   7.050
 7073POPC   C4B48970  18.851  22.751   7.350
 7074POPC   NC348971  39.993   0.452   5.550
 7074POPC   PO448972  39.982   0.486   5.850
 7074POPC   GL148973  39.991   0.450   6.150
 7074POPC   GL248974  40.074   0.353   6.150
 7074POPC   C1A48975  40.020   0.412   6.450
 7074POPC   D2A48976  40.015   0.414   6.750
 7074POPC   C3A48977  40.056   0.454   7.050
 7074POPC   C4A48978  40.021   0.469   7.350
 7074POPC   C1B48979  40.227   0.297   6.450
 7074POPC   C2B48980  40.181   0.256   6.750
 7074POPC   C3B48981  40.215   0.241   7.050
 7074POPC   C4B48982  40.169   0.266   7.350
 7075POPC   NC348983  10.483  29.931   5.550
 7075POPC   PO448984  10.521  29.876   5.850
 7075POPC   GL148985  10.528  29.918   6.150
 7075POPC   GL248986  10.541  30.020   6.150
 7075POPC   C1A48987  10.520  29.919   6.450
 7075POPC   D2A48988  10.490  29.886   6.750
 7075POPC   C3A48989  10.508  29.937   7.050
 7075POPC   C4A48990  10.483  29.880   7.350
 7075POPC   C1B48991  10.538  30.197   6.450
 7075POPC   C2B48992  10.522  30.216   6.750
 7075POPC   C3B48993  10.547  30.130   7.050
 7075POPC   C4B48994  10.553  30.133   7.350
 7076POPC   NC348995  30.691  12.866   5.550
 7076POPC   PO448996  30.720  12.872   5.850
 7076POPC   GL148997  30.702  12.819   6.150
 7076POPC   GL248998  30.808  12.909   6.150
 7076POPC   C1A48999  30.723  12.861   6.450
 7076POPC   D2A49000  30.680  12.882   6.750
 7076POPC   C3A49001  30.657  12.819   7.050
 7076POPC   C4A49002  30.708  12.825   7.350
 7076POPC   C1B49003  30.907  12.848   6.450
 7076POPC   C2B49004  30.965  12.852   6.750
 7076POPC   C3B49005  30.920  12.843   7.050
 7076POPC   C4B49006  30.899  12.892   7.350
 7077POPC   NC349007  30.740  39.199   5.550
 7077POPC   PO449008  30.713  39.213   5.850
 7077POPC   GL149009  30.711  39.188   6.150
 7077POPC   GL249010  30.604  39.167   6.150
 7077POPC   C1A49011  30.697  39.216   6.450
 7077POPC   D2A49012  30.738  39.238   6.750
 7077POPC   C3A49013  30.736  39.278   7.050
 7077POPC   C4A49014  30.648  39.278   7.350
 7077POPC   C1B49015  30.442  39.165   6.450
 7077POPC   C2B49016  30.520  39.168   6.750
 7077POPC   C3B49017  30.429  39.117   7.050
 7077POPC   C4B49018  30.475  39.073   7.350
 7078POPC   NC349019   9.740  24.536   5.550
 7078POPC   PO449020   9.730  24.477   5.850
 7078POPC   GL149021   9.731  24.536   6.150
 7078POPC   GL249022   9.835  24.534   6.150
 7078POPC   C1A49023   9.777  24.445   6.450
 7078POPC   D2A49024   9.769  24.482   6.750
 7078POPC   C3A49025   9.712  24.514   7.050
 7078POPC   C4A49026   9.778  24.464   7.350
 7078POPC   C1B49027   9.972  24.486   6.450
 7078POPC   C2B49028   9.973  24.545   6.750
 7078POPC   C3B49029   9.966  24.535   7.050
 7078POPC   C4B49030  10.004  24.549   7.350
 7079POPC   NC349031  29.917   6.669   5.550
 7079POPC   PO449032  29.919   6.676   5.850
 7079POPC   GL149033  29.879   6.641   6.150
 7079POPC   GL249034  29.786   6.549   6.150
 7079POPC   C1A49035  29.896   6.606   6.450
 7079POPC   D2A49036  29.906   6.635   6.750
 7079POPC   C3A49037  29.902   6.656   7.050
 7079POPC   C4A49038  29.940   6.655   7.350
 7079POPC   C1B49039  29.738   6.437   6.450
 7079POPC   C2B49040  29.773   6.480   6.750
 7079POPC   C3B49041  29.742   6.450   7.050
 7079POPC   C4B49042  29.768   6.472   7.350
 7080POPC   NC349043  19.108   3.518   5.550
 7080POPC   PO449044  19.027   3.548   5.850
 7080POPC   GL149045  19.030   3.493   6.150
 7080POPC   GL249046  19.085   3.636   6.150
 7080POPC   C1A49047  19.011   3.581   6.450
 7080POPC   D2A49048  19.082   3.512   6.750
 7080POPC   C3A49049  19.025   3.565   7.050
 7080POPC   C4A49050  19.060   3.567   7.350
 7080POPC   C1B49051  19.113   3.738   6.450
 7080POPC   C2B49052  19.095   3.749   6.750
 7080POPC   C3B49053  19.131   3.763   7.050
 7080POPC   C4B49054  19.150   3.739   7.350
 7081POPC   NC349055  10.565  36.891   5.550
 7081POPC   PO449056  10.570  36.935   5.850
 7081POPC   GL149057  10.531  36.920   6.150
 7081POPC   GL249058  10.606  36.766   6.150
 7081POPC   C1A49059  10.509  36.895   6.450
 7081POPC   D2A49060  10.543  36.942   6.750
 7081POPC   C3A49061  10.538  36.866   7.050
 7081POPC   C4A49062  10.573  36.946   7.350
 7081POPC   C1B49063  10.715  36.693   6.450
 7081POPC   C2B49064  10.666  36.743   6.750
 7081POPC   C3B49065  10.669  36.682   7.050
 7081POPC   C4B49066  10.709  36.668   7.350
 7082POPC   NC349067  30.723  21.351   5.550
 7082POPC   PO449068  30.694  21.398   5.850
 7082POPC   GL149069  30.676  21.387   6.150
 7082POPC   GL249070  30.603  21.406   6.150
 7082POPC   C1A49071  30.681  21.347   6.450
 7082POPC   D2A49072  30.700  21.384   6.750
 7082POPC   C3A49073  30.680  21.380   7.050
 7082POPC   C4A49074  30.730  21.431   7.350
 7082POPC   C1B49075  30.439  21.365   6.450
 7082POPC   C2B49076  30.445  21.424   6.750
 7082POPC   C3B49077  30.461  21.361   7.050
 7082POPC   C4B49078  30.494  21.410   7.350
 7083POPC   NC349079   1.201  17.471   5.550
 7083POPC   PO449080   1.235  17.517   5.850
 7083POPC   GL149081   1.181  17.483   6.150
 7083POPC   GL249082   1.141  17.374   6.150
 7083POPC   C1A49083   1.177  17.532   6.450
 7083POPC   D2A49084   1.167  17.468   6.750
 7083POPC   C3A49085   1.189  17.479   7.050
 7083POPC   C4A49086   1.209  17.473   7.350
 7083POPC   C1B49087   1.131  17.315   6.450
 7083POPC   C2B49088   1.107  17.309   6.750
 7083POPC   C3B49089   1.061  17.260   7.050
 7083POPC   C4B49090   1.098  17.328   7.350
 7084POPC   NC349091  20.611  43.843   5.550
 7084POPC   PO449092  20.561  43.923   5.850
 7084POPC   GL149093  20.598  43.872   6.150
 7084POPC   GL249094  20.750  43.861   6.150
 7084POPC   C1A49095  20.629  43.909   6.450
 7084POPC   D2A49096  20.567  43.882   6.750
 7084POPC   C3A49097  20.583  43.848   7.050
 7084POPC   C4A49098  20.651  43.847   7.350
 7084POPC   C1B49099  20.828  43.718   6.450
 7084POPC   C2B49100  20.867  43.771   6.750
 7084POPC   C3B49101  20.819  43.718   7.050
 7084POPC   C4B49102  20.813  43.802   7.350
 7085POPC   NC349103  13.638  39.213   5.550
 7085POPC   PO449104  13.629  39.188   5.850
 7085POPC   GL149105  13.586  39.192   6.150
 7085POPC   GL249106  13.758  39.312   6.150
 7085POPC   C1A49107  13.672  39.255   6.450
 7085POPC   D2A49108  13.618  39.245   6.750
 7085POPC   C3A49109  13.585  39.217   7.050
 7085POPC   C4A49110  13.672  39.228   7.350
 7085POPC   C1B49111  13.847  39.264   6.450
 7085POPC   C2B49112  13.823  39.252   6.750
 7085POPC   C3B49113  13.916  39.350   7.050
 7085POPC   C4B49114  13.844  39.274   7.350
 7086POPC   NC349115   6.640  12.089   5.550
 7086POPC   PO449116   6.611  12.105   5.850
 7086POPC   GL149117   6.599  12.118   6.150
 7086POPC   GL249118   6.606  11.978   6.150
 7086POPC   C1A49119   6.629  12.031   6.450
 7086POPC   D2A49120   6.605  12.037   6.750
 7086POPC   C3A49121   6.682  12.099   7.050
 7086POPC   C4A49122   6.647  12.073   7.350
 7086POPC   C1B49123   6.569  11.845   6.450
 7086POPC   C2B49124   6.622  11.845   6.750
 7086POPC   C3B49125   6.635  11.790   7.050
 7086POPC   C4B49126   6.563  11.869   7.350
 7087POPC   NC349127  16.696   9.778   5.550
 7087POPC   PO449128  16.771   9.729   5.850
 7087POPC   GL149129  16.774   9.788   6.150
 7087POPC   GL249130  16.635   9.873   6.150
 7087POPC   C1A49131  16.714   9.706   6.450
 7087POPC   D2A49132  16.769   9.728   6.750
 7087POPC   C3A49133  16.738   9.746   7.050
 7087POPC   C4A49134  16.754   9.726   7.350
 7087POPC   C1B49135  16.517   9.954   6.450
 7087POPC   C2B49136  16.503   9.880   6.750
 7087POPC   C3B49137  16.526   9.926   7.050
 7087POPC   C4B49138  16.518   9.868   7.350
 7088POPC   NC349139   8.217  38.474   5.550
 7088POPC   PO449140   8.210  38.476   5.850
 7088POPC   GL149141   8.175  38.450   6.150
 7088POPC   GL249142   8.293  38.564   6.150
 7088POPC   C1A49143   8.165  38.464   6.450
 7088POPC   D2A49144   8.156  38.477   6.750
 7088POPC   C3A49145   8.208  38.466   7.050
 7088POPC   C4A49146   8.171  38.417   7.350
 7088POPC   C1B49147   8.296  38.642   6.450
 7088POPC   C2B49148   8.349  38.655   6.750
 7088POPC   C3B49149   8.372  38.659   7.050
 7088POPC   C4B49150   8.285  38.700   7.350
 7089POPC   NC349151  35.356   5.074   5.550
 7089POPC   PO449152  35.386   5.120   5.850
 7089POPC   GL149153  35.307   5.129   6.150
 7089POPC   GL249154  35.311   5.241   6.150
 7089POPC   C1A49155  35.379   5.063   6.450
 7089POPC   D2A49156  35.367   5.054   6.750
 7089POPC   C3A49157  35.376   5.143   7.050
 7089POPC   C4A49158  35.361   5.074   7.350
 7089POPC   C1B49159  35.351   5.314   6.450
 7089POPC   C2B49160  35.302   5.391   6.750
 7089POPC   C3B49161  35.314   5.333   7.050
 7089POPC   C4B49162  35.311   5.297   7.350
 7090POPC   NC349163  34.529  21.378   5.550
 7090POPC   PO449164  34.566  21.408   5.850
 7090POPC   GL149165  34.609  21.347   6.150
 7090POPC   GL249166  34.659  21.405   6.150
 7090POPC   C1A49167  34.567  21.365   6.450
 7090POPC   D2A49168  34.527  21.399   6.750
 7090POPC   C3A49169  34.600  21.424   7.050
 7090POPC   C4A49170  34.620  21.343   7.350
 7090POPC   C1B49171  34.859  21.379   6.450
 7090POPC   C2B49172  34.871  21.437   6.750
 7090POPC   C3B49173  34.819  21.450   7.050
 7090POPC   C4B49174  34.820  21.377   7.350
 7091POPC   NC349175  40.784  31.518   5.550
 7091POPC   PO449176  40.778  31.455   5.850
 7091POPC   GL149177  40.822  31.482   6.150
 7091POPC   GL249178  40.929  31.506   6.150
 7091POPC   C1A49179  40.805  31.494   6.450
 7091POPC   D2A49180  40.795  31.452   6.750
 7091POPC   C3A49181  40.766  31.428   7.050
 7091POPC   C4A49182  40.817  31.495   7.350
 7091POPC   C1B49183  41.044  31.564   6.450
 7091POPC   C2B49184  41.057  31.548   6.750
 7091POPC   C3B49185  40.997  31.584   7.050
 7091POPC   C4B49186  41.001  31.566   7.350
 7092POPC   NC349187  16.768  26.031   5.550
 7092POPC   PO449188  16.697  26.072   5.850
 7092POPC   GL149189  16.758  26.030   6.150
 7092POPC   GL249190  16.673  25.939   6.150
 7092POPC   C1A49191  16.718  26.041   6.450
 7092POPC   D2A49192  16.744  26.062   6.750
 7092POPC   C3A49193  16.776  26.009   7.050
 7092POPC   C4A49194  16.756  26.000   7.350
 7092POPC   C1B49195  16.607  25.823   6.450
 7092POPC   C2B49196  16.650  25.848   6.750
 7092POPC   C3B49197  16.568  25.809   7.050
 7092POPC   C4B49198  16.645  25.787   7.350
 7093POPC   NC349199  16.773  21.358   5.550
 7093POPC   PO449200  16.779  21.408   5.850
 7093POPC   GL149201  16.741  21.419   6.150
 7093POPC   GL249202  16.799  21.262   6.150
 7093POPC   C1A49203  16.757  21.412   6.450
 7093POPC   D2A49204  16.701  21.408   6.750
 7093POPC   C3A49205  16.728  21.351   7.050
 7093POPC   C4A49206  16.753  21.434   7.350
 7093POPC   C1B49207  16.752  21.151   6.450
 7093POPC   C2B49208  16.761  21.098   6.750
 7093POPC   C3B49209  16.777  21.096   7.050
 7093POPC   C4B49210  16.751  21.155   7.350
 7094POPC   NC349211  30.693  22.933   5.550
 7094POPC   PO449212  30.663  22.906   5.850
 7094POPC   GL149213  30.727  22.918   6.150
 7094POPC   GL249214  30.620  22.894   6.150
 7094POPC   C1A49215  30.688  22.926   6.450
 7094POPC   D2A49216  30.693  22.966   6.750
 7094POPC   C3A49217  30.687  22.920   7.050
 7094POPC   C4A49218  30.709  22.945   7.350
 7094POPC   C1B49219  30.519  22.726   6.450
 7094POPC   C2B49220  30.492  22.741   6.750
 7094POPC   C3B49221  30.563  22.776   7.050
 7094POPC   C4B49222  30.539  22.746   7.350
 7095POPC   NC349223  40.005  34.606   5.550
 7095POPC   PO449224  40.020  34.540   5.850
 7095POPC   GL149225  40.031  34.527   6.150
 7095POPC   GL249226  39.937  34.671   6.150
 7095POPC   C1A49227  40.038  34.616   6.450
 7095POPC   D2A49228  39.960  34.617   6.750
 7095POPC   C3A49229  39.977  34.613   7.050
 7095POPC   C4A49230  39.965  34.588   7.350
 7095POPC   C1B49231  39.934  34.855   6.450
 7095POPC   C2B49232  39.963  34.771   6.750
 7095POPC   C3B49233  39.925  34.807   7.050
 7095POPC   C4B49234  39.905  34.758   7.350
 7096POPC   NC349235  12.871  40.800   5.550
 7096POPC   PO449236  12.879  40.750   5.850
 7096POPC   GL149237  12.849  40.755   6.150
 7096POPC   GL249238  12.898  40.719   6.150
 7096POPC   C1A49239  12.899  40.792   6.450
 7096POPC   D2A49240  12.835  40.770   6.750
 7096POPC   C3A49241  12.891  40.755   7.050
 7096POPC   C4A49242  12.892  40.767   7.350
 7096POPC   C1B49243  13.028  40.637   6.450
 7096POPC   C2B49244  13.001  40.603   6.750
 7096POPC   C3B49245  13.039  40.562   7.050
 7096POPC   C4B49246  13.068  40.606   7.350
 7097POPC   NC349247  36.876  39.995   5.550
 7097POPC   PO449248  36.855  40.045   5.850
 7097POPC   GL149249  36.922  40.036   6.150
 7097POPC   GL249250  36.950  40.154   6.150
 7097POPC   C1A49251  36.896  40.037   6.450
 7097POPC   D2A49252  36.911  40.031   6.750
 7097POPC   C3A49253  36.941  40.017   7.050
 7097POPC   C4A49254  36.952  39.985   7.350
 7097POPC   C1B49255  36.975  40.282   6.450
 7097POPC   C2B49256  36.966  40.238   6.750
 7097POPC   C3B49257  36.951  40.255   7.050
 7097POPC   C4B49258  36.922  40.271   7.350
 7098POPC   NC349259   6.672  20.628   5.550
 7098POPC   PO449260   6.599  20.606   5.850
 7098POPC   GL149261   6.664  20.564   6.150
 7098POPC   GL249262   6.554  20.465   6.150
 7098POPC   C1A49263   6.622  20.643   6.450
 7098POPC   D2A49264   6.651  20.637   6.750
 7098POPC   C3A49265   6.666  20.647   7.050
 7098POPC   C4A49266   6.642  20.570   7.350
 7098POPC   C1B49267   6.473  20.436   6.450
 7098POPC   C2B49268   6.455  20.436   6.750
 7098POPC   C3B49269   6.512  20.368   7.050
 7098POPC   C4B49270   6.514  20.425   7.350
 7099POPC   NC349271  19.870  19.842   5.550
 7099POPC   PO449272  19.853  19.815   5.850
 7099POPC   GL149273  19.882  19.811   6.150
 7099POPC   GL249274  19.687  19.841   6.150
 7099POPC   C1A49275  19.791  19.802   6.450
 7099POPC   D2A49276  19.839  19.788   6.750
 7099POPC   C3A49277  19.821  19.785   7.050
 7099POPC   C4A49278  19.804  19.867   7.350
 7099POPC   C1B49279  19.597  19.907   6.450
 7099POPC   C2B49280  19.620  19.910   6.750
 7099POPC   C3B49281  19.559  19.880   7.050
 7099POPC   C4B49282  19.555  19.935   7.350
 7100POPC   NC349283  39.249  33.014   5.550
 7100POPC   PO449284  39.280  33.021   5.850
 7100POPC   GL149285  39.214  33.062   6.150
 7100POPC   GL249286  39.100  33.004   6.150
 7100POPC   C1A49287  39.208  33.032   6.450
 7100POPC   D2A49288  39.201  33.019   6.750
 7100POPC   C3A49289  39.256  33.013   7.050
 7100POPC   C4A49290  39.279  33.071   7.350
 7100POPC   C1B49291  39.030  33.121   6.450
 7100POPC   C2B49292  38.941  33.062   6.750
 7100POPC   C3B49293  38.942  33.093   7.050
 7100POPC   C4B49294  38.986  33.069   7.350
 7101POPC   NC349295  37.659  25.242   5.550
 7101POPC   PO449296  37.719  25.311   5.850
 7101POPC   GL149297  37.688  25.242   6.150
 7101POPC   GL249298  37.578  25.174   6.150
 7101POPC   C1A49299  37.703  25.291   6.450
 7101POPC   D2A49300  37.638  25.260   6.750
 7101POPC   C3A49301  37.706  25.254   7.050
 7101POPC   C4A49302  37.631  25.256   7.350
 7101POPC   C1B49303  37.445  25.095   6.450
 7101POPC   C2B49304  37.482  25.080   6.750
 7101POPC   C3B49305  37.468  25.123   7.050
 7101POPC   C4B49306  37.464  25.144   7.350
 7102POPC   NC349307  20.579  20.643   5.550
 7102POPC   PO449308  20.645  20.639   5.850
 7102POPC   GL149309  20.602  20.624   6.150
 7102POPC   GL249310  20.551  20.528   6.150
 7102POPC   C1A49311  20.579  20.624   6.450
 7102POPC   D2A49312  20.627  20.583   6.750
 7102POPC   C3A49313  20.607  20.595   7.050
 7102POPC   C4A49314  20.587  20.636   7.350
 7102POPC   C1B49315  20.400  20.524   6.450
 7102POPC   C2B49316  20.391  20.446   6.750
 7102POPC   C3B49317  20.386  20.479   7.050
 7102POPC   C4B49318  20.398  20.443   7.350
 7103POPC   NC349319  43.060   8.187   5.550
 7103POPC   PO449320  43.077   8.172   5.850
 7103POPC   GL149321  43.106   8.194   6.150
 7103POPC   GL249322  43.213   8.240   6.150
 7103POPC   C1A49323  43.086   8.213   6.450
 7103POPC   D2A49324  43.080   8.168   6.750
 7103POPC   C3A49325  43.104   8.191   7.050
 7103POPC   C4A49326  43.145   8.199   7.350
 7103POPC   C1B49327  43.327   8.251   6.450
 7103POPC   C2B49328  43.384   8.235   6.750
 7103POPC   C3B49329  43.301   8.266   7.050
 7103POPC   C4B49330  43.305   8.265   7.350
 7104POPC   NC349331  19.799  28.392   5.550
 7104POPC   PO449332  19.820  28.366   5.850
 7104POPC   GL149333  19.833  28.419   6.150
 7104POPC   GL249334  19.746  28.278   6.150
 7104POPC   C1A49335  19.853  28.372   6.450
 7104POPC   D2A49336  19.843  28.325   6.750
 7104POPC   C3A49337  19.858  28.360   7.050
 7104POPC   C4A49338  19.876  28.412   7.350
 7104POPC   C1B49339  19.760  28.115   6.450
 7104POPC   C2B49340  19.740  28.150   6.750
 7104POPC   C3B49341  19.677  28.139   7.050
 7104POPC   C4B49342  19.691  28.142   7.350
 7105POPC   NC349343  35.338  27.627   5.550
 7105POPC   PO449344  35.383  27.616   5.850
 7105POPC   GL149345  35.366  27.643   6.150
 7105POPC   GL249346  35.382  27.682   6.150
 7105POPC   C1A49347  35.388  27.562   6.450
 7105POPC   D2A49348  35.330  27.593   6.750
 7105POPC   C3A49349  35.319  27.571   7.050
 7105POPC   C4A49350  35.325  27.546   7.350
 7105POPC   C1B49351  35.471  27.846   6.450
 7105POPC   C2B49352  35.490  27.849   6.750
 7105POPC   C3B49353  35.471  27.781   7.050
 7105POPC   C4B49354  35.437  27.870   7.350
 7106POPC   NC349355   7.447  33.062   5.550
 7106POPC   PO449356   7.453  33.046   5.850
 7106POPC   GL149357   7.417  32.993   6.150
 7106POPC   GL249358   7.444  33.143   6.150
 7106POPC   C1A49359   7.437  33.058   6.450
 7106POPC   D2A49360   7.405  33.046   6.750
 7106POPC   C3A49361   7.438  33.031   7.050
 7106POPC   C4A49362   7.381  33.062   7.350
 7106POPC   C1B49363   7.484  33.305   6.450
 7106POPC   C2B49364   7.452  33.321   6.750
 7106POPC   C3B49365   7.452  33.259   7.050
 7106POPC   C4B49366   7.454  33.314   7.350
 7107POPC   NC349367  11.297  19.829   5.550
 7107POPC   PO449368  11.255  19.817   5.850
 7107POPC   GL149369  11.345  19.815   6.150
 7107POPC   GL249370  11.140  19.785   6.150
 7107POPC   C1A49371  11.324  19.865   6.450
 7107POPC   D2A49372  11.312  19.833   6.750
 7107POPC   C3A49373  11.326  19.834   7.050
 7107POPC   C4A49374  11.308  19.786   7.350
 7107POPC   C1B49375  11.029  19.728   6.450
 7107POPC   C2B49376  11.069  19.705   6.750
 7107POPC   C3B49377  11.077  19.731   7.050
 7107POPC   C4B49378  11.038  19.765   7.350
 7108POPC   NC349379  22.959   1.995   5.550
 7108POPC   PO449380  22.930   1.997   5.850
 7108POPC   GL149381  22.920   1.993   6.150
 7108POPC   GL249382  22.834   2.127   6.150
 7108POPC   C1A49383  22.921   1.972   6.450
 7108POPC   D2A49384  22.968   1.986   6.750
 7108POPC   C3A49385  22.973   1.954   7.050
 7108POPC   C4A49386  22.966   2.034   7.350
 7108POPC   C1B49387  22.795   2.196   6.450
 7108POPC   C2B49388  22.754   2.199   6.750
 7108POPC   C3B49389  22.746   2.215   7.050
 7108POPC   C4B49390  22.739   2.224   7.350
 7109POPC   NC349391  15.935   1.170   5.550
 7109POPC   PO449392  15.991   1.208   5.850
 7109POPC   GL149393  15.953   1.208   6.150
 7109POPC   GL249394  15.822   1.251   6.150
 7109POPC   C1A49395  15.985   1.248   6.450
 7109POPC   D2A49396  15.929   1.208   6.750
 7109POPC   C3A49397  15.923   1.204   7.050
 7109POPC   C4A49398  15.962   1.259   7.350
 7109POPC   C1B49399  15.687   1.336   6.450
 7109POPC   C2B49400  15.695   1.288   6.750
 7109POPC   C3B49401  15.742   1.289   7.050
 7109POPC   C4B49402  15.740   1.323   7.350
 7110POPC   NC349403  39.220  15.187   5.550
 7110POPC   PO449404  39.269  15.210   5.850
 7110POPC   GL149405  39.220  15.172   6.150
 7110POPC   GL249406  39.297  15.063   6.150
 7110POPC   C1A49407  39.269  15.214   6.450
 7110POPC   D2A49408  39.190  15.212   6.750
 7110POPC   C3A49409  39.210  15.146   7.050
 7110POPC   C4A49410  39.202  15.197   7.350
 7110POPC   C1B49411  39.304  14.928   6.450
 7110POPC   C2B49412  39.378  14.984   6.750
 7110POPC   C3B49413  39.366  14.999   7.050
 7110POPC   C4B49414  39.377  14.923   7.350
 7111POPC   NC349415  17.491   1.968   5.550
 7111POPC   PO449416  17.546   2.035   5.850
 7111POPC   GL149417  17.499   1.962   6.150
 7111POPC   GL249418  17.513   1.914   6.150
 7111POPC   C1A49419  17.487   1.999   6.450
 7111POPC   D2A49420  17.524   1.952   6.750
 7111POPC   C3A49421  17.526   1.972   7.050
 7111POPC   C4A49422  17.543   1.940   7.350
 7111POPC   C1B49423  17.452   1.694   6.450
 7111POPC   C2B49424  17.520   1.695   6.750
 7111POPC   C3B49425  17.510   1.763   7.050
 7111POPC   C4B49426  17.523   1.744   7.350
 7112POPC   NC349427   9.752  29.950   5.550
 7112POPC   PO449428   9.716  29.878   5.850
 7112POPC   GL149429   9.711  29.890   6.150
 7112POPC   GL249430   9.732  30.002   6.150
 7112POPC   C1A49431   9.747  29.940   6.450
 7112POPC   D2A49432   9.726  29.950   6.750
 7112POPC   C3A49433   9.771  29.939   7.050
 7112POPC   C4A49434   9.746  29.940   7.350
 7112POPC   C1B49435   9.779  30.165   6.450
 7112POPC   C2B49436   9.757  30.205   6.750
 7112POPC   C3B49437   9.811  30.188   7.050
 7112POPC   C4B49438   9.763  30.121   7.350
 7113POPC   NC349439   5.078  26.794   5.550
 7113POPC   PO449440   5.044  26.823   5.850
 7113POPC   GL149441   5.094  26.783   6.150
 7113POPC   GL249442   5.125  26.922   6.150
 7113POPC   C1A49443   5.120  26.800   6.450
 7113POPC   D2A49444   5.046  26.788   6.750
 7113POPC   C3A49445   5.113  26.791   7.050
 7113POPC   C4A49446   5.138  26.842   7.350
 7113POPC   C1B49447   5.158  27.094   6.450
 7113POPC   C2B49448   5.138  27.031   6.750
 7113POPC   C3B49449   5.177  27.098   7.050
 7113POPC   C4B49450   5.131  27.088   7.350
 7114POPC   NC349451  12.839  43.871   5.550
 7114POPC   PO449452  12.845  43.846   5.850
 7114POPC   GL149453  12.812  43.892   6.150
 7114POPC   GL249454  12.821  43.738   6.150
 7114POPC   C1A49455  12.816  43.881   6.450
 7114POPC   D2A49456  12.872  43.838   6.750
 7114POPC   C3A49457  12.820  43.905   7.050
 7114POPC   C4A49458  12.880  43.931   7.350
 7114POPC   C1B49459  12.798  43.683   6.450
 7114POPC   C2B49460  12.823  43.681   6.750
 7114POPC   C3B49461  12.844  43.673   7.050
 7114POPC   C4B49462  12.836  43.602   7.350
 7115POPC   NC349463  28.324  27.627   5.550
 7115POPC   PO449464  28.334  27.622   5.850
 7115POPC   GL149465  28.382  27.602   6.150
 7115POPC   GL249466  28.271  27.669   6.150
 7115POPC   C1A49467  28.357  27.620   6.450
 7115POPC   D2A49468  28.363  27.599   6.750
 7115POPC   C3A49469  28.327  27.561   7.050
 7115POPC   C4A49470  28.383  27.582   7.350
 7115POPC   C1B49471  28.272  27.784   6.450
 7115POPC   C2B49472  28.244  27.767   6.750
 7115POPC   C3B49473  28.207  27.824   7.050
 7115POPC   C4B49474  28.207  27.774   7.350
 7116POPC   NC349475  22.113  29.946   5.550
 7116POPC   PO449476  22.163  29.966   5.850
 7116POPC   GL149477  22.207  29.921   6.150
 7116POPC   GL249478  22.082  29.867   6.150
 7116POPC   C1A49479  22.148  29.930   6.450
 7116POPC   D2A49480  22.178  29.907   6.750
 7116POPC   C3A49481  22.138  29.901   7.050
 7116POPC   C4A49482  22.137  29.904   7.350
 7116POPC   C1B49483  21.957  29.808   6.450
 7116POPC   C2B49484  21.971  29.817   6.750
 7116POPC   C3B49485  21.925  29.796   7.050
 7116POPC   C4B49486  21.940  29.839   7.350
 7117POPC   NC349487  14.422  32.983   5.550
 7117POPC   PO449488  14.444  33.074   5.850
 7117POPC   GL149489  14.426  32.998   6.150
 7117POPC   GL249490  14.479  32.941   6.150
 7117POPC   C1A49491  14.434  33.040   6.450
 7117POPC   D2A49492  14.384  32.999   6.750
 7117POPC   C3A49493  14.439  33.039   7.050
 7117POPC   C4A49494  14.376  32.992   7.350
 7117POPC   C1B49495  14.585  32.891   6.450
 7117POPC   C2B49496  14.629  32.944   6.750
 7117POPC   C3B49497  14.609  32.946   7.050
 7117POPC   C4B49498  14.604  32.875   7.350
 7118POPC   NC349499   2.035   7.409   5.550
 7118POPC   PO449500   2.037   7.418   5.850
 7118POPC   GL149501   1.976   7.431   6.150
 7118POPC   GL249502   2.009   7.254   6.150
 7118POPC   C1A49503   1.970   7.432   6.450
 7118POPC   D2A49504   2.013   7.454   6.750
 7118POPC   C3A49505   1.947   7.384   7.050
 7118POPC   C4A49506   1.981   7.469   7.350
 7118POPC   C1B49507   1.920   7.202   6.450
 7118POPC   C2B49508   1.989   7.147   6.750
 7118POPC   C3B49509   1.954   7.162   7.050
 7118POPC   C4B49510   1.977   7.162   7.350
 7119POPC   NC349511   8.245  22.984   5.550
 7119POPC   PO449512   8.215  22.932   5.850
 7119POPC   GL149513   8.167  22.893   6.150
 7119POPC   GL249514   8.138  22.804   6.150
 7119POPC   C1A49515   8.183  22.976   6.450
 7119POPC   D2A49516   8.173  22.950   6.750
 7119POPC   C3A49517   8.168  22.937   7.050
 7119POPC   C4A49518   8.232  22.979   7.350
 7119POPC   C1B49519   8.048  22.741   6.450
 7119POPC   C2B49520   8.077  22.743   6.750
 7119POPC   C3B49521   8.007  22.718   7.050
 7119POPC   C4B49522   7.986  22.722   7.350
 7120POPC   NC349523   2.023   2.787   5.550
 7120POPC   PO449524   2.035   2.800   5.850
 7120POPC   GL149525   1.989   2.775   6.150
 7120POPC   GL249526   1.856   2.729   6.150
 7120POPC   C1A49527   1.958   2.757   6.450
 7120POPC   D2A49528   2.000   2.729   6.750
 7120POPC   C3A49529   1.990   2.716   7.050
 7120POPC   C4A49530   2.022   2.799   7.350
 7120POPC   C1B49531   1.807   2.636   6.450
 7120POPC   C2B49532   1.810   2.660   6.750
 7120POPC   C3B49533   1.750   2.692   7.050
 7120POPC   C4B49534   1.740   2.692   7.350
 7121POPC   NC349535  30.676   1.971   5.550
 7121POPC   PO449536  30.730   1.973   5.850
 7121POPC   GL149537  30.719   2.000   6.150
 7121POPC   GL249538  30.546   2.058   6.150
 7121POPC   C1A49539  30.651   2.013   6.450
 7121POPC   D2A49540  30.650   1.996   6.750
 7121POPC   C3A49541  30.734   2.017   7.050
 7121POPC   C4A49542  30.730   2.033   7.350
 7121POPC   C1B49543  30.513   2.049   6.450
 7121POPC   C2B49544  30.425   2.070   6.750
 7121POPC   C3B49545  30.502   2.095   7.050
 7121POPC   C4B49546  30.464   2.080   7.350
 7122POPC   NC349547   8.198   1.975   5.550
 7122POPC   PO449548   8.149   2.012   5.850
 7122POPC   GL149549   8.226   1.966   6.150
 7122POPC   GL249550   8.196   2.127   6.150
 7122POPC   C1A49551   8.201   1.945   6.450
 7122POPC   D2A49552   8.187   1.989   6.750
 7122POPC   C3A49553   8.171   2.003   7.050
 7122POPC   C4A49554   8.188   1.970   7.350
 7122POPC   C1B49555   8.176   2.287   6.450
 7122POPC   C2B49556   8.251   2.270   6.750
 7122POPC   C3B49557   8.235   2.221   7.050
 7122POPC   C4B49558   8.219   2.190   7.350
 7123POPC   NC349559  10.482   4.347   5.550
 7123POPC   PO449560  10.485   4.329   5.850
 7123POPC   GL149561  10.528   4.299   6.150
 7123POPC   GL249562  10.591   4.260   6.150
 7123POPC   C1A49563  10.525   4.286   6.450
 7123POPC   D2A49564  10.494   4.310   6.750
 7123POPC   C3A49565  10.511   4.334   7.050
 7123POPC   C4A49566  10.532   4.288   7.350
 7123POPC   C1B49567  10.751   4.192   6.450
 7123POPC   C2B49568  10.742   4.185   6.750
 7123POPC   C3B49569  10.768   4.217   7.050
 7123POPC   C4B49570  10.746   4.204   7.350
 7124POPC   NC349571   0.411  29.130   5.550
 7124POPC   PO449572   0.487  29.137   5.850
 7124POPC   GL149573   0.426  29.193   6.150
 7124POPC   GL249574   0.446  29.266   6.150
 7124POPC   C1A49575   0.395  29.169   6.450
 7124POPC   D2A49576   0.421  29.152   6.750
 7124POPC   C3A49577   0.474  29.159   7.050
 7124POPC   C4A49578   0.425  29.156   7.350
 7124POPC   C1B49579   0.418  29.415   6.450
 7124POPC   C2B49580   0.450  29.394   6.750
 7124POPC   C3B49581   0.454  29.374   7.050
 7124POPC   C4B49582   0.473  29.352   7.350
 7125POPC   NC349583  39.999  18.262   5.550
 7125POPC   PO449584  40.006  18.299   5.850
 7125POPC   GL149585  40.056  18.294   6.150
 7125POPC   GL249586  39.984  18.397   6.150
 7125POPC   C1A49587  39.965  18.266   6.450
 7125POPC   D2A49588  40.020  18.274   6.750
 7125POPC   C3A49589  40.009  18.249   7.050
 7125POPC   C4A49590  40.053  18.281   7.350
 7125POPC   C1B49591  39.975  18.516   6.450
 7125POPC   C2B49592  39.998  18.491   6.750
 7125POPC   C3B49593  40.009  18.527   7.050
 7125POPC   C4B49594  40.040  18.540   7.350
 7126POPC   NC349595   5.884  11.302   5.550
 7126POPC   PO449596   5.855  11.333   5.850
 7126POPC   GL149597   5.887  11.270   6.150
 7126POPC   GL249598   5.761  11.358   6.150
 7126POPC   C1A49599   5.905  11.262   6.450
 7126POPC   D2A49600   5.887  11.297   6.750
 7126POPC   C3A49601   5.835  11.299   7.050
 7126POPC   C4A49602   5.821  11.270   7.350
 7126POPC   C1B49603   5.616  11.413   6.450
 7126POPC   C2B49604   5.618  11.383   6.750
 7126POPC   C3B49605   5.646  11.428   7.050
 7126POPC   C4B49606   5.648  11.399   7.350
 7127POPC   NC349607   6.604  27.625   5.550
 7127POPC   PO449608   6.619  27.576   5.850
 7127POPC   GL149609   6.607  27.582   6.150
 7127POPC   GL249610   6.743  27.652   6.150
 7127POPC   C1A49611   6.658  27.633   6.450
 7127POPC   D2A49612   6.684  27.615   6.750
 7127POPC   C3A49613   6.600  27.578   7.050
 7127POPC   C4A49614   6.599  27.629   7.350
 7127POPC   C1B49615   6.780  27.826   6.450
 7127POPC   C2B49616   6.796  27.818   6.750
 7127POPC   C3B49617   6.765  27.760   7.050
 7127POPC   C4B49618   6.803  27.801   7.350
 7128POPC   NC349619  43.901   1.246   5.550
 7128POPC   PO449620  43.916   1.212   5.850
 7128POPC   GL149621  43.894   1.199   6.150
 7128POPC   GL249622  43.956   1.061   6.150
 7128POPC   C1A49623  43.852   1.239   6.450
 7128POPC   D2A49624  43.878   1.178   6.750
 7128POPC   C3A49625  43.867   1.219   7.050
 7128POPC   C4A49626  43.935   1.182   7.350
 7128POPC   C1B49627  44.018   0.962   6.450
 7128POPC   C2B49628  44.017   1.018   6.750
 7128POPC   C3B49629  44.010   0.974   7.050
 7128POPC   C4B49630  44.067   1.043   7.350
 7129POPC   NC349631  19.813   4.331   5.550
 7129POPC   PO449632  19.836   4.312   5.850
 7129POPC   GL149633  19.837   4.291   6.150
 7129POPC   GL249634  19.866   4.478   6.150
 7129POPC   C1A49635  19.883   4.314   6.450
 7129POPC   D2A49636  19.824   4.291   6.750
 7129POPC   C3A49637  19.849   4.313   7.050
 7129POPC   C4A49638  19.816   4.366   7.350
 7129POPC   C1B49639  19.904   4.551   6.450
 7129POPC   C2B49640  19.816   4.542   6.750
 7129POPC   C3B49641  19.843   4.565   7.050
 7129POPC   C4B49642  19.869   4.521   7.350
 7130POPC   NC349643  29.928  19.864   5.550
 7130POPC   PO449644  29.938  19.844   5.850
 7130POPC   GL149645  29.875  19.785   6.150
 7130POPC   GL249646  29.806  19.969   6.150
 7130POPC   C1A49647  29.889  19.841   6.450
 7130POPC   D2A49648  29.898  19.811   6.750
 7130POPC   C3A49649  29.890  19.788   7.050
 7130POPC   C4A49650  29.890  19.803   7.350
 7130POPC   C1B49651  29.797  20.027   6.450
 7130POPC   C2B49652  29.735  19.978   6.750
 7130POPC   C3B49653  29.806  20.062   7.050
 7130POPC   C4B49654  29.799  20.005   7.350
 7131POPC   NC349655  15.948  32.257   5.550
 7131POPC   PO449656  15.937  32.221   5.850
 7131POPC   GL149657  15.968  32.258   6.150
 7131POPC   GL249658  16.055  32.293   6.150
 7131POPC   C1A49659  15.962  32.249   6.450
 7131POPC   D2A49660  15.924  32.272   6.750
 7131POPC   C3A49661  15.985  32.290   7.050
 7131POPC   C4A49662  15.983  32.276   7.350
 7131POPC   C1B49663  16.157  32.417   6.450
 7131POPC   C2B49664  16.132  32.411   6.750
 7131POPC   C3B49665  16.121  32.407   7.050
 7131POPC   C4B49666  16.132  32.418   7.350
 7132POPC   NC349667  30.657  10.543   5.550
 7132POPC   PO449668  30.701  10.559   5.850
 7132POPC   GL149669  30.687  10.521   6.150
 7132POPC   GL249670  30.830  10.454   6.150
 7132POPC   C1A49671  30.689  10.570   6.450
 7132POPC   D2A49672  30.656  10.532   6.750
 7132POPC   C3A49673  30.653  10.480   7.050
 7132POPC   C4A49674  30.674  10.485   7.350
 7132POPC   C1B49675  30.866  10.357   6.450
 7132POPC   C2B49676  30.916  10.323   6.750
 7132POPC   C3B49677  30.893  10.360   7.050
 7132POPC   C4B49678  30.906  10.396   7.350
 7133POPC   NC349679  27.554   4.339   5.550
 7133POPC   PO449680  27.595   4.349   5.850
 7133POPC   GL149681  27.590   4.341   6.150
 7133POPC   GL249682  27.491   4.223   6.150
 7133POPC   C1A49683  27.600   4.285   6.450
 7133POPC   D2A49684  27.567   4.323   6.750
 7133POPC   C3A49685  27.551   4.324   7.050
 7133POPC   C4A49686  27.575   4.314   7.350
 7133POPC   C1B49687  27.437   4.126   6.450
 7133POPC   C2B49688  27.462   4.102   6.750
 7133POPC   C3B49689  27.437   4.066   7.050
 7133POPC   C4B49690  27.469   4.102   7.350
 7134POPC   NC349691  39.962  14.386   5.550
 7134POPC   PO449692  40.005  14.428   5.850
 7134POPC   GL149693  39.976  14.412   6.150
 7134POPC   GL249694  40.049  14.514   6.150
 7134POPC   C1A49695  40.007  14.431   6.450
 7134POPC   D2A49696  39.967  14.395   6.750
 7134POPC   C3A49697  39.961  14.445   7.050
 7134POPC   C4A49698  40.017  14.452   7.350
 7134POPC   C1B49699  40.122  14.663   6.450
 7134POPC   C2B49700  40.143  14.568   6.750
 7134POPC   C3B49701  40.113  14.657   7.050
 7134POPC   C4B49702  40.161  14.622   7.350
 7135POPC   NC349703  41.547   1.945   5.550
 7135POPC   PO449704  41.513   1.958   5.850
 7135POPC   GL149705  41.548   1.956   6.150
 7135POPC   GL249706  41.398   1.974   6.150
 7135POPC   C1A49707  41.529   1.980   6.450
 7135POPC   D2A49708  41.549   1.955   6.750
 7135POPC   C3A49709  41.531   1.967   7.050
 7135POPC   C4A49710  41.557   1.966   7.350
 7135POPC   C1B49711  41.357   1.976   6.450
 7135POPC   C2B49712  41.358   2.011   6.750
 7135POPC   C3B49713  41.343   1.985   7.050
 7135POPC   C4B49714  41.358   1.992   7.350
 7136POPC   NC349715  12.833   0.427   5.550
 7136POPC   PO449716  12.885   0.445   5.850
 7136POPC   GL149717  12.818   0.410   6.150
 7136POPC   GL249718  12.903   0.305   6.150
 7136POPC   C1A49719  12.824   0.389   6.450
 7136POPC   D2A49720  12.848   0.462   6.750
 7136POPC   C3A49721  12.859   0.389   7.050
 7136POPC   C4A49722  12.843   0.482   7.350
 7136POPC   C1B49723  13.080   0.286   6.450
 7136POPC   C2B49724  12.999   0.306   6.750
 7136POPC   C3B49725  13.032   0.262   7.050
 7136POPC   C4B49726  13.014   0.287   7.350
 7137POPC   NC349727  21.368   5.087   5.550
 7137POPC   PO449728  21.411   5.120   5.850
 7137POPC   GL149729  21.383   5.050   6.150
 7137POPC   GL249730  21.259   5.014   6.150
 7137POPC   C1A49731  21.350   5.045   6.450
 7137POPC   D2A49732  21.364   5.105   6.750
 7137POPC   C3A49733  21.378   5.130   7.050
 7137POPC   C4A49734  21.353   5.081   7.350
 7137POPC   C1B49735  21.166   4.975   6.450
 7137POPC   C2B49736  21.143   4.997   6.750
 7137POPC   C3B49737  21.170   5.011   7.050
 7137POPC   C4B49738  21.196   4.964   7.350
 7138POPC   NC349739  43.865  15.163   5.550
 7138POPC   PO449740  43.901  15.209   5.850
 7138POPC   GL149741  43.873  15.228   6.150
 7138POPC   GL249742  43.763  15.175   6.150
 7138POPC   C1A49743  43.869  15.150   6.450
 7138POPC   D2A49744  43.894  15.201   6.750
 7138POPC   C3A49745  43.893  15.137   7.050
 7138POPC   C4A49746  43.868  15.206   7.350
 7138POPC   C1B49747  43.628  15.173   6.450
 7138POPC   C2B49748  43.612  15.148   6.750
 7138POPC   C3B49749  43.665  15.114   7.050
 7138POPC   C4B49750  43.641  15.183   7.350
 7139POPC   NC349751  25.241  12.813   5.550
 7139POPC   PO449752  25.280  12.844   5.850
 7139POPC   GL149753  25.290  12.842   6.150
 7139POPC   GL249754  25.114  12.822   6.150
 7139POPC   C1A49755  25.308  12.850   6.450
 7139POPC   D2A49756  25.259  12.815   6.750
 7139POPC   C3A49757  25.232  12.889   7.050
 7139POPC   C4A49758  25.305  12.819   7.350
 7139POPC   C1B49759  25.017  12.815   6.450
 7139POPC   C2B49760  24.986  12.844   6.750
 7139POPC   C3B49761  24.974  12.848   7.050
 7139POPC   C4B49762  25.056  12.829   7.350
 7140POPC   NC349763  26.003  15.923   5.550
 7140POPC   PO449764  26.060  15.986   5.850
 7140POPC   GL149765  26.038  15.929   6.150
 7140POPC   GL249766  26.024  15.882   6.150
 7140POPC   C1A49767  26.078  15.928   6.450
 7140POPC   D2A49768  26.043  15.970   6.750
 7140POPC   C3A49769  26.028  15.995   7.050
 7140POPC   C4A49770  26.049  15.928   7.350
 7140POPC   C1B49771  26.035  15.720   6.450
 7140POPC   C2B49772  25.983  15.749   6.750
 7140POPC   C3B49773  26.037  15.695   7.050
 7140POPC   C4B49774  25.993  15.681   7.350
 7141POPC   NC349775   1.955  41.574   5.550
 7141POPC   PO449776   1.993  41.587   5.850
 7141POPC   GL149777   2.022  41.589   6.150
 7141POPC   GL249778   2.070  41.578   6.150
 7141POPC   C1A49779   2.012  41.548   6.450
 7141POPC   D2A49780   1.944  41.530   6.750
 7141POPC   C3A49781   2.034  41.513   7.050
 7141POPC   C4A49782   1.947  41.607   7.350
 7141POPC   C1B49783   2.203  41.639   6.450
 7141POPC   C2B49784   2.194  41.660   6.750
 7141POPC   C3B49785   2.262  41.589   7.050
 7141POPC   C4B49786   2.263  41.614   7.350
 7142POPC   NC349787   4.269  27.634   5.550
 7142POPC   PO449788   4.329  27.623   5.850
 7142POPC   GL149789   4.269  27.594   6.150
 7142POPC   GL249790   4.210  27.661   6.150
 7142POPC   C1A49791   4.336  27.633   6.450
 7142POPC   D2A49792   4.314  27.579   6.750
 7142POPC   C3A49793   4.338  27.593   7.050
 7142POPC   C4A49794   4.282  27.555   7.350
 7142POPC   C1B49795   4.166  27.762   6.450
 7142POPC   C2B49796   4.101  27.758   6.750
 7142POPC   C3B49797   4.175  27.800   7.050
 7142POPC   C4B49798   4.144  27.739   7.350
 7143POPC   NC349799  27.548  25.996   5.550
 7143POPC   PO449800  27.620  25.996   5.850
 7143POPC   GL149801  27.569  26.036   6.150
 7143POPC   GL249802  27.468  25.929   6.150
 7143POPC   C1A49803  27.585  26.002   6.450
 7143POPC   D2A49804  27.589  26.060   6.750
 7143POPC   C3A49805  27.549  26.000   7.050
 7143POPC   C4A49806  27.616  26.035   7.350
 7143POPC   C1B49807  27.377  25.819   6.450
 7143POPC   C2B49808  27.428  25.842   6.750
 7143POPC   C3B49809  27.384  25.833   7.050
 7143POPC   C4B49810  27.437  25.842   7.350
 7144POPC   NC349811  12.859  39.211   5.550
 7144POPC   PO449812  12.889  39.214   5.850
 7144POPC   GL149813  12.857  39.276   6.150
 7144POPC   GL249814  12.949  39.346   6.150
 7144POPC   C1A49815  12.822  39.243   6.450
 7144POPC   D2A49816  12.829  39.262   6.750
 7144POPC   C3A49817  12.837  39.224   7.050
 7144POPC   C4A49818  12.845  39.213   7.350
 7144POPC   C1B49819  13.036  39.458   6.450
 7144POPC   C2B49820  12.998  39.452   6.750
 7144POPC   C3B49821  12.983  39.430   7.050
 7144POPC   C4B49822  13.012  39.386   7.350
 7145POPC   NC349823  23.706  12.093   5.550
 7145POPC   PO449824  23.697  12.106   5.850
 7145POPC   GL149825  23.678  12.038   6.150
 7145POPC   GL249826  23.681  11.963   6.150
 7145POPC   C1A49827  23.677  12.066   6.450
 7145POPC   D2A49828  23.693  12.049   6.750
 7145POPC   C3A49829  23.720  12.063   7.050
 7145POPC   C4A49830  23.757  12.120   7.350
 7145POPC   C1B49831  23.719  11.787   6.450
 7145POPC   C2B49832  23.700  11.862   6.750
 7145POPC   C3B49833  23.727  11.854   7.050
 7145POPC   C4B49834  23.767  11.866   7.350
 7146POPC   NC349835  11.296   7.431   5.550
 7146POPC   PO449836  11.328   7.417   5.850
 7146POPC   GL149837  11.308   7.454   6.150
 7146POPC   GL249838  11.174   7.323   6.150
 7146POPC   C1A49839  11.296   7.462   6.450
 7146POPC   D2A49840  11.311   7.430   6.750
 7146POPC   C3A49841  11.254   7.448   7.050
 7146POPC   C4A49842  11.254   7.441   7.350
 7146POPC   C1B49843  11.116   7.350   6.450
 7146POPC   C2B49844  11.048   7.306   6.750
 7146POPC   C3B49845  11.105   7.271   7.050
 7146POPC   C4B49846  11.046   7.342   7.350
 7147POPC   NC349847  29.172   3.516   5.550
 7147POPC   PO449848  29.172   3.492   5.850
 7147POPC   GL149849  29.143   3.499   6.150
 7147POPC   GL249850  29.268   3.619   6.150
 7147POPC   C1A49851  29.131   3.521   6.450
 7147POPC   D2A49852  29.096   3.530   6.750
 7147POPC   C3A49853  29.129   3.492   7.050
 7147POPC   C4A49854  29.147   3.533   7.350
 7147POPC   C1B49855  29.347   3.628   6.450
 7147POPC   C2B49856  29.411   3.639   6.750
 7147POPC   C3B49857  29.365   3.678   7.050
 7147POPC   C4B49858  29.364   3.629   7.350
 7148POPC   NC349859   4.341  24.478   5.550
 7148POPC   PO449860   4.313  24.487   5.850
 7148POPC   GL149861   4.281  24.512   6.150
 7148POPC   GL249862   4.183  24.393   6.150
 7148POPC   C1A49863   4.296  24.500   6.450
 7148POPC   D2A49864   4.274  24.497   6.750
 7148POPC   C3A49865   4.296  24.474   7.050
 7148POPC   C4A49866   4.286  24.479   7.350
 7148POPC   C1B49867   4.126  24.400   6.450
 7148POPC   C2B49868   4.106  24.339   6.750
 7148POPC   C3B49869   4.122  24.332   7.050
 7148POPC   C4B49870   4.053  24.415   7.350
 7149POPC   NC349871  37.707  19.825   5.550
 7149POPC   PO449872  37.634  19.878   5.850
 7149POPC   GL149873  37.630  19.806   6.150
 7149POPC   GL249874  37.525  19.797   6.150
 7149POPC   C1A49875  37.679  19.847   6.450
 7149POPC   D2A49876  37.649  19.829   6.750
 7149POPC   C3A49877  37.695  19.815   7.050
 7149POPC   C4A49878  37.721  19.840   7.350
 7149POPC   C1B49879  37.474  19.806   6.450
 7149POPC   C2B49880  37.444  19.869   6.750
 7149POPC   C3B49881  37.442  19.847   7.050
 7149POPC   C4B49882  37.457  19.887   7.350
 7150POPC   NC349883  36.864   8.998   5.550
 7150POPC   PO449884  36.943   8.973   5.850
 7150POPC   GL149885  36.871   9.015   6.150
 7150POPC   GL249886  36.833   8.924   6.150
 7150POPC   C1A49887  36.864   8.928   6.450
 7150POPC   D2A49888  36.931   8.942   6.750
 7150POPC   C3A49889  36.905   8.956   7.050
 7150POPC   C4A49890  36.942   9.000   7.350
 7150POPC   C1B49891  36.710   8.905   6.450
 7150POPC   C2B49892  36.645   8.827   6.750
 7150POPC   C3B49893  36.629   8.882   7.050
 7150POPC   C4B49894  36.632   8.863   7.350
 7151POPC   NC349895  24.527  32.282   5.550
 7151POPC   PO449896  24.456  32.222   5.850
 7151POPC   GL149897  24.497  32.254   6.150
 7151POPC   GL249898  24.408  32.197   6.150
 7151POPC   C1A49899  24.492  32.284   6.450
 7151POPC   D2A49900  24.470  32.296   6.750
 7151POPC   C3A49901  24.502  32.218   7.050
 7151POPC   C4A49902  24.478  32.282   7.350
 7151POPC   C1B49903  24.263  32.097   6.450
 7151POPC   C2B49904  24.248  32.118   6.750
 7151POPC   C3B49905  24.300  32.093   7.050
 7151POPC   C4B49906  24.227  32.134   7.350
 7152POPC   NC349907  28.355  42.336   5.550
 7152POPC   PO449908  28.384  42.368   5.850
 7152POPC   GL149909  28.402  42.364   6.150
 7152POPC   GL249910  28.350  42.440   6.150
 7152POPC   C1A49911  28.400  42.329   6.450
 7152POPC   D2A49912  28.389  42.375   6.750
 7152POPC   C3A49913  28.319  42.326   7.050
 7152POPC   C4A49914  28.390  42.375   7.350
 7152POPC   C1B49915  28.258  42.517   6.450
 7152POPC   C2B49916  28.224  42.511   6.750
 7152POPC   C3B49917  28.248  42.514   7.050
 7152POPC   C4B49918  28.271  42.574   7.350
 7153POPC   NC349919   2.767   1.187   5.550
 7153POPC   PO449920   2.801   1.217   5.850
 7153POPC   GL149921   2.759   1.208   6.150
 7153POPC   GL249922   2.912   1.264   6.150
 7153POPC   C1A49923   2.730   1.167   6.450
 7153POPC   D2A49924   2.793   1.229   6.750
 7153POPC   C3A49925   2.770   1.190   7.050
 7153POPC   C4A49926   2.775   1.178   7.350
 7153POPC   C1B49927   2.999   1.298   6.450
 7153POPC   C2B49928   3.003   1.323   6.750
 7153POPC   C3B49929   2.957   1.330   7.050
 7153POPC   C4B49930   2.996   1.305   7.350
 7154POPC   NC349931  38.467   5.821   5.550
 7154POPC   PO449932  38.462   5.892   5.850
 7154POPC   GL149933  38.484   5.860   6.150
 7154POPC   GL249934  38.376   5.814   6.150
 7154POPC   C1A49935  38.435   5.831   6.450
 7154POPC   D2A49936  38.463   5.881   6.750
 7154POPC   C3A49937  38.465   5.878   7.050
 7154POPC   C4A49938  38.442   5.860   7.350
 7154POPC   C1B49939  38.329   5.725   6.450
 7154POPC   C2B49940  38.304   5.628   6.750
 7154POPC   C3B49941  38.270   5.670   7.050
 7154POPC   C4B49942  38.298   5.683   7.350
 7155POPC   NC349943  39.183   0.390   5.550
 7155POPC   PO449944  39.195   0.480   5.850
 7155POPC   GL149945  39.259   0.431   6.150
 7155POPC   GL249946  39.242   0.515   6.150
 7155POPC   C1A49947  39.276   0.479   6.450
 7155POPC   D2A49948  39.238   0.393   6.750
 7155POPC   C3A49949  39.220   0.404   7.050
 7155POPC   C4A49950  39.211   0.457   7.350
 7155POPC   C1B49951  39.244   0.680   6.450
 7155POPC   C2B49952  39.296   0.698   6.750
 7155POPC   C3B49953  39.293   0.642   7.050
 7155POPC   C4B49954  39.285   0.688   7.350
 7156POPC   NC349955  20.569   5.045   5.550
 7156POPC   PO449956  20.603   5.094   5.850
 7156POPC   GL149957  20.646   5.061   6.150
 7156POPC   GL249958  20.708   5.156   6.150
 7156POPC   C1A49959  20.586   5.117   6.450
 7156POPC   D2A49960  20.574   5.047   6.750
 7156POPC   C3A49961  20.591   5.078   7.050
 7156POPC   C4A49962  20.614   5.053   7.350
 7156POPC   C1B49963  20.879   5.122   6.450
 7156POPC   C2B49964  20.897   5.180   6.750
 7156POPC   C3B49965  20.895   5.177   7.050
 7156POPC   C4B49966  20.860   5.169   7.350
 7157POPC   NC349967  44.622  18.246   5.550
 7157POPC   PO449968  44.628  18.291   5.850
 7157POPC   GL149969  44.685  18.314   6.150
 7157POPC   GL249970  44.499  18.298   6.150
 7157POPC   C1A49971  44.664  18.298   6.450
 7157POPC   D2A49972  44.617  18.262   6.750
 7157POPC   C3A49973  44.628  18.322   7.050
 7157POPC   C4A49974  44.663  18.250   7.350
 7157POPC   C1B49975  44.402  18.395   6.450
 7157POPC   C2B49976  44.437  18.337   6.750
 7157POPC   C3B49977  44.479  18.381   7.050
 7157POPC   C4B49978  44.437  18.403   7.350
 7158POPC   NC349979   3.514  23.696   5.550
 7158POPC   PO449980   3.534  23.751   5.850
 7158POPC   GL149981   3.574  23.703   6.150
 7158POPC   GL249982   3.656  23.620   6.150
 7158POPC   C1A49983   3.535  23.671   6.450
 7158POPC   D2A49984   3.509  23.670   6.750
 7158POPC   C3A49985   3.520  23.700   7.050
 7158POPC   C4A49986   3.567  23.739   7.350
 7158POPC   C1B49987   3.782  23.536   6.450
 7158POPC   C2B49988   3.775  23.587   6.750
 7158POPC   C3B49989   3.757  23.580   7.050
 7158POPC   C4B49990   3.715  23.603   7.350
 7159POPC   NC349991  32.250  14.376   5.550
 7159POPC   PO449992  32.255  14.427   5.850
 7159POPC   GL149993  32.262  14.421   6.150
 7159POPC   GL249994  32.335  14.466   6.150
 7159POPC   C1A49995  32.201  14.389   6.450
 7159POPC   D2A49996  32.215  14.359   6.750
 7159POPC   C3A49997  32.231  14.446   7.050
 7159POPC   C4A49998  32.277  14.392   7.350
 7159POPC   C1B49999  32.451  14.570   6.450
 7159POPC   C2B50000  32.406  14.589   6.750
 7159POPC   C3B50001  32.429  14.561   7.050
 7159POPC   C4B50002  32.457  14.556   7.350
 7160POPC   NC350003  33.049   2.747   5.550
 7160POPC   PO450004  33.030   2.746   5.850
 7160POPC   GL150005  33.004   2.805   6.150
 7160POPC   GL250006  32.959   2.918   6.150
 7160POPC   C1A50007  33.068   2.786   6.450
 7160POPC   D2A50008  32.993   2.780   6.750
 7160POPC   C3A50009  32.990   2.768   7.050
 7160POPC   C4A50010  33.074   2.723   7.350
 7160POPC   C1B50011  32.888   2.965   6.450
 7160POPC   C2B50012  32.881   3.031   6.750
 7160POPC   C3B50013  32.921   3.038   7.050
 7160POPC   C4B50014  32.947   2.974   7.350
 7161POPC   NC350015   7.415  16.699   5.550
 7161POPC   PO450016   7.461  16.718   5.850
 7161POPC   GL150017   7.392  16.764   6.150
 7161POPC   GL250018   7.347  16.747   6.150
 7161POPC   C1A50019   7.442  16.750   6.450
 7161POPC   D2A50020   7.371  16.688   6.750
 7161POPC   C3A50021   7.460  16.744   7.050
 7161POPC   C4A50022   7.456  16.697   7.350
 7161POPC   C1B50023   7.224  16.663   6.450
 7161POPC   C2B50024   7.214  16.671   6.750
 7161POPC   C3B50025   7.205  16.722   7.050
 7161POPC   C4B50026   7.180  16.694   7.350
 7162POPC   NC350027  34.598  40.023   5.550
 7162POPC   PO450028  34.603  40.026   5.850
 7162POPC   GL150029  34.605  39.988   6.150
 7162POPC   GL250030  34.489  39.935   6.150
 7162POPC   C1A50031  34.529  40.016   6.450
 7162POPC   D2A50032  34.567  40.015   6.750
 7162POPC   C3A50033  34.568  40.028   7.050
 7162POPC   C4A50034  34.596  40.042   7.350
 7162POPC   C1B50035  34.397  39.832   6.450
 7162POPC   C2B50036  34.334  39.891   6.750
 7162POPC   C3B50037  34.416  39.850   7.050
 7162POPC   C4B50038  34.379  39.886   7.350
 7163POPC   NC350039  30.689   4.336   5.550
 7163POPC   PO450040  30.648   4.290   5.850
 7163POPC   GL150041  30.703   4.288   6.150
 7163POPC   GL250042  30.760   4.158   6.150
 7163POPC   C1A50043  30.653   4.282   6.450
 7163POPC   D2A50044  30.652   4.307   6.750
 7163POPC   C3A50045  30.723   4.315   7.050
 7163POPC   C4A50046  30.720   4.317   7.350
 7163POPC   C1B50047  30.709   4.087   6.450
 7163POPC   C2B50048  30.743   4.045   6.750
 7163POPC   C3B50049  30.783   4.071   7.050
 7163POPC   C4B50050  30.796   4.093   7.350
 7164POPC   NC350051  40.037  19.029   5.550
 7164POPC   PO450052  39.959  19.014   5.850
 7164POPC   GL150053  40.017  19.104   6.150
 7164POPC   GL250054  40.037  18.908   6.150
 7164POPC   C1A50055  40.035  19.035   6.450
 7164POPC   D2A50056  40.044  19.057   6.750
 7164POPC   C3A50057  40.021  19.045   7.050
 7164POPC   C4A50058  40.008  19.098   7.350
 7164POPC   C1B50059  39.999  18.860   6.450
 7164POPC   C2B50060  39.997  18.771   6.750
 7164POPC   C3B50061  39.962  18.773   7.050
 7164POPC   C4B50062  39.968  18.830   7.350
 7165POPC   NC350063  36.927  14.356   5.550
 7165POPC   PO450064  36.946  14.420   5.850
 7165POPC   GL150065  36.861  14.399   6.150
 7165POPC   GL250066  36.970  14.499   6.150
 7165POPC   C1A50067  36.892  14.359   6.450
 7165POPC   D2A50068  36.881  14.444   6.750
 7165POPC   C3A50069  36.879  14.424   7.050
 7165POPC   C4A50070  36.901  14.375   7.350
 7165POPC   C1B50071  37.110  14.589   6.450
 7165POPC   C2B50072  37.095  14.595   6.750
 7165POPC   C3B50073  37.078  14.625   7.050
 7165POPC   C4B50074  37.054  14.545   7.350
 7166POPC   NC350075  25.258  15.197   5.550
 7166POPC   PO450076  25.259  15.191   5.850
 7166POPC   GL150077  25.288  15.173   6.150
 7166POPC   GL250078  25.279  15.058   6.150
 7166POPC   C1A50079  25.278  15.159   6.450
 7166POPC   D2A50080  25.314  15.147   6.750
 7166POPC   C3A50081  25.289  15.208   7.050
 7166POPC   C4A50082  25.219  15.131   7.350
 7166POPC   C1B50083  25.223  14.960   6.450
 7166POPC   C2B50084  25.255  14.902   6.750
 7166POPC   C3B50085  25.220  14.955   7.050
 7166POPC   C4B50086  25.247  14.977   7.350
 7167POPC   NC350087  17.537  22.139   5.550
 7167POPC   PO450088  17.485  22.151   5.850
 7167POPC   GL150089  17.523  22.185   6.150
 7167POPC   GL250090  17.568  22.046   6.150
 7167POPC   C1A50091  17.480  22.208   6.450
 7167POPC   D2A50092  17.505  22.155   6.750
 7167POPC   C3A50093  17.484  22.157   7.050
 7167POPC   C4A50094  17.527  22.121   7.350
 7167POPC   C1B50095  17.592  21.881   6.450
 7167POPC   C2B50096  17.591  21.917   6.750
 7167POPC   C3B50097  17.568  21.939   7.050
 7167POPC   C4B50098  17.620  21.887   7.350
 7168POPC   NC350099  33.044  44.695   5.550
 7168POPC   PO450100  33.066  44.689   5.850
 7168POPC   GL150101  33.026  44.617   6.150
 7168POPC   GL250102  33.175  44.585   6.150
 7168POPC   C1A50103  33.068  44.666   6.450
 7168POPC   D2A50104  33.013  44.631   6.750
 7168POPC   C3A50105  32.984  44.671   7.050
 7168POPC   C4A50106  33.039  44.705   7.350
 7168POPC   C1B50107  33.294  44.584   6.450
 7168POPC   C2B50108  33.251  44.568   6.750
 7168POPC   C3B50109  33.298  44.547   7.050
 7168POPC   C4B50110  33.242  44.540   7.350
 7169POPC   NC350111   5.091  23.714   5.550
 7169POPC   PO450112   5.136  23.717   5.850
 7169POPC   GL150113   5.062  23.711   6.150
 7169POPC   GL250114   5.198  23.641   6.150
 7169POPC   C1A50115   5.088  23.727   6.450
 7169POPC   D2A50116   5.054  23.685   6.750
 7169POPC   C3A50117   5.049  23.691   7.050
 7169POPC   C4A50118   5.069  23.721   7.350
 7169POPC   C1B50119   5.257  23.537   6.450
 7169POPC   C2B50120   5.283  23.575   6.750
 7169POPC   C3B50121   5.260  23.568   7.050
 7169POPC   C4B50122   5.316  23.557   7.350
 7170POPC   NC350123  25.256  36.874   5.550
 7170POPC   PO450124  25.222  36.920   5.850
 7170POPC   GL150125  25.216  36.889   6.150
 7170POPC   GL250126  25.400  36.805   6.150
 7170POPC   C1A50127  25.299  36.878   6.450
 7170POPC   D2A50128  25.246  36.874   6.750
 7170POPC   C3A50129  25.229  36.933   7.050
 7170POPC   C4A50130  25.233  36.855   7.350
 7170POPC   C1B50131  25.458  36.833   6.450
 7170POPC   C2B50132  25.538  36.768   6.750
 7170POPC   C3B50133  25.494  36.773   7.050
 7170POPC   C4B50134  25.487  36.836   7.350
 7171POPC   NC350135  25.275  32.230   5.550
 7171POPC   PO450136  25.247  32.209   5.850
 7171POPC   GL150137  25.303  32.207   6.150
 7171POPC   GL250138  25.248  32.375   6.150
 7171POPC   C1A50139  25.296  32.286   6.450
 7171POPC   D2A50140  25.237  32.234   6.750
 7171POPC   C3A50141  25.294  32.260   7.050
 7171POPC   C4A50142  25.293  32.252   7.350
 7171POPC   C1B50143  25.242  32.473   6.450
 7171POPC   C2B50144  25.226  32.537   6.750
 7171POPC   C3B50145  25.219  32.487   7.050
 7171POPC   C4B50146  25.205  32.463   7.350
 7172POPC   NC350147   1.240   7.394   5.550
 7172POPC   PO450148   1.217   7.419   5.850
 7172POPC   GL150149   1.215   7.398   6.150
 7172POPC   GL250150   1.175   7.565   6.150
 7172POPC   C1A50151   1.219   7.400   6.450
 7172POPC   D2A50152   1.257   7.447   6.750
 7172POPC   C3A50153   1.227   7.448   7.050
 7172POPC   C4A50154   1.176   7.406   7.350
 7172POPC   C1B50155   1.093   7.618   6.450
 7172POPC   C2B50156   1.125   7.628   6.750
 7172POPC   C3B50157   1.078   7.624   7.050
 7172POPC   C4B50158   1.086   7.648   7.350
 7173POPC   NC350159  13.674  40.817   5.550
 7173POPC   PO450160  13.646  40.783   5.850
 7173POPC   GL150161  13.627  40.818   6.150
 7173POPC   GL250162  13.680  40.642   6.150
 7173POPC   C1A50163  13.587  40.758   6.450
 7173POPC   D2A50164  13.607  40.830   6.750
 7173POPC   C3A50165  13.582  40.765   7.050
 7173POPC   C4A50166  13.593  40.811   7.350
 7173POPC   C1B50167  13.768  40.611   6.450
 7173POPC   C2B50168  13.811  40.588   6.750
 7173POPC   C3B50169  13.749  40.603   7.050
 7173POPC   C4B50170  13.758  40.550   7.350
 7174POPC   NC350171  40.028   1.172   5.550
 7174POPC   PO450172  39.965   1.235   5.850
 7174POPC   GL150173  39.988   1.196   6.150
 7174POPC   GL250174  40.169   1.199   6.150
 7174POPC   C1A50175  39.991   1.189   6.450
 7174POPC   D2A50176  39.983   1.223   6.750
 7174POPC   C3A50177  40.048   1.255   7.050
 7174POPC   C4A50178  40.040   1.242   7.350
 7174POPC   C1B50179  40.241   1.231   6.450
 7174POPC   C2B50180  40.293   1.230   6.750
 7174POPC   C3B50181  40.265   1.296   7.050
 7174POPC   C4B50182  40.237   1.237   7.350
 7175POPC   NC350183  26.834  24.441   5.550
 7175POPC   PO450184  26.839  24.502   5.850
 7175POPC   GL150185  26.820  24.450   6.150
 7175POPC   GL250186  26.753  24.575   6.150
 7175POPC   C1A50187  26.831  24.470   6.450
 7175POPC   D2A50188  26.771  24.493   6.750
 7175POPC   C3A50189  26.841  24.441   7.050
 7175POPC   C4A50190  26.862  24.458   7.350
 7175POPC   C1B50191  26.812  24.703   6.450
 7175POPC   C2B50192  26.742  24.775   6.750
 7175POPC   C3B50193  26.762  24.751   7.050
 7175POPC   C4B50194  26.799  24.784   7.350
 7176POPC   NC350195  33.062  19.072   5.550
 7176POPC   PO450196  33.020  19.035   5.850
 7176POPC   GL150197  33.051  19.061   6.150
 7176POPC   GL250198  32.902  18.961   6.150
 7176POPC   C1A50199  33.010  19.009   6.450
 7176POPC   D2A50200  33.023  19.049   6.750
 7176POPC   C3A50201  33.015  19.042   7.050
 7176POPC   C4A50202  33.063  19.085   7.350
 7176POPC   C1B50203  32.819  18.875   6.450
 7176POPC   C2B50204  32.862  18.885   6.750
 7176POPC   C3B50205  32.898  18.887   7.050
 7176POPC   C4B50206  32.862  18.872   7.350
 7177POPC   NC350207  15.963   8.148   5.550
 7177POPC   PO450208  15.975   8.235   5.850
 7177POPC   GL150209  15.991   8.177   6.150
 7177POPC   GL250210  15.949   8.047   6.150
 7177POPC   C1A50211  15.995   8.174   6.450
 7177POPC   D2A50212  15.915   8.171   6.750
 7177POPC   C3A50213  15.965   8.217   7.050
 7177POPC   C4A50214  15.963   8.234   7.350
 7177POPC   C1B50215  15.994   7.928   6.450
 7177POPC   C2B50216  15.975   7.939   6.750
 7177POPC   C3B50217  15.955   7.990   7.050
 7177POPC   C4B50218  16.013   7.990   7.350
 7178POPC   NC350219   8.183  13.590   5.550
 7178POPC   PO450220   8.225  13.646   5.850
 7178POPC   GL150221   8.216  13.670   6.150
 7178POPC   GL250222   8.152  13.559   6.150
 7178POPC   C1A50223   8.197  13.595   6.450
 7178POPC   D2A50224   8.156  13.582   6.750
 7178POPC   C3A50225   8.226  13.618   7.050
 7178POPC   C4A50226   8.241  13.609   7.350
 7178POPC   C1B50227   8.014  13.384   6.450
 7178POPC   C2B50228   8.057  13.431   6.750
 7178POPC   C3B50229   8.012  13.408   7.050
 7178POPC   C4B50230   8.031  13.428   7.350
 7179POPC   NC350231   2.749   8.968   5.550
 7179POPC   PO450232   2.739   8.953   5.850
 7179POPC   GL150233   2.766   8.941   6.150
 7179POPC   GL250234   2.895   8.938   6.150
 7179POPC   C1A50235   2.722   8.997   6.450
 7179POPC   D2A50236   2.720   9.010   6.750
 7179POPC   C3A50237   2.786   8.972   7.050
 7179POPC   C4A50238   2.738   9.006   7.350
 7179POPC   C1B50239   2.959   8.798   6.450
 7179POPC   C2B50240   2.917   8.826   6.750
 7179POPC   C3B50241   2.951   8.847   7.050
 7179POPC   C4B50242   2.993   8.856   7.350
 7180POPC   NC350243  31.470  24.472   5.550
 7180POPC   PO450244  31.468  24.447   5.850
 7180POPC   GL150245  31.423  24.521   6.150
 7180POPC   GL250246  31.570  24.449   6.150
 7180POPC   C1A50247  31.511  24.449   6.450
 7180POPC   D2A50248  31.482  24.518   6.750
 7180POPC   C3A50249  31.432  24.483   7.050
 7180POPC   C4A50250  31.461  24.445   7.350
 7180POPC   C1B50251  31.757  24.453   6.450
 7180POPC   C2B50252  31.689  24.414   6.750
 7180POPC   C3B50253  31.738  24.397   7.050
 7180POPC   C4B50254  31.698  24.391   7.350
 7181POPC   NC350255   0.428  37.675   5.550
 7181POPC   PO450256   0.394  37.714   5.850
 7181POPC   GL150257   0.416  37.690   6.150
 7181POPC   GL250258   0.354  37.714   6.150
 7181POPC   C1A50259   0.470  37.680   6.450
 7181POPC   D2A50260   0.487  37.692   6.750
 7181POPC   C3A50261   0.442  37.691   7.050
 7181POPC   C4A50262   0.396  37.706   7.350
 7181POPC   C1B50263   0.156  37.780   6.450
 7181POPC   C2B50264   0.218  37.754   6.750
 7181POPC   C3B50265   0.188  37.777   7.050
 7181POPC   C4B50266   0.148  37.732   7.350
 7182POPC   NC350267  25.229  15.989   5.550
 7182POPC   PO450268  25.216  15.975   5.850
 7182POPC   GL150269  25.307  16.004   6.150
 7182POPC   GL250270  25.240  16.022   6.150
 7182POPC   C1A50271  25.307  15.934   6.450
 7182POPC   D2A50272  25.246  15.938   6.750
 7182POPC   C3A50273  25.270  15.978   7.050
 7182POPC   C4A50274  25.240  15.981   7.350
 7182POPC   C1B50275  25.178  16.159   6.450
 7182POPC   C2B50276  25.158  16.198   6.750
 7182POPC   C3B50277  25.116  16.228   7.050
 7182POPC   C4B50278  25.194  16.170   7.350
 7183POPC   NC350279  21.347  42.328   5.550
 7183POPC   PO450280  21.409  42.295   5.850
 7183POPC   GL150281  21.375  42.354   6.150
 7183POPC   GL250282  21.523  42.275   6.150
 7183POPC   C1A50283  21.362  42.286   6.450
 7183POPC   D2A50284  21.432  42.354   6.750
 7183POPC   C3A50285  21.425  42.330   7.050
 7183POPC   C4A50286  21.435  42.305   7.350
 7183POPC   C1B50287  21.572  42.159   6.450
 7183POPC   C2B50288  21.562  42.215   6.750
 7183POPC   C3B50289  21.575  42.198   7.050
 7183POPC   C4B50290  21.635  42.239   7.350
 7184POPC   NC350291  12.846  19.875   5.550
 7184POPC   PO450292  12.879  19.879   5.850
 7184POPC   GL150293  12.822  19.884   6.150
 7184POPC   GL250294  12.875  19.748   6.150
 7184POPC   C1A50295  12.810  19.823   6.450
 7184POPC   D2A50296  12.851  19.865   6.750
 7184POPC   C3A50297  12.885  19.849   7.050
 7184POPC   C4A50298  12.839  19.828   7.350
 7184POPC   C1B50299  12.935  19.579   6.450
 7184POPC   C2B50300  12.911  19.543   6.750
 7184POPC   C3B50301  12.854  19.545   7.050
 7184POPC   C4B50302  12.913  19.620   7.350
 7185POPC   NC350303  24.511  43.905   5.550
 7185POPC   PO450304  24.524  43.846   5.850
 7185POPC   GL150305  24.469  43.854   6.150
 7185POPC   GL250306  24.377  43.996   6.150
 7185POPC   C1A50307  24.520  43.859   6.450
 7185POPC   D2A50308  24.445  43.935   6.750
 7185POPC   C3A50309  24.470  43.897   7.050
 7185POPC   C4A50310  24.497  43.893   7.350
 7185POPC   C1B50311  24.267  44.082   6.450
 7185POPC   C2B50312  24.288  44.023   6.750
 7185POPC   C3B50313  24.301  44.046   7.050
 7185POPC   C4B50314  24.343  44.020   7.350
 7186POPC   NC350315  22.207  15.159   5.550
 7186POPC   PO450316  22.210  15.185   5.850
 7186POPC   GL150317  22.141  15.209   6.150
 7186POPC   GL250318  22.030  15.135   6.150
 7186POPC   C1A50319  22.155  15.190   6.450
 7186POPC   D2A50320  22.124  15.150   6.750
 7186POPC   C3A50321  22.173  15.218   7.050
 7186POPC   C4A50322  22.193  15.222   7.350
 7186POPC   C1B50323  21.979  15.025   6.450
 7186POPC   C2B50324  21.956  14.979   6.750
 7186POPC   C3B50325  21.977  15.032   7.050
 7186POPC   C4B50326  21.975  15.012   7.350
 7187POPC   NC350327  30.704  19.875   5.550
 7187POPC   PO450328  30.724  19.815   5.850
 7187POPC   GL150329  30.704  19.838   6.150
 7187POPC   GL250330  30.780  19.907   6.150
 7187POPC   C1A50331  30.722  19.843   6.450
 7187POPC   D2A50332  30.708  19.828   6.750
 7187POPC   C3A50333  30.650  19.847   7.050
 7187POPC   C4A50334  30.716  19.831   7.350
 7187POPC   C1B50335  30.918  19.968   6.450
 7187POPC   C2B50336  30.928  19.911   6.750
 7187POPC   C3B50337  30.912  19.959   7.050
 7187POPC   C4B50338  30.869  19.955   7.350
 7188POPC   NC350339  37.639  29.932   5.550
 7188POPC   PO450340  37.633  29.949   5.850
 7188POPC   GL150341  37.661  29.919   6.150
 7188POPC   GL250342  37.710  30.077   6.150
 7188POPC   C1A50343  37.653  29.903   6.450
 7188POPC   D2A50344  37.688  29.937   6.750
 7188POPC   C3A50345  37.648  29.946   7.050
 7188POPC   C4A50346  37.678  29.922   7.350
 7188POPC   C1B50347  37.649  30.129   6.450
 7188POPC   C2B50348  37.639  30.144   6.750
 7188POPC   C3B50349  37.703  30.192   7.050
 7188POPC   C4B50350  37.678  30.155   7.350
 7189POPC   NC350351  34.565  22.955   5.550
 7189POPC   PO450352  34.599  22.978   5.850
 7189POPC   GL150353  34.531  22.900   6.150
 7189POPC   GL250354  34.405  22.943   6.150
 7189POPC   C1A50355  34.537  22.969   6.450
 7189POPC   D2A50356  34.532  22.906   6.750
 7189POPC   C3A50357  34.544  22.896   7.050
 7189POPC   C4A50358  34.620  22.918   7.350
 7189POPC   C1B50359  34.382  22.835   6.450
 7189POPC   C2B50360  34.323  22.916   6.750
 7189POPC   C3B50361  34.368  22.924   7.050
 7189POPC   C4B50362  34.300  22.860   7.350
 7190POPC   NC350363   7.400  29.886   5.550
 7190POPC   PO450364   7.427  29.951   5.850
 7190POPC   GL150365   7.398  29.945   6.150
 7190POPC   GL250366   7.417  30.089   6.150
 7190POPC   C1A50367   7.445  29.945   6.450
 7190POPC   D2A50368   7.448  29.950   6.750
 7190POPC   C3A50369   7.392  29.881   7.050
 7190POPC   C4A50370   7.377  29.962   7.350
 7190POPC   C1B50371   7.408  30.129   6.450
 7190POPC   C2B50372   7.437  30.155   6.750
 7190POPC   C3B50373   7.458  30.129   7.050
 7190POPC   C4B50374   7.419  30.159   7.350
 7191POPC   NC350375  40.766  15.222   5.550
 7191POPC   PO450376  40.796  15.192   5.850
 7191POPC   GL150377  40.797  15.186   6.150
 7191POPC   GL250378  40.768  15.300   6.150
 7191POPC   C1A50379  40.764  15.202   6.450
 7191POPC   D2A50380  40.794  15.142   6.750
 7191POPC   C3A50381  40.736  15.192   7.050
 7191POPC   C4A50382  40.800  15.184   7.350
 7191POPC   C1B50383  40.770  15.375   6.450
 7191POPC   C2B50384  40.710  15.389   6.750
 7191POPC   C3B50385  40.697  15.397   7.050
 7191POPC   C4B50386  40.723  15.434   7.350
 7192POPC   NC350387  10.516   5.897   5.550
 7192POPC   PO450388  10.491   5.897   5.850
 7192POPC   GL150389  10.538   5.914   6.150
 7192POPC   GL250390  10.390   5.864   6.150
 7192POPC   C1A50391  10.524   5.824   6.450
 7192POPC   D2A50392  10.523   5.863   6.750
 7192POPC   C3A50393  10.490   5.846   7.050
 7192POPC   C4A50394  10.493   5.892   7.350
 7192POPC   C1B50395  10.248   5.830   6.450
 7192POPC   C2B50396  10.270   5.801   6.750
 7192POPC   C3B50397  10.286   5.816   7.050
 7192POPC   C4B50398  10.271   5.858   7.350
 7193POPC   NC350399   3.551  43.857   5.550
 7193POPC   PO450400   3.585  43.862   5.850
 7193POPC   GL150401   3.513  43.906   6.150
 7193POPC   GL250402   3.549  44.042   6.150
 7193POPC   C1A50403   3.538  43.852   6.450
 7193POPC   D2A50404   3.562  43.880   6.750
 7193POPC   C3A50405   3.524  43.882   7.050
 7193POPC   C4A50406   3.561  43.845   7.350
 7193POPC   C1B50407   3.512  44.142   6.450
 7193POPC   C2B50408   3.542  44.140   6.750
 7193POPC   C3B50409   3.571  44.119   7.050
 7193POPC   C4B50410   3.590  44.181   7.350
 7194POPC   NC350411  19.872  18.318   5.550
 7194POPC   PO450412  19.849  18.256   5.850
 7194POPC   GL150413  19.828  18.255   6.150
 7194POPC   GL250414  19.747  18.385   6.150
 7194POPC   C1A50415  19.795  18.245   6.450
 7194POPC   D2A50416  19.864  18.294   6.750
 7194POPC   C3A50417  19.807  18.299   7.050
 7194POPC   C4A50418  19.883  18.310   7.350
 7194POPC   C1B50419  19.764  18.561   6.450
 7194POPC   C2B50420  19.743  18.532   6.750
 7194POPC   C3B50421  19.718  18.507   7.050
 7194POPC   C4B50422  19.710  18.481   7.350
 7195POPC   NC350423   1.997   5.115   5.550
 7195POPC   PO450424   2.035   5.082   5.850
 7195POPC   GL150425   1.952   5.067   6.150
 7195POPC   GL250426   2.074   4.977   6.150
 7195POPC   C1A50427   2.020   5.087   6.450
 7195POPC   D2A50428   1.958   5.121   6.750
 7195POPC   C3A50429   2.026   5.059   7.050
 7195POPC   C4A50430   1.979   5.132   7.350
 7195POPC   C1B50431   2.095   4.846   6.450
 7195POPC   C2B50432   2.093   4.917   6.750
 7195POPC   C3B50433   2.093   4.858   7.050
 7195POPC   C4B50434   2.109   4.905   7.350
 7196POPC   NC350435  11.270  23.669   5.550
 7196POPC   PO450436  11.287  23.729   5.850
 7196POPC   GL150437  11.313  23.718   6.150
 7196POPC   GL250438  11.163  23.640   6.150
 7196POPC   C1A50439  11.279  23.684   6.450
 7196POPC   D2A50440  11.348  23.667   6.750
 7196POPC   C3A50441  11.257  23.759   7.050
 7196POPC   C4A50442  11.334  23.719   7.350
 7196POPC   C1B50443  11.045  23.611   6.450
 7196POPC   C2B50444  11.020  23.655   6.750
 7196POPC   C3B50445  11.097  23.580   7.050
 7196POPC   C4B50446  11.057  23.642   7.350
 7197POPC   NC350447  29.113   5.892   5.550
 7197POPC   PO450448  29.131   5.883   5.850
 7197POPC   GL150449  29.105   5.894   6.150
 7197POPC   GL250450  29.019   5.808   6.150
 7197POPC   C1A50451  29.158   5.839   6.450
 7197POPC   D2A50452  29.128   5.902   6.750
 7197POPC   C3A50453  29.136   5.840   7.050
 7197POPC   C4A50454  29.168   5.896   7.350
 7197POPC   C1B50455  28.887   5.769   6.450
 7197POPC   C2B50456  28.855   5.775   6.750
 7197POPC   C3B50457  28.888   5.829   7.050
 7197POPC   C4B50458  28.905   5.772   7.350
 7198POPC   NC350459   6.677  43.879   5.550
 7198POPC   PO450460   6.693  43.840   5.850
 7198POPC   GL150461   6.640  43.857   6.150
 7198POPC   GL250462   6.652  43.999   6.150
 7198POPC   C1A50463   6.653  43.889   6.450
 7198POPC   D2A50464   6.648  43.926   6.750
 7198POPC   C3A50465   6.609  43.928   7.050
 7198POPC   C4A50466   6.621  43.915   7.350
 7198POPC   C1B50467   6.727  44.169   6.450
 7198POPC   C2B50468   6.679  44.163   6.750
 7198POPC   C3B50469   6.671  44.106   7.050
 7198POPC   C4B50470   6.671  44.132   7.350
 7199POPC   NC350471  32.226  23.756   5.550
 7199POPC   PO450472  32.277  23.742   5.850
 7199POPC   GL150473  32.294  23.701   6.150
 7199POPC   GL250474  32.103  23.775   6.150
 7199POPC   C1A50475  32.212  23.700   6.450
 7199POPC   D2A50476  32.243  23.759   6.750
 7199POPC   C3A50477  32.217  23.762   7.050
 7199POPC   C4A50478  32.228  23.678   7.350
 7199POPC   C1B50479  32.093  23.826   6.450
 7199POPC   C2B50480  32.046  23.890   6.750
 7199POPC   C3B50481  32.027  23.875   7.050
 7199POPC   C4B50482  32.043  23.852   7.350
 7200POPC   NC350483   6.635  38.490   5.550
 7200POPC   PO450484   6.625  38.425   5.850
 7200POPC   GL150485   6.627  38.427   6.150
 7200POPC   GL250486   6.490  38.405   6.150
 7200POPC   C1A50487   6.638  38.436   6.450
 7200POPC   D2A50488   6.633  38.429   6.750
 7200POPC   C3A50489   6.603  38.491   7.050
 7200POPC   C4A50490   6.670  38.452   7.350
 7200POPC   C1B50491   6.441  38.349   6.450
 7200POPC   C2B50492   6.403  38.301   6.750
 7200POPC   C3B50493   6.465  38.311   7.050
 7200POPC   C4B50494   6.468  38.302   7.350
 7201POPC   NC350495  34.595  29.126   5.550
 7201POPC   PO450496  34.530  29.128   5.850
 7201POPC   GL150497  34.569  29.178   6.150
 7201POPC   GL250498  34.501  29.138   6.150
 7201POPC   C1A50499  34.546  29.104   6.450
 7201POPC   D2A50500  34.554  29.127   6.750
 7201POPC   C3A50501  34.581  29.131   7.050
 7201POPC   C4A50502  34.578  29.113   7.350
 7201POPC   C1B50503  34.317  29.045   6.450
 7201POPC   C2B50504  34.352  29.099   6.750
 7201POPC   C3B50505  34.337  29.056   7.050
 7201POPC   C4B50506  34.366  29.059   7.350
 7202POPC   NC350507  14.370  43.893   5.550
 7202POPC   PO450508  14.357  43.902   5.850
 7202POPC   GL150509  14.374  43.865   6.150
 7202POPC   GL250510  14.290  43.896   6.150
 7202POPC   C1A50511  14.355  43.913   6.450
 7202POPC   D2A50512  14.435  43.884   6.750
 7202POPC   C3A50513  14.361  43.846   7.050
 7202POPC   C4A50514  14.402  43.883   7.350
 7202POPC   C1B50515  14.170  43.905   6.450
 7202POPC   C2B50516  14.160  43.934   6.750
 7202POPC   C3B50517  14.113  43.941   7.050
 7202POPC   C4B50518  14.163  43.936   7.350
 7203POPC   NC350519  42.303   9.019   5.550
 7203POPC   PO450520  42.371   9.010   5.850
 7203POPC   GL150521  42.296   9.007   6.150
 7203POPC   GL250522  42.343   9.090   6.150
 7203POPC   C1A50523  42.328   9.022   6.450
 7203POPC   D2A50524  42.335   8.959   6.750
 7203POPC   C3A50525  42.316   8.973   7.050
 7203POPC   C4A50526  42.356   8.967   7.350
 7203POPC   C1B50527  42.291   9.261   6.450
 7203POPC   C2B50528  42.250   9.201   6.750
 7203POPC   C3B50529  42.318   9.186   7.050
 7203POPC   C4B50530  42.260   9.233   7.350
 7204POPC   NC350531   2.730  23.692   5.550
 7204POPC   PO450532   2.744  23.754   5.850
 7204POPC   GL150533   2.719  23.755   6.150
 7204POPC   GL250534   2.866  23.601   6.150
 7204POPC   C1A50535   2.735  23.698   6.450
 7204POPC   D2A50536   2.800  23.717   6.750
 7204POPC   C3A50537   2.798  23.721   7.050
 7204POPC   C4A50538   2.764  23.669   7.350
 7204POPC   C1B50539   2.944  23.569   6.450
 7204POPC   C2B50540   3.016  23.586   6.750
 7204POPC   C3B50541   2.964  23.581   7.050
 7204POPC   C4B50542   3.002  23.588   7.350
 7205POPC   NC350543  25.294  24.477   5.550
 7205POPC   PO450544  25.293  24.489   5.850
 7205POPC   GL150545  25.261  24.452   6.150
 7205POPC   GL250546  25.373  24.493   6.150
 7205POPC   C1A50547  25.270  24.459   6.450
 7205POPC   D2A50548  25.249  24.456   6.750
 7205POPC   C3A50549  25.249  24.449   7.050
 7205POPC   C4A50550  25.227  24.502   7.350
 7205POPC   C1B50551  25.474  24.557   6.450
 7205POPC   C2B50552  25.544  24.525   6.750
 7205POPC   C3B50553  25.501  24.487   7.050
 7205POPC   C4B50554  25.498  24.493   7.350
 7206POPC   NC350555   1.987   9.704   5.550
 7206POPC   PO450556   2.019   9.787   5.850
 7206POPC   GL150557   1.976   9.771   6.150
 7206POPC   GL250558   2.062   9.825   6.150
 7206POPC   C1A50559   1.983   9.739   6.450
 7206POPC   D2A50560   1.987   9.709   6.750
 7206POPC   C3A50561   2.011   9.707   7.050
 7206POPC   C4A50562   2.022   9.712   7.350
 7206POPC   C1B50563   2.215   9.848   6.450
 7206POPC   C2B50564   2.230   9.857   6.750
 7206POPC   C3B50565   2.220   9.843   7.050
 7206POPC   C4B50566   2.222   9.901   7.350
 7207POPC   NC350567  32.998  17.468   5.550
 7207POPC   PO450568  32.985  17.553   5.850
 7207POPC   GL150569  33.064  17.514   6.150
 7207POPC   GL250570  32.923  17.651   6.150
 7207POPC   C1A50571  32.981  17.507   6.450
 7207POPC   D2A50572  33.054  17.546   6.750
 7207POPC   C3A50573  33.017  17.553   7.050
 7207POPC   C4A50574  33.032  17.494   7.350
 7207POPC   C1B50575  32.911  17.757   6.450
 7207POPC   C2B50576  32.926  17.738   6.750
 7207POPC   C3B50577  32.948  17.762   7.050
 7207POPC   C4B50578  32.960  17.777   7.350
 7208POPC   NC350579   1.169  42.357   5.550
 7208POPC   PO450580   1.174  42.367   5.850
 7208POPC   GL150581   1.250  42.299   6.150
 7208POPC   GL250582   1.335  42.456   6.150
 7208POPC   C1A50583   1.258  42.310   6.450
 7208POPC   D2A50584   1.174  42.292   6.750
 7208POPC   C3A50585   1.249  42.377   7.050
 7208POPC   C4A50586   1.244  42.376   7.350
 7208POPC   C1B50587   1.347  42.562   6.450
 7208POPC   C2B50588   1.365  42.525   6.750
 7208POPC   C3B50589   1.352  42.547   7.050
 7208POPC   C4B50590   1.334  42.502   7.350
 7209POPC   NC350591   5.103   8.239   5.550
 7209POPC   PO450592   5.142   8.196   5.850
 7209POPC   GL150593   5.074   8.238   6.150
 7209POPC   GL250594   5.039   8.311   6.150
 7209POPC   C1A50595   5.081   8.167   6.450
 7209POPC   D2A50596   5.106   8.224   6.750
 7209POPC   C3A50597   5.075   8.216   7.050
 7209POPC   C4A50598   5.059   8.222   7.350
 7209POPC   C1B50599   4.998   8.477   6.450
 7209POPC   C2B50600   5.023   8.450   6.750
 7209POPC   C3B50601   5.041   8.460   7.050
 7209POPC   C4B50602   5.076   8.469   7.350
 7210POPC   NC350603   7.451  11.305   5.550
 7210POPC   PO450604   7.377  11.334   5.850
 7210POPC   GL150605   7.470  11.322   6.150
 7210POPC   GL250606   7.467  11.439   6.150
 7210POPC   C1A50607   7.397  11.306   6.450
 7210POPC   D2A50608   7.377  11.294   6.750
 7210POPC   C3A50609   7.469  11.350   7.050
 7210POPC   C4A50610   7.415  11.336   7.350
 7210POPC   C1B50611   7.510  11.507   6.450
 7210POPC   C2B50612   7.551  11.563   6.750
 7210POPC   C3B50613   7.490  11.476   7.050
 7210POPC   C4B50614   7.484  11.489   7.350
 7211POPC   NC350615  24.517  12.079   5.550
 7211POPC   PO450616  24.441  12.125   5.850
 7211POPC   GL150617  24.468  12.099   6.150
 7211POPC   GL250618  24.367  11.984   6.150
 7211POPC   C1A50619  24.468  12.047   6.450
 7211POPC   D2A50620  24.444  12.051   6.750
 7211POPC   C3A50621  24.470  12.090   7.050
 7211POPC   C4A50622  24.510  12.110   7.350
 7211POPC   C1B50623  24.251  11.991   6.450
 7211POPC   C2B50624  24.228  11.953   6.750
 7211POPC   C3B50625  24.241  11.936   7.050
 7211POPC   C4B50626  24.294  11.984   7.350
 7212POPC   NC350627  44.672  32.993   5.550
 7212POPC   PO450628  44.657  32.976   5.850
 7212POPC   GL150629  44.648  33.010   6.150
 7212POPC   GL250630  44.587  33.088   6.150
 7212POPC   C1A50631  44.699  33.015   6.450
 7212POPC   D2A50632  44.647  33.072   6.750
 7212POPC   C3A50633  44.662  33.069   7.050
 7212POPC   C4A50634  44.617  32.979   7.350
 7212POPC   C1B50635  44.495  33.158   6.450
 7212POPC   C2B50636  44.463  33.238   6.750
 7212POPC   C3B50637  44.485  33.176   7.050
 7212POPC   C4B50638  44.452  33.172   7.350
 7213POPC   NC350639   0.404  43.890   5.550
 7213POPC   PO450640   0.438  43.898   5.850
 7213POPC   GL150641   0.420  43.899   6.150
 7213POPC   GL250642   0.348  43.960   6.150
 7213POPC   C1A50643   0.420  43.884   6.450
 7213POPC   D2A50644   0.400  43.919   6.750
 7213POPC   C3A50645   0.442  43.854   7.050
 7213POPC   C4A50646   0.420  43.901   7.350
 7213POPC   C1B50647   0.174  44.018   6.450
 7213POPC   C2B50648   0.204  43.952   6.750
 7213POPC   C3B50649   0.255  43.955   7.050
 7213POPC   C4B50650   0.190  44.000   7.350
 7214POPC   NC350651   1.244  43.073   5.550
 7214POPC   PO450652   1.235  43.138   5.850
 7214POPC   GL150653   1.260  43.148   6.150
 7214POPC   GL250654   1.153  43.039   6.150
 7214POPC   C1A50655   1.194  43.128   6.450
 7214POPC   D2A50656   1.256  43.110   6.750
 7214POPC   C3A50657   1.201  43.131   7.050
 7214POPC   C4A50658   1.257  43.066   7.350
 7214POPC   C1B50659   1.030  42.986   6.450
 7214POPC   C2B50660   0.996  42.967   6.750
 7214POPC   C3B50661   1.019  42.930   7.050
 7214POPC   C4B50662   0.961  42.994   7.350
 7215POPC   NC350663  27.590  12.027   5.550
 7215POPC   PO450664  27.561  12.102   5.850
 7215POPC   GL150665  27.635  12.106   6.150
 7215POPC   GL250666  27.512  12.016   6.150
 7215POPC   C1A50667  27.628  12.078   6.450
 7215POPC   D2A50668  27.579  12.116   6.750
 7215POPC   C3A50669  27.579  12.115   7.050
 7215POPC   C4A50670  27.628  12.033   7.350
 7215POPC   C1B50671  27.389  11.975   6.450
 7215POPC   C2B50672  27.336  12.033   6.750
 7215POPC   C3B50673  27.375  11.998   7.050
 7215POPC   C4B50674  27.370  11.995   7.350
 7216POPC   NC350675  22.942   6.623   5.550
 7216POPC   PO450676  22.927   6.599   5.850
 7216POPC   GL150677  22.958   6.601   6.150
 7216POPC   GL250678  22.862   6.708   6.150
 7216POPC   C1A50679  22.903   6.601   6.450
 7216POPC   D2A50680  22.911   6.666   6.750
 7216POPC   C3A50681  22.981   6.675   7.050
 7216POPC   C4A50682  22.927   6.627   7.350
 7216POPC   C1B50683  22.741   6.781   6.450
 7216POPC   C2B50684  22.738   6.727   6.750
 7216POPC   C3B50685  22.732   6.759   7.050
 7216POPC   C4B50686  22.739   6.792   7.350
 7217POPC   NC350687  40.002  31.499   5.550
 7217POPC   PO450688  40.035  31.512   5.850
 7217POPC   GL150689  40.021  31.455   6.150
 7217POPC   GL250690  40.118  31.360   6.150
 7217POPC   C1A50691  40.045  31.522   6.450
 7217POPC   D2A50692  40.049  31.489   6.750
 7217POPC   C3A50693  40.030  31.441   7.050
 7217POPC   C4A50694  40.000  31.465   7.350
 7217POPC   C1B50695  40.209  31.303   6.450
 7217POPC   C2B50696  40.239  31.313   6.750
 7217POPC   C3B50697  40.224  31.298   7.050
 7217POPC   C4B50698  40.218  31.343   7.350
 7218POPC   NC350699   4.347  43.878   5.550
 7218POPC   PO450700   4.278  43.862   5.850
 7218POPC   GL150701   4.319  43.874   6.150
 7218POPC   GL250702   4.473  43.979   6.150
 7218POPC   C1A50703   4.270  43.839   6.450
 7218POPC   D2A50704   4.296  43.904   6.750
 7218POPC   C3A50705   4.277  43.872   7.050
 7218POPC   C4A50706   4.334  43.877   7.350
 7218POPC   C1B50707   4.517  43.960   6.450
 7218POPC   C2B50708   4.576  43.939   6.750
 7218POPC   C3B50709   4.548  43.945   7.050
 7218POPC   C4B50710   4.574  43.938   7.350
 7219POPC   NC350711  26.839  39.232   5.550
 7219POPC   PO450712  26.795  39.229   5.850
 7219POPC   GL150713  26.822  39.277   6.150
 7219POPC   GL250714  26.784  39.153   6.150
 7219POPC   C1A50715  26.826  39.198   6.450
 7219POPC   D2A50716  26.839  39.239   6.750
 7219POPC   C3A50717  26.852  39.224   7.050
 7219POPC   C4A50718  26.839  39.184   7.350
 7219POPC   C1B50719  26.781  39.020   6.450
 7219POPC   C2B50720  26.779  38.994   6.750
 7219POPC   C3B50721  26.826  38.964   7.050
 7219POPC   C4B50722  26.768  39.005   7.350
 7220POPC   NC350723   8.225  39.963   5.550
 7220POPC   PO450724   8.169  40.046   5.850
 7220POPC   GL150725   8.149  39.971   6.150
 7220POPC   GL250726   8.079  39.999   6.150
 7220POPC   C1A50727   8.183  40.029   6.450
 7220POPC   D2A50728   8.229  40.022   6.750
 7220POPC   C3A50729   8.212  39.971   7.050
 7220POPC   C4A50730   8.233  39.992   7.350
 7220POPC   C1B50731   7.951  40.020   6.450
 7220POPC   C2B50732   7.996  40.014   6.750
 7220POPC   C3B50733   7.914  40.044   7.050
 7220POPC   C4B50734   7.947  40.051   7.350
 7221POPC   NC350735  41.570  19.792   5.550
 7221POPC   PO450736  41.577  19.856   5.850
 7221POPC   GL150737  41.589  19.847   6.150
 7221POPC   GL250738  41.418  19.931   6.150
 7221POPC   C1A50739  41.526  19.871   6.450
 7221POPC   D2A50740  41.574  19.803   6.750
 7221POPC   C3A50741  41.514  19.857   7.050
 7221POPC   C4A50742  41.512  19.874   7.350
 7221POPC   C1B50743  41.375  19.949   6.450
 7221POPC   C2B50744  41.385  19.937   6.750
 7221POPC   C3B50745  41.312  19.955   7.050
 7221POPC   C4B50746  41.392  19.933   7.350
 7222POPC   NC350747   4.336  18.301   5.550
 7222POPC   PO450748   4.317  18.281   5.850
 7222POPC   GL150749   4.273  18.238   6.150
 7222POPC   GL250750   4.263  18.124   6.150
 7222POPC   C1A50751   4.353  18.332   6.450
 7222POPC   D2A50752   4.294  18.249   6.750
 7222POPC   C3A50753   4.338  18.239   7.050
 7222POPC   C4A50754   4.290  18.290   7.350
 7222POPC   C1B50755   4.202  18.054   6.450
 7222POPC   C2B50756   4.232  18.033   6.750
 7222POPC   C3B50757   4.263  18.016   7.050
 7222POPC   C4B50758   4.233  18.010   7.350
 7223POPC   NC350759  36.937  35.402   5.550
 7223POPC   PO450760  36.859  35.369   5.850
 7223POPC   GL150761  36.889  35.361   6.150
 7223POPC   GL250762  36.769  35.302   6.150
 7223POPC   C1A50763  36.870  35.364   6.450
 7223POPC   D2A50764  36.906  35.344   6.750
 7223POPC   C3A50765  36.854  35.329   7.050
 7223POPC   C4A50766  36.906  35.378   7.350
 7223POPC   C1B50767  36.706  35.222   6.450
 7223POPC   C2B50768  36.707  35.195   6.750
 7223POPC   C3B50769  36.658  35.205   7.050
 7223POPC   C4B50770  36.702  35.252   7.350
 7224POPC   NC350771  34.581  27.620   5.550
 7224POPC   PO450772  34.591  27.557   5.850
 7224POPC   GL150773  34.533  27.594   6.150
 7224POPC   GL250774  34.721  27.684   6.150
 7224POPC   C1A50775  34.567  27.619   6.450
 7224POPC   D2A50776  34.589  27.572   6.750
 7224POPC   C3A50777  34.568  27.550   7.050
 7224POPC   C4A50778  34.570  27.556   7.350
 7224POPC   C1B50779  34.832  27.720   6.450
 7224POPC   C2B50780  34.757  27.740   6.750
 7224POPC   C3B50781  34.811  27.726   7.050
 7224POPC   C4B50782  34.791  27.708   7.350
 7225POPC   NC350783  29.878   1.166   5.550
 7225POPC   PO450784  29.935   1.257   5.850
 7225POPC   GL150785  29.970   1.226   6.150
 7225POPC   GL250786  30.021   1.244   6.150
 7225POPC   C1A50787  29.871   1.241   6.450
 7225POPC   D2A50788  29.895   1.262   6.750
 7225POPC   C3A50789  29.878   1.228   7.050
 7225POPC   C4A50790  29.957   1.211   7.350
 7225POPC   C1B50791  30.134   1.214   6.450
 7225POPC   C2B50792  30.138   1.200   6.750
 7225POPC   C3B50793  30.124   1.226   7.050
 7225POPC   C4B50794  30.148   1.202   7.350
 7226POPC   NC350795  43.136  29.967   5.550
 7226POPC   PO450796  43.081  29.921   5.850
 7226POPC   GL150797  43.097  29.875   6.150
 7226POPC   GL250798  42.999  30.004   6.150
 7226POPC   C1A50799  43.111  29.918   6.450
 7226POPC   D2A50800  43.118  29.882   6.750
 7226POPC   C3A50801  43.080  29.931   7.050
 7226POPC   C4A50802  43.127  29.909   7.350
 7226POPC   C1B50803  42.938  30.071   6.450
 7226POPC   C2B50804  42.899  30.100   6.750
 7226POPC   C3B50805  42.872  30.092   7.050
 7226POPC   C4B50806  42.896  30.089   7.350
 7227POPC   NC350807  40.794  29.872   5.550
 7227POPC   PO450808  40.744  29.874   5.850
 7227POPC   GL150809  40.802  29.943   6.150
 7227POPC   GL250810  40.650  29.968   6.150
 7227POPC   C1A50811  40.743  29.915   6.450
 7227POPC   D2A50812  40.818  29.953   6.750
 7227POPC   C3A50813  40.760  29.919   7.050
 7227POPC   C4A50814  40.758  29.906   7.350
 7227POPC   C1B50815  40.562  30.013   6.450
 7227POPC   C2B50816  40.620  30.020   6.750
 7227POPC   C3B50817  40.623  30.057   7.050
 7227POPC   C4B50818  40.611  30.030   7.350
 7228POPC   NC350819   9.788   1.164   5.550
 7228POPC   PO450820   9.720   1.176   5.850
 7228POPC   GL150821   9.724   1.164   6.150
 7228POPC   GL250822   9.847   1.235   6.150
 7228POPC   C1A50823   9.787   1.250   6.450
 7228POPC   D2A50824   9.759   1.243   6.750
 7228POPC   C3A50825   9.738   1.194   7.050
 7228POPC   C4A50826   9.715   1.186   7.350
 7228POPC   C1B50827   9.934   1.303   6.450
 7228POPC   C2B50828   9.987   1.359   6.750
 7228POPC   C3B50829   9.953   1.317   7.050
 7228POPC   C4B50830   9.916   1.382   7.350
 7229POPC   NC350831  26.020  42.381   5.550
 7229POPC   PO450832  26.086  42.311   5.850
 7229POPC   GL150833  26.040  42.372   6.150
 7229POPC   GL250834  25.974  42.425   6.150
 7229POPC   C1A50835  26.080  42.367   6.450
 7229POPC   D2A50836  26.073  42.299   6.750
 7229POPC   C3A50837  26.041  42.359   7.050
 7229POPC   C4A50838  26.062  42.315   7.350
 7229POPC   C1B50839  25.818  42.447   6.450
 7229POPC   C2B50840  25.849  42.457   6.750
 7229POPC   C3B50841  25.805  42.534   7.050
 7229POPC   C4B50842  25.888  42.544   7.350
 7230POPC   NC350843   5.887   1.173   5.550
 7230POPC   PO450844   5.841   1.202   5.850
 7230POPC   GL150845   5.880   1.217   6.150
 7230POPC   GL250846   5.889   1.378   6.150
 7230POPC   C1A50847   5.867   1.167   6.450
 7230POPC   D2A50848   5.850   1.199   6.750
 7230POPC   C3A50849   5.898   1.183   7.050
 7230POPC   C4A50850   5.897   1.175   7.350
 7230POPC   C1B50851   5.949   1.405   6.450
 7230POPC   C2B50852   5.969   1.429   6.750
 7230POPC   C3B50853   5.933   1.463   7.050
 7230POPC   C4B50854   5.930   1.414   7.350
 7231POPC   NC350855  43.134   2.770   5.550
 7231POPC   PO450856  43.061   2.797   5.850
 7231POPC   GL150857  43.139   2.735   6.150
 7231POPC   GL250858  43.220   2.743   6.150
 7231POPC   C1A50859  43.094   2.755   6.450
 7231POPC   D2A50860  43.084   2.755   6.750
 7231POPC   C3A50861  43.089   2.764   7.050
 7231POPC   C4A50862  43.115   2.813   7.350
 7231POPC   C1B50863  43.318   2.757   6.450
 7231POPC   C2B50864  43.332   2.741   6.750
 7231POPC   C3B50865  43.319   2.708   7.050
 7231POPC   C4B50866  43.352   2.754   7.350
 7232POPC   NC350867   1.177  10.475   5.550
 7232POPC   PO450868   1.190  10.539   5.850
 7232POPC   GL150869   1.223  10.559   6.150
 7232POPC   GL250870   1.138  10.452   6.150
 7232POPC   C1A50871   1.212  10.477   6.450
 7232POPC   D2A50872   1.173  10.535   6.750
 7232POPC   C3A50873   1.220  10.536   7.050
 7232POPC   C4A50874   1.187  10.573   7.350
 7232POPC   C1B50875   1.098  10.267   6.450
 7232POPC   C2B50876   1.104  10.315   6.750
 7232POPC   C3B50877   1.078  10.302   7.050
 7232POPC   C4B50878   1.068  10.324   7.350
 7233POPC   NC350879  16.741   3.565   5.550
 7233POPC   PO450880  16.772   3.493   5.850
 7233POPC   GL150881  16.697   3.547   6.150
 7233POPC   GL250882  16.878   3.521   6.150
 7233POPC   C1A50883  16.743   3.523   6.450
 7233POPC   D2A50884  16.760   3.525   6.750
 7233POPC   C3A50885  16.748   3.522   7.050
 7233POPC   C4A50886  16.708   3.579   7.350
 7233POPC   C1B50887  16.970   3.406   6.450
 7233POPC   C2B50888  16.903   3.441   6.750
 7233POPC   C3B50889  16.935   3.433   7.050
 7233POPC   C4B50890  16.960   3.367   7.350
 7234POPC   NC350891  37.661  17.485   5.550
 7234POPC   PO450892  37.660  17.476   5.850
 7234POPC   GL150893  37.632  17.497   6.150
 7234POPC   GL250894  37.572  17.423   6.150
 7234POPC   C1A50895  37.727  17.497   6.450
 7234POPC   D2A50896  37.665  17.540   6.750
 7234POPC   C3A50897  37.703  17.500   7.050
 7234POPC   C4A50898  37.713  17.522   7.350
 7234POPC   C1B50899  37.490  17.266   6.450
 7234POPC   C2B50900  37.545  17.317   6.750
 7234POPC   C3B50901  37.558  17.356   7.050
 7234POPC   C4B50902  37.546  17.300   7.350
 7235POPC   NC350903  44.698  36.173   5.550
 7235POPC   PO450904  44.701  36.078   5.850
 7235POPC   GL150905  44.628  36.176   6.150
 7235POPC   GL250906  44.534  36.080   6.150
 7235POPC   C1A50907  44.660  36.106   6.450
 7235POPC   D2A50908  44.648  36.099   6.750
 7235POPC   C3A50909  44.639  36.110   7.050
 7235POPC   C4A50910  44.652  36.097   7.350
 7235POPC   C1B50911  44.447  35.993   6.450
 7235POPC   C2B50912  44.497  35.946   6.750
 7235POPC   C3B50913  44.443  35.964   7.050
 7235POPC   C4B50914  44.486  35.950   7.350
 7236POPC   NC350915  18.251  44.641   5.550
 7236POPC   PO450916  18.296  44.668   5.850
 7236POPC   GL150917  18.264  44.666   6.150
 7236POPC   GL250918  18.382  44.580   6.150
 7236POPC   C1A50919  18.298  44.676   6.450
 7236POPC   D2A50920  18.248  44.662   6.750
 7236POPC   C3A50921  18.311  44.698   7.050
 7236POPC   C4A50922  18.251  44.707   7.350
 7236POPC   C1B50923  18.485  44.491   6.450
 7236POPC   C2B50924  18.426  44.427   6.750
 7236POPC   C3B50925  18.433  44.421   7.050
 7236POPC   C4B50926  18.476  44.449   7.350
 7237POPC   NC350927  40.033  29.888   5.550
 7237POPC   PO450928  39.963  29.962   5.850
 7237POPC   GL150929  40.039  29.889   6.150
 7237POPC   GL250930  40.094  29.865   6.150
 7237POPC   C1A50931  39.959  29.929   6.450
 7237POPC   D2A50932  40.019  29.913   6.750
 7237POPC   C3A50933  40.006  29.949   7.050
 7237POPC   C4A50934  39.999  29.946   7.350
 7237POPC   C1B50935  40.133  29.712   6.450
 7237POPC   C2B50936  40.175  29.753   6.750
 7237POPC   C3B50937  40.148  29.680   7.050
 7237POPC   C4B50938  40.157  29.731   7.350
 7238POPC   NC350939   8.201  12.806   5.550
 7238POPC   PO450940   8.186  12.820   5.850
 7238POPC   GL150941   8.196  12.840   6.150
 7238POPC   GL250942   8.206  12.744   6.150
 7238POPC   C1A50943   8.151  12.900   6.450
 7238POPC   D2A50944   8.237  12.857   6.750
 7238POPC   C3A50945   8.149  12.848   7.050
 7238POPC   C4A50946   8.196  12.844   7.350
 7238POPC   C1B50947   8.270  12.633   6.450
 7238POPC   C2B50948   8.241  12.576   6.750
 7238POPC   C3B50949   8.240  12.641   7.050
 7238POPC   C4B50950   8.297  12.598   7.350
 7239POPC   NC350951   2.810   3.497   5.550
 7239POPC   PO450952   2.772   3.503   5.850
 7239POPC   GL150953   2.787   3.528   6.150
 7239POPC   GL250954   2.671   3.683   6.150
 7239POPC   C1A50955   2.813   3.572   6.450
 7239POPC   D2A50956   2.744   3.524   6.750
 7239POPC   C3A50957   2.801   3.524   7.050
 7239POPC   C4A50958   2.795   3.549   7.350
 7239POPC   C1B50959   2.617   3.809   6.450
 7239POPC   C2B50960   2.640   3.814   6.750
 7239POPC   C3B50961   2.679   3.782   7.050
 7239POPC   C4B50962   2.654   3.722   7.350
 7240POPC   NC350963  30.653  36.901   5.550
 7240POPC   PO450964  30.713  36.940   5.850
 7240POPC   GL150965  30.672  36.909   6.150
 7240POPC   GL250966  30.791  36.922   6.150
 7240POPC   C1A50967  30.654  36.894   6.450
 7240POPC   D2A50968  30.725  36.901   6.750
 7240POPC   C3A50969  30.650  36.903   7.050
 7240POPC   C4A50970  30.697  36.883   7.350
 7240POPC   C1B50971  30.964  36.969   6.450
 7240POPC   C2B50972  30.938  36.973   6.750
 7240POPC   C3B50973  30.971  36.949   7.050
 7240POPC   C4B50974  30.975  36.965   7.350
 7241POPC   NC350975  15.131  27.577   5.550
 7241POPC   PO450976  15.200  27.557   5.850
 7241POPC   GL150977  15.130  27.639   6.150
 7241POPC   GL250978  15.225  27.479   6.150
 7241POPC   C1A50979  15.140  27.615   6.450
 7241POPC   D2A50980  15.132  27.549   6.750
 7241POPC   C3A50981  15.210  27.548   7.050
 7241POPC   C4A50982  15.159  27.587   7.350
 7241POPC   C1B50983  15.390  27.382   6.450
 7241POPC   C2B50984  15.372  27.413   6.750
 7241POPC   C3B50985  15.387  27.373   7.050
 7241POPC   C4B50986  15.312  27.378   7.350
 7242POPC   NC350987  36.944   1.980   5.550
 7242POPC   PO450988  36.870   1.960   5.850
 7242POPC   GL150989  36.874   1.958   6.150
 7242POPC   GL250990  36.812   2.008   6.150
 7242POPC   C1A50991  36.952   1.985   6.450
 7242POPC   D2A50992  36.949   1.992   6.750
 7242POPC   C3A50993  36.938   1.945   7.050
 7242POPC   C4A50994  36.889   1.990   7.350
 7242POPC   C1B50995  36.683   2.096   6.450
 7242POPC   C2B50996  36.652   2.112   6.750
 7242POPC   C3B50997  36.703   2.073   7.050
 7242POPC   C4B50998  36.728   2.167   7.350
 7243POPC   NC350999  37.701  18.239   5.550
 7243POPC   PO451000  37.630  18.323   5.850
 7243POPC   GL151001  37.726  18.242   6.150
 7243POPC   GL251002  37.602  18.379   6.150
 7243POPC   C1A51003  37.727  18.261   6.450
 7243POPC   D2A51004  37.695  18.278   6.750
 7243POPC   C3A51005  37.713  18.327   7.050
 7243POPC   C4A51006  37.632  18.286   7.350
 7243POPC   C1B51007  37.558  18.565   6.450
 7243POPC   C2B51008  37.582  18.489   6.750
 7243POPC   C3B51009  37.558  18.509   7.050
 7243POPC   C4B51010  37.591  18.480   7.350
 7244POPC   NC351011  36.167  21.360   5.550
 7244POPC   PO451012  36.140  21.405   5.850
 7244POPC   GL151013  36.142  21.343   6.150
 7244POPC   GL251014  36.018  21.484   6.150
 7244POPC   C1A51015  36.102  21.348   6.450
 7244POPC   D2A51016  36.173  21.421   6.750
 7244POPC   C3A51017  36.175  21.434   7.050
 7244POPC   C4A51018  36.123  21.432   7.350
 7244POPC   C1B51019  35.881  21.475   6.450
 7244POPC   C2B51020  35.913  21.534   6.750
 7244POPC   C3B51021  35.956  21.508   7.050
 7244POPC   C4B51022  35.946  21.518   7.350
 7245POPC   NC351023  24.475  36.948   5.550
 7245POPC   PO451024  24.499  36.885   5.850
 7245POPC   GL151025  24.532  36.950   6.150
 7245POPC   GL251026  24.370  36.832   6.150
 7245POPC   C1A51027  24.509  36.910   6.450
 7245POPC   D2A51028  24.501  36.933   6.750
 7245POPC   C3A51029  24.518  36.889   7.050
 7245POPC   C4A51030  24.447  36.941   7.350
 7245POPC   C1B51031  24.198  36.817   6.450
 7245POPC   C2B51032  24.292  36.880   6.750
 7245POPC   C3B51033  24.215  36.865   7.050
 7245POPC   C4B51034  24.267  36.804   7.350
 7246POPC   NC351035  41.520   1.173   5.550
 7246POPC   PO451036  41.531   1.243   5.850
 7246POPC   GL151037  41.517   1.238   6.150
 7246POPC   GL251038  41.691   1.205   6.150
 7246POPC   C1A51039  41.570   1.234   6.450
 7246POPC   D2A51040  41.516   1.263   6.750
 7246POPC   C3A51041  41.587   1.249   7.050
 7246POPC   C4A51042  41.565   1.169   7.350
 7246POPC   C1B51043  41.800   1.241   6.450
 7246POPC   C2B51044  41.804   1.247   6.750
 7246POPC   C3B51045  41.849   1.276   7.050
 7246POPC   C4B51046  41.823   1.230   7.350
 7247POPC   NC351047  39.213  19.061   5.550
 7247POPC   PO451048  39.223  19.070   5.850
 7247POPC   GL151049  39.235  19.057   6.150
 7247POPC   GL251050  39.333  19.020   6.150
 7247POPC   C1A51051  39.258  19.096   6.450
 7247POPC   D2A51052  39.249  19.066   6.750
 7247POPC   C3A51053  39.280  19.027   7.050
 7247POPC   C4A51054  39.215  19.078   7.350
 7247POPC   C1B51055  39.513  18.955   6.450
 7247POPC   C2B51056  39.462  18.999   6.750
 7247POPC   C3B51057  39.494  19.021   7.050
 7247POPC   C4B51058  39.439  18.945   7.350
 7248POPC   NC351059   3.586  17.556   5.550
 7248POPC   PO451060   3.537  17.493   5.850
 7248POPC   GL151061   3.539  17.475   6.150
 7248POPC   GL251062   3.644  17.555   6.150
 7248POPC   C1A51063   3.547  17.512   6.450
 7248POPC   D2A51064   3.498  17.485   6.750
 7248POPC   C3A51065   3.498  17.466   7.050
 7248POPC   C4A51066   3.492  17.478   7.350
 7248POPC   C1B51067   3.752  17.693   6.450
 7248POPC   C2B51068   3.775  17.617   6.750
 7248POPC   C3B51069   3.720  17.651   7.050
 7248POPC   C4B51070   3.771  17.625   7.350
 7249POPC   NC351071  30.675  11.270   5.550
 7249POPC   PO451072  30.710  11.347   5.850
 7249POPC   GL151073  30.647  11.350   6.150
 7249POPC   GL251074  30.623  11.406   6.150
 7249POPC   C1A51075  30.726  11.259   6.450
 7249POPC   D2A51076  30.650  11.316   6.750
 7249POPC   C3A51077  30.718  11.262   7.050
 7249POPC   C4A51078  30.648  11.257   7.350
 7249POPC   C1B51079  30.561  11.523   6.450
 7249POPC   C2B51080  30.602  11.535   6.750
 7249POPC   C3B51081  30.562  11.534   7.050
 7249POPC   C4B51082  30.623  11.560   7.350
 7250POPC   NC351083  30.701  33.763   5.550
 7250POPC   PO451084  30.738  33.781   5.850
 7250POPC   GL151085  30.721  33.847   6.150
 7250POPC   GL251086  30.743  33.935   6.150
 7250POPC   C1A51087  30.711  33.839   6.450
 7250POPC   D2A51088  30.662  33.784   6.750
 7250POPC   C3A51089  30.743  33.787   7.050
 7250POPC   C4A51090  30.661  33.803   7.350
 7250POPC   C1B51091  30.786  34.041   6.450
 7250POPC   C2B51092  30.806  34.027   6.750
 7250POPC   C3B51093  30.839  34.023   7.050
 7250POPC   C4B51094  30.806  34.063   7.350
 7251POPC   NC351095   8.147  42.375   5.550
 7251POPC   PO451096   8.232  42.364   5.850
 7251POPC   GL151097   8.152  42.286   6.150
 7251POPC   GL251098   8.117  42.224   6.150
 7251POPC   C1A51099   8.199  42.317   6.450
 7251POPC   D2A51100   8.231  42.372   6.750
 7251POPC   C3A51101   8.169  42.338   7.050
 7251POPC   C4A51102   8.243  42.368   7.350
 7251POPC   C1B51103   8.124  42.096   6.450
 7251POPC   C2B51104   8.108  42.133   6.750
 7251POPC   C3B51105   8.119  42.109   7.050
 7251POPC   C4B51106   8.114  42.124   7.350
 7252POPC   NC351107   3.549  27.594   5.550
 7252POPC   PO451108   3.494  27.612   5.850
 7252POPC   GL151109   3.552  27.552   6.150
 7252POPC   GL251110   3.517  27.455   6.150
 7252POPC   C1A51111   3.572  27.551   6.450
 7252POPC   D2A51112   3.510  27.576   6.750
 7252POPC   C3A51113   3.533  27.638   7.050
 7252POPC   C4A51114   3.504  27.574   7.350
 7252POPC   C1B51115   3.458  27.392   6.450
 7252POPC   C2B51116   3.420  27.353   6.750
 7252POPC   C3B51117   3.415  27.386   7.050
 7252POPC   C4B51118   3.386  27.410   7.350
 7253POPC   NC351119  15.908  33.758   5.550
 7253POPC   PO451120  15.972  33.794   5.850
 7253POPC   GL151121  15.976  33.778   6.150
 7253POPC   GL251122  16.063  33.921   6.150
 7253POPC   C1A51123  15.909  33.774   6.450
 7253POPC   D2A51124  15.971  33.807   6.750
 7253POPC   C3A51125  15.959  33.815   7.050
 7253POPC   C4A51126  16.003  33.815   7.350
 7253POPC   C1B51127  16.175  33.940   6.450
 7253POPC   C2B51128  16.157  33.999   6.750
 7253POPC   C3B51129  16.119  33.965   7.050
 7253POPC   C4B51130  16.175  33.946   7.350
 7254POPC   NC351131  17.502  40.780   5.550
 7254POPC   PO451132  17.552  40.797   5.850
 7254POPC   GL151133  17.494  40.750   6.150
 7254POPC   GL251134  17.603  40.740   6.150
 7254POPC   C1A51135  17.550  40.800   6.450
 7254POPC   D2A51136  17.488  40.781   6.750
 7254POPC   C3A51137  17.472  40.742   7.050
 7254POPC   C4A51138  17.517  40.756   7.350
 7254POPC   C1B51139  17.670  40.570   6.450
 7254POPC   C2B51140  17.672  40.567   6.750
 7254POPC   C3B51141  17.658  40.610   7.050
 7254POPC   C4B51142  17.676  40.580   7.350
 7255POPC   NC351143  23.696  18.257   5.550
 7255POPC   PO451144  23.681  18.297   5.850
 7255POPC   GL151145  23.753  18.308   6.150
 7255POPC   GL251146  23.857  18.234   6.150
 7255POPC   C1A51147  23.743  18.293   6.450
 7255POPC   D2A51148  23.704  18.240   6.750
 7255POPC   C3A51149  23.703  18.288   7.050
 7255POPC   C4A51150  23.692  18.304   7.350
 7255POPC   C1B51151  23.943  18.290   6.450
 7255POPC   C2B51152  23.979  18.272   6.750
 7255POPC   C3B51153  23.945  18.313   7.050
 7255POPC   C4B51154  23.994  18.251   7.350
 7256POPC   NC351155  32.990  41.572   5.550
 7256POPC   PO451156  33.062  41.600   5.850
 7256POPC   GL151157  32.991  41.570   6.150
 7256POPC   GL251158  33.155  41.517   6.150
 7256POPC   C1A51159  33.056  41.577   6.450
 7256POPC   D2A51160  32.996  41.586   6.750
 7256POPC   C3A51161  33.059  41.574   7.050
 7256POPC   C4A51162  33.009  41.536   7.350
 7256POPC   C1B51163  33.262  41.505   6.450
 7256POPC   C2B51164  33.305  41.506   6.750
 7256POPC   C3B51165  33.233  41.489   7.050
 7256POPC   C4B51166  33.229  41.529   7.350
 7257POPC   NC351167  15.934   0.482   5.550
 7257POPC   PO451168  15.966   0.441   5.850
 7257POPC   GL151169  15.919   0.447   6.150
 7257POPC   GL251170  16.080   0.483   6.150
 7257POPC   C1A51171  15.905   0.389   6.450
 7257POPC   D2A51172  15.971   0.415   6.750
 7257POPC   C3A51173  15.957   0.443   7.050
 7257POPC   C4A51174  15.972   0.408   7.350
 7257POPC   C1B51175  16.223   0.480   6.450
 7257POPC   C2B51176  16.151   0.468   6.750
 7257POPC   C3B51177  16.163   0.481   7.050
 7257POPC   C4B51178  16.167   0.513   7.350
 7258POPC   NC351179  40.796   3.582   5.550
 7258POPC   PO451180  40.779   3.505   5.850
 7258POPC   GL151181  40.759   3.563   6.150
 7258POPC   GL251182  40.870   3.543   6.150
 7258POPC   C1A51183  40.820   3.568   6.450
 7258POPC   D2A51184  40.737   3.568   6.750
 7258POPC   C3A51185  40.752   3.533   7.050
 7258POPC   C4A51186  40.771   3.548   7.350
 7258POPC   C1B51187  41.032   3.465   6.450
 7258POPC   C2B51188  41.006   3.408   6.750
 7258POPC   C3B51189  41.027   3.454   7.050
 7258POPC   C4B51190  41.001   3.426   7.350
 7259POPC   NC351191  19.102  36.083   5.550
 7259POPC   PO451192  19.057  36.147   5.850
 7259POPC   GL151193  19.017  36.130   6.150
 7259POPC   GL251194  18.931  36.082   6.150
 7259POPC   C1A51195  19.101  36.162   6.450
 7259POPC   D2A51196  19.026  36.098   6.750
 7259POPC   C3A51197  19.086  36.176   7.050
 7259POPC   C4A51198  19.073  36.095   7.350
 7259POPC   C1B51199  18.875  35.971   6.450
 7259POPC   C2B51200  18.868  35.945   6.750
 7259POPC   C3B51201  18.913  35.994   7.050
 7259POPC   C4B51202  18.856  35.919   7.350
 7260POPC   NC351203  33.847   8.961   5.550
 7260POPC   PO451204  33.764   9.020   5.850
 7260POPC   GL151205  33.751   8.984   6.150
 7260POPC   GL251206  33.723   8.897   6.150
 7260POPC   C1A51207  33.845   8.951   6.450
 7260POPC   D2A51208  33.781   8.994   6.750
 7260POPC   C3A51209  33.833   9.007   7.050
 7260POPC   C4A51210  33.800   8.992   7.350
 7260POPC   C1B51211  33.627   8.816   6.450
 7260POPC   C2B51212  33.619   8.759   6.750
 7260POPC   C3B51213  33.646   8.814   7.050
 7260POPC   C4B51214  33.635   8.769   7.350
 7261POPC   NC351215  18.310  39.243   5.550
 7261POPC   PO451216  18.300  39.279   5.850
 7261POPC   GL151217  18.299  39.258   6.150
 7261POPC   GL251218  18.184  39.381   6.150
 7261POPC   C1A51219  18.259  39.247   6.450
 7261POPC   D2A51220  18.324  39.267   6.750
 7261POPC   C3A51221  18.299  39.181   7.050
 7261POPC   C4A51222  18.291  39.236   7.350
 7261POPC   C1B51223  18.181  39.448   6.450
 7261POPC   C2B51224  18.115  39.483   6.750
 7261POPC   C3B51225  18.186  39.407   7.050
 7261POPC   C4B51226  18.184  39.458   7.350
 7262POPC   NC351227  15.140  43.910   5.550
 7262POPC   PO451228  15.176  43.888   5.850
 7262POPC   GL151229  15.197  43.857   6.150
 7262POPC   GL251230  15.323  43.882   6.150
 7262POPC   C1A51231  15.200  43.901   6.450
 7262POPC   D2A51232  15.170  43.912   6.750
 7262POPC   C3A51233  15.186  43.888   7.050
 7262POPC   C4A51234  15.146  43.924   7.350
 7262POPC   C1B51235  15.406  43.914   6.450
 7262POPC   C2B51236  15.387  43.949   6.750
 7262POPC   C3B51237  15.469  43.962   7.050
 7262POPC   C4B51238  15.470  43.925   7.350
 7263POPC   NC351239  26.834  29.885   5.550
 7263POPC   PO451240  26.803  29.919   5.850
 7263POPC   GL151241  26.863  29.906   6.150
 7263POPC   GL251242  26.718  30.024   6.150
 7263POPC   C1A51243  26.794  29.928   6.450
 7263POPC   D2A51244  26.768  29.938   6.750
 7263POPC   C3A51245  26.844  29.943   7.050
 7263POPC   C4A51246  26.839  29.878   7.350
 7263POPC   C1B51247  26.689  30.090   6.450
 7263POPC   C2B51248  26.665  30.128   6.750
 7263POPC   C3B51249  26.649  30.109   7.050
 7263POPC   C4B51250  26.674  30.083   7.350
 7264POPC   NC351251  38.418  29.912   5.550
 7264POPC   PO451252  38.436  29.961   5.850
 7264POPC   GL151253  38.470  29.877   6.150
 7264POPC   GL251254  38.552  29.968   6.150
 7264POPC   C1A51255  38.499  29.927   6.450
 7264POPC   D2A51256  38.422  29.943   6.750
 7264POPC   C3A51257  38.407  29.912   7.050
 7264POPC   C4A51258  38.435  29.915   7.350
 7264POPC   C1B51259  38.672  30.061   6.450
 7264POPC   C2B51260  38.606  30.056   6.750
 7264POPC   C3B51261  38.644  30.115   7.050
 7264POPC   C4B51262  38.635  30.074   7.350
 7265POPC   NC351263  39.272  18.248   5.550
 7265POPC   PO451264  39.216  18.323   5.850
 7265POPC   GL151265  39.243  18.290   6.150
 7265POPC   GL251266  39.321  18.419   6.150
 7265POPC   C1A51267  39.239  18.246   6.450
 7265POPC   D2A51268  39.225  18.251   6.750
 7265POPC   C3A51269  39.268  18.302   7.050
 7265POPC   C4A51270  39.257  18.260   7.350
 7265POPC   C1B51271  39.369  18.453   6.450
 7265POPC   C2B51272  39.395  18.432   6.750
 7265POPC   C3B51273  39.411  18.503   7.050
 7265POPC   C4B51274  39.392  18.447   7.350
 7266POPC   NC351275  30.743  43.935   5.550
 7266POPC   PO451276  30.715  43.838   5.850
 7266POPC   GL151277  30.708  43.893   6.150
 7266POPC   GL251278  30.645  43.987   6.150
 7266POPC   C1A51279  30.676  43.915   6.450
 7266POPC   D2A51280  30.698  43.868   6.750
 7266POPC   C3A51281  30.729  43.859   7.050
 7266POPC   C4A51282  30.713  43.907   7.350
 7266POPC   C1B51283  30.571  44.101   6.450
 7266POPC   C2B51284  30.591  44.062   6.750
 7266POPC   C3B51285  30.629  44.114   7.050
 7266POPC   C4B51286  30.541  44.144   7.350
 7267POPC   NC351287  22.923  19.881   5.550
 7267POPC   PO451288  22.977  19.825   5.850
 7267POPC   GL151289  22.922  19.814   6.150
 7267POPC   GL251290  22.856  19.954   6.150
 7267POPC   C1A51291  22.911  19.825   6.450
 7267POPC   D2A51292  22.925  19.854   6.750
 7267POPC   C3A51293  22.909  19.858   7.050
 7267POPC   C4A51294  22.943  19.852   7.350
 7267POPC   C1B51295  22.773  20.003   6.450
 7267POPC   C2B51296  22.749  19.979   6.750
 7267POPC   C3B51297  22.743  20.007   7.050
 7267POPC   C4B51298  22.761  20.037   7.350
 7268POPC   NC351299  34.528  15.946   5.550
 7268POPC   PO451300  34.607  15.952   5.850
 7268POPC   GL151301  34.599  15.908   6.150
 7268POPC   GL251302  34.464  16.002   6.150
 7268POPC   C1A51303  34.599  15.923   6.450
 7268POPC   D2A51304  34.604  15.927   6.750
 7268POPC   C3A51305  34.587  15.929   7.050
 7268POPC   C4A51306  34.537  15.973   7.350
 7268POPC   C1B51307  34.383  16.126   6.450
 7268POPC   C2B51308  34.378  16.093   6.750
 7268POPC   C3B51309  34.349  16.135   7.050
 7268POPC   C4B51310  34.440  16.131   7.350
 7269POPC   NC351311  26.810  12.852   5.550
 7269POPC   PO451312  26.859  12.882   5.850
 7269POPC   GL151313  26.797  12.815   6.150
 7269POPC   GL251314  26.893  12.903   6.150
 7269POPC   C1A51315  26.820  12.846   6.450
 7269POPC   D2A51316  26.775  12.886   6.750
 7269POPC   C3A51317  26.849  12.859   7.050
 7269POPC   C4A51318  26.847  12.896   7.350
 7269POPC   C1B51319  26.986  12.944   6.450
 7269POPC   C2B51320  27.028  12.971   6.750
 7269POPC   C3B51321  26.986  13.042   7.050
 7269POPC   C4B51322  27.056  12.989   7.350
 7270POPC   NC351323  33.043  36.116   5.550
 7270POPC   PO451324  33.057  36.162   5.850
 7270POPC   GL151325  33.015  36.152   6.150
 7270POPC   GL251326  32.976  36.293   6.150
 7270POPC   C1A51327  33.059  36.091   6.450
 7270POPC   D2A51328  33.035  36.115   6.750
 7270POPC   C3A51329  33.073  36.146   7.050
 7270POPC   C4A51330  32.992  36.115   7.350
 7270POPC   C1B51331  33.001  36.418   6.450
 7270POPC   C2B51332  33.048  36.377   6.750
 7270POPC   C3B51333  32.993  36.416   7.050
 7270POPC   C4B51334  33.002  36.355   7.350
 7271POPC   NC351335  40.032  19.877   5.550
 7271POPC   PO451336  40.041  19.826   5.850
 7271POPC   GL151337  39.994  19.862   6.150
 7271POPC   GL251338  39.986  19.913   6.150
 7271POPC   C1A51339  39.968  19.833   6.450
 7271POPC   D2A51340  39.964  19.785   6.750
 7271POPC   C3A51341  40.049  19.825   7.050
 7271POPC   C4A51342  40.023  19.882   7.350
 7271POPC   C1B51343  40.034  20.073   6.450
 7271POPC   C2B51344  40.004  20.046   6.750
 7271POPC   C3B51345  40.049  20.099   7.050
 7271POPC   C4B51346  40.007  20.066   7.350
 7272POPC   NC351347  21.365  11.332   5.550
 7272POPC   PO451348  21.403  11.291   5.850
 7272POPC   GL151349  21.432  11.324   6.150
 7272POPC   GL251350  21.276  11.199   6.150
 7272POPC   C1A51351  21.389  11.350   6.450
 7272POPC   D2A51352  21.387  11.344   6.750
 7272POPC   C3A51353  21.355  11.342   7.050
 7272POPC   C4A51354  21.343  11.255   7.350
 7272POPC   C1B51355  21.233  11.129   6.450
 7272POPC   C2B51356  21.233  11.168   6.750
 7272POPC   C3B51357  21.144  11.170   7.050
 7272POPC   C4B51358  21.158  11.181   7.350
 7273POPC   NC351359  20.603   3.538   5.550
 7273POPC   PO451360  20.642   3.554   5.850
 7273POPC   GL151361  20.572   3.528   6.150
 7273POPC   GL251362  20.534   3.435   6.150
 7273POPC   C1A51363  20.624   3.548   6.450
 7273POPC   D2A51364  20.574   3.497   6.750
 7273POPC   C3A51365  20.562   3.498   7.050
 7273POPC   C4A51366  20.607   3.556   7.350
 7273POPC   C1B51367  20.402   3.334   6.450
 7273POPC   C2B51368  20.412   3.363   6.750
 7273POPC   C3B51369  20.391   3.365   7.050
 7273POPC   C4B51370  20.443   3.398   7.350
 7274POPC   NC351371  35.338  12.823   5.550
 7274POPC   PO451372  35.333  12.812   5.850
 7274POPC   GL151373  35.348  12.857   6.150
 7274POPC   GL251374  35.265  12.860   6.150
 7274POPC   C1A51375  35.397  12.833   6.450
 7274POPC   D2A51376  35.360  12.870   6.750
 7274POPC   C3A51377  35.392  12.834   7.050
 7274POPC   C4A51378  35.362  12.842   7.350
 7274POPC   C1B51379  35.061  12.794   6.450
 7274POPC   C2B51380  35.145  12.806   6.750
 7274POPC   C3B51381  35.137  12.851   7.050
 7274POPC   C4B51382  35.144  12.853   7.350
 7275POPC   NC351383   7.466  40.754   5.550
 7275POPC   PO451384   7.398  40.832   5.850
 7275POPC   GL151385   7.433  40.815   6.150
 7275POPC   GL251386   7.529  40.815   6.150
 7275POPC   C1A51387   7.425  40.792   6.450
 7275POPC   D2A51388   7.448  40.737   6.750
 7275POPC   C3A51389   7.454  40.798   7.050
 7275POPC   C4A51390   7.456  40.791   7.350
 7275POPC   C1B51391   7.674  40.837   6.450
 7275POPC   C2B51392   7.642  40.839   6.750
 7275POPC   C3B51393   7.663  40.828   7.050
 7275POPC   C4B51394   7.688  40.917   7.350
 7276POPC   NC351395  35.320  43.157   5.550
 7276POPC   PO451396  35.309  43.141   5.850
 7276POPC   GL151397  35.318  43.120   6.150
 7276POPC   GL251398  35.415  43.177   6.150
 7276POPC   C1A51399  35.338  43.154   6.450
 7276POPC   D2A51400  35.363  43.160   6.750
 7276POPC   C3A51401  35.383  43.077   7.050
 7276POPC   C4A51402  35.315  43.143   7.350
 7276POPC   C1B51403  35.527  43.219   6.450
 7276POPC   C2B51404  35.617  43.203   6.750
 7276POPC   C3B51405  35.625  43.220   7.050
 7276POPC   C4B51406  35.614  43.181   7.350
 7277POPC   NC351407  38.495  36.119   5.550
 7277POPC   PO451408  38.487  36.127   5.850
 7277POPC   GL151409  38.452  36.143   6.150
 7277POPC   GL251410  38.354  36.217   6.150
 7277POPC   C1A51411  38.426  36.117   6.450
 7277POPC   D2A51412  38.497  36.145   6.750
 7277POPC   C3A51413  38.441  36.119   7.050
 7277POPC   C4A51414  38.499  36.125   7.350
 7277POPC   C1B51415  38.266  36.303   6.450
 7277POPC   C2B51416  38.338  36.352   6.750
 7277POPC   C3B51417  38.254  36.302   7.050
 7277POPC   C4B51418  38.337  36.280   7.350
 7278POPC   NC351419   3.544  41.568   5.550
 7278POPC   PO451420   3.539  41.598   5.850
 7278POPC   GL151421   3.572  41.571   6.150
 7278POPC   GL251422   3.453  41.667   6.150
 7278POPC   C1A51423   3.500  41.578   6.450
 7278POPC   D2A51424   3.582  41.606   6.750
 7278POPC   C3A51425   3.580  41.514   7.050
 7278POPC   C4A51426   3.545  41.587   7.350
 7278POPC   C1B51427   3.396  41.739   6.450
 7278POPC   C2B51428   3.366  41.806   6.750
 7278POPC   C3B51429   3.439  41.761   7.050
 7278POPC   C4B51430   3.411  41.757   7.350
 7279POPC   NC351431  12.069   3.515   5.550
 7279POPC   PO451432  12.027   3.519   5.850
 7279POPC   GL151433  12.090   3.581   6.150
 7279POPC   GL251434  12.169   3.590   6.150
 7279POPC   C1A51435  12.041   3.584   6.450
 7279POPC   D2A51436  12.028   3.539   6.750
 7279POPC   C3A51437  12.103   3.581   7.050
 7279POPC   C4A51438  12.060   3.529   7.350
 7279POPC   C1B51439  12.357   3.656   6.450
 7279POPC   C2B51440  12.320   3.658   6.750
 7279POPC   C3B51441  12.347   3.597   7.050
 7279POPC   C4B51442  12.344   3.647   7.350
 7280POPC   NC351443  33.784  13.637   5.550
 7280POPC   PO451444  33.777  13.598   5.850
 7280POPC   GL151445  33.824  13.623   6.150
 7280POPC   GL251446  33.745  13.482   6.150
 7280POPC   C1A51447  33.781  13.649   6.450
 7280POPC   D2A51448  33.756  13.615   6.750
 7280POPC   C3A51449  33.809  13.615   7.050
 7280POPC   C4A51450  33.831  13.599   7.350
 7280POPC   C1B51451  33.719  13.436   6.450
 7280POPC   C2B51452  33.686  13.409   6.750
 7280POPC   C3B51453  33.716  13.369   7.050
 7280POPC   C4B51454  33.739  13.409   7.350
 7281POPC   NC351455  33.751  21.377   5.550
 7281POPC   PO451456  33.837  21.355   5.850
 7281POPC   GL151457  33.809  21.405   6.150
 7281POPC   GL251458  33.721  21.471   6.150
 7281POPC   C1A51459  33.826  21.347   6.450
 7281POPC   D2A51460  33.822  21.403   6.750
 7281POPC   C3A51461  33.823  21.392   7.050
 7281POPC   C4A51462  33.754  21.410   7.350
 7281POPC   C1B51463  33.579  21.446   6.450
 7281POPC   C2B51464  33.540  21.482   6.750
 7281POPC   C3B51465  33.592  21.483   7.050
 7281POPC   C4B51466  33.604  21.426   7.350
 7282POPC   NC351467  13.637  31.423   5.550
 7282POPC   PO451468  13.653  31.458   5.850
 7282POPC   GL151469  13.628  31.509   6.150
 7282POPC   GL251470  13.592  31.629   6.150
 7282POPC   C1A51471  13.672  31.457   6.450
 7282POPC   D2A51472  13.641  31.465   6.750
 7282POPC   C3A51473  13.656  31.424   7.050
 7282POPC   C4A51474  13.586  31.487   7.350
 7282POPC   C1B51475  13.638  31.717   6.450
 7282POPC   C2B51476  13.638  31.698   6.750
 7282POPC   C3B51477  13.636  31.708   7.050
 7282POPC   C4B51478  13.649  31.739   7.350
 7283POPC   NC351479  27.560   2.797   5.550
 7283POPC   PO451480  27.576   2.762   5.850
 7283POPC   GL151481  27.583   2.762   6.150
 7283POPC   GL251482  27.678   2.859   6.150
 7283POPC   C1A51483  27.557   2.765   6.450
 7283POPC   D2A51484  27.577   2.726   6.750
 7283POPC   C3A51485  27.578   2.769   7.050
 7283POPC   C4A51486  27.584   2.732   7.350
 7283POPC   C1B51487  27.821   2.912   6.450
 7283POPC   C2B51488  27.762   2.950   6.750
 7283POPC   C3B51489  27.826   2.964   7.050
 7283POPC   C4B51490  27.798   2.963   7.350
 7284POPC   NC351491  13.661  20.585   5.550
 7284POPC   PO451492  13.579  20.638   5.850
 7284POPC   GL151493  13.675  20.582   6.150
 7284POPC   GL251494  13.534  20.601   6.150
 7284POPC   C1A51495  13.592  20.656   6.450
 7284POPC   D2A51496  13.666  20.578   6.750
 7284POPC   C3A51497  13.595  20.609   7.050
 7284POPC   C4A51498  13.666  20.659   7.350
 7284POPC   C1B51499  13.390  20.512   6.450
 7284POPC   C2B51500  13.384  20.557   6.750
 7284POPC   C3B51501  13.390  20.511   7.050
 7284POPC   C4B51502  13.380  20.529   7.350
 7285POPC   NC351503   0.468   9.017   5.550
 7285POPC   PO451504   0.472   8.960   5.850
 7285POPC   GL151505   0.429   8.992   6.150
 7285POPC   GL251506   0.569   9.000   6.150
 7285POPC   C1A51507   0.431   8.942   6.450
 7285POPC   D2A51508   0.445   8.986   6.750
 7285POPC   C3A51509   0.452   8.951   7.050
 7285POPC   C4A51510   0.396   8.940   7.350
 7285POPC   C1B51511   0.638   9.076   6.450
 7285POPC   C2B51512   0.642   9.106   6.750
 7285POPC   C3B51513   0.612   9.103   7.050
 7285POPC   C4B51514   0.642   9.120   7.350
 7286POPC   NC351515  40.778  35.401   5.550
 7286POPC   PO451516  40.780  35.323   5.850
 7286POPC   GL151517  40.778  35.361   6.150
 7286POPC   GL251518  40.883  35.305   6.150
 7286POPC   C1A51519  40.742  35.310   6.450
 7286POPC   D2A51520  40.757  35.311   6.750
 7286POPC   C3A51521  40.752  35.363   7.050
 7286POPC   C4A51522  40.791  35.355   7.350
 7286POPC   C1B51523  40.987  35.169   6.450
 7286POPC   C2B51524  40.948  35.173   6.750
 7286POPC   C3B51525  41.018  35.203   7.050
 7286POPC   C4B51526  40.940  35.186   7.350
 7287POPC   NC351527  31.439  38.454   5.550
 7287POPC   PO451528  31.471  38.413   5.850
 7287POPC   GL151529  31.510  38.499   6.150
 7287POPC   GL251530  31.541  38.395   6.150
 7287POPC   C1A51531  31.492  38.410   6.450
 7287POPC   D2A51532  31.519  38.465   6.750
 7287POPC   C3A51533  31.515  38.463   7.050
 7287POPC   C4A51534  31.429  38.428   7.350
 7287POPC   C1B51535  31.621  38.226   6.450
 7287POPC   C2B51536  31.595  38.228   6.750
 7287POPC   C3B51537  31.658  38.304   7.050
 7287POPC   C4B51538  31.600  38.261   7.350
 7288POPC   NC351539  39.200  33.801   5.550
 7288POPC   PO451540  39.185  33.769   5.850
 7288POPC   GL151541  39.186  33.793   6.150
 7288POPC   GL251542  39.246  33.927   6.150
 7288POPC   C1A51543  39.261  33.823   6.450
 7288POPC   D2A51544  39.210  33.845   6.750
 7288POPC   C3A51545  39.220  33.842   7.050
 7288POPC   C4A51546  39.183  33.784   7.350
 7288POPC   C1B51547  39.307  34.004   6.450
 7288POPC   C2B51548  39.359  34.020   6.750
 7288POPC   C3B51549  39.299  34.053   7.050
 7288POPC   C4B51550  39.312  33.983   7.350
 7289POPC   NC351551  33.774   9.757   5.550
 7289POPC   PO451552  33.819   9.702   5.850
 7289POPC   GL151553  33.841   9.713   6.150
 7289POPC   GL251554  33.698   9.803   6.150
 7289POPC   C1A51555  33.800   9.709   6.450
 7289POPC   D2A51556  33.755   9.767   6.750
 7289POPC   C3A51557  33.805   9.786   7.050
 7289POPC   C4A51558  33.782   9.782   7.350
 7289POPC   C1B51559  33.585   9.772   6.450
 7289POPC   C2B51560  33.549   9.822   6.750
 7289POPC   C3B51561  33.519   9.757   7.050
 7289POPC   C4B51562  33.546   9.752   7.350
 7290POPC   NC351563  12.804  33.048   5.550
 7290POPC   PO451564  12.823  33.039   5.850
 7290POPC   GL151565  12.874  33.062   6.150
 7290POPC   GL251566  12.730  32.988   6.150
 7290POPC   C1A51567  12.819  32.977   6.450
 7290POPC   D2A51568  12.900  33.025   6.750
 7290POPC   C3A51569  12.821  33.053   7.050
 7290POPC   C4A51570  12.890  33.059   7.350
 7290POPC   C1B51571  12.687  32.814   6.450
 7290POPC   C2B51572  12.713  32.835   6.750
 7290POPC   C3B51573  12.618  32.856   7.050
 7290POPC   C4B51574  12.709  32.890   7.350
 7291POPC   NC351575  44.652   1.940   5.550
 7291POPC   PO451576  44.641   1.996   5.850
 7291POPC   GL151577  44.699   1.952   6.150
 7291POPC   GL251578  44.594   2.150   6.150
 7291POPC   C1A51579  44.629   2.025   6.450
 7291POPC   D2A51580  44.704   1.947   6.750
 7291POPC   C3A51581  44.711   2.031   7.050
 7291POPC   C4A51582  44.628   1.979   7.350
 7291POPC   C1B51583  44.612   2.254   6.450
 7291POPC   C2B51584  44.671   2.275   6.750
 7291POPC   C3B51585  44.576   2.205   7.050
 7291POPC   C4B51586  44.660   2.266   7.350
 7292POPC   NC351587  19.099  35.361   5.550
 7292POPC   PO451588  19.023  35.340   5.850
 7292POPC   GL151589  19.055  35.339   6.150
 7292POPC   GL251590  19.126  35.425   6.150
 7292POPC   C1A51591  19.029  35.382   6.450
 7292POPC   D2A51592  19.014  35.402   6.750
 7292POPC   C3A51593  19.101  35.327   7.050
 7292POPC   C4A51594  19.047  35.316   7.350
 7292POPC   C1B51595  19.244  35.489   6.450
 7292POPC   C2B51596  19.184  35.490   6.750
 7292POPC   C3B51597  19.266  35.490   7.050
 7292POPC   C4B51598  19.201  35.497   7.350
 7293POPC   NC351599   5.860  16.733   5.550
 7293POPC   PO451600   5.874  16.759   5.850
 7293POPC   GL151601   5.846  16.745   6.150
 7293POPC   GL251602   5.907  16.825   6.150
 7293POPC   C1A51603   5.825  16.774   6.450
 7293POPC   D2A51604   5.902  16.765   6.750
 7293POPC   C3A51605   5.878  16.731   7.050
 7293POPC   C4A51606   5.870  16.756   7.350
 7293POPC   C1B51607   5.924  16.940   6.450
 7293POPC   C2B51608   5.947  17.004   6.750
 7293POPC   C3B51609   5.892  16.974   7.050
 7293POPC   C4B51610   5.943  16.998   7.350
 7294POPC   NC351611  32.224   1.985   5.550
 7294POPC   PO451612  32.243   2.021   5.850
 7294POPC   GL151613  32.291   1.974   6.150
 7294POPC   GL251614  32.081   2.057   6.150
 7294POPC   C1A51615  32.282   1.996   6.450
 7294POPC   D2A51616  32.239   2.022   6.750
 7294POPC   C3A51617  32.298   1.967   7.050
 7294POPC   C4A51618  32.255   1.983   7.350
 7294POPC   C1B51619  32.020   2.030   6.450
 7294POPC   C2B51620  31.976   2.036   6.750
 7294POPC   C3B51621  31.995   2.013   7.050
 7294POPC   C4B51622  31.987   2.072   7.350
 7295POPC   NC351623  25.243  22.120   5.550
 7295POPC   PO451624  25.283  22.163   5.850
 7295POPC   GL151625  25.261  22.191   6.150
 7295POPC   GL251626  25.192  22.227   6.150
 7295POPC   C1A51627  25.261  22.179   6.450
 7295POPC   D2A51628  25.216  22.208   6.750
 7295POPC   C3A51629  25.257  22.152   7.050
 7295POPC   C4A51630  25.300  22.161   7.350
 7295POPC   C1B51631  25.064  22.341   6.450
 7295POPC   C2B51632  25.076  22.330   6.750
 7295POPC   C3B51633  25.033  22.297   7.050
 7295POPC   C4B51634  25.033  22.255   7.350
 7296POPC   NC351635  44.685  37.661   5.550
 7296POPC   PO451636  44.688  37.714   5.850
 7296POPC   GL151637  44.669  37.630   6.150
 7296POPC   GL251638  44.751  37.594   6.150
 7296POPC   C1A51639  44.618  37.636   6.450
 7296POPC   D2A51640  44.662  37.726   6.750
 7296POPC   C3A51641  44.645  37.653   7.050
 7296POPC   C4A51642  44.624  37.682   7.350
 7296POPC   C1B51643  44.740  37.504   6.450
 7296POPC   C2B51644  44.745  37.461   6.750
 7296POPC   C3B51645  44.742  37.489   7.050
 7296POPC   C4B51646  44.724  37.431   7.350
 7297POPC   NC351647   5.842  13.652   5.550
 7297POPC   PO451648   5.830  13.633   5.850
 7297POPC   GL151649   5.881  13.638   6.150
 7297POPC   GL251650   5.752  13.656   6.150
 7297POPC   C1A51651   5.831  13.583   6.450
 7297POPC   D2A51652   5.906  13.619   6.750
 7297POPC   C3A51653   5.878  13.587   7.050
 7297POPC   C4A51654   5.914  13.591   7.350
 7297POPC   C1B51655   5.659  13.716   6.450
 7297POPC   C2B51656   5.668  13.688   6.750
 7297POPC   C3B51657   5.592  13.678   7.050
 7297POPC   C4B51658   5.633  13.694   7.350
 7298POPC   NC351659  29.156  38.477   5.550
 7298POPC   PO451660  29.189  38.490   5.850
 7298POPC   GL151661  29.138  38.449   6.150
 7298POPC   GL251662  29.126  38.602   6.150
 7298POPC   C1A51663  29.108  38.441   6.450
 7298POPC   D2A51664  29.160  38.417   6.750
 7298POPC   C3A51665  29.136  38.499   7.050
 7298POPC   C4A51666  29.161  38.432   7.350
 7298POPC   C1B51667  29.114  38.712   6.450
 7298POPC   C2B51668  29.141  38.666   6.750
 7298POPC   C3B51669  29.098  38.720   7.050
 7298POPC   C4B51670  29.162  38.657   7.350
 7299POPC   NC351671  25.236  26.781   5.550
 7299POPC   PO451672  25.294  26.805   5.850
 7299POPC   GL151673  25.269  26.788   6.150
 7299POPC   GL251674  25.373  26.834   6.150
 7299POPC   C1A51675  25.276  26.861   6.450
 7299POPC   D2A51676  25.279  26.785   6.750
 7299POPC   C3A51677  25.265  26.866   7.050
 7299POPC   C4A51678  25.309  26.837   7.350
 7299POPC   C1B51679  25.528  26.832   6.450
 7299POPC   C2B51680  25.511  26.850   6.750
 7299POPC   C3B51681  25.558  26.836   7.050
 7299POPC   C4B51682  25.515  26.841   7.350
 7300POPC   NC351683  21.366  13.615   5.550
 7300POPC   PO451684  21.339  13.589   5.850
 7300POPC   GL151685  21.405  13.578   6.150
 7300POPC   GL251686  21.261  13.597   6.150
 7300POPC   C1A51687  21.393  13.658   6.450
 7300POPC   D2A51688  21.415  13.658   6.750
 7300POPC   C3A51689  21.390  13.583   7.050
 7300POPC   C4A51690  21.422  13.588   7.350
 7300POPC   C1B51691  21.178  13.554   6.450
 7300POPC   C2B51692  21.112  13.568   6.750
 7300POPC   C3B51693  21.157  13.532   7.050
 7300POPC   C4B51694  21.191  13.540   7.350
 7301POPC   NC351695  43.853  18.235   5.550
 7301POPC   PO451696  43.890  18.288   5.850
 7301POPC   GL151697  43.893  18.276   6.150
 7301POPC   GL251698  43.732  18.313   6.150
 7301POPC   C1A51699  43.838  18.326   6.450
 7301POPC   D2A51700  43.889  18.299   6.750
 7301POPC   C3A51701  43.926  18.274   7.050
 7301POPC   C4A51702  43.871  18.270   7.350
 7301POPC   C1B51703  43.621  18.399   6.450
 7301POPC   C2B51704  43.621  18.402   6.750
 7301POPC   C3B51705  43.606  18.358   7.050
 7301POPC   C4B51706  43.626  18.390   7.350
 7302POPC   NC351707  26.780  11.309   5.550
 7302POPC   PO451708  26.844  11.303   5.850
 7302POPC   GL151709  26.846  11.350   6.150
 7302POPC   GL251710  26.863  11.446   6.150
 7302POPC   C1A51711  26.788  11.309   6.450
 7302POPC   D2A51712  26.848  11.304   6.750
 7302POPC   C3A51713  26.798  11.291   7.050
 7302POPC   C4A51714  26.774  11.339   7.350
 7302POPC   C1B51715  26.818  11.552   6.450
 7302POPC   C2B51716  26.848  11.594   6.750
 7302POPC   C3B51717  26.795  11.583   7.050
 7302POPC   C4B51718  26.817  11.523   7.350
 7303POPC   NC351719   9.754   1.940   5.550
 7303POPC   PO451720   9.763   2.027   5.850
 7303POPC   GL151721   9.703   1.976   6.150
 7303POPC   GL251722   9.660   1.877   6.150
 7303POPC   C1A51723   9.756   2.030   6.450
 7303POPC   D2A51724   9.716   2.039   6.750
 7303POPC   C3A51725   9.772   2.021   7.050
 7303POPC   C4A51726   9.783   2.039   7.350
 7303POPC   C1B51727   9.612   1.813   6.450
 7303POPC   C2B51728   9.531   1.805   6.750
 7303POPC   C3B51729   9.566   1.808   7.050
 7303POPC   C4B51730   9.557   1.836   7.350
 7304POPC   NC351731  12.092  22.127   5.550
 7304POPC   PO451732  12.043  22.196   5.850
 7304POPC   GL151733  12.123  22.201   6.150
 7304POPC   GL251734  12.000  22.029   6.150
 7304POPC   C1A51735  12.087  22.146   6.450
 7304POPC   D2A51736  12.084  22.155   6.750
 7304POPC   C3A51737  12.098  22.136   7.050
 7304POPC   C4A51738  12.088  22.150   7.350
 7304POPC   C1B51739  11.946  21.984   6.450
 7304POPC   C2B51740  11.946  22.006   6.750
 7304POPC   C3B51741  11.902  21.945   7.050
 7304POPC   C4B51742  11.935  21.999   7.350
 7305POPC   NC351743  31.434   6.687   5.550
 7305POPC   PO451744  31.439   6.693   5.850
 7305POPC   GL151745  31.516   6.660   6.150
 7305POPC   GL251746  31.424   6.812   6.150
 7305POPC   C1A51747  31.431   6.623   6.450
 7305POPC   D2A51748  31.475   6.610   6.750
 7305POPC   C3A51749  31.522   6.633   7.050
 7305POPC   C4A51750  31.487   6.658   7.350
 7305POPC   C1B51751  31.448   6.877   6.450
 7305POPC   C2B51752  31.415   6.892   6.750
 7305POPC   C3B51753  31.444   6.899   7.050
 7305POPC   C4B51754  31.484   6.890   7.350
 7306POPC   NC351755  35.310  10.514   5.550
 7306POPC   PO451756  35.320  10.480   5.850
 7306POPC   GL151757  35.319  10.529   6.150
 7306POPC   GL251758  35.230  10.468   6.150
 7306POPC   C1A51759  35.344  10.489   6.450
 7306POPC   D2A51760  35.362  10.525   6.750
 7306POPC   C3A51761  35.381  10.537   7.050
 7306POPC   C4A51762  35.364  10.566   7.350
 7306POPC   C1B51763  35.165  10.428   6.450
 7306POPC   C2B51764  35.153  10.394   6.750
 7306POPC   C3B51765  35.134  10.441   7.050
 7306POPC   C4B51766  35.116  10.414   7.350
 7307POPC   NC351767  36.898   9.706   5.550
 7307POPC   PO451768  36.930   9.783   5.850
 7307POPC   GL151769  36.930   9.787   6.150
 7307POPC   GL251770  36.959   9.904   6.150
 7307POPC   C1A51771  36.866   9.792   6.450
 7307POPC   D2A51772  36.869   9.699   6.750
 7307POPC   C3A51773  36.904   9.758   7.050
 7307POPC   C4A51774  36.948   9.784   7.350
 7307POPC   C1B51775  36.967   9.958   6.450
 7307POPC   C2B51776  36.972  10.009   6.750
 7307POPC   C3B51777  37.029  10.011   7.050
 7307POPC   C4B51778  37.012   9.977   7.350
 7308POPC   NC351779  18.282  32.226   5.550
 7308POPC   PO451780  18.253  32.226   5.850
 7308POPC   GL151781  18.282  32.296   6.150
 7308POPC   GL251782  18.116  32.274   6.150
 7308POPC   C1A51783  18.278  32.225   6.450
 7308POPC   D2A51784  18.305  32.263   6.750
 7308POPC   C3A51785  18.281  32.216   7.050
 7308POPC   C4A51786  18.320  32.260   7.350
 7308POPC   C1B51787  18.005  32.228   6.450
 7308POPC   C2B51788  18.071  32.212   6.750
 7308POPC   C3B51789  18.060  32.232   7.050
 7308POPC   C4B51790  18.012  32.220   7.350
 7309POPC   NC351791   5.855   1.970   5.550
 7309POPC   PO451792   5.845   2.015   5.850
 7309POPC   GL151793   5.917   1.981   6.150
 7309POPC   GL251794   5.811   1.853   6.150
 7309POPC   C1A51795   5.820   1.978   6.450
 7309POPC   D2A51796   5.885   2.025   6.750
 7309POPC   C3A51797   5.897   1.992   7.050
 7309POPC   C4A51798   5.832   2.005   7.350
 7309POPC   C1B51799   5.658   1.788   6.450
 7309POPC   C2B51800   5.738   1.813   6.750
 7309POPC   C3B51801   5.740   1.832   7.050
 7309POPC   C4B51802   5.650   1.771   7.350
 7310POPC   NC351803   2.789  40.034   5.550
 7310POPC   PO451804   2.767  40.012   5.850
 7310POPC   GL151805   2.812  40.011   6.150
 7310POPC   GL251806   2.895  39.949   6.150
 7310POPC   C1A51807   2.719  39.974   6.450
 7310POPC   D2A51808   2.768  39.964   6.750
 7310POPC   C3A51809   2.785  40.007   7.050
 7310POPC   C4A51810   2.791  40.051   7.350
 7310POPC   C1B51811   3.036  39.990   6.450
 7310POPC   C2B51812   3.034  39.976   6.750
 7310POPC   C3B51813   2.985  40.010   7.050
 7310POPC   C4B51814   3.047  39.952   7.350
 7311POPC   NC351815  30.667   2.760   5.550
 7311POPC   PO451816  30.675   2.717   5.850
 7311POPC   GL151817  30.670   2.719   6.150
 7311POPC   GL251818  30.612   2.737   6.150
 7311POPC   C1A51819  30.718   2.737   6.450
 7311POPC   D2A51820  30.704   2.780   6.750
 7311POPC   C3A51821  30.684   2.785   7.050
 7311POPC   C4A51822  30.729   2.752   7.350
 7311POPC   C1B51823  30.508   2.628   6.450
 7311POPC   C2B51824  30.522   2.622   6.750
 7311POPC   C3B51825  30.469   2.591   7.050
 7311POPC   C4B51826  30.471   2.579   7.350
 7312POPC   NC351827   6.607  10.539   5.550
 7312POPC   PO451828   6.629  10.559   5.850
 7312POPC   GL151829   6.606  10.512   6.150
 7312POPC   GL251830   6.702  10.423   6.150
 7312POPC   C1A51831   6.596  10.538   6.450
 7312POPC   D2A51832   6.666  10.514   6.750
 7312POPC   C3A51833   6.673  10.505   7.050
 7312POPC   C4A51834   6.648  10.483   7.350
 7312POPC   C1B51835   6.828  10.372   6.450
 7312POPC   C2B51836   6.815  10.385   6.750
 7312POPC   C3B51837   6.821  10.350   7.050
 7312POPC   C4B51838   6.855  10.425   7.350
 7313POPC   NC351839  15.224  22.200   5.550
 7313POPC   PO451840  15.139  22.159   5.850
 7313POPC   GL151841  15.227  22.128   6.150
 7313POPC   GL251842  15.210  22.068   6.150
 7313POPC   C1A51843  15.181  22.171   6.450
 7313POPC   D2A51844  15.222  22.112   6.750
 7313POPC   C3A51845  15.171  22.212   7.050
 7313POPC   C4A51846  15.214  22.141   7.350
 7313POPC   C1B51847  15.316  21.939   6.450
 7313POPC   C2B51848  15.235  21.902   6.750
 7313POPC   C3B51849  15.301  21.955   7.050
 7313POPC   C4B51850  15.238  21.960   7.350
 7314POPC   NC351851  40.028  37.686   5.550
 7314POPC   PO451852  39.965  37.682   5.850
 7314POPC   GL151853  40.014  37.635   6.150
 7314POPC   GL251854  40.007  37.747   6.150
 7314POPC   C1A51855  39.970  37.720   6.450
 7314POPC   D2A51856  40.004  37.673   6.750
 7314POPC   C3A51857  39.962  37.728   7.050
 7314POPC   C4A51858  39.998  37.713   7.350
 7314POPC   C1B51859  39.870  37.926   6.450
 7314POPC   C2B51860  39.872  37.954   6.750
 7314POPC   C3B51861  39.865  37.934   7.050
 7314POPC   C4B51862  39.903  37.866   7.350
 7315POPC   NC351863  25.250  42.312   5.550
 7315POPC   PO451864  25.270  42.333   5.850
 7315POPC   GL151865  25.261  42.306   6.150
 7315POPC   GL251866  25.323  42.208   6.150
 7315POPC   C1A51867  25.313  42.291   6.450
 7315POPC   D2A51868  25.304  42.359   6.750
 7315POPC   C3A51869  25.244  42.351   7.050
 7315POPC   C4A51870  25.220  42.331   7.350
 7315POPC   C1B51871  25.424  42.099   6.450
 7315POPC   C2B51872  25.416  42.154   6.750
 7315POPC   C3B51873  25.382  42.117   7.050
 7315POPC   C4B51874  25.471  42.158   7.350
 7316POPC   NC351875  10.524   8.199   5.550
 7316POPC   PO451876  10.533   8.209   5.850
 7316POPC   GL151877  10.495   8.213   6.150
 7316POPC   GL251878  10.660   8.156   6.150
 7316POPC   C1A51879  10.535   8.151   6.450
 7316POPC   D2A51880  10.482   8.188   6.750
 7316POPC   C3A51881  10.504   8.241   7.050
 7316POPC   C4A51882  10.532   8.238   7.350
 7316POPC   C1B51883  10.731   8.223   6.450
 7316POPC   C2B51884  10.785   8.228   6.750
 7316POPC   C3B51885  10.774   8.192   7.050
 7316POPC   C4B51886  10.823   8.188   7.350
 7317POPC   NC351887  12.064  41.548   5.550
 7317POPC   PO451888  12.053  41.521   5.850
 7317POPC   GL151889  12.098  41.604   6.150
 7317POPC   GL251890  12.169  41.698   6.150
 7317POPC   C1A51891  12.061  41.587   6.450
 7317POPC   D2A51892  12.084  41.580   6.750
 7317POPC   C3A51893  12.056  41.566   7.050
 7317POPC   C4A51894  12.108  41.547   7.350
 7317POPC   C1B51895  12.244  41.733   6.450
 7317POPC   C2B51896  12.228  41.749   6.750
 7317POPC   C3B51897  12.283  41.759   7.050
 7317POPC   C4B51898  12.246  41.697   7.350
 7318POPC   NC351899  34.558   6.625   5.550
 7318POPC   PO451900  34.553   6.631   5.850
 7318POPC   GL151901  34.580   6.642   6.150
 7318POPC   GL251902  34.655   6.652   6.150
 7318POPC   C1A51903  34.603   6.674   6.450
 7318POPC   D2A51904  34.551   6.660   6.750
 7318POPC   C3A51905  34.590   6.653   7.050
 7318POPC   C4A51906  34.531   6.649   7.350
 7318POPC   C1B51907  34.792   6.582   6.450
 7318POPC   C2B51908  34.846   6.600   6.750
 7318POPC   C3B51909  34.795   6.543   7.050
 7318POPC   C4B51910  34.842   6.599   7.350
 7319POPC   NC351911  40.023  40.738   5.550
 7319POPC   PO451912  39.977  40.825   5.850
 7319POPC   GL151913  39.990  40.738   6.150
 7319POPC   GL251914  39.929  40.672   6.150
 7319POPC   C1A51915  39.972  40.819   6.450
 7319POPC   D2A51916  39.997  40.741   6.750
 7319POPC   C3A51917  39.983  40.820   7.050
 7319POPC   C4A51918  40.039  40.781   7.350
 7319POPC   C1B51919  39.868  40.576   6.450
 7319POPC   C2B51920  39.952  40.572   6.750
 7319POPC   C3B51921  39.938  40.527   7.050
 7319POPC   C4B51922  39.879  40.503   7.350
 7320POPC   NC351923   5.892  40.802   5.550
 7320POPC   PO451924   5.914  40.828   5.850
 7320POPC   GL151925   5.854  40.734   6.150
 7320POPC   GL251926   5.871  40.906   6.150
 7320POPC   C1A51927   5.863  40.808   6.450
 7320POPC   D2A51928   5.822  40.801   6.750
 7320POPC   C3A51929   5.832  40.777   7.050
 7320POPC   C4A51930   5.879  40.825   7.350
 7320POPC   C1B51931   5.891  41.033   6.450
 7320POPC   C2B51932   5.958  41.060   6.750
 7320POPC   C3B51933   5.980  40.984   7.050
 7320POPC   C4B51934   5.929  40.991   7.350
 7321POPC   NC351935  19.061  43.872   5.550
 7321POPC   PO451936  19.096  43.863   5.850
 7321POPC   GL151937  19.013  43.876   6.150
 7321POPC   GL251938  18.898  43.819   6.150
 7321POPC   C1A51939  19.088  43.864   6.450
 7321POPC   D2A51940  19.030  43.895   6.750
 7321POPC   C3A51941  19.067  43.843   7.050
 7321POPC   C4A51942  19.012  43.907   7.350
 7321POPC   C1B51943  18.840  43.853   6.450
 7321POPC   C2B51944  18.765  43.869   6.750
 7321POPC   C3B51945  18.797  43.799   7.050
 7321POPC   C4B51946  18.837  43.879   7.350
 7322POPC   NC351947   0.417   4.315   5.550
 7322POPC   PO451948   0.431   4.308   5.850
 7322POPC   GL151949   0.437   4.277   6.150
 7322POPC   GL251950   0.341   4.262   6.150
 7322POPC   C1A51951   0.399   4.355   6.450
 7322POPC   D2A51952   0.396   4.291   6.750
 7322POPC   C3A51953   0.460   4.297   7.050
 7322POPC   C4A51954   0.458   4.279   7.350
 7322POPC   C1B51955   0.194   4.154   6.450
 7322POPC   C2B51956   0.186   4.205   6.750
 7322POPC   C3B51957   0.240   4.140   7.050
 7322POPC   C4B51958   0.232   4.163   7.350
 7323POPC   NC351959  20.568  27.608   5.550
 7323POPC   PO451960  20.617  27.633   5.850
 7323POPC   GL151961  20.621  27.602   6.150
 7323POPC   GL251962  20.634  27.504   6.150
 7323POPC   C1A51963  20.647  27.547   6.450
 7323POPC   D2A51964  20.613  27.572   6.750
 7323POPC   C3A51965  20.567  27.629   7.050
 7323POPC   C4A51966  20.653  27.606   7.350
 7323POPC   C1B51967  20.573  27.331   6.450
 7323POPC   C2B51968  20.578  27.332   6.750
 7323POPC   C3B51969  20.574  27.351   7.050
 7323POPC   C4B51970  20.632  27.349   7.350
 7324POPC   NC351971  35.350   6.620   5.550
 7324POPC   PO451972  35.310   6.692   5.850
 7324POPC   GL151973  35.370   6.628   6.150
 7324POPC   GL251974  35.407   6.585   6.150
 7324POPC   C1A51975  35.362   6.672   6.450
 7324POPC   D2A51976  35.383   6.643   6.750
 7324POPC   C3A51977  35.343   6.657   7.050
 7324POPC   C4A51978  35.354   6.612   7.350
 7324POPC   C1B51979  35.473   6.440   6.450
 7324POPC   C2B51980  35.519   6.433   6.750
 7324POPC   C3B51981  35.504   6.437   7.050
 7324POPC   C4B51982  35.497   6.453   7.350
 7325POPC   NC351983  36.882  19.787   5.550
 7325POPC   PO451984  36.949  19.864   5.850
 7325POPC   GL151985  36.923  19.819   6.150
 7325POPC   GL251986  37.043  19.786   6.150
 7325POPC   C1A51987  36.878  19.789   6.450
 7325POPC   D2A51988  36.892  19.803   6.750
 7325POPC   C3A51989  36.936  19.794   7.050
 7325POPC   C4A51990  36.904  19.865   7.350
 7325POPC   C1B51991  37.132  19.820   6.450
 7325POPC   C2B51992  37.169  19.823   6.750
 7325POPC   C3B51993  37.189  19.834   7.050
 7325POPC   C4B51994  37.187  19.842   7.350
 7326POPC   NC351995  44.642   5.105   5.550
 7326POPC   PO451996  44.687   5.093   5.850
 7326POPC   GL151997  44.662   5.094   6.150
 7326POPC   GL251998  44.778   5.220   6.150
 7326POPC   C1A51999  44.636   5.142   6.450
 7326POPC   D2A52000  44.640   5.131   6.750
 7326POPC   C3A52001  44.636   5.122   7.050
 7326POPC   C4A52002  44.676   5.111   7.350
 7326POPC   C1B52003  44.775   5.280   6.450
 7326POPC   C2B52004  44.755   5.300   6.750
 7326POPC   C3B52005  44.777   5.308   7.050
 7326POPC   C4B52006  44.755   5.331   7.350
 7327POPC   NC352007  29.117  21.350   5.550
 7327POPC   PO452008  29.157  21.368   5.850
 7327POPC   GL152009  29.171  21.424   6.150
 7327POPC   GL252010  29.021  21.300   6.150
 7327POPC   C1A52011  29.183  21.422   6.450
 7327POPC   D2A52012  29.129  21.368   6.750
 7327POPC   C3A52013  29.132  21.336   7.050
 7327POPC   C4A52014  29.147  21.375   7.350
 7327POPC   C1B52015  28.986  21.235   6.450
 7327POPC   C2B52016  28.996  21.212   6.750
 7327POPC   C3B52017  28.930  21.158   7.050
 7327POPC   C4B52018  29.013  21.195   7.350
 7328POPC   NC352019  19.867  35.330   5.550
 7328POPC   PO452020  19.814  35.377   5.850
 7328POPC   GL152021  19.788  35.358   6.150
 7328POPC   GL252022  19.952  35.290   6.150
 7328POPC   C1A52023  19.882  35.333   6.450
 7328POPC   D2A52024  19.844  35.375   6.750
 7328POPC   C3A52025  19.815  35.393   7.050
 7328POPC   C4A52026  19.841  35.358   7.350
 7328POPC   C1B52027  20.025  35.293   6.450
 7328POPC   C2B52028  20.081  35.292   6.750
 7328POPC   C3B52029  20.102  35.300   7.050
 7328POPC   C4B52030  20.069  35.214   7.350
 7329POPC   NC352031   9.727  32.986   5.550
 7329POPC   PO452032   9.722  33.056   5.850
 7329POPC   GL152033   9.772  33.055   6.150
 7329POPC   GL252034   9.782  32.894   6.150
 7329POPC   C1A52035   9.730  33.019   6.450
 7329POPC   D2A52036   9.744  33.046   6.750
 7329POPC   C3A52037   9.703  33.059   7.050
 7329POPC   C4A52038   9.760  33.052   7.350
 7329POPC   C1B52039   9.765  32.727   6.450
 7329POPC   C2B52040   9.774  32.732   6.750
 7329POPC   C3B52041   9.785  32.809   7.050
 7329POPC   C4B52042   9.723  32.805   7.350
 7330POPC   NC352043  22.190  31.478   5.550
 7330POPC   PO452044  22.196  31.477   5.850
 7330POPC   GL152045  22.145  31.460   6.150
 7330POPC   GL252046  22.044  31.376   6.150
 7330POPC   C1A52047  22.116  31.505   6.450
 7330POPC   D2A52048  22.205  31.482   6.750
 7330POPC   C3A52049  22.119  31.488   7.050
 7330POPC   C4A52050  22.196  31.513   7.350
 7330POPC   C1B52051  21.947  31.323   6.450
 7330POPC   C2B52052  21.891  31.401   6.750
 7330POPC   C3B52053  21.958  31.335   7.050
 7330POPC   C4B52054  21.940  31.320   7.350
 7331POPC   NC352055  11.341  18.236   5.550
 7331POPC   PO452056  11.273  18.302   5.850
 7331POPC   GL152057  11.302  18.241   6.150
 7331POPC   GL252058  11.351  18.388   6.150
 7331POPC   C1A52059  11.309  18.263   6.450
 7331POPC   D2A52060  11.279  18.278   6.750
 7331POPC   C3A52061  11.267  18.288   7.050
 7331POPC   C4A52062  11.253  18.311   7.350
 7331POPC   C1B52063  11.489  18.460   6.450
 7331POPC   C2B52064  11.452  18.477   6.750
 7331POPC   C3B52065  11.488  18.469   7.050
 7331POPC   C4B52066  11.462  18.513   7.350
 7332POPC   NC352067   2.761  32.298   5.550
 7332POPC   PO452068   2.758  32.267   5.850
 7332POPC   GL152069   2.729  32.266   6.150
 7332POPC   GL252070   2.840  32.340   6.150
 7332POPC   C1A52071   2.781  32.285   6.450
 7332POPC   D2A52072   2.756  32.278   6.750
 7332POPC   C3A52073   2.717  32.255   7.050
 7332POPC   C4A52074   2.793  32.284   7.350
 7332POPC   C1B52075   3.000  32.404   6.450
 7332POPC   C2B52076   3.000  32.396   6.750
 7332POPC   C3B52077   3.010  32.425   7.050
 7332POPC   C4B52078   2.960  32.376   7.350
 7333POPC   NC352079  15.139  44.676   5.550
 7333POPC   PO452080  15.207  44.629   5.850
 7333POPC   GL152081  15.136  44.613   6.150
 7333POPC   GL252082  15.169  44.788   6.150
 7333POPC   C1A52083  15.146  44.686   6.450
 7333POPC   D2A52084  15.141  44.631   6.750
 7333POPC   C3A52085  15.169  44.627   7.050
 7333POPC   C4A52086  15.171  44.616   7.350
 7333POPC   C1B52087  15.172  44.874   6.450
 7333POPC   C2B52088  15.158  44.916   6.750
 7333POPC   C3B52089  15.192  44.903   7.050
 7333POPC   C4B52090  15.200  44.955   7.350
 7334POPC   NC352091   8.232  26.833   5.550
 7334POPC   PO452092   8.222  26.789   5.850
 7334POPC   GL152093   8.228  26.775   6.150
 7334POPC   GL252094   8.335  26.868   6.150
 7334POPC   C1A52095   8.236  26.831   6.450
 7334POPC   D2A52096   8.149  26.860   6.750
 7334POPC   C3A52097   8.185  26.823   7.050
 7334POPC   C4A52098   8.246  26.821   7.350
 7334POPC   C1B52099   8.484  26.852   6.450
 7334POPC   C2B52100   8.448  26.802   6.750
 7334POPC   C3B52101   8.483  26.819   7.050
 7334POPC   C4B52102   8.460  26.827   7.350
 7335POPC   NC352103  21.398  15.176   5.550
 7335POPC   PO452104  21.396  15.148   5.850
 7335POPC   GL152105  21.411  15.136   6.150
 7335POPC   GL252106  21.336  15.261   6.150
 7335POPC   C1A52107  21.391  15.181   6.450
 7335POPC   D2A52108  21.428  15.220   6.750
 7335POPC   C3A52109  21.420  15.218   7.050
 7335POPC   C4A52110  21.424  15.200   7.350
 7335POPC   C1B52111  21.357  15.406   6.450
 7335POPC   C2B52112  21.354  15.388   6.750
 7335POPC   C3B52113  21.292  15.430   7.050
 7335POPC   C4B52114  21.313  15.448   7.350
 7336POPC   NC352115  33.828   2.734   5.550
 7336POPC   PO452116  33.762   2.778   5.850
 7336POPC   GL152117  33.789   2.765   6.150
 7336POPC   GL252118  33.698   2.695   6.150
 7336POPC   C1A52119  33.792   2.790   6.450
 7336POPC   D2A52120  33.825   2.759   6.750
 7336POPC   C3A52121  33.804   2.741   7.050
 7336POPC   C4A52122  33.826   2.732   7.350
 7336POPC   C1B52123  33.626   2.681   6.450
 7336POPC   C2B52124  33.584   2.671   6.750
 7336POPC   C3B52125  33.531   2.600   7.050
 7336POPC   C4B52126  33.561   2.664   7.350
 7337POPC   NC352127  26.058   2.023   5.550
 7337POPC   PO452128  26.067   1.941   5.850
 7337POPC   GL152129  26.068   2.028   6.150
 7337POPC   GL252130  25.975   2.023   6.150
 7337POPC   C1A52131  25.996   2.006   6.450
 7337POPC   D2A52132  26.031   1.996   6.750
 7337POPC   C3A52133  26.026   2.025   7.050
 7337POPC   C4A52134  26.049   2.034   7.350
 7337POPC   C1B52135  25.835   2.172   6.450
 7337POPC   C2B52136  25.802   2.155   6.750
 7337POPC   C3B52137  25.875   2.126   7.050
 7337POPC   C4B52138  25.851   2.138   7.350
 7338POPC   NC352139  15.927  40.777   5.550
 7338POPC   PO452140  15.917  40.796   5.850
 7338POPC   GL152141  15.976  40.786   6.150
 7338POPC   GL252142  15.874  40.637   6.150
 7338POPC   C1A52143  15.914  40.755   6.450
 7338POPC   D2A52144  15.910  40.814   6.750
 7338POPC   C3A52145  15.944  40.781   7.050
 7338POPC   C4A52146  15.935  40.769   7.350
 7338POPC   C1B52147  15.788  40.619   6.450
 7338POPC   C2B52148  15.833  40.536   6.750
 7338POPC   C3B52149  15.814  40.564   7.050
 7338POPC   C4B52150  15.782  40.599   7.350
 7339POPC   NC352151  25.237  13.642   5.550
 7339POPC   PO452152  25.222  13.674   5.850
 7339POPC   GL152153  25.220  13.654   6.150
 7339POPC   GL252154  25.263  13.503   6.150
 7339POPC   C1A52155  25.263  13.637   6.450
 7339POPC   D2A52156  25.265  13.580   6.750
 7339POPC   C3A52157  25.250  13.671   7.050
 7339POPC   C4A52158  25.216  13.598   7.350
 7339POPC   C1B52159  25.138  13.357   6.450
 7339POPC   C2B52160  25.200  13.351   6.750
 7339POPC   C3B52161  25.178  13.378   7.050
 7339POPC   C4B52162  25.213  13.412   7.350
 7340POPC   NC352163  36.911   4.278   5.550
 7340POPC   PO452164  36.884   4.314   5.850
 7340POPC   GL152165  36.897   4.311   6.150
 7340POPC   GL252166  36.878   4.409   6.150
 7340POPC   C1A52167  36.879   4.271   6.450
 7340POPC   D2A52168  36.942   4.351   6.750
 7340POPC   C3A52169  36.917   4.317   7.050
 7340POPC   C4A52170  36.876   4.365   7.350
 7340POPC   C1B52171  36.838   4.510   6.450
 7340POPC   C2B52172  36.808   4.567   6.750
 7340POPC   C3B52173  36.824   4.538   7.050
 7340POPC   C4B52174  36.874   4.551   7.350
 7341POPC   NC352175  14.448  16.754   5.550
 7341POPC   PO452176  14.448  16.752   5.850
 7341POPC   GL152177  14.377  16.762   6.150
 7341POPC   GL252178  14.378  16.882   6.150
 7341POPC   C1A52179  14.372  16.718   6.450
 7341POPC   D2A52180  14.441  16.692   6.750
 7341POPC   C3A52181  14.355  16.695   7.050
 7341POPC   C4A52182  14.450  16.686   7.350
 7341POPC   C1B52183  14.311  16.943   6.450
 7341POPC   C2B52184  14.254  16.926   6.750
 7341POPC   C3B52185  14.303  16.921   7.050
 7341POPC   C4B52186  14.312  16.966   7.350
 7342POPC   NC352187   7.448  23.732   5.550
 7342POPC   PO452188   7.465  23.712   5.850
 7342POPC   GL152189   7.440  23.717   6.150
 7342POPC   GL252190   7.569  23.659   6.150
 7342POPC   C1A52191   7.389  23.715   6.450
 7342POPC   D2A52192   7.421  23.713   6.750
 7342POPC   C3A52193   7.450  23.709   7.050
 7342POPC   C4A52194   7.387  23.740   7.350
 7342POPC   C1B52195   7.658  23.640   6.450
 7342POPC   C2B52196   7.684  23.700   6.750
 7342POPC   C3B52197   7.623  23.667   7.050
 7342POPC   C4B52198   7.637  23.684   7.350
 7343POPC   NC352199  25.250  34.560   5.550
 7343POPC   PO452200  25.288  34.538   5.850
 7343POPC   GL152201  25.282  34.572   6.150
 7343POPC   GL252202  25.353  34.443   6.150
 7343POPC   C1A52203  25.229  34.589   6.450
 7343POPC   D2A52204  25.292  34.559   6.750
 7343POPC   C3A52205  25.280  34.555   7.050
 7343POPC   C4A52206  25.302  34.562   7.350
 7343POPC   C1B52207  25.394  34.422   6.450
 7343POPC   C2B52208  25.453  34.400   6.750
 7343POPC   C3B52209  25.448  34.367   7.050
 7343POPC   C4B52210  25.444  34.377   7.350
 7344POPC   NC352211  12.804  10.550   5.550
 7344POPC   PO452212  12.842  10.479   5.850
 7344POPC   GL152213  12.901  10.565   6.150
 7344POPC   GL252214  12.696  10.443   6.150
 7344POPC   C1A52215  12.812  10.558   6.450
 7344POPC   D2A52216  12.830  10.534   6.750
 7344POPC   C3A52217  12.884  10.516   7.050
 7344POPC   C4A52218  12.872  10.495   7.350
 7344POPC   C1B52219  12.659  10.481   6.450
 7344POPC   C2B52220  12.599  10.417   6.750
 7344POPC   C3B52221  12.611  10.453   7.050
 7344POPC   C4B52222  12.615  10.422   7.350
 7345POPC   NC352223  35.352   0.409   5.550
 7345POPC   PO452224  35.376   0.451   5.850
 7345POPC   GL152225  35.353   0.448   6.150
 7345POPC   GL252226  35.325   0.543   6.150
 7345POPC   C1A52227  35.375   0.438   6.450
 7345POPC   D2A52228  35.365   0.482   6.750
 7345POPC   C3A52229  35.369   0.465   7.050
 7345POPC   C4A52230  35.321   0.433   7.350
 7345POPC   C1B52231  35.250   0.709   6.450
 7345POPC   C2B52232  35.271   0.726   6.750
 7345POPC   C3B52233  35.238   0.648   7.050
 7345POPC   C4B52234  35.297   0.658   7.350
 7346POPC   NC352235   5.104  24.451   5.550
 7346POPC   PO452236   5.127  24.497   5.850
 7346POPC   GL152237   5.134  24.444   6.150
 7346POPC   GL252238   5.049  24.325   6.150
 7346POPC   C1A52239   5.134  24.451   6.450
 7346POPC   D2A52240   5.114  24.441   6.750
 7346POPC   C3A52241   5.118  24.463   7.050
 7346POPC   C4A52242   5.087  24.444   7.350
 7346POPC   C1B52243   5.057  24.219   6.450
 7346POPC   C2B52244   5.095  24.246   6.750
 7346POPC   C3B52245   5.132  24.263   7.050
 7346POPC   C4B52246   5.069  24.242   7.350
 7347POPC   NC352247   8.172  29.102   5.550
 7347POPC   PO452248   8.242  29.147   5.850
 7347POPC   GL152249   8.212  29.112   6.150
 7347POPC   GL252250   8.187  29.051   6.150
 7347POPC   C1A52251   8.148  29.108   6.450
 7347POPC   D2A52252   8.207  29.131   6.750
 7347POPC   C3A52253   8.236  29.159   7.050
 7347POPC   C4A52254   8.238  29.162   7.350
 7347POPC   C1B52255   8.215  28.908   6.450
 7347POPC   C2B52256   8.173  28.900   6.750
 7347POPC   C3B52257   8.195  28.910   7.050
 7347POPC   C4B52258   8.250  28.864   7.350
 7348POPC   NC352259  40.783   6.643   5.550
 7348POPC   PO452260  40.733   6.687   5.850
 7348POPC   GL152261  40.832   6.598   6.150
 7348POPC   GL252262  40.709   6.745   6.150
 7348POPC   C1A52263  40.772   6.606   6.450
 7348POPC   D2A52264  40.811   6.620   6.750
 7348POPC   C3A52265  40.760   6.661   7.050
 7348POPC   C4A52266  40.760   6.688   7.350
 7348POPC   C1B52267  40.576   6.785   6.450
 7348POPC   C2B52268  40.587   6.853   6.750
 7348POPC   C3B52269  40.596   6.856   7.050
 7348POPC   C4B52270  40.582   6.788   7.350
 7349POPC   NC352271  12.852  35.336   5.550
 7349POPC   PO452272  12.896  35.356   5.850
 7349POPC   GL152273  12.893  35.379   6.150
 7349POPC   GL252274  12.730  35.357   6.150
 7349POPC   C1A52275  12.835  35.392   6.450
 7349POPC   D2A52276  12.836  35.342   6.750
 7349POPC   C3A52277  12.818  35.329   7.050
 7349POPC   C4A52278  12.850  35.361   7.350
 7349POPC   C1B52279  12.646  35.321   6.450
 7349POPC   C2B52280  12.619  35.352   6.750
 7349POPC   C3B52281  12.636  35.364   7.050
 7349POPC   C4B52282  12.602  35.374   7.350
 7350POPC   NC352283  20.652  44.662   5.550
 7350POPC   PO452284  20.595  44.641   5.850
 7350POPC   GL152285  20.610  44.660   6.150
 7350POPC   GL252286  20.684  44.722   6.150
 7350POPC   C1A52287  20.579  44.688   6.450
 7350POPC   D2A52288  20.600  44.650   6.750
 7350POPC   C3A52289  20.563  44.614   7.050
 7350POPC   C4A52290  20.654  44.621   7.350
 7350POPC   C1B52291  20.816  44.776   6.450
 7350POPC   C2B52292  20.817  44.816   6.750
 7350POPC   C3B52293  20.793  44.852   7.050
 7350POPC   C4B52294  20.830  44.775   7.350
 7351POPC   NC352295  14.380  36.081   5.550
 7351POPC   PO452296  14.421  36.104   5.850
 7351POPC   GL152297  14.369  36.085   6.150
 7351POPC   GL252298  14.470  35.960   6.150
 7351POPC   C1A52299  14.361  36.146   6.450
 7351POPC   D2A52300  14.442  36.110   6.750
 7351POPC   C3A52301  14.418  36.092   7.050
 7351POPC   C4A52302  14.382  36.149   7.350
 7351POPC   C1B52303  14.512  35.921   6.450
 7351POPC   C2B52304  14.441  35.885   6.750
 7351POPC   C3B52305  14.494  35.892   7.050
 7351POPC   C4B52306  14.476  35.867   7.350
 7352POPC   NC352307  23.747  23.757   5.550
 7352POPC   PO452308  23.720  23.727   5.850
 7352POPC   GL152309  23.720  23.712   6.150
 7352POPC   GL252310  23.859  23.747   6.150
 7352POPC   C1A52311  23.707  23.713   6.450
 7352POPC   D2A52312  23.721  23.735   6.750
 7352POPC   C3A52313  23.737  23.731   7.050
 7352POPC   C4A52314  23.741  23.715   7.350
 7352POPC   C1B52315  23.915  23.672   6.450
 7352POPC   C2B52316  24.008  23.685   6.750
 7352POPC   C3B52317  23.969  23.698   7.050
 7352POPC   C4B52318  23.965  23.683   7.350
 7353POPC   NC352319  41.592  19.029   5.550
 7353POPC   PO452320  41.590  19.075   5.850
 7353POPC   GL152321  41.568  19.033   6.150
 7353POPC   GL252322  41.407  19.074   6.150
 7353POPC   C1A52323  41.599  19.095   6.450
 7353POPC   D2A52324  41.527  19.088   6.750
 7353POPC   C3A52325  41.537  19.093   7.050
 7353POPC   C4A52326  41.592  19.061   7.350
 7353POPC   C1B52327  41.267  19.026   6.450
 7353POPC   C2B52328  41.346  19.014   6.750
 7353POPC   C3B52329  41.309  19.019   7.050
 7353POPC   C4B52330  41.323  19.095   7.350
 7354POPC   NC352331  31.492  31.479   5.550
 7354POPC   PO452332  31.445  31.453   5.850
 7354POPC   GL152333  31.427  31.456   6.150
 7354POPC   GL252334  31.354  31.413   6.150
 7354POPC   C1A52335  31.510  31.448   6.450
 7354POPC   D2A52336  31.427  31.451   6.750
 7354POPC   C3A52337  31.433  31.499   7.050
 7354POPC   C4A52338  31.426  31.461   7.350
 7354POPC   C1B52339  31.338  31.302   6.450
 7354POPC   C2B52340  31.337  31.260   6.750
 7354POPC   C3B52341  31.374  31.241   7.050
 7354POPC   C4B52342  31.354  31.252   7.350
 7355POPC   NC352343  26.838  16.730   5.550
 7355POPC   PO452344  26.795  16.779   5.850
 7355POPC   GL152345  26.826  16.701   6.150
 7355POPC   GL252346  26.950  16.671   6.150
 7355POPC   C1A52347  26.836  16.731   6.450
 7355POPC   D2A52348  26.793  16.740   6.750
 7355POPC   C3A52349  26.861  16.744   7.050
 7355POPC   C4A52350  26.830  16.753   7.350
 7355POPC   C1B52351  27.066  16.610   6.450
 7355POPC   C2B52352  27.076  16.615   6.750
 7355POPC   C3B52353  27.076  16.596   7.050
 7355POPC   C4B52354  27.038  16.620   7.350
 7356POPC   NC352355  32.285  29.119   5.550
 7356POPC   PO452356  32.274  29.101   5.850
 7356POPC   GL152357  32.293  29.109   6.150
 7356POPC   GL252358  32.130  29.102   6.150
 7356POPC   C1A52359  32.204  29.143   6.450
 7356POPC   D2A52360  32.287  29.130   6.750
 7356POPC   C3A52361  32.277  29.173   7.050
 7356POPC   C4A52362  32.217  29.154   7.350
 7356POPC   C1B52363  32.010  28.939   6.450
 7356POPC   C2B52364  32.089  28.956   6.750
 7356POPC   C3B52365  32.040  29.001   7.050
 7356POPC   C4B52366  32.062  29.023   7.350
 7357POPC   NC352367  40.759  43.899   5.550
 7357POPC   PO452368  40.817  43.922   5.850
 7357POPC   GL152369  40.747  43.922   6.150
 7357POPC   GL252370  40.784  44.038   6.150
 7357POPC   C1A52371  40.774  43.916   6.450
 7357POPC   D2A52372  40.775  43.900   6.750
 7357POPC   C3A52373  40.828  43.882   7.050
 7357POPC   C4A52374  40.756  43.913   7.350
 7357POPC   C1B52375  40.781  44.129   6.450
 7357POPC   C2B52376  40.721  44.160   6.750
 7357POPC   C3B52377  40.751  44.134   7.050
 7357POPC   C4B52378  40.746  44.098   7.350
 7358POPC   NC352379  13.593  22.901   5.550
 7358POPC   PO452380  13.603  22.949   5.850
 7358POPC   GL152381  13.649  22.979   6.150
 7358POPC   GL252382  13.676  23.015   6.150
 7358POPC   C1A52383  13.597  22.925   6.450
 7358POPC   D2A52384  13.614  22.973   6.750
 7358POPC   C3A52385  13.644  22.969   7.050
 7358POPC   C4A52386  13.661  22.929   7.350
 7358POPC   C1B52387  13.749  23.122   6.450
 7358POPC   C2B52388  13.830  23.124   6.750
 7358POPC   C3B52389  13.734  23.124   7.050
 7358POPC   C4B52390  13.737  23.119   7.350
 7359POPC   NC352391  26.776  36.101   5.550
 7359POPC   PO452392  26.863  36.136   5.850
 7359POPC   GL152393  26.783  36.078   6.150
 7359POPC   GL252394  26.697  36.115   6.150
 7359POPC   C1A52395  26.867  36.127   6.450
 7359POPC   D2A52396  26.844  36.140   6.750
 7359POPC   C3A52397  26.770  36.171   7.050
 7359POPC   C4A52398  26.804  36.177   7.350
 7359POPC   C1B52399  26.534  36.196   6.450
 7359POPC   C2B52400  26.571  36.199   6.750
 7359POPC   C3B52401  26.557  36.192   7.050
 7359POPC   C4B52402  26.544  36.133   7.350
 7360POPC   NC352403  19.076  16.742   5.550
 7360POPC   PO452404  19.105  16.683   5.850
 7360POPC   GL152405  19.009  16.746   6.150
 7360POPC   GL252406  19.071  16.631   6.150
 7360POPC   C1A52407  19.085  16.742   6.450
 7360POPC   D2A52408  19.073  16.697   6.750
 7360POPC   C3A52409  19.093  16.781   7.050
 7360POPC   C4A52410  19.036  16.707   7.350
 7360POPC   C1B52411  19.135  16.510   6.450
 7360POPC   C2B52412  19.081  16.443   6.750
 7360POPC   C3B52413  19.123  16.510   7.050
 7360POPC   C4B52414  19.141  16.448   7.350
 7361POPC   NC352415  39.219  42.376   5.550
 7361POPC   PO452416  39.224  42.344   5.850
 7361POPC   GL152417  39.209  42.374   6.150
 7361POPC   GL252418  39.310  42.303   6.150
 7361POPC   C1A52419  39.263  42.296   6.450
 7361POPC   D2A52420  39.254  42.295   6.750
 7361POPC   C3A52421  39.200  42.289   7.050
 7361POPC   C4A52422  39.235  42.293   7.350
 7361POPC   C1B52423  39.460  42.315   6.450
 7361POPC   C2B52424  39.460  42.328   6.750
 7361POPC   C3B52425  39.529  42.308   7.050
 7361POPC   C4B52426  39.503  42.326   7.350
 7362POPC   NC352427   4.324  22.196   5.550
 7362POPC   PO452428   4.286  22.142   5.850
 7362POPC   GL152429   4.283  22.164   6.150
 7362POPC   GL252430   4.207  22.125   6.150
 7362POPC   C1A52431   4.340  22.178   6.450
 7362POPC   D2A52432   4.318  22.178   6.750
 7362POPC   C3A52433   4.362  22.206   7.050
 7362POPC   C4A52434   4.276  22.144   7.350
 7362POPC   C1B52435   4.061  22.190   6.450
 7362POPC   C2B52436   4.065  22.177   6.750
 7362POPC   C3B52437   4.073  22.217   7.050
 7362POPC   C4B52438   4.055  22.227   7.350
 7363POPC   NC352439  16.764  42.295   5.550
 7363POPC   PO452440  16.765  42.383   5.850
 7363POPC   GL152441  16.730  42.328   6.150
 7363POPC   GL252442  16.719  42.408   6.150
 7363POPC   C1A52443  16.706  42.341   6.450
 7363POPC   D2A52444  16.713  42.381   6.750
 7363POPC   C3A52445  16.715  42.346   7.050
 7363POPC   C4A52446  16.697  42.353   7.350
 7363POPC   C1B52447  16.639  42.596   6.450
 7363POPC   C2B52448  16.733  42.586   6.750
 7363POPC   C3B52449  16.684  42.609   7.050
 7363POPC   C4B52450  16.674  42.600   7.350
 7364POPC   NC352451  27.558  22.174   5.550
 7364POPC   PO452452  27.621  22.172   5.850
 7364POPC   GL152453  27.548  22.138   6.150
 7364POPC   GL252454  27.614  22.077   6.150
 7364POPC   C1A52455  27.576  22.117   6.450
 7364POPC   D2A52456  27.563  22.207   6.750
 7364POPC   C3A52457  27.556  22.117   7.050
 7364POPC   C4A52458  27.637  22.170   7.350
 7364POPC   C1B52459  27.705  21.911   6.450
 7364POPC   C2B52460  27.708  21.913   6.750
 7364POPC   C3B52461  27.649  21.965   7.050
 7364POPC   C4B52462  27.716  21.965   7.350
 7365POPC   NC352463   8.986  39.200   5.550
 7365POPC   PO452464   8.938  39.216   5.850
 7365POPC   GL152465   8.942  39.227   6.150
 7365POPC   GL252466   8.863  39.141   6.150
 7365POPC   C1A52467   8.977  39.201   6.450
 7365POPC   D2A52468   8.999  39.245   6.750
 7365POPC   C3A52469   8.938  39.271   7.050
 7365POPC   C4A52470   8.924  39.247   7.350
 7365POPC   C1B52471   8.788  39.137   6.450
 7365POPC   C2B52472   8.731  39.156   6.750
 7365POPC   C3B52473   8.730  39.180   7.050
 7365POPC   C4B52474   8.724  39.129   7.350
 7366POPC   NC352475  12.122  34.550   5.550
 7366POPC   PO452476  12.029  34.541   5.850
 7366POPC   GL152477  12.044  34.597   6.150
 7366POPC   GL252478  12.189  34.491   6.150
 7366POPC   C1A52479  12.122  34.615   6.450
 7366POPC   D2A52480  12.033  34.622   6.750
 7366POPC   C3A52481  12.065  34.562   7.050
 7366POPC   C4A52482  12.041  34.544   7.350
 7366POPC   C1B52483  12.239  34.362   6.450
 7366POPC   C2B52484  12.291  34.436   6.750
 7366POPC   C3B52485  12.283  34.402   7.050
 7366POPC   C4B52486  12.249  34.389   7.350
 7367POPC   NC352487  17.513   9.717   5.550
 7367POPC   PO452488  17.473   9.731   5.850
 7367POPC   GL152489  17.484   9.700   6.150
 7367POPC   GL252490  17.393   9.669   6.150
 7367POPC   C1A52491  17.524   9.733   6.450
 7367POPC   D2A52492  17.473   9.753   6.750
 7367POPC   C3A52493  17.555   9.782   7.050
 7367POPC   C4A52494  17.550   9.723   7.350
 7367POPC   C1B52495  17.256   9.675   6.450
 7367POPC   C2B52496  17.285   9.668   6.750
 7367POPC   C3B52497  17.303   9.688   7.050
 7367POPC   C4B52498  17.269   9.611   7.350
 7368POPC   NC352499   8.999  21.370   5.550
 7368POPC   PO452500   9.009  21.353   5.850
 7368POPC   GL152501   8.965  21.382   6.150
 7368POPC   GL252502   9.040  21.269   6.150
 7368POPC   C1A52503   8.975  21.346   6.450
 7368POPC   D2A52504   9.020  21.366   6.750
 7368POPC   C3A52505   8.994  21.342   7.050
 7368POPC   C4A52506   9.004  21.362   7.350
 7368POPC   C1B52507   9.099  21.149   6.450
 7368POPC   C2B52508   9.131  21.210   6.750
 7368POPC   C3B52509   9.109  21.131   7.050
 7368POPC   C4B52510   9.062  21.199   7.350
 7369POPC   NC352511  19.044  43.109   5.550
 7369POPC   PO452512  19.054  43.081   5.850
 7369POPC   GL152513  19.016  43.060   6.150
 7369POPC   GL252514  18.910  43.165   6.150
 7369POPC   C1A52515  19.047  43.081   6.450
 7369POPC   D2A52516  19.079  43.144   6.750
 7369POPC   C3A52517  19.071  43.138   7.050
 7369POPC   C4A52518  19.088  43.090   7.350
 7369POPC   C1B52519  18.804  43.181   6.450
 7369POPC   C2B52520  18.803  43.116   6.750
 7369POPC   C3B52521  18.797  43.196   7.050
 7369POPC   C4B52522  18.777  43.168   7.350
 7370POPC   NC352523  21.422  12.049   5.550
 7370POPC   PO452524  21.388  12.099   5.850
 7370POPC   GL152525  21.414  12.086   6.150
 7370POPC   GL252526  21.531  12.020   6.150
 7370POPC   C1A52527  21.435  12.090   6.450
 7370POPC   D2A52528  21.429  12.093   6.750
 7370POPC   C3A52529  21.385  12.055   7.050
 7370POPC   C4A52530  21.353  12.088   7.350
 7370POPC   C1B52531  21.603  11.984   6.450
 7370POPC   C2B52532  21.598  11.960   6.750
 7370POPC   C3B52533  21.626  11.974   7.050
 7370POPC   C4B52534  21.589  11.914   7.350
 7371POPC   NC352535  13.633  32.995   5.550
 7371POPC   PO452536  13.602  33.006   5.850
 7371POPC   GL152537  13.628  33.051   6.150
 7371POPC   GL252538  13.573  32.933   6.150
 7371POPC   C1A52539  13.616  33.036   6.450
 7371POPC   D2A52540  13.625  33.021   6.750
 7371POPC   C3A52541  13.606  33.028   7.050
 7371POPC   C4A52542  13.667  33.029   7.350
 7371POPC   C1B52543  13.613  32.787   6.450
 7371POPC   C2B52544  13.558  32.747   6.750
 7371POPC   C3B52545  13.593  32.737   7.050
 7371POPC   C4B52546  13.571  32.761   7.350
 7372POPC   NC352547   8.933  15.147   5.550
 7372POPC   PO452548   9.014  15.159   5.850
 7372POPC   GL152549   9.020  15.186   6.150
 7372POPC   GL252550   8.868  15.252   6.150
 7372POPC   C1A52551   8.982  15.185   6.450
 7372POPC   D2A52552   8.951  15.181   6.750
 7372POPC   C3A52553   8.932  15.144   7.050
 7372POPC   C4A52554   8.998  15.177   7.350
 7372POPC   C1B52555   8.861  15.361   6.450
 7372POPC   C2B52556   8.869  15.429   6.750
 7372POPC   C3B52557   8.848  15.384   7.050
 7372POPC   C4B52558   8.798  15.427   7.350
 7373POPC   NC352559  11.313  41.597   5.550
 7373POPC   PO452560  11.340  41.598   5.850
 7373POPC   GL152561  11.271  41.520   6.150
 7373POPC   GL252562  11.236  41.501   6.150
 7373POPC   C1A52563  11.290  41.586   6.450
 7373POPC   D2A52564  11.333  41.511   6.750
 7373POPC   C3A52565  11.344  41.567   7.050
 7373POPC   C4A52566  11.291  41.512   7.350
 7373POPC   C1B52567  11.176  41.358   6.450
 7373POPC   C2B52568  11.188  41.355   6.750
 7373POPC   C3B52569  11.133  41.340   7.050
 7373POPC   C4B52570  11.127  41.378   7.350
 7374POPC   NC352571  33.769  20.629   5.550
 7374POPC   PO452572  33.826  20.562   5.850
 7374POPC   GL152573  33.843  20.565   6.150
 7374POPC   GL252574  33.790  20.447   6.150
 7374POPC   C1A52575  33.838  20.643   6.450
 7374POPC   D2A52576  33.817  20.610   6.750
 7374POPC   C3A52577  33.813  20.618   7.050
 7374POPC   C4A52578  33.795  20.650   7.350
 7374POPC   C1B52579  33.813  20.359   6.450
 7374POPC   C2B52580  33.861  20.327   6.750
 7374POPC   C3B52581  33.840  20.379   7.050
 7374POPC   C4B52582  33.848  20.353   7.350
 7375POPC   NC352583  10.519  34.620   5.550
 7375POPC   PO452584  10.526  34.567   5.850
 7375POPC   GL152585  10.488  34.552   6.150
 7375POPC   GL252586  10.372  34.567   6.150
 7375POPC   C1A52587  10.486  34.600   6.450
 7375POPC   D2A52588  10.477  34.554   6.750
 7375POPC   C3A52589  10.531  34.548   7.050
 7375POPC   C4A52590  10.482  34.594   7.350
 7375POPC   C1B52591  10.282  34.598   6.450
 7375POPC   C2B52592  10.312  34.658   6.750
 7375POPC   C3B52593  10.294  34.606   7.050
 7375POPC   C4B52594  10.297  34.581   7.350
 7376POPC   NC352595  16.765  16.686   5.550
 7376POPC   PO452596  16.756  16.703   5.850
 7376POPC   GL152597  16.742  16.698   6.150
 7376POPC   GL252598  16.706  16.599   6.150
 7376POPC   C1A52599  16.746  16.781   6.450
 7376POPC   D2A52600  16.757  16.777   6.750
 7376POPC   C3A52601  16.689  16.719   7.050
 7376POPC   C4A52602  16.723  16.687   7.350
 7376POPC   C1B52603  16.763  16.470   6.450
 7376POPC   C2B52604  16.797  16.490   6.750
 7376POPC   C3B52605  16.797  16.515   7.050
 7376POPC   C4B52606  16.719  16.449   7.350
 7377POPC   NC352607  10.518  28.396   5.550
 7377POPC   PO452608  10.526  28.335   5.850
 7377POPC   GL152609  10.546  28.348   6.150
 7377POPC   GL252610  10.622  28.293   6.150
 7377POPC   C1A52611  10.558  28.361   6.450
 7377POPC   D2A52612  10.567  28.367   6.750
 7377POPC   C3A52613  10.516  28.345   7.050
 7377POPC   C4A52614  10.548  28.339   7.350
 7377POPC   C1B52615  10.730  28.212   6.450
 7377POPC   C2B52616  10.764  28.242   6.750
 7377POPC   C3B52617  10.757  28.211   7.050
 7377POPC   C4B52618  10.738  28.212   7.350
 7378POPC   NC352619  11.290  35.374   5.550
 7378POPC   PO452620  11.314  35.349   5.850
 7378POPC   GL152621  11.283  35.380   6.150
 7378POPC   GL252622  11.278  35.189   6.150
 7378POPC   C1A52623  11.260  35.342   6.450
 7378POPC   D2A52624  11.294  35.393   6.750
 7378POPC   C3A52625  11.278  35.303   7.050
 7378POPC   C4A52626  11.340  35.356   7.350
 7378POPC   C1B52627  11.207  35.088   6.450
 7378POPC   C2B52628  11.232  35.078   6.750
 7378POPC   C3B52629  11.238  35.086   7.050
 7378POPC   C4B52630  11.185  35.072   7.350
 7379POPC   NC352631   5.122  11.280   5.550
 7379POPC   PO452632   5.098  11.289   5.850
 7379POPC   GL152633   5.071  11.293   6.150
 7379POPC   GL252634   5.105  11.454   6.150
 7379POPC   C1A52635   5.051  11.325   6.450
 7379POPC   D2A52636   5.104  11.344   6.750
 7379POPC   C3A52637   5.063  11.343   7.050
 7379POPC   C4A52638   5.132  11.256   7.350
 7379POPC   C1B52639   5.151  11.521   6.450
 7379POPC   C2B52640   5.138  11.574   6.750
 7379POPC   C3B52641   5.089  11.531   7.050
 7379POPC   C4B52642   5.133  11.597   7.350
 7380POPC   NC352643  22.971  36.947   5.550
 7380POPC   PO452644  22.934  36.875   5.850
 7380POPC   GL152645  22.950  36.912   6.150
 7380POPC   GL252646  23.031  37.002   6.150
 7380POPC   C1A52647  22.977  36.899   6.450
 7380POPC   D2A52648  22.914  36.943   6.750
 7380POPC   C3A52649  22.932  36.886   7.050
 7380POPC   C4A52650  22.974  36.879   7.350
 7380POPC   C1B52651  23.040  37.143   6.450
 7380POPC   C2B52652  23.034  37.136   6.750
 7380POPC   C3B52653  23.031  37.089   7.050
 7380POPC   C4B52654  23.014  37.099   7.350
 7381POPC   NC352655  43.843   8.153   5.550
 7381POPC   PO452656  43.893   8.179   5.850
 7381POPC   GL152657  43.849   8.230   6.150
 7381POPC   GL252658  43.952   8.225   6.150
 7381POPC   C1A52659  43.840   8.234   6.450
 7381POPC   D2A52660  43.923   8.212   6.750
 7381POPC   C3A52661  43.842   8.200   7.050
 7381POPC   C4A52662  43.930   8.223   7.350
 7381POPC   C1B52663  44.070   8.268   6.450
 7381POPC   C2B52664  44.078   8.307   6.750
 7381POPC   C3B52665  44.084   8.283   7.050
 7381POPC   C4B52666  44.089   8.336   7.350
 7382POPC   NC352667  37.674  31.464   5.550
 7382POPC   PO452668  37.688  31.457   5.850
 7382POPC   GL152669  37.646  31.462   6.150
 7382POPC   GL252670  37.577  31.481   6.150
 7382POPC   C1A52671  37.670  31.433   6.450
 7382POPC   D2A52672  37.725  31.482   6.750
 7382POPC   C3A52673  37.661  31.488   7.050
 7382POPC   C4A52674  37.706  31.485   7.350
 7382POPC   C1B52675  37.470  31.384   6.450
 7382POPC   C2B52676  37.393  31.422   6.750
 7382POPC   C3B52677  37.473  31.371   7.050
 7382POPC   C4B52678  37.439  31.411   7.350
 7383POPC   NC352679   5.088  22.959   5.550
 7383POPC   PO452680   5.057  22.897   5.850
 7383POPC   GL152681   5.055  22.917   6.150
 7383POPC   GL252682   4.971  23.033   6.150
 7383POPC   C1A52683   5.101  22.936   6.450
 7383POPC   D2A52684   5.057  22.976   6.750
 7383POPC   C3A52685   5.091  22.899   7.050
 7383POPC   C4A52686   5.136  22.937   7.350
 7383POPC   C1B52687   4.857  23.079   6.450
 7383POPC   C2B52688   4.943  23.063   6.750
 7383POPC   C3B52689   4.914  23.123   7.050
 7383POPC   C4B52690   4.859  23.073   7.350
 7384POPC   NC352691  12.123   2.796   5.550
 7384POPC   PO452692  12.085   2.815   5.850
 7384POPC   GL152693  12.036   2.791   6.150
 7384POPC   GL252694  11.941   2.722   6.150
 7384POPC   C1A52695  12.035   2.755   6.450
 7384POPC   D2A52696  12.060   2.734   6.750
 7384POPC   C3A52697  12.060   2.771   7.050
 7384POPC   C4A52698  12.056   2.796   7.350
 7384POPC   C1B52699  11.804   2.686   6.450
 7384POPC   C2B52700  11.846   2.718   6.750
 7384POPC   C3B52701  11.814   2.736   7.050
 7384POPC   C4B52702  11.864   2.683   7.350
 7385POPC   NC352703  26.003  29.875   5.550
 7385POPC   PO452704  26.082  29.953   5.850
 7385POPC   GL152705  26.075  29.911   6.150
 7385POPC   GL252706  26.105  29.845   6.150
 7385POPC   C1A52707  26.045  29.945   6.450
 7385POPC   D2A52708  26.066  29.898   6.750
 7385POPC   C3A52709  26.004  29.907   7.050
 7385POPC   C4A52710  25.998  29.904   7.350
 7385POPC   C1B52711  26.168  29.696   6.450
 7385POPC   C2B52712  26.217  29.664   6.750
 7385POPC   C3B52713  26.171  29.719   7.050
 7385POPC   C4B52714  26.185  29.726   7.350
 7386POPC   NC352715  42.348  36.909   5.550
 7386POPC   PO452716  42.325  36.909   5.850
 7386POPC   GL152717  42.327  36.869   6.150
 7386POPC   GL252718  42.316  37.032   6.150
 7386POPC   C1A52719  42.374  36.865   6.450
 7386POPC   D2A52720  42.308  36.863   6.750
 7386POPC   C3A52721  42.365  36.878   7.050
 7386POPC   C4A52722  42.340  36.932   7.350
 7386POPC   C1B52723  42.322  37.134   6.450
 7386POPC   C2B52724  42.313  37.108   6.750
 7386POPC   C3B52725  42.374  37.169   7.050
 7386POPC   C4B52726  42.321  37.180   7.350
 7387POPC   NC352727  26.009  41.533   5.550
 7387POPC   PO452728  26.069  41.579   5.850
 7387POPC   GL152729  26.051  41.510   6.150
 7387POPC   GL252730  25.963  41.487   6.150
 7387POPC   C1A52731  26.068  41.537   6.450
 7387POPC   D2A52732  26.059  41.524   6.750
 7387POPC   C3A52733  26.017  41.554   7.050
 7387POPC   C4A52734  26.073  41.520   7.350
 7387POPC   C1B52735  25.836  41.408   6.450
 7387POPC   C2B52736  25.789  41.451   6.750
 7387POPC   C3B52737  25.852  41.390   7.050
 7387POPC   C4B52738  25.850  41.409   7.350
 7388POPC   NC352739   1.252  31.427   5.550
 7388POPC   PO452740   1.204  31.438   5.850
 7388POPC   GL152741   1.243  31.443   6.150
 7388POPC   GL252742   1.067  31.558   6.150
 7388POPC   C1A52743   1.242  31.511   6.450
 7388POPC   D2A52744   1.170  31.512   6.750
 7388POPC   C3A52745   1.221  31.487   7.050
 7388POPC   C4A52746   1.229  31.439   7.350
 7388POPC   C1B52747   1.026  31.624   6.450
 7388POPC   C2B52748   0.962  31.581   6.750
 7388POPC   C3B52749   1.016  31.533   7.050
 7388POPC   C4B52750   0.962  31.591   7.350
 7389POPC   NC352751  33.044   8.999   5.550
 7389POPC   PO452752  32.989   8.984   5.850
 7389POPC   GL152753  33.020   8.961   6.150
 7389POPC   GL252754  33.170   8.911   6.150
 7389POPC   C1A52755  32.989   8.991   6.450
 7389POPC   D2A52756  33.038   8.999   6.750
 7389POPC   C3A52757  33.068   8.960   7.050
 7389POPC   C4A52758  33.030   8.930   7.350
 7389POPC   C1B52759  33.245   8.851   6.450
 7389POPC   C2B52760  33.224   8.801   6.750
 7389POPC   C3B52761  33.210   8.841   7.050
 7389POPC   C4B52762  33.230   8.803   7.350
 7390POPC   NC352763   0.434  15.971   5.550
 7390POPC   PO452764   0.471  15.984   5.850
 7390POPC   GL152765   0.393  15.945   6.150
 7390POPC   GL252766   0.434  15.878   6.150
 7390POPC   C1A52767   0.476  15.911   6.450
 7390POPC   D2A52768   0.474  15.914   6.750
 7390POPC   C3A52769   0.415  15.961   7.050
 7390POPC   C4A52770   0.418  15.931   7.350
 7390POPC   C1B52771   0.506  15.708   6.450
 7390POPC   C2B52772   0.458  15.736   6.750
 7390POPC   C3B52773   0.452  15.677   7.050
 7390POPC   C4B52774   0.432  15.660   7.350
 7391POPC   NC352775  14.413  33.794   5.550
 7391POPC   PO452776  14.417  33.753   5.850
 7391POPC   GL152777  14.406  33.760   6.150
 7391POPC   GL252778  14.568  33.765   6.150
 7391POPC   C1A52779  14.434  33.779   6.450
 7391POPC   D2A52780  14.450  33.781   6.750
 7391POPC   C3A52781  14.439  33.773   7.050
 7391POPC   C4A52782  14.421  33.804   7.350
 7391POPC   C1B52783  14.680  33.759   6.450
 7391POPC   C2B52784  14.606  33.810   6.750
 7391POPC   C3B52785  14.644  33.834   7.050
 7391POPC   C4B52786  14.671  33.773   7.350
 7392POPC   NC352787  22.962  30.742   5.550
 7392POPC   PO452788  22.962  30.658   5.850
 7392POPC   GL152789  22.958  30.730   6.150
 7392POPC   GL252790  22.824  30.841   6.150
 7392POPC   C1A52791  22.922  30.711   6.450
 7392POPC   D2A52792  22.914  30.725   6.750
 7392POPC   C3A52793  22.953  30.683   7.050
 7392POPC   C4A52794  22.935  30.710   7.350
 7392POPC   C1B52795  22.767  30.899   6.450
 7392POPC   C2B52796  22.800  30.933   6.750
 7392POPC   C3B52797  22.843  30.949   7.050
 7392POPC   C4B52798  22.784  30.906   7.350
 7393POPC   NC352799  24.508  18.310   5.550
 7393POPC   PO452800  24.441  18.239   5.850
 7393POPC   GL152801  24.534  18.237   6.150
 7393POPC   GL252802  24.559  18.167   6.150
 7393POPC   C1A52803  24.441  18.234   6.450
 7393POPC   D2A52804  24.477  18.293   6.750
 7393POPC   C3A52805  24.491  18.288   7.050
 7393POPC   C4A52806  24.451  18.331   7.350
 7393POPC   C1B52807  24.665  18.136   6.450
 7393POPC   C2B52808  24.678  18.103   6.750
 7393POPC   C3B52809  24.665  18.082   7.050
 7393POPC   C4B52810  24.694  18.072   7.350
 7394POPC   NC352811  29.186   1.176   5.550
 7394POPC   PO452812  29.099   1.258   5.850
 7394POPC   GL152813  29.112   1.186   6.150
 7394POPC   GL252814  29.144   1.299   6.150
 7394POPC   C1A52815  29.170   1.222   6.450
 7394POPC   D2A52816  29.141   1.221   6.750
 7394POPC   C3A52817  29.099   1.259   7.050
 7394POPC   C4A52818  29.140   1.242   7.350
 7394POPC   C1B52819  29.182   1.484   6.450
 7394POPC   C2B52820  29.120   1.438   6.750
 7394POPC   C3B52821  29.110   1.470   7.050
 7394POPC   C4B52822  29.148   1.418   7.350
 7395POPC   NC352823  29.111  18.297   5.550
 7395POPC   PO452824  29.108  18.238   5.850
 7395POPC   GL152825  29.147  18.244   6.150
 7395POPC   GL252826  29.246  18.376   6.150
 7395POPC   C1A52827  29.171  18.257   6.450
 7395POPC   D2A52828  29.185  18.241   6.750
 7395POPC   C3A52829  29.105  18.283   7.050
 7395POPC   C4A52830  29.096  18.289   7.350
 7395POPC   C1B52831  29.373  18.395   6.450
 7395POPC   C2B52832  29.410  18.345   6.750
 7395POPC   C3B52833  29.381  18.395   7.050
 7395POPC   C4B52834  29.390  18.425   7.350
 7396POPC   NC352835  10.571  14.362   5.550
 7396POPC   PO452836  10.489  14.417   5.850
 7396POPC   GL152837  10.548  14.392   6.150
 7396POPC   GL252838  10.424  14.433   6.150
 7396POPC   C1A52839  10.518  14.404   6.450
 7396POPC   D2A52840  10.490  14.433   6.750
 7396POPC   C3A52841  10.514  14.410   7.050
 7396POPC   C4A52842  10.558  14.393   7.350
 7396POPC   C1B52843  10.230  14.433   6.450
 7396POPC   C2B52844  10.253  14.418   6.750
 7396POPC   C3B52845  10.247  14.403   7.050
 7396POPC   C4B52846  10.307  14.452   7.350
 7397POPC   NC352847  43.124   6.598   5.550
 7397POPC   PO452848  43.157   6.688   5.850
 7397POPC   GL152849  43.150   6.641   6.150
 7397POPC   GL252850  42.965   6.627   6.150
 7397POPC   C1A52851  43.110   6.680   6.450
 7397POPC   D2A52852  43.152   6.598   6.750
 7397POPC   C3A52853  43.070   6.635   7.050
 7397POPC   C4A52854  43.144   6.651   7.350
 7397POPC   C1B52855  42.909   6.580   6.450
 7397POPC   C2B52856  42.874   6.563   6.750
 7397POPC   C3B52857  42.843   6.532   7.050
 7397POPC   C4B52858  42.885   6.566   7.350
 7398POPC   NC352859  12.105  39.243   5.550
 7398POPC   PO452860  12.104  39.235   5.850
 7398POPC   GL152861  12.073  39.203   6.150
 7398POPC   GL252862  12.216  39.198   6.150
 7398POPC   C1A52863  12.126  39.247   6.450
 7398POPC   D2A52864  12.047  39.251   6.750
 7398POPC   C3A52865  12.079  39.231   7.050
 7398POPC   C4A52866  12.095  39.208   7.350
 7398POPC   C1B52867  12.308  39.087   6.450
 7398POPC   C2B52868  12.250  39.142   6.750
 7398POPC   C3B52869  12.291  39.061   7.050
 7398POPC   C4B52870  12.252  39.119   7.350
 7399POPC   NC352871  33.774   1.969   5.550
 7399POPC   PO452872  33.771   2.026   5.850
 7399POPC   GL152873  33.774   1.984   6.150
 7399POPC   GL252874  33.879   2.130   6.150
 7399POPC   C1A52875  33.785   2.022   6.450
 7399POPC   D2A52876  33.793   2.029   6.750
 7399POPC   C3A52877  33.846   2.032   7.050
 7399POPC   C4A52878  33.794   2.028   7.350
 7399POPC   C1B52879  33.928   2.230   6.450
 7399POPC   C2B52880  33.878   2.179   6.750
 7399POPC   C3B52881  33.912   2.263   7.050
 7399POPC   C4B52882  33.894   2.193   7.350
 7400POPC   NC352883  42.319   0.432   5.550
 7400POPC   PO452884  42.299   0.477   5.850
 7400POPC   GL152885  42.301   0.440   6.150
 7400POPC   GL252886  42.373   0.573   6.150
 7400POPC   C1A52887  42.344   0.415   6.450
 7400POPC   D2A52888  42.292   0.487   6.750
 7400POPC   C3A52889  42.321   0.428   7.050
 7400POPC   C4A52890  42.338   0.416   7.350
 7400POPC   C1B52891  42.432   0.670   6.450
 7400POPC   C2B52892  42.394   0.644   6.750
 7400POPC   C3B52893  42.486   0.632   7.050
 7400POPC   C4B52894  42.476   0.621   7.350
 7401POPC   NC352895  12.095  40.815   5.550
 7401POPC   PO452896  12.048  40.812   5.850
 7401POPC   GL152897  12.091  40.817   6.150
 7401POPC   GL252898  12.092  40.867   6.150
 7401POPC   C1A52899  12.038  40.751   6.450
 7401POPC   D2A52900  12.062  40.754   6.750
 7401POPC   C3A52901  12.047  40.779   7.050
 7401POPC   C4A52902  12.092  40.744   7.350
 7401POPC   C1B52903  12.110  41.033   6.450
 7401POPC   C2B52904  12.123  41.033   6.750
 7401POPC   C3B52905  12.088  41.059   7.050
 7401POPC   C4B52906  12.127  41.061   7.350
 7402POPC   NC352907   6.607   7.409   5.550
 7402POPC   PO452908   6.692   7.458   5.850
 7402POPC   GL152909   6.665   7.428   6.150
 7402POPC   GL252910   6.809   7.361   6.150
 7402POPC   C1A52911   6.642   7.413   6.450
 7402POPC   D2A52912   6.629   7.429   6.750
 7402POPC   C3A52913   6.620   7.432   7.050
 7402POPC   C4A52914   6.687   7.439   7.350
 7402POPC   C1B52915   6.850   7.353   6.450
 7402POPC   C2B52916   6.893   7.291   6.750
 7402POPC   C3B52917   6.899   7.359   7.050
 7402POPC   C4B52918   6.909   7.328   7.350
 7403POPC   NC352919   1.964  44.669   5.550
 7403POPC   PO452920   1.998  44.689   5.850
 7403POPC   GL152921   2.012  44.673   6.150
 7403POPC   GL252922   2.105  44.626   6.150
 7403POPC   C1A52923   2.032  44.673   6.450
 7403POPC   D2A52924   1.945  44.700   6.750
 7403POPC   C3A52925   2.034  44.614   7.050
 7403POPC   C4A52926   2.017  44.618   7.350
 7403POPC   C1B52927   2.269  44.709   6.450
 7403POPC   C2B52928   2.214  44.695   6.750
 7403POPC   C3B52929   2.192  44.702   7.050
 7403POPC   C4B52930   2.253  44.685   7.350
 7404POPC   NC352931  16.710  36.129   5.550
 7404POPC   PO452932  16.744  36.143   5.850
 7404POPC   GL152933  16.718  36.092   6.150
 7404POPC   GL252934  16.625  36.011   6.150
 7404POPC   C1A52935  16.685  36.175   6.450
 7404POPC   D2A52936  16.719  36.143   6.750
 7404POPC   C3A52937  16.729  36.156   7.050
 7404POPC   C4A52938  16.699  36.091   7.350
 7404POPC   C1B52939  16.511  35.997   6.450
 7404POPC   C2B52940  16.544  35.967   6.750
 7404POPC   C3B52941  16.567  35.970   7.050
 7404POPC   C4B52942  16.567  35.988   7.350
 7405POPC   NC352943   9.727   6.615   5.550
 7405POPC   PO452944   9.707   6.609   5.850
 7405POPC   GL152945   9.770   6.681   6.150
 7405POPC   GL252946   9.816   6.571   6.150
 7405POPC   C1A52947   9.752   6.619   6.450
 7405POPC   D2A52948   9.722   6.668   6.750
 7405POPC   C3A52949   9.711   6.661   7.050
 7405POPC   C4A52950   9.735   6.658   7.350
 7405POPC   C1B52951   9.974   6.477   6.450
 7405POPC   C2B52952   9.939   6.447   6.750
 7405POPC   C3B52953   9.906   6.483   7.050
 7405POPC   C4B52954   9.950   6.450   7.350
 7406POPC   NC352955  24.521   5.102   5.550
 7406POPC   PO452956  24.510   5.112   5.850
 7406POPC   GL152957  24.487   5.124   6.150
 7406POPC   GL252958  24.446   4.982   6.150
 7406POPC   C1A52959  24.477   5.109   6.450
 7406POPC   D2A52960  24.447   5.069   6.750
 7406POPC   C3A52961  24.539   5.072   7.050
 7406POPC   C4A52962  24.496   5.053   7.350
 7406POPC   C1B52963  24.434   4.881   6.450
 7406POPC   C2B52964  24.509   4.854   6.750
 7406POPC   C3B52965  24.432   4.872   7.050
 7406POPC   C4B52966  24.435   4.819   7.350
 7407POPC   NC352967  30.728   8.962   5.550
 7407POPC   PO452968  30.663   8.927   5.850
 7407POPC   GL152969  30.664   8.959   6.150
 7407POPC   GL252970  30.597   9.053   6.150
 7407POPC   C1A52971  30.703   8.923   6.450
 7407POPC   D2A52972  30.683   8.982   6.750
 7407POPC   C3A52973  30.729   8.928   7.050
 7407POPC   C4A52974  30.714   8.977   7.350
 7407POPC   C1B52975  30.499   9.126   6.450
 7407POPC   C2B52976  30.475   9.107   6.750
 7407POPC   C3B52977  30.456   9.091   7.050
 7407POPC   C4B52978  30.520   9.055   7.350
 7408POPC   NC352979  25.233   7.449   5.550
 7408POPC   PO452980  25.280   7.383   5.850
 7408POPC   GL152981  25.290   7.404   6.150
 7408POPC   GL252982  25.228   7.342   6.150
 7408POPC   C1A52983  25.285   7.425   6.450
 7408POPC   D2A52984  25.290   7.454   6.750
 7408POPC   C3A52985  25.233   7.458   7.050
 7408POPC   C4A52986  25.248   7.466   7.350
 7408POPC   C1B52987  25.140   7.191   6.450
 7408POPC   C2B52988  25.164   7.224   6.750
 7408POPC   C3B52989  25.193   7.201   7.050
 7408POPC   C4B52990  25.177   7.156   7.350
 7409POPC   NC352991  42.311  32.293   5.550
 7409POPC   PO452992  42.378  32.280   5.850
 7409POPC   GL152993  42.311  32.201   6.150
 7409POPC   GL252994  42.361  32.103   6.150
 7409POPC   C1A52995  42.330  32.212   6.450
 7409POPC   D2A52996  42.377  32.280   6.750
 7409POPC   C3A52997  42.352  32.236   7.050
 7409POPC   C4A52998  42.314  32.271   7.350
 7409POPC   C1B52999  42.504  32.092   6.450
 7409POPC   C2B53000  42.515  31.998   6.750
 7409POPC   C3B53001  42.481  32.027   7.050
 7409POPC   C4B53002  42.518  32.028   7.350
 7410POPC   NC353003  23.728  33.014   5.550
 7410POPC   PO453004  23.683  33.071   5.850
 7410POPC   GL153005  23.724  32.985   6.150
 7410POPC   GL253006  23.781  33.090   6.150
 7410POPC   C1A53007  23.719  33.047   6.450
 7410POPC   D2A53008  23.714  33.060   6.750
 7410POPC   C3A53009  23.680  32.977   7.050
 7410POPC   C4A53010  23.735  32.992   7.350
 7410POPC   C1B53011  23.819  33.229   6.450
 7410POPC   C2B53012  23.888  33.209   6.750
 7410POPC   C3B53013  23.861  33.210   7.050
 7410POPC   C4B53014  23.880  33.255   7.350
 7411POPC   NC353015  12.865  37.729   5.550
 7411POPC   PO453016  12.814  37.670   5.850
 7411POPC   GL153017  12.832  37.637   6.150
 7411POPC   GL253018  12.849  37.555   6.150
 7411POPC   C1A53019  12.810  37.660   6.450
 7411POPC   D2A53020  12.896  37.697   6.750
 7411POPC   C3A53021  12.863  37.719   7.050
 7411POPC   C4A53022  12.861  37.633   7.350
 7411POPC   C1B53023  12.897  37.393   6.450
 7411POPC   C2B53024  12.895  37.451   6.750
 7411POPC   C3B53025  12.809  37.437   7.050
 7411POPC   C4B53026  12.852  37.402   7.350
 7412POPC   NC353027  41.512  36.919   5.550
 7412POPC   PO453028  41.511  36.891   5.850
 7412POPC   GL153029  41.577  36.863   6.150
 7412POPC   GL253030  41.638  36.821   6.150
 7412POPC   C1A53031  41.540  36.909   6.450
 7412POPC   D2A53032  41.557  36.864   6.750
 7412POPC   C3A53033  41.586  36.855   7.050
 7412POPC   C4A53034  41.582  36.879   7.350
 7412POPC   C1B53035  41.778  36.791   6.450
 7412POPC   C2B53036  41.823  36.781   6.750
 7412POPC   C3B53037  41.778  36.780   7.050
 7412POPC   C4B53038  41.810  36.811   7.350
 7413POPC   NC353039  26.070   2.716   5.550
 7413POPC   PO453040  26.017   2.723   5.850
 7413POPC   GL153041  25.997   2.719   6.150
 7413POPC   GL253042  25.948   2.677   6.150
 7413POPC   C1A53043  26.017   2.776   6.450
 7413POPC   D2A53044  26.019   2.776   6.750
 7413POPC   C3A53045  26.084   2.793   7.050
 7413POPC   C4A53046  26.024   2.738   7.350
 7413POPC   C1B53047  25.792   2.633   6.450
 7413POPC   C2B53048  25.836   2.694   6.750
 7413POPC   C3B53049  25.770   2.694   7.050
 7413POPC   C4B53050  25.831   2.699   7.350
 7414POPC   NC353051   1.958  40.808   5.550
 7414POPC   PO453052   2.027  40.789   5.850
 7414POPC   GL153053   2.040  40.800   6.150
 7414POPC   GL253054   2.022  40.918   6.150
 7414POPC   C1A53055   2.032  40.800   6.450
 7414POPC   D2A53056   1.989  40.811   6.750
 7414POPC   C3A53057   1.971  40.742   7.050
 7414POPC   C4A53058   1.993  40.814   7.350
 7414POPC   C1B53059   2.112  41.015   6.450
 7414POPC   C2B53060   2.156  40.995   6.750
 7414POPC   C3B53061   2.139  40.987   7.050
 7414POPC   C4B53062   2.085  40.967   7.350
 7415POPC   NC353063  30.716  41.510   5.550
 7415POPC   PO453064  30.740  41.518   5.850
 7415POPC   GL153065  30.649  41.558   6.150
 7415POPC   GL253066  30.866  41.613   6.150
 7415POPC   C1A53067  30.694  41.521   6.450
 7415POPC   D2A53068  30.703  41.524   6.750
 7415POPC   C3A53069  30.656  41.510   7.050
 7415POPC   C4A53070  30.656  41.525   7.350
 7415POPC   C1B53071  30.969  41.580   6.450
 7415POPC   C2B53072  30.918  41.547   6.750
 7415POPC   C3B53073  30.917  41.626   7.050
 7415POPC   C4B53074  30.950  41.641   7.350
 7416POPC   NC353075   5.833  36.860   5.550
 7416POPC   PO453076   5.865  36.895   5.850
 7416POPC   GL153077   5.871  36.953   6.150
 7416POPC   GL253078   5.934  37.067   6.150
 7416POPC   C1A53079   5.854  36.868   6.450
 7416POPC   D2A53080   5.829  36.925   6.750
 7416POPC   C3A53081   5.911  36.889   7.050
 7416POPC   C4A53082   5.858  36.898   7.350
 7416POPC   C1B53083   5.941  37.195   6.450
 7416POPC   C2B53084   5.947  37.134   6.750
 7416POPC   C3B53085   5.898  37.169   7.050
 7416POPC   C4B53086   5.933  37.154   7.350
 7417POPC   NC353087  24.523   8.224   5.550
 7417POPC   PO453088  24.457   8.234   5.850
 7417POPC   GL153089  24.527   8.176   6.150
 7417POPC   GL253090  24.548   8.083   6.150
 7417POPC   C1A53091  24.533   8.225   6.450
 7417POPC   D2A53092  24.538   8.160   6.750
 7417POPC   C3A53093  24.524   8.216   7.050
 7417POPC   C4A53094  24.482   8.179   7.350
 7417POPC   C1B53095  24.628   8.021   6.450
 7417POPC   C2B53096  24.580   7.943   6.750
 7417POPC   C3B53097  24.557   7.996   7.050
 7417POPC   C4B53098  24.623   7.930   7.350
 7418POPC   NC353099  12.119  30.655   5.550
 7418POPC   PO453100  12.090  30.742   5.850
 7418POPC   GL153101  12.108  30.725   6.150
 7418POPC   GL253102  12.022  30.597   6.150
 7418POPC   C1A53103  12.056  30.699   6.450
 7418POPC   D2A53104  12.106  30.724   6.750
 7418POPC   C3A53105  12.032  30.683   7.050
 7418POPC   C4A53106  12.104  30.684   7.350
 7418POPC   C1B53107  12.072  30.416   6.450
 7418POPC   C2B53108  12.044  30.418   6.750
 7418POPC   C3B53109  12.047  30.449   7.050
 7418POPC   C4B53110  12.021  30.419   7.350
 7419POPC   NC353111  39.996  17.505   5.550
 7419POPC   PO453112  39.959  17.501   5.850
 7419POPC   GL153113  40.024  17.485   6.150
 7419POPC   GL253114  39.983  17.634   6.150
 7419POPC   C1A53115  40.001  17.529   6.450
 7419POPC   D2A53116  40.041  17.516   6.750
 7419POPC   C3A53117  39.980  17.511   7.050
 7419POPC   C4A53118  39.968  17.518   7.350
 7419POPC   C1B53119  39.869  17.720   6.450
 7419POPC   C2B53120  39.855  17.745   6.750
 7419POPC   C3B53121  39.888  17.762   7.050
 7419POPC   C4B53122  39.831  17.721   7.350
 7420POPC   NC353123  36.113  10.520   5.550
 7420POPC   PO453124  36.111  10.485   5.850
 7420POPC   GL153125  36.099  10.566   6.150
 7420POPC   GL253126  36.232  10.510   6.150
 7420POPC   C1A53127  36.156  10.491   6.450
 7420POPC   D2A53128  36.118  10.528   6.750
 7420POPC   C3A53129  36.101  10.526   7.050
 7420POPC   C4A53130  36.151  10.502   7.350
 7420POPC   C1B53131  36.392  10.594   6.450
 7420POPC   C2B53132  36.369  10.564   6.750
 7420POPC   C3B53133  36.417  10.575   7.050
 7420POPC   C4B53134  36.351  10.543   7.350
 7421POPC   NC353135  29.924   9.753   5.550
 7421POPC   PO453136  29.905   9.787   5.850
 7421POPC   GL153137  29.925   9.789   6.150
 7421POPC   GL253138  29.970   9.642   6.150
 7421POPC   C1A53139  29.959   9.713   6.450
 7421POPC   D2A53140  29.967   9.784   6.750
 7421POPC   C3A53141  29.921   9.722   7.050
 7421POPC   C4A53142  29.959   9.743   7.350
 7421POPC   C1B53143  30.014   9.495   6.450
 7421POPC   C2B53144  29.965   9.497   6.750
 7421POPC   C3B53145  29.965   9.468   7.050
 7421POPC   C4B53146  30.005   9.484   7.350
 7422POPC   NC353147  10.484   6.666   5.550
 7422POPC   PO453148  10.559   6.661   5.850
 7422POPC   GL153149  10.517   6.598   6.150
 7422POPC   GL253150  10.511   6.785   6.150
 7422POPC   C1A53151  10.509   6.650   6.450
 7422POPC   D2A53152  10.562   6.664   6.750
 7422POPC   C3A53153  10.516   6.663   7.050
 7422POPC   C4A53154  10.494   6.661   7.350
 7422POPC   C1B53155  10.536   6.913   6.450
 7422POPC   C2B53156  10.500   6.846   6.750
 7422POPC   C3B53157  10.510   6.906   7.050
 7422POPC   C4B53158  10.490   6.887   7.350
 7423POPC   NC353159  29.101  15.156   5.550
 7423POPC   PO453160  29.103  15.209   5.850
 7423POPC   GL153161  29.193  15.149   6.150
 7423POPC   GL253162  29.227  15.060   6.150
 7423POPC   C1A53163  29.134  15.165   6.450
 7423POPC   D2A53164  29.154  15.155   6.750
 7423POPC   C3A53165  29.154  15.163   7.050
 7423POPC   C4A53166  29.160  15.134   7.350
 7423POPC   C1B53167  29.338  15.042   6.450
 7423POPC   C2B53168  29.300  14.988   6.750
 7423POPC   C3B53169  29.366  15.052   7.050
 7423POPC   C4B53170  29.313  14.989   7.350
 7424POPC   NC353171  44.642   2.745   5.550
 7424POPC   PO453172  44.655   2.798   5.850
 7424POPC   GL153173  44.665   2.809   6.150
 7424POPC   GL253174  44.503   2.761   6.150
 7424POPC   C1A53175  44.646   2.741   6.450
 7424POPC   D2A53176  44.614   2.719   6.750
 7424POPC   C3A53177  44.637   2.716   7.050
 7424POPC   C4A53178  44.618   2.750   7.350
 7424POPC   C1B53179  44.379   2.738   6.450
 7424POPC   C2B53180  44.390   2.746   6.750
 7424POPC   C3B53181  44.458   2.742   7.050
 7424POPC   C4B53182  44.465   2.771   7.350
 7425POPC   NC353183  18.291   9.784   5.550
 7425POPC   PO453184  18.327   9.752   5.850
 7425POPC   GL153185  18.235   9.759   6.150
 7425POPC   GL253186  18.433   9.771   6.150
 7425POPC   C1A53187  18.318   9.749   6.450
 7425POPC   D2A53188  18.247   9.783   6.750
 7425POPC   C3A53189  18.298   9.740   7.050
 7425POPC   C4A53190  18.257   9.780   7.350
 7425POPC   C1B53191  18.482   9.775   6.450
 7425POPC   C2B53192  18.560   9.836   6.750
 7425POPC   C3B53193  18.490   9.810   7.050
 7425POPC   C4B53194  18.483   9.778   7.350
 7426POPC   NC353195  18.303  37.663   5.550
 7426POPC   PO453196  18.331  37.716   5.850
 7426POPC   GL153197  18.317  37.711   6.150
 7426POPC   GL253198  18.151  37.729   6.150
 7426POPC   C1A53199  18.244  37.702   6.450
 7426POPC   D2A53200  18.326  37.716   6.750
 7426POPC   C3A53201  18.321  37.715   7.050
 7426POPC   C4A53202  18.289  37.717   7.350
 7426POPC   C1B53203  18.109  37.868   6.450
 7426POPC   C2B53204  18.143  37.876   6.750
 7426POPC   C3B53205  18.145  37.892   7.050
 7426POPC   C4B53206  18.126  37.832   7.350
 7427POPC   NC353207  23.706   7.427   5.550
 7427POPC   PO453208  23.716   7.455   5.850
 7427POPC   GL153209  23.735   7.371   6.150
 7427POPC   GL253210  23.719   7.340   6.150
 7427POPC   C1A53211  23.676   7.441   6.450
 7427POPC   D2A53212  23.678   7.430   6.750
 7427POPC   C3A53213  23.675   7.376   7.050
 7427POPC   C4A53214  23.673   7.387   7.350
 7427POPC   C1B53215  23.708   7.163   6.450
 7427POPC   C2B53216  23.684   7.174   6.750
 7427POPC   C3B53217  23.701   7.211   7.050
 7427POPC   C4B53218  23.674   7.150   7.350
 7428POPC   NC353219  19.058  36.860   5.550
 7428POPC   PO453220  19.100  36.888   5.850
 7428POPC   GL153221  19.096  36.895   6.150
 7428POPC   GL253222  19.027  36.833   6.150
 7428POPC   C1A53223  19.036  36.868   6.450
 7428POPC   D2A53224  19.015  36.861   6.750
 7428POPC   C3A53225  19.014  36.873   7.050
 7428POPC   C4A53226  19.058  36.869   7.350
 7428POPC   C1B53227  18.963  36.696   6.450
 7428POPC   C2B53228  18.895  36.729   6.750
 7428POPC   C3B53229  18.920  36.671   7.050
 7428POPC   C4B53230  18.893  36.671   7.350
 7429POPC   NC353231  37.719  32.282   5.550
 7429POPC   PO453232  37.705  32.233   5.850
 7429POPC   GL153233  37.670  32.267   6.150
 7429POPC   GL253234  37.591  32.237   6.150
 7429POPC   C1A53235  37.654  32.270   6.450
 7429POPC   D2A53236  37.634  32.239   6.750
 7429POPC   C3A53237  37.695  32.297   7.050
 7429POPC   C4A53238  37.642  32.219   7.350
 7429POPC   C1B53239  37.493  32.131   6.450
 7429POPC   C2B53240  37.413  32.173   6.750
 7429POPC   C3B53241  37.493  32.169   7.050
 7429POPC   C4B53242  37.411  32.202   7.350
 7430POPC   NC353243  14.450  12.062   5.550
 7430POPC   PO453244  14.354  12.061   5.850
 7430POPC   GL153245  14.425  12.093   6.150
 7430POPC   GL253246  14.376  11.994   6.150
 7430POPC   C1A53247  14.394  12.042   6.450
 7430POPC   D2A53248  14.402  12.046   6.750
 7430POPC   C3A53249  14.363  12.075   7.050
 7430POPC   C4A53250  14.447  12.029   7.350
 7430POPC   C1B53251  14.336  11.857   6.450
 7430POPC   C2B53252  14.372  11.821   6.750
 7430POPC   C3B53253  14.360  11.856   7.050
 7430POPC   C4B53254  14.324  11.806   7.350
 7431POPC   NC353255   2.734  44.694   5.550
 7431POPC   PO453256   2.775  44.627   5.850
 7431POPC   GL153257   2.800  44.711   6.150
 7431POPC   GL253258   2.635  44.603   6.150
 7431POPC   C1A53259   2.730  44.668   6.450
 7431POPC   D2A53260   2.749  44.647   6.750
 7431POPC   C3A53261   2.763  44.619   7.050
 7431POPC   C4A53262   2.718  44.676   7.350
 7431POPC   C1B53263   2.560  44.538   6.450
 7431POPC   C2B53264   2.551  44.556   6.750
 7431POPC   C3B53265   2.568  44.529   7.050
 7431POPC   C4B53266   2.543  44.533   7.350
 7432POPC   NC353267   3.501  18.241   5.550
 7432POPC   PO453268   3.587  18.270   5.850
 7432POPC   GL153269   3.512  18.331   6.150
 7432POPC   GL253270   3.505  18.147   6.150
 7432POPC   C1A53271   3.498  18.316   6.450
 7432POPC   D2A53272   3.534  18.304   6.750
 7432POPC   C3A53273   3.547  18.302   7.050
 7432POPC   C4A53274   3.517  18.302   7.350
 7432POPC   C1B53275   3.401  18.040   6.450
 7432POPC   C2B53276   3.406  18.113   6.750
 7432POPC   C3B53277   3.383  18.080   7.050
 7432POPC   C4B53278   3.434  18.085   7.350
 7433POPC   NC353279   9.709  27.616   5.550
 7433POPC   PO453280   9.774  27.617   5.850
 7433POPC   GL153281   9.729  27.603   6.150
 7433POPC   GL253282   9.779  27.424   6.150
 7433POPC   C1A53283   9.759  27.567   6.450
 7433POPC   D2A53284   9.752  27.631   6.750
 7433POPC   C3A53285   9.698  27.593   7.050
 7433POPC   C4A53286   9.772  27.597   7.350
 7433POPC   C1B53287   9.686  27.336   6.450
 7433POPC   C2B53288   9.761  27.372   6.750
 7433POPC   C3B53289   9.716  27.372   7.050
 7433POPC   C4B53290   9.708  27.323   7.350
 7434POPC   NC353291  31.517  32.269   5.550
 7434POPC   PO453292  31.449  32.227   5.850
 7434POPC   GL153293  31.428  32.229   6.150
 7434POPC   GL253294  31.355  32.354   6.150
 7434POPC   C1A53295  31.518  32.210   6.450
 7434POPC   D2A53296  31.427  32.272   6.750
 7434POPC   C3A53297  31.433  32.268   7.050
 7434POPC   C4A53298  31.492  32.284   7.350
 7434POPC   C1B53299  31.334  32.449   6.450
 7434POPC   C2B53300  31.290  32.416   6.750
 7434POPC   C3B53301  31.344  32.479   7.050
 7434POPC   C4B53302  31.323  32.449   7.350
 7435POPC   NC353303   5.834  28.388   5.550
 7435POPC   PO453304   5.915  28.377   5.850
 7435POPC   GL153305   5.821  28.397   6.150
 7435POPC   GL253306   5.937  28.329   6.150
 7435POPC   C1A53307   5.867  28.341   6.450
 7435POPC   D2A53308   5.835  28.399   6.750
 7435POPC   C3A53309   5.858  28.404   7.050
 7435POPC   C4A53310   5.881  28.342   7.350
 7435POPC   C1B53311   6.104  28.300   6.450
 7435POPC   C2B53312   6.127  28.213   6.750
 7435POPC   C3B53313   6.106  28.220   7.050
 7435POPC   C4B53314   6.127  28.290   7.350
 7436POPC   NC353315  36.123  15.200   5.550
 7436POPC   PO453316  36.120  15.222   5.850
 7436POPC   GL153317  36.094  15.171   6.150
 7436POPC   GL253318  36.062  15.045   6.150
 7436POPC   C1A53319  36.132  15.200   6.450
 7436POPC   D2A53320  36.144  15.216   6.750
 7436POPC   C3A53321  36.100  15.139   7.050
 7436POPC   C4A53322  36.132  15.171   7.350
 7436POPC   C1B53323  35.989  14.985   6.450
 7436POPC   C2B53324  35.974  14.969   6.750
 7436POPC   C3B53325  35.950  15.041   7.050
 7436POPC   C4B53326  35.924  14.985   7.350
 7437POPC   NC353327  29.145  29.146   5.550
 7437POPC   PO453328  29.133  29.137   5.850
 7437POPC   GL153329  29.182  29.185   6.150
 7437POPC   GL253330  29.161  29.024   6.150
 7437POPC   C1A53331  29.110  29.125   6.450
 7437POPC   D2A53332  29.191  29.105   6.750
 7437POPC   C3A53333  29.098  29.123   7.050
 7437POPC   C4A53334  29.195  29.167   7.350
 7437POPC   C1B53335  29.152  28.932   6.450
 7437POPC   C2B53336  29.164  28.855   6.750
 7437POPC   C3B53337  29.219  28.907   7.050
 7437POPC   C4B53338  29.184  28.913   7.350
 7438POPC   NC353339  27.620  26.858   5.550
 7438POPC   PO453340  27.596  26.798   5.850
 7438POPC   GL153341  27.608  26.786   6.150
 7438POPC   GL253342  27.714  26.769   6.150
 7438POPC   C1A53343  27.587  26.818   6.450
 7438POPC   D2A53344  27.607  26.809   6.750
 7438POPC   C3A53345  27.640  26.832   7.050
 7438POPC   C4A53346  27.611  26.864   7.350
 7438POPC   C1B53347  27.854  26.804   6.450
 7438POPC   C2B53348  27.871  26.774   6.750
 7438POPC   C3B53349  27.803  26.733   7.050
 7438POPC   C4B53350  27.807  26.769   7.350
 7439POPC   NC353351   5.864  26.848   5.550
 7439POPC   PO453352   5.862  26.844   5.850
 7439POPC   GL153353   5.833  26.827   6.150
 7439POPC   GL253354   5.957  26.713   6.150
 7439POPC   C1A53355   5.902  26.842   6.450
 7439POPC   D2A53356   5.915  26.826   6.750
 7439POPC   C3A53357   5.916  26.796   7.050
 7439POPC   C4A53358   5.830  26.794   7.350
 7439POPC   C1B53359   6.032  26.692   6.450
 7439POPC   C2B53360   6.078  26.661   6.750
 7439POPC   C3B53361   6.105  26.722   7.050
 7439POPC   C4B53362   6.127  26.710   7.350
 7440POPC   NC353363   0.394  10.481   5.550
 7440POPC   PO453364   0.470  10.528   5.850
 7440POPC   GL153365   0.480  10.509   6.150
 7440POPC   GL253366   0.585  10.531   6.150
 7440POPC   C1A53367   0.471  10.573   6.450
 7440POPC   D2A53368   0.437  10.494   6.750
 7440POPC   C3A53369   0.450  10.527   7.050
 7440POPC   C4A53370   0.397  10.553   7.350
 7440POPC   C1B53371   0.718  10.500   6.450
 7440POPC   C2B53372   0.653  10.576   6.750
 7440POPC   C3B53373   0.698  10.556   7.050
 7440POPC   C4B53374   0.676  10.538   7.350
 7441POPC   NC353375   2.718  40.801   5.550
 7441POPC   PO453376   2.758  40.790   5.850
 7441POPC   GL153377   2.731  40.823   6.150
 7441POPC   GL253378   2.611  40.797   6.150
 7441POPC   C1A53379   2.788  40.821   6.450
 7441POPC   D2A53380   2.736  40.824   6.750
 7441POPC   C3A53381   2.756  40.746   7.050
 7441POPC   C4A53382   2.801  40.769   7.350
 7441POPC   C1B53383   2.479  40.821   6.450
 7441POPC   C2B53384   2.552  40.730   6.750
 7441POPC   C3B53385   2.473  40.809   7.050
 7441POPC   C4B53386   2.511  40.803   7.350
 7442POPC   NC353387   0.432  42.347   5.550
 7442POPC   PO453388   0.392  42.369   5.850
 7442POPC   GL153389   0.414  42.370   6.150
 7442POPC   GL253390   0.390  42.222   6.150
 7442POPC   C1A53391   0.435  42.349   6.450
 7442POPC   D2A53392   0.424  42.348   6.750
 7442POPC   C3A53393   0.449  42.294   7.050
 7442POPC   C4A53394   0.425  42.367   7.350
 7442POPC   C1B53395   0.294  42.205   6.450
 7442POPC   C2B53396   0.297  42.199   6.750
 7442POPC   C3B53397   0.266  42.194   7.050
 7442POPC   C4B53398   0.242  42.123   7.350
 7443POPC   NC353399  28.323  30.660   5.550
 7443POPC   PO453400  28.365  30.676   5.850
 7443POPC   GL153401  28.337  30.668   6.150
 7443POPC   GL253402  28.494  30.768   6.150
 7443POPC   C1A53403  28.333  30.698   6.450
 7443POPC   D2A53404  28.372  30.689   6.750
 7443POPC   C3A53405  28.372  30.715   7.050
 7443POPC   C4A53406  28.395  30.694   7.350
 7443POPC   C1B53407  28.492  30.888   6.450
 7443POPC   C2B53408  28.499  30.867   6.750
 7443POPC   C3B53409  28.536  30.854   7.050
 7443POPC   C4B53410  28.512  30.838   7.350
 7444POPC   NC353411  30.702  22.141   5.550
 7444POPC   PO453412  30.717  22.137   5.850
 7444POPC   GL153413  30.677  22.139   6.150
 7444POPC   GL253414  30.681  22.048   6.150
 7444POPC   C1A53415  30.734  22.150   6.450
 7444POPC   D2A53416  30.693  22.207   6.750
 7444POPC   C3A53417  30.735  22.129   7.050
 7444POPC   C4A53418  30.724  22.190   7.350
 7444POPC   C1B53419  30.554  21.944   6.450
 7444POPC   C2B53420  30.619  21.901   6.750
 7444POPC   C3B53421  30.545  21.906   7.050
 7444POPC   C4B53422  30.561  21.963   7.350
 7445POPC   NC353423  43.139  16.697   5.550
 7445POPC   PO453424  43.113  16.688   5.850
 7445POPC   GL153425  43.117  16.685   6.150
 7445POPC   GL253426  43.212  16.636   6.150
 7445POPC   C1A53427  43.145  16.779   6.450
 7445POPC   D2A53428  43.130  16.769   6.750
 7445POPC   C3A53429  43.087  16.713   7.050
 7445POPC   C4A53430  43.089  16.757   7.350
 7445POPC   C1B53431  43.299  16.565   6.450
 7445POPC   C2B53432  43.226  16.531   6.750
 7445POPC   C3B53433  43.277  16.496   7.050
 7445POPC   C4B53434  43.280  16.503   7.350
 7446POPC   NC353435  21.416  22.130   5.550
 7446POPC   PO453436  21.427  22.168   5.850
 7446POPC   GL153437  21.378  22.154   6.150
 7446POPC   GL253438  21.381  22.245   6.150
 7446POPC   C1A53439  21.368  22.128   6.450
 7446POPC   D2A53440  21.399  22.178   6.750
 7446POPC   C3A53441  21.371  22.132   7.050
 7446POPC   C4A53442  21.351  22.201   7.350
 7446POPC   C1B53443  21.374  22.365   6.450
 7446POPC   C2B53444  21.381  22.384   6.750
 7446POPC   C3B53445  21.338  22.449   7.050
 7446POPC   C4B53446  21.313  22.415   7.350
 7447POPC   NC353447  25.218   2.000   5.550
 7447POPC   PO453448  25.275   2.000   5.850
 7447POPC   GL153449  25.309   2.036   6.150
 7447POPC   GL253450  25.375   2.119   6.150
 7447POPC   C1A53451  25.244   1.995   6.450
 7447POPC   D2A53452  25.227   2.011   6.750
 7447POPC   C3A53453  25.227   1.947   7.050
 7447POPC   C4A53454  25.230   1.942   7.350
 7447POPC   C1B53455  25.415   2.151   6.450
 7447POPC   C2B53456  25.406   2.232   6.750
 7447POPC   C3B53457  25.414   2.181   7.050
 7447POPC   C4B53458  25.382   2.211   7.350
 7448POPC   NC353459  20.582  41.590   5.550
 7448POPC   PO453460  20.603  41.556   5.850
 7448POPC   GL153461  20.602  41.579   6.150
 7448POPC   GL253462  20.673  41.497   6.150
 7448POPC   C1A53463  20.578  41.579   6.450
 7448POPC   D2A53464  20.586  41.599   6.750
 7448POPC   C3A53465  20.616  41.596   7.050
 7448POPC   C4A53466  20.608  41.600   7.350
 7448POPC   C1B53467  20.717  41.343   6.450
 7448POPC   C2B53468  20.714  41.325   6.750
 7448POPC   C3B53469  20.747  41.317   7.050
 7448POPC   C4B53470  20.727  41.323   7.350
 7449POPC   NC353471  25.995  36.941   5.550
 7449POPC   PO453472  26.068  36.915   5.850
 7449POPC   GL153473  26.001  36.901   6.150
 7449POPC   GL253474  26.127  36.776   6.150
 7449POPC   C1A53475  26.054  36.900   6.450
 7449POPC   D2A53476  26.060  36.906   6.750
 7449POPC   C3A53477  26.088  36.927   7.050
 7449POPC   C4A53478  26.051  36.900   7.350
 7449POPC   C1B53479  26.180  36.690   6.450
 7449POPC   C2B53480  26.233  36.725   6.750
 7449POPC   C3B53481  26.242  36.714   7.050
 7449POPC   C4B53482  26.172  36.694   7.350
 7450POPC   NC353483  22.906  12.047   5.550
 7450POPC   PO453484  22.904  12.096   5.850
 7450POPC   GL153485  22.965  12.054   6.150
 7450POPC   GL253486  23.013  12.131   6.150
 7450POPC   C1A53487  22.903  12.078   6.450
 7450POPC   D2A53488  22.964  12.056   6.750
 7450POPC   C3A53489  22.928  12.072   7.050
 7450POPC   C4A53490  22.985  12.092   7.350
 7450POPC   C1B53491  23.166  12.159   6.450
 7450POPC   C2B53492  23.185  12.177   6.750
 7450POPC   C3B53493  23.129  12.145   7.050
 7450POPC   C4B53494  23.210  12.187   7.350
 7451POPC   NC353495  33.848  26.054   5.550
 7451POPC   PO453496  33.796  26.010   5.850
 7451POPC   GL153497  33.780  26.004   6.150
 7451POPC   GL253498  33.646  25.942   6.150
 7451POPC   C1A53499  33.805  26.071   6.450
 7451POPC   D2A53500  33.813  26.029   6.750
 7451POPC   C3A53501  33.785  26.013   7.050
 7451POPC   C4A53502  33.789  26.016   7.350
 7451POPC   C1B53503  33.522  25.956   6.450
 7451POPC   C2B53504  33.561  25.912   6.750
 7451POPC   C3B53505  33.592  25.934   7.050
 7451POPC   C4B53506  33.572  25.896   7.350
 7452POPC   NC353507   5.889  25.305   5.550
 7452POPC   PO453508   5.895  25.264   5.850
 7452POPC   GL153509   5.848  25.259   6.150
 7452POPC   GL253510   5.989  25.255   6.150
 7452POPC   C1A53511   5.880  25.226   6.450
 7452POPC   D2A53512   5.874  25.258   6.750
 7452POPC   C3A53513   5.906  25.283   7.050
 7452POPC   C4A53514   5.902  25.314   7.350
 7452POPC   C1B53515   6.108  25.254   6.450
 7452POPC   C2B53516   6.151  25.179   6.750
 7452POPC   C3B53517   6.111  25.202   7.050
 7452POPC   C4B53518   6.104  25.243   7.350
 7453POPC   NC353519   2.001  36.081   5.550
 7453POPC   PO453520   1.995  36.125   5.850
 7453POPC   GL153521   2.029  36.166   6.150
 7453POPC   GL253522   2.100  36.102   6.150
 7453POPC   C1A53523   2.005  36.097   6.450
 7453POPC   D2A53524   1.980  36.096   6.750
 7453POPC   C3A53525   1.943  36.146   7.050
 7453POPC   C4A53526   1.994  36.090   7.350
 7453POPC   C1B53527   2.166  36.000   6.450
 7453POPC   C2B53528   2.227  35.984   6.750
 7453POPC   C3B53529   2.258  35.974   7.050
 7453POPC   C4B53530   2.192  35.982   7.350
 7454POPC   NC353531  12.098  36.873   5.550
 7454POPC   PO453532  12.061  36.949   5.850
 7454POPC   GL153533  12.061  36.886   6.150
 7454POPC   GL253534  12.044  37.011   6.150
 7454POPC   C1A53535  12.102  36.924   6.450
 7454POPC   D2A53536  12.119  36.860   6.750
 7454POPC   C3A53537  12.107  36.910   7.050
 7454POPC   C4A53538  12.091  36.928   7.350
 7454POPC   C1B53539  12.080  37.115   6.450
 7454POPC   C2B53540  12.082  37.125   6.750
 7454POPC   C3B53541  12.010  37.122   7.050
 7454POPC   C4B53542  12.033  37.183   7.350
 7455POPC   NC353543  37.661  29.164   5.550
 7455POPC   PO453544  37.712  29.183   5.850
 7455POPC   GL153545  37.677  29.147   6.150
 7455POPC   GL253546  37.661  29.223   6.150
 7455POPC   C1A53547  37.706  29.188   6.450
 7455POPC   D2A53548  37.660  29.116   6.750
 7455POPC   C3A53549  37.638  29.150   7.050
 7455POPC   C4A53550  37.686  29.107   7.350
 7455POPC   C1B53551  37.572  29.386   6.450
 7455POPC   C2B53552  37.588  29.359   6.750
 7455POPC   C3B53553  37.602  29.425   7.050
 7455POPC   C4B53554  37.594  29.377   7.350
 7456POPC   NC353555   1.228   2.739   5.550
 7456POPC   PO453556   1.167   2.805   5.850
 7456POPC   GL153557   1.252   2.805   6.150
 7456POPC   GL253558   1.119   2.631   6.150
 7456POPC   C1A53559   1.249   2.739   6.450
 7456POPC   D2A53560   1.190   2.746   6.750
 7456POPC   C3A53561   1.173   2.718   7.050
 7456POPC   C4A53562   1.222   2.732   7.350
 7456POPC   C1B53563   1.067   2.551   6.450
 7456POPC   C2B53564   1.119   2.550   6.750
 7456POPC   C3B53565   1.059   2.549   7.050
 7456POPC   C4B53566   1.089   2.535   7.350
 7457POPC   NC353567  36.128  16.690   5.550
 7457POPC   PO453568  36.174  16.754   5.850
 7457POPC   GL153569  36.086  16.692   6.150
 7457POPC   GL253570  36.037  16.717   6.150
 7457POPC   C1A53571  36.088  16.714   6.450
 7457POPC   D2A53572  36.155  16.756   6.750
 7457POPC   C3A53573  36.101  16.723   7.050
 7457POPC   C4A53574  36.158  16.743   7.350
 7457POPC   C1B53575  35.875  16.671   6.450
 7457POPC   C2B53576  35.862  16.612   6.750
 7457POPC   C3B53577  35.919  16.623   7.050
 7457POPC   C4B53578  35.908  16.633   7.350
 7458POPC   NC353579   7.389  27.546   5.550
 7458POPC   PO453580   7.374  27.586   5.850
 7458POPC   GL153581   7.469  27.553   6.150
 7458POPC   GL253582   7.447  27.712   6.150
 7458POPC   C1A53583   7.392  27.572   6.450
 7458POPC   D2A53584   7.451  27.608   6.750
 7458POPC   C3A53585   7.442  27.592   7.050
 7458POPC   C4A53586   7.400  27.606   7.350
 7458POPC   C1B53587   7.427  27.820   6.450
 7458POPC   C2B53588   7.383  27.812   6.750
 7458POPC   C3B53589   7.412  27.809   7.050
 7458POPC   C4B53590   7.436  27.848   7.350
 7459POPC   NC353591  29.941  37.650   5.550
 7459POPC   PO453592  29.943  37.712   5.850
 7459POPC   GL153593  29.899  37.681   6.150
 7459POPC   GL253594  29.863  37.783   6.150
 7459POPC   C1A53595  29.919  37.713   6.450
 7459POPC   D2A53596  29.957  37.641   6.750
 7459POPC   C3A53597  29.939  37.644   7.050
 7459POPC   C4A53598  29.897  37.674   7.350
 7459POPC   C1B53599  29.755  37.898   6.450
 7459POPC   C2B53600  29.770  37.900   6.750
 7459POPC   C3B53601  29.759  37.880   7.050
 7459POPC   C4B53602  29.783  37.834   7.350
 7460POPC   NC353603   9.719  36.897   5.550
 7460POPC   PO453604   9.707  36.941   5.850
 7460POPC   GL153605   9.778  36.858   6.150
 7460POPC   GL253606   9.733  36.798   6.150
 7460POPC   C1A53607   9.762  36.904   6.450
 7460POPC   D2A53608   9.730  36.938   6.750
 7460POPC   C3A53609   9.773  36.939   7.050
 7460POPC   C4A53610   9.794  36.947   7.350
 7460POPC   C1B53611   9.719  36.620   6.450
 7460POPC   C2B53612   9.655  36.671   6.750
 7460POPC   C3B53613   9.657  36.694   7.050
 7460POPC   C4B53614   9.702  36.632   7.350
 7461POPC   NC353615  17.492  36.136   5.550
 7461POPC   PO453616  17.550  36.091   5.850
 7461POPC   GL153617  17.481  36.103   6.150
 7461POPC   GL253618  17.644  36.156   6.150
 7461POPC   C1A53619  17.522  36.105   6.450
 7461POPC   D2A53620  17.493  36.097   6.750
 7461POPC   C3A53621  17.517  36.112   7.050
 7461POPC   C4A53622  17.489  36.115   7.350
 7461POPC   C1B53623  17.713  36.193   6.450
 7461POPC   C2B53624  17.735  36.223   6.750
 7461POPC   C3B53625  17.748  36.215   7.050
 7461POPC   C4B53626  17.779  36.182   7.350
 7462POPC   NC353627  38.419  27.625   5.550
 7462POPC   PO453628  38.414  27.577   5.850
 7462POPC   GL153629  38.444  27.568   6.150
 7462POPC   GL253630  38.514  27.743   6.150
 7462POPC   C1A53631  38.406  27.632   6.450
 7462POPC   D2A53632  38.481  27.620   6.750
 7462POPC   C3A53633  38.447  27.550   7.050
 7462POPC   C4A53634  38.424  27.613   7.350
 7462POPC   C1B53635  38.534  27.821   6.450
 7462POPC   C2B53636  38.553  27.845   6.750
 7462POPC   C3B53637  38.515  27.787   7.050
 7462POPC   C4B53638  38.545  27.875   7.350
 7463POPC   NC353639  36.109   5.106   5.550
 7463POPC   PO453640  36.133   5.046   5.850
 7463POPC   GL153641  36.094   5.073   6.150
 7463POPC   GL253642  35.967   5.071   6.150
 7463POPC   C1A53643  36.149   5.081   6.450
 7463POPC   D2A53644  36.164   5.065   6.750
 7463POPC   C3A53645  36.111   5.056   7.050
 7463POPC   C4A53646  36.171   5.139   7.350
 7463POPC   C1B53647  35.847   5.112   6.450
 7463POPC   C2B53648  35.875   5.162   6.750
 7463POPC   C3B53649  35.921   5.150   7.050
 7463POPC   C4B53650  35.885   5.128   7.350
 7464POPC   NC353651  36.114  24.508   5.550
 7464POPC   PO453652  36.098  24.487   5.850
 7464POPC   GL153653  36.098  24.446   6.150
 7464POPC   GL253654  36.239  24.391   6.150
 7464POPC   C1A53655  36.163  24.445   6.450
 7464POPC   D2A53656  36.150  24.502   6.750
 7464POPC   C3A53657  36.124  24.537   7.050
 7464POPC   C4A53658  36.109  24.538   7.350
 7464POPC   C1B53659  36.274  24.280   6.450
 7464POPC   C2B53660  36.214  24.263   6.750
 7464POPC   C3B53661  36.228  24.295   7.050
 7464POPC   C4B53662  36.288  24.222   7.350
 7465POPC   NC353663  29.903  23.706   5.550
 7465POPC   PO453664  29.892  23.680   5.850
 7465POPC   GL153665  29.961  23.691   6.150
 7465POPC   GL253666  29.821  23.772   6.150
 7465POPC   C1A53667  29.930  23.729   6.450
 7465POPC   D2A53668  29.947  23.731   6.750
 7465POPC   C3A53669  29.885  23.669   7.050
 7465POPC   C4A53670  29.954  23.748   7.350
 7465POPC   C1B53671  29.693  23.868   6.450
 7465POPC   C2B53672  29.723  23.840   6.750
 7465POPC   C3B53673  29.687  23.825   7.050
 7465POPC   C4B53674  29.747  23.856   7.350
 7466POPC   NC353675  33.801  14.366   5.550
 7466POPC   PO453676  33.778  14.403   5.850
 7466POPC   GL153677  33.785  14.357   6.150
 7466POPC   GL253678  33.828  14.562   6.150
 7466POPC   C1A53679  33.804  14.393   6.450
 7466POPC   D2A53680  33.773  14.439   6.750
 7466POPC   C3A53681  33.840  14.438   7.050
 7466POPC   C4A53682  33.844  14.354   7.350
 7466POPC   C1B53683  33.816  14.668   6.450
 7466POPC   C2B53684  33.875  14.623   6.750
 7466POPC   C3B53685  33.814  14.637   7.050
 7466POPC   C4B53686  33.874  14.654   7.350
 7467POPC   NC353687  15.202  34.563   5.550
 7467POPC   PO453688  15.170  34.581   5.850
 7467POPC   GL153689  15.131  34.584   6.150
 7467POPC   GL253690  15.295  34.662   6.150
 7467POPC   C1A53691  15.175  34.612   6.450
 7467POPC   D2A53692  15.229  34.526   6.750
 7467POPC   C3A53693  15.223  34.607   7.050
 7467POPC   C4A53694  15.143  34.592   7.350
 7467POPC   C1B53695  15.450  34.736   6.450
 7467POPC   C2B53696  15.441  34.725   6.750
 7467POPC   C3B53697  15.363  34.736   7.050
 7467POPC   C4B53698  15.443  34.689   7.350
 7468POPC   NC353699  41.511  25.995   5.550
 7468POPC   PO453700  41.562  26.020   5.850
 7468POPC   GL153701  41.557  26.032   6.150
 7468POPC   GL253702  41.593  25.964   6.150
 7468POPC   C1A53703  41.529  26.026   6.450
 7468POPC   D2A53704  41.608  26.076   6.750
 7468POPC   C3A53705  41.545  26.060   7.050
 7468POPC   C4A53706  41.602  26.068   7.350
 7468POPC   C1B53707  41.739  25.863   6.450
 7468POPC   C2B53708  41.749  25.882   6.750
 7468POPC   C3B53709  41.674  25.870   7.050
 7468POPC   C4B53710  41.682  25.806   7.350
 7469POPC   NC353711  22.896  26.002   5.550
 7469POPC   PO453712  22.925  25.997   5.850
 7469POPC   GL153713  22.925  26.069   6.150
 7469POPC   GL253714  22.883  26.137   6.150
 7469POPC   C1A53715  22.962  26.059   6.450
 7469POPC   D2A53716  22.968  26.046   6.750
 7469POPC   C3A53717  22.927  26.052   7.050
 7469POPC   C4A53718  22.917  26.063   7.350
 7469POPC   C1B53719  22.847  26.243   6.450
 7469POPC   C2B53720  22.844  26.301   6.750
 7469POPC   C3B53721  22.796  26.280   7.050
 7469POPC   C4B53722  22.841  26.231   7.350
 7470POPC   NC353723   2.808   9.757   5.550
 7470POPC   PO453724   2.730   9.778   5.850
 7470POPC   GL153725   2.721   9.757   6.150
 7470POPC   GL253726   2.819   9.641   6.150
 7470POPC   C1A53727   2.743   9.734   6.450
 7470POPC   D2A53728   2.796   9.743   6.750
 7470POPC   C3A53729   2.745   9.768   7.050
 7470POPC   C4A53730   2.718   9.714   7.350
 7470POPC   C1B53731   2.811   9.463   6.450
 7470POPC   C2B53732   2.842   9.545   6.750
 7470POPC   C3B53733   2.799   9.457   7.050
 7470POPC   C4B53734   2.814   9.455   7.350
 7471POPC   NC353735  29.964  31.474   5.550
 7471POPC   PO453736  29.917  31.435   5.850
 7471POPC   GL153737  29.937  31.461   6.150
 7471POPC   GL253738  29.843  31.539   6.150
 7471POPC   C1A53739  29.879  31.490   6.450
 7471POPC   D2A53740  29.912  31.472   6.750
 7471POPC   C3A53741  29.907  31.461   7.050
 7471POPC   C4A53742  29.909  31.447   7.350
 7471POPC   C1B53743  29.696  31.567   6.450
 7471POPC   C2B53744  29.706  31.597   6.750
 7471POPC   C3B53745  29.685  31.551   7.050
 7471POPC   C4B53746  29.665  31.529   7.350
 7472POPC   NC353747  27.632  32.281   5.550
 7472POPC   PO453748  27.637  32.201   5.850
 7472POPC   GL153749  27.587  32.290   6.150
 7472POPC   GL253750  27.536  32.356   6.150
 7472POPC   C1A53751  27.639  32.220   6.450
 7472POPC   D2A53752  27.588  32.225   6.750
 7472POPC   C3A53753  27.641  32.247   7.050
 7472POPC   C4A53754  27.573  32.250   7.350
 7472POPC   C1B53755  27.470  32.523   6.450
 7472POPC   C2B53756  27.562  32.469   6.750
 7472POPC   C3B53757  27.500  32.477   7.050
 7472POPC   C4B53758  27.469  32.447   7.350
 7473POPC   NC353759  29.907  22.162   5.550
 7473POPC   PO453760  29.912  22.184   5.850
 7473POPC   GL153761  29.913  22.142   6.150
 7473POPC   GL253762  30.014  22.022   6.150
 7473POPC   C1A53763  29.924  22.117   6.450
 7473POPC   D2A53764  29.892  22.204   6.750
 7473POPC   C3A53765  29.965  22.176   7.050
 7473POPC   C4A53766  29.879  22.173   7.350
 7473POPC   C1B53767  30.101  21.928   6.450
 7473POPC   C2B53768  30.132  21.960   6.750
 7473POPC   C3B53769  30.049  21.947   7.050
 7473POPC   C4B53770  30.046  21.981   7.350
 7474POPC   NC353771   2.733  13.592   5.550
 7474POPC   PO453772   2.803  13.631   5.850
 7474POPC   GL153773   2.747  13.647   6.150
 7474POPC   GL253774   2.762  13.726   6.150
 7474POPC   C1A53775   2.776  13.584   6.450
 7474POPC   D2A53776   2.767  13.623   6.750
 7474POPC   C3A53777   2.811  13.613   7.050
 7474POPC   C4A53778   2.732  13.627   7.350
 7474POPC   C1B53779   2.829  13.826   6.450
 7474POPC   C2B53780   2.856  13.855   6.750
 7474POPC   C3B53781   2.899  13.849   7.050
 7474POPC   C4B53782   2.833  13.847   7.350
 7475POPC   NC353783  15.943  25.315   5.550
 7475POPC   PO453784  15.993  25.249   5.850
 7475POPC   GL153785  15.978  25.291   6.150
 7475POPC   GL253786  16.042  25.201   6.150
 7475POPC   C1A53787  16.003  25.274   6.450
 7475POPC   D2A53788  15.913  25.216   6.750
 7475POPC   C3A53789  15.960  25.256   7.050
 7475POPC   C4A53790  15.934  25.275   7.350
 7475POPC   C1B53791  16.041  25.032   6.450
 7475POPC   C2B53792  16.094  24.999   6.750
 7475POPC   C3B53793  16.017  25.060   7.050
 7475POPC   C4B53794  16.042  25.046   7.350
 7476POPC   NC353795  16.767  38.463   5.550
 7476POPC   PO453796  16.768  38.426   5.850
 7476POPC   GL153797  16.744  38.450   6.150
 7476POPC   GL253798  16.629  38.400   6.150
 7476POPC   C1A53799  16.763  38.466   6.450
 7476POPC   D2A53800  16.738  38.491   6.750
 7476POPC   C3A53801  16.719  38.497   7.050
 7476POPC   C4A53802  16.711  38.475   7.350
 7476POPC   C1B53803  16.592  38.329   6.450
 7476POPC   C2B53804  16.536  38.306   6.750
 7476POPC   C3B53805  16.575  38.288   7.050
 7476POPC   C4B53806  16.500  38.297   7.350
 7477POPC   NC353807  33.775  41.550   5.550
 7477POPC   PO453808  33.832  41.578   5.850
 7477POPC   GL153809  33.801  41.513   6.150
 7477POPC   GL253810  33.922  41.605   6.150
 7477POPC   C1A53811  33.759  41.576   6.450
 7477POPC   D2A53812  33.759  41.593   6.750
 7477POPC   C3A53813  33.825  41.536   7.050
 7477POPC   C4A53814  33.825  41.590   7.350
 7477POPC   C1B53815  34.004  41.611   6.450
 7477POPC   C2B53816  34.071  41.583   6.750
 7477POPC   C3B53817  34.057  41.619   7.050
 7477POPC   C4B53818  34.029  41.642   7.350
 7478POPC   NC353819  22.152   3.529   5.550
 7478POPC   PO453820  22.141   3.589   5.850
 7478POPC   GL153821  22.113   3.527   6.150
 7478POPC   GL253822  22.214   3.394   6.150
 7478POPC   C1A53823  22.149   3.507   6.450
 7478POPC   D2A53824  22.184   3.535   6.750
 7478POPC   C3A53825  22.211   3.518   7.050
 7478POPC   C4A53826  22.164   3.529   7.350
 7478POPC   C1B53827  22.285   3.352   6.450
 7478POPC   C2B53828  22.272   3.381   6.750
 7478POPC   C3B53829  22.317   3.334   7.050
 7478POPC   C4B53830  22.273   3.328   7.350
 7479POPC   NC353831  33.754  22.174   5.550
 7479POPC   PO453832  33.836  22.146   5.850
 7479POPC   GL153833  33.828  22.173   6.150
 7479POPC   GL253834  33.905  22.274   6.150
 7479POPC   C1A53835  33.830  22.195   6.450
 7479POPC   D2A53836  33.835  22.151   6.750
 7479POPC   C3A53837  33.813  22.132   7.050
 7479POPC   C4A53838  33.829  22.202   7.350
 7479POPC   C1B53839  33.994  22.380   6.450
 7479POPC   C2B53840  34.010  22.307   6.750
 7479POPC   C3B53841  33.960  22.388   7.050
 7479POPC   C4B53842  33.992  22.309   7.350
 7480POPC   NC353843   1.997  38.408   5.550
 7480POPC   PO453844   1.998  38.417   5.850
 7480POPC   GL153845   2.013  38.424   6.150
 7480POPC   GL253846   2.040  38.291   6.150
 7480POPC   C1A53847   1.979  38.448   6.450
 7480POPC   D2A53848   2.039  38.477   6.750
 7480POPC   C3A53849   2.024  38.413   7.050
 7480POPC   C4A53850   1.965  38.422   7.350
 7480POPC   C1B53851   2.068  38.219   6.450
 7480POPC   C2B53852   2.046  38.234   6.750
 7480POPC   C3B53853   2.013  38.166   7.050
 7480POPC   C4B53854   2.018  38.178   7.350
 7481POPC   NC353855  39.225  40.031   5.550
 7481POPC   PO453856  39.189  39.969   5.850
 7481POPC   GL153857  39.267  40.039   6.150
 7481POPC   GL253858  39.350  40.050   6.150
 7481POPC   C1A53859  39.225  40.052   6.450
 7481POPC   D2A53860  39.238  39.996   6.750
 7481POPC   C3A53861  39.279  39.957   7.050
 7481POPC   C4A53862  39.197  39.958   7.350
 7481POPC   C1B53863  39.430  40.086   6.450
 7481POPC   C2B53864  39.484  40.131   6.750
 7481POPC   C3B53865  39.430  40.118   7.050
 7481POPC   C4B53866  39.431  40.110   7.350
 7482POPC   NC353867  15.181  23.759   5.550
 7482POPC   PO453868  15.162  23.674   5.850
 7482POPC   GL153869  15.196  23.719   6.150
 7482POPC   GL253870  15.068  23.778   6.150
 7482POPC   C1A53871  15.147  23.667   6.450
 7482POPC   D2A53872  15.137  23.716   6.750
 7482POPC   C3A53873  15.181  23.715   7.050
 7482POPC   C4A53874  15.159  23.757   7.350
 7482POPC   C1B53875  15.033  23.951   6.450
 7482POPC   C2B53876  15.042  23.894   6.750
 7482POPC   C3B53877  15.012  23.919   7.050
 7482POPC   C4B53878  15.022  23.882   7.350
 7483POPC   NC353879  34.559  43.916   5.550
 7483POPC   PO453880  34.613  43.896   5.850
 7483POPC   GL153881  34.572  43.888   6.150
 7483POPC   GL253882  34.561  43.755   6.150
 7483POPC   C1A53883  34.615  43.867   6.450
 7483POPC   D2A53884  34.556  43.850   6.750
 7483POPC   C3A53885  34.606  43.851   7.050
 7483POPC   C4A53886  34.597  43.850   7.350
 7483POPC   C1B53887  34.610  43.626   6.450
 7483POPC   C2B53888  34.674  43.645   6.750
 7483POPC   C3B53889  34.643  43.622   7.050
 7483POPC   C4B53890  34.624  43.684   7.350
 7484POPC   NC353891   3.565  19.057   5.550
 7484POPC   PO453892   3.553  19.079   5.850
 7484POPC   GL153893   3.511  19.100   6.150
 7484POPC   GL253894   3.517  19.140   6.150
 7484POPC   C1A53895   3.512  19.040   6.450
 7484POPC   D2A53896   3.583  19.046   6.750
 7484POPC   C3A53897   3.516  19.017   7.050
 7484POPC   C4A53898   3.582  19.045   7.350
 7484POPC   C1B53899   3.562  19.336   6.450
 7484POPC   C2B53900   3.520  19.286   6.750
 7484POPC   C3B53901   3.552  19.331   7.050
 7484POPC   C4B53902   3.551  19.321   7.350
 7485POPC   NC353903   6.621   3.574   5.550
 7485POPC   PO453904   6.618   3.514   5.850
 7485POPC   GL153905   6.665   3.562   6.150
 7485POPC   GL253906   6.788   3.577   6.150
 7485POPC   C1A53907   6.637   3.583   6.450
 7485POPC   D2A53908   6.629   3.576   6.750
 7485POPC   C3A53909   6.667   3.584   7.050
 7485POPC   C4A53910   6.607   3.502   7.350
 7485POPC   C1B53911   6.908   3.543   6.450
 7485POPC   C2B53912   6.879   3.567   6.750
 7485POPC   C3B53913   6.902   3.525   7.050
 7485POPC   C4B53914   6.856   3.597   7.350
 7486POPC   NC353915  22.203  12.073   5.550
 7486POPC   PO453916  22.151  12.028   5.850
 7486POPC   GL153917  22.161  12.033   6.150
 7486POPC   GL253918  22.132  11.939   6.150
 7486POPC   C1A53919  22.179  12.112   6.450
 7486POPC   D2A53920  22.158  12.026   6.750
 7486POPC   C3A53921  22.149  12.110   7.050
 7486POPC   C4A53922  22.118  12.100   7.350
 7486POPC   C1B53923  22.098  11.832   6.450
 7486POPC   C2B53924  22.076  11.820   6.750
 7486POPC   C3B53925  22.042  11.805   7.050
 7486POPC   C4B53926  22.073  11.823   7.350
 7487POPC   NC353927  40.039  32.278   5.550
 7487POPC   PO453928  39.972  32.207   5.850
 7487POPC   GL153929  39.972  32.199   6.150
 7487POPC   GL253930  40.127  32.243   6.150
 7487POPC   C1A53931  40.029  32.260   6.450
 7487POPC   D2A53932  39.996  32.200   6.750
 7487POPC   C3A53933  39.972  32.266   7.050
 7487POPC   C4A53934  40.053  32.235   7.350
 7487POPC   C1B53935  40.264  32.294   6.450
 7487POPC   C2B53936  40.243  32.317   6.750
 7487POPC   C3B53937  40.287  32.302   7.050
 7487POPC   C4B53938  40.242  32.235   7.350
 7488POPC   NC353939  31.462  23.702   5.550
 7488POPC   PO453940  31.484  23.748   5.850
 7488POPC   GL153941  31.449  23.699   6.150
 7488POPC   GL253942  31.504  23.559   6.150
 7488POPC   C1A53943  31.512  23.684   6.450
 7488POPC   D2A53944  31.496  23.700   6.750
 7488POPC   C3A53945  31.446  23.733   7.050
 7488POPC   C4A53946  31.463  23.694   7.350
 7488POPC   C1B53947  31.574  23.498   6.450
 7488POPC   C2B53948  31.588  23.485   6.750
 7488POPC   C3B53949  31.554  23.518   7.050
 7488POPC   C4B53950  31.537  23.464   7.350
 7489POPC   NC353951  22.204  18.323   5.550
 7489POPC   PO453952  22.173  18.295   5.850
 7489POPC   GL153953  22.132  18.247   6.150
 7489POPC   GL253954  22.227  18.349   6.150
 7489POPC   C1A53955  22.115  18.256   6.450
 7489POPC   D2A53956  22.148  18.325   6.750
 7489POPC   C3A53957  22.128  18.267   7.050
 7489POPC   C4A53958  22.193  18.328   7.350
 7489POPC   C1B53959  22.400  18.399   6.450
 7489POPC   C2B53960  22.337  18.389   6.750
 7489POPC   C3B53961  22.390  18.441   7.050
 7489POPC   C4B53962  22.411  18.440   7.350
 7490POPC   NC353963  26.026  12.098   5.550
 7490POPC   PO453964  26.007  12.064   5.850
 7490POPC   GL153965  26.001  12.066   6.150
 7490POPC   GL253966  25.957  12.144   6.150
 7490POPC   C1A53967  26.030  12.042   6.450
 7490POPC   D2A53968  26.037  12.106   6.750
 7490POPC   C3A53969  26.064  12.093   7.050
 7490POPC   C4A53970  26.026  12.070   7.350
 7490POPC   C1B53971  25.888  12.251   6.450
 7490POPC   C2B53972  25.852  12.211   6.750
 7490POPC   C3B53973  25.895  12.234   7.050
 7490POPC   C4B53974  25.825  12.218   7.350
 7491POPC   NC353975  31.487  15.153   5.550
 7491POPC   PO453976  31.475  15.137   5.850
 7491POPC   GL153977  31.495  15.164   6.150
 7491POPC   GL253978  31.388  15.292   6.150
 7491POPC   C1A53979  31.439  15.219   6.450
 7491POPC   D2A53980  31.517  15.187   6.750
 7491POPC   C3A53981  31.516  15.169   7.050
 7491POPC   C4A53982  31.431  15.170   7.350
 7491POPC   C1B53983  31.270  15.342   6.450
 7491POPC   C2B53984  31.226  15.343   6.750
 7491POPC   C3B53985  31.262  15.323   7.050
 7491POPC   C4B53986  31.237  15.314   7.350
 7492POPC   NC353987  24.523  16.757   5.550
 7492POPC   PO453988  24.445  16.688   5.850
 7492POPC   GL153989  24.490  16.712   6.150
 7492POPC   GL253990  24.352  16.699   6.150
 7492POPC   C1A53991  24.507  16.758   6.450
 7492POPC   D2A53992  24.475  16.694   6.750
 7492POPC   C3A53993  24.524  16.684   7.050
 7492POPC   C4A53994  24.448  16.752   7.350
 7492POPC   C1B53995  24.297  16.591   6.450
 7492POPC   C2B53996  24.319  16.615   6.750
 7492POPC   C3B53997  24.229  16.615   7.050
 7492POPC   C4B53998  24.243  16.616   7.350
 7493POPC   NC353999   0.453  39.250   5.550
 7493POPC   PO454000   0.442  39.224   5.850
 7493POPC   GL154001   0.424  39.223   6.150
 7493POPC   GL254002   0.301  39.150   6.150
 7493POPC   C1A54003   0.413  39.257   6.450
 7493POPC   D2A54004   0.392  39.212   6.750
 7493POPC   C3A54005   0.424  39.262   7.050
 7493POPC   C4A54006   0.424  39.230   7.350
 7493POPC   C1B54007   0.252  39.066   6.450
 7493POPC   C2B54008   0.225  39.129   6.750
 7493POPC   C3B54009   0.174  39.085   7.050
 7493POPC   C4B54010   0.247  39.060   7.350
 7494POPC   NC354011   7.386  15.228   5.550
 7494POPC   PO454012   7.375  15.189   5.850
 7494POPC   GL154013   7.396  15.178   6.150
 7494POPC   GL254014   7.457  15.284   6.150
 7494POPC   C1A54015   7.379  15.171   6.450
 7494POPC   D2A54016   7.395  15.196   6.750
 7494POPC   C3A54017   7.420  15.149   7.050
 7494POPC   C4A54018   7.414  15.189   7.350
 7494POPC   C1B54019   7.456  15.469   6.450
 7494POPC   C2B54020   7.454  15.415   6.750
 7494POPC   C3B54021   7.500  15.432   7.050
 7494POPC   C4B54022   7.423  15.381   7.350
 7495POPC   NC354023  37.684  12.874   5.550
 7495POPC   PO454024  37.700  12.865   5.850
 7495POPC   GL154025  37.714  12.892   6.150
 7495POPC   GL254026  37.742  12.925   6.150
 7495POPC   C1A54027  37.709  12.842   6.450
 7495POPC   D2A54028  37.719  12.887   6.750
 7495POPC   C3A54029  37.684  12.834   7.050
 7495POPC   C4A54030  37.668  12.835   7.350
 7495POPC   C1B54031  37.795  13.024   6.450
 7495POPC   C2B54032  37.826  13.052   6.750
 7495POPC   C3B54033  37.812  13.090   7.050
 7495POPC   C4B54034  37.854  13.089   7.350
 7496POPC   NC354035  26.867  44.692   5.550
 7496POPC   PO454036  26.793  44.630   5.850
 7496POPC   GL154037  26.799  44.648   6.150
 7496POPC   GL254038  26.926  44.609   6.150
 7496POPC   C1A54039  26.843  44.689   6.450
 7496POPC   D2A54040  26.808  44.641   6.750
 7496POPC   C3A54041  26.785  44.654   7.050
 7496POPC   C4A54042  26.824  44.707   7.350
 7496POPC   C1B54043  27.023  44.485   6.450
 7496POPC   C2B54044  26.997  44.510   6.750
 7496POPC   C3B54045  26.997  44.509   7.050
 7496POPC   C4B54046  27.030  44.434   7.350
 7497POPC   NC354047  44.625  24.449   5.550
 7497POPC   PO454048  44.661  24.493   5.850
 7497POPC   GL154049  44.680  24.506   6.150
 7497POPC   GL254050  44.692  24.587   6.150
 7497POPC   C1A54051  44.626  24.469   6.450
 7497POPC   D2A54052  44.667  24.443   6.750
 7497POPC   C3A54053  44.666  24.449   7.050
 7497POPC   C4A54054  44.641  24.516   7.350
 7497POPC   C1B54055  44.788  24.771   6.450
 7497POPC   C2B54056  44.772  24.689   6.750
 7497POPC   C3B54057  44.732  24.683   7.050
 7497POPC   C4B54058  44.737  24.768   7.350
 7498POPC   NC354059   3.534  36.120   5.550
 7498POPC   PO454060   3.583  36.124   5.850
 7498POPC   GL154061   3.518  36.078   6.150
 7498POPC   GL254062   3.641  36.152   6.150
 7498POPC   C1A54063   3.578  36.118   6.450
 7498POPC   D2A54064   3.565  36.137   6.750
 7498POPC   C3A54065   3.521  36.096   7.050
 7498POPC   C4A54066   3.525  36.097   7.350
 7498POPC   C1B54067   3.720  36.251   6.450
 7498POPC   C2B54068   3.743  36.289   6.750
 7498POPC   C3B54069   3.743  36.314   7.050
 7498POPC   C4B54070   3.761  36.250   7.350
 7499POPC   NC354071  32.292   8.931   5.550
 7499POPC   PO454072  32.283   9.019   5.850
 7499POPC   GL154073  32.292   8.999   6.150
 7499POPC   GL254074  32.325   8.981   6.150
 7499POPC   C1A54075  32.297   8.930   6.450
 7499POPC   D2A54076  32.259   8.930   6.750
 7499POPC   C3A54077  32.241   8.993   7.050
 7499POPC   C4A54078  32.272   8.937   7.350
 7499POPC   C1B54079  32.543   9.057   6.450
 7499POPC   C2B54080  32.470   8.991   6.750
 7499POPC   C3B54081  32.469   9.055   7.050
 7499POPC   C4B54082  32.498   9.066   7.350
 7500POPC   NC354083   5.061  38.408   5.550
 7500POPC   PO454084   5.109  38.468   5.850
 7500POPC   GL154085   5.050  38.455   6.150
 7500POPC   GL254086   4.995  38.388   6.150
 7500POPC   C1A54087   5.113  38.480   6.450
 7500POPC   D2A54088   5.133  38.499   6.750
 7500POPC   C3A54089   5.103  38.478   7.050
 7500POPC   C4A54090   5.047  38.410   7.350
 7500POPC   C1B54091   5.005  38.197   6.450
 7500POPC   C2B54092   4.979  38.279   6.750
 7500POPC   C3B54093   4.994  38.221   7.050
 7500POPC   C4B54094   5.015  38.282   7.350
 7501POPC   NC354095  34.585   9.796   5.550
 7501POPC   PO454096  34.607   9.758   5.850
 7501POPC   GL154097  34.607   9.777   6.150
 7501POPC   GL254098  34.469   9.654   6.150
 7501POPC   C1A54099  34.532   9.772   6.450
 7501POPC   D2A54100  34.619   9.745   6.750
 7501POPC   C3A54101  34.612   9.705   7.050
 7501POPC   C4A54102  34.566   9.714   7.350
 7501POPC   C1B54103  34.405   9.504   6.450
 7501POPC   C2B54104  34.451   9.485   6.750
 7501POPC   C3B54105  34.416   9.570   7.050
 7501POPC   C4B54106  34.455   9.494   7.350
 7502POPC   NC354107  39.264  30.688   5.550
 7502POPC   PO454108  39.186  30.700   5.850
 7502POPC   GL154109  39.212  30.716   6.150
 7502POPC   GL254110  39.272  30.829   6.150
 7502POPC   C1A54111  39.245  30.731   6.450
 7502POPC   D2A54112  39.239  30.719   6.750
 7502POPC   C3A54113  39.222  30.655   7.050
 7502POPC   C4A54114  39.187  30.658   7.350
 7502POPC   C1B54115  39.253  30.902   6.450
 7502POPC   C2B54116  39.255  30.952   6.750
 7502POPC   C3B54117  39.196  30.939   7.050
 7502POPC   C4B54118  39.253  30.952   7.350
 7503POPC   NC354119  31.458  26.781   5.550
 7503POPC   PO454120  31.484  26.781   5.850
 7503POPC   GL154121  31.427  26.790   6.150
 7503POPC   GL254122  31.398  26.881   6.150
 7503POPC   C1A54123  31.475  26.775   6.450
 7503POPC   D2A54124  31.458  26.799   6.750
 7503POPC   C3A54125  31.424  26.839   7.050
 7503POPC   C4A54126  31.473  26.809   7.350
 7503POPC   C1B54127  31.305  26.930   6.450
 7503POPC   C2B54128  31.308  26.921   6.750
 7503POPC   C3B54129  31.297  26.979   7.050
 7503POPC   C4B54130  31.242  26.937   7.350
 7504POPC   NC354131  11.302   8.981   5.550
 7504POPC   PO454132  11.300   8.927   5.850
 7504POPC   GL154133  11.325   8.971   6.150
 7504POPC   GL254134  11.136   8.937   6.150
 7504POPC   C1A54135  11.251   8.955   6.450
 7504POPC   D2A54136  11.342   8.990   6.750
 7504POPC   C3A54137  11.335   8.971   7.050
 7504POPC   C4A54138  11.282   8.933   7.350
 7504POPC   C1B54139  11.029   8.935   6.450
 7504POPC   C2B54140  11.055   8.878   6.750
 7504POPC   C3B54141  11.042   8.865   7.050
 7504POPC   C4B54142  11.063   8.896   7.350
 7505POPC   NC354143  34.624  15.145   5.550
 7505POPC   PO454144  34.625  15.205   5.850
 7505POPC   GL154145  34.569  15.180   6.150
 7505POPC   GL254146  34.573  15.019   6.150
 7505POPC   C1A54147  34.576  15.179   6.450
 7505POPC   D2A54148  34.602  15.219   6.750
 7505POPC   C3A54149  34.533  15.161   7.050
 7505POPC   C4A54150  34.597  15.137   7.350
 7505POPC   C1B54151  34.566  14.943   6.450
 7505POPC   C2B54152  34.500  14.889   6.750
 7505POPC   C3B54153  34.501  14.935   7.050
 7505POPC   C4B54154  34.583  14.913   7.350
 7506POPC   NC354155  12.038   6.595   5.550
 7506POPC   PO454156  12.113   6.679   5.850
 7506POPC   GL154157  12.061   6.656   6.150
 7506POPC   GL254158  12.125   6.498   6.150
 7506POPC   C1A54159  12.113   6.635   6.450
 7506POPC   D2A54160  12.063   6.630   6.750
 7506POPC   C3A54161  12.041   6.674   7.050
 7506POPC   C4A54162  12.035   6.657   7.350
 7506POPC   C1B54163  12.116   6.367   6.450
 7506POPC   C2B54164  12.170   6.356   6.750
 7506POPC   C3B54165  12.179   6.431   7.050
 7506POPC   C4B54166  12.178   6.453   7.350
 7507POPC   NC354167   6.662  19.863   5.550
 7507POPC   PO454168   6.613  19.867   5.850
 7507POPC   GL154169   6.631  19.828   6.150
 7507POPC   GL254170   6.757  19.810   6.150
 7507POPC   C1A54171   6.605  19.853   6.450
 7507POPC   D2A54172   6.605  19.826   6.750
 7507POPC   C3A54173   6.621  19.884   7.050
 7507POPC   C4A54174   6.634  19.841   7.350
 7507POPC   C1B54175   6.902  19.881   6.450
 7507POPC   C2B54176   6.865  19.800   6.750
 7507POPC   C3B54177   6.894  19.807   7.050
 7507POPC   C4B54178   6.846  19.850   7.350
 7508POPC   NC354179  20.637   8.237   5.550
 7508POPC   PO454180  20.584   8.238   5.850
 7508POPC   GL154181  20.579   8.195   6.150
 7508POPC   GL254182  20.524   8.108   6.150
 7508POPC   C1A54183  20.607   8.190   6.450
 7508POPC   D2A54184  20.580   8.209   6.750
 7508POPC   C3A54185  20.625   8.185   7.050
 7508POPC   C4A54186  20.589   8.215   7.350
 7508POPC   C1B54187  20.562   7.934   6.450
 7508POPC   C2B54188  20.548   7.965   6.750
 7508POPC   C3B54189  20.513   7.956   7.050
 7508POPC   C4B54190  20.514   7.936   7.350
 7509POPC   NC354191   1.197  36.941   5.550
 7509POPC   PO454192   1.232  36.912   5.850
 7509POPC   GL154193   1.226  36.896   6.150
 7509POPC   GL254194   1.050  36.932   6.150
 7509POPC   C1A54195   1.227  36.873   6.450
 7509POPC   D2A54196   1.183  36.859   6.750
 7509POPC   C3A54197   1.261  36.946   7.050
 7509POPC   C4A54198   1.170  36.867   7.350
 7509POPC   C1B54199   0.996  37.008   6.450
 7509POPC   C2B54200   0.938  37.036   6.750
 7509POPC   C3B54201   0.972  37.040   7.050
 7509POPC   C4B54202   0.997  37.012   7.350
 7510POPC   NC354203  18.285   1.171   5.550
 7510POPC   PO454204  18.300   1.235   5.850
 7510POPC   GL154205  18.290   1.187   6.150
 7510POPC   GL254206  18.167   1.250   6.150
 7510POPC   C1A54207  18.272   1.190   6.450
 7510POPC   D2A54208  18.269   1.205   6.750
 7510POPC   C3A54209  18.306   1.226   7.050
 7510POPC   C4A54210  18.325   1.191   7.350
 7510POPC   C1B54211  18.028   1.316   6.450
 7510POPC   C2B54212  18.009   1.254   6.750
 7510POPC   C3B54213  18.018   1.307   7.050
 7510POPC   C4B54214  18.011   1.312   7.350
 7511POPC   NC354215   1.261   4.309   5.550
 7511POPC   PO454216   1.208   4.320   5.850
 7511POPC   GL154217   1.236   4.281   6.150
 7511POPC   GL254218   1.388   4.305   6.150
 7511POPC   C1A54219   1.196   4.282   6.450
 7511POPC   D2A54220   1.174   4.309   6.750
 7511POPC   C3A54221   1.218   4.305   7.050
 7511POPC   C4A54222   1.237   4.341   7.350
 7511POPC   C1B54223   1.462   4.255   6.450
 7511POPC   C2B54224   1.487   4.348   6.750
 7511POPC   C3B54225   1.428   4.296   7.050
 7511POPC   C4B54226   1.450   4.297   7.350
 7512POPC   NC354227  10.478  15.950   5.550
 7512POPC   PO454228  10.560  15.943   5.850
 7512POPC   GL154229  10.500  15.956   6.150
 7512POPC   GL254230  10.487  15.859   6.150
 7512POPC   C1A54231  10.554  15.979   6.450
 7512POPC   D2A54232  10.500  15.939   6.750
 7512POPC   C3A54233  10.533  15.917   7.050
 7512POPC   C4A54234  10.485  15.991   7.350
 7512POPC   C1B54235  10.552  15.702   6.450
 7512POPC   C2B54236  10.531  15.675   6.750
 7512POPC   C3B54237  10.552  15.691   7.050
 7512POPC   C4B54238  10.544  15.708   7.350
 7513POPC   NC354239  41.596  32.208   5.550
 7513POPC   PO454240  41.587  32.266   5.850
 7513POPC   GL154241  41.572  32.254   6.150
 7513POPC   GL254242  41.461  32.211   6.150
 7513POPC   C1A54243  41.533  32.229   6.450
 7513POPC   D2A54244  41.597  32.292   6.750
 7513POPC   C3A54245  41.549  32.275   7.050
 7513POPC   C4A54246  41.557  32.291   7.350
 7513POPC   C1B54247  41.325  32.240   6.450
 7513POPC   C2B54248  41.266  32.248   6.750
 7513POPC   C3B54249  41.339  32.290   7.050
 7513POPC   C4B54250  41.293  32.273   7.350
 7514POPC   NC354251   2.780  11.255   5.550
 7514POPC   PO454252   2.797  11.253   5.850
 7514POPC   GL154253   2.774  11.327   6.150
 7514POPC   GL254254   2.662  11.219   6.150
 7514POPC   C1A54255   2.730  11.336   6.450
 7514POPC   D2A54256   2.800  11.252   6.750
 7514POPC   C3A54257   2.780  11.264   7.050
 7514POPC   C4A54258   2.731  11.266   7.350
 7514POPC   C1B54259   2.516  11.153   6.450
 7514POPC   C2B54260   2.533  11.181   6.750
 7514POPC   C3B54261   2.506  11.142   7.050
 7514POPC   C4B54262   2.591  11.190   7.350
 7515POPC   NC354263  12.876   5.901   5.550
 7515POPC   PO454264  12.817   5.892   5.850
 7515POPC   GL154265  12.805   5.890   6.150
 7515POPC   GL254266  12.935   5.724   6.150
 7515POPC   C1A54267  12.857   5.821   6.450
 7515POPC   D2A54268  12.832   5.853   6.750
 7515POPC   C3A54269  12.885   5.911   7.050
 7515POPC   C4A54270  12.852   5.841   7.350
 7515POPC   C1B54271  12.949   5.674   6.450
 7515POPC   C2B54272  12.941   5.626   6.750
 7515POPC   C3B54273  12.937   5.648   7.050
 7515POPC   C4B54274  12.991   5.691   7.350
 7516POPC   NC354275  39.265   9.769   5.550
 7516POPC   PO454276  39.264   9.755   5.850
 7516POPC   GL154277  39.227   9.770   6.150
 7516POPC   GL254278  39.192   9.604   6.150
 7516POPC   C1A54279  39.224   9.719   6.450
 7516POPC   D2A54280  39.223   9.782   6.750
 7516POPC   C3A54281  39.189   9.775   7.050
 7516POPC   C4A54282  39.220   9.750   7.350
 7516POPC   C1B54283  39.191   9.459   6.450
 7516POPC   C2B54284  39.207   9.530   6.750
 7516POPC   C3B54285  39.218   9.536   7.050
 7516POPC   C4B54286  39.224   9.522   7.350
 7517POPC   NC354287  10.528  22.909   5.550
 7517POPC   PO454288  10.544  22.925   5.850
 7517POPC   GL154289  10.523  22.967   6.150
 7517POPC   GL254290  10.516  23.096   6.150
 7517POPC   C1A54291  10.505  22.973   6.450
 7517POPC   D2A54292  10.551  22.891   6.750
 7517POPC   C3A54293  10.553  22.973   7.050
 7517POPC   C4A54294  10.513  22.915   7.350
 7517POPC   C1B54295  10.537  23.226   6.450
 7517POPC   C2B54296  10.590  23.212   6.750
 7517POPC   C3B54297  10.581  23.158   7.050
 7517POPC   C4B54298  10.567  23.179   7.350
 7518POPC   NC354299  19.803  19.092   5.550
 7518POPC   PO454300  19.790  19.104   5.850
 7518POPC   GL154301  19.804  19.094   6.150
 7518POPC   GL254302  19.688  18.967   6.150
 7518POPC   C1A54303  19.876  19.058   6.450
 7518POPC   D2A54304  19.845  19.089   6.750
 7518POPC   C3A54305  19.871  19.068   7.050
 7518POPC   C4A54306  19.793  19.058   7.350
 7518POPC   C1B54307  19.608  18.966   6.450
 7518POPC   C2B54308  19.661  18.931   6.750
 7518POPC   C3B54309  19.610  18.910   7.050
 7518POPC   C4B54310  19.673  18.946   7.350
 7519POPC   NC354311  37.667  24.473   5.550
 7519POPC   PO454312  37.716  24.453   5.850
 7519POPC   GL154313  37.695  24.530   6.150
 7519POPC   GL254314  37.756  24.545   6.150
 7519POPC   C1A54315  37.705  24.462   6.450
 7519POPC   D2A54316  37.698  24.535   6.750
 7519POPC   C3A54317  37.655  24.531   7.050
 7519POPC   C4A54318  37.655  24.448   7.350
 7519POPC   C1B54319  37.854  24.644   6.450
 7519POPC   C2B54320  37.863  24.704   6.750
 7519POPC   C3B54321  37.868  24.614   7.050
 7519POPC   C4B54322  37.893  24.701   7.350
 7520POPC   NC354323  27.631  33.820   5.550
 7520POPC   PO454324  27.626  33.818   5.850
 7520POPC   GL154325  27.546  33.788   6.150
 7520POPC   GL254326  27.620  33.712   6.150
 7520POPC   C1A54327  27.632  33.802   6.450
 7520POPC   D2A54328  27.641  33.837   6.750
 7520POPC   C3A54329  27.590  33.752   7.050
 7520POPC   C4A54330  27.588  33.825   7.350
 7520POPC   C1B54331  27.678  33.624   6.450
 7520POPC   C2B54332  27.723  33.562   6.750
 7520POPC   C3B54333  27.734  33.576   7.050
 7520POPC   C4B54334  27.757  33.571   7.350
 7521POPC   NC354335   8.238  18.301   5.550
 7521POPC   PO454336   8.182  18.276   5.850
 7521POPC   GL154337   8.223  18.245   6.150
 7521POPC   GL254338   8.281  18.284   6.150
 7521POPC   C1A54339   8.170  18.261   6.450
 7521POPC   D2A54340   8.170  18.235   6.750
 7521POPC   C3A54341   8.204  18.280   7.050
 7521POPC   C4A54342   8.233  18.263   7.350
 7521POPC   C1B54343   8.463  18.220   6.450
 7521POPC   C2B54344   8.467  18.271   6.750
 7521POPC   C3B54345   8.400  18.225   7.050
 7521POPC   C4B54346   8.483  18.232   7.350
 7522POPC   NC354347  12.092   1.222   5.550
 7522POPC   PO454348  12.116   1.177   5.850
 7522POPC   GL154349  12.070   1.196   6.150
 7522POPC   GL254350  12.008   1.343   6.150
 7522POPC   C1A54351  12.106   1.240   6.450
 7522POPC   D2A54352  12.062   1.232   6.750
 7522POPC   C3A54353  12.112   1.178   7.050
 7522POPC   C4A54354  12.036   1.195   7.350
 7522POPC   C1B54355  12.034   1.411   6.450
 7522POPC   C2B54356  12.012   1.449   6.750
 7522POPC   C3B54357  12.017   1.451   7.050
 7522POPC   C4B54358  12.035   1.475   7.350
 7523POPC   NC354359  44.691  29.931   5.550
 7523POPC   PO454360  44.620  29.885   5.850
 7523POPC   GL154361  44.641  29.957   6.150
 7523POPC   GL254362  44.721  29.828   6.150
 7523POPC   C1A54363  44.617  29.885   6.450
 7523POPC   D2A54364  44.651  29.889   6.750
 7523POPC   C3A54365  44.614  29.921   7.050
 7523POPC   C4A54366  44.647  29.943   7.350
 7523POPC   C1B54367  44.782  29.737   6.450
 7523POPC   C2B54368  44.809  29.733   6.750
 7523POPC   C3B54369  44.852  29.766   7.050
 7523POPC   C4B54370  44.834  29.759   7.350
 7524POPC   NC354371   2.737  12.026   5.550
 7524POPC   PO454372   2.731  12.092   5.850
 7524POPC   GL154373   2.808  12.045   6.150
 7524POPC   GL254374   2.882  11.975   6.150
 7524POPC   C1A54375   2.739  12.124   6.450
 7524POPC   D2A54376   2.732  12.027   6.750
 7524POPC   C3A54377   2.732  12.107   7.050
 7524POPC   C4A54378   2.732  12.072   7.350
 7524POPC   C1B54379   2.962  11.912   6.450
 7524POPC   C2B54380   2.930  11.871   6.750
 7524POPC   C3B54381   2.950  11.886   7.050
 7524POPC   C4B54382   2.989  11.850   7.350
 7525POPC   NC354383  19.797  34.605   5.550
 7525POPC   PO454384  19.846  34.550   5.850
 7525POPC   GL154385  19.822  34.614   6.150
 7525POPC   GL254386  19.905  34.445   6.150
 7525POPC   C1A54387  19.822  34.563   6.450
 7525POPC   D2A54388  19.832  34.624   6.750
 7525POPC   C3A54389  19.816  34.609   7.050
 7525POPC   C4A54390  19.866  34.597   7.350
 7525POPC   C1B54391  20.018  34.412   6.450
 7525POPC   C2B54392  20.069  34.434   6.750
 7525POPC   C3B54393  19.976  34.427   7.050
 7525POPC   C4B54394  20.006  34.417   7.350
 7526POPC   NC354395  19.797  22.210   5.550
 7526POPC   PO454396  19.857  22.156   5.850
 7526POPC   GL154397  19.795  22.201   6.150
 7526POPC   GL254398  19.956  22.172   6.150
 7526POPC   C1A54399  19.823  22.206   6.450
 7526POPC   D2A54400  19.786  22.164   6.750
 7526POPC   C3A54401  19.808  22.167   7.050
 7526POPC   C4A54402  19.789  22.201   7.350
 7526POPC   C1B54403  20.010  22.233   6.450
 7526POPC   C2B54404  20.049  22.234   6.750
 7526POPC   C3B54405  20.089  22.241   7.050
 7526POPC   C4B54406  20.054  22.312   7.350
 7527POPC   NC354407  38.421  25.242   5.550
 7527POPC   PO454408  38.492  25.242   5.850
 7527POPC   GL154409  38.419  25.285   6.150
 7527POPC   GL254410  38.553  25.261   6.150
 7527POPC   C1A54411  38.417  25.268   6.450
 7527POPC   D2A54412  38.406  25.255   6.750
 7527POPC   C3A54413  38.451  25.247   7.050
 7527POPC   C4A54414  38.496  25.222   7.350
 7527POPC   C1B54415  38.686  25.364   6.450
 7527POPC   C2B54416  38.710  25.370   6.750
 7527POPC   C3B54417  38.725  25.322   7.050
 7527POPC   C4B54418  38.730  25.336   7.350
 7528POPC   NC354419  11.275  30.670   5.550
 7528POPC   PO454420  11.307  30.682   5.850
 7528POPC   GL154421  11.346  30.708   6.150
 7528POPC   GL254422  11.224  30.640   6.150
 7528POPC   C1A54423  11.297  30.660   6.450
 7528POPC   D2A54424  11.271  30.716   6.750
 7528POPC   C3A54425  11.334  30.695   7.050
 7528POPC   C4A54426  11.252  30.706   7.350
 7528POPC   C1B54427  11.133  30.528   6.450
 7528POPC   C2B54428  11.095  30.502   6.750
 7528POPC   C3B54429  11.132  30.546   7.050
 7528POPC   C4B54430  11.106  30.546   7.350
 7529POPC   NC354431  25.286  21.354   5.550
 7529POPC   PO454432  25.240  21.388   5.850
 7529POPC   GL154433  25.248  21.420   6.150
 7529POPC   GL254434  25.191  21.346   6.150
 7529POPC   C1A54435  25.306  21.349   6.450
 7529POPC   D2A54436  25.261  21.342   6.750
 7529POPC   C3A54437  25.240  21.366   7.050
 7529POPC   C4A54438  25.242  21.418   7.350
 7529POPC   C1B54439  24.988  21.286   6.450
 7529POPC   C2B54440  25.025  21.343   6.750
 7529POPC   C3B54441  25.023  21.258   7.050
 7529POPC   C4B54442  25.018  21.329   7.350
 7530POPC   NC354443  13.668   3.566   5.550
 7530POPC   PO454444  13.608   3.573   5.850
 7530POPC   GL154445  13.634   3.583   6.150
 7530POPC   GL254446  13.686   3.390   6.150
 7530POPC   C1A54447  13.631   3.568   6.450
 7530POPC   D2A54448  13.622   3.581   6.750
 7530POPC   C3A54449  13.612   3.584   7.050
 7530POPC   C4A54450  13.600   3.527   7.350
 7530POPC   C1B54451  13.739   3.326   6.450
 7530POPC   C2B54452  13.691   3.346   6.750
 7530POPC   C3B54453  13.743   3.266   7.050
 7530POPC   C4B54454  13.767   3.346   7.350
 7531POPC   NC354455  32.295   3.582   5.550
 7531POPC   PO454456  32.285   3.542   5.850
 7531POPC   GL154457  32.256   3.579   6.150
 7531POPC   GL254458  32.184   3.479   6.150
 7531POPC   C1A54459  32.287   3.585   6.450
 7531POPC   D2A54460  32.273   3.580   6.750
 7531POPC   C3A54461  32.267   3.546   7.050
 7531POPC   C4A54462  32.210   3.520   7.350
 7531POPC   C1B54463  32.018   3.422   6.450
 7531POPC   C2B54464  32.017   3.462   6.750
 7531POPC   C3B54465  31.996   3.405   7.050
 7531POPC   C4B54466  32.039   3.449   7.350
 7532POPC   NC354467  10.492  33.805   5.550
 7532POPC   PO454468  10.494  33.836   5.850
 7532POPC   GL154469  10.535  33.767   6.150
 7532POPC   GL254470  10.487  33.670   6.150
 7532POPC   C1A54471  10.507  33.803   6.450
 7532POPC   D2A54472  10.495  33.827   6.750
 7532POPC   C3A54473  10.480  33.804   7.050
 7532POPC   C4A54474  10.554  33.843   7.350
 7532POPC   C1B54475  10.421  33.618   6.450
 7532POPC   C2B54476  10.421  33.549   6.750
 7532POPC   C3B54477  10.410  33.549   7.050
 7532POPC   C4B54478  10.366  33.626   7.350
 7533POPC   NC354479  19.079  33.781   5.550
 7533POPC   PO454480  19.088  33.826   5.850
 7533POPC   GL154481  19.055  33.797   6.150
 7533POPC   GL254482  18.983  33.949   6.150
 7533POPC   C1A54483  19.067  33.795   6.450
 7533POPC   D2A54484  19.095  33.790   6.750
 7533POPC   C3A54485  19.010  33.834   7.050
 7533POPC   C4A54486  19.037  33.784   7.350
 7533POPC   C1B54487  18.948  34.002   6.450
 7533POPC   C2B54488  18.926  34.000   6.750
 7533POPC   C3B54489  18.896  34.063   7.050
 7533POPC   C4B54490  18.979  33.994   7.350
 7534POPC   NC354491  36.931   7.399   5.550
 7534POPC   PO454492  36.929   7.398   5.850
 7534POPC   GL154493  36.901   7.407   6.150
 7534POPC   GL254494  36.802   7.334   6.150
 7534POPC   C1A54495  36.863   7.377   6.450
 7534POPC   D2A54496  36.908   7.372   6.750
 7534POPC   C3A54497  36.885   7.387   7.050
 7534POPC   C4A54498  36.928   7.421   7.350
 7534POPC   C1B54499  36.782   7.198   6.450
 7534POPC   C2B54500  36.766   7.213   6.750
 7534POPC   C3B54501  36.781   7.219   7.050
 7534POPC   C4B54502  36.747   7.238   7.350
 7535POPC   NC354503  21.385  29.130   5.550
 7535POPC   PO454504  21.371  29.160   5.850
 7535POPC   GL154505  21.339  29.124   6.150
 7535POPC   GL254506  21.388  29.032   6.150
 7535POPC   C1A54507  21.410  29.100   6.450
 7535POPC   D2A54508  21.427  29.165   6.750
 7535POPC   C3A54509  21.391  29.146   7.050
 7535POPC   C4A54510  21.411  29.151   7.350
 7535POPC   C1B54511  21.379  28.887   6.450
 7535POPC   C2B54512  21.383  28.892   6.750
 7535POPC   C3B54513  21.396  28.901   7.050
 7535POPC   C4B54514  21.430  28.911   7.350
 7536POPC   NC354515  25.994  33.782   5.550
 7536POPC   PO454516  25.998  33.771   5.850
 7536POPC   GL154517  26.089  33.836   6.150
 7536POPC   GL254518  26.188  33.881   6.150
 7536POPC   C1A54519  26.020  33.833   6.450
 7536POPC   D2A54520  25.995  33.776   6.750
 7536POPC   C3A54521  26.006  33.760   7.050
 7536POPC   C4A54522  26.045  33.776   7.350
 7536POPC   C1B54523  26.226  33.930   6.450
 7536POPC   C2B54524  26.211  33.950   6.750
 7536POPC   C3B54525  26.251  33.959   7.050
 7536POPC   C4B54526  26.272  33.897   7.350
 7537POPC   NC354527   3.580  37.697   5.550
 7537POPC   PO454528   3.537  37.717   5.850
 7537POPC   GL154529   3.563  37.693   6.150
 7537POPC   GL254530   3.449  37.675   6.150
 7537POPC   C1A54531   3.545  37.639   6.450
 7537POPC   D2A54532   3.576  37.699   6.750
 7537POPC   C3A54533   3.555  37.687   7.050
 7537POPC   C4A54534   3.504  37.696   7.350
 7537POPC   C1B54535   3.282  37.598   6.450
 7537POPC   C2B54536   3.287  37.578   6.750
 7537POPC   C3B54537   3.278  37.601   7.050
 7537POPC   C4B54538   3.344  37.636   7.350
 7538POPC   NC354539   7.383  31.489   5.550
 7538POPC   PO454540   7.393  31.460   5.850
 7538POPC   GL154541   7.468  31.495   6.150
 7538POPC   GL254542   7.489  31.424   6.150
 7538POPC   C1A54543   7.467  31.444   6.450
 7538POPC   D2A54544   7.401  31.508   6.750
 7538POPC   C3A54545   7.385  31.470   7.050
 7538POPC   C4A54546   7.421  31.487   7.350
 7538POPC   C1B54547   7.680  31.358   6.450
 7538POPC   C2B54548   7.607  31.326   6.750
 7538POPC   C3B54549   7.678  31.343   7.050
 7538POPC   C4B54550   7.614  31.394   7.350
 7539POPC   NC354551  12.079  26.008   5.550
 7539POPC   PO454552  12.106  26.012   5.850
 7539POPC   GL154553  12.060  26.002   6.150
 7539POPC   GL254554  11.969  25.976   6.150
 7539POPC   C1A54555  12.067  26.073   6.450
 7539POPC   D2A54556  12.064  26.083   6.750
 7539POPC   C3A54557  12.075  26.060   7.050
 7539POPC   C4A54558  12.072  26.068   7.350
 7539POPC   C1B54559  11.912  25.853   6.450
 7539POPC   C2B54560  11.870  25.894   6.750
 7539POPC   C3B54561  11.907  25.856   7.050
 7539POPC   C4B54562  11.832  25.896   7.350
 7540POPC   NC354563  12.097  15.955   5.550
 7540POPC   PO454564  12.030  15.920   5.850
 7540POPC   GL154565  12.102  16.000   6.150
 7540POPC   GL254566  12.192  15.830   6.150
 7540POPC   C1A54567  12.070  15.929   6.450
 7540POPC   D2A54568  12.083  15.931   6.750
 7540POPC   C3A54569  12.039  15.908   7.050
 7540POPC   C4A54570  12.038  15.977   7.350
 7540POPC   C1B54571  12.252  15.706   6.450
 7540POPC   C2B54572  12.177  15.710   6.750
 7540POPC   C3B54573  12.254  15.738   7.050
 7540POPC   C4B54574  12.195  15.785   7.350
 7541POPC   NC354575  24.503  37.675   5.550
 7541POPC   PO454576  24.477  37.715   5.850
 7541POPC   GL154577  24.518  37.639   6.150
 7541POPC   GL254578  24.549  37.582   6.150
 7541POPC   C1A54579  24.440  37.649   6.450
 7541POPC   D2A54580  24.448  37.643   6.750
 7541POPC   C3A54581  24.512  37.719   7.050
 7541POPC   C4A54582  24.489  37.710   7.350
 7541POPC   C1B54583  24.631  37.477   6.450
 7541POPC   C2B54584  24.625  37.493   6.750
 7541POPC   C3B54585  24.640  37.552   7.050
 7541POPC   C4B54586  24.637  37.550   7.350
 7542POPC   NC354587  43.856  26.851   5.550
 7542POPC   PO454588  43.885  26.840   5.850
 7542POPC   GL154589  43.871  26.789   6.150
 7542POPC   GL254590  43.811  26.856   6.150
 7542POPC   C1A54591  43.913  26.834   6.450
 7542POPC   D2A54592  43.883  26.771   6.750
 7542POPC   C3A54593  43.918  26.773   7.050
 7542POPC   C4A54594  43.875  26.856   7.350
 7542POPC   C1B54595  43.627  26.843   6.450
 7542POPC   C2B54596  43.608  26.867   6.750
 7542POPC   C3B54597  43.664  26.827   7.050
 7542POPC   C4B54598  43.618  26.851   7.350
 7543POPC   NC354599  11.290  13.580   5.550
 7543POPC   PO454600  11.326  13.673   5.850
 7543POPC   GL154601  11.267  13.578   6.150
 7543POPC   GL254602  11.143  13.665   6.150
 7543POPC   C1A54603  11.281  13.676   6.450
 7543POPC   D2A54604  11.295  13.674   6.750
 7543POPC   C3A54605  11.269  13.657   7.050
 7543POPC   C4A54606  11.349  13.652   7.350
 7543POPC   C1B54607  11.022  13.762   6.450
 7543POPC   C2B54608  11.061  13.721   6.750
 7543POPC   C3B54609  11.073  13.676   7.050
 7543POPC   C4B54610  11.028  13.721   7.350
 7544POPC   NC354611  15.189   2.002   5.550
 7544POPC   PO454612  15.220   1.965   5.850
 7544POPC   GL154613  15.136   1.956   6.150
 7544POPC   GL254614  15.043   2.063   6.150
 7544POPC   C1A54615  15.178   1.967   6.450
 7544POPC   D2A54616  15.158   1.940   6.750
 7544POPC   C3A54617  15.133   1.992   7.050
 7544POPC   C4A54618  15.177   1.978   7.350
 7544POPC   C1B54619  14.922   2.111   6.450
 7544POPC   C2B54620  14.966   2.105   6.750
 7544POPC   C3B54621  14.979   2.081   7.050
 7544POPC   C4B54622  14.993   2.107   7.350
 7545POPC   NC354623  39.962  35.384   5.550
 7545POPC   PO454624  40.040  35.387   5.850
 7545POPC   GL154625  39.997  35.352   6.150
 7545POPC   GL254626  40.104  35.228   6.150
 7545POPC   C1A54627  39.995  35.371   6.450
 7545POPC   D2A54628  40.034  35.366   6.750
 7545POPC   C3A54629  39.964  35.351   7.050
 7545POPC   C4A54630  40.033  35.384   7.350
 7545POPC   C1B54631  40.083  35.121   6.450
 7545POPC   C2B54632  40.123  35.168   6.750
 7545POPC   C3B54633  40.078  35.156   7.050
 7545POPC   C4B54634  40.104  35.171   7.350
 7546POPC   NC354635  40.816  44.647   5.550
 7546POPC   PO454636  40.740  44.622   5.850
 7546POPC   GL154637  40.748  44.690   6.150
 7546POPC   GL254638  40.854  44.529   6.150
 7546POPC   C1A54639  40.804  44.680   6.450
 7546POPC   D2A54640  40.793  44.662   6.750
 7546POPC   C3A54641  40.740  44.640   7.050
 7546POPC   C4A54642  40.751  44.686   7.350
 7546POPC   C1B54643  40.944  44.520   6.450
 7546POPC   C2B54644  40.926  44.502   6.750
 7546POPC   C3B54645  40.995  44.482   7.050
 7546POPC   C4B54646  40.980  44.465   7.350
 7547POPC   NC354647  33.767  17.462   5.550
 7547POPC   PO454648  33.790  17.553   5.850
 7547POPC   GL154649  33.821  17.461   6.150
 7547POPC   GL254650  33.916  17.415   6.150
 7547POPC   C1A54651  33.849  17.525   6.450
 7547POPC   D2A54652  33.842  17.518   6.750
 7547POPC   C3A54653  33.758  17.517   7.050
 7547POPC   C4A54654  33.788  17.543   7.350
 7547POPC   C1B54655  34.006  17.344   6.450
 7547POPC   C2B54656  33.964  17.285   6.750
 7547POPC   C3B54657  33.935  17.302   7.050
 7547POPC   C4B54658  33.982  17.320   7.350
 7548POPC   NC354659  30.672   9.771   5.550
 7548POPC   PO454660  30.717   9.747   5.850
 7548POPC   GL154661  30.680   9.786   6.150
 7548POPC   GL254662  30.566   9.809   6.150
 7548POPC   C1A54663  30.686   9.730   6.450
 7548POPC   D2A54664  30.657   9.790   6.750
 7548POPC   C3A54665  30.661   9.743   7.050
 7548POPC   C4A54666  30.673   9.767   7.350
 7548POPC   C1B54667  30.501   9.940   6.450
 7548POPC   C2B54668  30.490   9.890   6.750
 7548POPC   C3B54669  30.468   9.881   7.050
 7548POPC   C4B54670  30.492   9.901   7.350
 7549POPC   NC354671  36.926  25.281   5.550
 7549POPC   PO454672  36.953  25.282   5.850
 7549POPC   GL154673  36.922  25.267   6.150
 7549POPC   GL254674  36.956  25.192   6.150
 7549POPC   C1A54675  36.879  25.300   6.450
 7549POPC   D2A54676  36.930  25.266   6.750
 7549POPC   C3A54677  36.905  25.260   7.050
 7549POPC   C4A54678  36.892  25.234   7.350
 7549POPC   C1B54679  36.928  25.022   6.450
 7549POPC   C2B54680  36.919  24.978   6.750
 7549POPC   C3B54681  36.947  24.992   7.050
 7549POPC   C4B54682  36.995  25.006   7.350
 7550POPC   NC354683   5.887  22.966   5.550
 7550POPC   PO454684   5.884  22.921   5.850
 7550POPC   GL154685   5.908  22.901   6.150
 7550POPC   GL254686   5.874  23.077   6.150
 7550POPC   C1A54687   5.857  22.948   6.450
 7550POPC   D2A54688   5.888  22.964   6.750
 7550POPC   C3A54689   5.854  22.982   7.050
 7550POPC   C4A54690   5.908  22.965   7.350
 7550POPC   C1B54691   5.874  23.197   6.450
 7550POPC   C2B54692   5.889  23.155   6.750
 7550POPC   C3B54693   5.810  23.186   7.050
 7550POPC   C4B54694   5.868  23.211   7.350
 7551POPC   NC354695  43.070  15.922   5.550
 7551POPC   PO454696  43.080  15.966   5.850
 7551POPC   GL154697  43.104  15.937   6.150
 7551POPC   GL254698  42.978  15.972   6.150
 7551POPC   C1A54699  43.092  15.922   6.450
 7551POPC   D2A54700  43.107  15.983   6.750
 7551POPC   C3A54701  43.110  15.918   7.050
 7551POPC   C4A54702  43.145  15.976   7.350
 7551POPC   C1B54703  42.879  16.045   6.450
 7551POPC   C2B54704  42.892  15.962   6.750
 7551POPC   C3B54705  42.892  15.968   7.050
 7551POPC   C4B54706  42.846  15.969   7.350
 7552POPC   NC354707  31.447  15.940   5.550
 7552POPC   PO454708  31.436  15.906   5.850
 7552POPC   GL154709  31.474  15.926   6.150
 7552POPC   GL254710  31.545  15.869   6.150
 7552POPC   C1A54711  31.477  15.962   6.450
 7552POPC   D2A54712  31.520  15.986   6.750
 7552POPC   C3A54713  31.457  15.907   7.050
 7552POPC   C4A54714  31.429  15.944   7.350
 7552POPC   C1B54715  31.629  15.783   6.450
 7552POPC   C2B54716  31.685  15.775   6.750
 7552POPC   C3B54717  31.607  15.794   7.050
 7552POPC   C4B54718  31.640  15.785   7.350
 7553POPC   NC354719  21.366  19.843   5.550
 7553POPC   PO454720  21.362  19.823   5.850
 7553POPC   GL154721  21.370  19.819   6.150
 7553POPC   GL254722  21.381  19.665   6.150
 7553POPC   C1A54723  21.399  19.848   6.450
 7553POPC   D2A54724  21.348  19.803   6.750
 7553POPC   C3A54725  21.379  19.801   7.050
 7553POPC   C4A54726  21.358  19.813   7.350
 7553POPC   C1B54727  21.396  19.592   6.450
 7553POPC   C2B54728  21.408  19.611   6.750
 7553POPC   C3B54729  21.398  19.599   7.050
 7553POPC   C4B54730  21.367  19.606   7.350
 7554POPC   NC354731   4.301   1.967   5.550
 7554POPC   PO454732   4.307   1.963   5.850
 7554POPC   GL154733   4.340   2.021   6.150
 7554POPC   GL254734   4.411   1.843   6.150
 7554POPC   C1A54735   4.314   1.952   6.450
 7554POPC   D2A54736   4.328   2.038   6.750
 7554POPC   C3A54737   4.341   2.020   7.050
 7554POPC   C4A54738   4.329   1.995   7.350
 7554POPC   C1B54739   4.412   1.758   6.450
 7554POPC   C2B54740   4.480   1.751   6.750
 7554POPC   C3B54741   4.492   1.794   7.050
 7554POPC   C4B54742   4.403   1.819   7.350
 7555POPC   NC354743  26.794  15.989   5.550
 7555POPC   PO454744  26.807  15.957   5.850
 7555POPC   GL154745  26.821  15.953   6.150
 7555POPC   GL254746  26.909  16.041   6.150
 7555POPC   C1A54747  26.824  15.983   6.450
 7555POPC   D2A54748  26.805  15.988   6.750
 7555POPC   C3A54749  26.784  15.997   7.050
 7555POPC   C4A54750  26.799  15.912   7.350
 7555POPC   C1B54751  26.914  16.155   6.450
 7555POPC   C2B54752  26.927  16.231   6.750
 7555POPC   C3B54753  26.878  16.194   7.050
 7555POPC   C4B54754  26.866  16.193   7.350
 7556POPC   NC354755  43.142   4.339   5.550
 7556POPC   PO454756  43.111   4.313   5.850
 7556POPC   GL154757  43.144   4.279   6.150
 7556POPC   GL254758  43.102   4.429   6.150
 7556POPC   C1A54759  43.080   4.276   6.450
 7556POPC   D2A54760  43.132   4.365   6.750
 7556POPC   C3A54761  43.132   4.293   7.050
 7556POPC   C4A54762  43.110   4.350   7.350
 7556POPC   C1B54763  43.082   4.529   6.450
 7556POPC   C2B54764  43.094   4.552   6.750
 7556POPC   C3B54765  43.123   4.551   7.050
 7556POPC   C4B54766  43.142   4.608   7.350
 7557POPC   NC354767  19.073  20.648   5.550
 7557POPC   PO454768  19.027  20.568   5.850
 7557POPC   GL154769  19.082  20.636   6.150
 7557POPC   GL254770  19.173  20.722   6.150
 7557POPC   C1A54771  19.089  20.580   6.450
 7557POPC   D2A54772  19.062  20.652   6.750
 7557POPC   C3A54773  19.022  20.588   7.050
 7557POPC   C4A54774  19.048  20.575   7.350
 7557POPC   C1B54775  19.227  20.825   6.450
 7557POPC   C2B54776  19.231  20.803   6.750
 7557POPC   C3B54777  19.224  20.837   7.050
 7557POPC   C4B54778  19.218  20.752   7.350
 7558POPC   NC354779  19.101   2.796   5.550
 7558POPC   PO454780  19.106   2.804   5.850
 7558POPC   GL154781  19.074   2.750   6.150
 7558POPC   GL254782  18.960   2.874   6.150
 7558POPC   C1A54783  19.061   2.726   6.450
 7558POPC   D2A54784  19.021   2.724   6.750
 7558POPC   C3A54785  19.090   2.763   7.050
 7558POPC   C4A54786  19.085   2.811   7.350
 7558POPC   C1B54787  18.910   3.012   6.450
 7558POPC   C2B54788  18.884   2.945   6.750
 7558POPC   C3B54789  18.889   2.932   7.050
 7558POPC   C4B54790  18.925   3.013   7.350
 7559POPC   NC354791  30.703  26.001   5.550
 7559POPC   PO454792  30.683  26.045   5.850
 7559POPC   GL154793  30.672  26.061   6.150
 7559POPC   GL254794  30.723  26.207   6.150
 7559POPC   C1A54795  30.716  26.008   6.450
 7559POPC   D2A54796  30.668  26.025   6.750
 7559POPC   C3A54797  30.732  26.002   7.050
 7559POPC   C4A54798  30.706  26.035   7.350
 7559POPC   C1B54799  30.763  26.329   6.450
 7559POPC   C2B54800  30.778  26.273   6.750
 7559POPC   C3B54801  30.804  26.301   7.050
 7559POPC   C4B54802  30.774  26.314   7.350
 7560POPC   NC354803  14.414  40.831   5.550
 7560POPC   PO454804  14.447  40.830   5.850
 7560POPC   GL154805  14.429  40.750   6.150
 7560POPC   GL254806  14.369  40.683   6.150
 7560POPC   C1A54807  14.393  40.826   6.450
 7560POPC   D2A54808  14.388  40.739   6.750
 7560POPC   C3A54809  14.414  40.754   7.050
 7560POPC   C4A54810  14.432  40.804   7.350
 7560POPC   C1B54811  14.437  40.538   6.450
 7560POPC   C2B54812  14.415  40.566   6.750
 7560POPC   C3B54813  14.456  40.556   7.050
 7560POPC   C4B54814  14.403  40.536   7.350
 7561POPC   NC354815   7.427  36.151   5.550
 7561POPC   PO454816   7.444  36.141   5.850
 7561POPC   GL154817   7.470  36.112   6.150
 7561POPC   GL254818   7.402  36.033   6.150
 7561POPC   C1A54819   7.381  36.087   6.450
 7561POPC   D2A54820   7.393  36.081   6.750
 7561POPC   C3A54821   7.438  36.139   7.050
 7561POPC   C4A54822   7.416  36.079   7.350
 7561POPC   C1B54823   7.335  35.903   6.450
 7561POPC   C2B54824   7.335  35.900   6.750
 7561POPC   C3B54825   7.377  35.909   7.050
 7561POPC   C4B54826   7.301  35.863   7.350
 7562POPC   NC354827  38.429  16.003   5.550
 7562POPC   PO454828  38.490  15.977   5.850
 7562POPC   GL154829  38.465  15.977   6.150
 7562POPC   GL254830  38.449  16.093   6.150
 7562POPC   C1A54831  38.486  16.005   6.450
 7562POPC   D2A54832  38.473  15.967   6.750
 7562POPC   C3A54833  38.486  15.991   7.050
 7562POPC   C4A54834  38.450  15.956   7.350
 7562POPC   C1B54835  38.375  16.230   6.450
 7562POPC   C2B54836  38.421  16.190   6.750
 7562POPC   C3B54837  38.370  16.179   7.050
 7562POPC   C4B54838  38.382  16.237   7.350
 7563POPC   NC354839  24.539  11.279   5.550
 7563POPC   PO454840  24.486  11.325   5.850
 7563POPC   GL154841  24.511  11.300   6.150
 7563POPC   GL254842  24.506  11.136   6.150
 7563POPC   C1A54843  24.440  11.289   6.450
 7563POPC   D2A54844  24.443  11.259   6.750
 7563POPC   C3A54845  24.512  11.294   7.050
 7563POPC   C4A54846  24.537  11.344   7.350
 7563POPC   C1B54847  24.511  11.079   6.450
 7563POPC   C2B54848  24.463  11.076   6.750
 7563POPC   C3B54849  24.470  11.004   7.050
 7563POPC   C4B54850  24.521  11.071   7.350
 7564POPC   NC354851  13.653  30.682   5.550
 7564POPC   PO454852  13.658  30.651   5.850
 7564POPC   GL154853  13.671  30.662   6.150
 7564POPC   GL254854  13.622  30.827   6.150
 7564POPC   C1A54855  13.665  30.648   6.450
 7564POPC   D2A54856  13.618  30.674   6.750
 7564POPC   C3A54857  13.600  30.703   7.050
 7564POPC   C4A54858  13.639  30.688   7.350
 7564POPC   C1B54859  13.594  30.950   6.450
 7564POPC   C2B54860  13.595  30.981   6.750
 7564POPC   C3B54861  13.553  30.916   7.050
 7564POPC   C4B54862  13.552  30.975   7.350
 7565POPC   NC354863  35.302   1.977   5.550
 7565POPC   PO454864  35.359   1.978   5.850
 7565POPC   GL154865  35.364   1.942   6.150
 7565POPC   GL254866  35.308   1.911   6.150
 7565POPC   C1A54867  35.391   1.983   6.450
 7565POPC   D2A54868  35.364   1.946   6.750
 7565POPC   C3A54869  35.330   1.983   7.050
 7565POPC   C4A54870  35.378   2.004   7.350
 7565POPC   C1B54871  35.303   1.738   6.450
 7565POPC   C2B54872  35.295   1.693   6.750
 7565POPC   C3B54873  35.343   1.774   7.050
 7565POPC   C4B54874  35.379   1.696   7.350
 7566POPC   NC354875   2.720  26.084   5.550
 7566POPC   PO454876   2.814  26.052   5.850
 7566POPC   GL154877   2.736  25.993   6.150
 7566POPC   GL254878   2.875  26.011   6.150
 7566POPC   C1A54879   2.789  26.075   6.450
 7566POPC   D2A54880   2.760  26.083   6.750
 7566POPC   C3A54881   2.787  26.029   7.050
 7566POPC   C4A54882   2.756  26.058   7.350
 7566POPC   C1B54883   3.012  25.962   6.450
 7566POPC   C2B54884   3.028  25.949   6.750
 7566POPC   C3B54885   3.051  25.981   7.050
 7566POPC   C4B54886   3.005  25.952   7.350
 7567POPC   NC354887  31.472  39.221   5.550
 7567POPC   PO454888  31.514  39.193   5.850
 7567POPC   GL154889  31.469  39.184   6.150
 7567POPC   GL254890  31.468  39.328   6.150
 7567POPC   C1A54891  31.509  39.268   6.450
 7567POPC   D2A54892  31.518  39.230   6.750
 7567POPC   C3A54893  31.440  39.189   7.050
 7567POPC   C4A54894  31.462  39.261   7.350
 7567POPC   C1B54895  31.392  39.439   6.450
 7567POPC   C2B54896  31.429  39.444   6.750
 7567POPC   C3B54897  31.368  39.446   7.050
 7567POPC   C4B54898  31.395  39.463   7.350
 7568POPC   NC354899  33.074  38.505   5.550
 7568POPC   PO454900  33.074  38.442   5.850
 7568POPC   GL154901  33.014  38.434   6.150
 7568POPC   GL254902  33.079  38.395   6.150
 7568POPC   C1A54903  33.004  38.463   6.450
 7568POPC   D2A54904  33.053  38.479   6.750
 7568POPC   C3A54905  33.016  38.407   7.050
 7568POPC   C4A54906  33.069  38.445   7.350
 7568POPC   C1B54907  33.248  38.332   6.450
 7568POPC   C2B54908  33.179  38.270   6.750
 7568POPC   C3B54909  33.230  38.253   7.050
 7568POPC   C4B54910  33.180  38.326   7.350
 7569POPC   NC354911  23.759  43.137   5.550
 7569POPC   PO454912  23.758  43.061   5.850
 7569POPC   GL154913  23.729  43.129   6.150
 7569POPC   GL254914  23.593  43.119   6.150
 7569POPC   C1A54915  23.685  43.137   6.450
 7569POPC   D2A54916  23.734  43.139   6.750
 7569POPC   C3A54917  23.700  43.144   7.050
 7569POPC   C4A54918  23.723  43.142   7.350
 7569POPC   C1B54919  23.427  43.071   6.450
 7569POPC   C2B54920  23.418  43.079   6.750
 7569POPC   C3B54921  23.498  43.091   7.050
 7569POPC   C4B54922  23.492  43.064   7.350
 7570POPC   NC354923  17.474  28.390   5.550
 7570POPC   PO454924  17.482  28.394   5.850
 7570POPC   GL154925  17.507  28.323   6.150
 7570POPC   GL254926  17.581  28.255   6.150
 7570POPC   C1A54927  17.528  28.401   6.450
 7570POPC   D2A54928  17.484  28.330   6.750
 7570POPC   C3A54929  17.463  28.396   7.050
 7570POPC   C4A54930  17.501  28.355   7.350
 7570POPC   C1B54931  17.657  28.213   6.450
 7570POPC   C2B54932  17.694  28.233   6.750
 7570POPC   C3B54933  17.711  28.176   7.050
 7570POPC   C4B54934  17.670  28.172   7.350
 7571POPC   NC354935  15.175  28.364   5.550
 7571POPC   PO454936  15.205  28.381   5.850
 7571POPC   GL154937  15.200  28.374   6.150
 7571POPC   GL254938  15.259  28.454   6.150
 7571POPC   C1A54939  15.180  28.380   6.450
 7571POPC   D2A54940  15.181  28.387   6.750
 7571POPC   C3A54941  15.162  28.324   7.050
 7571POPC   C4A54942  15.177  28.362   7.350
 7571POPC   C1B54943  15.416  28.431   6.450
 7571POPC   C2B54944  15.443  28.435   6.750
 7571POPC   C3B54945  15.373  28.483   7.050
 7571POPC   C4B54946  15.379  28.430   7.350
 7572POPC   NC354947  43.920  29.945   5.550
 7572POPC   PO454948  43.922  29.908   5.850
 7572POPC   GL154949  43.880  29.953   6.150
 7572POPC   GL254950  43.759  29.944   6.150
 7572POPC   C1A54951  43.859  29.921   6.450
 7572POPC   D2A54952  43.887  29.967   6.750
 7572POPC   C3A54953  43.850  29.954   7.050
 7572POPC   C4A54954  43.873  29.953   7.350
 7572POPC   C1B54955  43.651  30.085   6.450
 7572POPC   C2B54956  43.633  30.026   6.750
 7572POPC   C3B54957  43.641  30.044   7.050
 7572POPC   C4B54958  43.702  30.112   7.350
 7573POPC   NC354959  15.196  17.472   5.550
 7573POPC   PO454960  15.197  17.489   5.850
 7573POPC   GL154961  15.212  17.516   6.150
 7573POPC   GL254962  15.067  17.578   6.150
 7573POPC   C1A54963  15.135  17.480   6.450
 7573POPC   D2A54964  15.174  17.535   6.750
 7573POPC   C3A54965  15.188  17.480   7.050
 7573POPC   C4A54966  15.187  17.508   7.350
 7573POPC   C1B54967  14.926  17.669   6.450
 7573POPC   C2B54968  15.004  17.657   6.750
 7573POPC   C3B54969  14.964  17.603   7.050
 7573POPC   C4B54970  14.970  17.606   7.350
 7574POPC   NC354971  22.979  22.957   5.550
 7574POPC   PO454972  22.964  22.935   5.850
 7574POPC   GL154973  22.980  22.890   6.150
 7574POPC   GL254974  22.900  23.076   6.150
 7574POPC   C1A54975  22.946  22.986   6.450
 7574POPC   D2A54976  22.937  22.953   6.750
 7574POPC   C3A54977  22.904  22.980   7.050
 7574POPC   C4A54978  22.916  22.979   7.350
 7574POPC   C1B54979  22.902  23.157   6.450
 7574POPC   C2B54980  22.842  23.156   6.750
 7574POPC   C3B54981  22.901  23.196   7.050
 7574POPC   C4B54982  22.895  23.200   7.350
 7575POPC   NC354983  29.964  19.063   5.550
 7575POPC   PO454984  29.922  19.036   5.850
 7575POPC   GL154985  29.954  19.075   6.150
 7575POPC   GL254986  29.848  19.017   6.150
 7575POPC   C1A54987  29.882  19.071   6.450
 7575POPC   D2A54988  29.882  19.094   6.750
 7575POPC   C3A54989  29.872  19.080   7.050
 7575POPC   C4A54990  29.927  19.010   7.350
 7575POPC   C1B54991  29.665  19.020   6.450
 7575POPC   C2B54992  29.649  18.976   6.750
 7575POPC   C3B54993  29.660  19.001   7.050
 7575POPC   C4B54994  29.710  18.933   7.350
 7576POPC   NC354995  32.237   5.821   5.550
 7576POPC   PO454996  32.220   5.823   5.850
 7576POPC   GL154997  32.246   5.901   6.150
 7576POPC   GL254998  32.222   5.986   6.150
 7576POPC   C1A54999  32.270   5.907   6.450
 7576POPC   D2A55000  32.281   5.895   6.750
 7576POPC   C3A55001  32.274   5.885   7.050
 7576POPC   C4A55002  32.282   5.885   7.350
 7576POPC   C1B55003  32.198   6.116   6.450
 7576POPC   C2B55004  32.264   6.086   6.750
 7576POPC   C3B55005  32.230   6.083   7.050
 7576POPC   C4B55006  32.184   6.116   7.350
 7577POPC   NC355007  23.763  35.309   5.550
 7577POPC   PO455008  23.699  35.355   5.850
 7577POPC   GL155009  23.680  35.332   6.150
 7577POPC   GL255010  23.865  35.243   6.150
 7577POPC   C1A55011  23.722  35.342   6.450
 7577POPC   D2A55012  23.737  35.326   6.750
 7577POPC   C3A55013  23.734  35.392   7.050
 7577POPC   C4A55014  23.716  35.389   7.350
 7577POPC   C1B55015  23.928  35.173   6.450
 7577POPC   C2B55016  23.947  35.198   6.750
 7577POPC   C3B55017  23.933  35.234   7.050
 7577POPC   C4B55018  23.964  35.267   7.350
 7578POPC   NC355019  24.520  27.623   5.550
 7578POPC   PO455020  24.514  27.560   5.850
 7578POPC   GL155021  24.440  27.637   6.150
 7578POPC   GL255022  24.455  27.665   6.150
 7578POPC   C1A55023  24.525  27.574   6.450
 7578POPC   D2A55024  24.535  27.619   6.750
 7578POPC   C3A55025  24.504  27.574   7.050
 7578POPC   C4A55026  24.519  27.554   7.350
 7578POPC   C1B55027  24.400  27.830   6.450
 7578POPC   C2B55028  24.413  27.872   6.750
 7578POPC   C3B55029  24.418  27.819   7.050
 7578POPC   C4B55030  24.431  27.842   7.350
 7579POPC   NC355031  37.674  19.041   5.550
 7579POPC   PO455032  37.658  19.040   5.850
 7579POPC   GL155033  37.662  19.063   6.150
 7579POPC   GL255034  37.829  19.112   6.150
 7579POPC   C1A55035  37.679  19.032   6.450
 7579POPC   D2A55036  37.699  19.084   6.750
 7579POPC   C3A55037  37.690  19.107   7.050
 7579POPC   C4A55038  37.638  19.032   7.350
 7579POPC   C1B55039  37.893  19.090   6.450
 7579POPC   C2B55040  37.942  19.098   6.750
 7579POPC   C3B55041  37.937  19.088   7.050
 7579POPC   C4B55042  37.942  19.113   7.350
 7580POPC   NC355043  22.157  26.864   5.550
 7580POPC   PO455044  22.186  26.831   5.850
 7580POPC   GL155045  22.184  26.805   6.150
 7580POPC   GL255046  22.264  26.864   6.150
 7580POPC   C1A55047  22.130  26.835   6.450
 7580POPC   D2A55048  22.156  26.834   6.750
 7580POPC   C3A55049  22.152  26.858   7.050
 7580POPC   C4A55050  22.143  26.794   7.350
 7580POPC   C1B55051  22.382  27.025   6.450
 7580POPC   C2B55052  22.370  26.940   6.750
 7580POPC   C3B55053  22.302  26.954   7.050
 7580POPC   C4B55054  22.336  27.020   7.350
 7581POPC   NC355055  13.668  29.891   5.550
 7581POPC   PO455056  13.579  29.934   5.850
 7581POPC   GL155057  13.586  29.886   6.150
 7581POPC   GL255058  13.715  29.975   6.150
 7581POPC   C1A55059  13.607  29.960   6.450
 7581POPC   D2A55060  13.665  29.918   6.750
 7581POPC   C3A55061  13.605  29.892   7.050
 7581POPC   C4A55062  13.644  29.920   7.350
 7581POPC   C1B55063  13.828  30.061   6.450
 7581POPC   C2B55064  13.846  30.021   6.750
 7581POPC   C3B55065  13.874  30.060   7.050
 7581POPC   C4B55066  13.840  30.037   7.350
 7582POPC   NC355067  25.294  44.619   5.550
 7582POPC   PO455068  25.271  44.678   5.850
 7582POPC   GL155069  25.305  44.644   6.150
 7582POPC   GL255070  25.281  44.780   6.150
 7582POPC   C1A55071  25.275  44.699   6.450
 7582POPC   D2A55072  25.228  44.689   6.750
 7582POPC   C3A55073  25.301  44.692   7.050
 7582POPC   C4A55074  25.233  44.660   7.350
 7582POPC   C1B55075  25.319  44.879   6.450
 7582POPC   C2B55076  25.330  44.893   6.750
 7582POPC   C3B55077  25.380  44.923   7.050
 7582POPC   C4B55078  25.297  44.888   7.350
 7583POPC   NC355079  41.585  43.084   5.550
 7583POPC   PO455080  41.604  43.109   5.850
 7583POPC   GL155081  41.594  43.116   6.150
 7583POPC   GL255082  41.572  42.973   6.150
 7583POPC   C1A55083  41.512  43.146   6.450
 7583POPC   D2A55084  41.566  43.129   6.750
 7583POPC   C3A55085  41.574  43.150   7.050
 7583POPC   C4A55086  41.551  43.128   7.350
 7583POPC   C1B55087  41.509  42.918   6.450
 7583POPC   C2B55088  41.474  42.831   6.750
 7583POPC   C3B55089  41.525  42.848   7.050
 7583POPC   C4B55090  41.528  42.827   7.350
 7584POPC   NC355091   0.391  31.473   5.550
 7584POPC   PO455092   0.397  31.477   5.850
 7584POPC   GL155093   0.454  31.445   6.150
 7584POPC   GL255094   0.609  31.550   6.150
 7584POPC   C1A55095   0.434  31.477   6.450
 7584POPC   D2A55096   0.467  31.476   6.750
 7584POPC   C3A55097   0.484  31.511   7.050
 7584POPC   C4A55098   0.446  31.510   7.350
 7584POPC   C1B55099   0.636  31.586   6.450
 7584POPC   C2B55100   0.677  31.578   6.750
 7584POPC   C3B55101   0.729  31.560   7.050
 7584POPC   C4B55102   0.652  31.519   7.350
 7585POPC   NC355103  40.767   1.175   5.550
 7585POPC   PO455104  40.754   1.183   5.850
 7585POPC   GL155105  40.824   1.171   6.150
 7585POPC   GL255106  40.824   1.386   6.150
 7585POPC   C1A55107  40.747   1.173   6.450
 7585POPC   D2A55108  40.746   1.248   6.750
 7585POPC   C3A55109  40.737   1.246   7.050
 7585POPC   C4A55110  40.750   1.248   7.350
 7585POPC   C1B55111  40.788   1.452   6.450
 7585POPC   C2B55112  40.858   1.499   6.750
 7585POPC   C3B55113  40.843   1.420   7.050
 7585POPC   C4B55114  40.773   1.492   7.350
 7586POPC   NC355115  23.698   5.841   5.550
 7586POPC   PO455116  23.684   5.896   5.850
 7586POPC   GL155117  23.746   5.822   6.150
 7586POPC   GL255118  23.830   5.817   6.150
 7586POPC   C1A55119  23.693   5.855   6.450
 7586POPC   D2A55120  23.700   5.860   6.750
 7586POPC   C3A55121  23.727   5.856   7.050
 7586POPC   C4A55122  23.664   5.874   7.350
 7586POPC   C1B55123  23.920   5.760   6.450
 7586POPC   C2B55124  23.924   5.771   6.750
 7586POPC   C3B55125  23.981   5.772   7.050
 7586POPC   C4B55126  23.996   5.772   7.350
 7587POPC   NC355127  12.805   9.013   5.550
 7587POPC   PO455128  12.830   8.945   5.850
 7587POPC   GL155129  12.868   9.007   6.150
 7587POPC   GL255130  12.825   9.064   6.150
 7587POPC   C1A55131  12.887   8.924   6.450
 7587POPC   D2A55132  12.835   9.019   6.750
 7587POPC   C3A55133  12.852   8.975   7.050
 7587POPC   C4A55134  12.894   8.928   7.350
 7587POPC   C1B55135  12.763   9.163   6.450
 7587POPC   C2B55136  12.734   9.195   6.750
 7587POPC   C3B55137  12.781   9.213   7.050
 7587POPC   C4B55138  12.730   9.207   7.350
 7588POPC   NC355139   9.778  30.724   5.550
 7588POPC   PO455140   9.783  30.691   5.850
 7588POPC   GL155141   9.776  30.680   6.150
 7588POPC   GL255142   9.881  30.704   6.150
 7588POPC   C1A55143   9.747  30.693   6.450
 7588POPC   D2A55144   9.741  30.685   6.750
 7588POPC   C3A55145   9.779  30.660   7.050
 7588POPC   C4A55146   9.729  30.685   7.350
 7588POPC   C1B55147   9.994  30.764   6.450
 7588POPC   C2B55148   9.990  30.753   6.750
 7588POPC   C3B55149   9.989  30.774   7.050
 7588POPC   C4B55150  10.020  30.758   7.350
 7589POPC   NC355151  22.926  10.492   5.550
 7589POPC   PO455152  22.982  10.538   5.850
 7589POPC   GL155153  22.962  10.525   6.150
 7589POPC   GL255154  22.893  10.588   6.150
 7589POPC   C1A55155  22.944  10.510   6.450
 7589POPC   D2A55156  22.933  10.508   6.750
 7589POPC   C3A55157  22.909  10.545   7.050
 7589POPC   C4A55158  22.951  10.511   7.350
 7589POPC   C1B55159  22.814  10.709   6.450
 7589POPC   C2B55160  22.825  10.704   6.750
 7589POPC   C3B55161  22.779  10.709   7.050
 7589POPC   C4B55162  22.865  10.760   7.350
 7590POPC   NC355163  33.778   1.217   5.550
 7590POPC   PO455164  33.811   1.198   5.850
 7590POPC   GL155165  33.807   1.187   6.150
 7590POPC   GL255166  33.957   1.168   6.150
 7590POPC   C1A55167  33.825   1.198   6.450
 7590POPC   D2A55168  33.827   1.214   6.750
 7590POPC   C3A55169  33.827   1.184   7.050
 7590POPC   C4A55170  33.767   1.250   7.350
 7590POPC   C1B55171  34.031   1.186   6.450
 7590POPC   C2B55172  34.053   1.209   6.750
 7590POPC   C3B55173  34.033   1.171   7.050
 7590POPC   C4B55174  34.049   1.238   7.350
 7591POPC   NC355175  43.873  36.086   5.550
 7591POPC   PO455176  43.904  36.084   5.850
 7591POPC   GL155177  43.891  36.171   6.150
 7591POPC   GL255178  43.945  36.026   6.150
 7591POPC   C1A55179  43.907  36.148   6.450
 7591POPC   D2A55180  43.932  36.080   6.750
 7591POPC   C3A55181  43.902  36.084   7.050
 7591POPC   C4A55182  43.904  36.081   7.350
 7591POPC   C1B55183  43.997  35.901   6.450
 7591POPC   C2B55184  44.021  35.941   6.750
 7591POPC   C3B55185  44.049  35.871   7.050
 7591POPC   C4B55186  43.963  35.937   7.350
 7592POPC   NC355187  24.472  26.014   5.550
 7592POPC   PO455188  24.519  26.083   5.850
 7592POPC   GL155189  24.486  26.084   6.150
 7592POPC   GL255190  24.464  25.944   6.150
 7592POPC   C1A55191  24.447  25.996   6.450
 7592POPC   D2A55192  24.536  26.074   6.750
 7592POPC   C3A55193  24.484  26.039   7.050
 7592POPC   C4A55194  24.463  26.059   7.350
 7592POPC   C1B55195  24.416  25.804   6.450
 7592POPC   C2B55196  24.414  25.821   6.750
 7592POPC   C3B55197  24.381  25.821   7.050
 7592POPC   C4B55198  24.451  25.827   7.350
 7593POPC   NC355199   3.550  35.364   5.550
 7593POPC   PO455200   3.587  35.371   5.850
 7593POPC   GL155201   3.500  35.340   6.150
 7593POPC   GL255202   3.534  35.446   6.150
 7593POPC   C1A55203   3.555  35.379   6.450
 7593POPC   D2A55204   3.524  35.332   6.750
 7593POPC   C3A55205   3.560  35.322   7.050
 7593POPC   C4A55206   3.553  35.318   7.350
 7593POPC   C1B55207   3.604  35.625   6.450
 7593POPC   C2B55208   3.598  35.636   6.750
 7593POPC   C3B55209   3.615  35.626   7.050
 7593POPC   C4B55210   3.543  35.640   7.350
 7594POPC   NC355211  33.048  34.599   5.550
 7594POPC   PO455212  32.983  34.556   5.850
 7594POPC   GL155213  33.014  34.600   6.150
 7594POPC   GL255214  33.007  34.730   6.150
 7594POPC   C1A55215  32.990  34.574   6.450
 7594POPC   D2A55216  33.020  34.554   6.750
 7594POPC   C3A55217  33.026  34.562   7.050
 7594POPC   C4A55218  33.006  34.577   7.350
 7594POPC   C1B55219  33.019  34.778   6.450
 7594POPC   C2B55220  33.063  34.832   6.750
 7594POPC   C3B55221  33.033  34.829   7.050
 7594POPC   C4B55222  32.991  34.820   7.350
 7595POPC   NC355223  20.581  32.268   5.550
 7595POPC   PO455224  20.584  32.281   5.850
 7595POPC   GL155225  20.601  32.232   6.150
 7595POPC   GL255226  20.551  32.165   6.150
 7595POPC   C1A55227  20.609  32.278   6.450
 7595POPC   D2A55228  20.616  32.264   6.750
 7595POPC   C3A55229  20.632  32.249   7.050
 7595POPC   C4A55230  20.591  32.290   7.350
 7595POPC   C1B55231  20.446  32.052   6.450
 7595POPC   C2B55232  20.449  32.116   6.750
 7595POPC   C3B55233  20.371  32.119   7.050
 7595POPC   C4B55234  20.463  32.107   7.350
 7596POPC   NC355235  33.041  12.123   5.550
 7596POPC   PO455236  33.057  12.026   5.850
 7596POPC   GL155237  33.042  12.071   6.150
 7596POPC   GL255238  32.864  12.049   6.150
 7596POPC   C1A55239  33.031  12.101   6.450
 7596POPC   D2A55240  33.018  12.048   6.750
 7596POPC   C3A55241  33.006  12.059   7.050
 7596POPC   C4A55242  33.003  12.094   7.350
 7596POPC   C1B55243  32.798  12.138   6.450
 7596POPC   C2B55244  32.782  12.135   6.750
 7596POPC   C3B55245  32.744  12.090   7.050
 7596POPC   C4B55246  32.733  12.089   7.350
 7597POPC   NC355247  15.150  33.025   5.550
 7597POPC   PO455248  15.194  33.023   5.850
 7597POPC   GL155249  15.143  33.059   6.150
 7597POPC   GL255250  15.343  33.095   6.150
 7597POPC   C1A55251  15.203  33.029   6.450
 7597POPC   D2A55252  15.156  32.985   6.750
 7597POPC   C3A55253  15.141  33.052   7.050
 7597POPC   C4A55254  15.185  33.032   7.350
 7597POPC   C1B55255  15.447  33.155   6.450
 7597POPC   C2B55256  15.364  33.082   6.750
 7597POPC   C3B55257  15.401  33.134   7.050
 7597POPC   C4B55258  15.389  33.157   7.350
 7598POPC   NC355259   4.268  17.546   5.550
 7598POPC   PO455260   4.317  17.470   5.850
 7598POPC   GL155261   4.349  17.546   6.150
 7598POPC   GL255262   4.408  17.597   6.150
 7598POPC   C1A55263   4.336  17.468   6.450
 7598POPC   D2A55264   4.339  17.548   6.750
 7598POPC   C3A55265   4.301  17.477   7.050
 7598POPC   C4A55266   4.343  17.536   7.350
 7598POPC   C1B55267   4.592  17.598   6.450
 7598POPC   C2B55268   4.553  17.626   6.750
 7598POPC   C3B55269   4.561  17.574   7.050
 7598POPC   C4B55270   4.556  17.656   7.350
 7599POPC   NC355271  40.807  32.225   5.550
 7599POPC   PO455272  40.809  32.218   5.850
 7599POPC   GL155273  40.746  32.210   6.150
 7599POPC   GL255274  40.707  32.169   6.150
 7599POPC   C1A55275  40.809  32.295   6.450
 7599POPC   D2A55276  40.817  32.288   6.750
 7599POPC   C3A55277  40.741  32.280   7.050
 7599POPC   C4A55278  40.812  32.207   7.350
 7599POPC   C1B55279  40.622  31.984   6.450
 7599POPC   C2B55280  40.696  32.020   6.750
 7599POPC   C3B55281  40.670  31.981   7.050
 7599POPC   C4B55282  40.641  31.982   7.350
 7600POPC   NC355283   4.315  37.635   5.550
 7600POPC   PO455284   4.331  37.672   5.850
 7600POPC   GL155285   4.274  37.713   6.150
 7600POPC   GL255286   4.210  37.678   6.150
 7600POPC   C1A55287   4.279  37.638   6.450
 7600POPC   D2A55288   4.339  37.710   6.750
 7600POPC   C3A55289   4.342  37.673   7.050
 7600POPC   C4A55290   4.338  37.655   7.350
 7600POPC   C1B55291   4.106  37.677   6.450
 7600POPC   C2B55292   4.070  37.638   6.750
 7600POPC   C3B55293   4.119  37.633   7.050
 7600POPC   C4B55294   4.100  37.617   7.350
 7601POPC   NC355295  25.218  23.706   5.550
 7601POPC   PO455296  25.241  23.669   5.850
 7601POPC   GL155297  25.256  23.724   6.150
 7601POPC   GL255298  25.254  23.585   6.150
 7601POPC   C1A55299  25.278  23.674   6.450
 7601POPC   D2A55300  25.268  23.748   6.750
 7601POPC   C3A55301  25.252  23.738   7.050
 7601POPC   C4A55302  25.311  23.690   7.350
 7601POPC   C1B55303  25.196  23.466   6.450
 7601POPC   C2B55304  25.238  23.443   6.750
 7601POPC   C3B55305  25.246  23.492   7.050
 7601POPC   C4B55306  25.159  23.462   7.350
 7602POPC   NC355307  36.926  17.548   5.550
 7602POPC   PO455308  36.885  17.537   5.850
 7602POPC   GL155309  36.889  17.465   6.150
 7602POPC   GL255310  36.990  17.594   6.150
 7602POPC   C1A55311  36.878  17.549   6.450
 7602POPC   D2A55312  36.944  17.519   6.750
 7602POPC   C3A55313  36.871  17.493   7.050
 7602POPC   C4A55314  36.935  17.512   7.350
 7602POPC   C1B55315  37.121  17.626   6.450
 7602POPC   C2B55316  37.088  17.690   6.750
 7602POPC   C3B55317  37.092  17.674   7.050
 7602POPC   C4B55318  37.080  17.683   7.350
 7603POPC   NC355319  36.912  12.846   5.550
 7603POPC   PO455320  36.899  12.862   5.850
 7603POPC   GL155321  36.879  12.851   6.150
 7603POPC   GL255322  36.864  12.941   6.150
 7603POPC   C1A55323  36.921  12.855   6.450
 7603POPC   D2A55324  36.876  12.874   6.750
 7603POPC   C3A55325  36.890  12.871   7.050
 7603POPC   C4A55326  36.886  12.873   7.350
 7603POPC   C1B55327  36.796  13.100   6.450
 7603POPC   C2B55328  36.888  13.116   6.750
 7603POPC   C3B55329  36.824  13.141   7.050
 7603POPC   C4B55330  36.826  13.072   7.350
 7604POPC   NC355331  26.837  10.567   5.550
 7604POPC   PO455332  26.805  10.567   5.850
 7604POPC   GL155333  26.776  10.538   6.150
 7604POPC   GL255334  26.898  10.591   6.150
 7604POPC   C1A55335  26.785  10.483   6.450
 7604POPC   D2A55336  26.795  10.515   6.750
 7604POPC   C3A55337  26.782  10.551   7.050
 7604POPC   C4A55338  26.865  10.540   7.350
 7604POPC   C1B55339  27.033  10.668   6.450
 7604POPC   C2B55340  27.024  10.660   6.750
 7604POPC   C3B55341  26.966  10.668   7.050
 7604POPC   C4B55342  26.976  10.667   7.350
 7605POPC   NC355343   2.754  30.649   5.550
 7605POPC   PO455344   2.729  30.686   5.850
 7605POPC   GL155345   2.783  30.692   6.150
 7605POPC   GL255346   2.772  30.835   6.150
 7605POPC   C1A55347   2.718  30.711   6.450
 7605POPC   D2A55348   2.748  30.742   6.750
 7605POPC   C3A55349   2.727  30.655   7.050
 7605POPC   C4A55350   2.736  30.689   7.350
 7605POPC   C1B55351   2.700  30.915   6.450
 7605POPC   C2B55352   2.726  30.895   6.750
 7605POPC   C3B55353   2.710  30.963   7.050
 7605POPC   C4B55354   2.711  30.925   7.350
 7606POPC   NC355355  24.520  25.295   5.550
 7606POPC   PO455356  24.480  25.302   5.850
 7606POPC   GL155357  24.476  25.314   6.150
 7606POPC   GL255358  24.648  25.343   6.150
 7606POPC   C1A55359  24.461  25.310   6.450
 7606POPC   D2A55360  24.465  25.232   6.750
 7606POPC   C3A55361  24.538  25.307   7.050
 7606POPC   C4A55362  24.539  25.270   7.350
 7606POPC   C1B55363  24.684  25.337   6.450
 7606POPC   C2B55364  24.692  25.363   6.750
 7606POPC   C3B55365  24.690  25.350   7.050
 7606POPC   C4B55366  24.730  25.328   7.350
 7607POPC   NC355367  29.165  13.664   5.550
 7607POPC   PO455368  29.099  13.611   5.850
 7607POPC   GL155369  29.123  13.585   6.150
 7607POPC   GL255370  29.088  13.465   6.150
 7607POPC   C1A55371  29.132  13.624   6.450
 7607POPC   D2A55372  29.150  13.599   6.750
 7607POPC   C3A55373  29.186  13.659   7.050
 7607POPC   C4A55374  29.174  13.589   7.350
 7607POPC   C1B55375  29.070  13.414   6.450
 7607POPC   C2B55376  29.047  13.401   6.750
 7607POPC   C3B55377  29.036  13.430   7.050
 7607POPC   C4B55378  29.042  13.359   7.350
 7608POPC   NC355379  35.391   9.789   5.550
 7608POPC   PO455380  35.360   9.763   5.850
 7608POPC   GL155381  35.387   9.786   6.150
 7608POPC   GL255382  35.325   9.823   6.150
 7608POPC   C1A55383  35.389   9.764   6.450
 7608POPC   D2A55384  35.337   9.736   6.750
 7608POPC   C3A55385  35.355   9.798   7.050
 7608POPC   C4A55386  35.358   9.773   7.350
 7608POPC   C1B55387  35.254   9.945   6.450
 7608POPC   C2B55388  35.338   9.962   6.750
 7608POPC   C3B55389  35.296  10.011   7.050
 7608POPC   C4B55390  35.334  10.003   7.350
 7609POPC   NC355391  30.722  17.499   5.550
 7609POPC   PO455392  30.679  17.493   5.850
 7609POPC   GL155393  30.654  17.551   6.150
 7609POPC   GL255394  30.647  17.356   6.150
 7609POPC   C1A55395  30.671  17.522   6.450
 7609POPC   D2A55396  30.689  17.497   6.750
 7609POPC   C3A55397  30.739  17.462   7.050
 7609POPC   C4A55398  30.685  17.493   7.350
 7609POPC   C1B55399  30.587  17.281   6.450
 7609POPC   C2B55400  30.631  17.312   6.750
 7609POPC   C3B55401  30.625  17.234   7.050
 7609POPC   C4B55402  30.548  17.265   7.350
 7610POPC   NC355403  30.681   0.468   5.550
 7610POPC   PO455404  30.658   0.449   5.850
 7610POPC   GL155405  30.733   0.408   6.150
 7610POPC   GL255406  30.653   0.552   6.150
 7610POPC   C1A55407  30.705   0.389   6.450
 7610POPC   D2A55408  30.681   0.446   6.750
 7610POPC   C3A55409  30.745   0.456   7.050
 7610POPC   C4A55410  30.682   0.483   7.350
 7610POPC   C1B55411  30.688   0.678   6.450
 7610POPC   C2B55412  30.717   0.691   6.750
 7610POPC   C3B55413  30.651   0.734   7.050
 7610POPC   C4B55414  30.702   0.720   7.350
 7611POPC   NC355415  40.025  44.710   5.550
 7611POPC   PO455416  40.029  44.638   5.850
 7611POPC   GL155417  39.963  44.633   6.150
 7611POPC   GL255418  40.022  44.761   6.150
 7611POPC   C1A55419  40.015  44.632   6.450
 7611POPC   D2A55420  40.033  44.694   6.750
 7611POPC   C3A55421  39.981  44.624   7.050
 7611POPC   C4A55422  40.043  44.652   7.350
 7611POPC   C1B55423  40.024  44.876   6.450
 7611POPC   C2B55424  39.946  44.882   6.750
 7611POPC   C3B55425  40.037  44.935   7.050
 7611POPC   C4B55426  40.011  44.922   7.350
 7612POPC   NC355427  13.653  17.540   5.550
 7612POPC   PO455428  13.630  17.548   5.850
 7612POPC   GL155429  13.627  17.512   6.150
 7612POPC   GL255430  13.607  17.417   6.150
 7612POPC   C1A55431  13.624  17.511   6.450
 7612POPC   D2A55432  13.677  17.505   6.750
 7612POPC   C3A55433  13.673  17.533   7.050
 7612POPC   C4A55434  13.629  17.541   7.350
 7612POPC   C1B55435  13.636  17.266   6.450
 7612POPC   C2B55436  13.609  17.217   6.750
 7612POPC   C3B55437  13.682  17.248   7.050
 7612POPC   C4B55438  13.614  17.234   7.350
 7613POPC   NC355439  30.719   5.071   5.550
 7613POPC   PO455440  30.696   5.081   5.850
 7613POPC   GL155441  30.699   5.085   6.150
 7613POPC   GL255442  30.584   5.032   6.150
 7613POPC   C1A55443  30.742   5.140   6.450
 7613POPC   D2A55444  30.723   5.056   6.750
 7613POPC   C3A55445  30.721   5.141   7.050
 7613POPC   C4A55446  30.681   5.046   7.350
 7613POPC   C1B55447  30.485   4.987   6.450
 7613POPC   C2B55448  30.504   5.055   6.750
 7613POPC   C3B55449  30.456   4.980   7.050
 7613POPC   C4B55450  30.462   5.040   7.350
 7614POPC   NC355451  29.936  26.060   5.550
 7614POPC   PO455452  29.929  26.028   5.850
 7614POPC   GL155453  29.890  26.064   6.150
 7614POPC   GL255454  29.849  26.193   6.150
 7614POPC   C1A55455  29.917  26.040   6.450
 7614POPC   D2A55456  29.875  26.060   6.750
 7614POPC   C3A55457  29.919  26.025   7.050
 7614POPC   C4A55458  29.915  26.075   7.350
 7614POPC   C1B55459  29.846  26.269   6.450
 7614POPC   C2B55460  29.833  26.238   6.750
 7614POPC   C3B55461  29.811  26.222   7.050
 7614POPC   C4B55462  29.795  26.265   7.350
 7615POPC   NC355463  35.362  40.760   5.550
 7615POPC   PO455464  35.346  40.796   5.850
 7615POPC   GL155465  35.317  40.832   6.150
 7615POPC   GL255466  35.442  40.719   6.150
 7615POPC   C1A55467  35.317  40.794   6.450
 7615POPC   D2A55468  35.324  40.755   6.750
 7615POPC   C3A55469  35.395  40.779   7.050
 7615POPC   C4A55470  35.368  40.752   7.350
 7615POPC   C1B55471  35.514  40.603   6.450
 7615POPC   C2B55472  35.489  40.585   6.750
 7615POPC   C3B55473  35.531  40.554   7.050
 7615POPC   C4B55474  35.493  40.571   7.350
 7616POPC   NC355475  31.483  42.334   5.550
 7616POPC   PO455476  31.432  42.332   5.850
 7616POPC   GL155477  31.503  42.341   6.150
 7616POPC   GL255478  31.442  42.244   6.150
 7616POPC   C1A55479  31.480  42.361   6.450
 7616POPC   D2A55480  31.455  42.302   6.750
 7616POPC   C3A55481  31.471  42.297   7.050
 7616POPC   C4A55482  31.489  42.349   7.350
 7616POPC   C1B55483  31.354  42.129   6.450
 7616POPC   C2B55484  31.344  42.082   6.750
 7616POPC   C3B55485  31.302  42.124   7.050
 7616POPC   C4B55486  31.390  42.135   7.350
 7617POPC   NC355487  22.179   6.670   5.550
 7617POPC   PO455488  22.176   6.682   5.850
 7617POPC   GL155489  22.122   6.603   6.150
 7617POPC   GL255490  22.115   6.580   6.150
 7617POPC   C1A55491  22.121   6.627   6.450
 7617POPC   D2A55492  22.116   6.663   6.750
 7617POPC   C3A55493  22.207   6.671   7.050
 7617POPC   C4A55494  22.189   6.689   7.350
 7617POPC   C1B55495  22.012   6.445   6.450
 7617POPC   C2B55496  22.066   6.385   6.750
 7617POPC   C3B55497  22.010   6.410   7.050
 7617POPC   C4B55498  22.094   6.429   7.350
 7618POPC   NC355499  30.677  24.453   5.550
 7618POPC   PO455500  30.680  24.466   5.850
 7618POPC   GL155501  30.727  24.450   6.150
 7618POPC   GL255502  30.583  24.558   6.150
 7618POPC   C1A55503  30.736  24.465   6.450
 7618POPC   D2A55504  30.706  24.481   6.750
 7618POPC   C3A55505  30.648  24.490   7.050
 7618POPC   C4A55506  30.653  24.533   7.350
 7618POPC   C1B55507  30.427  24.571   6.450
 7618POPC   C2B55508  30.428  24.536   6.750
 7618POPC   C3B55509  30.444  24.550   7.050
 7618POPC   C4B55510  30.421  24.506   7.350
 7619POPC   NC355511  42.288   1.186   5.550
 7619POPC   PO455512  42.293   1.235   5.850
 7619POPC   GL155513  42.322   1.259   6.150
 7619POPC   GL255514  42.239   1.167   6.150
 7619POPC   C1A55515  42.329   1.252   6.450
 7619POPC   D2A55516  42.342   1.231   6.750
 7619POPC   C3A55517  42.378   1.181   7.050
 7619POPC   C4A55518  42.373   1.177   7.350
 7619POPC   C1B55519  42.084   1.232   6.450
 7619POPC   C2B55520  42.040   1.150   6.750
 7619POPC   C3B55521  42.042   1.175   7.050
 7619POPC   C4B55522  42.095   1.169   7.350
 7620POPC   NC355523   7.420  36.942   5.550
 7620POPC   PO455524   7.430  36.902   5.850
 7620POPC   GL155525   7.468  36.917   6.150
 7620POPC   GL255526   7.394  36.788   6.150
 7620POPC   C1A55527   7.462  36.933   6.450
 7620POPC   D2A55528   7.432  36.860   6.750
 7620POPC   C3A55529   7.406  36.884   7.050
 7620POPC   C4A55530   7.378  36.907   7.350
 7620POPC   C1B55531   7.419  36.635   6.450
 7620POPC   C2B55532   7.417  36.641   6.750
 7620POPC   C3B55533   7.441  36.630   7.050
 7620POPC   C4B55534   7.441  36.625   7.350
 7621POPC   NC355535   9.008  18.260   5.550
 7621POPC   PO455536   8.977  18.259   5.850
 7621POPC   GL155537   9.008  18.266   6.150
 7621POPC   GL255538   9.095  18.385   6.150
 7621POPC   C1A55539   9.018  18.260   6.450
 7621POPC   D2A55540   8.954  18.313   6.750
 7621POPC   C3A55541   8.944  18.236   7.050
 7621POPC   C4A55542   8.938  18.282   7.350
 7621POPC   C1B55543   9.140  18.511   6.450
 7621POPC   C2B55544   9.179  18.508   6.750
 7621POPC   C3B55545   9.166  18.516   7.050
 7621POPC   C4B55546   9.175  18.464   7.350
 7622POPC   NC355547  12.055  26.768   5.550
 7622POPC   PO455548  12.038  26.827   5.850
 7622POPC   GL155549  12.028  26.863   6.150
 7622POPC   GL255550  12.090  26.965   6.150
 7622POPC   C1A55551  12.081  26.846   6.450
 7622POPC   D2A55552  12.106  26.805   6.750
 7622POPC   C3A55553  12.046  26.780   7.050
 7622POPC   C4A55554  12.086  26.827   7.350
 7622POPC   C1B55555  12.095  27.068   6.450
 7622POPC   C2B55556  12.048  27.109   6.750
 7622POPC   C3B55557  12.060  27.058   7.050
 7622POPC   C4B55558  12.046  27.045   7.350
 7623POPC   NC355559  42.331  24.453   5.550
 7623POPC   PO455560  42.307  24.472   5.850
 7623POPC   GL155561  42.324  24.449   6.150
 7623POPC   GL255562  42.469  24.451   6.150
 7623POPC   C1A55563  42.360  24.536   6.450
 7623POPC   D2A55564  42.316  24.480   6.750
 7623POPC   C3A55565  42.292  24.500   7.050
 7623POPC   C4A55566  42.381  24.511   7.350
 7623POPC   C1B55567  42.567  24.357   6.450
 7623POPC   C2B55568  42.510  24.381   6.750
 7623POPC   C3B55569  42.570  24.373   7.050
 7623POPC   C4B55570  42.565  24.413   7.350
 7624POPC   NC355571  22.926  21.387   5.550
 7624POPC   PO455572  22.968  21.432   5.850
 7624POPC   GL155573  22.897  21.350   6.150
 7624POPC   GL255574  22.920  21.511   6.150
 7624POPC   C1A55575  22.946  21.405   6.450
 7624POPC   D2A55576  22.921  21.362   6.750
 7624POPC   C3A55577  22.978  21.346   7.050
 7624POPC   C4A55578  22.966  21.357   7.350
 7624POPC   C1B55579  22.864  21.609   6.450
 7624POPC   C2B55580  22.869  21.583   6.750
 7624POPC   C3B55581  22.777  21.562   7.050
 7624POPC   C4B55582  22.868  21.648   7.350
 7625POPC   NC355583   5.876  43.865   5.550
 7625POPC   PO455584   5.877  43.847   5.850
 7625POPC   GL155585   5.843  43.928   6.150
 7625POPC   GL255586   5.910  43.740   6.150
 7625POPC   C1A55587   5.904  43.864   6.450
 7625POPC   D2A55588   5.862  43.876   6.750
 7625POPC   C3A55589   5.907  43.913   7.050
 7625POPC   C4A55590   5.869  43.842   7.350
 7625POPC   C1B55591   5.891  43.602   6.450
 7625POPC   C2B55592   5.907  43.619   6.750
 7625POPC   C3B55593   5.892  43.684   7.050
 7625POPC   C4B55594   5.908  43.647   7.350
 7626POPC   NC355595  30.647  15.932   5.550
 7626POPC   PO455596  30.662  15.980   5.850
 7626POPC   GL155597  30.693  15.936   6.150
 7626POPC   GL255598  30.777  15.876   6.150
 7626POPC   C1A55599  30.652  15.982   6.450
 7626POPC   D2A55600  30.681  15.917   6.750
 7626POPC   C3A55601  30.658  15.976   7.050
 7626POPC   C4A55602  30.679  15.935   7.350
 7626POPC   C1B55603  30.850  15.772   6.450
 7626POPC   C2B55604  30.767  15.721   6.750
 7626POPC   C3B55605  30.803  15.764   7.050
 7626POPC   C4B55606  30.837  15.684   7.350
 7627POPC   NC355607  31.429  35.372   5.550
 7627POPC   PO455608  31.466  35.316   5.850
 7627POPC   GL155609  31.513  35.395   6.150
 7627POPC   GL255610  31.577  35.287   6.150
 7627POPC   C1A55611  31.460  35.330   6.450
 7627POPC   D2A55612  31.434  35.305   6.750
 7627POPC   C3A55613  31.443  35.383   7.050
 7627POPC   C4A55614  31.434  35.352   7.350
 7627POPC   C1B55615  31.745  35.283   6.450
 7627POPC   C2B55616  31.749  35.260   6.750
 7627POPC   C3B55617  31.713  35.316   7.050
 7627POPC   C4B55618  31.754  35.306   7.350
 7628POPC   NC355619  15.210  30.664   5.550
 7628POPC   PO455620  15.134  30.743   5.850
 7628POPC   GL155621  15.135  30.657   6.150
 7628POPC   GL255622  15.282  30.584   6.150
 7628POPC   C1A55623  15.146  30.666   6.450
 7628POPC   D2A55624  15.176  30.678   6.750
 7628POPC   C3A55625  15.183  30.695   7.050
 7628POPC   C4A55626  15.214  30.694   7.350
 7628POPC   C1B55627  15.361  30.613   6.450
 7628POPC   C2B55628  15.437  30.608   6.750
 7628POPC   C3B55629  15.377  30.609   7.050
 7628POPC   C4B55630  15.361  30.592   7.350
 7629POPC   NC355631  15.211  33.808   5.550
 7629POPC   PO455632  15.141  33.814   5.850
 7629POPC   GL155633  15.170  33.763   6.150
 7629POPC   GL255634  15.165  33.954   6.150
 7629POPC   C1A55635  15.148  33.767   6.450
 7629POPC   D2A55636  15.158  33.783   6.750
 7629POPC   C3A55637  15.222  33.755   7.050
 7629POPC   C4A55638  15.198  33.797   7.350
 7629POPC   C1B55639  15.068  34.089   6.450
 7629POPC   C2B55640  15.072  34.025   6.750
 7629POPC   C3B55641  15.155  34.015   7.050
 7629POPC   C4B55642  15.080  34.040   7.350
 7630POPC   NC355643  29.179  17.490   5.550
 7630POPC   PO455644  29.127  17.461   5.850
 7630POPC   GL155645  29.110  17.514   6.150
 7630POPC   GL255646  29.086  17.620   6.150
 7630POPC   C1A55647  29.181  17.480   6.450
 7630POPC   D2A55648  29.178  17.474   6.750
 7630POPC   C3A55649  29.121  17.555   7.050
 7630POPC   C4A55650  29.127  17.549   7.350
 7630POPC   C1B55651  28.953  17.644   6.450
 7630POPC   C2B55652  28.976  17.663   6.750
 7630POPC   C3B55653  28.916  17.698   7.050
 7630POPC   C4B55654  28.935  17.683   7.350
 7631POPC   NC355655  34.552  29.878   5.550
 7631POPC   PO455656  34.546  29.940   5.850
 7631POPC   GL155657  34.606  29.889   6.150
 7631POPC   GL255658  34.430  29.919   6.150
 7631POPC   C1A55659  34.589  29.924   6.450
 7631POPC   D2A55660  34.552  29.907   6.750
 7631POPC   C3A55661  34.592  29.892   7.050
 7631POPC   C4A55662  34.581  29.903   7.350
 7631POPC   C1B55663  34.374  30.017   6.450
 7631POPC   C2B55664  34.358  29.983   6.750
 7631POPC   C3B55665  34.315  29.997   7.050
 7631POPC   C4B55666  34.378  30.027   7.350
 7632POPC   NC355667  36.170  44.626   5.550
 7632POPC   PO455668  36.164  44.642   5.850
 7632POPC   GL155669  36.137  44.697   6.150
 7632POPC   GL255670  35.992  44.627   6.150
 7632POPC   C1A55671  36.093  44.641   6.450
 7632POPC   D2A55672  36.098  44.676   6.750
 7632POPC   C3A55673  36.176  44.696   7.050
 7632POPC   C4A55674  36.155  44.622   7.350
 7632POPC   C1B55675  35.874  44.531   6.450
 7632POPC   C2B55676  35.951  44.495   6.750
 7632POPC   C3B55677  35.909  44.571   7.050
 7632POPC   C4B55678  35.953  44.538   7.350
 7633POPC   NC355679  17.482   9.016   5.550
 7633POPC   PO455680  17.504   8.970   5.850
 7633POPC   GL155681  17.475   8.980   6.150
 7633POPC   GL255682  17.574   8.930   6.150
 7633POPC   C1A55683  17.553   8.974   6.450
 7633POPC   D2A55684  17.465   8.936   6.750
 7633POPC   C3A55685  17.515   8.938   7.050
 7633POPC   C4A55686  17.538   8.959   7.350
 7633POPC   C1B55687  17.702   8.884   6.450
 7633POPC   C2B55688  17.760   8.891   6.750
 7633POPC   C3B55689  17.757   8.869   7.050
 7633POPC   C4B55690  17.692   8.836   7.350
 7634POPC   NC355691  26.864  19.876   5.550
 7634POPC   PO455692  26.848  19.810   5.850
 7634POPC   GL155693  26.800  19.877   6.150
 7634POPC   GL255694  26.897  19.899   6.150
 7634POPC   C1A55695  26.829  19.872   6.450
 7634POPC   D2A55696  26.831  19.872   6.750
 7634POPC   C3A55697  26.834  19.833   7.050
 7634POPC   C4A55698  26.840  19.797   7.350
 7634POPC   C1B55699  26.937  19.994   6.450
 7634POPC   C2B55700  26.930  20.002   6.750
 7634POPC   C3B55701  26.956  20.085   7.050
 7634POPC   C4B55702  26.977  20.039   7.350
 7635POPC   NC355703   8.993  36.887   5.550
 7635POPC   PO455704   8.938  36.891   5.850
 7635POPC   GL155705   9.014  36.900   6.150
 7635POPC   GL255706   9.011  37.027   6.150
 7635POPC   C1A55707   8.995  36.910   6.450
 7635POPC   D2A55708   8.953  36.937   6.750
 7635POPC   C3A55709   8.982  36.937   7.050
 7635POPC   C4A55710   8.948  36.880   7.350
 7635POPC   C1B55711   9.154  37.090   6.450
 7635POPC   C2B55712   9.171  37.089   6.750
 7635POPC   C3B55713   9.089  37.134   7.050
 7635POPC   C4B55714   9.123  37.113   7.350
 7636POPC   NC355715  32.247  28.337   5.550
 7636POPC   PO455716  32.264  28.374   5.850
 7636POPC   GL155717  32.294  28.327   6.150
 7636POPC   GL255718  32.102  28.308   6.150
 7636POPC   C1A55719  32.212  28.329   6.450
 7636POPC   D2A55720  32.292  28.417   6.750
 7636POPC   C3A55721  32.242  28.415   7.050
 7636POPC   C4A55722  32.223  28.412   7.350
 7636POPC   C1B55723  32.059  28.323   6.450
 7636POPC   C2B55724  32.043  28.293   6.750
 7636POPC   C3B55725  32.045  28.312   7.050
 7636POPC   C4B55726  32.012  28.330   7.350
 7637POPC   NC355727  35.335   3.580   5.550
 7637POPC   PO455728  35.378   3.574   5.850
 7637POPC   GL155729  35.350   3.498   6.150
 7637POPC   GL255730  35.214   3.592   6.150
 7637POPC   C1A55731  35.379   3.585   6.450
 7637POPC   D2A55732  35.309   3.570   6.750
 7637POPC   C3A55733  35.385   3.576   7.050
 7637POPC   C4A55734  35.393   3.516   7.350
 7637POPC   C1B55735  35.065   3.562   6.450
 7637POPC   C2B55736  35.114   3.573   6.750
 7637POPC   C3B55737  35.083   3.532   7.050
 7637POPC   C4B55738  35.125   3.498   7.350
 7638POPC   NC355739   6.629  18.260   5.550
 7638POPC   PO455740   6.642  18.237   5.850
 7638POPC   GL155741   6.596  18.245   6.150
 7638POPC   GL255742   6.736  18.434   6.150
 7638POPC   C1A55743   6.623  18.273   6.450
 7638POPC   D2A55744   6.606  18.240   6.750
 7638POPC   C3A55745   6.599  18.247   7.050
 7638POPC   C4A55746   6.614  18.295   7.350
 7638POPC   C1B55747   6.782  18.523   6.450
 7638POPC   C2B55748   6.779  18.558   6.750
 7638POPC   C3B55749   6.722  18.527   7.050
 7638POPC   C4B55750   6.739  18.490   7.350
 7639POPC   NC355751  43.885  27.619   5.550
 7639POPC   PO455752  43.891  27.564   5.850
 7639POPC   GL155753  43.865  27.629   6.150
 7639POPC   GL255754  43.744  27.604   6.150
 7639POPC   C1A55755  43.857  27.555   6.450
 7639POPC   D2A55756  43.846  27.593   6.750
 7639POPC   C3A55757  43.840  27.617   7.050
 7639POPC   C4A55758  43.935  27.584   7.350
 7639POPC   C1B55759  43.615  27.673   6.450
 7639POPC   C2B55760  43.611  27.613   6.750
 7639POPC   C3B55761  43.641  27.667   7.050
 7639POPC   C4B55762  43.633  27.654   7.350
 7640POPC   NC355763  32.245  19.090   5.550
 7640POPC   PO455764  32.254  19.050   5.850
 7640POPC   GL155765  32.271  19.106   6.150
 7640POPC   GL255766  32.355  19.051   6.150
 7640POPC   C1A55767  32.240  19.099   6.450
 7640POPC   D2A55768  32.252  19.069   6.750
 7640POPC   C3A55769  32.283  19.037   7.050
 7640POPC   C4A55770  32.273  19.073   7.350
 7640POPC   C1B55771  32.460  18.980   6.450
 7640POPC   C2B55772  32.446  18.930   6.750
 7640POPC   C3B55773  32.466  18.946   7.050
 7640POPC   C4B55774  32.527  18.962   7.350
 7641POPC   NC355775  32.283  16.716   5.550
 7641POPC   PO455776  32.240  16.703   5.850
 7641POPC   GL155777  32.214  16.750   6.150
 7641POPC   GL255778  32.313  16.787   6.150
 7641POPC   C1A55779  32.212  16.726   6.450
 7641POPC   D2A55780  32.238  16.732   6.750
 7641POPC   C3A55781  32.275  16.740   7.050
 7641POPC   C4A55782  32.265  16.688   7.350
 7641POPC   C1B55783  32.443  16.881   6.450
 7641POPC   C2B55784  32.439  16.937   6.750
 7641POPC   C3B55785  32.417  16.946   7.050
 7641POPC   C4B55786  32.473  16.894   7.350
 7642POPC   NC355787   3.523  33.823   5.550
 7642POPC   PO455788   3.498  33.763   5.850
 7642POPC   GL155789   3.564  33.788   6.150
 7642POPC   GL255790   3.617  33.694   6.150
 7642POPC   C1A55791   3.556  33.766   6.450
 7642POPC   D2A55792   3.515  33.795   6.750
 7642POPC   C3A55793   3.540  33.787   7.050
 7642POPC   C4A55794   3.574  33.753   7.350
 7642POPC   C1B55795   3.607  33.599   6.450
 7642POPC   C2B55796   3.646  33.525   6.750
 7642POPC   C3B55797   3.618  33.613   7.050
 7642POPC   C4B55798   3.596  33.564   7.350
 7643POPC   NC355799  35.379  43.881   5.550
 7643POPC   PO455800  35.346  43.875   5.850
 7643POPC   GL155801  35.332  43.866   6.150
 7643POPC   GL255802  35.372  43.737   6.150
 7643POPC   C1A55803  35.343  43.836   6.450
 7643POPC   D2A55804  35.342  43.905   6.750
 7643POPC   C3A55805  35.395  43.853   7.050
 7643POPC   C4A55806  35.381  43.861   7.350
 7643POPC   C1B55807  35.411  43.685   6.450
 7643POPC   C2B55808  35.419  43.605   6.750
 7643POPC   C3B55809  35.435  43.689   7.050
 7643POPC   C4B55810  35.417  43.616   7.350
 7644POPC   NC355811  12.886  38.428   5.550
 7644POPC   PO455812  12.827  38.454   5.850
 7644POPC   GL155813  12.864  38.454   6.150
 7644POPC   GL255814  12.690  38.501   6.150
 7644POPC   C1A55815  12.892  38.440   6.450
 7644POPC   D2A55816  12.890  38.494   6.750
 7644POPC   C3A55817  12.802  38.454   7.050
 7644POPC   C4A55818  12.835  38.450   7.350
 7644POPC   C1B55819  12.648  38.563   6.450
 7644POPC   C2B55820  12.660  38.567   6.750
 7644POPC   C3B55821  12.641  38.535   7.050
 7644POPC   C4B55822  12.653  38.555   7.350
 7645POPC   NC355823   1.257  39.212   5.550
 7645POPC   PO455824   1.212  39.271   5.850
 7645POPC   GL155825   1.247  39.265   6.150
 7645POPC   GL255826   1.298  39.095   6.150
 7645POPC   C1A55827   1.198  39.230   6.450
 7645POPC   D2A55828   1.211  39.211   6.750
 7645POPC   C3A55829   1.176  39.273   7.050
 7645POPC   C4A55830   1.257  39.269   7.350
 7645POPC   C1B55831   1.361  39.025   6.450
 7645POPC   C2B55832   1.352  39.005   6.750
 7645POPC   C3B55833   1.422  39.008   7.050
 7645POPC   C4B55834   1.387  39.069   7.350
 7646POPC   NC355835  24.463   2.025   5.550
 7646POPC   PO455836  24.443   1.958   5.850
 7646POPC   GL155837  24.467   2.036   6.150
 7646POPC   GL255838  24.361   2.122   6.150
 7646POPC   C1A55839  24.509   2.016   6.450
 7646POPC   D2A55840  24.517   2.008   6.750
 7646POPC   C3A55841  24.464   2.004   7.050
 7646POPC   C4A55842  24.505   1.971   7.350
 7646POPC   C1B55843  24.348   2.157   6.450
 7646POPC   C2B55844  24.338   2.132   6.750
 7646POPC   C3B55845  24.295   2.193   7.050
 7646POPC   C4B55846  24.293   2.193   7.350
 7647POPC   NC355847  35.362  12.035   5.550
 7647POPC   PO455848  35.379  12.074   5.850
 7647POPC   GL155849  35.374  12.107   6.150
 7647POPC   GL255850  35.428  11.967   6.150
 7647POPC   C1A55851  35.353  12.092   6.450
 7647POPC   D2A55852  35.391  12.096   6.750
 7647POPC   C3A55853  35.317  12.123   7.050
 7647POPC   C4A55854  35.329  12.098   7.350
 7647POPC   C1B55855  35.541  11.967   6.450
 7647POPC   C2B55856  35.579  11.877   6.750
 7647POPC   C3B55857  35.516  11.949   7.050
 7647POPC   C4B55858  35.562  11.881   7.350
 7648POPC   NC355859  15.996  20.618   5.550
 7648POPC   PO455860  15.919  20.601   5.850
 7648POPC   GL155861  15.958  20.658   6.150
 7648POPC   GL255862  15.968  20.464   6.150
 7648POPC   C1A55863  15.963  20.649   6.450
 7648POPC   D2A55864  15.985  20.568   6.750
 7648POPC   C3A55865  15.957  20.570   7.050
 7648POPC   C4A55866  15.933  20.629   7.350
 7648POPC   C1B55867  15.982  20.399   6.450
 7648POPC   C2B55868  15.929  20.381   6.750
 7648POPC   C3B55869  15.926  20.326   7.050
 7648POPC   C4B55870  15.919  20.381   7.350
 7649POPC   NC355871  43.842  35.341   5.550
 7649POPC   PO455872  43.867  35.358   5.850
 7649POPC   GL155873  43.858  35.323   6.150
 7649POPC   GL255874  43.768  35.373   6.150
 7649POPC   C1A55875  43.899  35.374   6.450
 7649POPC   D2A55876  43.933  35.302   6.750
 7649POPC   C3A55877  43.853  35.375   7.050
 7649POPC   C4A55878  43.893  35.399   7.350
 7649POPC   C1B55879  43.677  35.419   6.450
 7649POPC   C2B55880  43.669  35.447   6.750
 7649POPC   C3B55881  43.686  35.490   7.050
 7649POPC   C4B55882  43.692  35.427   7.350
 7650POPC   NC355883  44.661   0.418   5.550
 7650POPC   PO455884  44.628   0.403   5.850
 7650POPC   GL155885  44.657   0.399   6.150
 7650POPC   GL255886  44.533   0.572   6.150
 7650POPC   C1A55887  44.677   0.424   6.450
 7650POPC   D2A55888  44.702   0.391   6.750
 7650POPC   C3A55889  44.643   0.481   7.050
 7650POPC   C4A55890  44.619   0.432   7.350
 7650POPC   C1B55891  44.450   0.632   6.450
 7650POPC   C2B55892  44.519   0.639   6.750
 7650POPC   C3B55893  44.509   0.569   7.050
 7650POPC   C4B55894  44.490   0.664   7.350
 7651POPC   NC355895  29.103  37.711   5.550
 7651POPC   PO455896  29.187  37.651   5.850
 7651POPC   GL155897  29.188  37.646   6.150
 7651POPC   GL255898  29.315  37.725   6.150
 7651POPC   C1A55899  29.164  37.691   6.450
 7651POPC   D2A55900  29.132  37.671   6.750
 7651POPC   C3A55901  29.175  37.706   7.050
 7651POPC   C4A55902  29.154  37.663   7.350
 7651POPC   C1B55903  29.399  37.721   6.450
 7651POPC   C2B55904  29.404  37.679   6.750
 7651POPC   C3B55905  29.389  37.716   7.050
 7651POPC   C4B55906  29.386  37.688   7.350
 7652POPC   NC355907   8.220  43.110   5.550
 7652POPC   PO455908   8.188  43.103   5.850
 7652POPC   GL155909   8.165  43.062   6.150
 7652POPC   GL255910   8.349  43.148   6.150
 7652POPC   C1A55911   8.205  43.111   6.450
 7652POPC   D2A55912   8.187  43.121   6.750
 7652POPC   C3A55913   8.164  43.137   7.050
 7652POPC   C4A55914   8.170  43.074   7.350
 7652POPC   C1B55915   8.468  43.090   6.450
 7652POPC   C2B55916   8.426  43.122   6.750
 7652POPC   C3B55917   8.427  43.101   7.050
 7652POPC   C4B55918   8.452  43.083   7.350
 7653POPC   NC355919  37.659   5.117   5.550
 7653POPC   PO455920  37.635   5.120   5.850
 7653POPC   GL155921  37.676   5.067   6.150
 7653POPC   GL255922  37.552   5.146   6.150
 7653POPC   C1A55923  37.670   5.127   6.450
 7653POPC   D2A55924  37.638   5.088   6.750
 7653POPC   C3A55925  37.671   5.132   7.050
 7653POPC   C4A55926  37.728   5.110   7.350
 7653POPC   C1B55927  37.539   5.309   6.450
 7653POPC   C2B55928  37.468   5.309   6.750
 7653POPC   C3B55929  37.487   5.273   7.050
 7653POPC   C4B55930  37.449   5.263   7.350
 7654POPC   NC355931  10.539  11.255   5.550
 7654POPC   PO455932  10.548  11.338   5.850
 7654POPC   GL155933  10.493  11.271   6.150
 7654POPC   GL255934  10.456  11.185   6.150
 7654POPC   C1A55935  10.567  11.277   6.450
 7654POPC   D2A55936  10.491  11.305   6.750
 7654POPC   C3A55937  10.521  11.315   7.050
 7654POPC   C4A55938  10.499  11.268   7.350
 7654POPC   C1B55939  10.377  11.093   6.450
 7654POPC   C2B55940  10.398  11.079   6.750
 7654POPC   C3B55941  10.348  11.141   7.050
 7654POPC   C4B55942  10.352  11.104   7.350
 7655POPC   NC355943  26.859  23.685   5.550
 7655POPC   PO455944  26.814  23.763   5.850
 7655POPC   GL155945  26.852  23.681   6.150
 7655POPC   GL255946  26.829  23.870   6.150
 7655POPC   C1A55947  26.781  23.748   6.450
 7655POPC   D2A55948  26.776  23.680   6.750
 7655POPC   C3A55949  26.812  23.686   7.050
 7655POPC   C4A55950  26.800  23.679   7.350
 7655POPC   C1B55951  26.834  23.966   6.450
 7655POPC   C2B55952  26.746  24.006   6.750
 7655POPC   C3B55953  26.811  23.932   7.050
 7655POPC   C4B55954  26.808  23.925   7.350
 7656POPC   NC355955  42.325  26.080   5.550
 7656POPC   PO455956  42.334  26.067   5.850
 7656POPC   GL155957  42.315  26.024   6.150
 7656POPC   GL255958  42.437  25.985   6.150
 7656POPC   C1A55959  42.285  26.070   6.450
 7656POPC   D2A55960  42.285  26.043   6.750
 7656POPC   C3A55961  42.313  26.025   7.050
 7656POPC   C4A55962  42.286  26.087   7.350
 7656POPC   C1B55963  42.497  25.851   6.450
 7656POPC   C2B55964  42.464  25.836   6.750
 7656POPC   C3B55965  42.465  25.799   7.050
 7656POPC   C4B55966  42.510  25.796   7.350
 7657POPC   NC355967   8.980  33.037   5.550
 7657POPC   PO455968   8.934  33.063   5.850
 7657POPC   GL155969   8.979  33.030   6.150
 7657POPC   GL255970   9.048  33.042   6.150
 7657POPC   C1A55971   8.955  33.072   6.450
 7657POPC   D2A55972   8.982  33.045   6.750
 7657POPC   C3A55973   9.000  32.997   7.050
 7657POPC   C4A55974   8.978  32.992   7.350
 7657POPC   C1B55975   9.178  33.067   6.450
 7657POPC   C2B55976   9.271  33.012   6.750
 7657POPC   C3B55977   9.269  33.035   7.050
 7657POPC   C4B55978   9.260  33.037   7.350
 7658POPC   NC355979  29.960  21.349   5.550
 7658POPC   PO455980  29.953  21.402   5.850
 7658POPC   GL155981  29.879  21.432   6.150
 7658POPC   GL255982  29.798  21.377   6.150
 7658POPC   C1A55983  29.966  21.368   6.450
 7658POPC   D2A55984  29.909  21.389   6.750
 7658POPC   C3A55985  29.944  21.376   7.050
 7658POPC   C4A55986  29.901  21.355   7.350
 7658POPC   C1B55987  29.657  21.401   6.450
 7658POPC   C2B55988  29.704  21.380   6.750
 7658POPC   C3B55989  29.666  21.380   7.050
 7658POPC   C4B55990  29.693  21.468   7.350
 7659POPC   NC355991  33.061  15.979   5.550
 7659POPC   PO455992  33.007  15.978   5.850
 7659POPC   GL155993  33.044  15.924   6.150
 7659POPC   GL255994  33.115  15.964   6.150
 7659POPC   C1A55995  33.040  15.989   6.450
 7659POPC   D2A55996  32.997  15.969   6.750
 7659POPC   C3A55997  33.008  15.940   7.050
 7659POPC   C4A55998  32.998  15.936   7.350
 7659POPC   C1B55999  33.246  15.862   6.450
 7659POPC   C2B56000  33.250  15.875   6.750
 7659POPC   C3B56001  33.294  15.899   7.050
 7659POPC   C4B56002  33.281  15.847   7.350
 7660POPC   NC356003  13.624  15.960   5.550
 7660POPC   PO456004  13.634  15.972   5.850
 7660POPC   GL156005  13.653  15.991   6.150
 7660POPC   GL256006  13.486  16.011   6.150
 7660POPC   C1A56007  13.646  15.947   6.450
 7660POPC   D2A56008  13.619  15.944   6.750
 7660POPC   C3A56009  13.627  15.964   7.050
 7660POPC   C4A56010  13.653  15.945   7.350
 7660POPC   C1B56011  13.435  16.062   6.450
 7660POPC   C2B56012  13.385  16.068   6.750
 7660POPC   C3B56013  13.413  16.108   7.050
 7660POPC   C4B56014  13.401  16.115   7.350
 7661POPC   NC356015  32.229  22.159   5.550
 7661POPC   PO456016  32.265  22.180   5.850
 7661POPC   GL156017  32.213  22.174   6.150
 7661POPC   GL256018  32.233  22.046   6.150
 7661POPC   C1A56019  32.202  22.143   6.450
 7661POPC   D2A56020  32.288  22.114   6.750
 7661POPC   C3A56021  32.246  22.198   7.050
 7661POPC   C4A56022  32.257  22.152   7.350
 7661POPC   C1B56023  32.197  21.938   6.450
 7661POPC   C2B56024  32.125  21.893   6.750
 7661POPC   C3B56025  32.159  21.962   7.050
 7661POPC   C4B56026  32.157  21.901   7.350
 7662POPC   NC356027   5.853  18.260   5.550
 7662POPC   PO456028   5.901  18.294   5.850
 7662POPC   GL156029   5.912  18.309   6.150
 7662POPC   GL256030   5.901  18.381   6.150
 7662POPC   C1A56031   5.863  18.311   6.450
 7662POPC   D2A56032   5.917  18.262   6.750
 7662POPC   C3A56033   5.896  18.326   7.050
 7662POPC   C4A56034   5.918  18.276   7.350
 7662POPC   C1B56035   5.893  18.577   6.450
 7662POPC   C2B56036   5.928  18.521   6.750
 7662POPC   C3B56037   5.877  18.532   7.050
 7662POPC   C4B56038   5.964  18.544   7.350
 7663POPC   NC356039   3.505   3.539   5.550
 7663POPC   PO456040   3.508   3.520   5.850
 7663POPC   GL156041   3.510   3.549   6.150
 7663POPC   GL256042   3.687   3.574   6.150
 7663POPC   C1A56043   3.546   3.567   6.450
 7663POPC   D2A56044   3.567   3.573   6.750
 7663POPC   C3A56045   3.521   3.535   7.050
 7663POPC   C4A56046   3.510   3.565   7.350
 7663POPC   C1B56047   3.793   3.537   6.450
 7663POPC   C2B56048   3.765   3.548   6.750
 7663POPC   C3B56049   3.787   3.549   7.050
 7663POPC   C4B56050   3.782   3.530   7.350
 7664POPC   NC356051  22.198  32.264   5.550
 7664POPC   PO456052  22.130  32.227   5.850
 7664POPC   GL156053  22.196  32.243   6.150
 7664POPC   GL256054  22.060  32.193   6.150
 7664POPC   C1A56055  22.204  32.242   6.450
 7664POPC   D2A56056  22.184  32.287   6.750
 7664POPC   C3A56057  22.170  32.291   7.050
 7664POPC   C4A56058  22.211  32.234   7.350
 7664POPC   C1B56059  21.948  32.189   6.450
 7664POPC   C2B56060  21.911  32.173   6.750
 7664POPC   C3B56061  21.894  32.182   7.050
 7664POPC   C4B56062  21.906  32.207   7.350
 7665POPC   NC356063  22.955  12.896   5.550
 7665POPC   PO456064  22.948  12.817   5.850
 7665POPC   GL156065  22.929  12.859   6.150
 7665POPC   GL256066  22.987  12.951   6.150
 7665POPC   C1A56067  22.961  12.828   6.450
 7665POPC   D2A56068  22.937  12.870   6.750
 7665POPC   C3A56069  22.913  12.889   7.050
 7665POPC   C4A56070  22.888  12.816   7.350
 7665POPC   C1B56071  23.083  13.012   6.450
 7665POPC   C2B56072  23.080  13.023   6.750
 7665POPC   C3B56073  23.075  12.974   7.050
 7665POPC   C4B56074  23.115  12.984   7.350
 7666POPC   NC356075  36.117  22.961   5.550
 7666POPC   PO456076  36.168  22.940   5.850
 7666POPC   GL156077  36.130  22.936   6.150
 7666POPC   GL256078  36.053  22.801   6.150
 7666POPC   C1A56079  36.109  22.960   6.450
 7666POPC   D2A56080  36.102  22.928   6.750
 7666POPC   C3A56081  36.161  22.934   7.050
 7666POPC   C4A56082  36.094  22.979   7.350
 7666POPC   C1B56083  36.086  22.718   6.450
 7666POPC   C2B56084  36.054  22.702   6.750
 7666POPC   C3B56085  36.086  22.704   7.050
 7666POPC   C4B56086  36.010  22.725   7.350
 7667POPC   NC356087   5.081  39.983   5.550
 7667POPC   PO456088   5.118  40.054   5.850
 7667POPC   GL156089   5.048  39.959   6.150
 7667POPC   GL256090   5.025  39.926   6.150
 7667POPC   C1A56091   5.091  40.010   6.450
 7667POPC   D2A56092   5.122  40.054   6.750
 7667POPC   C3A56093   5.107  39.996   7.050
 7667POPC   C4A56094   5.066  39.967   7.350
 7667POPC   C1B56095   4.835  39.869   6.450
 7667POPC   C2B56096   4.876  39.846   6.750
 7667POPC   C3B56097   4.851  39.888   7.050
 7667POPC   C4B56098   4.838  39.845   7.350
 7668POPC   NC356099  30.650  19.107   5.550
 7668POPC   PO456100  30.695  19.108   5.850
 7668POPC   GL156101  30.745  19.033   6.150
 7668POPC   GL256102  30.851  19.083   6.150
 7668POPC   C1A56103  30.732  19.021   6.450
 7668POPC   D2A56104  30.669  19.068   6.750
 7668POPC   C3A56105  30.705  19.071   7.050
 7668POPC   C4A56106  30.728  19.017   7.350
 7668POPC   C1B56107  30.905  19.060   6.450
 7668POPC   C2B56108  30.989  19.078   6.750
 7668POPC   C3B56109  30.906  19.090   7.050
 7668POPC   C4B56110  30.901  19.108   7.350
 7669POPC   NC356111  24.526  41.538   5.550
 7669POPC   PO456112  24.480  41.537   5.850
 7669POPC   GL156113  24.509  41.569   6.150
 7669POPC   GL256114  24.559  41.728   6.150
 7669POPC   C1A56115  24.465  41.604   6.450
 7669POPC   D2A56116  24.492  41.586   6.750
 7669POPC   C3A56117  24.474  41.559   7.050
 7669POPC   C4A56118  24.537  41.542   7.350
 7669POPC   C1B56119  24.520  41.759   6.450
 7669POPC   C2B56120  24.514  41.780   6.750
 7669POPC   C3B56121  24.540  41.849   7.050
 7669POPC   C4B56122  24.532  41.817   7.350
 7670POPC   NC356123  20.632  21.358   5.550
 7670POPC   PO456124  20.582  21.397   5.850
 7670POPC   GL156125  20.572  21.413   6.150
 7670POPC   GL256126  20.541  21.398   6.150
 7670POPC   C1A56127  20.622  21.397   6.450
 7670POPC   D2A56128  20.657  21.413   6.750
 7670POPC   C3A56129  20.580  21.370   7.050
 7670POPC   C4A56130  20.613  21.424   7.350
 7670POPC   C1B56131  20.327  21.427   6.450
 7670POPC   C2B56132  20.345  21.466   6.750
 7670POPC   C3B56133  20.380  21.431   7.050
 7670POPC   C4B56134  20.365  21.441   7.350
 7671POPC   NC356135  32.247  11.329   5.550
 7671POPC   PO456136  32.293  11.300   5.850
 7671POPC   GL156137  32.260  11.284   6.150
 7671POPC   GL256138  32.127  11.164   6.150
 7671POPC   C1A56139  32.204  11.313   6.450
 7671POPC   D2A56140  32.296  11.265   6.750
 7671POPC   C3A56141  32.259  11.308   7.050
 7671POPC   C4A56142  32.200  11.332   7.350
 7671POPC   C1B56143  32.067  11.085   6.450
 7671POPC   C2B56144  32.073  11.170   6.750
 7671POPC   C3B56145  32.053  11.091   7.050
 7671POPC   C4B56146  32.057  11.083   7.350
 7672POPC   NC356147  34.591  12.874   5.550
 7672POPC   PO456148  34.601  12.885   5.850
 7672POPC   GL156149  34.575  12.832   6.150
 7672POPC   GL256150  34.679  12.811   6.150
 7672POPC   C1A56151  34.596  12.881   6.450
 7672POPC   D2A56152  34.587  12.810   6.750
 7672POPC   C3A56153  34.554  12.829   7.050
 7672POPC   C4A56154  34.554  12.862   7.350
 7672POPC   C1B56155  34.778  12.818   6.450
 7672POPC   C2B56156  34.810  12.859   6.750
 7672POPC   C3B56157  34.813  12.869   7.050
 7672POPC   C4B56158  34.824  12.812   7.350
 7673POPC   NC356159  28.363  33.831   5.550
 7673POPC   PO456160  28.404  33.785   5.850
 7673POPC   GL156161  28.323  33.763   6.150
 7673POPC   GL256162  28.389  33.878   6.150
 7673POPC   C1A56163  28.407  33.802   6.450
 7673POPC   D2A56164  28.380  33.807   6.750
 7673POPC   C3A56165  28.346  33.807   7.050
 7673POPC   C4A56166  28.360  33.840   7.350
 7673POPC   C1B56167  28.389  34.009   6.450
 7673POPC   C2B56168  28.370  34.000   6.750
 7673POPC   C3B56169  28.367  34.094   7.050
 7673POPC   C4B56170  28.351  34.069   7.350
 7674POPC   NC356171  26.861  33.036   5.550
 7674POPC   PO456172  26.823  32.987   5.850
 7674POPC   GL156173  26.855  33.015   6.150
 7674POPC   GL256174  26.950  33.057   6.150
 7674POPC   C1A56175  26.813  32.979   6.450
 7674POPC   D2A56176  26.858  32.978   6.750
 7674POPC   C3A56177  26.778  32.976   7.050
 7674POPC   C4A56178  26.826  32.993   7.350
 7674POPC   C1B56179  27.081  33.069   6.450
 7674POPC   C2B56180  27.062  33.133   6.750
 7674POPC   C3B56181  27.103  33.073   7.050
 7674POPC   C4B56182  27.046  33.045   7.350
 7675POPC   NC356183  17.489   1.219   5.550
 7675POPC   PO456184  17.544   1.243   5.850
 7675POPC   GL156185  17.529   1.241   6.150
 7675POPC   GL256186  17.612   1.322   6.150
 7675POPC   C1A56187  17.515   1.228   6.450
 7675POPC   D2A56188  17.495   1.214   6.750
 7675POPC   C3A56189  17.486   1.241   7.050
 7675POPC   C4A56190  17.467   1.221   7.350
 7675POPC   C1B56191  17.703   1.350   6.450
 7675POPC   C2B56192  17.651   1.429   6.750
 7675POPC   C3B56193  17.669   1.421   7.050
 7675POPC   C4B56194  17.654   1.408   7.350
 7676POPC   NC356195  33.022  32.998   5.550
 7676POPC   PO456196  33.008  32.990   5.850
 7676POPC   GL156197  33.068  33.020   6.150
 7676POPC   GL256198  33.059  33.131   6.150
 7676POPC   C1A56199  33.063  33.045   6.450
 7676POPC   D2A56200  33.058  33.014   6.750
 7676POPC   C3A56201  33.011  33.054   7.050
 7676POPC   C4A56202  33.018  33.033   7.350
 7676POPC   C1B56203  33.117  33.213   6.450
 7676POPC   C2B56204  33.116  33.255   6.750
 7676POPC   C3B56205  33.151  33.190   7.050
 7676POPC   C4B56206  33.145  33.214   7.350
 7677POPC   NC356207   7.402   7.371   5.550
 7677POPC   PO456208   7.403   7.376   5.850
 7677POPC   GL156209   7.377   7.383   6.150
 7677POPC   GL256210   7.481   7.541   6.150
 7677POPC   C1A56211   7.424   7.413   6.450
 7677POPC   D2A56212   7.414   7.378   6.750
 7677POPC   C3A56213   7.398   7.373   7.050
 7677POPC   C4A56214   7.385   7.394   7.350
 7677POPC   C1B56215   7.555   7.615   6.450
 7677POPC   C2B56216   7.594   7.607   6.750
 7677POPC   C3B56217   7.535   7.568   7.050
 7677POPC   C4B56218   7.596   7.591   7.350
 7678POPC   NC356219  40.008  29.108   5.550
 7678POPC   PO456220  40.013  29.155   5.850
 7678POPC   GL156221  40.053  29.181   6.150
 7678POPC   GL256222  40.088  29.099   6.150
 7678POPC   C1A56223  39.991  29.128   6.450
 7678POPC   D2A56224  40.012  29.124   6.750
 7678POPC   C3A56225  40.009  29.104   7.050
 7678POPC   C4A56226  40.010  29.136   7.350
 7678POPC   C1B56227  40.229  29.001   6.450
 7678POPC   C2B56228  40.231  29.014   6.750
 7678POPC   C3B56229  40.192  29.042   7.050
 7678POPC   C4B56230  40.165  29.028   7.350
 7679POPC   NC356231   1.201   1.239   5.550
 7679POPC   PO456232   1.204   1.226   5.850
 7679POPC   GL156233   1.243   1.212   6.150
 7679POPC   GL256234   1.300   1.198   6.150
 7679POPC   C1A56235   1.226   1.199   6.450
 7679POPC   D2A56236   1.195   1.214   6.750
 7679POPC   C3A56237   1.172   1.240   7.050
 7679POPC   C4A56238   1.166   1.241   7.350
 7679POPC   C1B56239   1.416   1.164   6.450
 7679POPC   C2B56240   1.506   1.173   6.750
 7679POPC   C3B56241   1.478   1.173   7.050
 7679POPC   C4B56242   1.483   1.204   7.350
 7680POPC   NC356243  14.433  11.344   5.550
 7680POPC   PO456244  14.438  11.293   5.850
 7680POPC   GL156245  14.385  11.314   6.150
 7680POPC   GL256246  14.550  11.351   6.150
 7680POPC   C1A56247  14.367  11.342   6.450
 7680POPC   D2A56248  14.428  11.289   6.750
 7680POPC   C3A56249  14.371  11.286   7.050
 7680POPC   C4A56250  14.447  11.255   7.350
 7680POPC   C1B56251  14.603  11.485   6.450
 7680POPC   C2B56252  14.632  11.499   6.750
 7680POPC   C3B56253  14.639  11.463   7.050
 7680POPC   C4B56254  14.564  11.485   7.350
 7681POPC   NC356255  24.475   3.495   5.550
 7681POPC   PO456256  24.539   3.557   5.850
 7681POPC   GL156257  24.494   3.505   6.150
 7681POPC   GL256258  24.630   3.485   6.150
 7681POPC   C1A56259  24.456   3.572   6.450
 7681POPC   D2A56260  24.479   3.501   6.750
 7681POPC   C3A56261  24.492   3.580   7.050
 7681POPC   C4A56262  24.509   3.557   7.350
 7681POPC   C1B56263  24.782   3.501   6.450
 7681POPC   C2B56264  24.685   3.433   6.750
 7681POPC   C3B56265  24.687   3.443   7.050
 7681POPC   C4B56266  24.709   3.472   7.350
 7682POPC   NC356267  25.285   4.347   5.550
 7682POPC   PO456268  25.276   4.279   5.850
 7682POPC   GL156269  25.314   4.331   6.150
 7682POPC   GL256270  25.375   4.425   6.150
 7682POPC   C1A56271  25.246   4.337   6.450
 7682POPC   D2A56272  25.275   4.301   6.750
 7682POPC   C3A56273  25.254   4.352   7.050
 7682POPC   C4A56274  25.298   4.305   7.350
 7682POPC   C1B56275  25.487   4.462   6.450
 7682POPC   C2B56276  25.499   4.509   6.750
 7682POPC   C3B56277  25.471   4.533   7.050
 7682POPC   C4B56278  25.462   4.454   7.350
 7683POPC   NC356279  26.803  40.773   5.550
 7683POPC   PO456280  26.827  40.744   5.850
 7683POPC   GL156281  26.835  40.791   6.150
 7683POPC   GL256282  26.683  40.809   6.150
 7683POPC   C1A56283  26.769  40.831   6.450
 7683POPC   D2A56284  26.867  40.781   6.750
 7683POPC   C3A56285  26.801  40.750   7.050
 7683POPC   C4A56286  26.853  40.760   7.350
 7683POPC   C1B56287  26.579  40.889   6.450
 7683POPC   C2B56288  26.558  40.840   6.750
 7683POPC   C3B56289  26.539  40.876   7.050
 7683POPC   C4B56290  26.542  40.902   7.350
 7684POPC   NC356291  41.536   5.866   5.550
 7684POPC   PO456292  41.511   5.908   5.850
 7684POPC   GL156293  41.592   5.887   6.150
 7684POPC   GL256294  41.487   5.966   6.150
 7684POPC   C1A56295  41.582   5.902   6.450
 7684POPC   D2A56296  41.554   5.888   6.750
 7684POPC   C3A56297  41.579   5.845   7.050
 7684POPC   C4A56298  41.513   5.889   7.350
 7684POPC   C1B56299  41.418   6.094   6.450
 7684POPC   C2B56300  41.480   6.131   6.750
 7684POPC   C3B56301  41.457   6.104   7.050
 7684POPC   C4B56302  41.433   6.055   7.350
 7685POPC   NC356303  32.261  17.480   5.550
 7685POPC   PO456304  32.265  17.535   5.850
 7685POPC   GL156305  32.232  17.555   6.150
 7685POPC   GL256306  32.193  17.637   6.150
 7685POPC   C1A56307  32.291  17.514   6.450
 7685POPC   D2A56308  32.290  17.509   6.750
 7685POPC   C3A56309  32.279  17.526   7.050
 7685POPC   C4A56310  32.267  17.459   7.350
 7685POPC   C1B56311  32.076  17.686   6.450
 7685POPC   C2B56312  32.107  17.628   6.750
 7685POPC   C3B56313  32.077  17.653   7.050
 7685POPC   C4B56314  32.041  17.680   7.350
 7686POPC   NC356315  21.351  30.730   5.550
 7686POPC   PO456316  21.342  30.653   5.850
 7686POPC   GL156317  21.380  30.683   6.150
 7686POPC   GL256318  21.330  30.779   6.150
 7686POPC   C1A56319  21.421  30.713   6.450
 7686POPC   D2A56320  21.432  30.711   6.750
 7686POPC   C3A56321  21.431  30.737   7.050
 7686POPC   C4A56322  21.369  30.744   7.350
 7686POPC   C1B56323  21.225  30.957   6.450
 7686POPC   C2B56324  21.297  30.957   6.750
 7686POPC   C3B56325  21.238  30.893   7.050
 7686POPC   C4B56326  21.242  30.895   7.350
 7687POPC   NC356327  40.008  30.735   5.550
 7687POPC   PO456328  40.028  30.670   5.850
 7687POPC   GL156329  40.001  30.726   6.150
 7687POPC   GL256330  40.110  30.687   6.150
 7687POPC   C1A56331  40.006  30.741   6.450
 7687POPC   D2A56332  40.010  30.709   6.750
 7687POPC   C3A56333  39.965  30.709   7.050
 7687POPC   C4A56334  40.038  30.672   7.350
 7687POPC   C1B56335  40.273  30.651   6.450
 7687POPC   C2B56336  40.211  30.613   6.750
 7687POPC   C3B56337  40.212  30.588   7.050
 7687POPC   C4B56338  40.237  30.604   7.350
 7688POPC   NC356339  40.801   9.783   5.550
 7688POPC   PO456340  40.771   9.719   5.850
 7688POPC   GL156341  40.809   9.709   6.150
 7688POPC   GL256342  40.888   9.808   6.150
 7688POPC   C1A56343  40.737   9.762   6.450
 7688POPC   D2A56344  40.763   9.737   6.750
 7688POPC   C3A56345  40.797   9.753   7.050
 7688POPC   C4A56346  40.760   9.718   7.350
 7688POPC   C1B56347  40.954   9.926   6.450
 7688POPC   C2B56348  41.005   9.930   6.750
 7688POPC   C3B56349  40.955   9.948   7.050
 7688POPC   C4B56350  40.945   9.887   7.350
 7689POPC   NC356351   7.453  40.015   5.550
 7689POPC   PO456352   7.372  39.978   5.850
 7689POPC   GL156353   7.432  39.991   6.150
 7689POPC   GL256354   7.266  40.022   6.150
 7689POPC   C1A56355   7.462  39.961   6.450
 7689POPC   D2A56356   7.418  39.966   6.750
 7689POPC   C3A56357   7.458  40.019   7.050
 7689POPC   C4A56358   7.457  39.997   7.350
 7689POPC   C1B56359   7.145  40.090   6.450
 7689POPC   C2B56360   7.164  40.076   6.750
 7689POPC   C3B56361   7.153  40.064   7.050
 7689POPC   C4B56362   7.190  40.114   7.350
 7690POPC   NC356363   8.159   6.691   5.550
 7690POPC   PO456364   8.207   6.609   5.850
 7690POPC   GL156365   8.238   6.692   6.150
 7690POPC   GL256366   8.111   6.545   6.150
 7690POPC   C1A56367   8.230   6.604   6.450
 7690POPC   D2A56368   8.237   6.623   6.750
 7690POPC   C3A56369   8.166   6.683   7.050
 7690POPC   C4A56370   8.234   6.621   7.350
 7690POPC   C1B56371   8.063   6.376   6.450
 7690POPC   C2B56372   8.080   6.375   6.750
 7690POPC   C3B56373   8.098   6.392   7.050
 7690POPC   C4B56374   8.109   6.410   7.350
 7691POPC   NC356375  36.920  16.747   5.550
 7691POPC   PO456376  36.953  16.732   5.850
 7691POPC   GL156377  36.948  16.757   6.150
 7691POPC   GL256378  36.788  16.800   6.150
 7691POPC   C1A56379  36.934  16.765   6.450
 7691POPC   D2A56380  36.857  16.717   6.750
 7691POPC   C3A56381  36.908  16.701   7.050
 7691POPC   C4A56382  36.895  16.696   7.350
 7691POPC   C1B56383  36.779  16.929   6.450
 7691POPC   C2B56384  36.752  16.952   6.750
 7691POPC   C3B56385  36.739  16.910   7.050
 7691POPC   C4B56386  36.769  16.924   7.350
 7692POPC   NC356387  25.217  30.654   5.550
 7692POPC   PO456388  25.286  30.681   5.850
 7692POPC   GL156389  25.253  30.721   6.150
 7692POPC   GL256390  25.230  30.604   6.150
 7692POPC   C1A56391  25.252  30.666   6.450
 7692POPC   D2A56392  25.279  30.693   6.750
 7692POPC   C3A56393  25.264  30.692   7.050
 7692POPC   C4A56394  25.296  30.668   7.350
 7692POPC   C1B56395  25.231  30.492   6.450
 7692POPC   C2B56396  25.205  30.488   6.750
 7692POPC   C3B56397  25.165  30.405   7.050
 7692POPC   C4B56398  25.216  30.501   7.350
 7693POPC   NC356399  37.702   1.247   5.550
 7693POPC   PO456400  37.669   1.239   5.850
 7693POPC   GL156401  37.640   1.202   6.150
 7693POPC   GL256402  37.736   1.288   6.150
 7693POPC   C1A56403  37.663   1.188   6.450
 7693POPC   D2A56404  37.661   1.179   6.750
 7693POPC   C3A56405  37.697   1.211   7.050
 7693POPC   C4A56406  37.707   1.247   7.350
 7693POPC   C1B56407  37.754   1.494   6.450
 7693POPC   C2B56408  37.801   1.456   6.750
 7693POPC   C3B56409  37.815   1.432   7.050
 7693POPC   C4B56410  37.804   1.446   7.350
 7694POPC   NC356411  35.361  20.621   5.550
 7694POPC   PO456412  35.369  20.575   5.850
 7694POPC   GL156413  35.392  20.660   6.150
 7694POPC   GL256414  35.454  20.498   6.150
 7694POPC   C1A56415  35.330  20.566   6.450
 7694POPC   D2A56416  35.315  20.658   6.750
 7694POPC   C3A56417  35.387  20.570   7.050
 7694POPC   C4A56418  35.387  20.644   7.350
 7694POPC   C1B56419  35.517  20.451   6.450
 7694POPC   C2B56420  35.561  20.455   6.750
 7694POPC   C3B56421  35.511  20.426   7.050
 7694POPC   C4B56422  35.549  20.455   7.350
 7695POPC   NC356423   5.090  12.803   5.550
 7695POPC   PO456424   5.112  12.843   5.850
 7695POPC   GL156425   5.110  12.806   6.150
 7695POPC   GL256426   5.213  12.912   6.150
 7695POPC   C1A56427   5.084  12.818   6.450
 7695POPC   D2A56428   5.084  12.804   6.750
 7695POPC   C3A56429   5.094  12.849   7.050
 7695POPC   C4A56430   5.097  12.808   7.350
 7695POPC   C1B56431   5.321  12.950   6.450
 7695POPC   C2B56432   5.344  12.879   6.750
 7695POPC   C3B56433   5.361  12.942   7.050
 7695POPC   C4B56434   5.299  12.954   7.350
 7696POPC   NC356435  41.537  33.027   5.550
 7696POPC   PO456436  41.567  33.069   5.850
 7696POPC   GL156437  41.560  32.979   6.150
 7696POPC   GL256438  41.616  33.108   6.150
 7696POPC   C1A56439  41.555  33.018   6.450
 7696POPC   D2A56440  41.586  33.047   6.750
 7696POPC   C3A56441  41.572  32.997   7.050
 7696POPC   C4A56442  41.579  32.997   7.350
 7696POPC   C1B56443  41.625  33.211   6.450
 7696POPC   C2B56444  41.672  33.267   6.750
 7696POPC   C3B56445  41.701  33.297   7.050
 7696POPC   C4B56446  41.664  33.276   7.350
 7697POPC   NC356447  29.884  44.658   5.550
 7697POPC   PO456448  29.893  44.678   5.850
 7697POPC   GL156449  29.900  44.675   6.150
 7697POPC   GL256450  29.975  44.709   6.150
 7697POPC   C1A56451  29.942  44.640   6.450
 7697POPC   D2A56452  29.900  44.634   6.750
 7697POPC   C3A56453  29.921  44.641   7.050
 7697POPC   C4A56454  29.946  44.700   7.350
 7697POPC   C1B56455  30.051  44.871   6.450
 7697POPC   C2B56456  30.117  44.878   6.750
 7697POPC   C3B56457  30.097  44.828   7.050
 7697POPC   C4B56458  30.135  44.816   7.350
 7698POPC   NC356459  15.945  14.358   5.550
 7698POPC   PO456460  15.962  14.354   5.850
 7698POPC   GL156461  15.916  14.414   6.150
 7698POPC   GL256462  15.875  14.497   6.150
 7698POPC   C1A56463  15.990  14.362   6.450
 7698POPC   D2A56464  15.916  14.369   6.750
 7698POPC   C3A56465  15.991  14.412   7.050
 7698POPC   C4A56466  15.966  14.381   7.350
 7698POPC   C1B56467  15.755  14.632   6.450
 7698POPC   C2B56468  15.783  14.627   6.750
 7698POPC   C3B56469  15.806  14.565   7.050
 7698POPC   C4B56470  15.801  14.619   7.350
 7699POPC   NC356471  22.116  14.371   5.550
 7699POPC   PO456472  22.197  14.368   5.850
 7699POPC   GL156473  22.156  14.449   6.150
 7699POPC   GL256474  22.246  14.353   6.150
 7699POPC   C1A56475  22.189  14.423   6.450
 7699POPC   D2A56476  22.128  14.391   6.750
 7699POPC   C3A56477  22.176  14.401   7.050
 7699POPC   C4A56478  22.150  14.452   7.350
 7699POPC   C1B56479  22.385  14.371   6.450
 7699POPC   C2B56480  22.388  14.341   6.750
 7699POPC   C3B56481  22.456  14.394   7.050
 7699POPC   C4B56482  22.361  14.394   7.350
 7700POPC   NC356483   8.933  19.878   5.550
 7700POPC   PO456484   8.935  19.792   5.850
 7700POPC   GL156485   8.971  19.859   6.150
 7700POPC   GL256486   9.064  19.812   6.150
 7700POPC   C1A56487   9.014  19.833   6.450
 7700POPC   D2A56488   8.996  19.854   6.750
 7700POPC   C3A56489   9.005  19.880   7.050
 7700POPC   C4A56490   8.994  19.840   7.350
 7700POPC   C1B56491   9.207  19.758   6.450
 7700POPC   C2B56492   9.158  19.725   6.750
 7700POPC   C3B56493   9.163  19.716   7.050
 7700POPC   C4B56494   9.197  19.729   7.350
 7701POPC   NC356495   8.939   2.748   5.550
 7701POPC   PO456496   8.981   2.807   5.850
 7701POPC   GL156497   8.963   2.779   6.150
 7701POPC   GL256498   8.865   2.758   6.150
 7701POPC   C1A56499   8.988   2.750   6.450
 7701POPC   D2A56500   8.971   2.722   6.750
 7701POPC   C3A56501   8.931   2.734   7.050
 7701POPC   C4A56502   8.936   2.806   7.350
 7701POPC   C1B56503   8.714   2.666   6.450
 7701POPC   C2B56504   8.776   2.705   6.750
 7701POPC   C3B56505   8.700   2.711   7.050
 7701POPC   C4B56506   8.695   2.698   7.350
 7702POPC   NC356507  17.539  33.000   5.550
 7702POPC   PO456508  17.546  33.039   5.850
 7702POPC   GL156509  17.461  32.999   6.150
 7702POPC   GL256510  17.649  33.084   6.150
 7702POPC   C1A56511  17.465  32.988   6.450
 7702POPC   D2A56512  17.492  32.979   6.750
 7702POPC   C3A56513  17.488  33.060   7.050
 7702POPC   C4A56514  17.524  33.035   7.350
 7702POPC   C1B56515  17.773  33.083   6.450
 7702POPC   C2B56516  17.721  33.100   6.750
 7702POPC   C3B56517  17.783  33.086   7.050
 7702POPC   C4B56518  17.756  33.107   7.350
 7703POPC   NC356519   7.424  20.574   5.550
 7703POPC   PO456520   7.415  20.658   5.850
 7703POPC   GL156521   7.430  20.633   6.150
 7703POPC   GL256522   7.329  20.655   6.150
 7703POPC   C1A56523   7.427  20.645   6.450
 7703POPC   D2A56524   7.454  20.583   6.750
 7703POPC   C3A56525   7.451  20.608   7.050
 7703POPC   C4A56526   7.443  20.604   7.350
 7703POPC   C1B56527   7.240  20.716   6.450
 7703POPC   C2B56528   7.188  20.742   6.750
 7703POPC   C3B56529   7.216  20.745   7.050
 7703POPC   C4B56530   7.199  20.752   7.350
 7704POPC   NC356531  23.730  27.616   5.550
 7704POPC   PO456532  23.715  27.592   5.850
 7704POPC   GL156533  23.733  27.617   6.150
 7704POPC   GL256534  23.835  27.694   6.150
 7704POPC   C1A56535  23.675  27.555   6.450
 7704POPC   D2A56536  23.715  27.555   6.750
 7704POPC   C3A56537  23.724  27.567   7.050
 7704POPC   C4A56538  23.690  27.640   7.350
 7704POPC   C1B56539  23.951  27.722   6.450
 7704POPC   C2B56540  23.906  27.709   6.750
 7704POPC   C3B56541  23.969  27.680   7.050
 7704POPC   C4B56542  23.920  27.691   7.350
 7705POPC   NC356543  23.733  12.855   5.550
 7705POPC   PO456544  23.745  12.862   5.850
 7705POPC   GL156545  23.709  12.836   6.150
 7705POPC   GL256546  23.824  12.936   6.150
 7705POPC   C1A56547  23.741  12.818   6.450
 7705POPC   D2A56548  23.705  12.876   6.750
 7705POPC   C3A56549  23.714  12.878   7.050
 7705POPC   C4A56550  23.670  12.815   7.350
 7705POPC   C1B56551  23.858  13.021   6.450
 7705POPC   C2B56552  23.891  13.040   6.750
 7705POPC   C3B56553  23.895  13.038   7.050
 7705POPC   C4B56554  23.904  12.988   7.350
 7706POPC   NC356555   1.215  35.380   5.550
 7706POPC   PO456556   1.170  35.382   5.850
 7706POPC   GL156557   1.188  35.307   6.150
 7706POPC   GL256558   1.251  35.239   6.150
 7706POPC   C1A56559   1.188  35.374   6.450
 7706POPC   D2A56560   1.229  35.393   6.750
 7706POPC   C3A56561   1.165  35.362   7.050
 7706POPC   C4A56562   1.251  35.338   7.350
 7706POPC   C1B56563   1.328  35.150   6.450
 7706POPC   C2B56564   1.341  35.154   6.750
 7706POPC   C3B56565   1.378  35.186   7.050
 7706POPC   C4B56566   1.363  35.145   7.350
 7707POPC   NC356567  22.127  21.398   5.550
 7707POPC   PO456568  22.177  21.388   5.850
 7707POPC   GL156569  22.198  21.362   6.150
 7707POPC   GL256570  21.999  21.351   6.150
 7707POPC   C1A56571  22.167  21.396   6.450
 7707POPC   D2A56572  22.210  21.389   6.750
 7707POPC   C3A56573  22.167  21.343   7.050
 7707POPC   C4A56574  22.143  21.356   7.350
 7707POPC   C1B56575  21.919  21.391   6.450
 7707POPC   C2B56576  21.893  21.392   6.750
 7707POPC   C3B56577  21.886  21.354   7.050
 7707POPC   C4B56578  21.924  21.376   7.350
 7708POPC   NC356579  18.262  34.577   5.550
 7708POPC   PO456580  18.308  34.547   5.850
 7708POPC   GL156581  18.278  34.582   6.150
 7708POPC   GL256582  18.338  34.746   6.150
 7708POPC   C1A56583  18.333  34.556   6.450
 7708POPC   D2A56584  18.265  34.616   6.750
 7708POPC   C3A56585  18.293  34.550   7.050
 7708POPC   C4A56586  18.278  34.546   7.350
 7708POPC   C1B56587  18.265  34.872   6.450
 7708POPC   C2B56588  18.314  34.804   6.750
 7708POPC   C3B56589  18.267  34.865   7.050
 7708POPC   C4B56590  18.335  34.836   7.350
 7709POPC   NC356591  40.804  38.411   5.550
 7709POPC   PO456592  40.832  38.470   5.850
 7709POPC   GL156593  40.761  38.447   6.150
 7709POPC   GL256594  40.907  38.576   6.150
 7709POPC   C1A56595  40.792  38.462   6.450
 7709POPC   D2A56596  40.755  38.435   6.750
 7709POPC   C3A56597  40.831  38.489   7.050
 7709POPC   C4A56598  40.742  38.503   7.350
 7709POPC   C1B56599  40.907  38.694   6.450
 7709POPC   C2B56600  40.944  38.651   6.750
 7709POPC   C3B56601  40.973  38.683   7.050
 7709POPC   C4B56602  40.929  38.607   7.350
 7710POPC   NC356603   1.240   0.450   5.550
 7710POPC   PO456604   1.250   0.438   5.850
 7710POPC   GL156605   1.188   0.448   6.150
 7710POPC   GL256606   1.356   0.455   6.150
 7710POPC   C1A56607   1.222   0.407   6.450
 7710POPC   D2A56608   1.188   0.455   6.750
 7710POPC   C3A56609   1.213   0.397   7.050
 7710POPC   C4A56610   1.199   0.482   7.350
 7710POPC   C1B56611   1.448   0.528   6.450
 7710POPC   C2B56612   1.413   0.498   6.750
 7710POPC   C3B56613   1.463   0.515   7.050
 7710POPC   C4B56614   1.415   0.492   7.350
 7711POPC   NC356615   6.609   4.343   5.550
 7711POPC   PO456616   6.624   4.284   5.850
 7711POPC   GL156617   6.639   4.295   6.150
 7711POPC   GL256618   6.710   4.454   6.150
 7711POPC   C1A56619   6.648   4.283   6.450
 7711POPC   D2A56620   6.645   4.354   6.750
 7711POPC   C3A56621   6.639   4.307   7.050
 7711POPC   C4A56622   6.636   4.340   7.350
 7711POPC   C1B56623   6.712   4.521   6.450
 7711POPC   C2B56624   6.754   4.516   6.750
 7711POPC   C3B56625   6.743   4.550   7.050
 7711POPC   C4B56626   6.772   4.551   7.350
 7712POPC   NC356627  34.616   2.796   5.550
 7712POPC   PO456628  34.601   2.798   5.850
 7712POPC   GL156629  34.595   2.813   6.150
 7712POPC   GL256630  34.659   2.707   6.150
 7712POPC   C1A56631  34.597   2.796   6.450
 7712POPC   D2A56632  34.552   2.778   6.750
 7712POPC   C3A56633  34.585   2.813   7.050
 7712POPC   C4A56634  34.619   2.775   7.350
 7712POPC   C1B56635  34.829   2.754   6.450
 7712POPC   C2B56636  34.851   2.717   6.750
 7712POPC   C3B56637  34.825   2.693   7.050
 7712POPC   C4B56638  34.848   2.729   7.350
 7713POPC   NC356639   9.004  40.800   5.550
 7713POPC   PO456640   9.007  40.774   5.850
 7713POPC   GL156641   8.986  40.818   6.150
 7713POPC   GL256642   9.059  40.813   6.150
 7713POPC   C1A56643   8.963  40.813   6.450
 7713POPC   D2A56644   9.015  40.747   6.750
 7713POPC   C3A56645   9.016  40.794   7.050
 7713POPC   C4A56646   8.934  40.778   7.350
 7713POPC   C1B56647   9.235  40.772   6.450
 7713POPC   C2B56648   9.179  40.765   6.750
 7713POPC   C3B56649   9.221  40.724   7.050
 7713POPC   C4B56650   9.270  40.758   7.350
 7714POPC   NC356651  16.688  37.634   5.550
 7714POPC   PO456652  16.710  37.725   5.850
 7714POPC   GL156653  16.694  37.718   6.150
 7714POPC   GL256654  16.617  37.591   6.150
 7714POPC   C1A56655  16.710  37.677   6.450
 7714POPC   D2A56656  16.768  37.724   6.750
 7714POPC   C3A56657  16.781  37.651   7.050
 7714POPC   C4A56658  16.720  37.643   7.350
 7714POPC   C1B56659  16.601  37.474   6.450
 7714POPC   C2B56660  16.530  37.485   6.750
 7714POPC   C3B56661  16.512  37.546   7.050
 7714POPC   C4B56662  16.561  37.525   7.350
 7715POPC   NC356663  12.889  17.502   5.550
 7715POPC   PO456664  12.850  17.474   5.850
 7715POPC   GL156665  12.890  17.507   6.150
 7715POPC   GL256666  12.965  17.545   6.150
 7715POPC   C1A56667  12.884  17.501   6.450
 7715POPC   D2A56668  12.831  17.505   6.750
 7715POPC   C3A56669  12.867  17.534   7.050
 7715POPC   C4A56670  12.879  17.461   7.350
 7715POPC   C1B56671  13.149  17.559   6.450
 7715POPC   C2B56672  13.135  17.564   6.750
 7715POPC   C3B56673  13.073  17.546   7.050
 7715POPC   C4B56674  13.124  17.474   7.350
 7716POPC   NC356675   6.679  26.004   5.550
 7716POPC   PO456676   6.636  26.073   5.850
 7716POPC   GL156677   6.667  26.074   6.150
 7716POPC   GL256678   6.717  26.006   6.150
 7716POPC   C1A56679   6.687  26.053   6.450
 7716POPC   D2A56680   6.600  26.036   6.750
 7716POPC   C3A56681   6.688  26.019   7.050
 7716POPC   C4A56682   6.665  26.075   7.350
 7716POPC   C1B56683   6.864  26.011   6.450
 7716POPC   C2B56684   6.847  26.003   6.750
 7716POPC   C3B56685   6.919  25.961   7.050
 7716POPC   C4B56686   6.842  26.007   7.350
 7717POPC   NC356687  10.498  18.292   5.550
 7717POPC   PO456688  10.556  18.270   5.850
 7717POPC   GL156689  10.517  18.252   6.150
 7717POPC   GL256690  10.670  18.288   6.150
 7717POPC   C1A56691  10.536  18.299   6.450
 7717POPC   D2A56692  10.572  18.331   6.750
 7717POPC   C3A56693  10.567  18.240   7.050
 7717POPC   C4A56694  10.530  18.308   7.350
 7717POPC   C1B56695  10.815  18.264   6.450
 7717POPC   C2B56696  10.736  18.240   6.750
 7717POPC   C3B56697  10.778  18.197   7.050
 7717POPC   C4B56698  10.737  18.247   7.350
 7718POPC   NC356699   3.584   5.855   5.550
 7718POPC   PO456700   3.588   5.830   5.850
 7718POPC   GL156701   3.542   5.904   6.150
 7718POPC   GL256702   3.502   5.735   6.150
 7718POPC   C1A56703   3.572   5.868   6.450
 7718POPC   D2A56704   3.540   5.898   6.750
 7718POPC   C3A56705   3.543   5.881   7.050
 7718POPC   C4A56706   3.571   5.834   7.350
 7718POPC   C1B56707   3.390   5.612   6.450
 7718POPC   C2B56708   3.464   5.644   6.750
 7718POPC   C3B56709   3.480   5.660   7.050
 7718POPC   C4B56710   3.480   5.687   7.350
 7719POPC   NC356711  42.362   7.460   5.550
 7719POPC   PO456712  42.359   7.411   5.850
 7719POPC   GL156713  42.288   7.450   6.150
 7719POPC   GL256714  42.391   7.583   6.150
 7719POPC   C1A56715  42.312   7.372   6.450
 7719POPC   D2A56716  42.384   7.414   6.750
 7719POPC   C3A56717  42.362   7.455   7.050
 7719POPC   C4A56718  42.293   7.430   7.350
 7719POPC   C1B56719  42.377   7.678   6.450
 7719POPC   C2B56720  42.439   7.660   6.750
 7719POPC   C3B56721  42.369   7.632   7.050
 7719POPC   C4B56722  42.398   7.672   7.350
 7720POPC   NC356723   4.360  40.803   5.550
 7720POPC   PO456724   4.314  40.812   5.850
 7720POPC   GL156725   4.346  40.829   6.150
 7720POPC   GL256726   4.453  40.693   6.150
 7720POPC   C1A56727   4.270  40.800   6.450
 7720POPC   D2A56728   4.366  40.821   6.750
 7720POPC   C3A56729   4.298  40.800   7.050
 7720POPC   C4A56730   4.276  40.746   7.350
 7720POPC   C1B56731   4.569  40.667   6.450
 7720POPC   C2B56732   4.503  40.669   6.750
 7720POPC   C3B56733   4.505  40.645   7.050
 7720POPC   C4B56734   4.477  40.622   7.350
 7721POPC   NC356735  43.843  43.149   5.550
 7721POPC   PO456736  43.870  43.147   5.850
 7721POPC   GL156737  43.854  43.104   6.150
 7721POPC   GL256738  43.989  43.149   6.150
 7721POPC   C1A56739  43.841  43.121   6.450
 7721POPC   D2A56740  43.849  43.090   6.750
 7721POPC   C3A56741  43.921  43.077   7.050
 7721POPC   C4A56742  43.893  43.077   7.350
 7721POPC   C1B56743  44.145  43.162   6.450
 7721POPC   C2B56744  44.120  43.164   6.750
 7721POPC   C3B56745  44.083  43.191   7.050
 7721POPC   C4B56746  44.130  43.150   7.350
 7722POPC   NC356747  30.658  27.606   5.550
 7722POPC   PO456748  30.742  27.553   5.850
 7722POPC   GL156749  30.713  27.616   6.150
 7722POPC   GL256750  30.590  27.514   6.150
 7722POPC   C1A56751  30.721  27.552   6.450
 7722POPC   D2A56752  30.663  27.584   6.750
 7722POPC   C3A56753  30.658  27.570   7.050
 7722POPC   C4A56754  30.745  27.637   7.350
 7722POPC   C1B56755  30.484  27.469   6.450
 7722POPC   C2B56756  30.462  27.518   6.750
 7722POPC   C3B56757  30.477  27.516   7.050
 7722POPC   C4B56758  30.429  27.441   7.350
 7723POPC   NC356759  39.994  11.290   5.550
 7723POPC   PO456760  40.052  11.281   5.850
 7723POPC   GL156761  39.995  11.306   6.150
 7723POPC   GL256762  39.855  11.231   6.150
 7723POPC   C1A56763  40.007  11.342   6.450
 7723POPC   D2A56764  40.048  11.320   6.750
 7723POPC   C3A56765  40.025  11.282   7.050
 7723POPC   C4A56766  39.982  11.261   7.350
 7723POPC   C1B56767  39.724  11.240   6.450
 7723POPC   C2B56768  39.763  11.214   6.750
 7723POPC   C3B56769  39.723  11.229   7.050
 7723POPC   C4B56770  39.759  11.294   7.350
 7724POPC   NC356771   1.191  25.224   5.550
 7724POPC   PO456772   1.221  25.217   5.850
 7724POPC   GL156773   1.202  25.239   6.150
 7724POPC   GL256774   1.208  25.362   6.150
 7724POPC   C1A56775   1.165  25.304   6.450
 7724POPC   D2A56776   1.232  25.275   6.750
 7724POPC   C3A56777   1.207  25.315   7.050
 7724POPC   C4A56778   1.209  25.287   7.350
 7724POPC   C1B56779   1.232  25.533   6.450
 7724POPC   C2B56780   1.189  25.514   6.750
 7724POPC   C3B56781   1.215  25.508   7.050
 7724POPC   C4B56782   1.192  25.523   7.350
 7725POPC   NC356783   8.197  15.169   5.550
 7725POPC   PO456784   8.149  15.161   5.850
 7725POPC   GL156785   8.191  15.163   6.150
 7725POPC   GL256786   8.180  15.316   6.150
 7725POPC   C1A56787   8.199  15.205   6.450
 7725POPC   D2A56788   8.192  15.190   6.750
 7725POPC   C3A56789   8.191  15.164   7.050
 7725POPC   C4A56790   8.149  15.161   7.350
 7725POPC   C1B56791   8.218  15.460   6.450
 7725POPC   C2B56792   8.249  15.457   6.750
 7725POPC   C3B56793   8.236  15.382   7.050
 7725POPC   C4B56794   8.241  15.406   7.350
 7726POPC   NC356795  22.158   5.135   5.550
 7726POPC   PO456796  22.193   5.048   5.850
 7726POPC   GL156797  22.173   5.114   6.150
 7726POPC   GL256798  22.124   4.960   6.150
 7726POPC   C1A56799  22.150   5.067   6.450
 7726POPC   D2A56800  22.208   5.132   6.750
 7726POPC   C3A56801  22.160   5.068   7.050
 7726POPC   C4A56802  22.119   5.064   7.350
 7726POPC   C1B56803  22.024   4.888   6.450
 7726POPC   C2B56804  21.968   4.895   6.750
 7726POPC   C3B56805  21.969   4.883   7.050
 7726POPC   C4B56806  21.986   4.894   7.350
 7727POPC   NC356807  18.315   3.520   5.550
 7727POPC   PO456808  18.281   3.557   5.850
 7727POPC   GL156809  18.282   3.513   6.150
 7727POPC   GL256810  18.247   3.693   6.150
 7727POPC   C1A56811  18.254   3.504   6.450
 7727POPC   D2A56812  18.277   3.566   6.750
 7727POPC   C3A56813  18.303   3.510   7.050
 7727POPC   C4A56814  18.297   3.545   7.350
 7727POPC   C1B56815  18.307   3.841   6.450
 7727POPC   C2B56816  18.289   3.818   6.750
 7727POPC   C3B56817  18.345   3.826   7.050
 7727POPC   C4B56818  18.255   3.753   7.350
 7728POPC   NC356819  44.657  43.128   5.550
 7728POPC   PO456820  44.652  43.151   5.850
 7728POPC   GL156821  44.626  43.093   6.150
 7728POPC   GL256822  44.617  43.195   6.150
 7728POPC   C1A56823  44.702  43.159   6.450
 7728POPC   D2A56824  44.674  43.091   6.750
 7728POPC   C3A56825  44.644  43.148   7.050
 7728POPC   C4A56826  44.625  43.123   7.350
 7728POPC   C1B56827  44.604  43.322   6.450
 7728POPC   C2B56828  44.571  43.388   6.750
 7728POPC   C3B56829  44.537  43.298   7.050
 7728POPC   C4B56830  44.594  43.382   7.350
 7729POPC   NC356831  12.114  17.479   5.550
 7729POPC   PO456832  12.122  17.481   5.850
 7729POPC   GL156833  12.109  17.520   6.150
 7729POPC   GL256834  11.921  17.530   6.150
 7729POPC   C1A56835  12.045  17.469   6.450
 7729POPC   D2A56836  12.056  17.492   6.750
 7729POPC   C3A56837  12.096  17.533   7.050
 7729POPC   C4A56838  12.084  17.494   7.350
 7729POPC   C1B56839  11.809  17.573   6.450
 7729POPC   C2B56840  11.861  17.570   6.750
 7729POPC   C3B56841  11.801  17.606   7.050
 7729POPC   C4B56842  11.831  17.592   7.350
 7730POPC   NC356843  32.990   0.481   5.550
 7730POPC   PO456844  33.044   0.407   5.850
 7730POPC   GL156845  33.005   0.418   6.150
 7730POPC   GL256846  33.065   0.303   6.150
 7730POPC   C1A56847  33.049   0.388   6.450
 7730POPC   D2A56848  32.991   0.451   6.750
 7730POPC   C3A56849  33.000   0.432   7.050
 7730POPC   C4A56850  33.004   0.418   7.350
 7730POPC   C1B56851  33.189   0.237   6.450
 7730POPC   C2B56852  33.241   0.262   6.750
 7730POPC   C3B56853  33.219   0.281   7.050
 7730POPC   C4B56854  33.223   0.225   7.350
 7731POPC   NC356855  27.547  19.096   5.550
 7731POPC   PO456856  27.592  19.085   5.850
 7731POPC   GL156857  27.586  19.047   6.150
 7731POPC   GL256858  27.677  19.099   6.150
 7731POPC   C1A56859  27.551  19.038   6.450
 7731POPC   D2A56860  27.573  19.056   6.750
 7731POPC   C3A56861  27.605  19.053   7.050
 7731POPC   C4A56862  27.577  19.068   7.350
 7731POPC   C1B56863  27.816  19.077   6.450
 7731POPC   C2B56864  27.860  19.062   6.750
 7731POPC   C3B56865  27.800  19.088   7.050
 7731POPC   C4B56866  27.802  19.069   7.350
 7732POPC   NC356867   4.296  32.997   5.550
 7732POPC   PO456868   4.316  33.031   5.850
 7732POPC   GL156869   4.268  33.036   6.150
 7732POPC   GL256870   4.390  33.104   6.150
 7732POPC   C1A56871   4.309  33.066   6.450
 7732POPC   D2A56872   4.353  33.027   6.750
 7732POPC   C3A56873   4.351  33.066   7.050
 7732POPC   C4A56874   4.360  33.042   7.350
 7732POPC   C1B56875   4.426  33.243   6.450
 7732POPC   C2B56876   4.423  33.189   6.750
 7732POPC   C3B56877   4.495  33.269   7.050
 7732POPC   C4B56878   4.431  33.254   7.350
 7733POPC   NC356879  36.861  12.125   5.550
 7733POPC   PO456880  36.878  12.118   5.850
 7733POPC   GL156881  36.951  12.104   6.150
 7733POPC   GL256882  36.973  12.199   6.150
 7733POPC   C1A56883  36.887  12.067   6.450
 7733POPC   D2A56884  36.918  12.060   6.750
 7733POPC   C3A56885  36.949  12.036   7.050
 7733POPC   C4A56886  36.884  12.117   7.350
 7733POPC   C1B56887  37.021  12.352   6.450
 7733POPC   C2B56888  36.984  12.357   6.750
 7733POPC   C3B56889  37.019  12.330   7.050
 7733POPC   C4B56890  37.009  12.311   7.350
 7734POPC   NC356891  22.938  24.449   5.550
 7734POPC   PO456892  22.935  24.442   5.850
 7734POPC   GL156893  22.890  24.503   6.150
 7734POPC   GL256894  23.024  24.360   6.150
 7734POPC   C1A56895  22.892  24.531   6.450
 7734POPC   D2A56896  22.961  24.504   6.750
 7734POPC   C3A56897  22.943  24.528   7.050
 7734POPC   C4A56898  22.947  24.528   7.350
 7734POPC   C1B56899  23.085  24.332   6.450
 7734POPC   C2B56900  23.082  24.306   6.750
 7734POPC   C3B56901  23.105  24.328   7.050
 7734POPC   C4B56902  23.115  24.368   7.350
 7735POPC   NC356903  15.182  32.240   5.550
 7735POPC   PO456904  15.211  32.259   5.850
 7735POPC   GL156905  15.215  32.291   6.150
 7735POPC   GL256906  15.249  32.174   6.150
 7735POPC   C1A56907  15.221  32.279   6.450
 7735POPC   D2A56908  15.139  32.229   6.750
 7735POPC   C3A56909  15.193  32.206   7.050
 7735POPC   C4A56910  15.217  32.207   7.350
 7735POPC   C1B56911  15.386  32.099   6.450
 7735POPC   C2B56912  15.432  32.136   6.750
 7735POPC   C3B56913  15.430  32.100   7.050
 7735POPC   C4B56914  15.349  32.132   7.350
 7736POPC   NC356915   2.758  12.891   5.550
 7736POPC   PO456916   2.751  12.898   5.850
 7736POPC   GL156917   2.718  12.892   6.150
 7736POPC   GL256918   2.844  12.797   6.150
 7736POPC   C1A56919   2.805  12.840   6.450
 7736POPC   D2A56920   2.775  12.881   6.750
 7736POPC   C3A56921   2.804  12.820   7.050
 7736POPC   C4A56922   2.723  12.878   7.350
 7736POPC   C1B56923   2.951  12.684   6.450
 7736POPC   C2B56924   2.916  12.673   6.750
 7736POPC   C3B56925   3.006  12.703   7.050
 7736POPC   C4B56926   2.980  12.728   7.350
 7737POPC   NC356927  33.027   6.690   5.550
 7737POPC   PO456928  32.984   6.665   5.850
 7737POPC   GL156929  33.026   6.634   6.150
 7737POPC   GL256930  33.137   6.674   6.150
 7737POPC   C1A56931  33.008   6.646   6.450
 7737POPC   D2A56932  33.033   6.626   6.750
 7737POPC   C3A56933  33.062   6.682   7.050
 7737POPC   C4A56934  33.059   6.601   7.350
 7737POPC   C1B56935  33.287   6.651   6.450
 7737POPC   C2B56936  33.318   6.603   6.750
 7737POPC   C3B56937  33.275   6.627   7.050
 7737POPC   C4B56938  33.235   6.657   7.350
 7738POPC   NC356939  19.076  18.296   5.550
 7738POPC   PO456940  19.013  18.248   5.850
 7738POPC   GL156941  19.072  18.269   6.150
 7738POPC   GL256942  19.158  18.386   6.150
 7738POPC   C1A56943  19.108  18.235   6.450
 7738POPC   D2A56944  19.013  18.274   6.750
 7738POPC   C3A56945  19.053  18.318   7.050
 7738POPC   C4A56946  19.074  18.253   7.350
 7738POPC   C1B56947  19.263  18.452   6.450
 7738POPC   C2B56948  19.212  18.468   6.750
 7738POPC   C3B56949  19.230  18.412   7.050
 7738POPC   C4B56950  19.218  18.484   7.350
 7739POPC   NC356951   5.125  33.817   5.550
 7739POPC   PO456952   5.062  33.792   5.850
 7739POPC   GL156953   5.089  33.848   6.150
 7739POPC   GL256954   4.956  33.857   6.150
 7739POPC   C1A56955   5.103  33.840   6.450
 7739POPC   D2A56956   5.076  33.768   6.750
 7739POPC   C3A56957   5.105  33.831   7.050
 7739POPC   C4A56958   5.058  33.776   7.350
 7739POPC   C1B56959   4.895  33.935   6.450
 7739POPC   C2B56960   4.902  33.885   6.750
 7739POPC   C3B56961   4.855  33.931   7.050
 7739POPC   C4B56962   4.817  33.879   7.350
 7740POPC   NC356963   9.708  41.564   5.550
 7740POPC   PO456964   9.718  41.540   5.850
 7740POPC   GL156965   9.722  41.578   6.150
 7740POPC   GL256966   9.794  41.707   6.150
 7740POPC   C1A56967   9.734  41.545   6.450
 7740POPC   D2A56968   9.712  41.548   6.750
 7740POPC   C3A56969   9.772  41.538   7.050
 7740POPC   C4A56970   9.748  41.604   7.350
 7740POPC   C1B56971   9.836  41.814   6.450
 7740POPC   C2B56972   9.818  41.824   6.750
 7740POPC   C3B56973   9.896  41.820   7.050
 7740POPC   C4B56974   9.878  41.780   7.350
 7741POPC   NC356975  25.272   1.238   5.550
 7741POPC   PO456976  25.249   1.249   5.850
 7741POPC   GL156977  25.228   1.202   6.150
 7741POPC   GL256978  25.217   1.114   6.150
 7741POPC   C1A56979  25.224   1.196   6.450
 7741POPC   D2A56980  25.225   1.178   6.750
 7741POPC   C3A56981  25.216   1.254   7.050
 7741POPC   C4A56982  25.243   1.254   7.350
 7741POPC   C1B56983  25.099   1.002   6.450
 7741POPC   C2B56984  25.153   1.015   6.750
 7741POPC   C3B56985  25.129   1.037   7.050
 7741POPC   C4B56986  25.067   1.052   7.350
 7742POPC   NC356987  21.374  32.293   5.550
 7742POPC   PO456988  21.398  32.268   5.850
 7742POPC   GL156989  21.380  32.208   6.150
 7742POPC   GL256990  21.235  32.157   6.150
 7742POPC   C1A56991  21.385  32.253   6.450
 7742POPC   D2A56992  21.356  32.212   6.750
 7742POPC   C3A56993  21.377  32.221   7.050
 7742POPC   C4A56994  21.359  32.214   7.350
 7742POPC   C1B56995  21.163  32.109   6.450
 7742POPC   C2B56996  21.197  32.114   6.750
 7742POPC   C3B56997  21.147  32.095   7.050
 7742POPC   C4B56998  21.125  32.166   7.350
 7743POPC   NC356999  18.304  35.384   5.550
 7743POPC   PO457000  18.284  35.387   5.850
 7743POPC   GL157001  18.238  35.314   6.150
 7743POPC   GL257002  18.271  35.470   6.150
 7743POPC   C1A57003  18.274  35.401   6.450
 7743POPC   D2A57004  18.250  35.360   6.750
 7743POPC   C3A57005  18.233  35.336   7.050
 7743POPC   C4A57006  18.303  35.367   7.350
 7743POPC   C1B57007  18.316  35.619   6.450
 7743POPC   C2B57008  18.284  35.625   6.750
 7743POPC   C3B57009  18.283  35.556   7.050
 7743POPC   C4B57010  18.326  35.602   7.350
 7744POPC   NC357011  22.933  27.568   5.550
 7744POPC   PO457012  22.917  27.561   5.850
 7744POPC   GL157013  22.978  27.614   6.150
 7744POPC   GL257014  22.967  27.765   6.150
 7744POPC   C1A57015  22.932  27.547   6.450
 7744POPC   D2A57016  22.977  27.606   6.750
 7744POPC   C3A57017  22.983  27.600   7.050
 7744POPC   C4A57018  22.900  27.600   7.350
 7744POPC   C1B57019  22.950  27.791   6.450
 7744POPC   C2B57020  22.912  27.794   6.750
 7744POPC   C3B57021  22.908  27.855   7.050
 7744POPC   C4B57022  22.864  27.881   7.350
 7745POPC   NC357023  27.622  39.990   5.550
 7745POPC   PO457024  27.564  40.033   5.850
 7745POPC   GL157025  27.555  40.029   6.150
 7745POPC   GL257026  27.539  40.101   6.150
 7745POPC   C1A57027  27.554  40.028   6.450
 7745POPC   D2A57028  27.599  40.027   6.750
 7745POPC   C3A57029  27.624  39.993   7.050
 7745POPC   C4A57030  27.638  39.982   7.350
 7745POPC   C1B57031  27.433  40.240   6.450
 7745POPC   C2B57032  27.445  40.173   6.750
 7745POPC   C3B57033  27.491  40.164   7.050
 7745POPC   C4B57034  27.472  40.193   7.350
 7746POPC   NC357035  28.321  43.930   5.550
 7746POPC   PO457036  28.384  43.936   5.850
 7746POPC   GL157037  28.402  43.867   6.150
 7746POPC   GL257038  28.527  43.985   6.150
 7746POPC   C1A57039  28.341  43.921   6.450
 7746POPC   D2A57040  28.415  43.876   6.750
 7746POPC   C3A57041  28.378  43.886   7.050
 7746POPC   C4A57042  28.406  43.909   7.350
 7746POPC   C1B57043  28.640  44.030   6.450
 7746POPC   C2B57044  28.582  44.043   6.750
 7746POPC   C3B57045  28.589  44.011   7.050
 7746POPC   C4B57046  28.628  43.952   7.350
 7747POPC   NC357047  31.489  19.051   5.550
 7747POPC   PO457048  31.505  19.041   5.850
 7747POPC   GL157049  31.471  19.106   6.150
 7747POPC   GL257050  31.351  19.142   6.150
 7747POPC   C1A57051  31.468  19.081   6.450
 7747POPC   D2A57052  31.434  19.036   6.750
 7747POPC   C3A57053  31.515  19.102   7.050
 7747POPC   C4A57054  31.518  19.041   7.350
 7747POPC   C1B57055  31.333  19.308   6.450
 7747POPC   C2B57056  31.322  19.252   6.750
 7747POPC   C3B57057  31.352  19.287   7.050
 7747POPC   C4B57058  31.289  19.264   7.350
 7748POPC   NC357059   6.602  28.351   5.550
 7748POPC   PO457060   6.646  28.337   5.850
 7748POPC   GL157061   6.650  28.368   6.150
 7748POPC   GL257062   6.701  28.463   6.150
 7748POPC   C1A57063   6.686  28.399   6.450
 7748POPC   D2A57064   6.608  28.349   6.750
 7748POPC   C3A57065   6.638  28.399   7.050
 7748POPC   C4A57066   6.666  28.322   7.350
 7748POPC   C1B57067   6.845  28.533   6.450
 7748POPC   C2B57068   6.858  28.542   6.750
 7748POPC   C3B57069   6.879  28.536   7.050
 7748POPC   C4B57070   6.841  28.497   7.350
 7749POPC   NC357071   3.498  29.179   5.550
 7749POPC   PO457072   3.518  29.187   5.850
 7749POPC   GL157073   3.559  29.111   6.150
 7749POPC   GL257074   3.701  29.188   6.150
 7749POPC   C1A57075   3.572  29.107   6.450
 7749POPC   D2A57076   3.509  29.193   6.750
 7749POPC   C3A57077   3.542  29.185   7.050
 7749POPC   C4A57078   3.540  29.100   7.350
 7749POPC   C1B57079   3.820  29.224   6.450
 7749POPC   C2B57080   3.828  29.200   6.750
 7749POPC   C3B57081   3.737  29.244   7.050
 7749POPC   C4B57082   3.793  29.181   7.350
 7750POPC   NC357083  40.794  37.643   5.550
 7750POPC   PO457084  40.771  37.719   5.850
 7750POPC   GL157085  40.790  37.726   6.150
 7750POPC   GL257086  40.718  37.804   6.150
 7750POPC   C1A57087  40.784  37.703   6.450
 7750POPC   D2A57088  40.827  37.652   6.750
 7750POPC   C3A57089  40.751  37.707   7.050
 7750POPC   C4A57090  40.752  37.681   7.350
 7750POPC   C1B57091  40.603  37.934   6.450
 7750POPC   C2B57092  40.663  37.923   6.750
 7750POPC   C3B57093  40.659  37.899   7.050
 7750POPC   C4B57094  40.606  37.856   7.350
 7751POPC   NC357095  43.106  37.649   5.550
 7751POPC   PO457096  43.156  37.682   5.850
 7751POPC   GL157097  43.154  37.669   6.150
 7751POPC   GL257098  43.173  37.521   6.150
 7751POPC   C1A57099  43.129  37.671   6.450
 7751POPC   D2A57100  43.145  37.724   6.750
 7751POPC   C3A57101  43.154  37.689   7.050
 7751POPC   C4A57102  43.141  37.663   7.350
 7751POPC   C1B57103  43.169  37.449   6.450
 7751POPC   C2B57104  43.163  37.429   6.750
 7751POPC   C3B57105  43.173  37.387   7.050
 7751POPC   C4B57106  43.195  37.409   7.350
 7752POPC   NC357107   8.239  19.055   5.550
 7752POPC   PO457108   8.237  19.095   5.850
 7752POPC   GL157109   8.246  19.056   6.150
 7752POPC   GL257110   8.341  18.956   6.150
 7752POPC   C1A57111   8.167  19.069   6.450
 7752POPC   D2A57112   8.215  19.076   6.750
 7752POPC   C3A57113   8.225  19.108   7.050
 7752POPC   C4A57114   8.179  19.087   7.350
 7752POPC   C1B57115   8.428  18.869   6.450
 7752POPC   C2B57116   8.375  18.886   6.750
 7752POPC   C3B57117   8.433  18.892   7.050
 7752POPC   C4B57118   8.358  18.930   7.350
 7753POPC   NC357119   1.985  27.601   5.550
 7753POPC   PO457120   1.972  27.544   5.850
 7753POPC   GL157121   2.014  27.609   6.150
 7753POPC   GL257122   1.944  27.663   6.150
 7753POPC   C1A57123   1.973  27.562   6.450
 7753POPC   D2A57124   1.954  27.611   6.750
 7753POPC   C3A57125   1.999  27.642   7.050
 7753POPC   C4A57126   1.991  27.559   7.350
 7753POPC   C1B57127   1.919  27.877   6.450
 7753POPC   C2B57128   1.913  27.851   6.750
 7753POPC   C3B57129   1.884  27.824   7.050
 7753POPC   C4B57130   1.883  27.785   7.350
 7754POPC   NC357131   7.448  37.714   5.550
 7754POPC   PO457132   7.463  37.645   5.850
 7754POPC   GL157133   7.430  37.661   6.150
 7754POPC   GL257134   7.462  37.619   6.150
 7754POPC   C1A57135   7.401  37.706   6.450
 7754POPC   D2A57136   7.390  37.629   6.750
 7754POPC   C3A57137   7.464  37.639   7.050
 7754POPC   C4A57138   7.433  37.638   7.350
 7754POPC   C1B57139   7.551  37.447   6.450
 7754POPC   C2B57140   7.614  37.544   6.750
 7754POPC   C3B57141   7.596  37.545   7.050
 7754POPC   C4B57142   7.609  37.501   7.350
 7755POPC   NC357143  40.797  14.363   5.550
 7755POPC   PO457144  40.747  14.378   5.850
 7755POPC   GL157145  40.768  14.413   6.150
 7755POPC   GL257146  40.655  14.356   6.150
 7755POPC   C1A57147  40.801  14.368   6.450
 7755POPC   D2A57148  40.823  14.441   6.750
 7755POPC   C3A57149  40.764  14.445   7.050
 7755POPC   C4A57150  40.833  14.388   7.350
 7755POPC   C1B57151  40.592  14.239   6.450
 7755POPC   C2B57152  40.598  14.242   6.750
 7755POPC   C3B57153  40.564  14.242   7.050
 7755POPC   C4B57154  40.605  14.248   7.350
 7756POPC   NC357155  12.063  37.684   5.550
 7756POPC   PO457156  12.091  37.657   5.850
 7756POPC   GL157157  12.039  37.658   6.150
 7756POPC   GL257158  12.108  37.588   6.150
 7756POPC   C1A57159  12.067  37.682   6.450
 7756POPC   D2A57160  12.032  37.729   6.750
 7756POPC   C3A57161  12.047  37.686   7.050
 7756POPC   C4A57162  12.075  37.724   7.350
 7756POPC   C1B57163  12.162  37.484   6.450
 7756POPC   C2B57164  12.106  37.450   6.750
 7756POPC   C3B57165  12.110  37.419   7.050
 7756POPC   C4B57166  12.101  37.477   7.350
 7757POPC   NC357167  27.609  42.316   5.550
 7757POPC   PO457168  27.547  42.313   5.850
 7757POPC   GL157169  27.633  42.347   6.150
 7757POPC   GL257170  27.474  42.357   6.150
 7757POPC   C1A57171  27.636  42.370   6.450
 7757POPC   D2A57172  27.564  42.335   6.750
 7757POPC   C3A57173  27.606  42.324   7.050
 7757POPC   C4A57174  27.555  42.364   7.350
 7757POPC   C1B57175  27.350  42.321   6.450
 7757POPC   C2B57176  27.387  42.305   6.750
 7757POPC   C3B57177  27.365  42.259   7.050
 7757POPC   C4B57178  27.385  42.291   7.350
 7758POPC   NC357179  18.277   6.676   5.550
 7758POPC   PO457180  18.251   6.650   5.850
 7758POPC   GL157181  18.327   6.595   6.150
 7758POPC   GL257182  18.349   6.735   6.150
 7758POPC   C1A57183  18.331   6.650   6.450
 7758POPC   D2A57184  18.329   6.694   6.750
 7758POPC   C3A57185  18.233   6.607   7.050
 7758POPC   C4A57186  18.309   6.689   7.350
 7758POPC   C1B57187  18.497   6.862   6.450
 7758POPC   C2B57188  18.457   6.774   6.750
 7758POPC   C3B57189  18.507   6.845   7.050
 7758POPC   C4B57190  18.483   6.835   7.350
 7759POPC   NC357191  32.262   7.374   5.550
 7759POPC   PO457192  32.293   7.375   5.850
 7759POPC   GL157193  32.250   7.428   6.150
 7759POPC   GL257194  32.409   7.435   6.150
 7759POPC   C1A57195  32.271   7.395   6.450
 7759POPC   D2A57196  32.291   7.379   6.750
 7759POPC   C3A57197  32.271   7.390   7.050
 7759POPC   C4A57198  32.291   7.374   7.350
 7759POPC   C1B57199  32.440   7.517   6.450
 7759POPC   C2B57200  32.478   7.477   6.750
 7759POPC   C3B57201  32.484   7.561   7.050
 7759POPC   C4B57202  32.491   7.549   7.350
 7760POPC   NC357203  15.971  38.429   5.550
 7760POPC   PO457204  15.921  38.426   5.850
 7760POPC   GL157205  15.981  38.475   6.150
 7760POPC   GL257206  16.064  38.392   6.150
 7760POPC   C1A57207  15.964  38.447   6.450
 7760POPC   D2A57208  15.959  38.443   6.750
 7760POPC   C3A57209  15.994  38.450   7.050
 7760POPC   C4A57210  15.948  38.454   7.350
 7760POPC   C1B57211  16.218  38.334   6.450
 7760POPC   C2B57212  16.136  38.320   6.750
 7760POPC   C3B57213  16.156  38.359   7.050
 7760POPC   C4B57214  16.147  38.366   7.350
 7761POPC   NC357215   8.945  29.882   5.550
 7761POPC   PO457216   8.923  29.962   5.850
 7761POPC   GL157217   8.929  29.895   6.150
 7761POPC   GL257218   9.097  29.918   6.150
 7761POPC   C1A57219   8.953  29.947   6.450
 7761POPC   D2A57220   8.959  29.944   6.750
 7761POPC   C3A57221   9.013  29.929   7.050
 7761POPC   C4A57222   9.014  29.898   7.350
 7761POPC   C1B57223   9.173  29.930   6.450
 7761POPC   C2B57224   9.227  29.987   6.750
 7761POPC   C3B57225   9.187  29.930   7.050
 7761POPC   C4B57226   9.208  29.921   7.350
 7762POPC   NC357227  41.552  34.582   5.550
 7762POPC   PO457228  41.514  34.551   5.850
 7762POPC   GL157229  41.604  34.593   6.150
 7762POPC   GL257230  41.644  34.554   6.150
 7762POPC   C1A57231  41.540  34.625   6.450
 7762POPC   D2A57232  41.551  34.555   6.750
 7762POPC   C3A57233  41.603  34.533   7.050
 7762POPC   C4A57234  41.523  34.598   7.350
 7762POPC   C1B57235  41.767  34.488   6.450
 7762POPC   C2B57236  41.803  34.476   6.750
 7762POPC   C3B57237  41.773  34.519   7.050
 7762POPC   C4B57238  41.848  34.530   7.350
 7763POPC   NC357239   5.826  17.515   5.550
 7763POPC   PO457240   5.895  17.534   5.850
 7763POPC   GL157241   5.866  17.505   6.150
 7763POPC   GL257242   5.791  17.470   6.150
 7763POPC   C1A57243   5.890  17.481   6.450
 7763POPC   D2A57244   5.841  17.480   6.750
 7763POPC   C3A57245   5.869  17.547   7.050
 7763POPC   C4A57246   5.918  17.534   7.350
 7763POPC   C1B57247   5.572  17.493   6.450
 7763POPC   C2B57248   5.606  17.512   6.750
 7763POPC   C3B57249   5.606  17.534   7.050
 7763POPC   C4B57250   5.658  17.533   7.350
 7764POPC   NC357251  40.045  10.540   5.550
 7764POPC   PO457252  40.045  10.513   5.850
 7764POPC   GL157253  39.975  10.560   6.150
 7764POPC   GL257254  39.870  10.573   6.150
 7764POPC   C1A57255  39.981  10.547   6.450
 7764POPC   D2A57256  40.053  10.572   6.750
 7764POPC   C3A57257  40.016  10.530   7.050
 7764POPC   C4A57258  40.044  10.550   7.350
 7764POPC   C1B57259  39.785  10.539   6.450
 7764POPC   C2B57260  39.767  10.528   6.750
 7764POPC   C3B57261  39.739  10.517   7.050
 7764POPC   C4B57262  39.758  10.506   7.350
 7765POPC   NC357263  13.623  28.395   5.550
 7765POPC   PO457264  13.641  28.418   5.850
 7765POPC   GL157265  13.622  28.345   6.150
 7765POPC   GL257266  13.613  28.498   6.150
 7765POPC   C1A57267  13.659  28.354   6.450
 7765POPC   D2A57268  13.646  28.337   6.750
 7765POPC   C3A57269  13.633  28.337   7.050
 7765POPC   C4A57270  13.677  28.354   7.350
 7765POPC   C1B57271  13.552  28.603   6.450
 7765POPC   C2B57272  13.550  28.573   6.750
 7765POPC   C3B57273  13.486  28.553   7.050
 7765POPC   C4B57274  13.523  28.628   7.350
 7766POPC   NC357275  11.319  32.259   5.550
 7766POPC   PO457276  11.284  32.255   5.850
 7766POPC   GL157277  11.296  32.246   6.150
 7766POPC   GL257278  11.450  32.194   6.150
 7766POPC   C1A57279  11.335  32.209   6.450
 7766POPC   D2A57280  11.315  32.244   6.750
 7766POPC   C3A57281  11.332  32.250   7.050
 7766POPC   C4A57282  11.286  32.288   7.350
 7766POPC   C1B57283  11.532  32.193   6.450
 7766POPC   C2B57284  11.525  32.195   6.750
 7766POPC   C3B57285  11.583  32.198   7.050
 7766POPC   C4B57286  11.510  32.189   7.350
 7767POPC   NC357287  30.736  44.612   5.550
 7767POPC   PO457288  30.680  44.699   5.850
 7767POPC   GL157289  30.722  44.673   6.150
 7767POPC   GL257290  30.795  44.685   6.150
 7767POPC   C1A57291  30.704  44.646   6.450
 7767POPC   D2A57292  30.716  44.617   6.750
 7767POPC   C3A57293  30.719  44.626   7.050
 7767POPC   C4A57294  30.680  44.707   7.350
 7767POPC   C1B57295  30.939  44.792   6.450
 7767POPC   C2B57296  30.945  44.796   6.750
 7767POPC   C3B57297  30.967  44.738   7.050
 7767POPC   C4B57298  30.972  44.729   7.350
 7768POPC   NC357299  33.050  29.904   5.550
 7768POPC   PO457300  33.009  29.880   5.850
 7768POPC   GL157301  33.072  29.931   6.150
 7768POPC   GL257302  32.966  29.881   6.150
 7768POPC   C1A57303  33.017  29.906   6.450
 7768POPC   D2A57304  33.007  29.926   6.750
 7768POPC   C3A57305  32.991  29.891   7.050
 7768POPC   C4A57306  33.040  29.908   7.350
 7768POPC   C1B57307  32.787  29.832   6.450
 7768POPC   C2B57308  32.799  29.824   6.750
 7768POPC   C3B57309  32.826  29.826   7.050
 7768POPC   C4B57310  32.858  29.755   7.350
 7769POPC   NC357311  34.533   1.180   5.550
 7769POPC   PO457312  34.553   1.236   5.850
 7769POPC   GL157313  34.567   1.232   6.150
 7769POPC   GL257314  34.691   1.222   6.150
 7769POPC   C1A57315  34.621   1.236   6.450
 7769POPC   D2A57316  34.611   1.177   6.750
 7769POPC   C3A57317  34.610   1.219   7.050
 7769POPC   C4A57318  34.552   1.174   7.350
 7769POPC   C1B57319  34.789   1.232   6.450
 7769POPC   C2B57320  34.853   1.225   6.750
 7769POPC   C3B57321  34.860   1.304   7.050
 7769POPC   C4B57322  34.792   1.294   7.350
 7770POPC   NC357323  29.965  14.386   5.550
 7770POPC   PO457324  29.896  14.406   5.850
 7770POPC   GL157325  29.927  14.398   6.150
 7770POPC   GL257326  30.071  14.399   6.150
 7770POPC   C1A57327  29.913  14.405   6.450
 7770POPC   D2A57328  29.904  14.388   6.750
 7770POPC   C3A57329  29.946  14.436   7.050
 7770POPC   C4A57330  29.913  14.411   7.350
 7770POPC   C1B57331  30.182  14.456   6.450
 7770POPC   C2B57332  30.215  14.457   6.750
 7770POPC   C3B57333  30.142  14.425   7.050
 7770POPC   C4B57334  30.159  14.442   7.350
 7771POPC   NC357335  33.842  40.735   5.550
 7771POPC   PO457336  33.846  40.734   5.850
 7771POPC   GL157337  33.780  40.821   6.150
 7771POPC   GL257338  33.813  40.660   6.150
 7771POPC   C1A57339  33.794  40.738   6.450
 7771POPC   D2A57340  33.813  40.746   6.750
 7771POPC   C3A57341  33.807  40.791   7.050
 7771POPC   C4A57342  33.797  40.798   7.350
 7771POPC   C1B57343  33.819  40.517   6.450
 7771POPC   C2B57344  33.829  40.554   6.750
 7771POPC   C3B57345  33.846  40.576   7.050
 7771POPC   C4B57346  33.773  40.563   7.350
 7772POPC   NC357347   3.549   2.772   5.550
 7772POPC   PO457348   3.535   2.723   5.850
 7772POPC   GL157349   3.523   2.725   6.150
 7772POPC   GL257350   3.620   2.913   6.150
 7772POPC   C1A57351   3.564   2.807   6.450
 7772POPC   D2A57352   3.514   2.804   6.750
 7772POPC   C3A57353   3.532   2.745   7.050
 7772POPC   C4A57354   3.538   2.810   7.350
 7772POPC   C1B57355   3.662   3.009   6.450
 7772POPC   C2B57356   3.593   2.967   6.750
 7772POPC   C3B57357   3.653   3.043   7.050
 7772POPC   C4B57358   3.656   2.972   7.350
 7773POPC   NC357359  31.462  28.416   5.550
 7773POPC   PO457360  31.504  28.418   5.850
 7773POPC   GL157361  31.496  28.394   6.150
 7773POPC   GL257362  31.433  28.441   6.150
 7773POPC   C1A57363  31.498  28.328   6.450
 7773POPC   D2A57364  31.509  28.352   6.750
 7773POPC   C3A57365  31.424  28.387   7.050
 7773POPC   C4A57366  31.493  28.371   7.350
 7773POPC   C1B57367  31.440  28.576   6.450
 7773POPC   C2B57368  31.394  28.641   6.750
 7773POPC   C3B57369  31.385  28.649   7.050
 7773POPC   C4B57370  31.375  28.568   7.350
 7774POPC   NC357371  19.864  39.222   5.550
 7774POPC   PO457372  19.815  39.221   5.850
 7774POPC   GL157373  19.864  39.198   6.150
 7774POPC   GL257374  19.967  39.266   6.150
 7774POPC   C1A57375  19.786  39.184   6.450
 7774POPC   D2A57376  19.817  39.254   6.750
 7774POPC   C3A57377  19.880  39.219   7.050
 7774POPC   C4A57378  19.787  39.200   7.350
 7774POPC   C1B57379  20.032  39.357   6.450
 7774POPC   C2B57380  20.020  39.354   6.750
 7774POPC   C3B57381  20.042  39.356   7.050
 7774POPC   C4B57382  20.063  39.312   7.350
 7775POPC   NC357383  19.838  21.343   5.550
 7775POPC   PO457384  19.814  21.435   5.850
 7775POPC   GL157385  19.882  21.409   6.150
 7775POPC   GL257386  19.731  21.430   6.150
 7775POPC   C1A57387  19.785  21.378   6.450
 7775POPC   D2A57388  19.879  21.433   6.750
 7775POPC   C3A57389  19.834  21.372   7.050
 7775POPC   C4A57390  19.844  21.339   7.350
 7775POPC   C1B57391  19.623  21.374   6.450
 7775POPC   C2B57392  19.614  21.415   6.750
 7775POPC   C3B57393  19.610  21.388   7.050
 7775POPC   C4B57394  19.597  21.386   7.350
 7776POPC   NC357395  26.008  17.483   5.550
 7776POPC   PO457396  26.066  17.554   5.850
 7776POPC   GL157397  26.072  17.494   6.150
 7776POPC   GL257398  26.114  17.577   6.150
 7776POPC   C1A57399  26.028  17.521   6.450
 7776POPC   D2A57400  26.090  17.481   6.750
 7776POPC   C3A57401  26.088  17.499   7.050
 7776POPC   C4A57402  26.058  17.512   7.350
 7776POPC   C1B57403  26.216  17.643   6.450
 7776POPC   C2B57404  26.186  17.713   6.750
 7776POPC   C3B57405  26.206  17.655   7.050
 7776POPC   C4B57406  26.229  17.672   7.350
 7777POPC   NC357407   8.186   5.839   5.550
 7777POPC   PO457408   8.225   5.887   5.850
 7777POPC   GL157409   8.205   5.866   6.150
 7777POPC   GL257410   8.293   5.832   6.150
 7777POPC   C1A57411   8.182   5.872   6.450
 7777POPC   D2A57412   8.218   5.865   6.750
 7777POPC   C3A57413   8.223   5.894   7.050
 7777POPC   C4A57414   8.190   5.893   7.350
 7777POPC   C1B57415   8.421   5.785   6.450
 7777POPC   C2B57416   8.453   5.826   6.750
 7777POPC   C3B57417   8.410   5.753   7.050
 7777POPC   C4B57418   8.464   5.837   7.350
 7778POPC   NC357419  26.031  16.722   5.550
 7778POPC   PO457420  26.055  16.684   5.850
 7778POPC   GL157421  26.060  16.724   6.150
 7778POPC   GL257422  25.883  16.684   6.150
 7778POPC   C1A57423  26.058  16.694   6.450
 7778POPC   D2A57424  26.052  16.745   6.750
 7778POPC   C3A57425  26.061  16.778   7.050
 7778POPC   C4A57426  25.992  16.779   7.350
 7778POPC   C1B57427  25.775  16.729   6.450
 7778POPC   C2B57428  25.760  16.724   6.750
 7778POPC   C3B57429  25.801  16.699   7.050
 7778POPC   C4B57430  25.808  16.752   7.350
 7779POPC   NC357431  30.674  15.195   5.550
 7779POPC   PO457432  30.680  15.194   5.850
 7779POPC   GL157433  30.684  15.148   6.150
 7779POPC   GL257434  30.710  15.057   6.150
 7779POPC   C1A57435  30.716  15.221   6.450
 7779POPC   D2A57436  30.730  15.150   6.750
 7779POPC   C3A57437  30.694  15.205   7.050
 7779POPC   C4A57438  30.684  15.143   7.350
 7779POPC   C1B57439  30.621  14.939   6.450
 7779POPC   C2B57440  30.615  14.979   6.750
 7779POPC   C3B57441  30.633  14.909   7.050
 7779POPC   C4B57442  30.617  14.894   7.350
 7780POPC   NC357443   3.546  15.222   5.550
 7780POPC   PO457444   3.559  15.153   5.850
 7780POPC   GL157445   3.516  15.207   6.150
 7780POPC   GL257446   3.469  15.059   6.150
 7780POPC   C1A57447   3.553  15.217   6.450
 7780POPC   D2A57448   3.547  15.140   6.750
 7780POPC   C3A57449   3.552  15.181   7.050
 7780POPC   C4A57450   3.507  15.211   7.350
 7780POPC   C1B57451   3.459  14.959   6.450
 7780POPC   C2B57452   3.502  14.942   6.750
 7780POPC   C3B57453   3.484  14.968   7.050
 7780POPC   C4B57454   3.516  14.932   7.350
 7781POPC   NC357455  43.079  35.372   5.550
 7781POPC   PO457456  43.109  35.309   5.850
 7781POPC   GL157457  43.150  35.394   6.150
 7781POPC   GL257458  43.052  35.205   6.150
 7781POPC   C1A57459  43.115  35.316   6.450
 7781POPC   D2A57460  43.146  35.323   6.750
 7781POPC   C3A57461  43.138  35.369   7.050
 7781POPC   C4A57462  43.153  35.397   7.350
 7781POPC   C1B57463  43.026  35.172   6.450
 7781POPC   C2B57464  43.034  35.083   6.750
 7781POPC   C3B57465  43.010  35.133   7.050
 7781POPC   C4B57466  42.988  35.125   7.350
 7782POPC   NC357467  12.066  16.702   5.550
 7782POPC   PO457468  12.098  16.735   5.850
 7782POPC   GL157469  12.122  16.697   6.150
 7782POPC   GL257470  12.216  16.766   6.150
 7782POPC   C1A57471  12.035  16.774   6.450
 7782POPC   D2A57472  12.051  16.685   6.750
 7782POPC   C3A57473  12.050  16.752   7.050
 7782POPC   C4A57474  12.062  16.759   7.350
 7782POPC   C1B57475  12.316  16.906   6.450
 7782POPC   C2B57476  12.303  16.829   6.750
 7782POPC   C3B57477  12.254  16.870   7.050
 7782POPC   C4B57478  12.275  16.820   7.350
 7783POPC   NC357479  41.558  33.791   5.550
 7783POPC   PO457480  41.564  33.766   5.850
 7783POPC   GL157481  41.522  33.760   6.150
 7783POPC   GL257482  41.515  33.746   6.150
 7783POPC   C1A57483  41.562  33.763   6.450
 7783POPC   D2A57484  41.580  33.812   6.750
 7783POPC   C3A57485  41.551  33.810   7.050
 7783POPC   C4A57486  41.600  33.838   7.350
 7783POPC   C1B57487  41.382  33.574   6.450
 7783POPC   C2B57488  41.420  33.622   6.750
 7783POPC   C3B57489  41.427  33.563   7.050
 7783POPC   C4B57490  41.399  33.572   7.350
 7784POPC   NC357491  14.441  26.802   5.550
 7784POPC   PO457492  14.413  26.830   5.850
 7784POPC   GL157493  14.378  26.853   6.150
 7784POPC   GL257494  14.286  26.875   6.150
 7784POPC   C1A57495  14.406  26.773   6.450
 7784POPC   D2A57496  14.387  26.826   6.750
 7784POPC   C3A57497  14.388  26.839   7.050
 7784POPC   C4A57498  14.394  26.838   7.350
 7784POPC   C1B57499  14.241  26.978   6.450
 7784POPC   C2B57500  14.228  27.024   6.750
 7784POPC   C3B57501  14.232  26.975   7.050
 7784POPC   C4B57502  14.231  26.969   7.350
 7785POPC   NC357503  39.254  32.214   5.550
 7785POPC   PO457504  39.281  32.297   5.850
 7785POPC   GL157505  39.248  32.233   6.150
 7785POPC   GL257506  39.231  32.160   6.150
 7785POPC   C1A57507  39.250  32.243   6.450
 7785POPC   D2A57508  39.257  32.260   6.750
 7785POPC   C3A57509  39.266  32.250   7.050
 7785POPC   C4A57510  39.238  32.287   7.350
 7785POPC   C1B57511  39.231  32.027   6.450
 7785POPC   C2B57512  39.239  31.961   6.750
 7785POPC   C3B57513  39.243  32.006   7.050
 7785POPC   C4B57514  39.237  31.977   7.350
 7786POPC   NC357515   8.929  27.594   5.550
 7786POPC   PO457516   8.961  27.626   5.850
 7786POPC   GL157517   8.924  27.636   6.150
 7786POPC   GL257518   8.862  27.710   6.150
 7786POPC   C1A57519   8.968  27.625   6.450
 7786POPC   D2A57520   8.965  27.641   6.750
 7786POPC   C3A57521   8.934  27.630   7.050
 7786POPC   C4A57522   8.929  27.636   7.350
 7786POPC   C1B57523   8.788  27.753   6.450
 7786POPC   C2B57524   8.783  27.743   6.750
 7786POPC   C3B57525   8.760  27.716   7.050
 7786POPC   C4B57526   8.740  27.711   7.350
 7787POPC   NC357527   2.019  24.530   5.550
 7787POPC   PO457528   1.941  24.532   5.850
 7787POPC   GL157529   1.985  24.517   6.150
 7787POPC   GL257530   2.057  24.343   6.150
 7787POPC   C1A57531   2.022  24.441   6.450
 7787POPC   D2A57532   2.031  24.496   6.750
 7787POPC   C3A57533   1.998  24.530   7.050
 7787POPC   C4A57534   1.973  24.532   7.350
 7787POPC   C1B57535   2.105  24.258   6.450
 7787POPC   C2B57536   2.034  24.262   6.750
 7787POPC   C3B57537   2.018  24.216   7.050
 7787POPC   C4B57538   2.070  24.215   7.350
 7788POPC   NC357539  35.375  15.153   5.550
 7788POPC   PO457540  35.309  15.202   5.850
 7788POPC   GL157541  35.352  15.154   6.150
 7788POPC   GL257542  35.317  15.076   6.150
 7788POPC   C1A57543  35.324  15.143   6.450
 7788POPC   D2A57544  35.374  15.174   6.750
 7788POPC   C3A57545  35.347  15.225   7.050
 7788POPC   C4A57546  35.314  15.189   7.350
 7788POPC   C1B57547  35.365  14.903   6.450
 7788POPC   C2B57548  35.324  14.930   6.750
 7788POPC   C3B57549  35.335  14.935   7.050
 7788POPC   C4B57550  35.332  14.909   7.350
 7789POPC   NC357551  33.037   1.169   5.550
 7789POPC   PO457552  32.977   1.200   5.850
 7789POPC   GL157553  33.057   1.198   6.150
 7789POPC   GL257554  33.039   1.126   6.150
 7789POPC   C1A57555  33.003   1.201   6.450
 7789POPC   D2A57556  32.991   1.211   6.750
 7789POPC   C3A57557  33.010   1.238   7.050
 7789POPC   C4A57558  32.978   1.222   7.350
 7789POPC   C1B57559  33.095   0.965   6.450
 7789POPC   C2B57560  33.028   0.999   6.750
 7789POPC   C3B57561  33.043   0.967   7.050
 7789POPC   C4B57562  33.088   0.957   7.350
 7790POPC   NC357563  24.483  23.743   5.550
 7790POPC   PO457564  24.458  23.708   5.850
 7790POPC   GL157565  24.494  23.735   6.150
 7790POPC   GL257566  24.495  23.550   6.150
 7790POPC   C1A57567  24.527  23.685   6.450
 7790POPC   D2A57568  24.461  23.757   6.750
 7790POPC   C3A57569  24.529  23.669   7.050
 7790POPC   C4A57570  24.502  23.737   7.350
 7790POPC   C1B57571  24.502  23.451   6.450
 7790POPC   C2B57572  24.446  23.447   6.750
 7790POPC   C3B57573  24.492  23.505   7.050
 7790POPC   C4B57574  24.433  23.497   7.350
 7791POPC   NC357575  25.277  19.084   5.550
 7791POPC   PO457576  25.234  19.106   5.850
 7791POPC   GL157577  25.310  19.045   6.150
 7791POPC   GL257578  25.184  18.963   6.150
 7791POPC   C1A57579  25.269  19.051   6.450
 7791POPC   D2A57580  25.293  19.076   6.750
 7791POPC   C3A57581  25.264  19.062   7.050
 7791POPC   C4A57582  25.232  19.091   7.350
 7791POPC   C1B57583  25.108  18.848   6.450
 7791POPC   C2B57584  25.163  18.884   6.750
 7791POPC   C3B57585  25.190  18.849   7.050
 7791POPC   C4B57586  25.118  18.791   7.350
 7792POPC   NC357587  36.110  26.799   5.550
 7792POPC   PO457588  36.078  26.786   5.850
 7792POPC   GL157589  36.124  26.795   6.150
 7792POPC   GL257590  36.117  26.694   6.150
 7792POPC   C1A57591  36.118  26.829   6.450
 7792POPC   D2A57592  36.144  26.789   6.750
 7792POPC   C3A57593  36.127  26.776   7.050
 7792POPC   C4A57594  36.175  26.778   7.350
 7792POPC   C1B57595  36.046  26.602   6.450
 7792POPC   C2B57596  36.003  26.592   6.750
 7792POPC   C3B57597  36.045  26.632   7.050
 7792POPC   C4B57598  36.004  26.590   7.350
 7793POPC   NC357599   5.898  33.816   5.550
 7793POPC   PO457600   5.906  33.827   5.850
 7793POPC   GL157601   5.862  33.763   6.150
 7793POPC   GL257602   5.812  33.885   6.150
 7793POPC   C1A57603   5.859  33.804   6.450
 7793POPC   D2A57604   5.916  33.753   6.750
 7793POPC   C3A57605   5.919  33.793   7.050
 7793POPC   C4A57606   5.820  33.794   7.350
 7793POPC   C1B57607   5.797  34.060   6.450
 7793POPC   C2B57608   5.854  34.045   6.750
 7793POPC   C3B57609   5.846  34.073   7.050
 7793POPC   C4B57610   5.816  34.030   7.350
 7794POPC   NC357611  14.374   8.923   5.550
 7794POPC   PO457612  14.392   9.002   5.850
 7794POPC   GL157613  14.405   8.927   6.150
 7794POPC   GL257614  14.489   8.999   6.150
 7794POPC   C1A57615  14.395   8.929   6.450
 7794POPC   D2A57616  14.385   8.985   6.750
 7794POPC   C3A57617  14.451   9.014   7.050
 7794POPC   C4A57618  14.392   9.016   7.350
 7794POPC   C1B57619  14.661   9.096   6.450
 7794POPC   C2B57620  14.588   9.152   6.750
 7794POPC   C3B57621  14.598   9.084   7.050
 7794POPC   C4B57622  14.635   9.080   7.350
 7795POPC   NC357623  38.482  15.147   5.550
 7795POPC   PO457624  38.451  15.133   5.850
 7795POPC   GL157625  38.448  15.136   6.150
 7795POPC   GL257626  38.362  15.231   6.150
 7795POPC   C1A57627  38.491  15.220   6.450
 7795POPC   D2A57628  38.463  15.154   6.750
 7795POPC   C3A57629  38.480  15.173   7.050
 7795POPC   C4A57630  38.499  15.160   7.350
 7795POPC   C1B57631  38.294  15.310   6.450
 7795POPC   C2B57632  38.211  15.274   6.750
 7795POPC   C3B57633  38.277  15.367   7.050
 7795POPC   C4B57634  38.269  15.350   7.350
 7796POPC   NC357635  18.325  21.427   5.550
 7796POPC   PO457636  18.253  21.345   5.850
 7796POPC   GL157637  18.270  21.340   6.150
 7796POPC   GL257638  18.204  21.323   6.150
 7796POPC   C1A57639  18.285  21.422   6.450
 7796POPC   D2A57640  18.237  21.368   6.750
 7796POPC   C3A57641  18.320  21.346   7.050
 7796POPC   C4A57642  18.306  21.434   7.350
 7796POPC   C1B57643  18.071  21.332   6.450
 7796POPC   C2B57644  18.005  21.329   6.750
 7796POPC   C3B57645  18.038  21.347   7.050
 7796POPC   C4B57646  18.028  21.333   7.350
 7797POPC   NC357647  29.152   4.283   5.550
 7797POPC   PO457648  29.183   4.325   5.850
 7797POPC   GL157649  29.127   4.296   6.150
 7797POPC   GL257650  29.200   4.351   6.150
 7797POPC   C1A57651  29.178   4.275   6.450
 7797POPC   D2A57652  29.188   4.295   6.750
 7797POPC   C3A57653  29.189   4.366   7.050
 7797POPC   C4A57654  29.104   4.320   7.350
 7797POPC   C1B57655  29.311   4.437   6.450
 7797POPC   C2B57656  29.297   4.481   6.750
 7797POPC   C3B57657  29.385   4.450   7.050
 7797POPC   C4B57658  29.371   4.520   7.350
 7798POPC   NC357659  30.688  25.305   5.550
 7798POPC   PO457660  30.674  25.246   5.850
 7798POPC   GL157661  30.663  25.272   6.150
 7798POPC   GL257662  30.607  25.199   6.150
 7798POPC   C1A57663  30.704  25.252   6.450
 7798POPC   D2A57664  30.689  25.233   6.750
 7798POPC   C3A57665  30.650  25.287   7.050
 7798POPC   C4A57666  30.714  25.295   7.350
 7798POPC   C1B57667  30.491  25.072   6.450
 7798POPC   C2B57668  30.473  25.092   6.750
 7798POPC   C3B57669  30.508  25.080   7.050
 7798POPC   C4B57670  30.479  25.123   7.350
 7799POPC   NC357671  14.371  42.320   5.550
 7799POPC   PO457672  14.353  42.298   5.850
 7799POPC   GL157673  14.434  42.328   6.150
 7799POPC   GL257674  14.547  42.353   6.150
 7799POPC   C1A57675  14.428  42.376   6.450
 7799POPC   D2A57676  14.417  42.288   6.750
 7799POPC   C3A57677  14.426  42.341   7.050
 7799POPC   C4A57678  14.432  42.312   7.350
 7799POPC   C1B57679  14.623  42.358   6.450
 7799POPC   C2B57680  14.641  42.393   6.750
 7799POPC   C3B57681  14.617  42.308   7.050
 7799POPC   C4B57682  14.604  42.318   7.350
 7800POPC   NC357683  27.618  39.183   5.550
 7800POPC   PO457684  27.589  39.259   5.850
 7800POPC   GL157685  27.607  39.210   6.150
 7800POPC   GL257686  27.714  39.294   6.150
 7800POPC   C1A57687  27.615  39.209   6.450
 7800POPC   D2A57688  27.591  39.276   6.750
 7800POPC   C3A57689  27.597  39.252   7.050
 7800POPC   C4A57690  27.615  39.261   7.350
 7800POPC   C1B57691  27.843  39.371   6.450
 7800POPC   C2B57692  27.787  39.404   6.750
 7800POPC   C3B57693  27.829  39.409   7.050
 7800POPC   C4B57694  27.765  39.388   7.350
 7801POPC   NC357695  10.545  16.733   5.550
 7801POPC   PO457696  10.548  16.722   5.850
 7801POPC   GL157697  10.515  16.752   6.150
 7801POPC   GL257698  10.445  16.819   6.150
 7801POPC   C1A57699  10.486  16.702   6.450
 7801POPC   D2A57700  10.497  16.693   6.750
 7801POPC   C3A57701  10.567  16.765   7.050
 7801POPC   C4A57702  10.489  16.719   7.350
 7801POPC   C1B57703  10.402  17.002   6.450
 7801POPC   C2B57704  10.471  17.005   6.750
 7801POPC   C3B57705  10.420  17.012   7.050
 7801POPC   C4B57706  10.440  16.955   7.350
 7802POPC   NC357707  36.950   8.177   5.550
 7802POPC   PO457708  36.915   8.154   5.850
 7802POPC   GL157709  36.931   8.189   6.150
 7802POPC   GL257710  36.978   8.123   6.150
 7802POPC   C1A57711  36.854   8.177   6.450
 7802POPC   D2A57712  36.882   8.159   6.750
 7802POPC   C3A57713  36.887   8.230   7.050
 7802POPC   C4A57714  36.944   8.235   7.350
 7802POPC   C1B57715  37.052   7.990   6.450
 7802POPC   C2B57716  37.090   8.065   6.750
 7802POPC   C3B57717  37.132   8.078   7.050
 7802POPC   C4B57718  37.108   8.016   7.350
 7803POPC   NC357719  10.559  22.197   5.550
 7803POPC   PO457720  10.570  22.141   5.850
 7803POPC   GL157721  10.476  22.139   6.150
 7803POPC   GL257722  10.462  22.094   6.150
 7803POPC   C1A57723  10.569  22.138   6.450
 7803POPC   D2A57724  10.535  22.172   6.750
 7803POPC   C3A57725  10.556  22.147   7.050
 7803POPC   C4A57726  10.482  22.131   7.350
 7803POPC   C1B57727  10.434  21.959   6.450
 7803POPC   C2B57728  10.389  21.976   6.750
 7803POPC   C3B57729  10.447  21.942   7.050
 7803POPC   C4B57730  10.407  21.921   7.350
 7804POPC   NC357731   8.958  25.237   5.550
 7804POPC   PO457732   9.003  25.293   5.850
 7804POPC   GL157733   8.957  25.295   6.150
 7804POPC   GL257734   9.012  25.132   6.150
 7804POPC   C1A57735   8.978  25.260   6.450
 7804POPC   D2A57736   9.005  25.219   6.750
 7804POPC   C3A57737   9.001  25.231   7.050
 7804POPC   C4A57738   8.975  25.315   7.350
 7804POPC   C1B57739   8.982  25.029   6.450
 7804POPC   C2B57740   8.936  25.065   6.750
 7804POPC   C3B57741   8.929  25.059   7.050
 7804POPC   C4B57742   8.914  25.058   7.350
 7805POPC   NC357743   7.454  22.200   5.550
 7805POPC   PO457744   7.404  22.171   5.850
 7805POPC   GL157745   7.467  22.146   6.150
 7805POPC   GL257746   7.379  22.099   6.150
 7805POPC   C1A57747   7.442  22.120   6.450
 7805POPC   D2A57748   7.377  22.116   6.750
 7805POPC   C3A57749   7.462  22.177   7.050
 7805POPC   C4A57750   7.450  22.181   7.350
 7805POPC   C1B57751   7.256  21.910   6.450
 7805POPC   C2B57752   7.296  21.920   6.750
 7805POPC   C3B57753   7.289  21.945   7.050
 7805POPC   C4B57754   7.266  21.926   7.350
 7806POPC   NC357755  39.228  22.190   5.550
 7806POPC   PO457756  39.199  22.187   5.850
 7806POPC   GL157757  39.204  22.128   6.150
 7806POPC   GL257758  39.389  22.186   6.150
 7806POPC   C1A57759  39.233  22.201   6.450
 7806POPC   D2A57760  39.266  22.183   6.750
 7806POPC   C3A57761  39.268  22.150   7.050
 7806POPC   C4A57762  39.217  22.147   7.350
 7806POPC   C1B57763  39.474  22.150   6.450
 7806POPC   C2B57764  39.435  22.130   6.750
 7806POPC   C3B57765  39.483  22.067   7.050
 7806POPC   C4B57766  39.470  22.118   7.350
 7807POPC   NC357767  13.644  12.028   5.550
 7807POPC   PO457768  13.595  12.051   5.850
 7807POPC   GL157769  13.602  12.104   6.150
 7807POPC   GL257770  13.698  11.914   6.150
 7807POPC   C1A57771  13.582  12.103   6.450
 7807POPC   D2A57772  13.611  12.071   6.750
 7807POPC   C3A57773  13.645  12.047   7.050
 7807POPC   C4A57774  13.666  12.102   7.350
 7807POPC   C1B57775  13.698  11.813   6.450
 7807POPC   C2B57776  13.716  11.813   6.750
 7807POPC   C3B57777  13.679  11.850   7.050
 7807POPC   C4B57778  13.644  11.799   7.350
 7808POPC   NC357779   0.423  11.339   5.550
 7808POPC   PO457780   0.427  11.324   5.850
 7808POPC   GL157781   0.452  11.266   6.150
 7808POPC   GL257782   0.559  11.410   6.150
 7808POPC   C1A57783   0.460  11.301   6.450
 7808POPC   D2A57784   0.409  11.320   6.750
 7808POPC   C3A57785   0.461  11.259   7.050
 7808POPC   C4A57786   0.453  11.272   7.350
 7808POPC   C1B57787   0.565  11.474   6.450
 7808POPC   C2B57788   0.601  11.514   6.750
 7808POPC   C3B57789   0.629  11.514   7.050
 7808POPC   C4B57790   0.561  11.457   7.350
 7809POPC   NC357791  18.301  15.163   5.550
 7809POPC   PO457792  18.288  15.199   5.850
 7809POPC   GL157793  18.289  15.216   6.150
 7809POPC   GL257794  18.297  15.086   6.150
 7809POPC   C1A57795  18.316  15.189   6.450
 7809POPC   D2A57796  18.270  15.190   6.750
 7809POPC   C3A57797  18.309  15.214   7.050
 7809POPC   C4A57798  18.288  15.149   7.350
 7809POPC   C1B57799  18.325  14.942   6.450
 7809POPC   C2B57800  18.250  14.897   6.750
 7809POPC   C3B57801  18.264  14.905   7.050
 7809POPC   C4B57802  18.321  14.956   7.350
 7810POPC   NC357803  10.505  44.709   5.550
 7810POPC   PO457804  10.504  44.645   5.850
 7810POPC   GL157805  10.481  44.676   6.150
 7810POPC   GL257806  10.435  44.748   6.150
 7810POPC   C1A57807  10.496  44.651   6.450
 7810POPC   D2A57808  10.570  44.651   6.750
 7810POPC   C3A57809  10.536  44.670   7.050
 7810POPC   C4A57810  10.572  44.712   7.350
 7810POPC   C1B57811  10.353  44.775   6.450
 7810POPC   C2B57812  10.343  44.768   6.750
 7810POPC   C3B57813  10.315  44.821   7.050
 7810POPC   C4B57814  10.343  44.768   7.350
 7811POPC   NC357815  28.338  28.331   5.550
 7811POPC   PO457816  28.407  28.335   5.850
 7811POPC   GL157817  28.322  28.377   6.150
 7811POPC   GL257818  28.389  28.210   6.150
 7811POPC   C1A57819  28.394  28.385   6.450
 7811POPC   D2A57820  28.359  28.408   6.750
 7811POPC   C3A57821  28.332  28.390   7.050
 7811POPC   C4A57822  28.409  28.370   7.350
 7811POPC   C1B57823  28.470  28.136   6.450
 7811POPC   C2B57824  28.474  28.086   6.750
 7811POPC   C3B57825  28.431  28.177   7.050
 7811POPC   C4B57826  28.456  28.097   7.350
 7812POPC   NC357827  30.674   3.504   5.550
 7812POPC   PO457828  30.650   3.571   5.850
 7812POPC   GL157829  30.728   3.512   6.150
 7812POPC   GL257830  30.559   3.533   6.150
 7812POPC   C1A57831  30.666   3.584   6.450
 7812POPC   D2A57832  30.710   3.500   6.750
 7812POPC   C3A57833  30.703   3.528   7.050
 7812POPC   C4A57834  30.714   3.534   7.350
 7812POPC   C1B57835  30.413   3.471   6.450
 7812POPC   C2B57836  30.491   3.435   6.750
 7812POPC   C3B57837  30.484   3.482   7.050
 7812POPC   C4B57838  30.465   3.443   7.350
 7813POPC   NC357839   4.349  20.639   5.550
 7813POPC   PO457840   4.356  20.569   5.850
 7813POPC   GL157841   4.367  20.561   6.150
 7813POPC   GL257842   4.210  20.482   6.150
 7813POPC   C1A57843   4.300  20.594   6.450
 7813POPC   D2A57844   4.303  20.568   6.750
 7813POPC   C3A57845   4.325  20.563   7.050
 7813POPC   C4A57846   4.287  20.639   7.350
 7813POPC   C1B57847   4.117  20.464   6.450
 7813POPC   C2B57848   4.119  20.416   6.750
 7813POPC   C3B57849   4.141  20.407   7.050
 7813POPC   C4B57850   4.078  20.482   7.350
 7814POPC   NC357851  14.427  15.930   5.550
 7814POPC   PO457852  14.448  15.923   5.850
 7814POPC   GL157853  14.355  15.921   6.150
 7814POPC   GL257854  14.236  15.922   6.150
 7814POPC   C1A57855  14.370  15.926   6.450
 7814POPC   D2A57856  14.440  16.005   6.750
 7814POPC   C3A57857  14.440  15.977   7.050
 7814POPC   C4A57858  14.362  15.942   7.350
 7814POPC   C1B57859  14.121  15.985   6.450
 7814POPC   C2B57860  14.143  15.986   6.750
 7814POPC   C3B57861  14.173  16.010   7.050
 7814POPC   C4B57862  14.139  16.023   7.350
 7815POPC   NC357863  10.552   5.125   5.550
 7815POPC   PO457864  10.524   5.055   5.850
 7815POPC   GL157865  10.538   5.120   6.150
 7815POPC   GL257866  10.561   5.003   6.150
 7815POPC   C1A57867  10.553   5.123   6.450
 7815POPC   D2A57868  10.518   5.100   6.750
 7815POPC   C3A57869  10.563   5.046   7.050
 7815POPC   C4A57870  10.565   5.137   7.350
 7815POPC   C1B57871  10.554   4.897   6.450
 7815POPC   C2B57872  10.555   4.886   6.750
 7815POPC   C3B57873  10.632   4.806   7.050
 7815POPC   C4B57874  10.616   4.806   7.350
 7816POPC   NC357875  13.613  44.711   5.550
 7816POPC   PO457876  13.627  44.626   5.850
 7816POPC   GL157877  13.664  44.684   6.150
 7816POPC   GL257878  13.787  44.652   6.150
 7816POPC   C1A57879  13.668  44.711   6.450
 7816POPC   D2A57880  13.586  44.698   6.750
 7816POPC   C3A57881  13.595  44.631   7.050
 7816POPC   C4A57882  13.672  44.614   7.350
 7816POPC   C1B57883  13.920  44.695   6.450
 7816POPC   C2B57884  13.887  44.702   6.750
 7816POPC   C3B57885  13.879  44.677   7.050
 7816POPC   C4B57886  13.895  44.743   7.350
 7817POPC   NC357887  20.618  16.716   5.550
 7817POPC   PO457888  20.650  16.728   5.850
 7817POPC   GL157889  20.635  16.749   6.150
 7817POPC   GL257890  20.671  16.792   6.150
 7817POPC   C1A57891  20.564  16.768   6.450
 7817POPC   D2A57892  20.612  16.754   6.750
 7817POPC   C3A57893  20.630  16.712   7.050
 7817POPC   C4A57894  20.580  16.697   7.350
 7817POPC   C1B57895  20.749  16.914   6.450
 7817POPC   C2B57896  20.762  16.982   6.750
 7817POPC   C3B57897  20.777  16.911   7.050
 7817POPC   C4B57898  20.746  16.916   7.350
 7818POPC   NC357899  25.266  16.683   5.550
 7818POPC   PO457900  25.261  16.689   5.850
 7818POPC   GL157901  25.250  16.740   6.150
 7818POPC   GL257902  25.399  16.756   6.150
 7818POPC   C1A57903  25.266  16.719   6.450
 7818POPC   D2A57904  25.308  16.682   6.750
 7818POPC   C3A57905  25.287  16.685   7.050
 7818POPC   C4A57906  25.289  16.694   7.350
 7818POPC   C1B57907  25.516  16.719   6.450
 7818POPC   C2B57908  25.472  16.743   6.750
 7818POPC   C3B57909  25.556  16.725   7.050
 7818POPC   C4B57910  25.551  16.669   7.350
 7819POPC   NC357911  15.134  24.474   5.550
 7819POPC   PO457912  15.200  24.532   5.850
 7819POPC   GL157913  15.148  24.501   6.150
 7819POPC   GL257914  15.051  24.577   6.150
 7819POPC   C1A57915  15.162  24.502   6.450
 7819POPC   D2A57916  15.152  24.448   6.750
 7819POPC   C3A57917  15.200  24.456   7.050
 7819POPC   C4A57918  15.138  24.481   7.350
 7819POPC   C1B57919  14.933  24.593   6.450
 7819POPC   C2B57920  14.977  24.556   6.750
 7819POPC   C3B57921  14.927  24.549   7.050
 7819POPC   C4B57922  14.935  24.604   7.350
 7820POPC   NC357923   4.269  30.738   5.550
 7820POPC   PO457924   4.342  30.712   5.850
 7820POPC   GL157925   4.283  30.691   6.150
 7820POPC   GL257926   4.189  30.731   6.150
 7820POPC   C1A57927   4.287  30.716   6.450
 7820POPC   D2A57928   4.290  30.699   6.750
 7820POPC   C3A57929   4.363  30.705   7.050
 7820POPC   C4A57930   4.271  30.720   7.350
 7820POPC   C1B57931   4.107  30.711   6.450
 7820POPC   C2B57932   4.117  30.749   6.750
 7820POPC   C3B57933   4.046  30.724   7.050
 7820POPC   C4B57934   4.095  30.753   7.350
 7821POPC   NC357935  29.147   2.740   5.550
 7821POPC   PO457936  29.172   2.794   5.850
 7821POPC   GL157937  29.104   2.780   6.150
 7821POPC   GL257938  29.090   2.834   6.150
 7821POPC   C1A57939  29.175   2.725   6.450
 7821POPC   D2A57940  29.116   2.767   6.750
 7821POPC   C3A57941  29.145   2.741   7.050
 7821POPC   C4A57942  29.193   2.753   7.350
 7821POPC   C1B57943  28.921   2.903   6.450
 7821POPC   C2B57944  28.990   2.971   6.750
 7821POPC   C3B57945  28.969   2.970   7.050
 7821POPC   C4B57946  29.001   2.968   7.350
 7822POPC   NC357947  33.033   5.828   5.550
 7822POPC   PO457948  33.048   5.918   5.850
 7822POPC   GL157949  33.009   5.879   6.150
 7822POPC   GL257950  32.951   5.962   6.150
 7822POPC   C1A57951  33.002   5.842   6.450
 7822POPC   D2A57952  33.014   5.856   6.750
 7822POPC   C3A57953  32.981   5.898   7.050
 7822POPC   C4A57954  33.031   5.886   7.350
 7822POPC   C1B57955  32.954   6.052   6.450
 7822POPC   C2B57956  32.874   6.073   6.750
 7822POPC   C3B57957  32.957   6.107   7.050
 7822POPC   C4B57958  32.892   6.099   7.350
 7823POPC   NC357959   9.794  22.137   5.550
 7823POPC   PO457960   9.779  22.124   5.850
 7823POPC   GL157961   9.737  22.158   6.150
 7823POPC   GL257962   9.655  22.228   6.150
 7823POPC   C1A57963   9.747  22.150   6.450
 7823POPC   D2A57964   9.716  22.140   6.750
 7823POPC   C3A57965   9.769  22.119   7.050
 7823POPC   C4A57966   9.753  22.174   7.350
 7823POPC   C1B57967   9.569  22.355   6.450
 7823POPC   C2B57968   9.626  22.322   6.750
 7823POPC   C3B57969   9.618  22.342   7.050
 7823POPC   C4B57970   9.572  22.383   7.350
 7824POPC   NC357971  17.517  39.252   5.550
 7824POPC   PO457972  17.489  39.247   5.850
 7824POPC   GL157973  17.538  39.278   6.150
 7824POPC   GL257974  17.511  39.104   6.150
 7824POPC   C1A57975  17.546  39.244   6.450
 7824POPC   D2A57976  17.516  39.266   6.750
 7824POPC   C3A57977  17.551  39.190   7.050
 7824POPC   C4A57978  17.546  39.237   7.350
 7824POPC   C1B57979  17.584  38.972   6.450
 7824POPC   C2B57980  17.565  38.982   6.750
 7824POPC   C3B57981  17.548  39.000   7.050
 7824POPC   C4B57982  17.502  38.975   7.350
 7825POPC   NC357983  27.617   3.542   5.550
 7825POPC   PO457984  27.629   3.504   5.850
 7825POPC   GL157985  27.637   3.507   6.150
 7825POPC   GL257986  27.618   3.683   6.150
 7825POPC   C1A57987  27.612   3.542   6.450
 7825POPC   D2A57988  27.548   3.536   6.750
 7825POPC   C3A57989  27.632   3.512   7.050
 7825POPC   C4A57990  27.622   3.527   7.350
 7825POPC   C1B57991  27.583   3.826   6.450
 7825POPC   C2B57992  27.595   3.791   6.750
 7825POPC   C3B57993  27.573   3.840   7.050
 7825POPC   C4B57994  27.549   3.816   7.350
 7826POPC   NC357995  12.849  36.878   5.550
 7826POPC   PO457996  12.808  36.870   5.850
 7826POPC   GL157997  12.882  36.939   6.150
 7826POPC   GL257998  12.775  36.746   6.150
 7826POPC   C1A57999  12.842  36.928   6.450
 7826POPC   D2A58000  12.896  36.873   6.750
 7826POPC   C3A58001  12.825  36.918   7.050
 7826POPC   C4A58002  12.850  36.948   7.350
 7826POPC   C1B58003  12.764  36.635   6.450
 7826POPC   C2B58004  12.767  36.642   6.750
 7826POPC   C3B58005  12.706  36.692   7.050
 7826POPC   C4B58006  12.725  36.677   7.350
 7827POPC   NC358007   4.290   6.611   5.550
 7827POPC   PO458008   4.356   6.692   5.850
 7827POPC   GL158009   4.270   6.679   6.150
 7827POPC   GL258010   4.185   6.630   6.150
 7827POPC   C1A58011   4.318   6.669   6.450
 7827POPC   D2A58012   4.360   6.680   6.750
 7827POPC   C3A58013   4.290   6.683   7.050
 7827POPC   C4A58014   4.313   6.619   7.350
 7827POPC   C1B58015   4.070   6.513   6.450
 7827POPC   C2B58016   4.070   6.518   6.750
 7827POPC   C3B58017   4.116   6.523   7.050
 7827POPC   C4B58018   4.037   6.513   7.350
 7828POPC   NC358019  38.426  44.677   5.550
 7828POPC   PO458020  38.448  44.634   5.850
 7828POPC   GL158021  38.487  44.667   6.150
 7828POPC   GL258022  38.585  44.597   6.150
 7828POPC   C1A58023  38.490  44.669   6.450
 7828POPC   D2A58024  38.425  44.680   6.750
 7828POPC   C3A58025  38.437  44.672   7.050
 7828POPC   C4A58026  38.474  44.695   7.350
 7828POPC   C1B58027  38.674  44.463   6.450
 7828POPC   C2B58028  38.690  44.474   6.750
 7828POPC   C3B58029  38.643  44.460   7.050
 7828POPC   C4B58030  38.677  44.530   7.350
 7829POPC   NC358031   5.104  43.859   5.550
 7829POPC   PO458032   5.050  43.934   5.850
 7829POPC   GL158033   5.090  43.936   6.150
 7829POPC   GL258034   5.121  43.973   6.150
 7829POPC   C1A58035   5.047  43.854   6.450
 7829POPC   D2A58036   5.105  43.877   6.750
 7829POPC   C3A58037   5.142  43.840   7.050
 7829POPC   C4A58038   5.049  43.927   7.350
 7829POPC   C1B58039   5.198  44.083   6.450
 7829POPC   C2B58040   5.163  44.155   6.750
 7829POPC   C3B58041   5.139  44.128   7.050
 7829POPC   C4B58042   5.214  44.115   7.350
 7830POPC   NC358043   1.203  39.992   5.550
 7830POPC   PO458044   1.174  39.996   5.850
 7830POPC   GL158045   1.168  39.975   6.150
 7830POPC   GL258046   1.347  39.967   6.150
 7830POPC   C1A58047   1.185  40.000   6.450
 7830POPC   D2A58048   1.196  39.992   6.750
 7830POPC   C3A58049   1.214  39.996   7.050
 7830POPC   C4A58050   1.239  39.999   7.350
 7830POPC   C1B58051   1.447  39.911   6.450
 7830POPC   C2B58052   1.428  39.827   6.750
 7830POPC   C3B58053   1.397  39.907   7.050
 7830POPC   C4B58054   1.459  39.876   7.350
 7831POPC   NC358055   1.169  13.597   5.550
 7831POPC   PO458056   1.229  13.603   5.850
 7831POPC   GL158057   1.178  13.636   6.150
 7831POPC   GL258058   1.085  13.605   6.150
 7831POPC   C1A58059   1.188  13.641   6.450
 7831POPC   D2A58060   1.250  13.668   6.750
 7831POPC   C3A58061   1.253  13.664   7.050
 7831POPC   C4A58062   1.214  13.669   7.350
 7831POPC   C1B58063   0.928  13.677   6.450
 7831POPC   C2B58064   0.947  13.627   6.750
 7831POPC   C3B58065   0.987  13.726   7.050
 7831POPC   C4B58066   0.998  13.641   7.350
 7832POPC   NC358067  12.111  44.642   5.550
 7832POPC   PO458068  12.126  44.668   5.850
 7832POPC   GL158069  12.078  44.621   6.150
 7832POPC   GL258070  11.995  44.641   6.150
 7832POPC   C1A58071  12.071  44.679   6.450
 7832POPC   D2A58072  12.089  44.663   6.750
 7832POPC   C3A58073  12.118  44.678   7.050
 7832POPC   C4A58074  12.082  44.626   7.350
 7832POPC   C1B58075  11.834  44.539   6.450
 7832POPC   C2B58076  11.836  44.608   6.750
 7832POPC   C3B58077  11.827  44.537   7.050
 7832POPC   C4B58078  11.816  44.590   7.350
 7833POPC   NC358079  21.365  20.628   5.550
 7833POPC   PO458080  21.397  20.644   5.850
 7833POPC   GL158081  21.360  20.565   6.150
 7833POPC   GL258082  21.380  20.452   6.150
 7833POPC   C1A58083  21.398  20.641   6.450
 7833POPC   D2A58084  21.370  20.605   6.750
 7833POPC   C3A58085  21.401  20.577   7.050
 7833POPC   C4A58086  21.402  20.638   7.350
 7833POPC   C1B58087  21.365  20.391   6.450
 7833POPC   C2B58088  21.418  20.381   6.750
 7833POPC   C3B58089  21.353  20.338   7.050
 7833POPC   C4B58090  21.390  20.329   7.350
 7834POPC   NC358091  19.826  42.347   5.550
 7834POPC   PO458092  19.880  42.294   5.850
 7834POPC   GL158093  19.837  42.358   6.150
 7834POPC   GL258094  19.742  42.239   6.150
 7834POPC   C1A58095  19.870  42.327   6.450
 7834POPC   D2A58096  19.825  42.289   6.750
 7834POPC   C3A58097  19.850  42.313   7.050
 7834POPC   C4A58098  19.866  42.376   7.350
 7834POPC   C1B58099  19.680  42.185   6.450
 7834POPC   C2B58100  19.647  42.144   6.750
 7834POPC   C3B58101  19.627  42.111   7.050
 7834POPC   C4B58102  19.648  42.195   7.350
 7835POPC   NC358103  20.640  35.369   5.550
 7835POPC   PO458104  20.652  35.376   5.850
 7835POPC   GL158105  20.578  35.380   6.150
 7835POPC   GL258106  20.496  35.240   6.150
 7835POPC   C1A58107  20.566  35.390   6.450
 7835POPC   D2A58108  20.562  35.386   6.750
 7835POPC   C3A58109  20.648  35.394   7.050
 7835POPC   C4A58110  20.575  35.355   7.350
 7835POPC   C1B58111  20.424  35.180   6.450
 7835POPC   C2B58112  20.499  35.172   6.750
 7835POPC   C3B58113  20.482  35.111   7.050
 7835POPC   C4B58114  20.513  35.146   7.350
 7836POPC   NC358115   0.425  19.027   5.550
 7836POPC   PO458116   0.467  19.032   5.850
 7836POPC   GL158117   0.477  19.097   6.150
 7836POPC   GL258118   0.346  18.979   6.150
 7836POPC   C1A58119   0.469  19.100   6.450
 7836POPC   D2A58120   0.465  19.025   6.750
 7836POPC   C3A58121   0.404  19.044   7.050
 7836POPC   C4A58122   0.455  19.087   7.350
 7836POPC   C1B58123   0.250  18.934   6.450
 7836POPC   C2B58124   0.217  18.926   6.750
 7836POPC   C3B58125   0.280  18.841   7.050
 7836POPC   C4B58126   0.304  18.914   7.350
 7837POPC   NC358127  33.037  32.227   5.550
 7837POPC   PO458128  33.011  32.264   5.850
 7837POPC   GL158129  32.992  32.277   6.150
 7837POPC   GL258130  33.060  32.168   6.150
 7837POPC   C1A58131  33.069  32.224   6.450
 7837POPC   D2A58132  33.019  32.238   6.750
 7837POPC   C3A58133  33.009  32.247   7.050
 7837POPC   C4A58134  33.018  32.295   7.350
 7837POPC   C1B58135  33.032  31.969   6.450
 7837POPC   C2B58136  33.084  32.028   6.750
 7837POPC   C3B58137  33.025  32.043   7.050
 7837POPC   C4B58138  33.026  32.009   7.350
 7838POPC   NC358139  10.541  31.450   5.550
 7838POPC   PO458140  10.511  31.499   5.850
 7838POPC   GL158141  10.541  31.471   6.150
 7838POPC   GL258142  10.537  31.566   6.150
 7838POPC   C1A58143  10.553  31.440   6.450
 7838POPC   D2A58144  10.570  31.445   6.750
 7838POPC   C3A58145  10.527  31.433   7.050
 7838POPC   C4A58146  10.554  31.458   7.350
 7838POPC   C1B58147  10.611  31.652   6.450
 7838POPC   C2B58148  10.611  31.744   6.750
 7838POPC   C3B58149  10.640  31.707   7.050
 7838POPC   C4B58150  10.623  31.702   7.350
 7839POPC   NC358151  26.032  15.149   5.550
 7839POPC   PO458152  26.072  15.136   5.850
 7839POPC   GL158153  26.081  15.200   6.150
 7839POPC   GL258154  25.965  15.063   6.150
 7839POPC   C1A58155  26.039  15.160   6.450
 7839POPC   D2A58156  26.090  15.137   6.750
 7839POPC   C3A58157  26.045  15.212   7.050
 7839POPC   C4A58158  26.085  15.221   7.350
 7839POPC   C1B58159  25.851  15.046   6.450
 7839POPC   C2B58160  25.823  15.056   6.750
 7839POPC   C3B58161  25.812  15.013   7.050
 7839POPC   C4B58162  25.891  15.000   7.350
 7840POPC   NC358163   0.421  28.393   5.550
 7840POPC   PO458164   0.396  28.320   5.850
 7840POPC   GL158165   0.452  28.385   6.150
 7840POPC   GL258166   0.334  28.323   6.150
 7840POPC   C1A58167   0.419  28.346   6.450
 7840POPC   D2A58168   0.447  28.414   6.750
 7840POPC   C3A58169   0.456  28.335   7.050
 7840POPC   C4A58170   0.423  28.345   7.350
 7840POPC   C1B58171   0.198  28.253   6.450
 7840POPC   C2B58172   0.256  28.301   6.750
 7840POPC   C3B58173   0.195  28.269   7.050
 7840POPC   C4B58174   0.175  28.217   7.350
 7841POPC   NC358175  26.799   4.298   5.550
 7841POPC   PO458176  26.801   4.282   5.850
 7841POPC   GL158177  26.848   4.291   6.150
 7841POPC   GL258178  26.912   4.341   6.150
 7841POPC   C1A58179  26.803   4.323   6.450
 7841POPC   D2A58180  26.796   4.361   6.750
 7841POPC   C3A58181  26.783   4.299   7.050
 7841POPC   C4A58182  26.799   4.347   7.350
 7841POPC   C1B58183  27.109   4.374   6.450
 7841POPC   C2B58184  27.106   4.384   6.750
 7841POPC   C3B58185  27.067   4.412   7.050
 7841POPC   C4B58186  27.076   4.341   7.350
 7842POPC   NC358187  14.415  29.945   5.550
 7842POPC   PO458188  14.445  29.926   5.850
 7842POPC   GL158189  14.452  29.941   6.150
 7842POPC   GL258190  14.276  29.950   6.150
 7842POPC   C1A58191  14.399  29.942   6.450
 7842POPC   D2A58192  14.372  29.881   6.750
 7842POPC   C3A58193  14.451  29.899   7.050
 7842POPC   C4A58194  14.394  29.902   7.350
 7842POPC   C1B58195  14.125  29.926   6.450
 7842POPC   C2B58196  14.164  29.914   6.750
 7842POPC   C3B58197  14.128  29.904   7.050
 7842POPC   C4B58198  14.180  29.872   7.350
 7843POPC   NC358199  32.243  36.861   5.550
 7843POPC   PO458200  32.261  36.919   5.850
 7843POPC   GL158201  32.258  36.947   6.150
 7843POPC   GL258202  32.293  37.032   6.150
 7843POPC   C1A58203  32.273  36.864   6.450
 7843POPC   D2A58204  32.286  36.906   6.750
 7843POPC   C3A58205  32.210  36.869   7.050
 7843POPC   C4A58206  32.223  36.904   7.350
 7843POPC   C1B58207  32.406  37.047   6.450
 7843POPC   C2B58208  32.465  37.059   6.750
 7843POPC   C3B58209  32.412  37.088   7.050
 7843POPC   C4B58210  32.462  37.128   7.350
 7844POPC   NC358211  12.051   5.859   5.550
 7844POPC   PO458212  12.082   5.863   5.850
 7844POPC   GL158213  12.105   5.886   6.150
 7844POPC   GL258214  11.926   5.863   6.150
 7844POPC   C1A58215  12.103   5.899   6.450
 7844POPC   D2A58216  12.118   5.846   6.750
 7844POPC   C3A58217  12.101   5.885   7.050
 7844POPC   C4A58218  12.043   5.853   7.350
 7844POPC   C1B58219  11.889   5.787   6.450
 7844POPC   C2B58220  11.812   5.751   6.750
 7844POPC   C3B58221  11.804   5.764   7.050
 7844POPC   C4B58222  11.878   5.789   7.350
 7845POPC   NC358223  34.565   0.483   5.550
 7845POPC   PO458224  34.539   0.453   5.850
 7845POPC   GL158225  34.530   0.485   6.150
 7845POPC   GL258226  34.720   0.425   6.150
 7845POPC   C1A58227  34.623   0.426   6.450
 7845POPC   D2A58228  34.565   0.483   6.750
 7845POPC   C3A58229  34.618   0.487   7.050
 7845POPC   C4A58230  34.575   0.427   7.350
 7845POPC   C1B58231  34.791   0.440   6.450
 7845POPC   C2B58232  34.781   0.492   6.750
 7845POPC   C3B58233  34.814   0.412   7.050
 7845POPC   C4B58234  34.784   0.467   7.350
 7846POPC   NC358235  24.521  36.150   5.550
 7846POPC   PO458236  24.539  36.128   5.850
 7846POPC   GL158237  24.488  36.115   6.150
 7846POPC   GL258238  24.389  36.241   6.150
 7846POPC   C1A58239  24.457  36.148   6.450
 7846POPC   D2A58240  24.447  36.124   6.750
 7846POPC   C3A58241  24.447  36.126   7.050
 7846POPC   C4A58242  24.453  36.119   7.350
 7846POPC   C1B58243  24.248  36.307   6.450
 7846POPC   C2B58244  24.256  36.256   6.750
 7846POPC   C3B58245  24.323  36.314   7.050
 7846POPC   C4B58246  24.309  36.325   7.350
 7847POPC   NC358247   2.791   4.293   5.550
 7847POPC   PO458248   2.723   4.342   5.850
 7847POPC   GL158249   2.757   4.341   6.150
 7847POPC   GL258250   2.722   4.387   6.150
 7847POPC   C1A58251   2.744   4.356   6.450
 7847POPC   D2A58252   2.768   4.300   6.750
 7847POPC   C3A58253   2.804   4.356   7.050
 7847POPC   C4A58254   2.810   4.289   7.350
 7847POPC   C1B58255   2.558   4.468   6.450
 7847POPC   C2B58256   2.552   4.496   6.750
 7847POPC   C3B58257   2.640   4.467   7.050
 7847POPC   C4B58258   2.613   4.513   7.350
 7848POPC   NC358259   1.972  17.545   5.550
 7848POPC   PO458260   1.981  17.502   5.850
 7848POPC   GL158261   2.038  17.480   6.150
 7848POPC   GL258262   2.142  17.471   6.150
 7848POPC   C1A58263   2.019  17.541   6.450
 7848POPC   D2A58264   2.006  17.469   6.750
 7848POPC   C3A58265   1.955  17.474   7.050
 7848POPC   C4A58266   2.023  17.506   7.350
 7848POPC   C1B58267   2.170  17.346   6.450
 7848POPC   C2B58268   2.237  17.331   6.750
 7848POPC   C3B58269   2.176  17.321   7.050
 7848POPC   C4B58270   2.247  17.400   7.350
 7849POPC   NC358271  19.052  26.853   5.550
 7849POPC   PO458272  19.075  26.798   5.850
 7849POPC   GL158273  19.061  26.864   6.150
 7849POPC   GL258274  18.971  26.724   6.150
 7849POPC   C1A58275  19.105  26.809   6.450
 7849POPC   D2A58276  19.064  26.854   6.750
 7849POPC   C3A58277  19.018  26.864   7.050
 7849POPC   C4A58278  19.055  26.814   7.350
 7849POPC   C1B58279  18.894  26.669   6.450
 7849POPC   C2B58280  18.826  26.663   6.750
 7849POPC   C3B58281  18.815  26.633   7.050
 7849POPC   C4B58282  18.854  26.696   7.350
 7850POPC   NC358283  38.474   8.235   5.550
 7850POPC   PO458284  38.498   8.153   5.850
 7850POPC   GL158285  38.462   8.215   6.150
 7850POPC   GL258286  38.540   8.270   6.150
 7850POPC   C1A58287  38.485   8.200   6.450
 7850POPC   D2A58288  38.466   8.161   6.750
 7850POPC   C3A58289  38.434   8.222   7.050
 7850POPC   C4A58290  38.429   8.223   7.350
 7850POPC   C1B58291  38.581   8.394   6.450
 7850POPC   C2B58292  38.645   8.405   6.750
 7850POPC   C3B58293  38.593   8.335   7.050
 7850POPC   C4B58294  38.595   8.363   7.350
 7851POPC   NC358295  29.168  34.562   5.550
 7851POPC   PO458296  29.165  34.620   5.850
 7851POPC   GL158297  29.157  34.603   6.150
 7851POPC   GL258298  29.217  34.480   6.150
 7851POPC   C1A58299  29.095  34.585   6.450
 7851POPC   D2A58300  29.137  34.549   6.750
 7851POPC   C3A58301  29.105  34.614   7.050
 7851POPC   C4A58302  29.110  34.542   7.350
 7851POPC   C1B58303  29.175  34.376   6.450
 7851POPC   C2B58304  29.254  34.333   6.750
 7851POPC   C3B58305  29.202  34.358   7.050
 7851POPC   C4B58306  29.238  34.325   7.350
 7852POPC   NC358307  11.302  27.631   5.550
 7852POPC   PO458308  11.332  27.637   5.850
 7852POPC   GL158309  11.264  27.597   6.150
 7852POPC   GL258310  11.161  27.688   6.150
 7852POPC   C1A58311  11.342  27.638   6.450
 7852POPC   D2A58312  11.252  27.566   6.750
 7852POPC   C3A58313  11.338  27.627   7.050
 7852POPC   C4A58314  11.310  27.611   7.350
 7852POPC   C1B58315  11.071  27.751   6.450
 7852POPC   C2B58316  11.122  27.746   6.750
 7852POPC   C3B58317  11.125  27.797   7.050
 7852POPC   C4B58318  11.109  27.753   7.350
 7853POPC   NC358319  34.615  19.826   5.550
 7853POPC   PO458320  34.576  19.851   5.850
 7853POPC   GL158321  34.585  19.862   6.150
 7853POPC   GL258322  34.433  19.813   6.150
 7853POPC   C1A58323  34.565  19.828   6.450
 7853POPC   D2A58324  34.562  19.880   6.750
 7853POPC   C3A58325  34.593  19.799   7.050
 7853POPC   C4A58326  34.561  19.827   7.350
 7853POPC   C1B58327  34.363  19.820   6.450
 7853POPC   C2B58328  34.330  19.861   6.750
 7853POPC   C3B58329  34.375  19.851   7.050
 7853POPC   C4B58330  34.359  19.882   7.350
 7854POPC   NC358331   6.682  39.231   5.550
 7854POPC   PO458332   6.682  39.196   5.850
 7854POPC   GL158333   6.609  39.253   6.150
 7854POPC   GL258334   6.545  39.232   6.150
 7854POPC   C1A58335   6.626  39.224   6.450
 7854POPC   D2A58336   6.672  39.195   6.750
 7854POPC   C3A58337   6.626  39.229   7.050
 7854POPC   C4A58338   6.669  39.261   7.350
 7854POPC   C1B58339   6.428  39.251   6.450
 7854POPC   C2B58340   6.433  39.322   6.750
 7854POPC   C3B58341   6.442  39.313   7.050
 7854POPC   C4B58342   6.421  39.253   7.350
 7855POPC   NC358343  26.833  37.680   5.550
 7855POPC   PO458344  26.768  37.696   5.850
 7855POPC   GL158345  26.858  37.651   6.150
 7855POPC   GL258346  26.762  37.635   6.150
 7855POPC   C1A58347  26.861  37.661   6.450
 7855POPC   D2A58348  26.767  37.680   6.750
 7855POPC   C3A58349  26.768  37.677   7.050
 7855POPC   C4A58350  26.790  37.701   7.350
 7855POPC   C1B58351  26.684  37.474   6.450
 7855POPC   C2B58352  26.605  37.526   6.750
 7855POPC   C3B58353  26.669  37.542   7.050
 7855POPC   C4B58354  26.618  37.549   7.350
 7856POPC   NC358355   8.162  19.825   5.550
 7856POPC   PO458356   8.217  19.828   5.850
 7856POPC   GL158357   8.171  19.881   6.150
 7856POPC   GL258358   8.124  19.900   6.150
 7856POPC   C1A58359   8.155  19.852   6.450
 7856POPC   D2A58360   8.178  19.804   6.750
 7856POPC   C3A58361   8.239  19.790   7.050
 7856POPC   C4A58362   8.218  19.810   7.350
 7856POPC   C1B58363   8.022  19.951   6.450
 7856POPC   C2B58364   7.961  19.920   6.750
 7856POPC   C3B58365   7.962  19.950   7.050
 7856POPC   C4B58366   7.987  19.946   7.350
 7857POPC   NC358367   3.533  32.229   5.550
 7857POPC   PO458368   3.576  32.254   5.850
 7857POPC   GL158369   3.563  32.272   6.150
 7857POPC   GL258370   3.563  32.118   6.150
 7857POPC   C1A58371   3.572  32.291   6.450
 7857POPC   D2A58372   3.568  32.280   6.750
 7857POPC   C3A58373   3.499  32.211   7.050
 7857POPC   C4A58374   3.495  32.288   7.350
 7857POPC   C1B58375   3.605  32.052   6.450
 7857POPC   C2B58376   3.677  31.980   6.750
 7857POPC   C3B58377   3.668  31.983   7.050
 7857POPC   C4B58378   3.621  32.047   7.350
 7858POPC   NC358379   1.990  12.891   5.550
 7858POPC   PO458380   1.972  12.875   5.850
 7858POPC   GL158381   2.007  12.856   6.150
 7858POPC   GL258382   1.974  12.955   6.150
 7858POPC   C1A58383   2.006  12.871   6.450
 7858POPC   D2A58384   2.033  12.837   6.750
 7858POPC   C3A58385   1.963  12.855   7.050
 7858POPC   C4A58386   1.964  12.843   7.350
 7858POPC   C1B58387   1.874  13.102   6.450
 7858POPC   C2B58388   1.853  13.029   6.750
 7858POPC   C3B58389   1.859  13.055   7.050
 7858POPC   C4B58390   1.872  13.111   7.350
 7859POPC   NC358391  40.006  42.288   5.550
 7859POPC   PO458392  39.958  42.315   5.850
 7859POPC   GL158393  40.038  42.343   6.150
 7859POPC   GL258394  39.932  42.250   6.150
 7859POPC   C1A58395  40.041  42.371   6.450
 7859POPC   D2A58396  39.976  42.320   6.750
 7859POPC   C3A58397  39.980  42.352   7.050
 7859POPC   C4A58398  39.959  42.364   7.350
 7859POPC   C1B58399  39.947  42.093   6.450
 7859POPC   C2B58400  39.944  42.073   6.750
 7859POPC   C3B58401  39.934  42.047   7.050
 7859POPC   C4B58402  39.988  42.130   7.350
 7860POPC   NC358403  12.860  15.908   5.550
 7860POPC   PO458404  12.845  15.915   5.850
 7860POPC   GL158405  12.881  15.975   6.150
 7860POPC   GL258406  12.934  16.033   6.150
 7860POPC   C1A58407  12.823  15.996   6.450
 7860POPC   D2A58408  12.833  15.922   6.750
 7860POPC   C3A58409  12.837  15.909   7.050
 7860POPC   C4A58410  12.878  15.946   7.350
 7860POPC   C1B58411  13.087  16.078   6.450
 7860POPC   C2B58412  13.053  16.006   6.750
 7860POPC   C3B58413  13.041  15.999   7.050
 7860POPC   C4B58414  13.106  16.027   7.350
 7861POPC   NC358415   8.174  34.533   5.550
 7861POPC   PO458416   8.232  34.578   5.850
 7861POPC   GL158417   8.211  34.608   6.150
 7861POPC   GL258418   8.116  34.658   6.150
 7861POPC   C1A58419   8.186  34.624   6.450
 7861POPC   D2A58420   8.170  34.619   6.750
 7861POPC   C3A58421   8.220  34.578   7.050
 7861POPC   C4A58422   8.168  34.609   7.350
 7861POPC   C1B58423   7.991  34.723   6.450
 7861POPC   C2B58424   7.949  34.677   6.750
 7861POPC   C3B58425   7.960  34.678   7.050
 7861POPC   C4B58426   7.954  34.685   7.350
 7862POPC   NC358427  39.280  15.948   5.550
 7862POPC   PO458428  39.253  15.917   5.850
 7862POPC   GL158429  39.246  15.932   6.150
 7862POPC   GL258430  39.362  15.911   6.150
 7862POPC   C1A58431  39.215  16.001   6.450
 7862POPC   D2A58432  39.254  15.946   6.750
 7862POPC   C3A58433  39.267  15.968   7.050
 7862POPC   C4A58434  39.206  15.924   7.350
 7862POPC   C1B58435  39.493  15.913   6.450
 7862POPC   C2B58436  39.451  15.904   6.750
 7862POPC   C3B58437  39.494  15.917   7.050
 7862POPC   C4B58438  39.482  15.953   7.350
 7863POPC   NC358439  31.478  13.602   5.550
 7863POPC   PO458440  31.434  13.677   5.850
 7863POPC   GL158441  31.515  13.674   6.150
 7863POPC   GL258442  31.304  13.621   6.150
 7863POPC   C1A58443  31.520  13.654   6.450
 7863POPC   D2A58444  31.512  13.659   6.750
 7863POPC   C3A58445  31.470  13.619   7.050
 7863POPC   C4A58446  31.489  13.642   7.350
 7863POPC   C1B58447  31.199  13.577   6.450
 7863POPC   C2B58448  31.247  13.563   6.750
 7863POPC   C3B58449  31.260  13.595   7.050
 7863POPC   C4B58450  31.228  13.535   7.350
 7864POPC   NC358451  29.904  40.810   5.550
 7864POPC   PO458452  29.927  40.817   5.850
 7864POPC   GL158453  29.909  40.782   6.150
 7864POPC   GL258454  29.812  40.736   6.150
 7864POPC   C1A58455  29.956  40.807   6.450
 7864POPC   D2A58456  29.932  40.798   6.750
 7864POPC   C3A58457  29.952  40.823   7.050
 7864POPC   C4A58458  29.952  40.750   7.350
 7864POPC   C1B58459  29.717  40.654   6.450
 7864POPC   C2B58460  29.669  40.699   6.750
 7864POPC   C3B58461  29.666  40.672   7.050
 7864POPC   C4B58462  29.734  40.669   7.350
 7865POPC   NC358463  38.484   6.635   5.550
 7865POPC   PO458464  38.500   6.652   5.850
 7865POPC   GL158465  38.496   6.646   6.150
 7865POPC   GL258466  38.551   6.644   6.150
 7865POPC   C1A58467  38.500   6.607   6.450
 7865POPC   D2A58468  38.453   6.627   6.750
 7865POPC   C3A58469  38.414   6.675   7.050
 7865POPC   C4A58470  38.473   6.609   7.350
 7865POPC   C1B58471  38.723   6.642   6.450
 7865POPC   C2B58472  38.719   6.674   6.750
 7865POPC   C3B58473  38.714   6.702   7.050
 7865POPC   C4B58474  38.680   6.714   7.350
 7866POPC   NC358475  28.348   5.052   5.550
 7866POPC   PO458476  28.396   5.069   5.850
 7866POPC   GL158477  28.328   5.045   6.150
 7866POPC   GL258478  28.372   5.243   6.150
 7866POPC   C1A58479  28.360   5.051   6.450
 7866POPC   D2A58480  28.385   5.091   6.750
 7866POPC   C3A58481  28.339   5.108   7.050
 7866POPC   C4A58482  28.380   5.054   7.350
 7866POPC   C1B58483  28.271   5.299   6.450
 7866POPC   C2B58484  28.247   5.344   6.750
 7866POPC   C3B58485  28.237   5.341   7.050
 7866POPC   C4B58486  28.263   5.357   7.350
 7867POPC   NC358487  11.252  40.830   5.550
 7867POPC   PO458488  11.262  40.735   5.850
 7867POPC   GL158489  11.317  40.741   6.150
 7867POPC   GL258490  11.220  40.774   6.150
 7867POPC   C1A58491  11.331  40.768   6.450
 7867POPC   D2A58492  11.254  40.774   6.750
 7867POPC   C3A58493  11.346  40.772   7.050
 7867POPC   C4A58494  11.324  40.785   7.350
 7867POPC   C1B58495  11.054  40.729   6.450
 7867POPC   C2B58496  11.067  40.675   6.750
 7867POPC   C3B58497  11.099  40.654   7.050
 7867POPC   C4B58498  11.039  40.652   7.350
 7868POPC   NC358499  26.825  13.612   5.550
 7868POPC   PO458500  26.797  13.611   5.850
 7868POPC   GL158501  26.790  13.631   6.150
 7868POPC   GL258502  26.955  13.685   6.150
 7868POPC   C1A58503  26.795  13.658   6.450
 7868POPC   D2A58504  26.826  13.623   6.750
 7868POPC   C3A58505  26.854  13.649   7.050
 7868POPC   C4A58506  26.844  13.661   7.350
 7868POPC   C1B58507  27.047  13.761   6.450
 7868POPC   C2B58508  27.068  13.712   6.750
 7868POPC   C3B58509  27.071  13.730   7.050
 7868POPC   C4B58510  27.022  13.741   7.350
 7869POPC   NC358511   8.203   3.539   5.550
 7869POPC   PO458512   8.239   3.564   5.850
 7869POPC   GL158513   8.156   3.579   6.150
 7869POPC   GL258514   8.061   3.573   6.150
 7869POPC   C1A58515   8.153   3.538   6.450
 7869POPC   D2A58516   8.217   3.537   6.750
 7869POPC   C3A58517   8.227   3.498   7.050
 7869POPC   C4A58518   8.149   3.582   7.350
 7869POPC   C1B58519   7.934   3.694   6.450
 7869POPC   C2B58520   8.011   3.619   6.750
 7869POPC   C3B58521   7.946   3.697   7.050
 7869POPC   C4B58522   8.011   3.615   7.350
 7870POPC   NC358523  40.005  12.122   5.550
 7870POPC   PO458524  40.005  12.121   5.850
 7870POPC   GL158525  40.007  12.093   6.150
 7870POPC   GL258526  40.080  11.960   6.150
 7870POPC   C1A58527  39.965  12.040   6.450
 7870POPC   D2A58528  39.972  12.035   6.750
 7870POPC   C3A58529  40.022  12.068   7.050
 7870POPC   C4A58530  40.008  12.076   7.350
 7870POPC   C1B58531  40.198  11.925   6.450
 7870POPC   C2B58532  40.203  11.888   6.750
 7870POPC   C3B58533  40.224  11.887   7.050
 7870POPC   C4B58534  40.182  11.975   7.350
 7871POPC   NC358535  10.517  43.862   5.550
 7871POPC   PO458536  10.531  43.896   5.850
 7871POPC   GL158537  10.495  43.854   6.150
 7871POPC   GL258538  10.687  43.940   6.150
 7871POPC   C1A58539  10.562  43.851   6.450
 7871POPC   D2A58540  10.476  43.910   6.750
 7871POPC   C3A58541  10.558  43.902   7.050
 7871POPC   C4A58542  10.481  43.921   7.350
 7871POPC   C1B58543  10.758  43.988   6.450
 7871POPC   C2B58544  10.773  43.961   6.750
 7871POPC   C3B58545  10.791  43.982   7.050
 7871POPC   C4B58546  10.747  43.999   7.350
 7872POPC   NC358547  23.707  16.769   5.550
 7872POPC   PO458548  23.668  16.696   5.850
 7872POPC   GL158549  23.727  16.751   6.150
 7872POPC   GL258550  23.642  16.846   6.150
 7872POPC   C1A58551  23.761  16.774   6.450
 7872POPC   D2A58552  23.750  16.686   6.750
 7872POPC   C3A58553  23.715  16.750   7.050
 7872POPC   C4A58554  23.728  16.738   7.350
 7872POPC   C1B58555  23.634  16.933   6.450
 7872POPC   C2B58556  23.566  16.945   6.750
 7872POPC   C3B58557  23.628  16.920   7.050
 7872POPC   C4B58558  23.649  16.984   7.350
 7873POPC   NC358559   8.239  25.254   5.550
 7873POPC   PO458560   8.237  25.288   5.850
 7873POPC   GL158561   8.190  25.263   6.150
 7873POPC   GL258562   8.270  25.185   6.150
 7873POPC   C1A58563   8.156  25.295   6.450
 7873POPC   D2A58564   8.153  25.292   6.750
 7873POPC   C3A58565   8.200  25.241   7.050
 7873POPC   C4A58566   8.178  25.233   7.350
 7873POPC   C1B58567   8.440  25.148   6.450
 7873POPC   C2B58568   8.416  25.161   6.750
 7873POPC   C3B58569   8.384  25.097   7.050
 7873POPC   C4B58570   8.357  25.095   7.350
 7874POPC   NC358571  16.705  11.285   5.550
 7874POPC   PO458572  16.747  11.284   5.850
 7874POPC   GL158573  16.687  11.258   6.150
 7874POPC   GL258574  16.813  11.370   6.150
 7874POPC   C1A58575  16.695  11.323   6.450
 7874POPC   D2A58576  16.750  11.274   6.750
 7874POPC   C3A58577  16.727  11.251   7.050
 7874POPC   C4A58578  16.759  11.260   7.350
 7874POPC   C1B58579  16.929  11.439   6.450
 7874POPC   C2B58580  16.908  11.485   6.750
 7874POPC   C3B58581  16.964  11.422   7.050
 7874POPC   C4B58582  16.961  11.431   7.350
 7875POPC   NC358583  11.284  36.106   5.550
 7875POPC   PO458584  11.264  36.093   5.850
 7875POPC   GL158585  11.332  36.132   6.150
 7875POPC   GL258586  11.389  36.036   6.150
 7875POPC   C1A58587  11.260  36.103   6.450
 7875POPC   D2A58588  11.315  36.160   6.750
 7875POPC   C3A58589  11.297  36.079   7.050
 7875POPC   C4A58590  11.319  36.116   7.350
 7875POPC   C1B58591  11.514  36.040   6.450
 7875POPC   C2B58592  11.528  36.045   6.750
 7875POPC   C3B58593  11.477  36.016   7.050
 7875POPC   C4B58594  11.569  36.039   7.350
 7876POPC   NC358595  25.258  11.283   5.550
 7876POPC   PO458596  25.293  11.341   5.850
 7876POPC   GL158597  25.255  11.291   6.150
 7876POPC   GL258598  25.138  11.333   6.150
 7876POPC   C1A58599  25.284  11.296   6.450
 7876POPC   D2A58600  25.310  11.288   6.750
 7876POPC   C3A58601  25.286  11.321   7.050
 7876POPC   C4A58602  25.233  11.327   7.350
 7876POPC   C1B58603  25.014  11.295   6.450
 7876POPC   C2B58604  25.010  11.290   6.750
 7876POPC   C3B58605  25.061  11.313   7.050
 7876POPC   C4B58606  25.022  11.341   7.350
 7877POPC   NC358607  13.650  41.592   5.550
 7877POPC   PO458608  13.661  41.559   5.850
 7877POPC   GL158609  13.657  41.597   6.150
 7877POPC   GL258610  13.731  41.613   6.150
 7877POPC   C1A58611  13.643  41.517   6.450
 7877POPC   D2A58612  13.637  41.566   6.750
 7877POPC   C3A58613  13.595  41.577   7.050
 7877POPC   C4A58614  13.642  41.544   7.350
 7877POPC   C1B58615  13.882  41.570   6.450
 7877POPC   C2B58616  13.828  41.584   6.750
 7877POPC   C3B58617  13.850  41.533   7.050
 7877POPC   C4B58618  13.828  41.541   7.350
 7878POPC   NC358619  43.134  42.359   5.550
 7878POPC   PO458620  43.061  42.345   5.850
 7878POPC   GL158621  43.122  42.355   6.150
 7878POPC   GL258622  43.132  42.181   6.150
 7878POPC   C1A58623  43.133  42.318   6.450
 7878POPC   D2A58624  43.160  42.328   6.750
 7878POPC   C3A58625  43.073  42.312   7.050
 7878POPC   C4A58626  43.135  42.340   7.350
 7878POPC   C1B58627  43.102  42.106   6.450
 7878POPC   C2B58628  43.114  42.120   6.750
 7878POPC   C3B58629  43.058  42.103   7.050
 7878POPC   C4B58630  43.107  42.090   7.350
 7879POPC   NC358631   4.363   1.230   5.550
 7879POPC   PO458632   4.304   1.165   5.850
 7879POPC   GL158633   4.337   1.181   6.150
 7879POPC   GL258634   4.230   1.187   6.150
 7879POPC   C1A58635   4.297   1.200   6.450
 7879POPC   D2A58636   4.271   1.240   6.750
 7879POPC   C3A58637   4.362   1.188   7.050
 7879POPC   C4A58638   4.326   1.226   7.350
 7879POPC   C1B58639   4.097   1.069   6.450
 7879POPC   C2B58640   4.092   1.093   6.750
 7879POPC   C3B58641   4.118   1.102   7.050
 7879POPC   C4B58642   4.097   1.082   7.350
 7880POPC   NC358643  11.337   0.481   5.550
 7880POPC   PO458644  11.309   0.399   5.850
 7880POPC   GL158645  11.323   0.439   6.150
 7880POPC   GL258646  11.305   0.586   6.150
 7880POPC   C1A58647  11.276   0.429   6.450
 7880POPC   D2A58648  11.337   0.470   6.750
 7880POPC   C3A58649  11.316   0.463   7.050
 7880POPC   C4A58650  11.349   0.447   7.350
 7880POPC   C1B58651  11.325   0.730   6.450
 7880POPC   C2B58652  11.270   0.678   6.750
 7880POPC   C3B58653  11.326   0.642   7.050
 7880POPC   C4B58654  11.323   0.668   7.350
 7881POPC   NC358655  40.032  21.415   5.550
 7881POPC   PO458656  40.049  21.391   5.850
 7881POPC   GL158657  40.016  21.345   6.150
 7881POPC   GL258658  39.966  21.497   6.150
 7881POPC   C1A58659  40.000  21.371   6.450
 7881POPC   D2A58660  39.960  21.418   6.750
 7881POPC   C3A58661  40.050  21.414   7.050
 7881POPC   C4A58662  40.007  21.373   7.350
 7881POPC   C1B58663  39.968  21.584   6.450
 7881POPC   C2B58664  39.928  21.636   6.750
 7881POPC   C3B58665  39.922  21.634   7.050
 7881POPC   C4B58666  39.910  21.599   7.350
 7882POPC   NC358667  15.187  19.881   5.550
 7882POPC   PO458668  15.132  19.813   5.850
 7882POPC   GL158669  15.143  19.789   6.150
 7882POPC   GL258670  15.169  19.928   6.150
 7882POPC   C1A58671  15.198  19.881   6.450
 7882POPC   D2A58672  15.161  19.789   6.750
 7882POPC   C3A58673  15.144  19.812   7.050
 7882POPC   C4A58674  15.135  19.797   7.350
 7882POPC   C1B58675  15.257  20.050   6.450
 7882POPC   C2B58676  15.241  20.040   6.750
 7882POPC   C3B58677  15.270  20.068   7.050
 7882POPC   C4B58678  15.233  20.044   7.350
 7883POPC   NC358679  38.456  19.877   5.550
 7883POPC   PO458680  38.495  19.847   5.850
 7883POPC   GL158681  38.430  19.834   6.150
 7883POPC   GL258682  38.402  19.691   6.150
 7883POPC   C1A58683  38.412  19.881   6.450
 7883POPC   D2A58684  38.455  19.838   6.750
 7883POPC   C3A58685  38.497  19.869   7.050
 7883POPC   C4A58686  38.496  19.810   7.350
 7883POPC   C1B58687  38.250  19.650   6.450
 7883POPC   C2B58688  38.250  19.674   6.750
 7883POPC   C3B58689  38.331  19.677   7.050
 7883POPC   C4B58690  38.340  19.689   7.350
 7884POPC   NC358691   6.615  42.352   5.550
 7884POPC   PO458692   6.597  42.290   5.850
 7884POPC   GL158693   6.666  42.358   6.150
 7884POPC   GL258694   6.577  42.451   6.150
 7884POPC   C1A58695   6.605  42.328   6.450
 7884POPC   D2A58696   6.667  42.363   6.750
 7884POPC   C3A58697   6.683  42.341   7.050
 7884POPC   C4A58698   6.639  42.368   7.350
 7884POPC   C1B58699   6.406  42.523   6.450
 7884POPC   C2B58700   6.413  42.525   6.750
 7884POPC   C3B58701   6.481  42.494   7.050
 7884POPC   C4B58702   6.423  42.480   7.350
 7885POPC   NC358703  37.671  14.423   5.550
 7885POPC   PO458704  37.729  14.412   5.850
 7885POPC   GL158705  37.660  14.374   6.150
 7885POPC   GL258706  37.624  14.548   6.150
 7885POPC   C1A58707  37.686  14.453   6.450
 7885POPC   D2A58708  37.642  14.413   6.750
 7885POPC   C3A58709  37.719  14.361   7.050
 7885POPC   C4A58710  37.694  14.444   7.350
 7885POPC   C1B58711  37.604  14.668   6.450
 7885POPC   C2B58712  37.565  14.657   6.750
 7885POPC   C3B58713  37.532  14.604   7.050
 7885POPC   C4B58714  37.605  14.583   7.350
 7886POPC   NC358715   9.000  35.381   5.550
 7886POPC   PO458716   8.932  35.385   5.850
 7886POPC   GL158717   8.964  35.325   6.150
 7886POPC   GL258718   8.877  35.390   6.150
 7886POPC   C1A58719   8.926  35.389   6.450
 7886POPC   D2A58720   8.958  35.343   6.750
 7886POPC   C3A58721   8.978  35.336   7.050
 7886POPC   C4A58722   9.004  35.309   7.350
 7886POPC   C1B58723   8.734  35.366   6.450
 7886POPC   C2B58724   8.718  35.330   6.750
 7886POPC   C3B58725   8.753  35.284   7.050
 7886POPC   C4B58726   8.712  35.354   7.350
 7887POPC   NC358727  32.269  10.531   5.550
 7887POPC   PO458728  32.198  10.563   5.850
 7887POPC   GL158729  32.236  10.530   6.150
 7887POPC   GL258730  32.318  10.369   6.150
 7887POPC   C1A58731  32.199  10.502   6.450
 7887POPC   D2A58732  32.289  10.511   6.750
 7887POPC   C3A58733  32.278  10.527   7.050
 7887POPC   C4A58734  32.266  10.494   7.350
 7887POPC   C1B58735  32.284  10.334   6.450
 7887POPC   C2B58736  32.298  10.328   6.750
 7887POPC   C3B58737  32.296  10.315   7.050
 7887POPC   C4B58738  32.371  10.289   7.350
 7888POPC   NC358739  31.458  12.848   5.550
 7888POPC   PO458740  31.512  12.830   5.850
 7888POPC   GL158741  31.441  12.869   6.150
 7888POPC   GL258742  31.322  12.817   6.150
 7888POPC   C1A58743  31.449  12.825   6.450
 7888POPC   D2A58744  31.458  12.861   6.750
 7888POPC   C3A58745  31.452  12.849   7.050
 7888POPC   C4A58746  31.522  12.847   7.350
 7888POPC   C1B58747  31.260  12.895   6.450
 7888POPC   C2B58748  31.208  12.821   6.750
 7888POPC   C3B58749  31.217  12.908   7.050
 7888POPC   C4B58750  31.193  12.867   7.350
 7889POPC   NC358751  33.751  15.217   5.550
 7889POPC   PO458752  33.772  15.183   5.850
 7889POPC   GL158753  33.838  15.170   6.150
 7889POPC   GL258754  33.750  15.011   6.150
 7889POPC   C1A58755  33.813  15.153   6.450
 7889POPC   D2A58756  33.843  15.193   6.750
 7889POPC   C3A58757  33.781  15.223   7.050
 7889POPC   C4A58758  33.755  15.196   7.350
 7889POPC   C1B58759  33.777  14.901   6.450
 7889POPC   C2B58760  33.779  14.946   6.750
 7889POPC   C3B58761  33.721  14.890   7.050
 7889POPC   C4B58762  33.737  14.958   7.350
 7890POPC   NC358763  37.635   6.649   5.550
 7890POPC   PO458764  37.700   6.595   5.850
 7890POPC   GL158765  37.686   6.674   6.150
 7890POPC   GL258766  37.592   6.551   6.150
 7890POPC   C1A58767  37.703   6.676   6.450
 7890POPC   D2A58768  37.696   6.661   6.750
 7890POPC   C3A58769  37.649   6.606   7.050
 7890POPC   C4A58770  37.726   6.639   7.350
 7890POPC   C1B58771  37.534   6.444   6.450
 7890POPC   C2B58772  37.492   6.480   6.750
 7890POPC   C3B58773  37.502   6.471   7.050
 7890POPC   C4B58774  37.459   6.441   7.350
 7891POPC   NC358775  39.186   3.565   5.550
 7891POPC   PO458776  39.204   3.573   5.850
 7891POPC   GL158777  39.189   3.561   6.150
 7891POPC   GL258778  39.300   3.417   6.150
 7891POPC   C1A58779  39.187   3.565   6.450
 7891POPC   D2A58780  39.236   3.571   6.750
 7891POPC   C3A58781  39.239   3.522   7.050
 7891POPC   C4A58782  39.229   3.541   7.350
 7891POPC   C1B58783  39.254   3.346   6.450
 7891POPC   C2B58784  39.307   3.323   6.750
 7891POPC   C3B58785  39.331   3.288   7.050
 7891POPC   C4B58786  39.304   3.262   7.350
 7892POPC   NC358787   7.380  26.832   5.550
 7892POPC   PO458788   7.427  26.855   5.850
 7892POPC   GL158789   7.402  26.864   6.150
 7892POPC   GL258790   7.489  26.909   6.150
 7892POPC   C1A58791   7.424  26.860   6.450
 7892POPC   D2A58792   7.425  26.812   6.750
 7892POPC   C3A58793   7.469  26.849   7.050
 7892POPC   C4A58794   7.452  26.838   7.350
 7892POPC   C1B58795   7.643  26.968   6.450
 7892POPC   C2B58796   7.674  26.926   6.750
 7892POPC   C3B58797   7.683  26.965   7.050
 7892POPC   C4B58798   7.648  26.891   7.350
 7893POPC   NC358799  18.246  40.032   5.550
 7893POPC   PO458800  18.310  39.973   5.850
 7893POPC   GL158801  18.278  40.006   6.150
 7893POPC   GL258802  18.188  40.086   6.150
 7893POPC   C1A58803  18.322  40.004   6.450
 7893POPC   D2A58804  18.285  39.971   6.750
 7893POPC   C3A58805  18.300  40.046   7.050
 7893POPC   C4A58806  18.302  39.960   7.350
 7893POPC   C1B58807  18.075  40.134   6.450
 7893POPC   C2B58808  18.046  40.202   6.750
 7893POPC   C3B58809  18.061  40.195   7.050
 7893POPC   C4B58810  18.110  40.113   7.350
 7894POPC   NC358811  28.329  41.522   5.550
 7894POPC   PO458812  28.397  41.532   5.850
 7894POPC   GL158813  28.417  41.586   6.150
 7894POPC   GL258814  28.423  41.631   6.150
 7894POPC   C1A58815  28.363  41.537   6.450
 7894POPC   D2A58816  28.397  41.602   6.750
 7894POPC   C3A58817  28.347  41.584   7.050
 7894POPC   C4A58818  28.365  41.542   7.350
 7894POPC   C1B58819  28.453  41.796   6.450
 7894POPC   C2B58820  28.397  41.817   6.750
 7894POPC   C3B58821  28.389  41.816   7.050
 7894POPC   C4B58822  28.448  41.824   7.350
 7895POPC   NC358823  18.233   9.011   5.550
 7895POPC   PO458824  18.287   8.961   5.850
 7895POPC   GL158825  18.294   8.953   6.150
 7895POPC   GL258826  18.143   8.906   6.150
 7895POPC   C1A58827  18.248   8.984   6.450
 7895POPC   D2A58828  18.324   9.005   6.750
 7895POPC   C3A58829  18.246   8.981   7.050
 7895POPC   C4A58830  18.301   8.936   7.350
 7895POPC   C1B58831  18.079   8.861   6.450
 7895POPC   C2B58832  18.060   8.821   6.750
 7895POPC   C3B58833  18.063   8.852   7.050
 7895POPC   C4B58834  18.069   8.810   7.350
 7896POPC   NC358835  15.964  18.287   5.550
 7896POPC   PO458836  15.994  18.246   5.850
 7896POPC   GL158837  15.915  18.285   6.150
 7896POPC   GL258838  16.034  18.210   6.150
 7896POPC   C1A58839  15.919  18.328   6.450
 7896POPC   D2A58840  15.942  18.237   6.750
 7896POPC   C3A58841  15.916  18.248   7.050
 7896POPC   C4A58842  15.969  18.329   7.350
 7896POPC   C1B58843  16.050  18.050   6.450
 7896POPC   C2B58844  15.999  18.032   6.750
 7896POPC   C3B58845  16.033  18.016   7.050
 7896POPC   C4B58846  16.014  18.069   7.350
 7897POPC   NC358847  26.854  25.255   5.550
 7897POPC   PO458848  26.810  25.270   5.850
 7897POPC   GL158849  26.771  25.250   6.150
 7897POPC   GL258850  26.680  25.208   6.150
 7897POPC   C1A58851  26.825  25.219   6.450
 7897POPC   D2A58852  26.851  25.253   6.750
 7897POPC   C3A58853  26.857  25.248   7.050
 7897POPC   C4A58854  26.861  25.228   7.350
 7897POPC   C1B58855  26.633  25.198   6.450
 7897POPC   C2B58856  26.605  25.118   6.750
 7897POPC   C3B58857  26.615  25.203   7.050
 7897POPC   C4B58858  26.615  25.167   7.350
 7898POPC   NC358859  15.151   0.402   5.550
 7898POPC   PO458860  15.171   0.419   5.850
 7898POPC   GL158861  15.180   0.452   6.150
 7898POPC   GL258862  15.226   0.603   6.150
 7898POPC   C1A58863  15.136   0.424   6.450
 7898POPC   D2A58864  15.178   0.402   6.750
 7898POPC   C3A58865  15.210   0.419   7.050
 7898POPC   C4A58866  15.195   0.411   7.350
 7898POPC   C1B58867  15.288   0.707   6.450
 7898POPC   C2B58868  15.217   0.719   6.750
 7898POPC   C3B58869  15.256   0.671   7.050
 7898POPC   C4B58870  15.263   0.713   7.350
 7899POPC   NC358871  10.527  24.459   5.550
 7899POPC   PO458872  10.513  24.483   5.850
 7899POPC   GL158873  10.501  24.508   6.150
 7899POPC   GL258874  10.438  24.580   6.150
 7899POPC   C1A58875  10.550  24.487   6.450
 7899POPC   D2A58876  10.572  24.489   6.750
 7899POPC   C3A58877  10.573  24.462   7.050
 7899POPC   C4A58878  10.562  24.476   7.350
 7899POPC   C1B58879  10.335  24.642   6.450
 7899POPC   C2B58880  10.370  24.654   6.750
 7899POPC   C3B58881  10.379  24.623   7.050
 7899POPC   C4B58882  10.360  24.639   7.350
 7900POPC   NC358883  40.739   5.097   5.550
 7900POPC   PO458884  40.733   5.073   5.850
 7900POPC   GL158885  40.809   5.044   6.150
 7900POPC   GL258886  40.656   5.009   6.150
 7900POPC   C1A58887  40.816   5.090   6.450
 7900POPC   D2A58888  40.830   5.107   6.750
 7900POPC   C3A58889  40.786   5.123   7.050
 7900POPC   C4A58890  40.781   5.098   7.350
 7900POPC   C1B58891  40.594   4.882   6.450
 7900POPC   C2B58892  40.573   4.956   6.750
 7900POPC   C3B58893  40.585   4.906   7.050
 7900POPC   C4B58894  40.636   4.892   7.350
 7901POPC   NC358895  27.617  11.338   5.550
 7901POPC   PO458896  27.630  11.276   5.850
 7901POPC   GL158897  27.609  11.256   6.150
 7901POPC   GL258898  27.649  11.337   6.150
 7901POPC   C1A58899  27.596  11.256   6.450
 7901POPC   D2A58900  27.575  11.305   6.750
 7901POPC   C3A58901  27.570  11.317   7.050
 7901POPC   C4A58902  27.557  11.295   7.350
 7901POPC   C1B58903  27.781  11.451   6.450
 7901POPC   C2B58904  27.761  11.468   6.750
 7901POPC   C3B58905  27.800  11.441   7.050
 7901POPC   C4B58906  27.735  11.440   7.350
 7902POPC   NC358907  11.293  22.185   5.550
 7902POPC   PO458908  11.276  22.142   5.850
 7902POPC   GL158909  11.277  22.167   6.150
 7902POPC   GL258910  11.240  22.015   6.150
 7902POPC   C1A58911  11.279  22.180   6.450
 7902POPC   D2A58912  11.299  22.122   6.750
 7902POPC   C3A58913  11.261  22.171   7.050
 7902POPC   C4A58914  11.300  22.141   7.350
 7902POPC   C1B58915  11.224  21.925   6.450
 7902POPC   C2B58916  11.240  21.919   6.750
 7902POPC   C3B58917  11.236  21.938   7.050
 7902POPC   C4B58918  11.219  21.977   7.350
 7903POPC   NC358919  39.232  24.478   5.550
 7903POPC   PO458920  39.184  24.508   5.850
 7903POPC   GL158921  39.219  24.454   6.150
 7903POPC   GL258922  39.133  24.458   6.150
 7903POPC   C1A58923  39.256  24.505   6.450
 7903POPC   D2A58924  39.211  24.528   6.750
 7903POPC   C3A58925  39.210  24.472   7.050
 7903POPC   C4A58926  39.262  24.526   7.350
 7903POPC   C1B58927  38.992  24.506   6.450
 7903POPC   C2B58928  39.003  24.522   6.750
 7903POPC   C3B58929  38.946  24.569   7.050
 7903POPC   C4B58930  38.987  24.484   7.350
 7904POPC   NC358931   1.249  26.091   5.550
 7904POPC   PO458932   1.212  26.037   5.850
 7904POPC   GL158933   1.181  26.011   6.150
 7904POPC   GL258934   1.280  26.085   6.150
 7904POPC   C1A58935   1.236  26.048   6.450
 7904POPC   D2A58936   1.212  26.037   6.750
 7904POPC   C3A58937   1.213  26.023   7.050
 7904POPC   C4A58938   1.261  26.074   7.350
 7904POPC   C1B58939   1.397  26.150   6.450
 7904POPC   C2B58940   1.399  26.145   6.750
 7904POPC   C3B58941   1.439  26.150   7.050
 7904POPC   C4B58942   1.411  26.139   7.350
 7905POPC   NC358943  29.892  15.197   5.550
 7905POPC   PO458944  29.926  15.156   5.850
 7905POPC   GL158945  29.924  15.163   6.150
 7905POPC   GL258946  30.016  15.059   6.150
 7905POPC   C1A58947  29.890  15.213   6.450
 7905POPC   D2A58948  29.937  15.137   6.750
 7905POPC   C3A58949  29.935  15.161   7.050
 7905POPC   C4A58950  29.927  15.200   7.350
 7905POPC   C1B58951  30.072  14.916   6.450
 7905POPC   C2B58952  30.043  14.921   6.750
 7905POPC   C3B58953  30.028  14.943   7.050
 7905POPC   C4B58954  30.001  14.959   7.350
 7906POPC   NC358955  28.360  15.914   5.550
 7906POPC   PO458956  28.383  15.972   5.850
 7906POPC   GL158957  28.360  15.972   6.150
 7906POPC   GL258958  28.499  15.912   6.150
 7906POPC   C1A58959  28.353  15.934   6.450
 7906POPC   D2A58960  28.386  15.926   6.750
 7906POPC   C3A58961  28.361  15.954   7.050
 7906POPC   C4A58962  28.377  15.927   7.350
 7906POPC   C1B58963  28.630  15.870   6.450
 7906POPC   C2B58964  28.628  15.890   6.750
 7906POPC   C3B58965  28.604  15.803   7.050
 7906POPC   C4B58966  28.618  15.836   7.350
 7907POPC   NC358967  11.311   2.026   5.550
 7907POPC   PO458968  11.256   1.990   5.850
 7907POPC   GL158969  11.281   1.956   6.150
 7907POPC   GL258970  11.315   1.875   6.150
 7907POPC   C1A58971  11.281   2.037   6.450
 7907POPC   D2A58972  11.270   2.036   6.750
 7907POPC   C3A58973  11.287   1.954   7.050
 7907POPC   C4A58974  11.328   1.965   7.350
 7907POPC   C1B58975  11.440   1.789   6.450
 7907POPC   C2B58976  11.390   1.770   6.750
 7907POPC   C3B58977  11.374   1.740   7.050
 7907POPC   C4B58978  11.381   1.763   7.350
 7908POPC   NC358979  39.218  38.446   5.550
 7908POPC   PO458980  39.183  38.408   5.850
 7908POPC   GL158981  39.262  38.463   6.150
 7908POPC   GL258982  39.087  38.487   6.150
 7908POPC   C1A58983  39.222  38.415   6.450
 7908POPC   D2A58984  39.208  38.502   6.750
 7908POPC   C3A58985  39.217  38.440   7.050
 7908POPC   C4A58986  39.237  38.505   7.350
 7908POPC   C1B58987  39.022  38.468   6.450
 7908POPC   C2B58988  38.941  38.491   6.750
 7908POPC   C3B58989  38.964  38.509   7.050
 7908POPC   C4B58990  38.958  38.534   7.350
 7909POPC   NC358991   1.945  18.264   5.550
 7909POPC   PO458992   2.028  18.251   5.850
 7909POPC   GL158993   1.947  18.310   6.150
 7909POPC   GL258994   2.001  18.139   6.150
 7909POPC   C1A58995   2.027  18.325   6.450
 7909POPC   D2A58996   1.988  18.300   6.750
 7909POPC   C3A58997   2.023  18.325   7.050
 7909POPC   C4A58998   1.983  18.325   7.350
 7909POPC   C1B58999   2.117  18.027   6.450
 7909POPC   C2B59000   2.067  18.083   6.750
 7909POPC   C3B59001   2.034  18.061   7.050
 7909POPC   C4B59002   2.104  18.076   7.350
 7910POPC   NC359003  43.863  19.876   5.550
 7910POPC   PO459004  43.905  19.788   5.850
 7910POPC   GL159005  43.905  19.798   6.150
 7910POPC   GL259006  43.760  19.914   6.150
 7910POPC   C1A59007  43.854  19.855   6.450
 7910POPC   D2A59008  43.880  19.854   6.750
 7910POPC   C3A59009  43.863  19.872   7.050
 7910POPC   C4A59010  43.891  19.803   7.350
 7910POPC   C1B59011  43.644  19.970   6.450
 7910POPC   C2B59012  43.654  19.889   6.750
 7910POPC   C3B59013  43.668  19.955   7.050
 7910POPC   C4B59014  43.689  19.937   7.350
 7911POPC   NC359015  29.153  12.886   5.550
 7911POPC   PO459016  29.126  12.832   5.850
 7911POPC   GL159017  29.095  12.894   6.150
 7911POPC   GL259018  29.063  12.915   6.150
 7911POPC   C1A59019  29.150  12.896   6.450
 7911POPC   D2A59020  29.122  12.883   6.750
 7911POPC   C3A59021  29.186  12.839   7.050
 7911POPC   C4A59022  29.167  12.826   7.350
 7911POPC   C1B59023  28.989  13.051   6.450
 7911POPC   C2B59024  29.064  13.047   6.750
 7911POPC   C3B59025  29.063  13.064   7.050
 7911POPC   C4B59026  29.025  13.096   7.350
 7912POPC   NC359027  34.567   2.030   5.550
 7912POPC   PO459028  34.581   1.943   5.850
 7912POPC   GL159029  34.591   1.946   6.150
 7912POPC   GL259030  34.448   2.013   6.150
 7912POPC   C1A59031  34.544   1.970   6.450
 7912POPC   D2A59032  34.610   1.981   6.750
 7912POPC   C3A59033  34.602   1.970   7.050
 7912POPC   C4A59034  34.530   1.955   7.350
 7912POPC   C1B59035  34.322   2.011   6.450
 7912POPC   C2B59036  34.305   1.992   6.750
 7912POPC   C3B59037  34.346   2.049   7.050
 7912POPC   C4B59038  34.280   2.052   7.350
 7913POPC   NC359039  36.140  32.977   5.550
 7913POPC   PO459040  36.105  32.984   5.850
 7913POPC   GL159041  36.140  33.030   6.150
 7913POPC   GL259042  36.243  32.963   6.150
 7913POPC   C1A59043  36.136  33.025   6.450
 7913POPC   D2A59044  36.124  33.023   6.750
 7913POPC   C3A59045  36.170  32.996   7.050
 7913POPC   C4A59046  36.100  33.007   7.350
 7913POPC   C1B59047  36.302  32.930   6.450
 7913POPC   C2B59048  36.324  32.931   6.750
 7913POPC   C3B59049  36.362  32.931   7.050
 7913POPC   C4B59050  36.314  32.921   7.350
 7914POPC   NC359051   8.935  11.291   5.550
 7914POPC   PO459052   9.011  11.340   5.850
 7914POPC   GL159053   8.967  11.343   6.150
 7914POPC   GL259054   8.823  11.356   6.150
 7914POPC   C1A59055   8.992  11.255   6.450
 7914POPC   D2A59056   8.924  11.276   6.750
 7914POPC   C3A59057   8.998  11.344   7.050
 7914POPC   C4A59058   8.995  11.316   7.350
 7914POPC   C1B59059   8.681  11.329   6.450
 7914POPC   C2B59060   8.704  11.354   6.750
 7914POPC   C3B59061   8.684  11.354   7.050
 7914POPC   C4B59062   8.680  11.350   7.350
 7915POPC   NC359063  37.660   8.210   5.550
 7915POPC   PO459064  37.638   8.224   5.850
 7915POPC   GL159065  37.702   8.185   6.150
 7915POPC   GL259066  37.568   8.254   6.150
 7915POPC   C1A59067  37.699   8.215   6.450
 7915POPC   D2A59068  37.643   8.178   6.750
 7915POPC   C3A59069  37.689   8.163   7.050
 7915POPC   C4A59070  37.690   8.198   7.350
 7915POPC   C1B59071  37.435   8.224   6.450
 7915POPC   C2B59072  37.395   8.266   6.750
 7915POPC   C3B59073  37.406   8.285   7.050
 7915POPC   C4B59074  37.419   8.248   7.350
 7916POPC   NC359075  37.674  12.067   5.550
 7916POPC   PO459076  37.655  12.029   5.850
 7916POPC   GL159077  37.657  12.057   6.150
 7916POPC   GL259078  37.801  12.155   6.150
 7916POPC   C1A59079  37.688  12.060   6.450
 7916POPC   D2A59080  37.634  12.057   6.750
 7916POPC   C3A59081  37.723  12.085   7.050
 7916POPC   C4A59082  37.716  12.042   7.350
 7916POPC   C1B59083  37.875  12.157   6.450
 7916POPC   C2B59084  37.943  12.146   6.750
 7916POPC   C3B59085  37.966  12.152   7.050
 7916POPC   C4B59086  37.921  12.158   7.350
 7917POPC   NC359087   8.963  30.716   5.550
 7917POPC   PO459088   8.966  30.660   5.850
 7917POPC   GL159089   9.005  30.705   6.150
 7917POPC   GL259090   9.097  30.599   6.150
 7917POPC   C1A59091   9.022  30.693   6.450
 7917POPC   D2A59092   9.019  30.726   6.750
 7917POPC   C3A59093   8.974  30.679   7.050
 7917POPC   C4A59094   8.985  30.709   7.350
 7917POPC   C1B59095   9.133  30.513   6.450
 7917POPC   C2B59096   9.105  30.522   6.750
 7917POPC   C3B59097   9.125  30.533   7.050
 7917POPC   C4B59098   9.082  30.495   7.350
 7918POPC   NC359099  29.155  10.554   5.550
 7918POPC   PO459100  29.126  10.547   5.850
 7918POPC   GL159101  29.187  10.526   6.150
 7918POPC   GL259102  29.301  10.449   6.150
 7918POPC   C1A59103  29.173  10.542   6.450
 7918POPC   D2A59104  29.171  10.561   6.750
 7918POPC   C3A59105  29.167  10.524   7.050
 7918POPC   C4A59106  29.180  10.569   7.350
 7918POPC   C1B59107  29.357  10.446   6.450
 7918POPC   C2B59108  29.346  10.459   6.750
 7918POPC   C3B59109  29.367  10.455   7.050
 7918POPC   C4B59110  29.408  10.449   7.350
 7919POPC   NC359111  12.867  30.700   5.550
 7919POPC   PO459112  12.818  30.704   5.850
 7919POPC   GL159113  12.811  30.665   6.150
 7919POPC   GL259114  12.867  30.601   6.150
 7919POPC   C1A59115  12.898  30.701   6.450
 7919POPC   D2A59116  12.897  30.717   6.750
 7919POPC   C3A59117  12.880  30.742   7.050
 7919POPC   C4A59118  12.823  30.743   7.350
 7919POPC   C1B59119  12.925  30.511   6.450
 7919POPC   C2B59120  12.989  30.476   6.750
 7919POPC   C3B59121  12.983  30.522   7.050
 7919POPC   C4B59122  12.976  30.447   7.350
 7920POPC   NC359123   1.205  28.371   5.550
 7920POPC   PO459124   1.226  28.384   5.850
 7920POPC   GL159125   1.201  28.406   6.150
 7920POPC   GL259126   1.050  28.347   6.150
 7920POPC   C1A59127   1.195  28.383   6.450
 7920POPC   D2A59128   1.178  28.419   6.750
 7920POPC   C3A59129   1.193  28.384   7.050
 7920POPC   C4A59130   1.232  28.335   7.350
 7920POPC   C1B59131   0.983  28.326   6.450
 7920POPC   C2B59132   0.982  28.343   6.750
 7920POPC   C3B59133   1.010  28.363   7.050
 7920POPC   C4B59134   0.967  28.327   7.350
 7921POPC   NC359135  20.567   4.319   5.550
 7921POPC   PO459136  20.609   4.329   5.850
 7921POPC   GL159137  20.583   4.356   6.150
 7921POPC   GL259138  20.624   4.163   6.150
 7921POPC   C1A59139  20.655   4.312   6.450
 7921POPC   D2A59140  20.605   4.323   6.750
 7921POPC   C3A59141  20.567   4.333   7.050
 7921POPC   C4A59142  20.596   4.338   7.350
 7921POPC   C1B59143  20.614   4.038   6.450
 7921POPC   C2B59144  20.659   4.092   6.750
 7921POPC   C3B59145  20.608   4.105   7.050
 7921POPC   C4B59146  20.622   4.029   7.350
 7922POPC   NC359147  16.764  15.229   5.550
 7922POPC   PO459148  16.691  15.180   5.850
 7922POPC   GL159149  16.775  15.221   6.150
 7922POPC   GL259150  16.592  15.141   6.150
 7922POPC   C1A59151  16.764  15.200   6.450
 7922POPC   D2A59152  16.696  15.191   6.750
 7922POPC   C3A59153  16.735  15.158   7.050
 7922POPC   C4A59154  16.700  15.206   7.350
 7922POPC   C1B59155  16.520  15.086   6.450
 7922POPC   C2B59156  16.491  15.115   6.750
 7922POPC   C3B59157  16.450  15.179   7.050
 7922POPC   C4B59158  16.528  15.111   7.350
 7923POPC   NC359159   0.408  39.981   5.550
 7923POPC   PO459160   0.443  39.972   5.850
 7923POPC   GL159161   0.485  39.974   6.150
 7923POPC   GL259162   0.520  40.123   6.150
 7923POPC   C1A59163   0.424  40.003   6.450
 7923POPC   D2A59164   0.444  39.990   6.750
 7923POPC   C3A59165   0.412  40.013   7.050
 7923POPC   C4A59166   0.473  40.019   7.350
 7923POPC   C1B59167   0.602  40.174   6.450
 7923POPC   C2B59168   0.570  40.166   6.750
 7923POPC   C3B59169   0.576  40.223   7.050
 7923POPC   C4B59170   0.558  40.188   7.350
 7924POPC   NC359171  44.650  26.058   5.550
 7924POPC   PO459172  44.694  26.080   5.850
 7924POPC   GL159173  44.636  26.024   6.150
 7924POPC   GL259174  44.581  26.151   6.150
 7924POPC   C1A59175  44.688  26.001   6.450
 7924POPC   D2A59176  44.618  26.018   6.750
 7924POPC   C3A59177  44.684  26.026   7.050
 7924POPC   C4A59178  44.642  26.052   7.350
 7924POPC   C1B59179  44.554  26.236   6.450
 7924POPC   C2B59180  44.527  26.227   6.750
 7924POPC   C3B59181  44.504  26.267   7.050
 7924POPC   C4B59182  44.546  26.286   7.350
 7925POPC   NC359183  17.497  29.879   5.550
 7925POPC   PO459184  17.487  29.923   5.850
 7925POPC   GL159185  17.509  29.914   6.150
 7925POPC   GL259186  17.609  30.031   6.150
 7925POPC   C1A59187  17.535  29.922   6.450
 7925POPC   D2A59188  17.497  29.933   6.750
 7925POPC   C3A59189  17.494  29.945   7.050
 7925POPC   C4A59190  17.540  29.879   7.350
 7925POPC   C1B59191  17.643  30.159   6.450
 7925POPC   C2B59192  17.607  30.160   6.750
 7925POPC   C3B59193  17.638  30.161   7.050
 7925POPC   C4B59194  17.696  30.100   7.350
 7926POPC   NC359195  33.001  16.773   5.550
 7926POPC   PO459196  33.045  16.726   5.850
 7926POPC   GL159197  32.975  16.690   6.150
 7926POPC   GL259198  32.939  16.743   6.150
 7926POPC   C1A59199  32.994  16.691   6.450
 7926POPC   D2A59200  32.992  16.752   6.750
 7926POPC   C3A59201  33.023  16.738   7.050
 7926POPC   C4A59202  32.978  16.763   7.350
 7926POPC   C1B59203  32.757  16.618   6.450
 7926POPC   C2B59204  32.757  16.626   6.750
 7926POPC   C3B59205  32.762  16.627   7.050
 7926POPC   C4B59206  32.778  16.656   7.350
 7927POPC   NC359207   5.886  23.721   5.550
 7927POPC   PO459208   5.832  23.737   5.850
 7927POPC   GL159209   5.899  23.725   6.150
 7927POPC   GL259210   5.804  23.579   6.150
 7927POPC   C1A59211   5.839  23.664   6.450
 7927POPC   D2A59212   5.833  23.761   6.750
 7927POPC   C3A59213   5.852  23.719   7.050
 7927POPC   C4A59214   5.887  23.749   7.350
 7927POPC   C1B59215   5.763  23.506   6.450
 7927POPC   C2B59216   5.802  23.439   6.750
 7927POPC   C3B59217   5.743  23.529   7.050
 7927POPC   C4B59218   5.744  23.457   7.350
 7928POPC   NC359219   5.071  36.935   5.550
 7928POPC   PO459220   5.129  36.893   5.850
 7928POPC   GL159221   5.141  36.893   6.150
 7928POPC   GL259222   5.178  36.876   6.150
 7928POPC   C1A59223   5.062  36.950   6.450
 7928POPC   D2A59224   5.112  36.858   6.750
 7928POPC   C3A59225   5.064  36.928   7.050
 7928POPC   C4A59226   5.099  36.888   7.350
 7928POPC   C1B59227   5.310  36.942   6.450
 7928POPC   C2B59228   5.386  36.954   6.750
 7928POPC   C3B59229   5.379  36.930   7.050
 7928POPC   C4B59230   5.386  36.891   7.350
 7929POPC   NC359231  18.287   5.122   5.550
 7929POPC   PO459232  18.292   5.061   5.850
 7929POPC   GL159233  18.287   5.061   6.150
 7929POPC   GL259234  18.245   5.180   6.150
 7929POPC   C1A59235  18.233   5.097   6.450
 7929POPC   D2A59236  18.304   5.140   6.750
 7929POPC   C3A59237  18.266   5.054   7.050
 7929POPC   C4A59238  18.328   5.126   7.350
 7929POPC   C1B59239  18.228   5.326   6.450
 7929POPC   C2B59240  18.226   5.349   6.750
 7929POPC   C3B59241  18.242   5.350   7.050
 7929POPC   C4B59242  18.221   5.366   7.350
 7930POPC   NC359243   9.727  15.162   5.550
 7930POPC   PO459244   9.776  15.171   5.850
 7930POPC   GL159245   9.774  15.182   6.150
 7930POPC   GL259246   9.810  15.064   6.150
 7930POPC   C1A59247   9.792  15.226   6.450
 7930POPC   D2A59248   9.790  15.171   6.750
 7930POPC   C3A59249   9.771  15.184   7.050
 7930POPC   C4A59250   9.698  15.194   7.350
 7930POPC   C1B59251   9.954  15.042   6.450
 7930POPC   C2B59252   9.973  15.033   6.750
 7930POPC   C3B59253   9.940  14.986   7.050
 7930POPC   C4B59254   9.944  15.005   7.350
 7931POPC   NC359255   4.297  43.072   5.550
 7931POPC   PO459256   4.343  43.146   5.850
 7931POPC   GL159257   4.284  43.067   6.150
 7931POPC   GL259258   4.425  43.079   6.150
 7931POPC   C1A59259   4.335  43.136   6.450
 7931POPC   D2A59260   4.328  43.121   6.750
 7931POPC   C3A59261   4.337  43.069   7.050
 7931POPC   C4A59262   4.272  43.126   7.350
 7931POPC   C1B59263   4.598  43.067   6.450
 7931POPC   C2B59264   4.589  43.146   6.750
 7931POPC   C3B59265   4.562  43.104   7.050
 7931POPC   C4B59266   4.551  43.111   7.350
 7932POPC   NC359267  15.226  42.292   5.550
 7932POPC   PO459268  15.169  42.324   5.850
 7932POPC   GL159269  15.182  42.291   6.150
 7932POPC   GL259270  15.270  42.324   6.150
 7932POPC   C1A59271  15.142  42.301   6.450
 7932POPC   D2A59272  15.214  42.338   6.750
 7932POPC   C3A59273  15.142  42.290   7.050
 7932POPC   C4A59274  15.155  42.379   7.350
 7932POPC   C1B59275  15.467  42.388   6.450
 7932POPC   C2B59276  15.415  42.414   6.750
 7932POPC   C3B59277  15.376  42.376   7.050
 7932POPC   C4B59278  15.426  42.363   7.350
 7933POPC   NC359279  26.046  34.535   5.550
 7933POPC   PO459280  25.995  34.544   5.850
 7933POPC   GL159281  26.010  34.607   6.150
 7933POPC   GL259282  25.992  34.414   6.150
 7933POPC   C1A59283  26.052  34.547   6.450
 7933POPC   D2A59284  26.040  34.597   6.750
 7933POPC   C3A59285  26.079  34.601   7.050
 7933POPC   C4A59286  26.079  34.531   7.350
 7933POPC   C1B59287  26.002  34.336   6.450
 7933POPC   C2B59288  26.045  34.349   6.750
 7933POPC   C3B59289  26.012  34.329   7.050
 7933POPC   C4B59290  26.060  34.303   7.350
 7934POPC   NC359291   7.387  10.492   5.550
 7934POPC   PO459292   7.438  10.552   5.850
 7934POPC   GL159293   7.408  10.487   6.150
 7934POPC   GL259294   7.578  10.441   6.150
 7934POPC   C1A59295   7.415  10.533   6.450
 7934POPC   D2A59296   7.427  10.533   6.750
 7934POPC   C3A59297   7.418  10.567   7.050
 7934POPC   C4A59298   7.403  10.544   7.350
 7934POPC   C1B59299   7.650  10.432   6.450
 7934POPC   C2B59300   7.631  10.475   6.750
 7934POPC   C3B59301   7.658  10.407   7.050
 7934POPC   C4B59302   7.636  10.464   7.350
 7935POPC   NC359303   3.505   7.459   5.550
 7935POPC   PO459304   3.541   7.380   5.850
 7935POPC   GL159305   3.585   7.424   6.150
 7935POPC   GL259306   3.604   7.521   6.150
 7935POPC   C1A59307   3.492   7.438   6.450
 7935POPC   D2A59308   3.560   7.457   6.750
 7935POPC   C3A59309   3.514   7.446   7.050
 7935POPC   C4A59310   3.580   7.394   7.350
 7935POPC   C1B59311   3.750   7.521   6.450
 7935POPC   C2B59312   3.713   7.581   6.750
 7935POPC   C3B59313   3.757   7.596   7.050
 7935POPC   C4B59314   3.744   7.590   7.350
 7936POPC   NC359315  19.026  32.249   5.550
 7936POPC   PO459316  19.043  32.236   5.850
 7936POPC   GL159317  19.034  32.228   6.150
 7936POPC   GL259318  19.157  32.290   6.150
 7936POPC   C1A59319  19.096  32.250   6.450
 7936POPC   D2A59320  19.037  32.213   6.750
 7936POPC   C3A59321  19.068  32.242   7.050
 7936POPC   C4A59322  19.024  32.294   7.350
 7936POPC   C1B59323  19.279  32.265   6.450
 7936POPC   C2B59324  19.342  32.246   6.750
 7936POPC   C3B59325  19.328  32.291   7.050
 7936POPC   C4B59326  19.349  32.328   7.350
 7937POPC   NC359327   7.445   5.097   5.550
 7937POPC   PO459328   7.389   5.055   5.850
 7937POPC   GL159329   7.406   5.136   6.150
 7937POPC   GL259330   7.394   5.016   6.150
 7937POPC   C1A59331   7.419   5.108   6.450
 7937POPC   D2A59332   7.466   5.106   6.750
 7937POPC   C3A59333   7.424   5.113   7.050
 7937POPC   C4A59334   7.382   5.090   7.350
 7937POPC   C1B59335   7.286   4.911   6.450
 7937POPC   C2B59336   7.297   4.934   6.750
 7937POPC   C3B59337   7.256   4.852   7.050
 7937POPC   C4B59338   7.290   4.892   7.350
 7938POPC   NC359339  34.557   7.411   5.550
 7938POPC   PO459340  34.531   7.452   5.850
 7938POPC   GL159341  34.607   7.437   6.150
 7938POPC   GL259342  34.536   7.258   6.150
 7938POPC   C1A59343  34.613   7.414   6.450
 7938POPC   D2A59344  34.608   7.443   6.750
 7938POPC   C3A59345  34.543   7.400   7.050
 7938POPC   C4A59346  34.574   7.444   7.350
 7938POPC   C1B59347  34.562   7.173   6.450
 7938POPC   C2B59348  34.507   7.146   6.750
 7938POPC   C3B59349  34.482   7.147   7.050
 7938POPC   C4B59350  34.517   7.167   7.350
 7939POPC   NC359351  11.350   8.167   5.550
 7939POPC   PO459352  11.338   8.158   5.850
 7939POPC   GL159353  11.328   8.210   6.150
 7939POPC   GL259354  11.469   8.158   6.150
 7939POPC   C1A59355  11.294   8.169   6.450
 7939POPC   D2A59356  11.291   8.239   6.750
 7939POPC   C3A59357  11.318   8.218   7.050
 7939POPC   C4A59358  11.300   8.153   7.350
 7939POPC   C1B59359  11.515   8.122   6.450
 7939POPC   C2B59360  11.506   8.162   6.750
 7939POPC   C3B59361  11.561   8.116   7.050
 7939POPC   C4B59362  11.549   8.120   7.350
 7940POPC   NC359363   2.800  41.517   5.550
 7940POPC   PO459364   2.765  41.581   5.850
 7940POPC   GL159365   2.768  41.531   6.150
 7940POPC   GL259366   2.831  41.509   6.150
 7940POPC   C1A59367   2.755  41.553   6.450
 7940POPC   D2A59368   2.735  41.604   6.750
 7940POPC   C3A59369   2.771  41.577   7.050
 7940POPC   C4A59370   2.796  41.511   7.350
 7940POPC   C1B59371   2.963  41.432   6.450
 7940POPC   C2B59372   2.980  41.432   6.750
 7940POPC   C3B59373   2.999  41.389   7.050
 7940POPC   C4B59374   2.944  41.436   7.350
 7941POPC   NC359375  38.450  13.628   5.550
 7941POPC   PO459376  38.472  13.578   5.850
 7941POPC   GL159377  38.481  13.655   6.150
 7941POPC   GL259378  38.293  13.674   6.150
 7941POPC   C1A59379  38.503  13.625   6.450
 7941POPC   D2A59380  38.428  13.652   6.750
 7941POPC   C3A59381  38.491  13.599   7.050
 7941POPC   C4A59382  38.477  13.652   7.350
 7941POPC   C1B59383  38.279  13.768   6.450
 7941POPC   C2B59384  38.183  13.780   6.750
 7941POPC   C3B59385  38.182  13.778   7.050
 7941POPC   C4B59386  38.232  13.721   7.350
 7942POPC   NC359387   6.659  23.671   5.550
 7942POPC   PO459388   6.603  23.668   5.850
 7942POPC   GL159389   6.653  23.736   6.150
 7942POPC   GL259390   6.720  23.604   6.150
 7942POPC   C1A59391   6.661  23.665   6.450
 7942POPC   D2A59392   6.687  23.712   6.750
 7942POPC   C3A59393   6.661  23.698   7.050
 7942POPC   C4A59394   6.597  23.680   7.350
 7942POPC   C1B59395   6.759  23.495   6.450
 7942POPC   C2B59396   6.839  23.475   6.750
 7942POPC   C3B59397   6.770  23.498   7.050
 7942POPC   C4B59398   6.746  23.554   7.350
 7943POPC   NC359399  16.753  40.037   5.550
 7943POPC   PO459400  16.709  40.054   5.850
 7943POPC   GL159401  16.727  40.005   6.150
 7943POPC   GL259402  16.850  39.932   6.150
 7943POPC   C1A59403  16.692  40.053   6.450
 7943POPC   D2A59404  16.721  39.968   6.750
 7943POPC   C3A59405  16.714  40.053   7.050
 7943POPC   C4A59406  16.686  40.011   7.350
 7943POPC   C1B59407  16.973  39.856   6.450
 7943POPC   C2B59408  16.967  39.934   6.750
 7943POPC   C3B59409  16.908  39.903   7.050
 7943POPC   C4B59410  16.936  39.846   7.350
 7944POPC   NC359411   5.881  39.270   5.550
 7944POPC   PO459412   5.897  39.273   5.850
 7944POPC   GL159413   5.823  39.202   6.150
 7944POPC   GL259414   5.814  39.364   6.150
 7944POPC   C1A59415   5.870  39.242   6.450
 7944POPC   D2A59416   5.917  39.197   6.750
 7944POPC   C3A59417   5.861  39.214   7.050
 7944POPC   C4A59418   5.879  39.264   7.350
 7944POPC   C1B59419   5.767  39.471   6.450
 7944POPC   C2B59420   5.758  39.433   6.750
 7944POPC   C3B59421   5.782  39.497   7.050
 7944POPC   C4B59422   5.774  39.402   7.350
 7945POPC   NC359423  23.679  13.660   5.550
 7945POPC   PO459424  23.740  13.589   5.850
 7945POPC   GL159425  23.724  13.623   6.150
 7945POPC   GL259426  23.857  13.653   6.150
 7945POPC   C1A59427  23.670  13.626   6.450
 7945POPC   D2A59428  23.747  13.584   6.750
 7945POPC   C3A59429  23.735  13.609   7.050
 7945POPC   C4A59430  23.720  13.579   7.350
 7945POPC   C1B59431  23.937  13.701   6.450
 7945POPC   C2B59432  23.899  13.699   6.750
 7945POPC   C3B59433  23.976  13.792   7.050
 7945POPC   C4B59434  23.893  13.744   7.350
 7946POPC   NC359435  36.166  43.930   5.550
 7946POPC   PO459436  36.120  43.877   5.850
 7946POPC   GL159437  36.106  43.930   6.150
 7946POPC   GL259438  36.242  43.816   6.150
 7946POPC   C1A59439  36.078  43.868   6.450
 7946POPC   D2A59440  36.164  43.906   6.750
 7946POPC   C3A59441  36.118  43.855   7.050
 7946POPC   C4A59442  36.174  43.897   7.350
 7946POPC   C1B59443  36.357  43.746   6.450
 7946POPC   C2B59444  36.335  43.722   6.750
 7946POPC   C3B59445  36.330  43.787   7.050
 7946POPC   C4B59446  36.348  43.765   7.350
 7947POPC   NC359447   5.098  19.086   5.550
 7947POPC   PO459448   5.044  19.073   5.850
 7947POPC   GL159449   5.071  19.021   6.150
 7947POPC   GL259450   4.995  19.034   6.150
 7947POPC   C1A59451   5.123  19.097   6.450
 7947POPC   D2A59452   5.132  19.067   6.750
 7947POPC   C3A59453   5.139  19.050   7.050
 7947POPC   C4A59454   5.045  19.035   7.350
 7947POPC   C1B59455   4.831  19.100   6.450
 7947POPC   C2B59456   4.862  19.079   6.750
 7947POPC   C3B59457   4.893  19.143   7.050
 7947POPC   C4B59458   4.877  19.128   7.350
 7948POPC   NC359459  20.616   5.823   5.550
 7948POPC   PO459460  20.583   5.840   5.850
 7948POPC   GL159461  20.613   5.901   6.150
 7948POPC   GL259462  20.705   5.944   6.150
 7948POPC   C1A59463  20.616   5.844   6.450
 7948POPC   D2A59464  20.640   5.825   6.750
 7948POPC   C3A59465  20.570   5.831   7.050
 7948POPC   C4A59466  20.638   5.844   7.350
 7948POPC   C1B59467  20.826   5.998   6.450
 7948POPC   C2B59468  20.824   6.016   6.750
 7948POPC   C3B59469  20.810   6.047   7.050
 7948POPC   C4B59470  20.823   6.003   7.350
 7949POPC   NC359471  17.539  30.707   5.550
 7949POPC   PO459472  17.473  30.740   5.850
 7949POPC   GL159473  17.459  30.698   6.150
 7949POPC   GL259474  17.542  30.823   6.150
 7949POPC   C1A59475  17.506  30.678   6.450
 7949POPC   D2A59476  17.540  30.669   6.750
 7949POPC   C3A59477  17.498  30.678   7.050
 7949POPC   C4A59478  17.516  30.663   7.350
 7949POPC   C1B59479  17.673  30.932   6.450
 7949POPC   C2B59480  17.649  30.846   6.750
 7949POPC   C3B59481  17.625  30.939   7.050
 7949POPC   C4B59482  17.618  30.845   7.350
 7950POPC   NC359483  13.656  15.136   5.550
 7950POPC   PO459484  13.653  15.175   5.850
 7950POPC   GL159485  13.583  15.166   6.150
 7950POPC   GL259486  13.660  15.285   6.150
 7950POPC   C1A59487  13.654  15.139   6.450
 7950POPC   D2A59488  13.578  15.209   6.750
 7950POPC   C3A59489  13.675  15.185   7.050
 7950POPC   C4A59490  13.597  15.163   7.350
 7950POPC   C1B59491  13.789  15.407   6.450
 7950POPC   C2B59492  13.780  15.398   6.750
 7950POPC   C3B59493  13.817  15.366   7.050
 7950POPC   C4B59494  13.790  15.418   7.350
 7951POPC   NC359495  14.393  20.575   5.550
 7951POPC   PO459496  14.398  20.623   5.850
 7951POPC   GL159497  14.447  20.640   6.150
 7951POPC   GL259498  14.293  20.679   6.150
 7951POPC   C1A59499  14.410  20.562   6.450
 7951POPC   D2A59500  14.441  20.570   6.750
 7951POPC   C3A59501  14.364  20.637   7.050
 7951POPC   C4A59502  14.385  20.612   7.350
 7951POPC   C1B59503  14.218  20.727   6.450
 7951POPC   C2B59504  14.140  20.727   6.750
 7951POPC   C3B59505  14.148  20.714   7.050
 7951POPC   C4B59506  14.227  20.711   7.350
 7952POPC   NC359507  18.307  43.090   5.550
 7952POPC   PO459508  18.320  43.112   5.850
 7952POPC   GL159509  18.324  43.074   6.150
 7952POPC   GL259510  18.213  43.136   6.150
 7952POPC   C1A59511  18.245  43.114   6.450
 7952POPC   D2A59512  18.247  43.106   6.750
 7952POPC   C3A59513  18.239  43.147   7.050
 7952POPC   C4A59514  18.276  43.100   7.350
 7952POPC   C1B59515  18.036  43.258   6.450
 7952POPC   C2B59516  18.023  43.175   6.750
 7952POPC   C3B59517  18.012  43.253   7.050
 7952POPC   C4B59518  18.023  43.233   7.350
 7953POPC   NC359519  19.107   6.621   5.550
 7953POPC   PO459520  19.017   6.636   5.850
 7953POPC   GL159521  19.099   6.622   6.150
 7953POPC   GL259522  18.998   6.552   6.150
 7953POPC   C1A59523  19.014   6.665   6.450
 7953POPC   D2A59524  19.091   6.608   6.750
 7953POPC   C3A59525  19.082   6.678   7.050
 7953POPC   C4A59526  19.051   6.647   7.350
 7953POPC   C1B59527  18.973   6.382   6.450
 7953POPC   C2B59528  18.952   6.425   6.750
 7953POPC   C3B59529  18.981   6.359   7.050
 7953POPC   C4B59530  18.958   6.378   7.350
 7954POPC   NC359531  24.518  15.943   5.550
 7954POPC   PO459532  24.478  15.967   5.850
 7954POPC   GL159533  24.493  15.970   6.150
 7954POPC   GL259534  24.577  15.878   6.150
 7954POPC   C1A59535  24.492  15.949   6.450
 7954POPC   D2A59536  24.491  15.964   6.750
 7954POPC   C3A59537  24.453  15.973   7.050
 7954POPC   C4A59538  24.471  15.922   7.350
 7954POPC   C1B59539  24.609  15.746   6.450
 7954POPC   C2B59540  24.602  15.775   6.750
 7954POPC   C3B59541  24.632  15.779   7.050
 7954POPC   C4B59542  24.602  15.792   7.350
 7955POPC   NC359543  25.261   8.992   5.550
 7955POPC   PO459544  25.266   9.007   5.850
 7955POPC   GL159545  25.245   8.952   6.150
 7955POPC   GL259546  25.167   8.999   6.150
 7955POPC   C1A59547  25.250   8.948   6.450
 7955POPC   D2A59548  25.314   8.955   6.750
 7955POPC   C3A59549  25.286   8.942   7.050
 7955POPC   C4A59550  25.256   8.983   7.350
 7955POPC   C1B59551  24.987   9.118   6.450
 7955POPC   C2B59552  25.062   9.067   6.750
 7955POPC   C3B59553  25.049   9.034   7.050
 7955POPC   C4B59554  25.002   9.044   7.350
 7956POPC   NC359555  32.199  15.183   5.550
 7956POPC   PO459556  32.217  15.194   5.850
 7956POPC   GL159557  32.293  15.195   6.150
 7956POPC   GL259558  32.352  15.073   6.150
 7956POPC   C1A59559  32.293  15.154   6.450
 7956POPC   D2A59560  32.229  15.195   6.750
 7956POPC   C3A59561  32.283  15.222   7.050
 7956POPC   C4A59562  32.216  15.224   7.350
 7956POPC   C1B59563  32.396  14.950   6.450
 7956POPC   C2B59564  32.350  14.928   6.750
 7956POPC   C3B59565  32.423  15.012   7.050
 7956POPC   C4B59566  32.347  14.926   7.350
 7957POPC   NC359567  23.678   9.742   5.550
 7957POPC   PO459568  23.763   9.712   5.850
 7957POPC   GL159569  23.667   9.767   6.150
 7957POPC   GL259570  23.823   9.767   6.150
 7957POPC   C1A59571  23.701   9.763   6.450
 7957POPC   D2A59572  23.738   9.762   6.750
 7957POPC   C3A59573  23.692   9.782   7.050
 7957POPC   C4A59574  23.673   9.756   7.350
 7957POPC   C1B59575  23.925   9.808   6.450
 7957POPC   C2B59576  23.982   9.873   6.750
 7957POPC   C3B59577  23.975   9.782   7.050
 7957POPC   C4B59578  23.989   9.834   7.350
 7958POPC   NC359579  12.838  24.531   5.550
 7958POPC   PO459580  12.902  24.472   5.850
 7958POPC   GL159581  12.847  24.528   6.150
 7958POPC   GL259582  12.842  24.351   6.150
 7958POPC   C1A59583  12.825  24.477   6.450
 7958POPC   D2A59584  12.860  24.467   6.750
 7958POPC   C3A59585  12.871  24.471   7.050
 7958POPC   C4A59586  12.829  24.441   7.350
 7958POPC   C1B59587  12.834  24.213   6.450
 7958POPC   C2B59588  12.863  24.239   6.750
 7958POPC   C3B59589  12.890  24.224   7.050
 7958POPC   C4B59590  12.904  24.255   7.350
 7959POPC   NC359591  27.569  28.331   5.550
 7959POPC   PO459592  27.595  28.389   5.850
 7959POPC   GL159593  27.555  28.322   6.150
 7959POPC   GL259594  27.493  28.329   6.150
 7959POPC   C1A59595  27.592  28.403   6.450
 7959POPC   D2A59596  27.576  28.412   6.750
 7959POPC   C3A59597  27.632  28.345   7.050
 7959POPC   C4A59598  27.637  28.361   7.350
 7959POPC   C1B59599  27.319  28.294   6.450
 7959POPC   C2B59600  27.387  28.345   6.750
 7959POPC   C3B59601  27.302  28.374   7.050
 7959POPC   C4B59602  27.385  28.366   7.350
 7960POPC   NC359603  29.912  16.734   5.550
 7960POPC   PO459604  29.914  16.770   5.850
 7960POPC   GL159605  29.941  16.776   6.150
 7960POPC   GL259606  29.833  16.831   6.150
 7960POPC   C1A59607  29.969  16.682   6.450
 7960POPC   D2A59608  29.968  16.753   6.750
 7960POPC   C3A59609  29.884  16.686   7.050
 7960POPC   C4A59610  29.965  16.764   7.350
 7960POPC   C1B59611  29.771  16.993   6.450
 7960POPC   C2B59612  29.850  16.979   6.750
 7960POPC   C3B59613  29.829  16.919   7.050
 7960POPC   C4B59614  29.838  16.941   7.350
 7961POPC   NC359615  42.344  10.538   5.550
 7961POPC   PO459616  42.349  10.550   5.850
 7961POPC   GL159617  42.376  10.534   6.150
 7961POPC   GL259618  42.457  10.441   6.150
 7961POPC   C1A59619  42.377  10.503   6.450
 7961POPC   D2A59620  42.327  10.516   6.750
 7961POPC   C3A59621  42.316  10.526   7.050
 7961POPC   C4A59622  42.329  10.564   7.350
 7961POPC   C1B59623  42.504  10.324   6.450
 7961POPC   C2B59624  42.545  10.319   6.750
 7961POPC   C3B59625  42.533  10.330   7.050
 7961POPC   C4B59626  42.482  10.370   7.350
 7962POPC   NC359627  34.617  33.812   5.550
 7962POPC   PO459628  34.595  33.844   5.850
 7962POPC   GL159629  34.532  33.777   6.150
 7962POPC   GL259630  34.495  33.834   6.150
 7962POPC   C1A59631  34.543  33.809   6.450
 7962POPC   D2A59632  34.597  33.753   6.750
 7962POPC   C3A59633  34.617  33.849   7.050
 7962POPC   C4A59634  34.592  33.783   7.350
 7962POPC   C1B59635  34.392  33.928   6.450
 7962POPC   C2B59636  34.339  33.971   6.750
 7962POPC   C3B59637  34.394  33.907   7.050
 7962POPC   C4B59638  34.331  33.971   7.350
 7963POPC   NC359639  32.221  41.531   5.550
 7963POPC   PO459640  32.200  41.561   5.850
 7963POPC   GL159641  32.272  41.570   6.150
 7963POPC   GL259642  32.346  41.527   6.150
 7963POPC   C1A59643  32.259  41.579   6.450
 7963POPC   D2A59644  32.263  41.600   6.750
 7963POPC   C3A59645  32.286  41.575   7.050
 7963POPC   C4A59646  32.292  41.593   7.350
 7963POPC   C1B59647  32.518  41.429   6.450
 7963POPC   C2B59648  32.460  41.426   6.750
 7963POPC   C3B59649  32.493  41.428   7.050
 7963POPC   C4B59650  32.461  41.427   7.350
 7964POPC   NC359651  22.968   0.431   5.550
 7964POPC   PO459652  22.981   0.473   5.850
 7964POPC   GL159653  22.925   0.431   6.150
 7964POPC   GL259654  22.877   0.576   6.150
 7964POPC   C1A59655  22.972   0.486   6.450
 7964POPC   D2A59656  22.912   0.460   6.750
 7964POPC   C3A59657  22.918   0.460   7.050
 7964POPC   C4A59658  22.924   0.425   7.350
 7964POPC   C1B59659  22.790   0.698   6.450
 7964POPC   C2B59660  22.817   0.666   6.750
 7964POPC   C3B59661  22.843   0.664   7.050
 7964POPC   C4B59662  22.878   0.669   7.350
 7965POPC   NC359663  43.851  17.525   5.550
 7965POPC   PO459664  43.935  17.531   5.850
 7965POPC   GL159665  43.845  17.539   6.150
 7965POPC   GL259666  43.788  17.569   6.150
 7965POPC   C1A59667  43.855  17.520   6.450
 7965POPC   D2A59668  43.922  17.520   6.750
 7965POPC   C3A59669  43.843  17.525   7.050
 7965POPC   C4A59670  43.931  17.534   7.350
 7965POPC   C1B59671  43.637  17.676   6.450
 7965POPC   C2B59672  43.658  17.630   6.750
 7965POPC   C3B59673  43.644  17.647   7.050
 7965POPC   C4B59674  43.666  17.610   7.350
 7966POPC   NC359675   8.936  42.292   5.550
 7966POPC   PO459676   8.930  42.312   5.850
 7966POPC   GL159677   8.982  42.299   6.150
 7966POPC   GL259678   9.068  42.431   6.150
 7966POPC   C1A59679   9.017  42.343   6.450
 7966POPC   D2A59680   8.994  42.356   6.750
 7966POPC   C3A59681   9.001  42.332   7.050
 7966POPC   C4A59682   8.944  42.309   7.350
 7966POPC   C1B59683   9.239  42.433   6.450
 7966POPC   C2B59684   9.148  42.463   6.750
 7966POPC   C3B59685   9.224  42.494   7.050
 7966POPC   C4B59686   9.169  42.499   7.350
 7967POPC   NC359687   5.838   4.342   5.550
 7967POPC   PO459688   5.913   4.348   5.850
 7967POPC   GL159689   5.870   4.297   6.150
 7967POPC   GL259690   5.762   4.319   6.150
 7967POPC   C1A59691   5.886   4.310   6.450
 7967POPC   D2A59692   5.888   4.313   6.750
 7967POPC   C3A59693   5.866   4.285   7.050
 7967POPC   C4A59694   5.894   4.274   7.350
 7967POPC   C1B59695   5.595   4.299   6.450
 7967POPC   C2B59696   5.630   4.294   6.750
 7967POPC   C3B59697   5.597   4.303   7.050
 7967POPC   C4B59698   5.653   4.389   7.350
 7968POPC   NC359699   5.876  19.064   5.550
 7968POPC   PO459700   5.851  19.097   5.850
 7968POPC   GL159701   5.893  19.086   6.150
 7968POPC   GL259702   5.933  19.208   6.150
 7968POPC   C1A59703   5.859  19.071   6.450
 7968POPC   D2A59704   5.855  19.026   6.750
 7968POPC   C3A59705   5.819  19.030   7.050
 7968POPC   C4A59706   5.908  19.083   7.350
 7968POPC   C1B59707   6.037  19.281   6.450
 7968POPC   C2B59708   5.961  19.277   6.750
 7968POPC   C3B59709   5.969  19.296   7.050
 7968POPC   C4B59710   5.993  19.282   7.350
 7969POPC   NC359711  25.998  37.653   5.550
 7969POPC   PO459712  26.088  37.654   5.850
 7969POPC   GL159713  26.038  37.680   6.150
 7969POPC   GL259714  26.083  37.558   6.150
 7969POPC   C1A59715  25.993  37.703   6.450
 7969POPC   D2A59716  26.028  37.639   6.750
 7969POPC   C3A59717  25.993  37.726   7.050
 7969POPC   C4A59718  26.090  37.655   7.350
 7969POPC   C1B59719  26.150  37.485   6.450
 7969POPC   C2B59720  26.143  37.503   6.750
 7969POPC   C3B59721  26.134  37.419   7.050
 7969POPC   C4B59722  26.124  37.438   7.350
 7970POPC   NC359723   7.464  24.505   5.550
 7970POPC   PO459724   7.460  24.470   5.850
 7970POPC   GL159725   7.461  24.525   6.150
 7970POPC   GL259726   7.445  24.565   6.150
 7970POPC   C1A59727   7.437  24.466   6.450
 7970POPC   D2A59728   7.390  24.485   6.750
 7970POPC   C3A59729   7.433  24.458   7.050
 7970POPC   C4A59730   7.450  24.467   7.350
 7970POPC   C1B59731   7.480  24.692   6.450
 7970POPC   C2B59732   7.477  24.760   6.750
 7970POPC   C3B59733   7.445  24.700   7.050
 7970POPC   C4B59734   7.468  24.714   7.350
 7971POPC   NC359735  12.062  43.144   5.550
 7971POPC   PO459736  12.085  43.109   5.850
 7971POPC   GL159737  12.086  43.101   6.150
 7971POPC   GL259738  12.112  43.225   6.150
 7971POPC   C1A59739  12.032  43.110   6.450
 7971POPC   D2A59740  12.040  43.151   6.750
 7971POPC   C3A59741  12.035  43.133   7.050
 7971POPC   C4A59742  12.100  43.135   7.350
 7971POPC   C1B59743  12.201  43.319   6.450
 7971POPC   C2B59744  12.179  43.349   6.750
 7971POPC   C3B59745  12.140  43.334   7.050
 7971POPC   C4B59746  12.169  43.303   7.350
 7972POPC   NC359747   0.484  26.818   5.550
 7972POPC   PO459748   0.425  26.784   5.850
 7972POPC   GL159749   0.408  26.844   6.150
 7972POPC   GL259750   0.514  26.890   6.150
 7972POPC   C1A59751   0.471  26.818   6.450
 7972POPC   D2A59752   0.393  26.819   6.750
 7972POPC   C3A59753   0.389  26.852   7.050
 7972POPC   C4A59754   0.395  26.861   7.350
 7972POPC   C1B59755   0.632  27.002   6.450
 7972POPC   C2B59756   0.634  26.991   6.750
 7972POPC   C3B59757   0.628  26.966   7.050
 7972POPC   C4B59758   0.561  26.981   7.350
 7973POPC   NC359759  30.689  40.783   5.550
 7973POPC   PO459760  30.697  40.763   5.850
 7973POPC   GL159761  30.681  40.827   6.150
 7973POPC   GL259762  30.662  40.847   6.150
 7973POPC   C1A59763  30.655  40.814   6.450
 7973POPC   D2A59764  30.666  40.826   6.750
 7973POPC   C3A59765  30.664  40.768   7.050
 7973POPC   C4A59766  30.725  40.810   7.350
 7973POPC   C1B59767  30.549  41.029   6.450
 7973POPC   C2B59768  30.604  40.956   6.750
 7973POPC   C3B59769  30.582  41.022   7.050
 7973POPC   C4B59770  30.618  40.977   7.350
 7974POPC   NC359771  29.926   3.566   5.550
 7974POPC   PO459772  29.907   3.544   5.850
 7974POPC   GL159773  29.874   3.565   6.150
 7974POPC   GL259774  29.754   3.579   6.150
 7974POPC   C1A59775  29.949   3.551   6.450
 7974POPC   D2A59776  29.950   3.493   6.750
 7974POPC   C3A59777  29.878   3.503   7.050
 7974POPC   C4A59778  29.879   3.569   7.350
 7974POPC   C1B59779  29.677   3.552   6.450
 7974POPC   C2B59780  29.725   3.571   6.750
 7974POPC   C3B59781  29.659   3.623   7.050
 7974POPC   C4B59782  29.636   3.595   7.350
 7975POPC   NC359783  43.872  33.819   5.550
 7975POPC   PO459784  43.934  33.781   5.850
 7975POPC   GL159785  43.843  33.791   6.150
 7975POPC   GL259786  43.939  33.875   6.150
 7975POPC   C1A59787  43.899  33.846   6.450
 7975POPC   D2A59788  43.907  33.814   6.750
 7975POPC   C3A59789  43.874  33.827   7.050
 7975POPC   C4A59790  43.878  33.791   7.350
 7975POPC   C1B59791  44.004  34.013   6.450
 7975POPC   C2B59792  43.943  34.011   6.750
 7975POPC   C3B59793  43.964  34.043   7.050
 7975POPC   C4B59794  43.977  34.058   7.350
 7976POPC   NC359795  24.468  31.444   5.550
 7976POPC   PO459796  24.519  31.513   5.850
 7976POPC   GL159797  24.451  31.480   6.150
 7976POPC   GL259798  24.646  31.475   6.150
 7976POPC   C1A59799  24.451  31.505   6.450
 7976POPC   D2A59800  24.503  31.506   6.750
 7976POPC   C3A59801  24.506  31.492   7.050
 7976POPC   C4A59802  24.479  31.461   7.350
 7976POPC   C1B59803  24.754  31.466   6.450
 7976POPC   C2B59804  24.735  31.449   6.750
 7976POPC   C3B59805  24.751  31.435   7.050
 7976POPC   C4B59806  24.719  31.438   7.350
 7977POPC   NC359807  22.202  20.630   5.550
 7977POPC   PO459808  22.117  20.639   5.850
 7977POPC   GL159809  22.120  20.594   6.150
 7977POPC   GL259810  22.198  20.531   6.150
 7977POPC   C1A59811  22.152  20.622   6.450
 7977POPC   D2A59812  22.152  20.614   6.750
 7977POPC   C3A59813  22.130  20.618   7.050
 7977POPC   C4A59814  22.176  20.610   7.350
 7977POPC   C1B59815  22.156  20.348   6.450
 7977POPC   C2B59816  22.142  20.326   6.750
 7977POPC   C3B59817  22.146  20.389   7.050
 7977POPC   C4B59818  22.182  20.335   7.350
 7978POPC   NC359819  13.582  38.469   5.550
 7978POPC   PO459820  13.595  38.481   5.850
 7978POPC   GL159821  13.612  38.412   6.150
 7978POPC   GL259822  13.592  38.350   6.150
 7978POPC   C1A59823  13.599  38.493   6.450
 7978POPC   D2A59824  13.594  38.456   6.750
 7978POPC   C3A59825  13.589  38.409   7.050
 7978POPC   C4A59826  13.632  38.422   7.350
 7978POPC   C1B59827  13.636  38.171   6.450
 7978POPC   C2B59828  13.604  38.213   6.750
 7978POPC   C3B59829  13.619  38.161   7.050
 7978POPC   C4B59830  13.598  38.218   7.350
 7979POPC   NC359831   0.452  30.728   5.550
 7979POPC   PO459832   0.430  30.731   5.850
 7979POPC   GL159833   0.420  30.652   6.150
 7979POPC   GL259834   0.289  30.712   6.150
 7979POPC   C1A59835   0.465  30.737   6.450
 7979POPC   D2A59836   0.477  30.735   6.750
 7979POPC   C3A59837   0.483  30.710   7.050
 7979POPC   C4A59838   0.394  30.743   7.350
 7979POPC   C1B59839   0.201  30.726   6.450
 7979POPC   C2B59840   0.191  30.737   6.750
 7979POPC   C3B59841   0.223  30.671   7.050
 7979POPC   C4B59842   0.230  30.761   7.350
 7980POPC   NC359843   2.777  28.383   5.550
 7980POPC   PO459844   2.809  28.415   5.850
 7980POPC   GL159845   2.725  28.337   6.150
 7980POPC   GL259846   2.683  28.406   6.150
 7980POPC   C1A59847   2.790  28.359   6.450
 7980POPC   D2A59848   2.794  28.386   6.750
 7980POPC   C3A59849   2.740  28.391   7.050
 7980POPC   C4A59850   2.778  28.345   7.350
 7980POPC   C1B59851   2.563  28.400   6.450
 7980POPC   C2B59852   2.540  28.446   6.750
 7980POPC   C3B59853   2.570  28.473   7.050
 7980POPC   C4B59854   2.530  28.467   7.350
 7981POPC   NC359855   8.923   3.509   5.550
 7981POPC   PO459856   8.995   3.567   5.850
 7981POPC   GL159857   8.968   3.542   6.150
 7981POPC   GL259858   9.019   3.491   6.150
 7981POPC   C1A59859   9.022   3.590   6.450
 7981POPC   D2A59860   8.996   3.502   6.750
 7981POPC   C3A59861   8.978   3.559   7.050
 7981POPC   C4A59862   9.014   3.555   7.350
 7981POPC   C1B59863   9.153   3.318   6.450
 7981POPC   C2B59864   9.169   3.327   6.750
 7981POPC   C3B59865   9.152   3.376   7.050
 7981POPC   C4B59866   9.200   3.383   7.350
 7982POPC   NC359867  34.624  19.045   5.550
 7982POPC   PO459868  34.582  19.050   5.850
 7982POPC   GL159869  34.603  19.025   6.150
 7982POPC   GL259870  34.586  19.161   6.150
 7982POPC   C1A59871  34.576  19.027   6.450
 7982POPC   D2A59872  34.621  19.025   6.750
 7982POPC   C3A59873  34.533  19.046   7.050
 7982POPC   C4A59874  34.526  19.048   7.350
 7982POPC   C1B59875  34.472  19.329   6.450
 7982POPC   C2B59876  34.461  19.301   6.750
 7982POPC   C3B59877  34.483  19.308   7.050
 7982POPC   C4B59878  34.514  19.262   7.350
 7983POPC   NC359879  42.295  17.469   5.550
 7983POPC   PO459880  42.351  17.516   5.850
 7983POPC   GL159881  42.372  17.457   6.150
 7983POPC   GL259882  42.412  17.591   6.150
 7983POPC   C1A59883  42.382  17.518   6.450
 7983POPC   D2A59884  42.318  17.488   6.750
 7983POPC   C3A59885  42.348  17.544   7.050
 7983POPC   C4A59886  42.364  17.533   7.350
 7983POPC   C1B59887  42.455  17.716   6.450
 7983POPC   C2B59888  42.483  17.728   6.750
 7983POPC   C3B59889  42.451  17.683   7.050
 7983POPC   C4B59890  42.456  17.682   7.350
 7984POPC   NC359891  36.868  30.745   5.550
 7984POPC   PO459892  36.872  30.670   5.850
 7984POPC   GL159893  36.886  30.698   6.150
 7984POPC   GL259894  36.814  30.597   6.150
 7984POPC   C1A59895  36.855  30.672   6.450
 7984POPC   D2A59896  36.896  30.730   6.750
 7984POPC   C3A59897  36.868  30.705   7.050
 7984POPC   C4A59898  36.869  30.680   7.350
 7984POPC   C1B59899  36.835  30.471   6.450
 7984POPC   C2B59900  36.801  30.500   6.750
 7984POPC   C3B59901  36.842  30.437   7.050
 7984POPC   C4B59902  36.788  30.493   7.350
 7985POPC   NC359903  25.250  40.813   5.550
 7985POPC   PO459904  25.250  40.740   5.850
 7985POPC   GL159905  25.263  40.808   6.150
 7985POPC   GL259906  25.146  40.713   6.150
 7985POPC   C1A59907  25.300  40.759   6.450
 7985POPC   D2A59908  25.237  40.744   6.750
 7985POPC   C3A59909  25.308  40.776   7.050
 7985POPC   C4A59910  25.218  40.762   7.350
 7985POPC   C1B59911  24.984  40.688   6.450
 7985POPC   C2B59912  25.031  40.711   6.750
 7985POPC   C3B59913  24.976  40.687   7.050
 7985POPC   C4B59914  24.990  40.782   7.350
 7986POPC   NC359915  40.005  33.029   5.550
 7986POPC   PO459916  39.981  32.983   5.850
 7986POPC   GL159917  39.991  32.994   6.150
 7986POPC   GL259918  40.099  32.975   6.150
 7986POPC   C1A59919  40.048  33.056   6.450
 7986POPC   D2A59920  40.025  33.061   6.750
 7986POPC   C3A59921  40.002  33.017   7.050
 7986POPC   C4A59922  39.984  32.979   7.350
 7986POPC   C1B59923  40.208  32.886   6.450
 7986POPC   C2B59924  40.186  32.817   6.750
 7986POPC   C3B59925  40.243  32.829   7.050
 7986POPC   C4B59926  40.217  32.909   7.350
 7987POPC   NC359927   2.793  43.095   5.550
 7987POPC   PO459928   2.804  43.153   5.850
 7987POPC   GL159929   2.783  43.121   6.150
 7987POPC   GL259930   2.674  43.007   6.150
 7987POPC   C1A59931   2.760  43.124   6.450
 7987POPC   D2A59932   2.721  43.134   6.750
 7987POPC   C3A59933   2.808  43.109   7.050
 7987POPC   C4A59934   2.812  43.085   7.350
 7987POPC   C1B59935   2.617  42.910   6.450
 7987POPC   C2B59936   2.559  42.902   6.750
 7987POPC   C3B59937   2.618  42.931   7.050
 7987POPC   C4B59938   2.616  42.881   7.350
 7988POPC   NC359939  27.547  23.748   5.550
 7988POPC   PO459940  27.564  23.671   5.850
 7988POPC   GL159941  27.551  23.674   6.150
 7988POPC   GL259942  27.744  23.804   6.150
 7988POPC   C1A59943  27.567  23.747   6.450
 7988POPC   D2A59944  27.614  23.758   6.750
 7988POPC   C3A59945  27.604  23.712   7.050
 7988POPC   C4A59946  27.558  23.746   7.350
 7988POPC   C1B59947  27.801  23.795   6.450
 7988POPC   C2B59948  27.850  23.801   6.750
 7988POPC   C3B59949  27.780  23.816   7.050
 7988POPC   C4B59950  27.805  23.825   7.350
 7989POPC   NC359951  12.896  11.329   5.550
 7989POPC   PO459952  12.844  11.341   5.850
 7989POPC   GL159953  12.815  11.265   6.150
 7989POPC   GL259954  12.714  11.269   6.150
 7989POPC   C1A59955  12.839  11.309   6.450
 7989POPC   D2A59956  12.820  11.289   6.750
 7989POPC   C3A59957  12.872  11.273   7.050
 7989POPC   C4A59958  12.892  11.285   7.350
 7989POPC   C1B59959  12.625  11.268   6.450
 7989POPC   C2B59960  12.601  11.202   6.750
 7989POPC   C3B59961  12.585  11.289   7.050
 7989POPC   C4B59962  12.653  11.241   7.350
 7990POPC   NC359963  40.796  16.702   5.550
 7990POPC   PO459964  40.758  16.759   5.850
 7990POPC   GL159965  40.811  16.756   6.150
 7990POPC   GL259966  40.645  16.748   6.150
 7990POPC   C1A59967  40.805  16.699   6.450
 7990POPC   D2A59968  40.771  16.727   6.750
 7990POPC   C3A59969  40.760  16.739   7.050
 7990POPC   C4A59970  40.807  16.691   7.350
 7990POPC   C1B59971  40.487  16.702   6.450
 7990POPC   C2B59972  40.496  16.703   6.750
 7990POPC   C3B59973  40.507  16.684   7.050
 7990POPC   C4B59974  40.576  16.698   7.350
 7991POPC   NC359975  15.916   8.945   5.550
 7991POPC   PO459976  15.977   8.967   5.850
 7991POPC   GL159977  15.997   8.989   6.150
 7991POPC   GL259978  15.927   9.101   6.150
 7991POPC   C1A59979  15.923   8.961   6.450
 7991POPC   D2A59980  15.998   9.009   6.750
 7991POPC   C3A59981  15.943   8.991   7.050
 7991POPC   C4A59982  15.921   8.938   7.350
 7991POPC   C1B59983  15.843   9.180   6.450
 7991POPC   C2B59984  15.796   9.189   6.750
 7991POPC   C3B59985  15.841   9.127   7.050
 7991POPC   C4B59986  15.763   9.168   7.350
 7992POPC   NC359987  16.755  10.517   5.550
 7992POPC   PO459988  16.686  10.533   5.850
 7992POPC   GL159989  16.723  10.507   6.150
 7992POPC   GL259990  16.594  10.592   6.150
 7992POPC   C1A59991  16.727  10.488   6.450
 7992POPC   D2A59992  16.738  10.540   6.750
 7992POPC   C3A59993  16.691  10.497   7.050
 7992POPC   C4A59994  16.758  10.514   7.350
 7992POPC   C1B59995  16.551  10.640   6.450
 7992POPC   C2B59996  16.480  10.656   6.750
 7992POPC   C3B59997  16.547  10.615   7.050
 7992POPC   C4B59998  16.512  10.685   7.350
 7993POPC   NC359999  43.927   9.735   5.550
 7993POPC   PO460000  43.880   9.774   5.850
 7993POPC   GL160001  43.909   9.755   6.150
 7993POPC   GL260002  43.901   9.614   6.150
 7993POPC   C1A60003  43.889   9.706   6.450
 7993POPC   D2A60004  43.918   9.765   6.750
 7993POPC   C3A60005  43.902   9.710   7.050
 7993POPC   C4A60006  43.852   9.726   7.350
 7993POPC   C1B60007  43.857   9.522   6.450
 7993POPC   C2B60008  43.847   9.538   6.750
 7993POPC   C3B60009  43.839   9.548   7.050
 7993POPC   C4B60010  43.890   9.452   7.350
 7994POPC   NC360011  33.765   5.127   5.550
 7994POPC   PO460012  33.837   5.136   5.850
 7994POPC   GL160013  33.810   5.079   6.150
 7994POPC   GL260014  33.876   5.208   6.150
 7994POPC   C1A60015  33.836   5.142   6.450
 7994POPC   D2A60016  33.767   5.083   6.750
 7994POPC   C3A60017  33.807   5.070   7.050
 7994POPC   C4A60018  33.760   5.104   7.350
 7994POPC   C1B60019  33.884   5.366   6.450
 7994POPC   C2B60020  33.857   5.303   6.750
 7994POPC   C3B60021  33.882   5.348   7.050
 7994POPC   C4B60022  33.925   5.287   7.350
 7995POPC   NC360023  13.608  34.582   5.550
 7995POPC   PO460024  13.601  34.553   5.850
 7995POPC   GL160025  13.646  34.598   6.150
 7995POPC   GL260026  13.692  34.684   6.150
 7995POPC   C1A60027  13.596  34.577   6.450
 7995POPC   D2A60028  13.597  34.588   6.750
 7995POPC   C3A60029  13.655  34.614   7.050
 7995POPC   C4A60030  13.674  34.624   7.350
 7995POPC   C1B60031  13.812  34.754   6.450
 7995POPC   C2B60032  13.802  34.747   6.750
 7995POPC   C3B60033  13.774  34.721   7.050
 7995POPC   C4B60034  13.779  34.796   7.350
 7996POPC   NC360035  12.087   7.463   5.550
 7996POPC   PO460036  12.054   7.380   5.850
 7996POPC   GL160037  12.059   7.437   6.150
 7996POPC   GL260038  12.169   7.511   6.150
 7996POPC   C1A60039  12.058   7.447   6.450
 7996POPC   D2A60040  12.116   7.456   6.750
 7996POPC   C3A60041  12.065   7.407   7.050
 7996POPC   C4A60042  12.046   7.424   7.350
 7996POPC   C1B60043  12.284   7.599   6.450
 7996POPC   C2B60044  12.271   7.579   6.750
 7996POPC   C3B60045  12.246   7.522   7.050
 7996POPC   C4B60046  12.319   7.614   7.350
 7997POPC   NC360047  26.048  22.122   5.550
 7997POPC   PO460048  25.996  22.121   5.850
 7997POPC   GL160049  26.080  22.199   6.150
 7997POPC   GL260050  26.136  22.186   6.150
 7997POPC   C1A60051  26.004  22.130   6.450
 7997POPC   D2A60052  26.028  22.193   6.750
 7997POPC   C3A60053  26.045  22.115   7.050
 7997POPC   C4A60054  26.024  22.143   7.350
 7997POPC   C1B60055  26.284  22.160   6.450
 7997POPC   C2B60056  26.292  22.207   6.750
 7997POPC   C3B60057  26.299  22.182   7.050
 7997POPC   C4B60058  26.274  22.210   7.350
 7998POPC   NC360059  39.246   1.993   5.550
 7998POPC   PO460060  39.258   1.971   5.850
 7998POPC   GL160061  39.272   2.019   6.150
 7998POPC   GL260062  39.145   2.104   6.150
 7998POPC   C1A60063  39.215   1.957   6.450
 7998POPC   D2A60064  39.209   1.997   6.750
 7998POPC   C3A60065  39.204   2.032   7.050
 7998POPC   C4A60066  39.259   1.980   7.350
 7998POPC   C1B60067  39.097   2.154   6.450
 7998POPC   C2B60068  39.058   2.206   6.750
 7998POPC   C3B60069  39.045   2.187   7.050
 7998POPC   C4B60070  39.103   2.144   7.350
 7999POPC   NC360071   1.166   6.677   5.550
 7999POPC   PO460072   1.252   6.670   5.850
 7999POPC   GL160073   1.244   6.630   6.150
 7999POPC   GL260074   1.094   6.648   6.150
 7999POPC   C1A60075   1.194   6.689   6.450
 7999POPC   D2A60076   1.184   6.684   6.750
 7999POPC   C3A60077   1.205   6.660   7.050
 7999POPC   C4A60078   1.227   6.652   7.350
 7999POPC   C1B60079   0.933   6.607   6.450
 7999POPC   C2B60080   0.972   6.577   6.750
 7999POPC   C3B60081   0.921   6.601   7.050
 7999POPC   C4B60082   0.945   6.588   7.350
 8000POPC   NC360083  26.071  14.380   5.550
 8000POPC   PO460084  26.068  14.379   5.850
 8000POPC   GL160085  26.029  14.372   6.150
 8000POPC   GL260086  26.116  14.439   6.150
 8000POPC   C1A60087  25.993  14.437   6.450
 8000POPC   D2A60088  26.046  14.363   6.750
 8000POPC   C3A60089  26.068  14.408   7.050
 8000POPC   C4A60090  26.076  14.413   7.350
 8000POPC   C1B60091  26.273  14.495   6.450
 8000POPC   C2B60092  26.235  14.515   6.750
 8000POPC   C3B60093  26.214  14.522   7.050
 8000POPC   C4B60094  26.242  14.560   7.350
 8001POPC   NC360095  42.297   5.911   5.550
 8001POPC   PO460096  42.369   5.828   5.850
 8001POPC   GL160097  42.356   5.855   6.150
 8001POPC   GL260098  42.278   5.819   6.150
 8001POPC   C1A60099  42.324   5.877   6.450
 8001POPC   D2A60100  42.352   5.827   6.750
 8001POPC   C3A60101  42.365   5.897   7.050
 8001POPC   C4A60102  42.287   5.834   7.350
 8001POPC   C1B60103  42.151   5.734   6.450
 8001POPC   C2B60104  42.146   5.734   6.750
 8001POPC   C3B60105  42.138   5.760   7.050
 8001POPC   C4B60106  42.183   5.711   7.350
 8002POPC   NC360107   9.725  19.873   5.550
 8002POPC   PO460108   9.721  19.868   5.850
 8002POPC   GL160109   9.758  19.792   6.150
 8002POPC   GL260110   9.884  19.872   6.150
 8002POPC   C1A60111   9.745  19.787   6.450
 8002POPC   D2A60112   9.730  19.884   6.750
 8002POPC   C3A60113   9.774  19.861   7.050
 8002POPC   C4A60114   9.790  19.810   7.350
 8002POPC   C1B60115   9.927  19.934   6.450
 8002POPC   C2B60116   9.981  19.946   6.750
 8002POPC   C3B60117   9.978  19.918   7.050
 8002POPC   C4B60118   9.955  19.918   7.350
 8003POPC   NC360119  16.720  25.265   5.550
 8003POPC   PO460120  16.729  25.314   5.850
 8003POPC   GL160121  16.724  25.297   6.150
 8003POPC   GL260122  16.739  25.363   6.150
 8003POPC   C1A60123  16.776  25.258   6.450
 8003POPC   D2A60124  16.722  25.290   6.750
 8003POPC   C3A60125  16.767  25.272   7.050
 8003POPC   C4A60126  16.777  25.242   7.350
 8003POPC   C1B60127  16.811  25.519   6.450
 8003POPC   C2B60128  16.784  25.557   6.750
 8003POPC   C3B60129  16.790  25.474   7.050
 8003POPC   C4B60130  16.764  25.527   7.350
 8004POPC   NC360131  36.139  25.283   5.550
 8004POPC   PO460132  36.080  25.242   5.850
 8004POPC   GL160133  36.177  25.226   6.150
 8004POPC   GL260134  36.233  25.340   6.150
 8004POPC   C1A60135  36.158  25.226   6.450
 8004POPC   D2A60136  36.094  25.272   6.750
 8004POPC   C3A60137  36.131  25.270   7.050
 8004POPC   C4A60138  36.140  25.228   7.350
 8004POPC   C1B60139  36.292  25.442   6.450
 8004POPC   C2B60140  36.362  25.380   6.750
 8004POPC   C3B60141  36.292  25.407   7.050
 8004POPC   C4B60142  36.355  25.421   7.350
 8005POPC   NC360143  33.755  29.884   5.550
 8005POPC   PO460144  33.842  29.885   5.850
 8005POPC   GL160145  33.795  29.925   6.150
 8005POPC   GL260146  33.791  29.780   6.150
 8005POPC   C1A60147  33.784  29.967   6.450
 8005POPC   D2A60148  33.803  29.938   6.750
 8005POPC   C3A60149  33.817  29.946   7.050
 8005POPC   C4A60150  33.848  29.924   7.350
 8005POPC   C1B60151  33.760  29.663   6.450
 8005POPC   C2B60152  33.830  29.628   6.750
 8005POPC   C3B60153  33.825  29.627   7.050
 8005POPC   C4B60154  33.771  29.711   7.350
 8006POPC   NC360155  30.656  14.371   5.550
 8006POPC   PO460156  30.652  14.385   5.850
 8006POPC   GL160157  30.692  14.371   6.150
 8006POPC   GL260158  30.619  14.542   6.150
 8006POPC   C1A60159  30.686  14.427   6.450
 8006POPC   D2A60160  30.685  14.397   6.750
 8006POPC   C3A60161  30.684  14.452   7.050
 8006POPC   C4A60162  30.653  14.445   7.350
 8006POPC   C1B60163  30.592  14.625   6.450
 8006POPC   C2B60164  30.547  14.587   6.750
 8006POPC   C3B60165  30.565  14.636   7.050
 8006POPC   C4B60166  30.595  14.625   7.350
 8007POPC   NC360167  34.582  35.345   5.550
 8007POPC   PO460168  34.535  35.353   5.850
 8007POPC   GL160169  34.584  35.325   6.150
 8007POPC   GL260170  34.589  35.219   6.150
 8007POPC   C1A60171  34.602  35.340   6.450
 8007POPC   D2A60172  34.571  35.326   6.750
 8007POPC   C3A60173  34.592  35.386   7.050
 8007POPC   C4A60174  34.563  35.359   7.350
 8007POPC   C1B60175  34.516  35.148   6.450
 8007POPC   C2B60176  34.500  35.112   6.750
 8007POPC   C3B60177  34.507  35.067   7.050
 8007POPC   C4B60178  34.497  35.061   7.350
 8008POPC   NC360179  17.498  38.413   5.550
 8008POPC   PO460180  17.525  38.502   5.850
 8008POPC   GL160181  17.488  38.485   6.150
 8008POPC   GL260182  17.442  38.322   6.150
 8008POPC   C1A60183  17.477  38.426   6.450
 8008POPC   D2A60184  17.488  38.436   6.750
 8008POPC   C3A60185  17.521  38.449   7.050
 8008POPC   C4A60186  17.512  38.457   7.350
 8008POPC   C1B60187  17.481  38.176   6.450
 8008POPC   C2B60188  17.447  38.207   6.750
 8008POPC   C3B60189  17.434  38.177   7.050
 8008POPC   C4B60190  17.438  38.252   7.350
 8009POPC   NC360191  36.094  42.354   5.550
 8009POPC   PO460192  36.177  42.339   5.850
 8009POPC   GL160193  36.127  42.297   6.150
 8009POPC   GL260194  36.259  42.336   6.150
 8009POPC   C1A60195  36.136  42.313   6.450
 8009POPC   D2A60196  36.121  42.343   6.750
 8009POPC   C3A60197  36.139  42.313   7.050
 8009POPC   C4A60198  36.096  42.376   7.350
 8009POPC   C1B60199  36.366  42.256   6.450
 8009POPC   C2B60200  36.376  42.240   6.750
 8009POPC   C3B60201  36.380  42.256   7.050
 8009POPC   C4B60202  36.323  42.330   7.350
 8010POPC   NC360203  31.426  43.132   5.550
 8010POPC   PO460204  31.475  43.099   5.850
 8010POPC   GL160205  31.499  43.100   6.150
 8010POPC   GL260206  31.317  43.078   6.150
 8010POPC   C1A60207  31.467  43.159   6.450
 8010POPC   D2A60208  31.445  43.078   6.750
 8010POPC   C3A60209  31.460  43.159   7.050
 8010POPC   C4A60210  31.434  43.150   7.350
 8010POPC   C1B60211  31.203  43.046   6.450
 8010POPC   C2B60212  31.275  42.999   6.750
 8010POPC   C3B60213  31.275  42.969   7.050
 8010POPC   C4B60214  31.257  43.000   7.350
 8011POPC   NC360215  37.686  10.520   5.550
 8011POPC   PO460216  37.683  10.533   5.850
 8011POPC   GL160217  37.688  10.557   6.150
 8011POPC   GL260218  37.752  10.428   6.150
 8011POPC   C1A60219  37.708  10.478   6.450
 8011POPC   D2A60220  37.717  10.483   6.750
 8011POPC   C3A60221  37.674  10.526   7.050
 8011POPC   C4A60222  37.674  10.564   7.350
 8011POPC   C1B60223  37.845  10.341   6.450
 8011POPC   C2B60224  37.895  10.315   6.750
 8011POPC   C3B60225  37.821  10.305   7.050
 8011POPC   C4B60226  37.854  10.298   7.350
 8012POPC   NC360227  22.965  28.380   5.550
 8012POPC   PO460228  22.941  28.352   5.850
 8012POPC   GL160229  22.899  28.381   6.150
 8012POPC   GL260230  22.826  28.389   6.150
 8012POPC   C1A60231  22.986  28.399   6.450
 8012POPC   D2A60232  22.965  28.346   6.750
 8012POPC   C3A60233  22.928  28.373   7.050
 8012POPC   C4A60234  22.903  28.378   7.350
 8012POPC   C1B60235  22.678  28.473   6.450
 8012POPC   C2B60236  22.752  28.498   6.750
 8012POPC   C3B60237  22.740  28.513   7.050
 8012POPC   C4B60238  22.730  28.506   7.350
 8013POPC   NC360239  26.039  24.510   5.550
 8013POPC   PO460240  26.029  24.522   5.850
 8013POPC   GL160241  26.015  24.511   6.150
 8013POPC   GL260242  26.144  24.376   6.150
 8013POPC   C1A60243  26.085  24.490   6.450
 8013POPC   D2A60244  26.063  24.459   6.750
 8013POPC   C3A60245  26.083  24.509   7.050
 8013POPC   C4A60246  26.083  24.511   7.350
 8013POPC   C1B60247  26.207  24.272   6.450
 8013POPC   C2B60248  26.136  24.251   6.750
 8013POPC   C3B60249  26.183  24.265   7.050
 8013POPC   C4B60250  26.174  24.244   7.350
 8014POPC   NC360251  12.104  18.326   5.550
 8014POPC   PO460252  12.077  18.330   5.850
 8014POPC   GL160253  12.079  18.235   6.150
 8014POPC   GL260254  12.015  18.120   6.150
 8014POPC   C1A60255  12.039  18.304   6.450
 8014POPC   D2A60256  12.063  18.290   6.750
 8014POPC   C3A60257  12.033  18.259   7.050
 8014POPC   C4A60258  12.064  18.295   7.350
 8014POPC   C1B60259  12.031  18.066   6.450
 8014POPC   C2B60260  11.969  18.035   6.750
 8014POPC   C3B60261  12.010  18.063   7.050
 8014POPC   C4B60262  12.035  18.032   7.350
 8015POPC   NC360263  29.944   1.954   5.550
 8015POPC   PO460264  29.957   2.025   5.850
 8015POPC   GL160265  29.929   2.013   6.150
 8015POPC   GL260266  30.076   1.959   6.150
 8015POPC   C1A60267  29.919   1.988   6.450
 8015POPC   D2A60268  29.892   1.992   6.750
 8015POPC   C3A60269  29.927   2.023   7.050
 8015POPC   C4A60270  29.968   2.034   7.350
 8015POPC   C1B60271  30.189   1.885   6.450
 8015POPC   C2B60272  30.096   1.850   6.750
 8015POPC   C3B60273  30.173   1.879   7.050
 8015POPC   C4B60274  30.128   1.918   7.350
 8016POPC   NC360275  36.933  24.445   5.550
 8016POPC   PO460276  36.920  24.470   5.850
 8016POPC   GL160277  36.866  24.485   6.150
 8016POPC   GL260278  37.009  24.361   6.150
 8016POPC   C1A60279  36.950  24.517   6.450
 8016POPC   D2A60280  36.890  24.511   6.750
 8016POPC   C3A60281  36.945  24.501   7.050
 8016POPC   C4A60282  36.863  24.517   7.350
 8016POPC   C1B60283  37.036  24.315   6.450
 8016POPC   C2B60284  37.094  24.237   6.750
 8016POPC   C3B60285  37.048  24.237   7.050
 8016POPC   C4B60286  37.022  24.240   7.350
 8017POPC   NC360287  22.938  16.745   5.550
 8017POPC   PO460288  22.920  16.764   5.850
 8017POPC   GL160289  22.891  16.705   6.150
 8017POPC   GL260290  22.929  16.873   6.150
 8017POPC   C1A60291  22.919  16.780   6.450
 8017POPC   D2A60292  22.953  16.746   6.750
 8017POPC   C3A60293  22.911  16.712   7.050
 8017POPC   C4A60294  22.982  16.739   7.350
 8017POPC   C1B60295  22.843  17.008   6.450
 8017POPC   C2B60296  22.896  17.003   6.750
 8017POPC   C3B60297  22.885  17.011   7.050
 8017POPC   C4B60298  22.888  17.002   7.350
 8018POPC   NC360299   6.648  22.958   5.550
 8018POPC   PO460300   6.633  22.976   5.850
 8018POPC   GL160301   6.666  22.986   6.150
 8018POPC   GL260302   6.607  22.776   6.150
 8018POPC   C1A60303   6.608  22.905   6.450
 8018POPC   D2A60304   6.691  22.979   6.750
 8018POPC   C3A60305   6.622  22.902   7.050
 8018POPC   C4A60306   6.625  22.909   7.350
 8018POPC   C1B60307   6.565  22.718   6.450
 8018POPC   C2B60308   6.604  22.673   6.750
 8018POPC   C3B60309   6.598  22.698   7.050
 8018POPC   C4B60310   6.574  22.655   7.350
 8019POPC   NC360311  23.694  43.909   5.550
 8019POPC   PO460312  23.743  43.930   5.850
 8019POPC   GL160313  23.742  43.872   6.150
 8019POPC   GL260314  23.810  43.827   6.150
 8019POPC   C1A60315  23.667  43.876   6.450
 8019POPC   D2A60316  23.755  43.913   6.750
 8019POPC   C3A60317  23.699  43.842   7.050
 8019POPC   C4A60318  23.670  43.909   7.350
 8019POPC   C1B60319  23.835  43.656   6.450
 8019POPC   C2B60320  23.885  43.658   6.750
 8019POPC   C3B60321  23.854  43.673   7.050
 8019POPC   C4B60322  23.861  43.711   7.350
 8020POPC   NC360323   5.916   7.451   5.550
 8020POPC   PO460324   5.874   7.458   5.850
 8020POPC   GL160325   5.913   7.408   6.150
 8020POPC   GL260326   5.951   7.467   6.150
 8020POPC   C1A60327   5.823   7.449   6.450
 8020POPC   D2A60328   5.892   7.389   6.750
 8020POPC   C3A60329   5.890   7.399   7.050
 8020POPC   C4A60330   5.897   7.396   7.350
 8020POPC   C1B60331   6.040   7.599   6.450
 8020POPC   C2B60332   6.044   7.575   6.750
 8020POPC   C3B60333   6.013   7.632   7.050
 8020POPC   C4B60334   5.994   7.660   7.350
 8021POPC   NC360335  27.582  41.527   5.550
 8021POPC   PO460336  27.628  41.571   5.850
 8021POPC   GL160337  27.573  41.516   6.150
 8021POPC   GL260338  27.711  41.457   6.150
 8021POPC   C1A60339  27.607  41.570   6.450
 8021POPC   D2A60340  27.614  41.603   6.750
 8021POPC   C3A60341  27.639  41.587   7.050
 8021POPC   C4A60342  27.625  41.534   7.350
 8021POPC   C1B60343  27.796  41.408   6.450
 8021POPC   C2B60344  27.772  41.378   6.750
 8021POPC   C3B60345  27.757  41.338   7.050
 8021POPC   C4B60346  27.791  41.334   7.350
 8022POPC   NC360347  40.040  15.137   5.550
 8022POPC   PO460348  39.979  15.159   5.850
 8022POPC   GL160349  40.035  15.136   6.150
 8022POPC   GL260350  39.898  15.288   6.150
 8022POPC   C1A60351  40.042  15.174   6.450
 8022POPC   D2A60352  40.050  15.148   6.750
 8022POPC   C3A60353  39.968  15.160   7.050
 8022POPC   C4A60354  39.988  15.191   7.350
 8022POPC   C1B60355  39.899  15.362   6.450
 8022POPC   C2B60356  39.842  15.445   6.750
 8022POPC   C3B60357  39.933  15.364   7.050
 8022POPC   C4B60358  39.890  15.387   7.350
 8023POPC   NC360359   6.663  32.990   5.550
 8023POPC   PO460360   6.621  33.010   5.850
 8023POPC   GL160361   6.686  33.028   6.150
 8023POPC   GL260362   6.595  32.893   6.150
 8023POPC   C1A60363   6.620  33.062   6.450
 8023POPC   D2A60364   6.663  33.028   6.750
 8023POPC   C3A60365   6.655  33.037   7.050
 8023POPC   C4A60366   6.622  33.013   7.350
 8023POPC   C1B60367   6.688  32.757   6.450
 8023POPC   C2B60368   6.650  32.777   6.750
 8023POPC   C3B60369   6.668  32.814   7.050
 8023POPC   C4B60370   6.597  32.803   7.350
 8024POPC   NC360371  12.096  43.888   5.550
 8024POPC   PO460372  12.087  43.876   5.850
 8024POPC   GL160373  12.034  43.892   6.150
 8024POPC   GL260374  11.991  44.031   6.150
 8024POPC   C1A60375  12.063  43.879   6.450
 8024POPC   D2A60376  12.088  43.922   6.750
 8024POPC   C3A60377  12.078  43.843   7.050
 8024POPC   C4A60378  12.112  43.897   7.350
 8024POPC   C1B60379  11.953  44.143   6.450
 8024POPC   C2B60380  12.006  44.123   6.750
 8024POPC   C3B60381  12.006  44.098   7.050
 8024POPC   C4B60382  11.981  44.138   7.350
 8025POPC   NC360383  36.081   4.347   5.550
 8025POPC   PO460384  36.143   4.309   5.850
 8025POPC   GL160385  36.150   4.282   6.150
 8025POPC   GL260386  36.194   4.239   6.150
 8025POPC   C1A60387  36.175   4.277   6.450
 8025POPC   D2A60388  36.085   4.270   6.750
 8025POPC   C3A60389  36.130   4.285   7.050
 8025POPC   C4A60390  36.134   4.269   7.350
 8025POPC   C1B60391  36.318   4.180   6.450
 8025POPC   C2B60392  36.342   4.135   6.750
 8025POPC   C3B60393  36.289   4.186   7.050
 8025POPC   C4B60394  36.323   4.152   7.350
 8026POPC   NC360395  37.699  44.644   5.550
 8026POPC   PO460396  37.721  44.671   5.850
 8026POPC   GL160397  37.674  44.709   6.150
 8026POPC   GL260398  37.830  44.694   6.150
 8026POPC   C1A60399  37.672  44.634   6.450
 8026POPC   D2A60400  37.655  44.669   6.750
 8026POPC   C3A60401  37.710  44.695   7.050
 8026POPC   C4A60402  37.721  44.617   7.350
 8026POPC   C1B60403  37.946  44.687   6.450
 8026POPC   C2B60404  37.922  44.684   6.750
 8026POPC   C3B60405  37.917  44.628   7.050
 8026POPC   C4B60406  37.959  44.660   7.350
 8027POPC   NC360407   4.323  10.563   5.550
 8027POPC   PO460408   4.302  10.526   5.850
 8027POPC   GL160409   4.311  10.562   6.150
 8027POPC   GL260410   4.193  10.586   6.150
 8027POPC   C1A60411   4.302  10.541   6.450
 8027POPC   D2A60412   4.281  10.502   6.750
 8027POPC   C3A60413   4.357  10.567   7.050
 8027POPC   C4A60414   4.274  10.510   7.350
 8027POPC   C1B60415   4.045  10.635   6.450
 8027POPC   C2B60416   4.062  10.575   6.750
 8027POPC   C3B60417   4.123  10.581   7.050
 8027POPC   C4B60418   4.079  10.670   7.350
 8028POPC   NC360419  35.361  13.675   5.550
 8028POPC   PO460420  35.324  13.655   5.850
 8028POPC   GL160421  35.347  13.642   6.150
 8028POPC   GL260422  35.481  13.682   6.150
 8028POPC   C1A60423  35.381  13.658   6.450
 8028POPC   D2A60424  35.365  13.611   6.750
 8028POPC   C3A60425  35.365  13.660   7.050
 8028POPC   C4A60426  35.334  13.650   7.350
 8028POPC   C1B60427  35.546  13.801   6.450
 8028POPC   C2B60428  35.569  13.741   6.750
 8028POPC   C3B60429  35.557  13.765   7.050
 8028POPC   C4B60430  35.560  13.788   7.350
 8029POPC   NC360431  19.785  36.942   5.550
 8029POPC   PO460432  19.882  36.903   5.850
 8029POPC   GL160433  19.875  36.860   6.150
 8029POPC   GL260434  19.795  36.762   6.150
 8029POPC   C1A60435  19.850  36.946   6.450
 8029POPC   D2A60436  19.864  36.889   6.750
 8029POPC   C3A60437  19.867  36.866   7.050
 8029POPC   C4A60438  19.881  36.871   7.350
 8029POPC   C1B60439  19.777  36.695   6.450
 8029POPC   C2B60440  19.784  36.671   6.750
 8029POPC   C3B60441  19.775  36.642   7.050
 8029POPC   C4B60442  19.733  36.652   7.350
 8030POPC   NC360443  19.787   0.471   5.550
 8030POPC   PO460444  19.831   0.418   5.850
 8030POPC   GL160445  19.878   0.400   6.150
 8030POPC   GL260446  19.844   0.553   6.150
 8030POPC   C1A60447  19.800   0.472   6.450
 8030POPC   D2A60448  19.861   0.475   6.750
 8030POPC   C3A60449  19.795   0.446   7.050
 8030POPC   C4A60450  19.787   0.469   7.350
 8030POPC   C1B60451  19.917   0.705   6.450
 8030POPC   C2B60452  19.939   0.646   6.750
 8030POPC   C3B60453  19.905   0.621   7.050
 8030POPC   C4B60454  19.945   0.644   7.350
 8031POPC   NC360455  42.303  30.692   5.550
 8031POPC   PO460456  42.285  30.690   5.850
 8031POPC   GL160457  42.302  30.699   6.150
 8031POPC   GL260458  42.325  30.809   6.150
 8031POPC   C1A60459  42.384  30.701   6.450
 8031POPC   D2A60460  42.324  30.650   6.750
 8031POPC   C3A60461  42.339  30.725   7.050
 8031POPC   C4A60462  42.367  30.658   7.350
 8031POPC   C1B60463  42.256  30.950   6.450
 8031POPC   C2B60464  42.319  30.940   6.750
 8031POPC   C3B60465  42.263  30.922   7.050
 8031POPC   C4B60466  42.255  30.955   7.350
 8032POPC   NC360467  17.484  16.760   5.550
 8032POPC   PO460468  17.500  16.712   5.850
 8032POPC   GL160469  17.495  16.774   6.150
 8032POPC   GL260470  17.566  16.861   6.150
 8032POPC   C1A60471  17.527  16.742   6.450
 8032POPC   D2A60472  17.478  16.729   6.750
 8032POPC   C3A60473  17.551  16.708   7.050
 8032POPC   C4A60474  17.463  16.722   7.350
 8032POPC   C1B60475  17.495  17.012   6.450
 8032POPC   C2B60476  17.504  16.955   6.750
 8032POPC   C3B60477  17.498  16.985   7.050
 8032POPC   C4B60478  17.537  16.963   7.350
 8033POPC   NC360479  22.135   5.847   5.550
 8033POPC   PO460480  22.211   5.888   5.850
 8033POPC   GL160481  22.174   5.909   6.150
 8033POPC   GL260482  22.164   5.765   6.150
 8033POPC   C1A60483  22.195   5.826   6.450
 8033POPC   D2A60484  22.209   5.823   6.750
 8033POPC   C3A60485  22.190   5.821   7.050
 8033POPC   C4A60486  22.183   5.844   7.350
 8033POPC   C1B60487  22.099   5.602   6.450
 8033POPC   C2B60488  22.075   5.617   6.750
 8033POPC   C3B60489  22.089   5.594   7.050
 8033POPC   C4B60490  22.086   5.618   7.350
 8034POPC   NC360491  32.279  12.065   5.550
 8034POPC   PO460492  32.214  12.115   5.850
 8034POPC   GL160493  32.260  12.057   6.150
 8034POPC   GL260494  32.201  12.108   6.150
 8034POPC   C1A60495  32.289  12.100   6.450
 8034POPC   D2A60496  32.218  12.099   6.750
 8034POPC   C3A60497  32.255  12.112   7.050
 8034POPC   C4A60498  32.295  12.104   7.350
 8034POPC   C1B60499  32.031  12.204   6.450
 8034POPC   C2B60500  32.045  12.210   6.750
 8034POPC   C3B60501  32.041  12.259   7.050
 8034POPC   C4B60502  32.103  12.251   7.350
 8035POPC   NC360503  36.171   3.572   5.550
 8035POPC   PO460504  36.084   3.536   5.850
 8035POPC   GL160505  36.170   3.576   6.150
 8035POPC   GL260506  36.155   3.676   6.150
 8035POPC   C1A60507  36.177   3.495   6.450
 8035POPC   D2A60508  36.160   3.493   6.750
 8035POPC   C3A60509  36.121   3.562   7.050
 8035POPC   C4A60510  36.174   3.533   7.350
 8035POPC   C1B60511  36.211   3.765   6.450
 8035POPC   C2B60512  36.185   3.783   6.750
 8035POPC   C3B60513  36.185   3.783   7.050
 8035POPC   C4B60514  36.233   3.817   7.350
 8036POPC   NC360515  26.052  38.443   5.550
 8036POPC   PO460516  25.999  38.445   5.850
 8036POPC   GL160517  26.071  38.500   6.150
 8036POPC   GL260518  26.100  38.377   6.150
 8036POPC   C1A60519  26.069  38.476   6.450
 8036POPC   D2A60520  26.042  38.486   6.750
 8036POPC   C3A60521  26.049  38.462   7.050
 8036POPC   C4A60522  26.035  38.466   7.350
 8036POPC   C1B60523  26.265  38.280   6.450
 8036POPC   C2B60524  26.228  38.300   6.750
 8036POPC   C3B60525  26.196  38.311   7.050
 8036POPC   C4B60526  26.260  38.273   7.350
 8037POPC   NC360527  10.552  12.087   5.550
 8037POPC   PO460528  10.489  12.114   5.850
 8037POPC   GL160529  10.546  12.075   6.150
 8037POPC   GL260530  10.527  12.209   6.150
 8037POPC   C1A60531  10.475  12.027   6.450
 8037POPC   D2A60532  10.546  12.094   6.750
 8037POPC   C3A60533  10.512  12.085   7.050
 8037POPC   C4A60534  10.493  12.124   7.350
 8037POPC   C1B60535  10.552  12.319   6.450
 8037POPC   C2B60536  10.573  12.314   6.750
 8037POPC   C3B60537  10.544  12.361   7.050
 8037POPC   C4B60538  10.579  12.362   7.350
 8038POPC   NC360539  32.243  29.938   5.550
 8038POPC   PO460540  32.203  29.898   5.850
 8038POPC   GL160541  32.220  29.934   6.150
 8038POPC   GL260542  32.203  29.837   6.150
 8038POPC   C1A60543  32.239  29.912   6.450
 8038POPC   D2A60544  32.295  29.953   6.750
 8038POPC   C3A60545  32.286  29.917   7.050
 8038POPC   C4A60546  32.285  29.907   7.350
 8038POPC   C1B60547  32.275  29.697   6.450
 8038POPC   C2B60548  32.243  29.637   6.750
 8038POPC   C3B60549  32.244  29.677   7.050
 8038POPC   C4B60550  32.247  29.645   7.350
 8039POPC   NC360551   8.993   9.719   5.550
 8039POPC   PO460552   8.929   9.784   5.850
 8039POPC   GL160553   8.931   9.700   6.150
 8039POPC   GL260554   8.886   9.896   6.150
 8039POPC   C1A60555   9.002   9.772   6.450
 8039POPC   D2A60556   8.982   9.752   6.750
 8039POPC   C3A60557   9.004   9.760   7.050
 8039POPC   C4A60558   8.987   9.797   7.350
 8039POPC   C1B60559   8.805   9.938   6.450
 8039POPC   C2B60560   8.851  10.011   6.750
 8039POPC   C3B60561   8.898   9.947   7.050
 8039POPC   C4B60562   8.852   9.980   7.350
 8040POPC   NC360563  35.319  23.693   5.550
 8040POPC   PO460564  35.346  23.702   5.850
 8040POPC   GL160565  35.358  23.720   6.150
 8040POPC   GL260566  35.369  23.548   6.150
 8040POPC   C1A60567  35.350  23.682   6.450
 8040POPC   D2A60568  35.390  23.691   6.750
 8040POPC   C3A60569  35.384  23.706   7.050
 8040POPC   C4A60570  35.322  23.756   7.350
 8040POPC   C1B60571  35.339  23.433   6.450
 8040POPC   C2B60572  35.355  23.460   6.750
 8040POPC   C3B60573  35.309  23.441   7.050
 8040POPC   C4B60574  35.381  23.424   7.350
 8041POPC   NC360575  29.903  29.893   5.550
 8041POPC   PO460576  29.915  29.967   5.850
 8041POPC   GL160577  29.929  29.960   6.150
 8041POPC   GL260578  30.031  29.832   6.150
 8041POPC   C1A60579  29.888  29.941   6.450
 8041POPC   D2A60580  29.888  29.940   6.750
 8041POPC   C3A60581  29.912  29.967   7.050
 8041POPC   C4A60582  29.884  29.872   7.350
 8041POPC   C1B60583  30.061  29.728   6.450
 8041POPC   C2B60584  30.111  29.727   6.750
 8041POPC   C3B60585  30.083  29.792   7.050
 8041POPC   C4B60586  30.068  29.719   7.350
 8042POPC   NC360587   4.305   5.126   5.550
 8042POPC   PO460588   4.303   5.073   5.850
 8042POPC   GL160589   4.273   5.077   6.150
 8042POPC   GL260590   4.230   5.014   6.150
 8042POPC   C1A60591   4.303   5.049   6.450
 8042POPC   D2A60592   4.367   5.065   6.750
 8042POPC   C3A60593   4.323   5.075   7.050
 8042POPC   C4A60594   4.282   5.114   7.350
 8042POPC   C1B60595   4.154   4.916   6.450
 8042POPC   C2B60596   4.152   4.892   6.750
 8042POPC   C3B60597   4.075   4.910   7.050
 8042POPC   C4B60598   4.082   4.957   7.350
 8043POPC   NC360599  16.686  43.118   5.550
 8043POPC   PO460600  16.762  43.117   5.850
 8043POPC   GL160601  16.718  43.152   6.150
 8043POPC   GL260602  16.868  43.176   6.150
 8043POPC   C1A60603  16.693  43.083   6.450
 8043POPC   D2A60604  16.693  43.155   6.750
 8043POPC   C3A60605  16.696  43.064   7.050
 8043POPC   C4A60606  16.733  43.140   7.350
 8043POPC   C1B60607  16.948  43.194   6.450
 8043POPC   C2B60608  16.979  43.203   6.750
 8043POPC   C3B60609  16.916  43.276   7.050
 8043POPC   C4B60610  16.976  43.247   7.350
 8044POPC   NC360611   2.795  38.452   5.550
 8044POPC   PO460612   2.737  38.436   5.850
 8044POPC   GL160613   2.787  38.477   6.150
 8044POPC   GL260614   2.899  38.565   6.150
 8044POPC   C1A60615   2.754  38.467   6.450
 8044POPC   D2A60616   2.787  38.475   6.750
 8044POPC   C3A60617   2.795  38.500   7.050
 8044POPC   C4A60618   2.770  38.424   7.350
 8044POPC   C1B60619   2.953  38.599   6.450
 8044POPC   C2B60620   2.897  38.654   6.750
 8044POPC   C3B60621   2.904  38.645   7.050
 8044POPC   C4B60622   2.975  38.644   7.350
 8045POPC   NC360623   5.855  43.157   5.550
 8045POPC   PO460624   5.863  43.133   5.850
 8045POPC   GL160625   5.892  43.131   6.150
 8045POPC   GL260626   5.794  43.026   6.150
 8045POPC   C1A60627   5.828  43.066   6.450
 8045POPC   D2A60628   5.877  43.124   6.750
 8045POPC   C3A60629   5.846  43.149   7.050
 8045POPC   C4A60630   5.882  43.077   7.350
 8045POPC   C1B60631   5.798  42.908   6.450
 8045POPC   C2B60632   5.811  42.921   6.750
 8045POPC   C3B60633   5.768  42.852   7.050
 8045POPC   C4B60634   5.794  42.879   7.350
 8046POPC   NC360635   8.197   7.449   5.550
 8046POPC   PO460636   8.200   7.379   5.850
 8046POPC   GL160637   8.189   7.465   6.150
 8046POPC   GL260638   8.073   7.485   6.150
 8046POPC   C1A60639   8.218   7.404   6.450
 8046POPC   D2A60640   8.174   7.440   6.750
 8046POPC   C3A60641   8.181   7.409   7.050
 8046POPC   C4A60642   8.230   7.389   7.350
 8046POPC   C1B60643   7.934   7.554   6.450
 8046POPC   C2B60644   7.933   7.500   6.750
 8046POPC   C3B60645   7.974   7.499   7.050
 8046POPC   C4B60646   7.968   7.475   7.350
 8047POPC   NC360647  23.672   6.612   5.550
 8047POPC   PO460648  23.715   6.672   5.850
 8047POPC   GL160649  23.743   6.693   6.150
 8047POPC   GL260650  23.750   6.572   6.150
 8047POPC   C1A60651  23.719   6.689   6.450
 8047POPC   D2A60652  23.682   6.606   6.750
 8047POPC   C3A60653  23.725   6.687   7.050
 8047POPC   C4A60654  23.692   6.691   7.350
 8047POPC   C1B60655  23.793   6.361   6.450
 8047POPC   C2B60656  23.836   6.358   6.750
 8047POPC   C3B60657  23.817   6.446   7.050
 8047POPC   C4B60658  23.835   6.412   7.350
 8048POPC   NC360659   5.095  19.814   5.550
 8048POPC   PO460660   5.081  19.861   5.850
 8048POPC   GL160661   5.079  19.874   6.150
 8048POPC   GL260662   4.932  19.882   6.150
 8048POPC   C1A60663   5.079  19.840   6.450
 8048POPC   D2A60664   5.072  19.786   6.750
 8048POPC   C3A60665   5.091  19.882   7.050
 8048POPC   C4A60666   5.137  19.859   7.350
 8048POPC   C1B60667   4.883  19.908   6.450
 8048POPC   C2B60668   4.856  19.890   6.750
 8048POPC   C3B60669   4.828  19.880   7.050
 8048POPC   C4B60670   4.836  19.925   7.350
 8049POPC   NC360671  17.533  35.366   5.550
 8049POPC   PO460672  17.462  35.374   5.850
 8049POPC   GL160673  17.498  35.356   6.150
 8049POPC   GL260674  17.377  35.218   6.150
 8049POPC   C1A60675  17.526  35.316   6.450
 8049POPC   D2A60676  17.504  35.315   6.750
 8049POPC   C3A60677  17.512  35.349   7.050
 8049POPC   C4A60678  17.486  35.304   7.350
 8049POPC   C1B60679  17.295  35.220   6.450
 8049POPC   C2B60680  17.344  35.199   6.750
 8049POPC   C3B60681  17.277  35.151   7.050
 8049POPC   C4B60682  17.326  35.226   7.350
 8050POPC   NC360683   2.007   9.021   5.550
 8050POPC   PO460684   2.039   8.938   5.850
 8050POPC   GL160685   2.013   8.940   6.150
 8050POPC   GL260686   1.898   9.033   6.150
 8050POPC   C1A60687   1.951   8.926   6.450
 8050POPC   D2A60688   2.036   9.016   6.750
 8050POPC   C3A60689   1.990   8.956   7.050
 8050POPC   C4A60690   2.036   8.941   7.350
 8050POPC   C1B60691   1.785   9.146   6.450
 8050POPC   C2B60692   1.815   9.111   6.750
 8050POPC   C3B60693   1.748   9.066   7.050
 8050POPC   C4B60694   1.782   9.074   7.350
 8051POPC   NC360695   8.207  15.996   5.550
 8051POPC   PO460696   8.187  15.968   5.850
 8051POPC   GL160697   8.196  15.909   6.150
 8051POPC   GL260698   8.166  16.104   6.150
 8051POPC   C1A60699   8.211  15.937   6.450
 8051POPC   D2A60700   8.160  16.001   6.750
 8051POPC   C3A60701   8.216  15.953   7.050
 8051POPC   C4A60702   8.184  15.919   7.350
 8051POPC   C1B60703   8.063  16.201   6.450
 8051POPC   C2B60704   8.107  16.144   6.750
 8051POPC   C3B60705   8.111  16.168   7.050
 8051POPC   C4B60706   8.082  16.191   7.350
 8052POPC   NC360707  17.459   8.215   5.550
 8052POPC   PO460708  17.461   8.223   5.850
 8052POPC   GL160709  17.528   8.160   6.150
 8052POPC   GL260710  17.429   8.196   6.150
 8052POPC   C1A60711  17.525   8.148   6.450
 8052POPC   D2A60712  17.457   8.172   6.750
 8052POPC   C3A60713  17.534   8.191   7.050
 8052POPC   C4A60714  17.487   8.152   7.350
 8052POPC   C1B60715  17.303   8.166   6.450
 8052POPC   C2B60716  17.219   8.227   6.750
 8052POPC   C3B60717  17.240   8.182   7.050
 8052POPC   C4B60718  17.277   8.186   7.350
 8053POPC   NC360719  31.496  20.659   5.550
 8053POPC   PO460720  31.468  20.645   5.850
 8053POPC   GL160721  31.494  20.660   6.150
 8053POPC   GL260722  31.527  20.719   6.150
 8053POPC   C1A60723  31.429  20.641   6.450
 8053POPC   D2A60724  31.505  20.626   6.750
 8053POPC   C3A60725  31.460  20.624   7.050
 8053POPC   C4A60726  31.426  20.567   7.350
 8053POPC   C1B60727  31.601  20.797   6.450
 8053POPC   C2B60728  31.581  20.796   6.750
 8053POPC   C3B60729  31.583  20.804   7.050
 8053POPC   C4B60730  31.536  20.817   7.350
 8054POPC   NC360731  13.599   8.202   5.550
 8054POPC   PO460732  13.638   8.245   5.850
 8054POPC   GL160733  13.648   8.229   6.150
 8054POPC   GL260734  13.532   8.207   6.150
 8054POPC   C1A60735  13.607   8.162   6.450
 8054POPC   D2A60736  13.630   8.245   6.750
 8054POPC   C3A60737  13.596   8.166   7.050
 8054POPC   C4A60738  13.669   8.172   7.350
 8054POPC   C1B60739  13.342   8.191   6.450
 8054POPC   C2B60740  13.412   8.206   6.750
 8054POPC   C3B60741  13.368   8.210   7.050
 8054POPC   C4B60742  13.343   8.143   7.350
 8055POPC   NC360743   6.638  44.676   5.550
 8055POPC   PO460744   6.676  44.640   5.850
 8055POPC   GL160745   6.621  44.682   6.150
 8055POPC   GL260746   6.479  44.622   6.150
 8055POPC   C1A60747   6.693  44.641   6.450
 8055POPC   D2A60748   6.663  44.690   6.750
 8055POPC   C3A60749   6.671  44.696   7.050
 8055POPC   C4A60750   6.651  44.686   7.350
 8055POPC   C1B60751   6.405  44.645   6.450
 8055POPC   C2B60752   6.375  44.616   6.750
 8055POPC   C3B60753   6.361  44.615   7.050
 8055POPC   C4B60754   6.431  44.657   7.350
 8056POPC   NC360755  10.507  32.221   5.550
 8056POPC   PO460756  10.502  32.206   5.850
 8056POPC   GL160757  10.482  32.210   6.150
 8056POPC   GL260758  10.475  32.327   6.150
 8056POPC   C1A60759  10.495  32.293   6.450
 8056POPC   D2A60760  10.485  32.257   6.750
 8056POPC   C3A60761  10.508  32.220   7.050
 8056POPC   C4A60762  10.485  32.229   7.350
 8056POPC   C1B60763  10.373  32.477   6.450
 8056POPC   C2B60764  10.416  32.498   6.750
 8056POPC   C3B60765  10.390  32.419   7.050
 8056POPC   C4B60766  10.388  32.476   7.350
 8057POPC   NC360767  23.762  36.867   5.550
 8057POPC   PO460768  23.693  36.953   5.850
 8057POPC   GL160769  23.713  36.863   6.150
 8057POPC   GL260770  23.630  36.877   6.150
 8057POPC   C1A60771  23.737  36.892   6.450
 8057POPC   D2A60772  23.693  36.902   6.750
 8057POPC   C3A60773  23.695  36.873   7.050
 8057POPC   C4A60774  23.689  36.920   7.350
 8057POPC   C1B60775  23.477  36.915   6.450
 8057POPC   C2B60776  23.496  36.926   6.750
 8057POPC   C3B60777  23.504  36.932   7.050
 8057POPC   C4B60778  23.460  36.912   7.350
 8058POPC   NC360779   3.572  39.967   5.550
 8058POPC   PO460780   3.537  40.039   5.850
 8058POPC   GL160781   3.584  39.998   6.150
 8058POPC   GL260782   3.520  39.939   6.150
 8058POPC   C1A60783   3.532  39.993   6.450
 8058POPC   D2A60784   3.546  40.053   6.750
 8058POPC   C3A60785   3.507  39.962   7.050
 8058POPC   C4A60786   3.528  39.962   7.350
 8058POPC   C1B60787   3.453  39.748   6.450
 8058POPC   C2B60788   3.427  39.731   6.750
 8058POPC   C3B60789   3.431  39.780   7.050
 8058POPC   C4B60790   3.448  39.815   7.350
 8059POPC   NC360791   5.846   8.945   5.550
 8059POPC   PO460792   5.858   9.000   5.850
 8059POPC   GL160793   5.827   9.015   6.150
 8059POPC   GL260794   5.989   8.891   6.150
 8059POPC   C1A60795   5.904   8.998   6.450
 8059POPC   D2A60796   5.830   9.019   6.750
 8059POPC   C3A60797   5.839   8.953   7.050
 8059POPC   C4A60798   5.857   8.938   7.350
 8059POPC   C1B60799   6.112   8.798   6.450
 8059POPC   C2B60800   6.102   8.863   6.750
 8059POPC   C3B60801   6.064   8.842   7.050
 8059POPC   C4B60802   6.122   8.888   7.350
 8060POPC   NC360803  12.893   3.502   5.550
 8060POPC   PO460804  12.818   3.521   5.850
 8060POPC   GL160805  12.887   3.503   6.150
 8060POPC   GL260806  12.883   3.388   6.150
 8060POPC   C1A60807  12.842   3.556   6.450
 8060POPC   D2A60808  12.879   3.585   6.750
 8060POPC   C3A60809  12.862   3.554   7.050
 8060POPC   C4A60810  12.881   3.496   7.350
 8060POPC   C1B60811  12.970   3.270   6.450
 8060POPC   C2B60812  13.008   3.343   6.750
 8060POPC   C3B60813  12.978   3.365   7.050
 8060POPC   C4B60814  13.009   3.364   7.350
 8061POPC   NC360815  27.621  35.347   5.550
 8061POPC   PO460816  27.615  35.375   5.850
 8061POPC   GL160817  27.548  35.344   6.150
 8061POPC   GL260818  27.512  35.256   6.150
 8061POPC   C1A60819  27.621  35.304   6.450
 8061POPC   D2A60820  27.552  35.390   6.750
 8061POPC   C3A60821  27.626  35.358   7.050
 8061POPC   C4A60822  27.605  35.317   7.350
 8061POPC   C1B60823  27.489  35.150   6.450
 8061POPC   C2B60824  27.509  35.159   6.750
 8061POPC   C3B60825  27.553  35.133   7.050
 8061POPC   C4B60826  27.547  35.080   7.350
 8062POPC   NC360827  38.489  22.188   5.550
 8062POPC   PO460828  38.475  22.113   5.850
 8062POPC   GL160829  38.442  22.193   6.150
 8062POPC   GL260830  38.500  22.011   6.150
 8062POPC   C1A60831  38.476  22.204   6.450
 8062POPC   D2A60832  38.422  22.168   6.750
 8062POPC   C3A60833  38.453  22.182   7.050
 8062POPC   C4A60834  38.471  22.210   7.350
 8062POPC   C1B60835  38.481  21.900   6.450
 8062POPC   C2B60836  38.482  21.930   6.750
 8062POPC   C3B60837  38.484  21.912   7.050
 8062POPC   C4B60838  38.546  21.947   7.350
 8063POPC   NC360839  15.132  12.849   5.550
 8063POPC   PO460840  15.196  12.818   5.850
 8063POPC   GL160841  15.218  12.811   6.150
 8063POPC   GL260842  15.245  12.798   6.150
 8063POPC   C1A60843  15.206  12.830   6.450
 8063POPC   D2A60844  15.145  12.872   6.750
 8063POPC   C3A60845  15.169  12.850   7.050
 8063POPC   C4A60846  15.164  12.872   7.350
 8063POPC   C1B60847  15.365  12.756   6.450
 8063POPC   C2B60848  15.421  12.730   6.750
 8063POPC   C3B60849  15.338  12.701   7.050
 8063POPC   C4B60850  15.434  12.673   7.350
 8064POPC   NC360851   4.358  22.940   5.550
 8064POPC   PO460852   4.300  22.943   5.850
 8064POPC   GL160853   4.322  22.918   6.150
 8064POPC   GL260854   4.257  22.949   6.150
 8064POPC   C1A60855   4.350  22.982   6.450
 8064POPC   D2A60856   4.300  22.928   6.750
 8064POPC   C3A60857   4.316  22.912   7.050
 8064POPC   C4A60858   4.342  22.959   7.350
 8064POPC   C1B60859   4.136  23.106   6.450
 8064POPC   C2B60860   4.061  23.066   6.750
 8064POPC   C3B60861   4.087  23.082   7.050
 8064POPC   C4B60862   4.096  23.071   7.350
 8065POPC   NC360863   4.353   8.993   5.550
 8065POPC   PO460864   4.296   9.006   5.850
 8065POPC   GL160865   4.296   8.998   6.150
 8065POPC   GL260866   4.459   9.015   6.150
 8065POPC   C1A60867   4.327   8.926   6.450
 8065POPC   D2A60868   4.301   9.002   6.750
 8065POPC   C3A60869   4.346   8.970   7.050
 8065POPC   C4A60870   4.363   8.968   7.350
 8065POPC   C1B60871   4.550   9.019   6.450
 8065POPC   C2B60872   4.550   9.089   6.750
 8065POPC   C3B60873   4.518   9.050   7.050
 8065POPC   C4B60874   4.513   9.024   7.350
 8066POPC   NC360875   7.434  28.322   5.550
 8066POPC   PO460876   7.441  28.344   5.850
 8066POPC   GL160877   7.461  28.386   6.150
 8066POPC   GL260878   7.338  28.516   6.150
 8066POPC   C1A60879   7.381  28.344   6.450
 8066POPC   D2A60880   7.431  28.328   6.750
 8066POPC   C3A60881   7.413  28.326   7.050
 8066POPC   C4A60882   7.405  28.345   7.350
 8066POPC   C1B60883   7.241  28.607   6.450
 8066POPC   C2B60884   7.285  28.618   6.750
 8066POPC   C3B60885   7.316  28.607   7.050
 8066POPC   C4B60886   7.299  28.613   7.350
 8067POPC   NC360887   8.221  17.513   5.550
 8067POPC   PO460888   8.189  17.526   5.850
 8067POPC   GL160889   8.219  17.457   6.150
 8067POPC   GL260890   8.219  17.345   6.150
 8067POPC   C1A60891   8.147  17.457   6.450
 8067POPC   D2A60892   8.173  17.543   6.750
 8067POPC   C3A60893   8.201  17.525   7.050
 8067POPC   C4A60894   8.212  17.537   7.350
 8067POPC   C1B60895   8.340  17.303   6.450
 8067POPC   C2B60896   8.318  17.274   6.750
 8067POPC   C3B60897   8.302  17.234   7.050
 8067POPC   C4B60898   8.288  17.268   7.350
 8068POPC   NC360899  19.048  19.873   5.550
 8068POPC   PO460900  19.073  19.874   5.850
 8068POPC   GL160901  19.092  19.852   6.150
 8068POPC   GL260902  19.067  19.984   6.150
 8068POPC   C1A60903  19.104  19.859   6.450
 8068POPC   D2A60904  19.065  19.792   6.750
 8068POPC   C3A60905  19.038  19.838   7.050
 8068POPC   C4A60906  19.034  19.866   7.350
 8068POPC   C1B60907  19.015  20.080   6.450
 8068POPC   C2B60908  18.992  20.105   6.750
 8068POPC   C3B60909  19.082  20.051   7.050
 8068POPC   C4B60910  19.074  20.050   7.350
 8069POPC   NC360911   1.998   5.832   5.550
 8069POPC   PO460912   2.036   5.901   5.850
 8069POPC   GL160913   1.976   5.896   6.150
 8069POPC   GL260914   2.111   5.768   6.150
 8069POPC   C1A60915   2.010   5.845   6.450
 8069POPC   D2A60916   1.976   5.900   6.750
 8069POPC   C3A60917   1.957   5.834   7.050
 8069POPC   C4A60918   2.012   5.895   7.350
 8069POPC   C1B60919   2.113   5.683   6.450
 8069POPC   C2B60920   2.098   5.646   6.750
 8069POPC   C3B60921   2.099   5.705   7.050
 8069POPC   C4B60922   2.101   5.672   7.350
 8070POPC   NC360923  21.387   4.308   5.550
 8070POPC   PO460924  21.366   4.296   5.850
 8070POPC   GL160925  21.383   4.298   6.150
 8070POPC   GL260926  21.301   4.189   6.150
 8070POPC   C1A60927  21.372   4.291   6.450
 8070POPC   D2A60928  21.422   4.286   6.750
 8070POPC   C3A60929  21.394   4.298   7.050
 8070POPC   C4A60930  21.417   4.309   7.350
 8070POPC   C1B60931  21.262   4.115   6.450
 8070POPC   C2B60932  21.278   4.077   6.750
 8070POPC   C3B60933  21.296   4.129   7.050
 8070POPC   C4B60934  21.301   4.104   7.350
 8071POPC   NC360935  39.992   8.212   5.550
 8071POPC   PO460936  39.968   8.170   5.850
 8071POPC   GL160937  39.983   8.168   6.150
 8071POPC   GL260938  39.906   8.108   6.150
 8071POPC   C1A60939  40.028   8.155   6.450
 8071POPC   D2A60940  40.051   8.232   6.750
 8071POPC   C3A60941  39.990   8.170   7.050
 8071POPC   C4A60942  40.025   8.195   7.350
 8071POPC   C1B60943  39.930   8.009   6.450
 8071POPC   C2B60944  39.846   7.985   6.750
 8071POPC   C3B60945  39.917   8.005   7.050
 8071POPC   C4B60946  39.887   8.004   7.350
 8072POPC   NC360947  22.116  43.922   5.550
 8072POPC   PO460948  22.177  43.935   5.850
 8072POPC   GL160949  22.113  43.863   6.150
 8072POPC   GL260950  22.218  44.012   6.150
 8072POPC   C1A60951  22.121  43.927   6.450
 8072POPC   D2A60952  22.185  43.900   6.750
 8072POPC   C3A60953  22.132  43.848   7.050
 8072POPC   C4A60954  22.197  43.874   7.350
 8072POPC   C1B60955  22.251  44.130   6.450
 8072POPC   C2B60956  22.297  44.152   6.750
 8072POPC   C3B60957  22.241  44.160   7.050
 8072POPC   C4B60958  22.279  44.163   7.350
 8073POPC   NC360959   9.710  38.453   5.550
 8073POPC   PO460960   9.774  38.488   5.850
 8073POPC   GL160961   9.783  38.446   6.150
 8073POPC   GL260962   9.786  38.600   6.150
 8073POPC   C1A60963   9.763  38.440   6.450
 8073POPC   D2A60964   9.728  38.496   6.750
 8073POPC   C3A60965   9.791  38.416   7.050
 8073POPC   C4A60966   9.723  38.477   7.350
 8073POPC   C1B60967   9.823  38.695   6.450
 8073POPC   C2B60968   9.839  38.708   6.750
 8073POPC   C3B60969   9.900  38.655   7.050
 8073POPC   C4B60970   9.890  38.701   7.350
 8074POPC   NC360971  35.307  28.419   5.550
 8074POPC   PO460972  35.316  28.342   5.850
 8074POPC   GL160973  35.386  28.349   6.150
 8074POPC   GL260974  35.285  28.277   6.150
 8074POPC   C1A60975  35.355  28.366   6.450
 8074POPC   D2A60976  35.362  28.391   6.750
 8074POPC   C3A60977  35.344  28.381   7.050
 8074POPC   C4A60978  35.361  28.389   7.350
 8074POPC   C1B60979  35.224  28.187   6.450
 8074POPC   C2B60980  35.170  28.241   6.750
 8074POPC   C3B60981  35.219  28.150   7.050
 8074POPC   C4B60982  35.173  28.203   7.350
 8075POPC   NC360983  27.601  43.859   5.550
 8075POPC   PO460984  27.604  43.858   5.850
 8075POPC   GL160985  27.594  43.865   6.150
 8075POPC   GL260986  27.489  43.907   6.150
 8075POPC   C1A60987  27.553  43.853   6.450
 8075POPC   D2A60988  27.552  43.877   6.750
 8075POPC   C3A60989  27.550  43.892   7.050
 8075POPC   C4A60990  27.636  43.915   7.350
 8075POPC   C1B60991  27.376  43.974   6.450
 8075POPC   C2B60992  27.368  44.017   6.750
 8075POPC   C3B60993  27.375  44.039   7.050
 8075POPC   C4B60994  27.388  43.976   7.350
 8076POPC   NC360995  20.599   1.209   5.550
 8076POPC   PO460996  20.638   1.263   5.850
 8076POPC   GL160997  20.581   1.250   6.150
 8076POPC   GL260998  20.455   1.282   6.150
 8076POPC   C1A60999  20.638   1.180   6.450
 8076POPC   D2A61000  20.599   1.198   6.750
 8076POPC   C3A61001  20.602   1.232   7.050
 8076POPC   C4A61002  20.641   1.204   7.350
 8076POPC   C1B61003  20.404   1.338   6.450
 8076POPC   C2B61004  20.390   1.358   6.750
 8076POPC   C3B61005  20.396   1.288   7.050
 8076POPC   C4B61006  20.428   1.325   7.350
 8077POPC   NC361007   9.016   4.278   5.550
 8077POPC   PO461008   8.991   4.289   5.850
 8077POPC   GL161009   9.012   4.355   6.150
 8077POPC   GL261010   8.949   4.423   6.150
 8077POPC   C1A61011   8.990   4.314   6.450
 8077POPC   D2A61012   8.961   4.360   6.750
 8077POPC   C3A61013   8.967   4.302   7.050
 8077POPC   C4A61014   9.008   4.305   7.350
 8077POPC   C1B61015   8.921   4.533   6.450
 8077POPC   C2B61016   8.942   4.564   6.750
 8077POPC   C3B61017   8.941   4.523   7.050
 8077POPC   C4B61018   8.893   4.587   7.350
 8078POPC   NC361019  39.980   2.722   5.550
 8078POPC   PO461020  39.975   2.787   5.850
 8078POPC   GL161021  39.986   2.765   6.150
 8078POPC   GL261022  40.070   2.681   6.150
 8078POPC   C1A61023  40.035   2.780   6.450
 8078POPC   D2A61024  39.960   2.733   6.750
 8078POPC   C3A61025  40.014   2.813   7.050
 8078POPC   C4A61026  39.972   2.811   7.350
 8078POPC   C1B61027  40.138   2.611   6.450
 8078POPC   C2B61028  40.192   2.561   6.750
 8078POPC   C3B61029  40.208   2.608   7.050
 8078POPC   C4B61030  40.169   2.554   7.350
 8079POPC   NC361031  36.177  15.986   5.550
 8079POPC   PO461032  36.132  15.933   5.850
 8079POPC   GL161033  36.090  15.913   6.150
 8079POPC   GL261034  35.988  16.043   6.150
 8079POPC   C1A61035  36.095  15.911   6.450
 8079POPC   D2A61036  36.088  15.942   6.750
 8079POPC   C3A61037  36.147  15.948   7.050
 8079POPC   C4A61038  36.155  15.927   7.350
 8079POPC   C1B61039  35.946  16.069   6.450
 8079POPC   C2B61040  35.969  16.105   6.750
 8079POPC   C3B61041  35.892  16.086   7.050
 8079POPC   C4B61042  35.897  16.099   7.350
 8080POPC   NC361043  22.134  43.082   5.550
 8080POPC   PO461044  22.117  43.097   5.850
 8080POPC   GL161045  22.174  43.101   6.150
 8080POPC   GL261046  22.245  43.212   6.150
 8080POPC   C1A61047  22.119  43.151   6.450
 8080POPC   D2A61048  22.128  43.122   6.750
 8080POPC   C3A61049  22.114  43.095   7.050
 8080POPC   C4A61050  22.195  43.153   7.350
 8080POPC   C1B61051  22.301  43.321   6.450
 8080POPC   C2B61052  22.385  43.329   6.750
 8080POPC   C3B61053  22.374  43.255   7.050
 8080POPC   C4B61054  22.385  43.327   7.350
 8081POPC   NC361055  24.500  39.184   5.550
 8081POPC   PO461056  24.524  39.184   5.850
 8081POPC   GL161057  24.457  39.268   6.150
 8081POPC   GL261058  24.521  39.109   6.150
 8081POPC   C1A61059  24.501  39.183   6.450
 8081POPC   D2A61060  24.535  39.197   6.750
 8081POPC   C3A61061  24.467  39.199   7.050
 8081POPC   C4A61062  24.458  39.239   7.350
 8081POPC   C1B61063  24.436  38.974   6.450
 8081POPC   C2B61064  24.431  38.946   6.750
 8081POPC   C3B61065  24.466  38.971   7.050
 8081POPC   C4B61066  24.521  38.933   7.350
 8082POPC   NC361067  31.501   9.705   5.550
 8082POPC   PO461068  31.467   9.709   5.850
 8082POPC   GL161069  31.429   9.733   6.150
 8082POPC   GL261070  31.577   9.720   6.150
 8082POPC   C1A61071  31.465   9.762   6.450
 8082POPC   D2A61072  31.479   9.777   6.750
 8082POPC   C3A61073  31.460   9.725   7.050
 8082POPC   C4A61074  31.499   9.726   7.350
 8082POPC   C1B61075  31.714   9.709   6.450
 8082POPC   C2B61076  31.736   9.694   6.750
 8082POPC   C3B61077  31.697   9.637   7.050
 8082POPC   C4B61078  31.752   9.677   7.350
 8083POPC   NC361079  32.988  29.114   5.550
 8083POPC   PO461080  33.010  29.120   5.850
 8083POPC   GL161081  33.070  29.163   6.150
 8083POPC   GL261082  33.095  29.045   6.150
 8083POPC   C1A61083  33.021  29.143   6.450
 8083POPC   D2A61084  33.010  29.121   6.750
 8083POPC   C3A61085  33.039  29.155   7.050
 8083POPC   C4A61086  33.039  29.134   7.350
 8083POPC   C1B61087  33.277  28.970   6.450
 8083POPC   C2B61088  33.194  28.998   6.750
 8083POPC   C3B61089  33.205  28.999   7.050
 8083POPC   C4B61090  33.200  29.032   7.350
 8084POPC   NC361091   2.767  17.524   5.550
 8084POPC   PO461092   2.748  17.531   5.850
 8084POPC   GL161093   2.736  17.523   6.150
 8084POPC   GL261094   2.782  17.434   6.150
 8084POPC   C1A61095   2.751  17.479   6.450
 8084POPC   D2A61096   2.748  17.502   6.750
 8084POPC   C3A61097   2.767  17.478   7.050
 8084POPC   C4A61098   2.737  17.530   7.350
 8084POPC   C1B61099   2.884  17.274   6.450
 8084POPC   C2B61100   2.861  17.319   6.750
 8084POPC   C3B61101   2.893  17.319   7.050
 8084POPC   C4B61102   2.841  17.277   7.350
 8085POPC   NC361103  42.362  36.135   5.550
 8085POPC   PO461104  42.298  36.143   5.850
 8085POPC   GL161105  42.334  36.094   6.150
 8085POPC   GL261106  42.291  36.244   6.150
 8085POPC   C1A61107  42.296  36.094   6.450
 8085POPC   D2A61108  42.308  36.136   6.750
 8085POPC   C3A61109  42.298  36.163   7.050
 8085POPC   C4A61110  42.340  36.146   7.350
 8085POPC   C1B61111  42.276  36.330   6.450
 8085POPC   C2B61112  42.313  36.336   6.750
 8085POPC   C3B61113  42.296  36.358   7.050
 8085POPC   C4B61114  42.289  36.376   7.350
 8086POPC   NC361115  29.912  42.353   5.550
 8086POPC   PO461116  29.922  42.353   5.850
 8086POPC   GL161117  29.891  42.344   6.150
 8086POPC   GL261118  29.835  42.397   6.150
 8086POPC   C1A61119  29.949  42.372   6.450
 8086POPC   D2A61120  29.883  42.287   6.750
 8086POPC   C3A61121  29.887  42.369   7.050
 8086POPC   C4A61122  29.960  42.374   7.350
 8086POPC   C1B61123  29.757  42.508   6.450
 8086POPC   C2B61124  29.686  42.454   6.750
 8086POPC   C3B61125  29.754  42.448   7.050
 8086POPC   C4B61126  29.748  42.531   7.350
 8087POPC   NC361127  36.137  12.028   5.550
 8087POPC   PO461128  36.100  12.119   5.850
 8087POPC   GL161129  36.171  12.042   6.150
 8087POPC   GL261130  36.151  12.169   6.150
 8087POPC   C1A61131  36.079  12.088   6.450
 8087POPC   D2A61132  36.108  12.098   6.750
 8087POPC   C3A61133  36.139  12.037   7.050
 8087POPC   C4A61134  36.110  12.075   7.350
 8087POPC   C1B61135  36.196  12.331   6.450
 8087POPC   C2B61136  36.194  12.309   6.750
 8087POPC   C3B61137  36.169  12.291   7.050
 8087POPC   C4B61138  36.147  12.328   7.350
 8088POPC   NC361139  18.249   2.032   5.550
 8088POPC   PO461140  18.280   2.039   5.850
 8088POPC   GL161141  18.263   1.998   6.150
 8088POPC   GL261142  18.133   1.961   6.150
 8088POPC   C1A61143  18.242   1.993   6.450
 8088POPC   D2A61144  18.284   1.984   6.750
 8088POPC   C3A61145  18.255   1.991   7.050
 8088POPC   C4A61146  18.248   1.952   7.350
 8088POPC   C1B61147  18.003   1.909   6.450
 8088POPC   C2B61148  18.084   1.913   6.750
 8088POPC   C3B61149  18.072   1.904   7.050
 8088POPC   C4B61150  18.036   1.932   7.350
 8089POPC   NC361151   2.804  16.000   5.550
 8089POPC   PO461152   2.791  15.935   5.850
 8089POPC   GL161153   2.746  15.980   6.150
 8089POPC   GL261154   2.641  15.861   6.150
 8089POPC   C1A61155   2.755  16.000   6.450
 8089POPC   D2A61156   2.731  15.925   6.750
 8089POPC   C3A61157   2.790  15.990   7.050
 8089POPC   C4A61158   2.785  15.989   7.350
 8089POPC   C1B61159   2.554  15.774   6.450
 8089POPC   C2B61160   2.546  15.761   6.750
 8089POPC   C3B61161   2.631  15.738   7.050
 8089POPC   C4B61162   2.629  15.748   7.350
 8090POPC   NC361163  40.763  22.914   5.550
 8090POPC   PO461164  40.796  22.987   5.850
 8090POPC   GL161165  40.760  22.983   6.150
 8090POPC   GL261166  40.674  23.027   6.150
 8090POPC   C1A61167  40.761  22.949   6.450
 8090POPC   D2A61168  40.771  22.948   6.750
 8090POPC   C3A61169  40.772  22.942   7.050
 8090POPC   C4A61170  40.817  22.961   7.350
 8090POPC   C1B61171  40.661  23.123   6.450
 8090POPC   C2B61172  40.645  23.151   6.750
 8090POPC   C3B61173  40.690  23.125   7.050
 8090POPC   C4B61174  40.621  23.137   7.350
 8091POPC   NC361175  32.226  18.293   5.550
 8091POPC   PO461176  32.223  18.329   5.850
 8091POPC   GL161177  32.269  18.284   6.150
 8091POPC   GL261178  32.265  18.139   6.150
 8091POPC   C1A61179  32.217  18.278   6.450
 8091POPC   D2A61180  32.202  18.301   6.750
 8091POPC   C3A61181  32.243  18.255   7.050
 8091POPC   C4A61182  32.210  18.299   7.350
 8091POPC   C1B61183  32.215  18.049   6.450
 8091POPC   C2B61184  32.211  18.058   6.750
 8091POPC   C3B61185  32.196  18.053   7.050
 8091POPC   C4B61186  32.205  18.060   7.350
 8092POPC   NC361187  17.507  26.057   5.550
 8092POPC   PO461188  17.520  26.039   5.850
 8092POPC   GL161189  17.488  26.002   6.150
 8092POPC   GL261190  17.603  26.012   6.150
 8092POPC   C1A61191  17.462  26.083   6.450
 8092POPC   D2A61192  17.500  26.038   6.750
 8092POPC   C3A61193  17.471  26.003   7.050
 8092POPC   C4A61194  17.497  26.056   7.350
 8092POPC   C1B61195  17.777  25.962   6.450
 8092POPC   C2B61196  17.696  25.998   6.750
 8092POPC   C3B61197  17.736  26.013   7.050
 8092POPC   C4B61198  17.792  25.958   7.350
 8093POPC   NC361199  23.687   0.456   5.550
 8093POPC   PO461200  23.742   0.421   5.850
 8093POPC   GL161201  23.671   0.450   6.150
 8093POPC   GL261202  23.667   0.562   6.150
 8093POPC   C1A61203  23.762   0.463   6.450
 8093POPC   D2A61204  23.727   0.435   6.750
 8093POPC   C3A61205  23.719   0.475   7.050
 8093POPC   C4A61206  23.715   0.485   7.350
 8093POPC   C1B61207  23.581   0.604   6.450
 8093POPC   C2B61208  23.602   0.633   6.750
 8093POPC   C3B61209  23.551   0.639   7.050
 8093POPC   C4B61210  23.520   0.621   7.350
 8094POPC   NC361211   9.004  10.559   5.550
 8094POPC   PO461212   8.963  10.519   5.850
 8094POPC   GL161213   8.974  10.526   6.150
 8094POPC   GL261214   9.015  10.692   6.150
 8094POPC   C1A61215   9.004  10.529   6.450
 8094POPC   D2A61216   8.997  10.477   6.750
 8094POPC   C3A61217   8.959  10.495   7.050
 8094POPC   C4A61218   8.945  10.494   7.350
 8094POPC   C1B61219   8.984  10.796   6.450
 8094POPC   C2B61220   8.940  10.750   6.750
 8094POPC   C3B61221   8.977  10.810   7.050
 8094POPC   C4B61222   8.934  10.794   7.350
 8095POPC   NC361223  43.891  28.378   5.550
 8095POPC   PO461224  43.872  28.335   5.850
 8095POPC   GL161225  43.899  28.367   6.150
 8095POPC   GL261226  44.003  28.407   6.150
 8095POPC   C1A61227  43.852  28.326   6.450
 8095POPC   D2A61228  43.904  28.364   6.750
 8095POPC   C3A61229  43.896  28.338   7.050
 8095POPC   C4A61230  43.910  28.383   7.350
 8095POPC   C1B61231  44.177  28.388   6.450
 8095POPC   C2B61232  44.095  28.430   6.750
 8095POPC   C3B61233  44.142  28.405   7.050
 8095POPC   C4B61234  44.091  28.408   7.350
 8096POPC   NC361235   5.901  41.532   5.550
 8096POPC   PO461236   5.895  41.562   5.850
 8096POPC   GL161237   5.883  41.580   6.150
 8096POPC   GL261238   5.735  41.475   6.150
 8096POPC   C1A61239   5.842  41.580   6.450
 8096POPC   D2A61240   5.918  41.518   6.750
 8096POPC   C3A61241   5.903  41.579   7.050
 8096POPC   C4A61242   5.883  41.592   7.350
 8096POPC   C1B61243   5.705  41.410   6.450
 8096POPC   C2B61244   5.704  41.390   6.750
 8096POPC   C3B61245   5.713  41.369   7.050
 8096POPC   C4B61246   5.671  41.407   7.350
 8097POPC   NC361247   6.598  26.817   5.550
 8097POPC   PO461248   6.686  26.776   5.850
 8097POPC   GL161249   6.604  26.850   6.150
 8097POPC   GL261250   6.666  26.915   6.150
 8097POPC   C1A61251   6.609  26.824   6.450
 8097POPC   D2A61252   6.642  26.789   6.750
 8097POPC   C3A61253   6.643  26.812   7.050
 8097POPC   C4A61254   6.666  26.775   7.350
 8097POPC   C1B61255   6.629  27.045   6.450
 8097POPC   C2B61256   6.553  27.098   6.750
 8097POPC   C3B61257   6.582  27.014   7.050
 8097POPC   C4B61258   6.592  27.064   7.350
 8098POPC   NC361259  25.306  37.690   5.550
 8098POPC   PO461260  25.281  37.659   5.850
 8098POPC   GL161261  25.290  37.720   6.150
 8098POPC   GL261262  25.188  37.704   6.150
 8098POPC   C1A61263  25.253  37.688   6.450
 8098POPC   D2A61264  25.282  37.653   6.750
 8098POPC   C3A61265  25.245  37.688   7.050
 8098POPC   C4A61266  25.265  37.674   7.350
 8098POPC   C1B61267  24.996  37.701   6.450
 8098POPC   C2B61268  25.012  37.725   6.750
 8098POPC   C3B61269  25.030  37.727   7.050
 8098POPC   C4B61270  24.973  37.672   7.350
 8099POPC   NC361271   5.905  24.477   5.550
 8099POPC   PO461272   5.849  24.509   5.850
 8099POPC   GL161273   5.887  24.507   6.150
 8099POPC   GL261274   5.729  24.468   6.150
 8099POPC   C1A61275   5.857  24.453   6.450
 8099POPC   D2A61276   5.864  24.502   6.750
 8099POPC   C3A61277   5.866  24.509   7.050
 8099POPC   C4A61278   5.837  24.458   7.350
 8099POPC   C1B61279   5.649  24.396   6.450
 8099POPC   C2B61280   5.611  24.398   6.750
 8099POPC   C3B61281   5.639  24.342   7.050
 8099POPC   C4B61282   5.595  24.348   7.350
 8100POPC   NC361283  30.676  34.607   5.550
 8100POPC   PO461284  30.665  34.579   5.850
 8100POPC   GL161285  30.656  34.529   6.150
 8100POPC   GL261286  30.579  34.586   6.150
 8100POPC   C1A61287  30.707  34.532   6.450
 8100POPC   D2A61288  30.707  34.538   6.750
 8100POPC   C3A61289  30.704  34.589   7.050
 8100POPC   C4A61290  30.729  34.625   7.350
 8100POPC   C1B61291  30.403  34.611   6.450
 8100POPC   C2B61292  30.439  34.574   6.750
 8100POPC   C3B61293  30.407  34.603   7.050
 8100POPC   C4B61294  30.418  34.625   7.350
 8101POPC   NC361295  29.112  11.304   5.550
 8101POPC   PO461296  29.127  11.345   5.850
 8101POPC   GL161297  29.176  11.296   6.150
 8101POPC   GL261298  29.161  11.438   6.150
 8101POPC   C1A61299  29.130  11.322   6.450
 8101POPC   D2A61300  29.105  11.301   6.750
 8101POPC   C3A61301  29.122  11.332   7.050
 8101POPC   C4A61302  29.141  11.276   7.350
 8101POPC   C1B61303  29.053  11.515   6.450
 8101POPC   C2B61304  29.064  11.561   6.750
 8101POPC   C3B61305  29.112  11.524   7.050
 8101POPC   C4B61306  29.075  11.559   7.350
 8102POPC   NC361307   6.608  25.276   5.550
 8102POPC   PO461308   6.684  25.258   5.850
 8102POPC   GL161309   6.636  25.217   6.150
 8102POPC   GL261310   6.517  25.360   6.150
 8102POPC   C1A61311   6.673  25.218   6.450
 8102POPC   D2A61312   6.621  25.312   6.750
 8102POPC   C3A61313   6.684  25.301   7.050
 8102POPC   C4A61314   6.629  25.270   7.350
 8102POPC   C1B61315   6.411  25.408   6.450
 8102POPC   C2B61316   6.406  25.386   6.750
 8102POPC   C3B61317   6.443  25.393   7.050
 8102POPC   C4B61318   6.415  25.392   7.350
 8103POPC   NC361319   5.819   3.501   5.550
 8103POPC   PO461320   5.851   3.521   5.850
 8103POPC   GL161321   5.844   3.584   6.150
 8103POPC   GL261322   5.930   3.419   6.150
 8103POPC   C1A61323   5.884   3.554   6.450
 8103POPC   D2A61324   5.888   3.496   6.750
 8103POPC   C3A61325   5.892   3.550   7.050
 8103POPC   C4A61326   5.916   3.536   7.350
 8103POPC   C1B61327   6.065   3.343   6.450
 8103POPC   C2B61328   6.033   3.316   6.750
 8103POPC   C3B61329   6.054   3.346   7.050
 8103POPC   C4B61330   6.025   3.364   7.350
 8104POPC   NC361331  12.057  24.528   5.550
 8104POPC   PO461332  12.053  24.491   5.850
 8104POPC   GL161333  12.122  24.449   6.150
 8104POPC   GL261334  12.176  24.517   6.150
 8104POPC   C1A61335  12.096  24.480   6.450
 8104POPC   D2A61336  12.085  24.509   6.750
 8104POPC   C3A61337  12.030  24.450   7.050
 8104POPC   C4A61338  12.027  24.539   7.350
 8104POPC   C1B61339  12.290  24.550   6.450
 8104POPC   C2B61340  12.372  24.469   6.750
 8104POPC   C3B61341  12.330  24.467   7.050
 8104POPC   C4B61342  12.279  24.527   7.350
 8105POPC   NC361343  14.397  17.482   5.550
 8105POPC   PO461344  14.420  17.495   5.850
 8105POPC   GL161345  14.438  17.511   6.150
 8105POPC   GL261346  14.553  17.531   6.150
 8105POPC   C1A61347  14.377  17.460   6.450
 8105POPC   D2A61348  14.426  17.518   6.750
 8105POPC   C3A61349  14.448  17.514   7.050
 8105POPC   C4A61350  14.400  17.499   7.350
 8105POPC   C1B61351  14.680  17.508   6.450
 8105POPC   C2B61352  14.663  17.429   6.750
 8105POPC   C3B61353  14.644  17.461   7.050
 8105POPC   C4B61354  14.615  17.494   7.350
 8106POPC   NC361355  18.259  33.784   5.550
 8106POPC   PO461356  18.314  33.790   5.850
 8106POPC   GL161357  18.244  33.793   6.150
 8106POPC   GL261358  18.210  33.957   6.150
 8106POPC   C1A61359  18.261  33.824   6.450
 8106POPC   D2A61360  18.312  33.811   6.750
 8106POPC   C3A61361  18.305  33.825   7.050
 8106POPC   C4A61362  18.233  33.847   7.350
 8106POPC   C1B61363  18.216  34.019   6.450
 8106POPC   C2B61364  18.224  34.049   6.750
 8106POPC   C3B61365  18.192  34.004   7.050
 8106POPC   C4B61366  18.214  34.075   7.350
 8107POPC   NC361367  26.085   4.325   5.550
 8107POPC   PO461368  26.080   4.321   5.850
 8107POPC   GL161369  26.078   4.286   6.150
 8107POPC   GL261370  26.140   4.236   6.150
 8107POPC   C1A61371  26.069   4.282   6.450
 8107POPC   D2A61372  26.077   4.287   6.750
 8107POPC   C3A61373  26.008   4.330   7.050
 8107POPC   C4A61374  26.007   4.275   7.350
 8107POPC   C1B61375  26.246   4.217   6.450
 8107POPC   C2B61376  26.299   4.243   6.750
 8107POPC   C3B61377  26.262   4.197   7.050
 8107POPC   C4B61378  26.265   4.240   7.350
 8108POPC   NC361379  42.338   3.502   5.550
 8108POPC   PO461380  42.293   3.516   5.850
 8108POPC   GL161381  42.354   3.517   6.150
 8108POPC   GL261382  42.273   3.686   6.150
 8108POPC   C1A61383  42.326   3.573   6.450
 8108POPC   D2A61384  42.330   3.533   6.750
 8108POPC   C3A61385  42.367   3.563   7.050
 8108POPC   C4A61386  42.383   3.507   7.350
 8108POPC   C1B61387  42.262   3.834   6.450
 8108POPC   C2B61388  42.270   3.828   6.750
 8108POPC   C3B61389  42.314   3.749   7.050
 8108POPC   C4B61390  42.258   3.743   7.350
 8109POPC   NC361391  33.826  19.840   5.550
 8109POPC   PO461392  33.819  19.820   5.850
 8109POPC   GL161393  33.830  19.818   6.150
 8109POPC   GL261394  33.887  19.808   6.150
 8109POPC   C1A61395  33.772  19.880   6.450
 8109POPC   D2A61396  33.772  19.883   6.750
 8109POPC   C3A61397  33.807  19.826   7.050
 8109POPC   C4A61398  33.835  19.801   7.350
 8109POPC   C1B61399  34.012  19.705   6.450
 8109POPC   C2B61400  34.056  19.658   6.750
 8109POPC   C3B61401  34.049  19.703   7.050
 8109POPC   C4B61402  34.054  19.725   7.350
 8110POPC   NC361403   3.538  16.741   5.550
 8110POPC   PO461404   3.558  16.767   5.850
 8110POPC   GL161405   3.553  16.682   6.150
 8110POPC   GL261406   3.540  16.823   6.150
 8110POPC   C1A61407   3.522  16.704   6.450
 8110POPC   D2A61408   3.534  16.747   6.750
 8110POPC   C3A61409   3.500  16.737   7.050
 8110POPC   C4A61410   3.518  16.739   7.350
 8110POPC   C1B61411   3.555  16.940   6.450
 8110POPC   C2B61412   3.568  16.950   6.750
 8110POPC   C3B61413   3.573  17.020   7.050
 8110POPC   C4B61414   3.570  17.002   7.350
 8111POPC   NC361415   3.544  11.262   5.550
 8111POPC   PO461416   3.588  11.318   5.850
 8111POPC   GL161417   3.495  11.293   6.150
 8111POPC   GL261418   3.412  11.286   6.150
 8111POPC   C1A61419   3.555  11.316   6.450
 8111POPC   D2A61420   3.518  11.299   6.750
 8111POPC   C3A61421   3.583  11.280   7.050
 8111POPC   C4A61422   3.558  11.286   7.350
 8111POPC   C1B61423   3.281  11.263   6.450
 8111POPC   C2B61424   3.274  11.346   6.750
 8111POPC   C3B61425   3.313  11.344   7.050
 8111POPC   C4B61426   3.316  11.310   7.350
 8112POPC   NC361427  25.288  43.105   5.550
 8112POPC   PO461428  25.217  43.062   5.850
 8112POPC   GL161429  25.268  43.117   6.150
 8112POPC   GL261430  25.308  43.214   6.150
 8112POPC   C1A61431  25.314  43.154   6.450
 8112POPC   D2A61432  25.242  43.081   6.750
 8112POPC   C3A61433  25.234  43.084   7.050
 8112POPC   C4A61434  25.243  43.099   7.350
 8112POPC   C1B61435  25.281  43.381   6.450
 8112POPC   C2B61436  25.306  43.340   6.750
 8112POPC   C3B61437  25.267  43.367   7.050
 8112POPC   C4B61438  25.260  43.406   7.350
 8113POPC   NC361439  34.596  40.784   5.550
 8113POPC   PO461440  34.613  40.782   5.850
 8113POPC   GL161441  34.604  40.793   6.150
 8113POPC   GL261442  34.470  40.668   6.150
 8113POPC   C1A61443  34.562  40.765   6.450
 8113POPC   D2A61444  34.563  40.747   6.750
 8113POPC   C3A61445  34.581  40.816   7.050
 8113POPC   C4A61446  34.568  40.793   7.350
 8113POPC   C1B61447  34.363  40.627   6.450
 8113POPC   C2B61448  34.371  40.610   6.750
 8113POPC   C3B61449  34.336  40.658   7.050
 8113POPC   C4B61450  34.370  40.586   7.350
 8114POPC   NC361451   8.942   6.622   5.550
 8114POPC   PO461452   8.928   6.650   5.850
 8114POPC   GL161453   8.972   6.681   6.150
 8114POPC   GL261454   8.841   6.638   6.150
 8114POPC   C1A61455   8.979   6.635   6.450
 8114POPC   D2A61456   9.018   6.601   6.750
 8114POPC   C3A61457   8.953   6.609   7.050
 8114POPC   C4A61458   8.945   6.642   7.350
 8114POPC   C1B61459   8.729   6.631   6.450
 8114POPC   C2B61460   8.711   6.678   6.750
 8114POPC   C3B61461   8.708   6.620   7.050
 8114POPC   C4B61462   8.708   6.626   7.350
 8115POPC   NC361463  13.596  40.039   5.550
 8115POPC   PO461464  13.613  40.045   5.850
 8115POPC   GL161465  13.658  39.964   6.150
 8115POPC   GL261466  13.523  40.050   6.150
 8115POPC   C1A61467  13.619  39.968   6.450
 8115POPC   D2A61468  13.593  40.053   6.750
 8115POPC   C3A61469  13.675  39.974   7.050
 8115POPC   C4A61470  13.630  39.990   7.350
 8115POPC   C1B61471  13.425  40.073   6.450
 8115POPC   C2B61472  13.357  40.103   6.750
 8115POPC   C3B61473  13.418  40.156   7.050
 8115POPC   C4B61474  13.389  40.059   7.350
 8116POPC   NC361475   8.245  12.068   5.550
 8116POPC   PO461476   8.181  12.047   5.850
 8116POPC   GL161477   8.161  12.064   6.150
 8116POPC   GL261478   8.149  11.995   6.150
 8116POPC   C1A61479   8.183  12.066   6.450
 8116POPC   D2A61480   8.186  12.112   6.750
 8116POPC   C3A61481   8.147  12.052   7.050
 8116POPC   C4A61482   8.228  12.056   7.350
 8116POPC   C1B61483   8.128  11.873   6.450
 8116POPC   C2B61484   8.101  11.886   6.750
 8116POPC   C3B61485   8.139  11.853   7.050
 8116POPC   C4B61486   8.058  11.885   7.350
 8117POPC   NC361487  22.909   5.918   5.550
 8117POPC   PO461488  22.953   5.837   5.850
 8117POPC   GL161489  22.943   5.854   6.150
 8117POPC   GL261490  22.994   5.776   6.150
 8117POPC   C1A61491  22.926   5.880   6.450
 8117POPC   D2A61492  22.909   5.886   6.750
 8117POPC   C3A61493  22.912   5.832   7.050
 8117POPC   C4A61494  22.983   5.894   7.350
 8117POPC   C1B61495  22.980   5.629   6.450
 8117POPC   C2B61496  23.013   5.653   6.750
 8117POPC   C3B61497  23.015   5.630   7.050
 8117POPC   C4B61498  23.047   5.602   7.350
 8118POPC   NC361499  16.685  22.201   5.550
 8118POPC   PO461500  16.757  22.149   5.850
 8118POPC   GL161501  16.736  22.139   6.150
 8118POPC   GL261502  16.748  22.019   6.150
 8118POPC   C1A61503  16.737  22.176   6.450
 8118POPC   D2A61504  16.703  22.165   6.750
 8118POPC   C3A61505  16.755  22.210   7.050
 8118POPC   C4A61506  16.767  22.143   7.350
 8118POPC   C1B61507  16.748  21.866   6.450
 8118POPC   C2B61508  16.752  21.880   6.750
 8118POPC   C3B61509  16.738  21.959   7.050
 8118POPC   C4B61510  16.709  21.948   7.350
 8119POPC   NC361511  28.404  35.373   5.550
 8119POPC   PO461512  28.349  35.396   5.850
 8119POPC   GL161513  28.354  35.393   6.150
 8119POPC   GL261514  28.498  35.452   6.150
 8119POPC   C1A61515  28.418  35.306   6.450
 8119POPC   D2A61516  28.348  35.336   6.750
 8119POPC   C3A61517  28.378  35.391   7.050
 8119POPC   C4A61518  28.363  35.333   7.350
 8119POPC   C1B61519  28.634  35.499   6.450
 8119POPC   C2B61520  28.552  35.486   6.750
 8119POPC   C3B61521  28.554  35.440   7.050
 8119POPC   C4B61522  28.581  35.447   7.350
 8120POPC   NC361523  12.118  15.158   5.550
 8120POPC   PO461524  12.042  15.167   5.850
 8120POPC   GL161525  12.034  15.200   6.150
 8120POPC   GL261526  12.019  15.020   6.150
 8120POPC   C1A61527  12.045  15.147   6.450
 8120POPC   D2A61528  12.034  15.173   6.750
 8120POPC   C3A61529  12.109  15.168   7.050
 8120POPC   C4A61530  12.038  15.221   7.350
 8120POPC   C1B61531  12.029  14.893   6.450
 8120POPC   C2B61532  11.977  14.903   6.750
 8120POPC   C3B61533  11.997  14.962   7.050
 8120POPC   C4B61534  11.977  14.959   7.350
 8121POPC   NC361535   8.979  43.926   5.550
 8121POPC   PO461536   9.013  43.851   5.850
 8121POPC   GL161537   8.927  43.871   6.150
 8121POPC   GL261538   8.830  43.934   6.150
 8121POPC   C1A61539   8.965  43.911   6.450
 8121POPC   D2A61540   9.007  43.902   6.750
 8121POPC   C3A61541   8.963  43.861   7.050
 8121POPC   C4A61542   8.980  43.924   7.350
 8121POPC   C1B61543   8.676  43.943   6.450
 8121POPC   C2B61544   8.752  43.930   6.750
 8121POPC   C3B61545   8.722  43.887   7.050
 8121POPC   C4B61546   8.735  43.943   7.350
 8122POPC   NC361547  42.306  20.639   5.550
 8122POPC   PO461548  42.381  20.638   5.850
 8122POPC   GL161549  42.316  20.614   6.150
 8122POPC   GL261550  42.427  20.556   6.150
 8122POPC   C1A61551  42.380  20.622   6.450
 8122POPC   D2A61552  42.334  20.570   6.750
 8122POPC   C3A61553  42.345  20.616   7.050
 8122POPC   C4A61554  42.309  20.585   7.350
 8122POPC   C1B61555  42.592  20.486   6.450
 8122POPC   C2B61556  42.543  20.454   6.750
 8122POPC   C3B61557  42.604  20.505   7.050
 8122POPC   C4B61558  42.584  20.525   7.350
 8123POPC   NC361559   4.364  36.874   5.550
 8123POPC   PO461560   4.338  36.934   5.850
 8123POPC   GL161561   4.359  36.865   6.150
 8123POPC   GL261562   4.265  36.800   6.150
 8123POPC   C1A61563   4.347  36.902   6.450
 8123POPC   D2A61564   4.340  36.896   6.750
 8123POPC   C3A61565   4.280  36.914   7.050
 8123POPC   C4A61566   4.323  36.889   7.350
 8123POPC   C1B61567   4.232  36.699   6.450
 8123POPC   C2B61568   4.238  36.712   6.750
 8123POPC   C3B61569   4.213  36.654   7.050
 8123POPC   C4B61570   4.272  36.687   7.350
 8124POPC   NC361571  42.292  15.226   5.550
 8124POPC   PO461572  42.334  15.156   5.850
 8124POPC   GL161573  42.313  15.146   6.150
 8124POPC   GL261574  42.165  15.233   6.150
 8124POPC   C1A61575  42.358  15.150   6.450
 8124POPC   D2A61576  42.293  15.228   6.750
 8124POPC   C3A61577  42.332  15.130   7.050
 8124POPC   C4A61578  42.308  15.189   7.350
 8124POPC   C1B61579  42.064  15.215   6.450
 8124POPC   C2B61580  42.045  15.238   6.750
 8124POPC   C3B61581  42.123  15.201   7.050
 8124POPC   C4B61582  42.061  15.235   7.350
 8125POPC   NC361583  16.732  29.152   5.550
 8125POPC   PO461584  16.752  29.167   5.850
 8125POPC   GL161585  16.709  29.150   6.150
 8125POPC   GL261586  16.809  29.144   6.150
 8125POPC   C1A61587  16.687  29.190   6.450
 8125POPC   D2A61588  16.755  29.122   6.750
 8125POPC   C3A61589  16.696  29.149   7.050
 8125POPC   C4A61590  16.733  29.137   7.350
 8125POPC   C1B61591  16.932  29.201   6.450
 8125POPC   C2B61592  16.981  29.152   6.750
 8125POPC   C3B61593  16.995  29.154   7.050
 8125POPC   C4B61594  17.027  29.142   7.350
 8126POPC   NC361595  29.143  44.688   5.550
 8126POPC   PO461596  29.165  44.686   5.850
 8126POPC   GL161597  29.112  44.681   6.150
 8126POPC   GL261598  29.313  44.700   6.150
 8126POPC   C1A61599  29.145  44.666   6.450
 8126POPC   D2A61600  29.162  44.651   6.750
 8126POPC   C3A61601  29.113  44.629   7.050
 8126POPC   C4A61602  29.142  44.618   7.350
 8126POPC   C1B61603  29.350  44.697   6.450
 8126POPC   C2B61604  29.383  44.707   6.750
 8126POPC   C3B61605  29.394  44.732   7.050
 8126POPC   C4B61606  29.399  44.743   7.350
 8127POPC   NC361607  43.067  27.584   5.550
 8127POPC   PO461608  43.143  27.593   5.850
 8127POPC   GL161609  43.078  27.602   6.150
 8127POPC   GL261610  43.205  27.632   6.150
 8127POPC   C1A61611  43.067  27.630   6.450
 8127POPC   D2A61612  43.069  27.588   6.750
 8127POPC   C3A61613  43.090  27.609   7.050
 8127POPC   C4A61614  43.139  27.608   7.350
 8127POPC   C1B61615  43.310  27.619   6.450
 8127POPC   C2B61616  43.309  27.648   6.750
 8127POPC   C3B61617  43.329  27.664   7.050
 8127POPC   C4B61618  43.334  27.638   7.350
 8128POPC   NC361619  36.164   7.395   5.550
 8128POPC   PO461620  36.078   7.407   5.850
 8128POPC   GL161621  36.089   7.384   6.150
 8128POPC   GL261622  36.017   7.335   6.150
 8128POPC   C1A61623  36.158   7.408   6.450
 8128POPC   D2A61624  36.110   7.407   6.750
 8128POPC   C3A61625  36.143   7.456   7.050
 8128POPC   C4A61626  36.169   7.390   7.350
 8128POPC   C1B61627  35.944   7.252   6.450
 8128POPC   C2B61628  35.875   7.343   6.750
 8128POPC   C3B61629  35.934   7.288   7.050
 8128POPC   C4B61630  35.902   7.318   7.350
 8129POPC   NC361631  43.866   2.740   5.550
 8129POPC   PO461632  43.870   2.795   5.850
 8129POPC   GL161633  43.915   2.753   6.150
 8129POPC   GL261634  44.015   2.799   6.150
 8129POPC   C1A61635  43.900   2.721   6.450
 8129POPC   D2A61636  43.861   2.804   6.750
 8129POPC   C3A61637  43.872   2.743   7.050
 8129POPC   C4A61638  43.854   2.785   7.350
 8129POPC   C1B61639  44.092   2.750   6.450
 8129POPC   C2B61640  44.141   2.737   6.750
 8129POPC   C3B61641  44.163   2.819   7.050
 8129POPC   C4B61642  44.086   2.750   7.350
 8130POPC   NC361643  22.209  15.958   5.550
 8130POPC   PO461644  22.113  15.919   5.850
 8130POPC   GL161645  22.113  15.933   6.150
 8130POPC   GL261646  22.057  15.898   6.150
 8130POPC   C1A61647  22.161  15.912   6.450
 8130POPC   D2A61648  22.180  15.951   6.750
 8130POPC   C3A61649  22.171  15.911   7.050
 8130POPC   C4A61650  22.130  15.963   7.350
 8130POPC   C1B61651  21.908  15.795   6.450
 8130POPC   C2B61652  21.934  15.827   6.750
 8130POPC   C3B61653  21.997  15.866   7.050
 8130POPC   C4B61654  21.951  15.839   7.350
 8131POPC   NC361655  32.997  24.514   5.550
 8131POPC   PO461656  33.014  24.483   5.850
 8131POPC   GL161657  32.985  24.481   6.150
 8131POPC   GL261658  33.067  24.608   6.150
 8131POPC   C1A61659  32.985  24.502   6.450
 8131POPC   D2A61660  33.000  24.483   6.750
 8131POPC   C3A61661  33.033  24.526   7.050
 8131POPC   C4A61662  32.975  24.468   7.350
 8131POPC   C1B61663  33.192  24.659   6.450
 8131POPC   C2B61664  33.164  24.686   6.750
 8131POPC   C3B61665  33.142  24.686   7.050
 8131POPC   C4B61666  33.152  24.676   7.350
 8132POPC   NC361667   5.107  39.215   5.550
 8132POPC   PO461668   5.049  39.192   5.850
 8132POPC   GL161669   5.090  39.183   6.150
 8132POPC   GL261670   5.018  39.230   6.150
 8132POPC   C1A61671   5.094  39.217   6.450
 8132POPC   D2A61672   5.048  39.206   6.750
 8132POPC   C3A61673   5.077  39.227   7.050
 8132POPC   C4A61674   5.137  39.198   7.350
 8132POPC   C1B61675   4.823  39.115   6.450
 8132POPC   C2B61676   4.836  39.095   6.750
 8132POPC   C3B61677   4.814  39.136   7.050
 8132POPC   C4B61678   4.875  39.177   7.350
 8133POPC   NC361679  34.583  33.039   5.550
 8133POPC   PO461680  34.614  32.996   5.850
 8133POPC   GL161681  34.583  33.047   6.150
 8133POPC   GL261682  34.539  32.880   6.150
 8133POPC   C1A61683  34.610  33.030   6.450
 8133POPC   D2A61684  34.570  33.050   6.750
 8133POPC   C3A61685  34.625  33.038   7.050
 8133POPC   C4A61686  34.565  32.996   7.350
 8133POPC   C1B61687  34.520  32.814   6.450
 8133POPC   C2B61688  34.513  32.757   6.750
 8133POPC   C3B61689  34.445  32.811   7.050
 8133POPC   C4B61690  34.476  32.810   7.350
 8134POPC   NC361691  43.936   5.117   5.550
 8134POPC   PO461692  43.839   5.134   5.850
 8134POPC   GL161693  43.882   5.132   6.150
 8134POPC   GL261694  43.861   4.942   6.150
 8134POPC   C1A61695  43.884   5.076   6.450
 8134POPC   D2A61696  43.851   5.060   6.750
 8134POPC   C3A61697  43.905   5.085   7.050
 8134POPC   C4A61698  43.911   5.082   7.350
 8134POPC   C1B61699  43.808   4.833   6.450
 8134POPC   C2B61700  43.796   4.838   6.750
 8134POPC   C3B61701  43.750   4.816   7.050
 8134POPC   C4B61702  43.815   4.903   7.350
 8135POPC   NC361703  36.155   6.693   5.550
 8135POPC   PO461704  36.124   6.689   5.850
 8135POPC   GL161705  36.146   6.682   6.150
 8135POPC   GL261706  36.079   6.500   6.150
 8135POPC   C1A61707  36.116   6.680   6.450
 8135POPC   D2A61708  36.095   6.675   6.750
 8135POPC   C3A61709  36.167   6.671   7.050
 8135POPC   C4A61710  36.175   6.668   7.350
 8135POPC   C1B61711  35.970   6.412   6.450
 8135POPC   C2B61712  35.995   6.405   6.750
 8135POPC   C3B61713  35.966   6.428   7.050
 8135POPC   C4B61714  35.960   6.409   7.350
 8136POPC   NC361715   5.098  43.144   5.550
 8136POPC   PO461716   5.125  43.145   5.850
 8136POPC   GL161717   5.127  43.062   6.150
 8136POPC   GL261718   5.205  43.045   6.150
 8136POPC   C1A61719   5.105  43.086   6.450
 8136POPC   D2A61720   5.046  43.120   6.750
 8136POPC   C3A61721   5.065  43.125   7.050
 8136POPC   C4A61722   5.076  43.152   7.350
 8136POPC   C1B61723   5.340  43.043   6.450
 8136POPC   C2B61724   5.348  43.029   6.750
 8136POPC   C3B61725   5.265  42.989   7.050
 8136POPC   C4B61726   5.269  42.994   7.350
 8137POPC   NC361727   2.723  26.798   5.550
 8137POPC   PO461728   2.775  26.811   5.850
 8137POPC   GL161729   2.780  26.829   6.150
 8137POPC   GL261730   2.908  26.815   6.150
 8137POPC   C1A61731   2.730  26.800   6.450
 8137POPC   D2A61732   2.722  26.838   6.750
 8137POPC   C3A61733   2.736  26.775   7.050
 8137POPC   C4A61734   2.716  26.817   7.350
 8137POPC   C1B61735   2.996  26.922   6.450
 8137POPC   C2B61736   2.955  26.925   6.750
 8137POPC   C3B61737   3.048  26.931   7.050
 8137POPC   C4B61738   2.992  26.885   7.350
 8138POPC   NC361739  41.521  10.492   5.550
 8138POPC   PO461740  41.532  10.474   5.850
 8138POPC   GL161741  41.554  10.551   6.150
 8138POPC   GL261742  41.419  10.547   6.150
 8138POPC   C1A61743  41.524  10.520   6.450
 8138POPC   D2A61744  41.590  10.479   6.750
 8138POPC   C3A61745  41.578  10.517   7.050
 8138POPC   C4A61746  41.584  10.511   7.350
 8138POPC   C1B61747  41.299  10.575   6.450
 8138POPC   C2B61748  41.288  10.544   6.750
 8138POPC   C3B61749  41.359  10.568   7.050
 8138POPC   C4B61750  41.272  10.579   7.350
 8139POPC   NC361751   1.260  23.680   5.550
 8139POPC   PO461752   1.173  23.763   5.850
 8139POPC   GL161753   1.195  23.720   6.150
 8139POPC   GL261754   1.339  23.709   6.150
 8139POPC   C1A61755   1.263  23.758   6.450
 8139POPC   D2A61756   1.257  23.709   6.750
 8139POPC   C3A61757   1.223  23.718   7.050
 8139POPC   C4A61758   1.231  23.759   7.350
 8139POPC   C1B61759   1.452  23.676   6.450
 8139POPC   C2B61760   1.413  23.712   6.750
 8139POPC   C3B61761   1.414  23.707   7.050
 8139POPC   C4B61762   1.465  23.703   7.350
 8140POPC   NC361763  33.814  39.189   5.550
 8140POPC   PO461764  33.821  39.275   5.850
 8140POPC   GL161765  33.817  39.215   6.150
 8140POPC   GL261766  33.786  39.132   6.150
 8140POPC   C1A61767  33.788  39.280   6.450
 8140POPC   D2A61768  33.788  39.235   6.750
 8140POPC   C3A61769  33.847  39.225   7.050
 8140POPC   C4A61770  33.771  39.232   7.350
 8140POPC   C1B61771  33.847  38.990   6.450
 8140POPC   C2B61772  33.831  38.933   6.750
 8140POPC   C3B61773  33.799  38.977   7.050
 8140POPC   C4B61774  33.820  38.946   7.350
 8141POPC   NC361775  39.998  40.011   5.550
 8141POPC   PO461776  39.962  40.052   5.850
 8141POPC   GL161777  39.989  39.983   6.150
 8141POPC   GL261778  40.166  40.012   6.150
 8141POPC   C1A61779  39.981  39.992   6.450
 8141POPC   D2A61780  39.995  40.038   6.750
 8141POPC   C3A61781  40.053  40.044   7.050
 8141POPC   C4A61782  39.987  39.990   7.350
 8141POPC   C1B61783  40.238  39.985   6.450
 8141POPC   C2B61784  40.245  39.987   6.750
 8141POPC   C3B61785  40.271  40.018   7.050
 8141POPC   C4B61786  40.208  39.959   7.350
 8142POPC   NC361787   8.241  20.597   5.550
 8142POPC   PO461788   8.167  20.596   5.850
 8142POPC   GL161789   8.216  20.591   6.150
 8142POPC   GL261790   8.179  20.718   6.150
 8142POPC   C1A61791   8.197  20.642   6.450
 8142POPC   D2A61792   8.156  20.645   6.750
 8142POPC   C3A61793   8.169  20.590   7.050
 8142POPC   C4A61794   8.200  20.647   7.350
 8142POPC   C1B61795   8.249  20.816   6.450
 8142POPC   C2B61796   8.216  20.881   6.750
 8142POPC   C3B61797   8.263  20.885   7.050
 8142POPC   C4B61798   8.203  20.848   7.350
 8143POPC   NC361799   9.736  20.598   5.550
 8143POPC   PO461800   9.740  20.576   5.850
 8143POPC   GL161801   9.724  20.602   6.150
 8143POPC   GL261802   9.913  20.553   6.150
 8143POPC   C1A61803   9.792  20.572   6.450
 8143POPC   D2A61804   9.712  20.566   6.750
 8143POPC   C3A61805   9.705  20.593   7.050
 8143POPC   C4A61806   9.749  20.592   7.350
 8143POPC   C1B61807  10.031  20.578   6.450
 8143POPC   C2B61808   9.969  20.584   6.750
 8143POPC   C3B61809   9.950  20.561   7.050
 8143POPC   C4B61810   9.970  20.551   7.350
 8144POPC   NC361811  38.457   2.729   5.550
 8144POPC   PO461812  38.418   2.798   5.850
 8144POPC   GL161813  38.448   2.805   6.150
 8144POPC   GL261814  38.401   2.658   6.150
 8144POPC   C1A61815  38.468   2.739   6.450
 8144POPC   D2A61816  38.466   2.796   6.750
 8144POPC   C3A61817  38.472   2.785   7.050
 8144POPC   C4A61818  38.457   2.727   7.350
 8144POPC   C1B61819  38.235   2.590   6.450
 8144POPC   C2B61820  38.287   2.654   6.750
 8144POPC   C3B61821  38.248   2.655   7.050
 8144POPC   C4B61822  38.279   2.597   7.350
 8145POPC   NC361823  31.515  12.101   5.550
 8145POPC   PO461824  31.486  12.112   5.850
 8145POPC   GL161825  31.498  12.076   6.150
 8145POPC   GL261826  31.530  11.943   6.150
 8145POPC   C1A61827  31.514  12.062   6.450
 8145POPC   D2A61828  31.452  12.083   6.750
 8145POPC   C3A61829  31.470  12.076   7.050
 8145POPC   C4A61830  31.494  12.034   7.350
 8145POPC   C1B61831  31.563  11.859   6.450
 8145POPC   C2B61832  31.538  11.801   6.750
 8145POPC   C3B61833  31.605  11.840   7.050
 8145POPC   C4B61834  31.588  11.815   7.350
 8146POPC   NC361835  25.234  10.514   5.550
 8146POPC   PO461836  25.302  10.511   5.850
 8146POPC   GL161837  25.312  10.507   6.150
 8146POPC   GL261838  25.155  10.376   6.150
 8146POPC   C1A61839  25.265  10.481   6.450
 8146POPC   D2A61840  25.300  10.542   6.750
 8146POPC   C3A61841  25.284  10.539   7.050
 8146POPC   C4A61842  25.278  10.478   7.350
 8146POPC   C1B61843  25.075  10.308   6.450
 8146POPC   C2B61844  25.098  10.355   6.750
 8146POPC   C3B61845  25.074  10.355   7.050
 8146POPC   C4B61846  25.135  10.280   7.350
 8147POPC   NC361847   8.935   8.230   5.550
 8147POPC   PO461848   8.969   8.164   5.850
 8147POPC   GL161849   8.991   8.176   6.150
 8147POPC   GL261850   9.033   8.351   6.150
 8147POPC   C1A61851   8.972   8.173   6.450
 8147POPC   D2A61852   8.933   8.180   6.750
 8147POPC   C3A61853   8.967   8.236   7.050
 8147POPC   C4A61854   8.952   8.181   7.350
 8147POPC   C1B61855   9.108   8.403   6.450
 8147POPC   C2B61856   9.062   8.440   6.750
 8147POPC   C3B61857   9.043   8.377   7.050
 8147POPC   C4B61858   9.092   8.451   7.350
 8148POPC   NC361859  36.168  11.266   5.550
 8148POPC   PO461860  36.128  11.294   5.850
 8148POPC   GL161861  36.137  11.287   6.150
 8148POPC   GL261862  36.059  11.241   6.150
 8148POPC   C1A61863  36.139  11.268   6.450
 8148POPC   D2A61864  36.155  11.291   6.750
 8148POPC   C3A61865  36.104  11.292   7.050
 8148POPC   C4A61866  36.118  11.252   7.350
 8148POPC   C1B61867  35.952  11.168   6.450
 8148POPC   C2B61868  35.922  11.202   6.750
 8148POPC   C3B61869  35.946  11.187   7.050
 8148POPC   C4B61870  35.892  11.159   7.350
 8149POPC   NC361871  41.539  29.158   5.550
 8149POPC   PO461872  41.563  29.106   5.850
 8149POPC   GL161873  41.563  29.114   6.150
 8149POPC   GL261874  41.614  29.011   6.150
 8149POPC   C1A61875  41.553  29.101   6.450
 8149POPC   D2A61876  41.602  29.193   6.750
 8149POPC   C3A61877  41.549  29.181   7.050
 8149POPC   C4A61878  41.578  29.154   7.350
 8149POPC   C1B61879  41.652  28.889   6.450
 8149POPC   C2B61880  41.708  28.898   6.750
 8149POPC   C3B61881  41.641  28.962   7.050
 8149POPC   C4B61882  41.729  28.921   7.350
 8150POPC   NC361883  26.862  43.103   5.550
 8150POPC   PO461884  26.816  43.149   5.850
 8150POPC   GL161885  26.834  43.078   6.150
 8150POPC   GL261886  26.900  43.080   6.150
 8150POPC   C1A61887  26.854  43.078   6.450
 8150POPC   D2A61888  26.863  43.145   6.750
 8150POPC   C3A61889  26.789  43.097   7.050
 8150POPC   C4A61890  26.815  43.118   7.350
 8150POPC   C1B61891  27.078  42.979   6.450
 8150POPC   C2B61892  27.034  43.009   6.750
 8150POPC   C3B61893  26.999  42.975   7.050
 8150POPC   C4B61894  26.995  43.026   7.350
 8151POPC   NC361895  11.340  12.056   5.550
 8151POPC   PO461896  11.338  12.051   5.850
 8151POPC   GL161897  11.316  12.125   6.150
 8151POPC   GL261898  11.386  11.956   6.150
 8151POPC   C1A61899  11.266  12.045   6.450
 8151POPC   D2A61900  11.320  12.113   6.750
 8151POPC   C3A61901  11.341  12.064   7.050
 8151POPC   C4A61902  11.302  12.054   7.350
 8151POPC   C1B61903  11.542  11.942   6.450
 8151POPC   C2B61904  11.484  11.917   6.750
 8151POPC   C3B61905  11.449  11.887   7.050
 8151POPC   C4B61906  11.487  11.889   7.350
 8152POPC   NC361907  12.872  12.881   5.550
 8152POPC   PO461908  12.836  12.832   5.850
 8152POPC   GL161909  12.871  12.879   6.150
 8152POPC   GL261910  12.792  12.960   6.150
 8152POPC   C1A61911  12.892  12.858   6.450
 8152POPC   D2A61912  12.860  12.874   6.750
 8152POPC   C3A61913  12.824  12.867   7.050
 8152POPC   C4A61914  12.857  12.828   7.350
 8152POPC   C1B61915  12.778  13.127   6.450
 8152POPC   C2B61916  12.813  13.108   6.750
 8152POPC   C3B61917  12.723  13.045   7.050
 8152POPC   C4B61918  12.795  13.135   7.350
 8153POPC   NC361919  17.496  29.136   5.550
 8153POPC   PO461920  17.531  29.171   5.850
 8153POPC   GL161921  17.503  29.097   6.150
 8153POPC   GL261922  17.613  29.047   6.150
 8153POPC   C1A61923  17.466  29.096   6.450
 8153POPC   D2A61924  17.489  29.166   6.750
 8153POPC   C3A61925  17.508  29.113   7.050
 8153POPC   C4A61926  17.479  29.152   7.350
 8153POPC   C1B61927  17.778  29.035   6.450
 8153POPC   C2B61928  17.741  29.068   6.750
 8153POPC   C3B61929  17.762  29.022   7.050
 8153POPC   C4B61930  17.740  29.022   7.350
 8154POPC   NC361931  34.531  14.389   5.550
 8154POPC   PO461932  34.590  14.363   5.850
 8154POPC   GL161933  34.624  14.356   6.150
 8154POPC   GL261934  34.510  14.539   6.150
 8154POPC   C1A61935  34.591  14.359   6.450
 8154POPC   D2A61936  34.619  14.373   6.750
 8154POPC   C3A61937  34.537  14.374   7.050
 8154POPC   C4A61938  34.544  14.358   7.350
 8154POPC   C1B61939  34.499  14.668   6.450
 8154POPC   C2B61940  34.513  14.657   6.750
 8154POPC   C3B61941  34.470  14.630   7.050
 8154POPC   C4B61942  34.470  14.602   7.350
 8155POPC   NC361943  30.675   8.167   5.550
 8155POPC   PO461944  30.726   8.172   5.850
 8155POPC   GL161945  30.713   8.212   6.150
 8155POPC   GL261946  30.645   8.069   6.150
 8155POPC   C1A61947  30.721   8.182   6.450
 8155POPC   D2A61948  30.658   8.169   6.750
 8155POPC   C3A61949  30.740   8.219   7.050
 8155POPC   C4A61950  30.712   8.155   7.350
 8155POPC   C1B61951  30.634   7.978   6.450
 8155POPC   C2B61952  30.588   7.977   6.750
 8155POPC   C3B61953  30.565   7.985   7.050
 8155POPC   C4B61954  30.652   7.975   7.350
 8156POPC   NC361955   5.121  41.564   5.550
 8156POPC   PO461956   5.112  41.584   5.850
 8156POPC   GL161957   5.142  41.608   6.150
 8156POPC   GL261958   5.066  41.398   6.150
 8156POPC   C1A61959   5.128  41.543   6.450
 8156POPC   D2A61960   5.105  41.517   6.750
 8156POPC   C3A61961   5.044  41.512   7.050
 8156POPC   C4A61962   5.087  41.544   7.350
 8156POPC   C1B61963   5.064  41.313   6.450
 8156POPC   C2B61964   5.033  41.365   6.750
 8156POPC   C3B61965   4.980  41.315   7.050
 8156POPC   C4B61966   5.019  41.314   7.350
 8157POPC   NC361967  41.601   0.434   5.550
 8157POPC   PO461968  41.543   0.424   5.850
 8157POPC   GL161969  41.534   0.469   6.150
 8157POPC   GL261970  41.672   0.566   6.150
 8157POPC   C1A61971  41.581   0.396   6.450
 8157POPC   D2A61972  41.603   0.457   6.750
 8157POPC   C3A61973  41.594   0.400   7.050
 8157POPC   C4A61974  41.607   0.471   7.350
 8157POPC   C1B61975  41.652   0.612   6.450
 8157POPC   C2B61976  41.669   0.628   6.750
 8157POPC   C3B61977  41.694   0.662   7.050
 8157POPC   C4B61978  41.687   0.641   7.350
 8158POPC   NC361979   8.969  22.163   5.550
 8158POPC   PO461980   8.981  22.180   5.850
 8158POPC   GL161981   9.013  22.207   6.150
 8158POPC   GL261982   9.054  22.172   6.150
 8158POPC   C1A61983   8.935  22.122   6.450
 8158POPC   D2A61984   8.941  22.171   6.750
 8158POPC   C3A61985   8.989  22.155   7.050
 8158POPC   C4A61986   8.924  22.202   7.350
 8158POPC   C1B61987   9.182  22.212   6.450
 8158POPC   C2B61988   9.181  22.207   6.750
 8158POPC   C3B61989   9.185  22.200   7.050
 8158POPC   C4B61990   9.251  22.185   7.350
 8159POPC   NC361991  39.198  29.904   5.550
 8159POPC   PO461992  39.209  29.942   5.850
 8159POPC   GL161993  39.182  29.880   6.150
 8159POPC   GL261994  39.333  29.847   6.150
 8159POPC   C1A61995  39.248  29.934   6.450
 8159POPC   D2A61996  39.263  29.894   6.750
 8159POPC   C3A61997  39.269  29.898   7.050
 8159POPC   C4A61998  39.205  29.913   7.350
 8159POPC   C1B61999  39.444  29.793   6.450
 8159POPC   C2B62000  39.375  29.790   6.750
 8159POPC   C3B62001  39.396  29.762   7.050
 8159POPC   C4B62002  39.404  29.789   7.350
 8160POPC   NC362003  37.710  23.670   5.550
 8160POPC   PO462004  37.711  23.749   5.850
 8160POPC   GL162005  37.691  23.699   6.150
 8160POPC   GL262006  37.769  23.669   6.150
 8160POPC   C1A62007  37.637  23.760   6.450
 8160POPC   D2A62008  37.721  23.748   6.750
 8160POPC   C3A62009  37.720  23.753   7.050
 8160POPC   C4A62010  37.636  23.673   7.350
 8160POPC   C1B62011  37.869  23.629   6.450
 8160POPC   C2B62012  37.935  23.586   6.750
 8160POPC   C3B62013  37.857  23.591   7.050
 8160POPC   C4B62014  37.874  23.589   7.350
 8161POPC   NC362015  17.459   4.326   5.550
 8161POPC   PO462016  17.519   4.359   5.850
 8161POPC   GL162017  17.468   4.290   6.150
 8161POPC   GL262018  17.368   4.379   6.150
 8161POPC   C1A62019  17.493   4.298   6.450
 8161POPC   D2A62020  17.463   4.285   6.750
 8161POPC   C3A62021  17.495   4.337   7.050
 8161POPC   C4A62022  17.553   4.320   7.350
 8161POPC   C1B62023  17.270   4.460   6.450
 8161POPC   C2B62024  17.299   4.455   6.750
 8161POPC   C3B62025  17.238   4.386   7.050
 8161POPC   C4B62026  17.251   4.456   7.350
 8162POPC   NC362027   5.823  21.412   5.550
 8162POPC   PO462028   5.893  21.362   5.850
 8162POPC   GL162029   5.863  21.415   6.150
 8162POPC   GL262030   5.748  21.320   6.150
 8162POPC   C1A62031   5.829  21.355   6.450
 8162POPC   D2A62032   5.837  21.434   6.750
 8162POPC   C3A62033   5.880  21.421   7.050
 8162POPC   C4A62034   5.854  21.422   7.350
 8162POPC   C1B62035   5.708  21.241   6.450
 8162POPC   C2B62036   5.620  21.255   6.750
 8162POPC   C3B62037   5.679  21.232   7.050
 8162POPC   C4B62038   5.629  21.210   7.350
 8163POPC   NC362039  32.235   5.100   5.550
 8163POPC   PO462040  32.215   5.087   5.850
 8163POPC   GL162041  32.271   5.054   6.150
 8163POPC   GL262042  32.231   4.973   6.150
 8163POPC   C1A62043  32.263   5.139   6.450
 8163POPC   D2A62044  32.241   5.044   6.750
 8163POPC   C3A62045  32.273   5.089   7.050
 8163POPC   C4A62046  32.218   5.068   7.350
 8163POPC   C1B62047  32.263   4.892   6.450
 8163POPC   C2B62048  32.254   4.826   6.750
 8163POPC   C3B62049  32.292   4.857   7.050
 8163POPC   C4B62050  32.303   4.826   7.350
 8164POPC   NC362051  25.305   5.084   5.550
 8164POPC   PO462052  25.283   5.135   5.850
 8164POPC   GL162053  25.228   5.134   6.150
 8164POPC   GL262054  25.134   5.115   6.150
 8164POPC   C1A62055  25.261   5.073   6.450
 8164POPC   D2A62056  25.293   5.084   6.750
 8164POPC   C3A62057  25.288   5.120   7.050
 8164POPC   C4A62058  25.233   5.071   7.350
 8164POPC   C1B62059  25.025   5.101   6.450
 8164POPC   C2B62060  25.053   5.148   6.750
 8164POPC   C3B62061  24.991   5.130   7.050
 8164POPC   C4B62062  25.047   5.072   7.350
 8165POPC   NC362063   6.622  35.302   5.550
 8165POPC   PO462064   6.624  35.349   5.850
 8165POPC   GL162065   6.627  35.385   6.150
 8165POPC   GL262066   6.567  35.224   6.150
 8165POPC   C1A62067   6.661  35.388   6.450
 8165POPC   D2A62068   6.605  35.320   6.750
 8165POPC   C3A62069   6.663  35.349   7.050
 8165POPC   C4A62070   6.623  35.367   7.350
 8165POPC   C1B62071   6.572  35.130   6.450
 8165POPC   C2B62072   6.535  35.097   6.750
 8165POPC   C3B62073   6.522  35.071   7.050
 8165POPC   C4B62074   6.608  35.090   7.350
 8166POPC   NC362075   4.270  29.140   5.550
 8166POPC   PO462076   4.328  29.163   5.850
 8166POPC   GL162077   4.355  29.193   6.150
 8166POPC   GL262078   4.328  29.002   6.150
 8166POPC   C1A62079   4.319  29.177   6.450
 8166POPC   D2A62080   4.297  29.173   6.750
 8166POPC   C3A62081   4.293  29.118   7.050
 8166POPC   C4A62082   4.350  29.095   7.350
 8166POPC   C1B62083   4.347  28.862   6.450
 8166POPC   C2B62084   4.376  28.915   6.750
 8166POPC   C3B62085   4.317  28.906   7.050
 8166POPC   C4B62086   4.335  28.863   7.350
 8167POPC   NC362087  42.325   9.783   5.550
 8167POPC   PO462088  42.318   9.715   5.850
 8167POPC   GL162089  42.368   9.778   6.150
 8167POPC   GL262090  42.263   9.621   6.150
 8167POPC   C1A62091  42.294   9.709   6.450
 8167POPC   D2A62092  42.347   9.746   6.750
 8167POPC   C3A62093  42.305   9.774   7.050
 8167POPC   C4A62094  42.383   9.708   7.350
 8167POPC   C1B62095  42.275   9.472   6.450
 8167POPC   C2B62096  42.306   9.547   6.750
 8167POPC   C3B62097  42.213   9.496   7.050
 8167POPC   C4B62098  42.212   9.501   7.350
 8168POPC   NC362099   5.078   9.011   5.550
 8168POPC   PO462100   5.049   8.947   5.850
 8168POPC   GL162101   5.049   8.968   6.150
 8168POPC   GL262102   5.114   8.852   6.150
 8168POPC   C1A62103   5.071   9.015   6.450
 8168POPC   D2A62104   5.075   8.990   6.750
 8168POPC   C3A62105   5.140   8.982   7.050
 8168POPC   C4A62106   5.047   9.017   7.350
 8168POPC   C1B62107   5.052   8.700   6.450
 8168POPC   C2B62108   5.091   8.710   6.750
 8168POPC   C3B62109   5.068   8.710   7.050
 8168POPC   C4B62110   5.010   8.686   7.350
 8169POPC   NC362111  15.909   1.945   5.550
 8169POPC   PO462112  15.910   1.974   5.850
 8169POPC   GL162113  15.997   2.036   6.150
 8169POPC   GL262114  15.889   2.154   6.150
 8169POPC   C1A62115  15.980   1.960   6.450
 8169POPC   D2A62116  15.905   2.017   6.750
 8169POPC   C3A62117  15.945   1.946   7.050
 8169POPC   C4A62118  15.972   1.957   7.350
 8169POPC   C1B62119  15.959   2.241   6.450
 8169POPC   C2B62120  15.900   2.277   6.750
 8169POPC   C3B62121  15.960   2.212   7.050
 8169POPC   C4B62122  15.916   2.192   7.350
 8170POPC   NC362123  28.322  14.376   5.550
 8170POPC   PO462124  28.343  14.442   5.850
 8170POPC   GL162125  28.386  14.371   6.150
 8170POPC   GL262126  28.262  14.268   6.150
 8170POPC   C1A62127  28.401  14.381   6.450
 8170POPC   D2A62128  28.382  14.373   6.750
 8170POPC   C3A62129  28.381  14.357   7.050
 8170POPC   C4A62130  28.347  14.438   7.350
 8170POPC   C1B62131  28.180  14.173   6.450
 8170POPC   C2B62132  28.240  14.209   6.750
 8170POPC   C3B62133  28.223  14.211   7.050
 8170POPC   C4B62134  28.196  14.264   7.350
 8171POPC   NC362135   4.294  19.806   5.550
 8171POPC   PO462136   4.281  19.874   5.850
 8171POPC   GL162137   4.334  19.848   6.150
 8171POPC   GL262138   4.293  19.720   6.150
 8171POPC   C1A62139   4.337  19.866   6.450
 8171POPC   D2A62140   4.276  19.847   6.750
 8171POPC   C3A62141   4.313  19.850   7.050
 8171POPC   C4A62142   4.321  19.873   7.350
 8171POPC   C1B62143   4.137  19.634   6.450
 8171POPC   C2B62144   4.195  19.632   6.750
 8171POPC   C3B62145   4.180  19.606   7.050
 8171POPC   C4B62146   4.201  19.586   7.350
 8172POPC   NC362147  22.907  14.407   5.550
 8172POPC   PO462148  22.906  14.416   5.850
 8172POPC   GL162149  22.966  14.389   6.150
 8172POPC   GL262150  22.800  14.376   6.150
 8172POPC   C1A62151  22.946  14.426   6.450
 8172POPC   D2A62152  22.943  14.399   6.750
 8172POPC   C3A62153  22.954  14.438   7.050
 8172POPC   C4A62154  22.902  14.410   7.350
 8172POPC   C1B62155  22.697  14.449   6.450
 8172POPC   C2B62156  22.693  14.438   6.750
 8172POPC   C3B62157  22.682  14.431   7.050
 8172POPC   C4B62158  22.681  14.407   7.350
 8173POPC   NC362159  13.615  36.146   5.550
 8173POPC   PO462160  13.622  36.158   5.850
 8173POPC   GL162161  13.588  36.096   6.150
 8173POPC   GL262162  13.548  36.053   6.150
 8173POPC   C1A62163  13.669  36.152   6.450
 8173POPC   D2A62164  13.672  36.143   6.750
 8173POPC   C3A62165  13.671  36.162   7.050
 8173POPC   C4A62166  13.638  36.175   7.350
 8173POPC   C1B62167  13.442  35.968   6.450
 8173POPC   C2B62168  13.531  35.972   6.750
 8173POPC   C3B62169  13.460  35.917   7.050
 8173POPC   C4B62170  13.485  35.880   7.350
 8174POPC   NC362171   9.758   4.352   5.550
 8174POPC   PO462172   9.783   4.305   5.850
 8174POPC   GL162173   9.767   4.312   6.150
 8174POPC   GL262174   9.800   4.204   6.150
 8174POPC   C1A62175   9.711   4.339   6.450
 8174POPC   D2A62176   9.770   4.357   6.750
 8174POPC   C3A62177   9.722   4.327   7.050
 8174POPC   C4A62178   9.785   4.323   7.350
 8174POPC   C1B62179   9.830   4.058   6.450
 8174POPC   C2B62180   9.762   4.044   6.750
 8174POPC   C3B62181   9.819   4.051   7.050
 8174POPC   C4B62182   9.782   4.041   7.350
 8175POPC   NC362183  21.404  34.607   5.550
 8175POPC   PO462184  21.435  34.576   5.850
 8175POPC   GL162185  21.358  34.554   6.150
 8175POPC   GL262186  21.340  34.430   6.150
 8175POPC   C1A62187  21.396  34.569   6.450
 8175POPC   D2A62188  21.436  34.554   6.750
 8175POPC   C3A62189  21.350  34.565   7.050
 8175POPC   C4A62190  21.422  34.610   7.350
 8175POPC   C1B62191  21.389  34.294   6.450
 8175POPC   C2B62192  21.379  34.342   6.750
 8175POPC   C3B62193  21.326  34.318   7.050
 8175POPC   C4B62194  21.316  34.282   7.350
 8176POPC   NC362195  33.063   4.318   5.550
 8176POPC   PO462196  33.015   4.358   5.850
 8176POPC   GL162197  33.047   4.282   6.150
 8176POPC   GL262198  32.950   4.222   6.150
 8176POPC   C1A62199  33.014   4.290   6.450
 8176POPC   D2A62200  33.030   4.284   6.750
 8176POPC   C3A62201  33.028   4.269   7.050
 8176POPC   C4A62202  33.005   4.296   7.350
 8176POPC   C1B62203  32.920   4.115   6.450
 8176POPC   C2B62204  32.881   4.108   6.750
 8176POPC   C3B62205  32.851   4.116   7.050
 8176POPC   C4B62206  32.940   4.080   7.350
 8177POPC   NC362207  24.474   5.859   5.550
 8177POPC   PO462208  24.466   5.822   5.850
 8177POPC   GL162209  24.525   5.877   6.150
 8177POPC   GL262210  24.487   5.995   6.150
 8177POPC   C1A62211  24.498   5.845   6.450
 8177POPC   D2A62212  24.466   5.848   6.750
 8177POPC   C3A62213  24.455   5.820   7.050
 8177POPC   C4A62214  24.529   5.826   7.350
 8177POPC   C1B62215  24.469   6.123   6.450
 8177POPC   C2B62216  24.484   6.115   6.750
 8177POPC   C3B62217  24.491   6.118   7.050
 8177POPC   C4B62218  24.519   6.163   7.350
 8178POPC   NC362219  36.085  19.804   5.550
 8178POPC   PO462220  36.130  19.831   5.850
 8178POPC   GL162221  36.167  19.819   6.150
 8178POPC   GL262222  36.012  19.862   6.150
 8178POPC   C1A62223  36.161  19.845   6.450
 8178POPC   D2A62224  36.173  19.880   6.750
 8178POPC   C3A62225  36.118  19.836   7.050
 8178POPC   C4A62226  36.137  19.873   7.350
 8178POPC   C1B62227  35.874  19.891   6.450
 8178POPC   C2B62228  35.836  19.903   6.750
 8178POPC   C3B62229  35.875  19.837   7.050
 8178POPC   C4B62230  35.839  19.818   7.350
 8179POPC   NC362231  28.355  11.317   5.550
 8179POPC   PO462232  28.329  11.294   5.850
 8179POPC   GL162233  28.364  11.342   6.150
 8179POPC   GL262234  28.278  11.313   6.150
 8179POPC   C1A62235  28.405  11.251   6.450
 8179POPC   D2A62236  28.341  11.289   6.750
 8179POPC   C3A62237  28.361  11.307   7.050
 8179POPC   C4A62238  28.342  11.268   7.350
 8179POPC   C1B62239  28.170  11.291   6.450
 8179POPC   C2B62240  28.164  11.275   6.750
 8179POPC   C3B62241  28.076  11.232   7.050
 8179POPC   C4B62242  28.118  11.230   7.350
 8180POPC   NC362243  22.154  19.851   5.550
 8180POPC   PO462244  22.173  19.851   5.850
 8180POPC   GL162245  22.210  19.883   6.150
 8180POPC   GL262246  22.033  19.747   6.150
 8180POPC   C1A62247  22.155  19.843   6.450
 8180POPC   D2A62248  22.185  19.822   6.750
 8180POPC   C3A62249  22.175  19.874   7.050
 8180POPC   C4A62250  22.205  19.788   7.350
 8180POPC   C1B62251  21.953  19.719   6.450
 8180POPC   C2B62252  21.948  19.741   6.750
 8180POPC   C3B62253  21.943  19.731   7.050
 8180POPC   C4B62254  21.914  19.734   7.350
 8181POPC   NC362255  10.573  38.476   5.550
 8181POPC   PO462256  10.493  38.488   5.850
 8181POPC   GL162257  10.478  38.459   6.150
 8181POPC   GL262258  10.432  38.440   6.150
 8181POPC   C1A62259  10.552  38.433   6.450
 8181POPC   D2A62260  10.507  38.433   6.750
 8181POPC   C3A62261  10.555  38.419   7.050
 8181POPC   C4A62262  10.536  38.444   7.350
 8181POPC   C1B62263  10.245  38.442   6.450
 8181POPC   C2B62264  10.307  38.438   6.750
 8181POPC   C3B62265  10.297  38.455   7.050
 8181POPC   C4B62266  10.323  38.507   7.350
 8182POPC   NC362267   1.190   8.952   5.550
 8182POPC   PO462268   1.193   8.935   5.850
 8182POPC   GL162269   1.203   8.967   6.150
 8182POPC   GL262270   1.325   9.013   6.150
 8182POPC   C1A62271   1.229   8.997   6.450
 8182POPC   D2A62272   1.232   9.013   6.750
 8182POPC   C3A62273   1.255   8.942   7.050
 8182POPC   C4A62274   1.180   8.924   7.350
 8182POPC   C1B62275   1.452   9.136   6.450
 8182POPC   C2B62276   1.397   9.137   6.750
 8182POPC   C3B62277   1.441   9.154   7.050
 8182POPC   C4B62278   1.449   9.112   7.350
 8183POPC   NC362279  43.935  43.838   5.550
 8183POPC   PO462280  43.928  43.859   5.850
 8183POPC   GL162281  43.934  43.867   6.150
 8183POPC   GL262282  43.864  43.789   6.150
 8183POPC   C1A62283  43.853  43.928   6.450
 8183POPC   D2A62284  43.927  43.871   6.750
 8183POPC   C3A62285  43.865  43.885   7.050
 8183POPC   C4A62286  43.904  43.842   7.350
 8183POPC   C1B62287  43.783  43.652   6.450
 8183POPC   C2B62288  43.820  43.711   6.750
 8183POPC   C3B62289  43.760  43.674   7.050
 8183POPC   C4B62290  43.733  43.613   7.350
 8184POPC   NC362291   3.552  30.720   5.550
 8184POPC   PO462292   3.498  30.722   5.850
 8184POPC   GL162293   3.503  30.652   6.150
 8184POPC   GL262294   3.513  30.526   6.150
 8184POPC   C1A62295   3.493  30.738   6.450
 8184POPC   D2A62296   3.589  30.689   6.750
 8184POPC   C3A62297   3.529  30.699   7.050
 8184POPC   C4A62298   3.518  30.698   7.350
 8184POPC   C1B62299   3.440  30.453   6.450
 8184POPC   C2B62300   3.456  30.484   6.750
 8184POPC   C3B62301   3.531  30.451   7.050
 8184POPC   C4B62302   3.507  30.498   7.350
 8185POPC   NC362303   4.301   8.175   5.550
 8185POPC   PO462304   4.361   8.233   5.850
 8185POPC   GL162305   4.333   8.184   6.150
 8185POPC   GL262306   4.202   8.347   6.150
 8185POPC   C1A62307   4.337   8.214   6.450
 8185POPC   D2A62308   4.360   8.176   6.750
 8185POPC   C3A62309   4.327   8.214   7.050
 8185POPC   C4A62310   4.304   8.213   7.350
 8185POPC   C1B62311   4.186   8.444   6.450
 8185POPC   C2B62312   4.139   8.450   6.750
 8185POPC   C3B62313   4.200   8.451   7.050
 8185POPC   C4B62314   4.156   8.405   7.350
 8186POPC   NC362315   9.701  33.781   5.550
 8186POPC   PO462316   9.754  33.815   5.850
 8186POPC   GL162317   9.787  33.796   6.150
 8186POPC   GL262318   9.716  33.737   6.150
 8186POPC   C1A62319   9.737  33.798   6.450
 8186POPC   D2A62320   9.797  33.753   6.750
 8186POPC   C3A62321   9.700  33.761   7.050
 8186POPC   C4A62322   9.744  33.754   7.350
 8186POPC   C1B62323   9.615  33.635   6.450
 8186POPC   C2B62324   9.651  33.622   6.750
 8186POPC   C3B62325   9.582  33.636   7.050
 8186POPC   C4B62326   9.603  33.583   7.350
 8187POPC   NC362327  11.303  33.073   5.550
 8187POPC   PO462328  11.311  33.010   5.850
 8187POPC   GL162329  11.306  33.044   6.150
 8187POPC   GL262330  11.390  33.084   6.150
 8187POPC   C1A62331  11.287  33.059   6.450
 8187POPC   D2A62332  11.293  33.057   6.750
 8187POPC   C3A62333  11.327  33.022   7.050
 8187POPC   C4A62334  11.314  33.045   7.350
 8187POPC   C1B62335  11.456  33.258   6.450
 8187POPC   C2B62336  11.394  33.199   6.750
 8187POPC   C3B62337  11.470  33.224   7.050
 8187POPC   C4B62338  11.440  33.196   7.350
 8188POPC   NC362339  23.722  44.694   5.550
 8188POPC   PO462340  23.730  44.703   5.850
 8188POPC   GL162341  23.680  44.651   6.150
 8188POPC   GL262342  23.588  44.616   6.150
 8188POPC   C1A62343  23.708  44.687   6.450
 8188POPC   D2A62344  23.721  44.680   6.750
 8188POPC   C3A62345  23.704  44.709   7.050
 8188POPC   C4A62346  23.757  44.712   7.350
 8188POPC   C1B62347  23.470  44.607   6.450
 8188POPC   C2B62348  23.429  44.633   6.750
 8188POPC   C3B62349  23.417  44.647   7.050
 8188POPC   C4B62350  23.500  44.640   7.350
 8189POPC   NC362351   6.676  19.074   5.550
 8189POPC   PO462352   6.618  19.025   5.850
 8189POPC   GL162353   6.689  19.014   6.150
 8189POPC   GL262354   6.637  18.973   6.150
 8189POPC   C1A62355   6.618  19.091   6.450
 8189POPC   D2A62356   6.668  19.018   6.750
 8189POPC   C3A62357   6.691  19.027   7.050
 8189POPC   C4A62358   6.650  19.095   7.350
 8189POPC   C1B62359   6.635  18.817   6.450
 8189POPC   C2B62360   6.680  18.820   6.750
 8189POPC   C3B62361   6.685  18.765   7.050
 8189POPC   C4B62362   6.702  18.782   7.350
 8190POPC   NC362363  19.848  16.710   5.550
 8190POPC   PO462364  19.870  16.717   5.850
 8190POPC   GL162365  19.877  16.779   6.150
 8190POPC   GL262366  19.917  16.569   6.150
 8190POPC   C1A62367  19.840  16.760   6.450
 8190POPC   D2A62368  19.828  16.772   6.750
 8190POPC   C3A62369  19.818  16.684   7.050
 8190POPC   C4A62370  19.860  16.709   7.350
 8190POPC   C1B62371  19.944  16.485   6.450
 8190POPC   C2B62372  19.935  16.479   6.750
 8190POPC   C3B62373  19.878  16.485   7.050
 8190POPC   C4B62374  19.925  16.494   7.350
 8191POPC   NC362375  28.337  29.906   5.550
 8191POPC   PO462376  28.363  29.899   5.850
 8191POPC   GL162377  28.323  29.903   6.150
 8191POPC   GL262378  28.261  29.890   6.150
 8191POPC   C1A62379  28.331  29.900   6.450
 8191POPC   D2A62380  28.416  29.890   6.750
 8191POPC   C3A62381  28.380  29.916   7.050
 8191POPC   C4A62382  28.376  29.872   7.350
 8191POPC   C1B62383  28.197  29.741   6.450
 8191POPC   C2B62384  28.221  29.744   6.750
 8191POPC   C3B62385  28.182  29.726   7.050
 8191POPC   C4B62386  28.182  29.733   7.350
 8192POPC   NC362387   5.082   0.485   5.550
 8192POPC   PO462388   5.075   0.467   5.850
 8192POPC   GL162389   5.091   0.420   6.150
 8192POPC   GL262390   5.108   0.368   6.150
 8192POPC   C1A62391   5.064   0.390   6.450
 8192POPC   D2A62392   5.142   0.466   6.750
 8192POPC   C3A62393   5.056   0.477   7.050
 8192POPC   C4A62394   5.116   0.416   7.350
 8192POPC   C1B62395   5.184   0.159   6.450
 8192POPC   C2B62396   5.207   0.220   6.750
 8192POPC   C3B62397   5.122   0.237   7.050
 8192POPC   C4B62398   5.207   0.228   7.350
 8193POPC   NC362399  33.839  12.821   5.550
 8193POPC   PO462400  33.846  12.840   5.850
 8193POPC   GL162401  33.754  12.875   6.150
 8193POPC   GL262402  33.798  12.942   6.150
 8193POPC   C1A62403  33.766  12.878   6.450
 8193POPC   D2A62404  33.802  12.841   6.750
 8193POPC   C3A62405  33.814  12.804   7.050
 8193POPC   C4A62406  33.786  12.851   7.350
 8193POPC   C1B62407  33.670  13.109   6.450
 8193POPC   C2B62408  33.675  13.097   6.750
 8193POPC   C3B62409  33.758  13.089   7.050
 8193POPC   C4B62410  33.716  13.118   7.350
 8194POPC   NC362411  28.384  40.796   5.550
 8194POPC   PO462412  28.352  40.825   5.850
 8194POPC   GL162413  28.335  40.828   6.150
 8194POPC   GL262414  28.278  40.721   6.150
 8194POPC   C1A62415  28.344  40.750   6.450
 8194POPC   D2A62416  28.374  40.794   6.750
 8194POPC   C3A62417  28.399  40.763   7.050
 8194POPC   C4A62418  28.418  40.766   7.350
 8194POPC   C1B62419  28.184  40.589   6.450
 8194POPC   C2B62420  28.245  40.595   6.750
 8194POPC   C3B62421  28.239  40.609   7.050
 8194POPC   C4B62422  28.167  40.554   7.350
 8195POPC   NC362423  15.942  28.325   5.550
 8195POPC   PO462424  16.003  28.350   5.850
 8195POPC   GL162425  15.951  28.358   6.150
 8195POPC   GL262426  15.928  28.459   6.150
 8195POPC   C1A62427  15.952  28.407   6.450
 8195POPC   D2A62428  15.940  28.374   6.750
 8195POPC   C3A62429  15.985  28.363   7.050
 8195POPC   C4A62430  15.953  28.418   7.350
 8195POPC   C1B62431  15.941  28.587   6.450
 8195POPC   C2B62432  15.991  28.591   6.750
 8195POPC   C3B62433  15.959  28.619   7.050
 8195POPC   C4B62434  16.016  28.621   7.350
 8196POPC   NC362435  15.970  11.346   5.550
 8196POPC   PO462436  15.979  11.288   5.850
 8196POPC   GL162437  15.980  11.330   6.150
 8196POPC   GL262438  15.940  11.426   6.150
 8196POPC   C1A62439  15.961  11.265   6.450
 8196POPC   D2A62440  15.944  11.286   6.750
 8196POPC   C3A62441  15.962  11.272   7.050
 8196POPC   C4A62442  15.952  11.268   7.350
 8196POPC   C1B62443  16.035  11.574   6.450
 8196POPC   C2B62444  15.970  11.532   6.750
 8196POPC   C3B62445  16.005  11.582   7.050
 8196POPC   C4B62446  16.024  11.506   7.350
 8197POPC   NC362447  28.339  16.726   5.550
 8197POPC   PO462448  28.387  16.773   5.850
 8197POPC   GL162449  28.419  16.775   6.150
 8197POPC   GL262450  28.507  16.661   6.150
 8197POPC   C1A62451  28.357  16.744   6.450
 8197POPC   D2A62452  28.412  16.696   6.750
 8197POPC   C3A62453  28.357  16.756   7.050
 8197POPC   C4A62454  28.413  16.689   7.350
 8197POPC   C1B62455  28.566  16.547   6.450
 8197POPC   C2B62456  28.527  16.556   6.750
 8197POPC   C3B62457  28.611  16.605   7.050
 8197POPC   C4B62458  28.567  16.579   7.350
 8198POPC   NC362459   8.151  26.088   5.550
 8198POPC   PO462460   8.176  26.037   5.850
 8198POPC   GL162461   8.180  26.027   6.150
 8198POPC   GL262462   8.192  25.907   6.150
 8198POPC   C1A62463   8.210  26.050   6.450
 8198POPC   D2A62464   8.209  26.008   6.750
 8198POPC   C3A62465   8.231  26.042   7.050
 8198POPC   C4A62466   8.209  26.048   7.350
 8198POPC   C1B62467   8.100  25.838   6.450
 8198POPC   C2B62468   8.155  25.852   6.750
 8198POPC   C3B62469   8.115  25.812   7.050
 8198POPC   C4B62470   8.098  25.849   7.350
 8199POPC   NC362471  12.841  16.682   5.550
 8199POPC   PO462472  12.885  16.716   5.850
 8199POPC   GL162473  12.849  16.761   6.150
 8199POPC   GL262474  12.748  16.719   6.150
 8199POPC   C1A62475  12.854  16.739   6.450
 8199POPC   D2A62476  12.810  16.766   6.750
 8199POPC   C3A62477  12.887  16.730   7.050
 8199POPC   C4A62478  12.888  16.753   7.350
 8199POPC   C1B62479  12.586  16.662   6.450
 8199POPC   C2B62480  12.563  16.670   6.750
 8199POPC   C3B62481  12.588  16.673   7.050
 8199POPC   C4B62482  12.617  16.739   7.350
 8200POPC   NC362483   5.868  14.445   5.550
 8200POPC   PO462484   5.848  14.447   5.850
 8200POPC   GL162485   5.891  14.401   6.150
 8200POPC   GL262486   5.969  14.310   6.150
 8200POPC   C1A62487   5.877  14.359   6.450
 8200POPC   D2A62488   5.885  14.360   6.750
 8200POPC   C3A62489   5.874  14.450   7.050
 8200POPC   C4A62490   5.879  14.436   7.350
 8200POPC   C1B62491   5.984  14.238   6.450
 8200POPC   C2B62492   6.011  14.201   6.750
 8200POPC   C3B62493   6.011  14.260   7.050
 8200POPC   C4B62494   6.062  14.170   7.350
 8201POPC   NC362495   2.017  30.679   5.550
 8201POPC   PO462496   2.018  30.736   5.850
 8201POPC   GL162497   2.022  30.722   6.150
 8201POPC   GL262498   1.893  30.752   6.150
 8201POPC   C1A62499   1.955  30.689   6.450
 8201POPC   D2A62500   2.028  30.680   6.750
 8201POPC   C3A62501   1.990  30.711   7.050
 8201POPC   C4A62502   2.009  30.730   7.350
 8201POPC   C1B62503   1.797  30.794   6.450
 8201POPC   C2B62504   1.775  30.774   6.750
 8201POPC   C3B62505   1.790  30.820   7.050
 8201POPC   C4B62506   1.739  30.825   7.350
 8202POPC   NC362507  42.382   8.220   5.550
 8202POPC   PO462508  42.321   8.239   5.850
 8202POPC   GL162509  42.329   8.211   6.150
 8202POPC   GL262510  42.306   8.076   6.150
 8202POPC   C1A62511  42.321   8.243   6.450
 8202POPC   D2A62512  42.294   8.222   6.750
 8202POPC   C3A62513  42.298   8.171   7.050
 8202POPC   C4A62514  42.374   8.203   7.350
 8202POPC   C1B62515  42.255   7.979   6.450
 8202POPC   C2B62516  42.283   7.990   6.750
 8202POPC   C3B62517  42.227   7.978   7.050
 8202POPC   C4B62518  42.238   7.971   7.350
 8203POPC   NC362519  37.706  33.800   5.550
 8203POPC   PO462520  37.676  33.827   5.850
 8203POPC   GL162521  37.642  33.808   6.150
 8203POPC   GL262522  37.587  33.912   6.150
 8203POPC   C1A62523  37.645  33.769   6.450
 8203POPC   D2A62524  37.707  33.754   6.750
 8203POPC   C3A62525  37.660  33.807   7.050
 8203POPC   C4A62526  37.641  33.832   7.350
 8203POPC   C1B62527  37.523  33.955   6.450
 8203POPC   C2B62528  37.510  33.978   6.750
 8203POPC   C3B62529  37.487  34.008   7.050
 8203POPC   C4B62530  37.446  33.992   7.350
 8204POPC   NC362531  19.873   3.502   5.550
 8204POPC   PO462532  19.847   3.569   5.850
 8204POPC   GL162533  19.792   3.585   6.150
 8204POPC   GL262534  19.924   3.562   6.150
 8204POPC   C1A62535  19.805   3.518   6.450
 8204POPC   D2A62536  19.850   3.555   6.750
 8204POPC   C3A62537  19.829   3.551   7.050
 8204POPC   C4A62538  19.793   3.519   7.350
 8204POPC   C1B62539  20.091   3.660   6.450
 8204POPC   C2B62540  20.097   3.677   6.750
 8204POPC   C3B62541  20.070   3.610   7.050
 8204POPC   C4B62542  20.053   3.652   7.350
 8205POPC   NC362543  33.001  18.239   5.550
 8205POPC   PO462544  33.018  18.255   5.850
 8205POPC   GL162545  33.072  18.255   6.150
 8205POPC   GL262546  32.900  18.249   6.150
 8205POPC   C1A62547  33.036  18.294   6.450
 8205POPC   D2A62548  33.074  18.263   6.750
 8205POPC   C3A62549  33.050  18.328   7.050
 8205POPC   C4A62550  32.991  18.250   7.350
 8205POPC   C1B62551  32.783  18.116   6.450
 8205POPC   C2B62552  32.789  18.131   6.750
 8205POPC   C3B62553  32.793  18.141   7.050
 8205POPC   C4B62554  32.861  18.137   7.350
 8206POPC   NC362555  44.676  29.126   5.550
 8206POPC   PO462556  44.680  29.100   5.850
 8206POPC   GL162557  44.639  29.167   6.150
 8206POPC   GL262558  44.806  29.149   6.150
 8206POPC   C1A62559  44.681  29.102   6.450
 8206POPC   D2A62560  44.676  29.178   6.750
 8206POPC   C3A62561  44.656  29.103   7.050
 8206POPC   C4A62562  44.675  29.171   7.350
 8206POPC   C1B62563  44.908  29.127   6.450
 8206POPC   C2B62564  44.903  29.101   6.750
 8206POPC   C3B62565  44.944  29.061   7.050
 8206POPC   C4B62566  44.925  29.044   7.350
 8207POPC   NC362567  32.981  22.958   5.550
 8207POPC   PO462568  33.029  22.889   5.850
 8207POPC   GL162569  32.990  22.975   6.150
 8207POPC   GL262570  33.134  22.870   6.150
 8207POPC   C1A62571  33.026  22.915   6.450
 8207POPC   D2A62572  33.002  22.949   6.750
 8207POPC   C3A62573  33.022  22.984   7.050
 8207POPC   C4A62574  32.995  22.912   7.350
 8207POPC   C1B62575  33.213  22.691   6.450
 8207POPC   C2B62576  33.131  22.766   6.750
 8207POPC   C3B62577  33.174  22.709   7.050
 8207POPC   C4B62578  33.130  22.717   7.350
 8208POPC   NC362579   9.761  19.082   5.550
 8208POPC   PO462580   9.736  19.030   5.850
 8208POPC   GL162581   9.760  19.033   6.150
 8208POPC   GL262582   9.783  19.161   6.150
 8208POPC   C1A62583   9.742  19.067   6.450
 8208POPC   D2A62584   9.724  19.040   6.750
 8208POPC   C3A62585   9.752  19.078   7.050
 8208POPC   C4A62586   9.706  19.015   7.350
 8208POPC   C1B62587   9.817  19.327   6.450
 8208POPC   C2B62588   9.812  19.253   6.750
 8208POPC   C3B62589   9.894  19.309   7.050
 8208POPC   C4B62590   9.865  19.326   7.350
 8209POPC   NC362591  40.018  24.493   5.550
 8209POPC   PO462592  39.987  24.535   5.850
 8209POPC   GL162593  40.024  24.460   6.150
 8209POPC   GL262594  39.925  24.588   6.150
 8209POPC   C1A62595  40.036  24.473   6.450
 8209POPC   D2A62596  40.053  24.442   6.750
 8209POPC   C3A62597  39.967  24.454   7.050
 8209POPC   C4A62598  40.029  24.453   7.350
 8209POPC   C1B62599  39.850  24.624   6.450
 8209POPC   C2B62600  39.823  24.698   6.750
 8209POPC   C3B62601  39.829  24.700   7.050
 8209POPC   C4B62602  39.804  24.676   7.350
 8210POPC   NC362603  18.310  19.850   5.550
 8210POPC   PO462604  18.288  19.882   5.850
 8210POPC   GL162605  18.284  19.813   6.150
 8210POPC   GL262606  18.309  19.748   6.150
 8210POPC   C1A62607  18.268  19.866   6.450
 8210POPC   D2A62608  18.292  19.858   6.750
 8210POPC   C3A62609  18.305  19.807   7.050
 8210POPC   C4A62610  18.271  19.866   7.350
 8210POPC   C1B62611  18.314  19.576   6.450
 8210POPC   C2B62612  18.300  19.610   6.750
 8210POPC   C3B62613  18.343  19.613   7.050
 8210POPC   C4B62614  18.292  19.596   7.350
 8211POPC   NC362615  41.517  16.774   5.550
 8211POPC   PO462616  41.563  16.748   5.850
 8211POPC   GL162617  41.550  16.724   6.150
 8211POPC   GL262618  41.640  16.820   6.150
 8211POPC   C1A62619  41.539  16.746   6.450
 8211POPC   D2A62620  41.573  16.709   6.750
 8211POPC   C3A62621  41.558  16.729   7.050
 8211POPC   C4A62622  41.516  16.700   7.350
 8211POPC   C1B62623  41.736  16.881   6.450
 8211POPC   C2B62624  41.745  16.859   6.750
 8211POPC   C3B62625  41.796  16.839   7.050
 8211POPC   C4B62626  41.724  16.856   7.350
 8212POPC   NC362627  15.188  12.105   5.550
 8212POPC   PO462628  15.137  12.033   5.850
 8212POPC   GL162629  15.185  12.083   6.150
 8212POPC   GL262630  15.253  12.164   6.150
 8212POPC   C1A62631  15.217  12.064   6.450
 8212POPC   D2A62632  15.202  12.089   6.750
 8212POPC   C3A62633  15.204  12.099   7.050
 8212POPC   C4A62634  15.183  12.066   7.350
 8212POPC   C1B62635  15.241  12.357   6.450
 8212POPC   C2B62636  15.211  12.291   6.750
 8212POPC   C3B62637  15.196  12.369   7.050
 8212POPC   C4B62638  15.179  12.304   7.350
 8213POPC   NC362639   7.438   5.849   5.550
 8213POPC   PO462640   7.416   5.844   5.850
 8213POPC   GL162641   7.436   5.870   6.150
 8213POPC   GL262642   7.359   5.770   6.150
 8213POPC   C1A62643   7.428   5.885   6.450
 8213POPC   D2A62644   7.400   5.820   6.750
 8213POPC   C3A62645   7.371   5.822   7.050
 8213POPC   C4A62646   7.373   5.852   7.350
 8213POPC   C1B62647   7.357   5.619   6.450
 8213POPC   C2B62648   7.306   5.623   6.750
 8213POPC   C3B62649   7.357   5.632   7.050
 8213POPC   C4B62650   7.263   5.630   7.350
 8214POPC   NC362651  36.086  29.939   5.550
 8214POPC   PO462652  36.132  29.925   5.850
 8214POPC   GL162653  36.089  29.916   6.150
 8214POPC   GL262654  36.250  29.923   6.150
 8214POPC   C1A62655  36.170  29.901   6.450
 8214POPC   D2A62656  36.099  29.950   6.750
 8214POPC   C3A62657  36.104  29.900   7.050
 8214POPC   C4A62658  36.097  29.951   7.350
 8214POPC   C1B62659  36.346  29.994   6.450
 8214POPC   C2B62660  36.348  30.002   6.750
 8214POPC   C3B62661  36.348  30.053   7.050
 8214POPC   C4B62662  36.383  30.024   7.350
 8215POPC   NC362663   5.865  39.974   5.550
 8215POPC   PO462664   5.914  40.047   5.850
 8215POPC   GL162665   5.899  39.994   6.150
 8215POPC   GL262666   5.863  40.171   6.150
 8215POPC   C1A62667   5.853  40.024   6.450
 8215POPC   D2A62668   5.899  40.049   6.750
 8215POPC   C3A62669   5.899  39.986   7.050
 8215POPC   C4A62670   5.883  40.018   7.350
 8215POPC   C1B62671   5.835  40.287   6.450
 8215POPC   C2B62672   5.809  40.242   6.750
 8215POPC   C3B62673   5.832  40.290   7.050
 8215POPC   C4B62674   5.832  40.212   7.350
 8216POPC   NC362675  35.400   4.340   5.550
 8216POPC   PO462676  35.310   4.342   5.850
 8216POPC   GL162677  35.358   4.324   6.150
 8216POPC   GL262678  35.327   4.445   6.150
 8216POPC   C1A62679  35.378   4.332   6.450
 8216POPC   D2A62680  35.332   4.357   6.750
 8216POPC   C3A62681  35.319   4.342   7.050
 8216POPC   C4A62682  35.328   4.336   7.350
 8216POPC   C1B62683  35.397   4.569   6.450
 8216POPC   C2B62684  35.337   4.580   6.750
 8216POPC   C3B62685  35.410   4.604   7.050
 8216POPC   C4B62686  35.408   4.572   7.350
 8217POPC   NC362687   6.687   9.781   5.550
 8217POPC   PO462688   6.693   9.761   5.850
 8217POPC   GL162689   6.689   9.773   6.150
 8217POPC   GL262690   6.710   9.801   6.150
 8217POPC   C1A62691   6.648   9.793   6.450
 8217POPC   D2A62692   6.637   9.726   6.750
 8217POPC   C3A62693   6.677   9.784   7.050
 8217POPC   C4A62694   6.651   9.740   7.350
 8217POPC   C1B62695   6.857   9.921   6.450
 8217POPC   C2B62696   6.812   9.883   6.750
 8217POPC   C3B62697   6.811   9.861   7.050
 8217POPC   C4B62698   6.805   9.886   7.350
 8218POPC   NC362699  32.271  34.610   5.550
 8218POPC   PO462700  32.217  34.581   5.850
 8218POPC   GL162701  32.210  34.618   6.150
 8218POPC   GL262702  32.322  34.467   6.150
 8218POPC   C1A62703  32.255  34.570   6.450
 8218POPC   D2A62704  32.212  34.596   6.750
 8218POPC   C3A62705  32.238  34.585   7.050
 8218POPC   C4A62706  32.221  34.529   7.350
 8218POPC   C1B62707  32.361  34.301   6.450
 8218POPC   C2B62708  32.306  34.325   6.750
 8218POPC   C3B62709  32.356  34.319   7.050
 8218POPC   C4B62710  32.333  34.375   7.350
 8219POPC   NC362711  39.187  10.569   5.550
 8219POPC   PO462712  39.183  10.545   5.850
 8219POPC   GL162713  39.228  10.540   6.150
 8219POPC   GL262714  39.350  10.555   6.150
 8219POPC   C1A62715  39.203  10.509   6.450
 8219POPC   D2A62716  39.208  10.559   6.750
 8219POPC   C3A62717  39.270  10.546   7.050
 8219POPC   C4A62718  39.281  10.505   7.350
 8219POPC   C1B62719  39.430  10.644   6.450
 8219POPC   C2B62720  39.473  10.656   6.750
 8219POPC   C3B62721  39.506  10.679   7.050
 8219POPC   C4B62722  39.411  10.656   7.350
 8220POPC   NC362723  41.579   5.097   5.550
 8220POPC   PO462724  41.578   5.056   5.850
 8220POPC   GL162725  41.538   5.094   6.150
 8220POPC   GL262726  41.676   4.998   6.150
 8220POPC   C1A62727  41.596   5.050   6.450
 8220POPC   D2A62728  41.528   5.103   6.750
 8220POPC   C3A62729  41.538   5.112   7.050
 8220POPC   C4A62730  41.555   5.123   7.350
 8220POPC   C1B62731  41.810   5.026   6.450
 8220POPC   C2B62732  41.812   5.007   6.750
 8220POPC   C3B62733  41.820   4.972   7.050
 8220POPC   C4B62734  41.757   5.036   7.350
 8221POPC   NC362735  43.129  32.987   5.550
 8221POPC   PO462736  43.121  32.987   5.850
 8221POPC   GL162737  43.156  33.025   6.150
 8221POPC   GL262738  43.198  32.938   6.150
 8221POPC   C1A62739  43.142  33.046   6.450
 8221POPC   D2A62740  43.068  33.003   6.750
 8221POPC   C3A62741  43.083  33.040   7.050
 8221POPC   C4A62742  43.140  33.004   7.350
 8221POPC   C1B62743  43.198  32.833   6.450
 8221POPC   C2B62744  43.239  32.849   6.750
 8221POPC   C3B62745  43.180  32.830   7.050
 8221POPC   C4B62746  43.248  32.808   7.350
 8222POPC   NC362747  27.600   5.103   5.550
 8222POPC   PO462748  27.575   5.132   5.850
 8222POPC   GL162749  27.544   5.097   6.150
 8222POPC   GL262750  27.661   5.149   6.150
 8222POPC   C1A62751  27.584   5.044   6.450
 8222POPC   D2A62752  27.585   5.076   6.750
 8222POPC   C3A62753  27.557   5.093   7.050
 8222POPC   C4A62754  27.598   5.111   7.350
 8222POPC   C1B62755  27.813   5.275   6.450
 8222POPC   C2B62756  27.762   5.256   6.750
 8222POPC   C3B62757  27.764   5.280   7.050
 8222POPC   C4B62758  27.749   5.200   7.350
 8223POPC   NC362759   5.823  36.155   5.550
 8223POPC   PO462760   5.838  36.148   5.850
 8223POPC   GL162761   5.866  36.101   6.150
 8223POPC   GL262762   5.734  36.144   6.150
 8223POPC   C1A62763   5.907  36.159   6.450
 8223POPC   D2A62764   5.834  36.140   6.750
 8223POPC   C3A62765   5.825  36.156   7.050
 8223POPC   C4A62766   5.902  36.090   7.350
 8223POPC   C1B62767   5.599  36.200   6.450
 8223POPC   C2B62768   5.667  36.199   6.750
 8223POPC   C3B62769   5.578  36.167   7.050
 8223POPC   C4B62770   5.595  36.140   7.350
 8224POPC   NC362771  22.161  22.950   5.550
 8224POPC   PO462772  22.164  22.946   5.850
 8224POPC   GL162773  22.137  22.939   6.150
 8224POPC   GL262774  22.043  22.954   6.150
 8224POPC   C1A62775  22.134  22.913   6.450
 8224POPC   D2A62776  22.133  22.901   6.750
 8224POPC   C3A62777  22.141  22.893   7.050
 8224POPC   C4A62778  22.197  22.898   7.350
 8224POPC   C1B62779  21.971  23.027   6.450
 8224POPC   C2B62780  21.972  23.073   6.750
 8224POPC   C3B62781  21.957  23.056   7.050
 8224POPC   C4B62782  21.924  23.000   7.350
 8225POPC   NC362783   3.533  43.079   5.550
 8225POPC   PO462784   3.575  43.075   5.850
 8225POPC   GL162785   3.529  43.106   6.150
 8225POPC   GL262786   3.695  43.131   6.150
 8225POPC   C1A62787   3.544  43.143   6.450
 8225POPC   D2A62788   3.513  43.127   6.750
 8225POPC   C3A62789   3.550  43.070   7.050
 8225POPC   C4A62790   3.557  43.102   7.350
 8225POPC   C1B62791   3.790  43.117   6.450
 8225POPC   C2B62792   3.817  43.167   6.750
 8225POPC   C3B62793   3.802  43.106   7.050
 8225POPC   C4B62794   3.761  43.126   7.350
 8226POPC   NC362795  23.681  19.842   5.550
 8226POPC   PO462796  23.754  19.807   5.850
 8226POPC   GL162797  23.681  19.798   6.150
 8226POPC   GL262798  23.693  19.986   6.150
 8226POPC   C1A62799  23.713  19.864   6.450
 8226POPC   D2A62800  23.722  19.789   6.750
 8226POPC   C3A62801  23.685  19.785   7.050
 8226POPC   C4A62802  23.735  19.840   7.350
 8226POPC   C1B62803  23.805  20.043   6.450
 8226POPC   C2B62804  23.801  20.112   6.750
 8226POPC   C3B62805  23.748  20.079   7.050
 8226POPC   C4B62806  23.742  20.127   7.350
 8227POPC   NC362807  14.415  40.015   5.550
 8227POPC   PO462808  14.407  40.038   5.850
 8227POPC   GL162809  14.373  40.036   6.150
 8227POPC   GL262810  14.290  40.083   6.150
 8227POPC   C1A62811  14.449  39.997   6.450
 8227POPC   D2A62812  14.355  39.994   6.750
 8227POPC   C3A62813  14.398  39.985   7.050
 8227POPC   C4A62814  14.427  39.959   7.350
 8227POPC   C1B62815  14.140  40.070   6.450
 8227POPC   C2B62816  14.159  40.091   6.750
 8227POPC   C3B62817  14.208  40.154   7.050
 8227POPC   C4B62818  14.158  40.122   7.350
 8228POPC   NC362819   9.753  11.349   5.550
 8228POPC   PO462820   9.703  11.315   5.850
 8228POPC   GL162821   9.782  11.304   6.150
 8228POPC   GL262822   9.680  11.358   6.150
 8228POPC   C1A62823   9.737  11.334   6.450
 8228POPC   D2A62824   9.727  11.285   6.750
 8228POPC   C3A62825   9.793  11.296   7.050
 8228POPC   C4A62826   9.787  11.313   7.350
 8228POPC   C1B62827   9.584  11.402   6.450
 8228POPC   C2B62828   9.515  11.412   6.750
 8228POPC   C3B62829   9.583  11.387   7.050
 8228POPC   C4B62830   9.526  11.460   7.350
 8229POPC   NC362831  19.861   7.454   5.550
 8229POPC   PO462832  19.878   7.428   5.850
 8229POPC   GL162833  19.833   7.373   6.150
 8229POPC   GL262834  19.756   7.328   6.150
 8229POPC   C1A62835  19.856   7.406   6.450
 8229POPC   D2A62836  19.787   7.391   6.750
 8229POPC   C3A62837  19.871   7.426   7.050
 8229POPC   C4A62838  19.824   7.415   7.350
 8229POPC   C1B62839  19.602   7.339   6.450
 8229POPC   C2B62840  19.602   7.307   6.750
 8229POPC   C3B62841  19.658   7.309   7.050
 8229POPC   C4B62842  19.579   7.280   7.350
 8230POPC   NC362843  19.802  32.278   5.550
 8230POPC   PO462844  19.786  32.245   5.850
 8230POPC   GL162845  19.860  32.294   6.150
 8230POPC   GL262846  19.784  32.387   6.150
 8230POPC   C1A62847  19.848  32.251   6.450
 8230POPC   D2A62848  19.849  32.253   6.750
 8230POPC   C3A62849  19.805  32.250   7.050
 8230POPC   C4A62850  19.797  32.229   7.350
 8230POPC   C1B62851  19.748  32.487   6.450
 8230POPC   C2B62852  19.735  32.505   6.750
 8230POPC   C3B62853  19.771  32.489   7.050
 8230POPC   C4B62854  19.791  32.453   7.350
 8231POPC   NC362855   5.133   7.394   5.550
 8231POPC   PO462856   5.053   7.409   5.850
 8231POPC   GL162857   5.138   7.415   6.150
 8231POPC   GL262858   5.086   7.290   6.150
 8231POPC   C1A62859   5.064   7.422   6.450
 8231POPC   D2A62860   5.049   7.443   6.750
 8231POPC   C3A62861   5.061   7.468   7.050
 8231POPC   C4A62862   5.112   7.383   7.350
 8231POPC   C1B62863   5.017   7.221   6.450
 8231POPC   C2B62864   4.996   7.154   6.750
 8231POPC   C3B62865   5.026   7.186   7.050
 8231POPC   C4B62866   4.992   7.223   7.350
 8232POPC   NC362867  36.113   5.847   5.550
 8232POPC   PO462868  36.161   5.882   5.850
 8232POPC   GL162869  36.164   5.843   6.150
 8232POPC   GL262870  36.118   5.773   6.150
 8232POPC   C1A62871  36.121   5.898   6.450
 8232POPC   D2A62872  36.168   5.910   6.750
 8232POPC   C3A62873  36.141   5.834   7.050
 8232POPC   C4A62874  36.137   5.829   7.350
 8232POPC   C1B62875  36.223   5.625   6.450
 8232POPC   C2B62876  36.199   5.643   6.750
 8232POPC   C3B62877  36.195   5.661   7.050
 8232POPC   C4B62878  36.233   5.670   7.350
 8233POPC   NC362879   9.747  32.262   5.550
 8233POPC   PO462880   9.702  32.274   5.850
 8233POPC   GL162881   9.730  32.226   6.150
 8233POPC   GL262882   9.824  32.164   6.150
 8233POPC   C1A62883   9.774  32.210   6.450
 8233POPC   D2A62884   9.783  32.246   6.750
 8233POPC   C3A62885   9.788  32.221   7.050
 8233POPC   C4A62886   9.789  32.236   7.350
 8233POPC   C1B62887   9.769  31.982   6.450
 8233POPC   C2B62888   9.778  32.051   6.750
 8233POPC   C3B62889   9.795  31.971   7.050
 8233POPC   C4B62890   9.830  31.986   7.350
 8234POPC   NC362891  33.752   8.155   5.550
 8234POPC   PO462892  33.768   8.150   5.850
 8234POPC   GL162893  33.775   8.229   6.150
 8234POPC   GL262894  33.907   8.229   6.150
 8234POPC   C1A62895  33.793   8.220   6.450
 8234POPC   D2A62896  33.786   8.216   6.750
 8234POPC   C3A62897  33.780   8.174   7.050
 8234POPC   C4A62898  33.797   8.162   7.350
 8234POPC   C1B62899  33.983   8.307   6.450
 8234POPC   C2B62900  34.044   8.321   6.750
 8234POPC   C3B62901  33.992   8.302   7.050
 8234POPC   C4B62902  34.053   8.382   7.350
 8235POPC   NC362903  38.493  16.733   5.550
 8235POPC   PO462904  38.472  16.757   5.850
 8235POPC   GL162905  38.430  16.774   6.150
 8235POPC   GL262906  38.394  16.816   6.150
 8235POPC   C1A62907  38.484  16.705   6.450
 8235POPC   D2A62908  38.481  16.780   6.750
 8235POPC   C3A62909  38.425  16.706   7.050
 8235POPC   C4A62910  38.463  16.711   7.350
 8235POPC   C1B62911  38.276  16.952   6.450
 8235POPC   C2B62912  38.323  16.916   6.750
 8235POPC   C3B62913  38.248  16.917   7.050
 8235POPC   C4B62914  38.288  16.869   7.350
 8236POPC   NC362915  43.123  36.902   5.550
 8236POPC   PO462916  43.144  36.921   5.850
 8236POPC   GL162917  43.144  36.857   6.150
 8236POPC   GL262918  43.183  37.009   6.150
 8236POPC   C1A62919  43.103  36.877   6.450
 8236POPC   D2A62920  43.146  36.880   6.750
 8236POPC   C3A62921  43.103  36.879   7.050
 8236POPC   C4A62922  43.074  36.950   7.350
 8236POPC   C1B62923  43.319  37.111   6.450
 8236POPC   C2B62924  43.272  37.108   6.750
 8236POPC   C3B62925  43.307  37.097   7.050
 8236POPC   C4B62926  43.233  37.054   7.350
 8237POPC   NC362927   6.606  12.842   5.550
 8237POPC   PO462928   6.609  12.805   5.850
 8237POPC   GL162929   6.687  12.891   6.150
 8237POPC   GL262930   6.532  12.756   6.150
 8237POPC   C1A62931   6.692  12.837   6.450
 8237POPC   D2A62932   6.627  12.894   6.750
 8237POPC   C3A62933   6.620  12.883   7.050
 8237POPC   C4A62934   6.691  12.884   7.350
 8237POPC   C1B62935   6.451  12.747   6.450
 8237POPC   C2B62936   6.405  12.717   6.750
 8237POPC   C3B62937   6.450  12.687   7.050
 8237POPC   C4B62938   6.415  12.699   7.350
 8238POPC   NC362939   8.955   5.867   5.550
 8238POPC   PO462940   8.975   5.820   5.850
 8238POPC   GL162941   8.966   5.832   6.150
 8238POPC   GL262942   9.001   5.960   6.150
 8238POPC   C1A62943   8.979   5.862   6.450
 8238POPC   D2A62944   8.963   5.850   6.750
 8238POPC   C3A62945   8.940   5.910   7.050
 8238POPC   C4A62946   8.997   5.820   7.350
 8238POPC   C1B62947   9.097   6.135   6.450
 8238POPC   C2B62948   9.043   6.053   6.750
 8238POPC   C3B62949   9.112   6.113   7.050
 8238POPC   C4B62950   9.112   6.131   7.350
 8239POPC   NC362951  26.833  20.573   5.550
 8239POPC   PO462952  26.840  20.589   5.850
 8239POPC   GL162953  26.855  20.643   6.150
 8239POPC   GL262954  26.737  20.543   6.150
 8239POPC   C1A62955  26.843  20.577   6.450
 8239POPC   D2A62956  26.849  20.650   6.750
 8239POPC   C3A62957  26.840  20.609   7.050
 8239POPC   C4A62958  26.864  20.651   7.350
 8239POPC   C1B62959  26.643  20.418   6.450
 8239POPC   C2B62960  26.640  20.449   6.750
 8239POPC   C3B62961  26.633  20.421   7.050
 8239POPC   C4B62962  26.656  20.425   7.350
 8240POPC   NC362963  14.362   2.744   5.550
 8240POPC   PO462964  14.401   2.775   5.850
 8240POPC   GL162965  14.374   2.812   6.150
 8240POPC   GL262966  14.507   2.859   6.150
 8240POPC   C1A62967  14.355   2.796   6.450
 8240POPC   D2A62968  14.400   2.815   6.750
 8240POPC   C3A62969  14.438   2.789   7.050
 8240POPC   C4A62970  14.412   2.796   7.350
 8240POPC   C1B62971  14.577   2.856   6.450
 8240POPC   C2B62972  14.599   2.878   6.750
 8240POPC   C3B62973  14.623   2.856   7.050
 8240POPC   C4B62974  14.577   2.872   7.350
 8241POPC   NC362975  38.409  34.561   5.550
 8241POPC   PO462976  38.425  34.572   5.850
 8241POPC   GL162977  38.473  34.556   6.150
 8241POPC   GL262978  38.600  34.620   6.150
 8241POPC   C1A62979  38.448  34.617   6.450
 8241POPC   D2A62980  38.406  34.545   6.750
 8241POPC   C3A62981  38.409  34.607   7.050
 8241POPC   C4A62982  38.432  34.608   7.350
 8241POPC   C1B62983  38.674  34.580   6.450
 8241POPC   C2B62984  38.745  34.620   6.750
 8241POPC   C3B62985  38.752  34.601   7.050
 8241POPC   C4B62986  38.699  34.543   7.350
 8242POPC   NC362987  26.791  15.146   5.550
 8242POPC   PO462988  26.843  15.185   5.850
 8242POPC   GL162989  26.785  15.183   6.150
 8242POPC   GL262990  26.756  15.326   6.150
 8242POPC   C1A62991  26.863  15.195   6.450
 8242POPC   D2A62992  26.777  15.209   6.750
 8242POPC   C3A62993  26.838  15.177   7.050
 8242POPC   C4A62994  26.850  15.174   7.350
 8242POPC   C1B62995  26.821  15.446   6.450
 8242POPC   C2B62996  26.793  15.402   6.750
 8242POPC   C3B62997  26.754  15.395   7.050
 8242POPC   C4B62998  26.799  15.390   7.350
 8243POPC   NC362999   1.950  43.872   5.550
 8243POPC   PO463000   1.998  43.861   5.850
 8243POPC   GL163001   2.016  43.862   6.150
 8243POPC   GL263002   2.118  43.857   6.150
 8243POPC   C1A63003   2.029  43.841   6.450
 8243POPC   D2A63004   1.978  43.853   6.750
 8243POPC   C3A63005   2.037  43.869   7.050
 8243POPC   C4A63006   1.952  43.867   7.350
 8243POPC   C1B63007   2.187  43.830   6.450
 8243POPC   C2B63008   2.193  43.743   6.750
 8243POPC   C3B63009   2.219  43.793   7.050
 8243POPC   C4B63010   2.199  43.778   7.350
 8244POPC   NC363011  12.083  29.155   5.550
 8244POPC   PO463012  12.109  29.112   5.850
 8244POPC   GL163013  12.077  29.150   6.150
 8244POPC   GL263014  12.071  29.263   6.150
 8244POPC   C1A63015  12.065  29.185   6.450
 8244POPC   D2A63016  12.116  29.131   6.750
 8244POPC   C3A63017  12.078  29.106   7.050
 8244POPC   C4A63018  12.088  29.118   7.350
 8244POPC   C1B63019  12.086  29.392   6.450
 8244POPC   C2B63020  12.122  29.420   6.750
 8244POPC   C3B63021  12.171  29.382   7.050
 8244POPC   C4B63022  12.157  29.390   7.350
 8245POPC   NC363023   8.985  24.506   5.550
 8245POPC   PO463024   8.943  24.520   5.850
 8245POPC   GL163025   8.952  24.496   6.150
 8245POPC   GL263026   8.923  24.388   6.150
 8245POPC   C1A63027   8.947  24.461   6.450
 8245POPC   D2A63028   8.995  24.526   6.750
 8245POPC   C3A63029   9.016  24.532   7.050
 8245POPC   C4A63030   9.006  24.448   7.350
 8245POPC   C1B63031   8.877  24.207   6.450
 8245POPC   C2B63032   8.930  24.280   6.750
 8245POPC   C3B63033   8.922  24.230   7.050
 8245POPC   C4B63034   8.939  24.258   7.350
 8246POPC   NC363035  21.349  41.545   5.550
 8246POPC   PO463036  21.433  41.528   5.850
 8246POPC   GL163037  21.398  41.532   6.150
 8246POPC   GL263038  21.243  41.632   6.150
 8246POPC   C1A63039  21.394  41.534   6.450
 8246POPC   D2A63040  21.408  41.607   6.750
 8246POPC   C3A63041  21.388  41.602   7.050
 8246POPC   C4A63042  21.421  41.586   7.350
 8246POPC   C1B63043  21.186  41.606   6.450
 8246POPC   C2B63044  21.135  41.616   6.750
 8246POPC   C3B63045  21.191  41.625   7.050
 8246POPC   C4B63046  21.174  41.586   7.350
 8247POPC   NC363047  33.820  36.100   5.550
 8247POPC   PO463048  33.850  36.114   5.850
 8247POPC   GL163049  33.810  36.087   6.150
 8247POPC   GL263050  33.968  36.184   6.150
 8247POPC   C1A63051  33.839  36.119   6.450
 8247POPC   D2A63052  33.818  36.173   6.750
 8247POPC   C3A63053  33.828  36.146   7.050
 8247POPC   C4A63054  33.799  36.169   7.350
 8247POPC   C1B63055  34.016  36.198   6.450
 8247POPC   C2B63056  34.059  36.174   6.750
 8247POPC   C3B63057  34.057  36.189   7.050
 8247POPC   C4B63058  34.048  36.203   7.350
 8248POPC   NC363059  38.481  14.431   5.550
 8248POPC   PO463060  38.462  14.388   5.850
 8248POPC   GL163061  38.448  14.407   6.150
 8248POPC   GL263062  38.312  14.318   6.150
 8248POPC   C1A63063  38.479  14.394   6.450
 8248POPC   D2A63064  38.490  14.380   6.750
 8248POPC   C3A63065  38.498  14.358   7.050
 8248POPC   C4A63066  38.427  14.374   7.350
 8248POPC   C1B63067  38.268  14.269   6.450
 8248POPC   C2B63068  38.240  14.273   6.750
 8248POPC   C3B63069  38.291  14.272   7.050
 8248POPC   C4B63070  38.253  14.311   7.350
 8249POPC   NC363071   4.289  32.273   5.550
 8249POPC   PO463072   4.338  32.203   5.850
 8249POPC   GL163073   4.356  32.266   6.150
 8249POPC   GL263074   4.369  32.414   6.150
 8249POPC   C1A63075   4.358  32.285   6.450
 8249POPC   D2A63076   4.308  32.218   6.750
 8249POPC   C3A63077   4.358  32.236   7.050
 8249POPC   C4A63078   4.285  32.257   7.350
 8249POPC   C1B63079   4.391  32.537   6.450
 8249POPC   C2B63080   4.321  32.542   6.750
 8249POPC   C3B63081   4.352  32.449   7.050
 8249POPC   C4B63082   4.300  32.512   7.350
 8250POPC   NC363083  40.787  27.586   5.550
 8250POPC   PO463084  40.741  27.577   5.850
 8250POPC   GL163085  40.761  27.572   6.150
 8250POPC   GL263086  40.903  27.538   6.150
 8250POPC   C1A63087  40.767  27.560   6.450
 8250POPC   D2A63088  40.825  27.565   6.750
 8250POPC   C3A63089  40.787  27.641   7.050
 8250POPC   C4A63090  40.826  27.587   7.350
 8250POPC   C1B63091  41.001  27.451   6.450
 8250POPC   C2B63092  40.933  27.436   6.750
 8250POPC   C3B63093  40.982  27.407   7.050
 8250POPC   C4B63094  40.927  27.396   7.350
 8251POPC   NC363095   0.456  25.222   5.550
 8251POPC   PO463096   0.465  25.300   5.850
 8251POPC   GL163097   0.459  25.223   6.150
 8251POPC   GL263098   0.315  25.369   6.150
 8251POPC   C1A63099   0.461  25.239   6.450
 8251POPC   D2A63100   0.431  25.262   6.750
 8251POPC   C3A63101   0.406  25.293   7.050
 8251POPC   C4A63102   0.438  25.309   7.350
 8251POPC   C1B63103   0.203  25.358   6.450
 8251POPC   C2B63104   0.184  25.364   6.750
 8251POPC   C3B63105   0.263  25.414   7.050
 8251POPC   C4B63106   0.182  25.404   7.350
 8252POPC   NC363107  38.462   9.019   5.550
 8252POPC   PO463108  38.443   9.001   5.850
 8252POPC   GL163109  38.446   8.965   6.150
 8252POPC   GL263110  38.611   8.983   6.150
 8252POPC   C1A63111  38.458   8.926   6.450
 8252POPC   D2A63112  38.454   8.938   6.750
 8252POPC   C3A63113  38.438   8.988   7.050
 8252POPC   C4A63114  38.461   8.924   7.350
 8252POPC   C1B63115  38.742   8.987   6.450
 8252POPC   C2B63116  38.663   9.045   6.750
 8252POPC   C3B63117  38.688   8.977   7.050
 8252POPC   C4B63118  38.692   8.969   7.350
 8253POPC   NC363119  36.112  22.185   5.550
 8253POPC   PO463120  36.081  22.128   5.850
 8253POPC   GL163121  36.088  22.191   6.150
 8253POPC   GL263122  36.297  22.222   6.150
 8253POPC   C1A63123  36.131  22.140   6.450
 8253POPC   D2A63124  36.095  22.136   6.750
 8253POPC   C3A63125  36.110  22.193   7.050
 8253POPC   C4A63126  36.087  22.161   7.350
 8253POPC   C1B63127  36.416  22.186   6.450
 8253POPC   C2B63128  36.399  22.182   6.750
 8253POPC   C3B63129  36.411  22.253   7.050
 8253POPC   C4B63130  36.389  22.186   7.350
 8254POPC   NC363131  38.478  32.288   5.550
 8254POPC   PO463132  38.444  32.251   5.850
 8254POPC   GL163133  38.477  32.280   6.150
 8254POPC   GL263134  38.391  32.385   6.150
 8254POPC   C1A63135  38.437  32.221   6.450
 8254POPC   D2A63136  38.448  32.267   6.750
 8254POPC   C3A63137  38.406  32.269   7.050
 8254POPC   C4A63138  38.481  32.237   7.350
 8254POPC   C1B63139  38.392  32.519   6.450
 8254POPC   C2B63140  38.376  32.465   6.750
 8254POPC   C3B63141  38.340  32.526   7.050
 8254POPC   C4B63142  38.351  32.460   7.350
 8255POPC   NC363143  28.385  12.861   5.550
 8255POPC   PO463144  28.344  12.807   5.850
 8255POPC   GL163145  28.334  12.897   6.150
 8255POPC   GL263146  28.351  12.960   6.150
 8255POPC   C1A63147  28.404  12.804   6.450
 8255POPC   D2A63148  28.417  12.890   6.750
 8255POPC   C3A63149  28.359  12.883   7.050
 8255POPC   C4A63150  28.407  12.853   7.350
 8255POPC   C1B63151  28.394  13.064   6.450
 8255POPC   C2B63152  28.359  13.094   6.750
 8255POPC   C3B63153  28.413  13.100   7.050
 8255POPC   C4B63154  28.365  13.096   7.350
 8256POPC   NC363155  40.051  23.674   5.550
 8256POPC   PO463156  40.022  23.680   5.850
 8256POPC   GL163157  39.963  23.744   6.150
 8256POPC   GL263158  39.885  23.702   6.150
 8256POPC   C1A63159  40.004  23.723   6.450
 8256POPC   D2A63160  40.053  23.718   6.750
 8256POPC   C3A63161  39.962  23.730   7.050
 8256POPC   C4A63162  40.027  23.720   7.350
 8256POPC   C1B63163  39.793  23.724   6.450
 8256POPC   C2B63164  39.716  23.645   6.750
 8256POPC   C3B63165  39.807  23.710   7.050
 8256POPC   C4B63166  39.759  23.692   7.350
 8257POPC   NC363167   0.467  27.595   5.550
 8257POPC   PO463168   0.465  27.618   5.850
 8257POPC   GL163169   0.479  27.612   6.150
 8257POPC   GL263170   0.344  27.676   6.150
 8257POPC   C1A63171   0.392  27.567   6.450
 8257POPC   D2A63172   0.482  27.641   6.750
 8257POPC   C3A63173   0.453  27.602   7.050
 8257POPC   C4A63174   0.430  27.545   7.350
 8257POPC   C1B63175   0.328  27.762   6.450
 8257POPC   C2B63176   0.318  27.827   6.750
 8257POPC   C3B63177   0.279  27.761   7.050
 8257POPC   C4B63178   0.253  27.834   7.350
 8258POPC   NC363179  31.469  14.450   5.550
 8258POPC   PO463180  31.437  14.399   5.850
 8258POPC   GL163181  31.506  14.381   6.150
 8258POPC   GL263182  31.493  14.477   6.150
 8258POPC   C1A63183  31.466  14.379   6.450
 8258POPC   D2A63184  31.429  14.354   6.750
 8258POPC   C3A63185  31.521  14.430   7.050
 8258POPC   C4A63186  31.430  14.388   7.350
 8258POPC   C1B63187  31.593  14.619   6.450
 8258POPC   C2B63188  31.619  14.612   6.750
 8258POPC   C3B63189  31.549  14.611   7.050
 8258POPC   C4B63190  31.578  14.604   7.350
 8259POPC   NC363191  41.515  44.637   5.550
 8259POPC   PO463192  41.601  44.685   5.850
 8259POPC   GL163193  41.528  44.677   6.150
 8259POPC   GL263194  41.529  44.573   6.150
 8259POPC   C1A63195  41.515  44.658   6.450
 8259POPC   D2A63196  41.526  44.702   6.750
 8259POPC   C3A63197  41.573  44.669   7.050
 8259POPC   C4A63198  41.594  44.629   7.350
 8259POPC   C1B63199  41.412  44.464   6.450
 8259POPC   C2B63200  41.442  44.463   6.750
 8259POPC   C3B63201  41.422  44.481   7.050
 8259POPC   C4B63202  41.364  44.413   7.350
 8260POPC   NC363203  15.969  19.875   5.550
 8260POPC   PO463204  15.963  19.838   5.850
 8260POPC   GL163205  15.996  19.796   6.150
 8260POPC   GL263206  15.839  19.894   6.150
 8260POPC   C1A63207  15.950  19.879   6.450
 8260POPC   D2A63208  15.959  19.787   6.750
 8260POPC   C3A63209  15.989  19.864   7.050
 8260POPC   C4A63210  15.958  19.807   7.350
 8260POPC   C1B63211  15.780  19.973   6.450
 8260POPC   C2B63212  15.819  19.985   6.750
 8260POPC   C3B63213  15.800  19.959   7.050
 8260POPC   C4B63214  15.769  20.025   7.350
 8261POPC   NC363215  29.155  19.055   5.550
 8261POPC   PO463216  29.133  19.019   5.850
 8261POPC   GL163217  29.122  19.021   6.150
 8261POPC   GL263218  29.020  18.989   6.150
 8261POPC   C1A63219  29.102  19.040   6.450
 8261POPC   D2A63220  29.130  19.067   6.750
 8261POPC   C3A63221  29.183  19.048   7.050
 8261POPC   C4A63222  29.150  19.096   7.350
 8261POPC   C1B63223  28.938  18.936   6.450
 8261POPC   C2B63224  28.925  18.939   6.750
 8261POPC   C3B63225  28.982  18.905   7.050
 8261POPC   C4B63226  28.968  18.894   7.350
 8262POPC   NC363227   5.071   4.294   5.550
 8262POPC   PO463228   5.064   4.311   5.850
 8262POPC   GL163229   5.130   4.290   6.150
 8262POPC   GL263230   5.258   4.288   6.150
 8262POPC   C1A63231   5.072   4.305   6.450
 8262POPC   D2A63232   5.108   4.357   6.750
 8262POPC   C3A63233   5.133   4.285   7.050
 8262POPC   C4A63234   5.126   4.340   7.350
 8262POPC   C1B63235   5.298   4.307   6.450
 8262POPC   C2B63236   5.362   4.295   6.750
 8262POPC   C3B63237   5.381   4.301   7.050
 8262POPC   C4B63238   5.380   4.310   7.350
 8263POPC   NC363239  27.558   0.409   5.550
 8263POPC   PO463240  27.567   0.473   5.850
 8263POPC   GL163241  27.559   0.424   6.150
 8263POPC   GL263242  27.601   0.543   6.150
 8263POPC   C1A63243  27.626   0.400   6.450
 8263POPC   D2A63244  27.603   0.418   6.750
 8263POPC   C3A63245  27.599   0.392   7.050
 8263POPC   C4A63246  27.598   0.448   7.350
 8263POPC   C1B63247  27.703   0.665   6.450
 8263POPC   C2B63248  27.609   0.703   6.750
 8263POPC   C3B63249  27.670   0.674   7.050
 8263POPC   C4B63250  27.607   0.633   7.350
 8264POPC   NC363251  30.662  33.025   5.550
 8264POPC   PO463252  30.741  33.017   5.850
 8264POPC   GL163253  30.694  32.991   6.150
 8264POPC   GL263254  30.786  33.139   6.150
 8264POPC   C1A63255  30.684  33.022   6.450
 8264POPC   D2A63256  30.657  33.015   6.750
 8264POPC   C3A63257  30.695  33.057   7.050
 8264POPC   C4A63258  30.731  33.008   7.350
 8264POPC   C1B63259  30.909  33.124   6.450
 8264POPC   C2B63260  30.935  33.192   6.750
 8264POPC   C3B63261  30.898  33.148   7.050
 8264POPC   C4B63262  30.933  33.118   7.350
 8265POPC   NC363263  19.100  42.368   5.550
 8265POPC   PO463264  19.034  42.384   5.850
 8265POPC   GL163265  19.022  42.335   6.150
 8265POPC   GL263266  19.087  42.435   6.150
 8265POPC   C1A63267  19.071  42.340   6.450
 8265POPC   D2A63268  19.069  42.356   6.750
 8265POPC   C3A63269  19.054  42.317   7.050
 8265POPC   C4A63270  19.095  42.336   7.350
 8265POPC   C1B63271  19.006  42.562   6.450
 8265POPC   C2B63272  19.091  42.620   6.750
 8265POPC   C3B63273  19.000  42.564   7.050
 8265POPC   C4B63274  19.000  42.631   7.350
 8266POPC   NC363275  12.826  32.272   5.550
 8266POPC   PO463276  12.879  32.229   5.850
 8266POPC   GL163277  12.874  32.228   6.150
 8266POPC   GL263278  12.816  32.108   6.150
 8266POPC   C1A63279  12.858  32.276   6.450
 8266POPC   D2A63280  12.870  32.287   6.750
 8266POPC   C3A63281  12.834  32.297   7.050
 8266POPC   C4A63282  12.813  32.217   7.350
 8266POPC   C1B63283  12.748  31.973   6.450
 8266POPC   C2B63284  12.745  32.002   6.750
 8266POPC   C3B63285  12.793  31.987   7.050
 8266POPC   C4B63286  12.757  32.047   7.350
 8267POPC   NC363287  14.414  28.357   5.550
 8267POPC   PO463288  14.381  28.357   5.850
 8267POPC   GL163289  14.452  28.332   6.150
 8267POPC   GL263290  14.543  28.453   6.150
 8267POPC   C1A63291  14.413  28.362   6.450
 8267POPC   D2A63292  14.379  28.401   6.750
 8267POPC   C3A63293  14.380  28.367   7.050
 8267POPC   C4A63294  14.449  28.383   7.350
 8267POPC   C1B63295  14.649  28.446   6.450
 8267POPC   C2B63296  14.663  28.465   6.750
 8267POPC   C3B63297  14.654  28.490   7.050
 8267POPC   C4B63298  14.631  28.470   7.350
 8268POPC   NC363299  33.838  30.734   5.550
 8268POPC   PO463300  33.829  30.700   5.850
 8268POPC   GL163301  33.756  30.669   6.150
 8268POPC   GL263302  33.876  30.650   6.150
 8268POPC   C1A63303  33.803  30.699   6.450
 8268POPC   D2A63304  33.847  30.724   6.750
 8268POPC   C3A63305  33.770  30.692   7.050
 8268POPC   C4A63306  33.801  30.657   7.350
 8268POPC   C1B63307  33.994  30.514   6.450
 8268POPC   C2B63308  33.992  30.507   6.750
 8268POPC   C3B63309  34.012  30.511   7.050
 8268POPC   C4B63310  33.945  30.504   7.350
 8269POPC   NC363311  40.789  19.035   5.550
 8269POPC   PO463312  40.807  19.015   5.850
 8269POPC   GL163313  40.760  19.056   6.150
 8269POPC   GL263314  40.863  19.182   6.150
 8269POPC   C1A63315  40.758  19.063   6.450
 8269POPC   D2A63316  40.770  19.079   6.750
 8269POPC   C3A63317  40.821  19.068   7.050
 8269POPC   C4A63318  40.795  19.099   7.350
 8269POPC   C1B63319  41.000  19.222   6.450
 8269POPC   C2B63320  40.985  19.241   6.750
 8269POPC   C3B63321  41.007  19.183   7.050
 8269POPC   C4B63322  40.962  19.269   7.350
 8270POPC   NC363323  38.492  29.187   5.550
 8270POPC   PO463324  38.423  29.114   5.850
 8270POPC   GL163325  38.462  29.164   6.150
 8270POPC   GL263326  38.603  29.061   6.150
 8270POPC   C1A63327  38.436  29.116   6.450
 8270POPC   D2A63328  38.418  29.194   6.750
 8270POPC   C3A63329  38.486  29.095   7.050
 8270POPC   C4A63330  38.407  29.182   7.350
 8270POPC   C1B63331  38.717  29.097   6.450
 8270POPC   C2B63332  38.679  29.089   6.750
 8270POPC   C3B63333  38.664  29.080   7.050
 8270POPC   C4B63334  38.660  29.067   7.350
 8271POPC   NC363335  36.878   5.864   5.550
 8271POPC   PO463336  36.945   5.857   5.850
 8271POPC   GL163337  36.917   5.911   6.150
 8271POPC   GL263338  36.809   5.841   6.150
 8271POPC   C1A63339  36.889   5.843   6.450
 8271POPC   D2A63340  36.941   5.821   6.750
 8271POPC   C3A63341  36.934   5.918   7.050
 8271POPC   C4A63342  36.944   5.841   7.350
 8271POPC   C1B63343  36.668   5.784   6.450
 8271POPC   C2B63344  36.677   5.699   6.750
 8271POPC   C3B63345  36.737   5.740   7.050
 8271POPC   C4B63346  36.741   5.786   7.350
 8272POPC   NC363347   1.987  29.957   5.550
 8272POPC   PO463348   2.025  29.920   5.850
 8272POPC   GL163349   2.003  29.944   6.150
 8272POPC   GL263350   1.865  29.945   6.150
 8272POPC   C1A63351   1.947  29.970   6.450
 8272POPC   D2A63352   2.008  29.921   6.750
 8272POPC   C3A63353   1.963  29.913   7.050
 8272POPC   C4A63354   1.987  29.952   7.350
 8272POPC   C1B63355   1.718  29.965   6.450
 8272POPC   C2B63356   1.750  29.991   6.750
 8272POPC   C3B63357   1.783  29.993   7.050
 8272POPC   C4B63358   1.713  30.037   7.350
 8273POPC   NC363359  18.318   4.307   5.550
 8273POPC   PO463360  18.271   4.361   5.850
 8273POPC   GL163361  18.332   4.284   6.150
 8273POPC   GL263362  18.358   4.296   6.150
 8273POPC   C1A63363  18.280   4.339   6.450
 8273POPC   D2A63364  18.326   4.269   6.750
 8273POPC   C3A63365  18.277   4.331   7.050
 8273POPC   C4A63366  18.297   4.324   7.350
 8273POPC   C1B63367  18.575   4.317   6.450
 8273POPC   C2B63368  18.512   4.395   6.750
 8273POPC   C3B63369  18.512   4.325   7.050
 8273POPC   C4B63370  18.508   4.377   7.350
 8274POPC   NC363371  12.048   9.017   5.550
 8274POPC   PO463372  12.106   8.969   5.850
 8274POPC   GL163373  12.055   8.935   6.150
 8274POPC   GL263374  12.169   9.036   6.150
 8274POPC   C1A63375  12.058   8.996   6.450
 8274POPC   D2A63376  12.084   8.929   6.750
 8274POPC   C3A63377  12.037   8.947   7.050
 8274POPC   C4A63378  12.055   8.962   7.350
 8274POPC   C1B63379  12.339   9.044   6.450
 8274POPC   C2B63380  12.287   9.072   6.750
 8274POPC   C3B63381  12.281   9.076   7.050
 8274POPC   C4B63382  12.303   9.076   7.350
 8275POPC   NC363383  33.846  28.398   5.550
 8275POPC   PO463384  33.783  28.327   5.850
 8275POPC   GL163385  33.797  28.330   6.150
 8275POPC   GL263386  33.938  28.473   6.150
 8275POPC   C1A63387  33.796  28.322   6.450
 8275POPC   D2A63388  33.810  28.340   6.750
 8275POPC   C3A63389  33.755  28.332   7.050
 8275POPC   C4A63390  33.810  28.367   7.350
 8275POPC   C1B63391  34.018  28.529   6.450
 8275POPC   C2B63392  34.009  28.512   6.750
 8275POPC   C3B63393  34.023  28.583   7.050
 8275POPC   C4B63394  33.971  28.531   7.350
 8276POPC   NC363395  11.260  15.975   5.550
 8276POPC   PO463396  11.311  15.966   5.850
 8276POPC   GL163397  11.330  15.926   6.150
 8276POPC   GL263398  11.319  15.852   6.150
 8276POPC   C1A63399  11.315  15.921   6.450
 8276POPC   D2A63400  11.315  15.978   6.750
 8276POPC   C3A63401  11.251  15.911   7.050
 8276POPC   C4A63402  11.287  15.971   7.350
 8276POPC   C1B63403  11.312  15.709   6.450
 8276POPC   C2B63404  11.296  15.661   6.750
 8276POPC   C3B63405  11.246  15.695   7.050
 8276POPC   C4B63406  11.245  15.692   7.350
 8277POPC   NC363407  29.152  28.333   5.550
 8277POPC   PO463408  29.115  28.387   5.850
 8277POPC   GL163409  29.106  28.390   6.150
 8277POPC   GL263410  29.046  28.436   6.150
 8277POPC   C1A63411  29.144  28.320   6.450
 8277POPC   D2A63412  29.191  28.386   6.750
 8277POPC   C3A63413  29.104  28.406   7.050
 8277POPC   C4A63414  29.191  28.368   7.350
 8277POPC   C1B63415  28.934  28.474   6.450
 8277POPC   C2B63416  28.955  28.480   6.750
 8277POPC   C3B63417  28.976  28.507   7.050
 8277POPC   C4B63418  28.910  28.518   7.350
 8278POPC   NC363419  38.445  42.333   5.550
 8278POPC   PO463420  38.435  42.345   5.850
 8278POPC   GL163421  38.493  42.327   6.150
 8278POPC   GL263422  38.498  42.418   6.150
 8278POPC   C1A63423  38.496  42.372   6.450
 8278POPC   D2A63424  38.485  42.292   6.750
 8278POPC   C3A63425  38.471  42.308   7.050
 8278POPC   C4A63426  38.433  42.371   7.350
 8278POPC   C1B63427  38.687  42.541   6.450
 8278POPC   C2B63428  38.621  42.526   6.750
 8278POPC   C3B63429  38.612  42.501   7.050
 8278POPC   C4B63430  38.682  42.515   7.350
 8279POPC   NC363431   7.412  43.148   5.550
 8279POPC   PO463432   7.395  43.153   5.850
 8279POPC   GL163433   7.417  43.095   6.150
 8279POPC   GL263434   7.538  43.134   6.150
 8279POPC   C1A63435   7.416  43.142   6.450
 8279POPC   D2A63436   7.454  43.147   6.750
 8279POPC   C3A63437   7.468  43.091   7.050
 8279POPC   C4A63438   7.389  43.073   7.350
 8279POPC   C1B63439   7.658  43.237   6.450
 8279POPC   C2B63440   7.663  43.178   6.750
 8279POPC   C3B63441   7.692  43.199   7.050
 8279POPC   C4B63442   7.649  43.171   7.350
 8280POPC   NC363443  32.257  37.640   5.550
 8280POPC   PO463444  32.268  37.718   5.850
 8280POPC   GL163445  32.219  37.677   6.150
 8280POPC   GL263446  32.232  37.599   6.150
 8280POPC   C1A63447  32.249  37.679   6.450
 8280POPC   D2A63448  32.230  37.706   6.750
 8280POPC   C3A63449  32.214  37.718   7.050
 8280POPC   C4A63450  32.287  37.685   7.350
 8280POPC   C1B63451  32.148  37.441   6.450
 8280POPC   C2B63452  32.145  37.480   6.750
 8280POPC   C3B63453  32.152  37.460   7.050
 8280POPC   C4B63454  32.127  37.467   7.350
 8281POPC   NC363455  12.816  25.238   5.550
 8281POPC   PO463456  12.851  25.314   5.850
 8281POPC   GL163457  12.809  25.282   6.150
 8281POPC   GL263458  12.895  25.354   6.150
 8281POPC   C1A63459  12.867  25.223   6.450
 8281POPC   D2A63460  12.820  25.313   6.750
 8281POPC   C3A63461  12.878  25.240   7.050
 8281POPC   C4A63462  12.834  25.218   7.350
 8281POPC   C1B63463  13.061  25.488   6.450
 8281POPC   C2B63464  13.026  25.471   6.750
 8281POPC   C3B63465  13.004  25.396   7.050
 8281POPC   C4B63466  13.016  25.432   7.350
 8282POPC   NC363467  42.296   4.280   5.550
 8282POPC   PO463468  42.379   4.316   5.850
 8282POPC   GL163469  42.352   4.322   6.150
 8282POPC   GL263470  42.245   4.392   6.150
 8282POPC   C1A63471  42.378   4.283   6.450
 8282POPC   D2A63472  42.356   4.359   6.750
 8282POPC   C3A63473  42.348   4.318   7.050
 8282POPC   C4A63474  42.286   4.310   7.350
 8282POPC   C1B63475  42.293   4.558   6.450
 8282POPC   C2B63476  42.271   4.510   6.750
 8282POPC   C3B63477  42.258   4.514   7.050
 8282POPC   C4B63478  42.274   4.565   7.350
 8283POPC   NC363479  38.498   5.109   5.550
 8283POPC   PO463480  38.473   5.109   5.850
 8283POPC   GL163481  38.475   5.050   6.150
 8283POPC   GL263482  38.499   5.202   6.150
 8283POPC   C1A63483  38.493   5.138   6.450
 8283POPC   D2A63484  38.455   5.067   6.750
 8283POPC   C3A63485  38.406   5.106   7.050
 8283POPC   C4A63486  38.458   5.084   7.350
 8283POPC   C1B63487  38.527   5.334   6.450
 8283POPC   C2B63488  38.520   5.336   6.750
 8283POPC   C3B63489  38.492   5.367   7.050
 8283POPC   C4B63490  38.502   5.383   7.350
 8284POPC   NC363491  21.419   0.488   5.550
 8284POPC   PO463492  21.338   0.388   5.850
 8284POPC   GL163493  21.363   0.392   6.150
 8284POPC   GL263494  21.356   0.568   6.150
 8284POPC   C1A63495  21.385   0.436   6.450
 8284POPC   D2A63496  21.357   0.393   6.750
 8284POPC   C3A63497  21.396   0.466   7.050
 8284POPC   C4A63498  21.409   0.488   7.350
 8284POPC   C1B63499  21.236   0.657   6.450
 8284POPC   C2B63500  21.209   0.589   6.750
 8284POPC   C3B63501  21.266   0.620   7.050
 8284POPC   C4B63502  21.226   0.644   7.350
 8285POPC   NC363503  13.643  32.220   5.550
 8285POPC   PO463504  13.641  32.277   5.850
 8285POPC   GL163505  13.607  32.199   6.150
 8285POPC   GL263506  13.717  32.215   6.150
 8285POPC   C1A63507  13.603  32.262   6.450
 8285POPC   D2A63508  13.584  32.236   6.750
 8285POPC   C3A63509  13.668  32.263   7.050
 8285POPC   C4A63510  13.602  32.263   7.350
 8285POPC   C1B63511  13.855  32.186   6.450
 8285POPC   C2B63512  13.882  32.236   6.750
 8285POPC   C3B63513  13.839  32.274   7.050
 8285POPC   C4B63514  13.862  32.215   7.350
 8286POPC   NC363515  39.211  29.102   5.550
 8286POPC   PO463516  39.280  29.131   5.850
 8286POPC   GL163517  39.199  29.165   6.150
 8286POPC   GL263518  39.300  29.000   6.150
 8286POPC   C1A63519  39.239  29.159   6.450
 8286POPC   D2A63520  39.270  29.116   6.750
 8286POPC   C3A63521  39.248  29.104   7.050
 8286POPC   C4A63522  39.209  29.171   7.350
 8286POPC   C1B63523  39.233  28.903   6.450
 8286POPC   C2B63524  39.277  28.882   6.750
 8286POPC   C3B63525  39.298  28.890   7.050
 8286POPC   C4B63526  39.254  28.856   7.350
 8287POPC   NC363527  28.368  24.486   5.550
 8287POPC   PO463528  28.401  24.521   5.850
 8287POPC   GL163529  28.335  24.495   6.150
 8287POPC   GL263530  28.437  24.370   6.150
 8287POPC   C1A63531  28.398  24.521   6.450
 8287POPC   D2A63532  28.322  24.473   6.750
 8287POPC   C3A63533  28.377  24.470   7.050
 8287POPC   C4A63534  28.368  24.470   7.350
 8287POPC   C1B63535  28.539  24.269   6.450
 8287POPC   C2B63536  28.519  24.296   6.750
 8287POPC   C3B63537  28.513  24.273   7.050
 8287POPC   C4B63538  28.464  24.318   7.350
 8288POPC   NC363539  12.853  27.546   5.550
 8288POPC   PO463540  12.883  27.574   5.850
 8288POPC   GL163541  12.833  27.587   6.150
 8288POPC   GL263542  12.752  27.603   6.150
 8288POPC   C1A63543  12.807  27.643   6.450
 8288POPC   D2A63544  12.820  27.571   6.750
 8288POPC   C3A63545  12.821  27.566   7.050
 8288POPC   C4A63546  12.816  27.596   7.350
 8288POPC   C1B63547  12.632  27.543   6.450
 8288POPC   C2B63548  12.649  27.555   6.750
 8288POPC   C3B63549  12.571  27.486   7.050
 8288POPC   C4B63550  12.570  27.485   7.350
 8289POPC   NC363551   9.792  43.931   5.550
 8289POPC   PO463552   9.765  43.859   5.850
 8289POPC   GL163553   9.743  43.847   6.150
 8289POPC   GL263554   9.739  43.776   6.150
 8289POPC   C1A63555   9.788  43.904   6.450
 8289POPC   D2A63556   9.782  43.903   6.750
 8289POPC   C3A63557   9.733  43.917   7.050
 8289POPC   C4A63558   9.718  43.903   7.350
 8289POPC   C1B63559   9.698  43.598   6.450
 8289POPC   C2B63560   9.726  43.639   6.750
 8289POPC   C3B63561   9.712  43.653   7.050
 8289POPC   C4B63562   9.694  43.620   7.350
 8290POPC   NC363563  41.599  31.457   5.550
 8290POPC   PO463564  41.583  31.438   5.850
 8290POPC   GL163565  41.588  31.454   6.150
 8290POPC   GL263566  41.689  31.403   6.150
 8290POPC   C1A63567  41.585  31.435   6.450
 8290POPC   D2A63568  41.512  31.506   6.750
 8290POPC   C3A63569  41.558  31.507   7.050
 8290POPC   C4A63570  41.530  31.510   7.350
 8290POPC   C1B63571  41.760  31.324   6.450
 8290POPC   C2B63572  41.753  31.292   6.750
 8290POPC   C3B63573  41.770  31.345   7.050
 8290POPC   C4B63574  41.768  31.367   7.350
 8291POPC   NC363575  33.060  21.360   5.550
 8291POPC   PO463576  33.000  21.355   5.850
 8291POPC   GL163577  33.004  21.428   6.150
 8291POPC   GL263578  32.972  21.268   6.150
 8291POPC   C1A63579  33.059  21.349   6.450
 8291POPC   D2A63580  32.992  21.379   6.750
 8291POPC   C3A63581  33.030  21.362   7.050
 8291POPC   C4A63582  33.008  21.419   7.350
 8291POPC   C1B63583  32.879  21.211   6.450
 8291POPC   C2B63584  32.839  21.193   6.750
 8291POPC   C3B63585  32.820  21.200   7.050
 8291POPC   C4B63586  32.834  21.229   7.350
 8292POPC   NC363587   2.746  19.078   5.550
 8292POPC   PO463588   2.800  19.061   5.850
 8292POPC   GL163589   2.775  19.023   6.150
 8292POPC   GL263590   2.738  19.155   6.150
 8292POPC   C1A63591   2.788  19.054   6.450
 8292POPC   D2A63592   2.734  19.074   6.750
 8292POPC   C3A63593   2.736  19.099   7.050
 8292POPC   C4A63594   2.751  19.013   7.350
 8292POPC   C1B63595   2.691  19.298   6.450
 8292POPC   C2B63596   2.686  19.309   6.750
 8292POPC   C3B63597   2.617  19.279   7.050
 8292POPC   C4B63598   2.666  19.317   7.350
 8293POPC   NC363599  19.078   7.444   5.550
 8293POPC   PO463600  19.072   7.375   5.850
 8293POPC   GL163601  19.018   7.416   6.150
 8293POPC   GL263602  19.024   7.331   6.150
 8293POPC   C1A63603  19.054   7.451   6.450
 8293POPC   D2A63604  19.079   7.446   6.750
 8293POPC   C3A63605  19.032   7.440   7.050
 8293POPC   C4A63606  19.059   7.442   7.350
 8293POPC   C1B63607  19.056   7.157   6.450
 8293POPC   C2B63608  19.111   7.221   6.750
 8293POPC   C3B63609  19.068   7.198   7.050
 8293POPC   C4B63610  19.052   7.178   7.350
 8294POPC   NC363611  14.442  25.278   5.550
 8294POPC   PO463612  14.385  25.234   5.850
 8294POPC   GL163613  14.422  25.286   6.150
 8294POPC   GL263614  14.410  25.382   6.150
 8294POPC   C1A63615  14.367  25.269   6.450
 8294POPC   D2A63616  14.383  25.252   6.750
 8294POPC   C3A63617  14.408  25.279   7.050
 8294POPC   C4A63618  14.417  25.294   7.350
 8294POPC   C1B63619  14.442  25.507   6.450
 8294POPC   C2B63620  14.400  25.516   6.750
 8294POPC   C3B63621  14.457  25.531   7.050
 8294POPC   C4B63622  14.403  25.557   7.350
 8295POPC   NC363623   2.000   4.301   5.550
 8295POPC   PO463624   1.945   4.271   5.850
 8295POPC   GL163625   2.026   4.279   6.150
 8295POPC   GL263626   2.144   4.234   6.150
 8295POPC   C1A63627   1.986   4.322   6.450
 8295POPC   D2A63628   1.989   4.313   6.750
 8295POPC   C3A63629   1.991   4.364   7.050
 8295POPC   C4A63630   2.029   4.332   7.350
 8295POPC   C1B63631   2.205   4.176   6.450
 8295POPC   C2B63632   2.207   4.181   6.750
 8295POPC   C3B63633   2.244   4.235   7.050
 8295POPC   C4B63634   2.232   4.175   7.350
 8296POPC   NC363635  40.757   2.020   5.550
 8296POPC   PO463636  40.827   1.951   5.850
 8296POPC   GL163637  40.784   1.989   6.150
 8296POPC   GL263638  40.630   1.935   6.150
 8296POPC   C1A63639  40.769   1.962   6.450
 8296POPC   D2A63640  40.744   2.028   6.750
 8296POPC   C3A63641  40.800   1.951   7.050
 8296POPC   C4A63642  40.784   2.011   7.350
 8296POPC   C1B63643  40.526   1.963   6.450
 8296POPC   C2B63644  40.522   1.965   6.750
 8296POPC   C3B63645  40.528   1.988   7.050
 8296POPC   C4B63646  40.558   1.958   7.350
 8297POPC   NC363647  21.345   3.580   5.550
 8297POPC   PO463648  21.426   3.575   5.850
 8297POPC   GL163649  21.433   3.530   6.150
 8297POPC   GL263650  21.441   3.402   6.150
 8297POPC   C1A63651  21.394   3.500   6.450
 8297POPC   D2A63652  21.420   3.589   6.750
 8297POPC   C3A63653  21.378   3.564   7.050
 8297POPC   C4A63654  21.363   3.583   7.350
 8297POPC   C1B63655  21.541   3.288   6.450
 8297POPC   C2B63656  21.511   3.289   6.750
 8297POPC   C3B63657  21.483   3.336   7.050
 8297POPC   C4B63658  21.541   3.366   7.350
 8298POPC   NC363659  30.647   5.889   5.550
 8298POPC   PO463660  30.713   5.840   5.850
 8298POPC   GL163661  30.662   5.846   6.150
 8298POPC   GL263662  30.858   5.887   6.150
 8298POPC   C1A63663  30.713   5.838   6.450
 8298POPC   D2A63664  30.720   5.831   6.750
 8298POPC   C3A63665  30.704   5.908   7.050
 8298POPC   C4A63666  30.741   5.836   7.350
 8298POPC   C1B63667  30.910   5.895   6.450
 8298POPC   C2B63668  30.910   5.832   6.750
 8298POPC   C3B63669  30.913   5.862   7.050
 8298POPC   C4B63670  30.977   5.819   7.350
 8299POPC   NC363671   1.944  28.344   5.550
 8299POPC   PO463672   2.007  28.359   5.850
 8299POPC   GL163673   1.978  28.419   6.150
 8299POPC   GL263674   2.120  28.367   6.150
 8299POPC   C1A63675   2.033  28.383   6.450
 8299POPC   D2A63676   1.995  28.413   6.750
 8299POPC   C3A63677   1.961  28.352   7.050
 8299POPC   C4A63678   1.952  28.380   7.350
 8299POPC   C1B63679   2.284  28.350   6.450
 8299POPC   C2B63680   2.191  28.401   6.750
 8299POPC   C3B63681   2.217  28.326   7.050
 8299POPC   C4B63682   2.286  28.393   7.350
 8300POPC   NC363683   1.172  11.287   5.550
 8300POPC   PO463684   1.246  11.300   5.850
 8300POPC   GL163685   1.177  11.298   6.150
 8300POPC   GL263686   1.100  11.165   6.150
 8300POPC   C1A63687   1.229  11.308   6.450
 8300POPC   D2A63688   1.218  11.342   6.750
 8300POPC   C3A63689   1.231  11.315   7.050
 8300POPC   C4A63690   1.190  11.251   7.350
 8300POPC   C1B63691   1.078  11.079   6.450
 8300POPC   C2B63692   0.996  11.158   6.750
 8300POPC   C3B63693   0.987  11.095   7.050
 8300POPC   C4B63694   1.077  11.120   7.350
 8301POPC   NC363695  23.739   3.563   5.550
 8301POPC   PO463696  23.678   3.534   5.850
 8301POPC   GL163697  23.749   3.541   6.150
 8301POPC   GL263698  23.734   3.629   6.150
 8301POPC   C1A63699  23.710   3.562   6.450
 8301POPC   D2A63700  23.724   3.550   6.750
 8301POPC   C3A63701  23.747   3.519   7.050
 8301POPC   C4A63702  23.702   3.522   7.350
 8301POPC   C1B63703  23.750   3.770   6.450
 8301POPC   C2B63704  23.690   3.822   6.750
 8301POPC   C3B63705  23.716   3.797   7.050
 8301POPC   C4B63706  23.685   3.822   7.350
 8302POPC   NC363707  15.943  33.034   5.550
 8302POPC   PO463708  15.994  33.035   5.850
 8302POPC   GL163709  15.928  33.064   6.150
 8302POPC   GL263710  15.866  32.930   6.150
 8302POPC   C1A63711  15.913  32.977   6.450
 8302POPC   D2A63712  15.968  33.048   6.750
 8302POPC   C3A63713  15.925  33.003   7.050
 8302POPC   C4A63714  16.000  32.984   7.350
 8302POPC   C1B63715  15.870  32.816   6.450
 8302POPC   C2B63716  15.863  32.789   6.750
 8302POPC   C3B63717  15.878  32.795   7.050
 8302POPC   C4B63718  15.789  32.818   7.350
 8303POPC   NC363719  26.865  42.299   5.550
 8303POPC   PO463720  26.843  42.369   5.850
 8303POPC   GL163721  26.826  42.361   6.150
 8303POPC   GL263722  26.909  42.408   6.150
 8303POPC   C1A63723  26.774  42.304   6.450
 8303POPC   D2A63724  26.783  42.339   6.750
 8303POPC   C3A63725  26.866  42.345   7.050
 8303POPC   C4A63726  26.848  42.308   7.350
 8303POPC   C1B63727  26.982  42.507   6.450
 8303POPC   C2B63728  27.019  42.503   6.750
 8303POPC   C3B63729  27.058  42.464   7.050
 8303POPC   C4B63730  26.973  42.476   7.350
 8304POPC   NC363731   5.134  21.340   5.550
 8304POPC   PO463732   5.097  21.364   5.850
 8304POPC   GL163733   5.116  21.355   6.150
 8304POPC   GL263734   5.246  21.469   6.150
 8304POPC   C1A63735   5.125  21.428   6.450
 8304POPC   D2A63736   5.058  21.379   6.750
 8304POPC   C3A63737   5.114  21.429   7.050
 8304POPC   C4A63738   5.078  21.406   7.350
 8304POPC   C1B63739   5.338  21.507   6.450
 8304POPC   C2B63740   5.328  21.487   6.750
 8304POPC   C3B63741   5.358  21.465   7.050
 8304POPC   C4B63742   5.349  21.486   7.350
 8305POPC   NC363743  36.166  19.078   5.550
 8305POPC   PO463744  36.170  19.042   5.850
 8305POPC   GL163745  36.174  19.045   6.150
 8305POPC   GL263746  36.165  18.938   6.150
 8305POPC   C1A63747  36.106  19.028   6.450
 8305POPC   D2A63748  36.109  19.010   6.750
 8305POPC   C3A63749  36.146  19.057   7.050
 8305POPC   C4A63750  36.117  19.011   7.350
 8305POPC   C1B63751  36.296  18.878   6.450
 8305POPC   C2B63752  36.218  18.835   6.750
 8305POPC   C3B63753  36.247  18.810   7.050
 8305POPC   C4B63754  36.293  18.827   7.350
 8306POPC   NC363755   6.675   0.410   5.550
 8306POPC   PO463756   6.624   0.457   5.850
 8306POPC   GL163757   6.633   0.407   6.150
 8306POPC   GL263758   6.703   0.326   6.150
 8306POPC   C1A63759   6.683   0.470   6.450
 8306POPC   D2A63760   6.597   0.399   6.750
 8306POPC   C3A63761   6.630   0.408   7.050
 8306POPC   C4A63762   6.620   0.440   7.350
 8306POPC   C1B63763   6.704   0.198   6.450
 8306POPC   C2B63764   6.719   0.213   6.750
 8306POPC   C3B63765   6.714   0.227   7.050
 8306POPC   C4B63766   6.717   0.162   7.350
 8307POPC   NC363767  21.386  26.823   5.550
 8307POPC   PO463768  21.355  26.770   5.850
 8307POPC   GL163769  21.429  26.851   6.150
 8307POPC   GL263770  21.487  26.737   6.150
 8307POPC   C1A63771  21.384  26.775   6.450
 8307POPC   D2A63772  21.429  26.803   6.750
 8307POPC   C3A63773  21.370  26.787   7.050
 8307POPC   C4A63774  21.364  26.819   7.350
 8307POPC   C1B63775  21.521  26.573   6.450
 8307POPC   C2B63776  21.539  26.604   6.750
 8307POPC   C3B63777  21.491  26.635   7.050
 8307POPC   C4B63778  21.507  26.641   7.350
 8308POPC   NC363779  33.847  36.898   5.550
 8308POPC   PO463780  33.821  36.906   5.850
 8308POPC   GL163781  33.773  36.898   6.150
 8308POPC   GL263782  33.862  37.046   6.150
 8308POPC   C1A63783  33.800  36.935   6.450
 8308POPC   D2A63784  33.773  36.929   6.750
 8308POPC   C3A63785  33.832  36.866   7.050
 8308POPC   C4A63786  33.827  36.877   7.350
 8308POPC   C1B63787  33.947  37.121   6.450
 8308POPC   C2B63788  33.917  37.046   6.750
 8308POPC   C3B63789  33.969  37.067   7.050
 8308POPC   C4B63790  34.012  37.086   7.350
 8309POPC   NC363791  43.896  42.313   5.550
 8309POPC   PO463792  43.878  42.285   5.850
 8309POPC   GL163793  43.891  42.300   6.150
 8309POPC   GL263794  43.879  42.181   6.150
 8309POPC   C1A63795  43.895  42.357   6.450
 8309POPC   D2A63796  43.891  42.303   6.750
 8309POPC   C3A63797  43.921  42.310   7.050
 8309POPC   C4A63798  43.898  42.298   7.350
 8309POPC   C1B63799  43.890  42.114   6.450
 8309POPC   C2B63800  43.888  42.079   6.750
 8309POPC   C3B63801  43.917  42.043   7.050
 8309POPC   C4B63802  43.889  42.083   7.350
 8310POPC   NC363803  26.049  33.028   5.550
 8310POPC   PO463804  26.067  33.048   5.850
 8310POPC   GL163805  26.038  32.986   6.150
 8310POPC   GL263806  26.189  33.012   6.150
 8310POPC   C1A63807  26.027  33.060   6.450
 8310POPC   D2A63808  26.035  32.982   6.750
 8310POPC   C3A63809  26.049  33.030   7.050
 8310POPC   C4A63810  26.010  32.989   7.350
 8310POPC   C1B63811  26.258  32.955   6.450
 8310POPC   C2B63812  26.291  32.996   6.750
 8310POPC   C3B63813  26.327  32.960   7.050
 8310POPC   C4B63814  26.327  32.979   7.350
 8311POPC   NC363815  32.259  35.394   5.550
 8311POPC   PO463816  32.289  35.314   5.850
 8311POPC   GL163817  32.294  35.343   6.150
 8311POPC   GL263818  32.397  35.391   6.150
 8311POPC   C1A63819  32.233  35.397   6.450
 8311POPC   D2A63820  32.224  35.309   6.750
 8311POPC   C3A63821  32.231  35.388   7.050
 8311POPC   C4A63822  32.234  35.353   7.350
 8311POPC   C1B63823  32.508  35.477   6.450
 8311POPC   C2B63824  32.500  35.495   6.750
 8311POPC   C3B63825  32.491  35.449   7.050
 8311POPC   C4B63826  32.432  35.460   7.350
 8312POPC   NC363827   5.125  22.126   5.550
 8312POPC   PO463828   5.115  22.192   5.850
 8312POPC   GL163829   5.061  22.119   6.150
 8312POPC   GL263830   5.014  22.042   6.150
 8312POPC   C1A63831   5.083  22.208   6.450
 8312POPC   D2A63832   5.078  22.159   6.750
 8312POPC   C3A63833   5.051  22.157   7.050
 8312POPC   C4A63834   5.135  22.185   7.350
 8312POPC   C1B63835   4.854  22.020   6.450
 8312POPC   C2B63836   4.926  21.979   6.750
 8312POPC   C3B63837   4.941  22.048   7.050
 8312POPC   C4B63838   4.902  22.049   7.350
 8313POPC   NC363839  26.048   9.734   5.550
 8313POPC   PO463840  26.040   9.751   5.850
 8313POPC   GL163841  26.055   9.748   6.150
 8313POPC   GL263842  26.159   9.847   6.150
 8313POPC   C1A63843  26.003   9.723   6.450
 8313POPC   D2A63844  26.051   9.751   6.750
 8313POPC   C3A63845  26.067   9.700   7.050
 8313POPC   C4A63846  26.011   9.781   7.350
 8313POPC   C1B63847  26.223   9.824   6.450
 8313POPC   C2B63848  26.243   9.841   6.750
 8313POPC   C3B63849  26.234   9.877   7.050
 8313POPC   C4B63850  26.218   9.841   7.350
 8314POPC   NC363851  15.969   9.778   5.550
 8314POPC   PO463852  15.991   9.730   5.850
 8314POPC   GL163853  16.004   9.747   6.150
 8314POPC   GL263854  15.910   9.860   6.150
 8314POPC   C1A63855  15.913   9.723   6.450
 8314POPC   D2A63856  16.002   9.778   6.750
 8314POPC   C3A63857  15.957   9.774   7.050
 8314POPC   C4A63858  15.927   9.704   7.350
 8314POPC   C1B63859  15.749   9.943   6.450
 8314POPC   C2B63860  15.721   9.898   6.750
 8314POPC   C3B63861  15.726   9.912   7.050
 8314POPC   C4B63862  15.806   9.933   7.350
 8315POPC   NC363863  11.345  39.980   5.550
 8315POPC   PO463864  11.332  39.984   5.850
 8315POPC   GL163865  11.342  39.989   6.150
 8315POPC   GL263866  11.445  39.923   6.150
 8315POPC   C1A63867  11.297  39.961   6.450
 8315POPC   D2A63868  11.339  40.017   6.750
 8315POPC   C3A63869  11.267  40.027   7.050
 8315POPC   C4A63870  11.321  40.015   7.350
 8315POPC   C1B63871  11.536  39.985   6.450
 8315POPC   C2B63872  11.502  39.934   6.750
 8315POPC   C3B63873  11.515  39.905   7.050
 8315POPC   C4B63874  11.564  39.974   7.350
 8316POPC   NC363875  12.883  44.698   5.550
 8316POPC   PO463876  12.821  44.706   5.850
 8316POPC   GL163877  12.839  44.701   6.150
 8316POPC   GL263878  12.815  44.527   6.150
 8316POPC   C1A63879  12.810  44.629   6.450
 8316POPC   D2A63880  12.864  44.643   6.750
 8316POPC   C3A63881  12.895  44.677   7.050
 8316POPC   C4A63882  12.824  44.655   7.350
 8316POPC   C1B63883  12.768  44.451   6.450
 8316POPC   C2B63884  12.728  44.386   6.750
 8316POPC   C3B63885  12.736  44.442   7.050
 8316POPC   C4B63886  12.701  44.391   7.350
 8317POPC   NC363887  41.602  12.899   5.550
 8317POPC   PO463888  41.541  12.868   5.850
 8317POPC   GL163889  41.584  12.847   6.150
 8317POPC   GL263890  41.658  12.837   6.150
 8317POPC   C1A63891  41.599  12.862   6.450
 8317POPC   D2A63892  41.605  12.802   6.750
 8317POPC   C3A63893  41.522  12.853   7.050
 8317POPC   C4A63894  41.596  12.848   7.350
 8317POPC   C1B63895  41.789  12.852   6.450
 8317POPC   C2B63896  41.826  12.831   6.750
 8317POPC   C3B63897  41.809  12.869   7.050
 8317POPC   C4B63898  41.846  12.873   7.350
 8318POPC   NC363899  11.297  42.308   5.550
 8318POPC   PO463900  11.264  42.309   5.850
 8318POPC   GL163901  11.278  42.342   6.150
 8318POPC   GL263902  11.370  42.188   6.150
 8318POPC   C1A63903  11.341  42.367   6.450
 8318POPC   D2A63904  11.303  42.339   6.750
 8318POPC   C3A63905  11.332  42.285   7.050
 8318POPC   C4A63906  11.286  42.363   7.350
 8318POPC   C1B63907  11.397  42.050   6.450
 8318POPC   C2B63908  11.385  42.050   6.750
 8318POPC   C3B63909  11.333  42.079   7.050
 8318POPC   C4B63910  11.362  42.132   7.350
 8319POPC   NC363911  43.881  34.550   5.550
 8319POPC   PO463912  43.849  34.541   5.850
 8319POPC   GL163913  43.867  34.587   6.150
 8319POPC   GL263914  43.806  34.599   6.150
 8319POPC   C1A63915  43.902  34.615   6.450
 8319POPC   D2A63916  43.887  34.567   6.750
 8319POPC   C3A63917  43.930  34.603   7.050
 8319POPC   C4A63918  43.848  34.604   7.350
 8319POPC   C1B63919  43.673  34.706   6.450
 8319POPC   C2B63920  43.674  34.718   6.750
 8319POPC   C3B63921  43.680  34.687   7.050
 8319POPC   C4B63922  43.627  34.715   7.350
 8320POPC   NC363923  26.005  13.624   5.550
 8320POPC   PO463924  26.083  13.665   5.850
 8320POPC   GL163925  26.071  13.675   6.150
 8320POPC   GL263926  26.032  13.495   6.150
 8320POPC   C1A63927  26.083  13.649   6.450
 8320POPC   D2A63928  26.013  13.604   6.750
 8320POPC   C3A63929  26.078  13.592   7.050
 8320POPC   C4A63930  26.052  13.607   7.350
 8320POPC   C1B63931  25.960  13.353   6.450
 8320POPC   C2B63932  25.925  13.419   6.750
 8320POPC   C3B63933  26.001  13.405   7.050
 8320POPC   C4B63934  25.935  13.427   7.350
 8321POPC   NC363935  20.634  29.873   5.550
 8321POPC   PO463936  20.645  29.931   5.850
 8321POPC   GL163937  20.659  29.953   6.150
 8321POPC   GL263938  20.719  29.819   6.150
 8321POPC   C1A63939  20.595  29.889   6.450
 8321POPC   D2A63940  20.646  29.891   6.750
 8321POPC   C3A63941  20.629  29.894   7.050
 8321POPC   C4A63942  20.594  29.898   7.350
 8321POPC   C1B63943  20.792  29.803   6.450
 8321POPC   C2B63944  20.750  29.722   6.750
 8321POPC   C3B63945  20.752  29.761   7.050
 8321POPC   C4B63946  20.843  29.789   7.350
 8322POPC   NC363947  15.175  19.080   5.550
 8322POPC   PO463948  15.208  19.061   5.850
 8322POPC   GL163949  15.140  19.100   6.150
 8322POPC   GL263950  15.314  19.016   6.150
 8322POPC   C1A63951  15.229  19.057   6.450
 8322POPC   D2A63952  15.207  19.029   6.750
 8322POPC   C3A63953  15.189  19.013   7.050
 8322POPC   C4A63954  15.189  19.016   7.350
 8322POPC   C1B63955  15.400  19.005   6.450
 8322POPC   C2B63956  15.461  18.991   6.750
 8322POPC   C3B63957  15.470  18.980   7.050
 8322POPC   C4B63958  15.431  18.974   7.350
 8323POPC   NC363959  24.447  40.823   5.550
 8323POPC   PO463960  24.507  40.818   5.850
 8323POPC   GL163961  24.471  40.743   6.150
 8323POPC   GL263962  24.401  40.776   6.150
 8323POPC   C1A63963  24.539  40.739   6.450
 8323POPC   D2A63964  24.470  40.744   6.750
 8323POPC   C3A63965  24.517  40.795   7.050
 8323POPC   C4A63966  24.481  40.767   7.350
 8323POPC   C1B63967  24.208  40.699   6.450
 8323POPC   C2B63968  24.252  40.667   6.750
 8323POPC   C3B63969  24.269  40.740   7.050
 8323POPC   C4B63970  24.259  40.699   7.350
 8324POPC   NC363971  41.527  36.097   5.550
 8324POPC   PO463972  41.556  36.130   5.850
 8324POPC   GL163973  41.565  36.104   6.150
 8324POPC   GL263974  41.651  36.160   6.150
 8324POPC   C1A63975  41.536  36.111   6.450
 8324POPC   D2A63976  41.584  36.136   6.750
 8324POPC   C3A63977  41.548  36.124   7.050
 8324POPC   C4A63978  41.563  36.083   7.350
 8324POPC   C1B63979  41.782  36.149   6.450
 8324POPC   C2B63980  41.855  36.142   6.750
 8324POPC   C3B63981  41.758  36.162   7.050
 8324POPC   C4B63982  41.791  36.181   7.350
 8325POPC   NC363983  26.844  30.695   5.550
 8325POPC   PO463984  26.864  30.664   5.850
 8325POPC   GL163985  26.769  30.707   6.150
 8325POPC   GL263986  26.937  30.745   6.150
 8325POPC   C1A63987  26.849  30.738   6.450
 8325POPC   D2A63988  26.833  30.675   6.750
 8325POPC   C3A63989  26.824  30.690   7.050
 8325POPC   C4A63990  26.768  30.664   7.350
 8325POPC   C1B63991  27.102  30.776   6.450
 8325POPC   C2B63992  27.079  30.718   6.750
 8325POPC   C3B63993  27.061  30.769   7.050
 8325POPC   C4B63994  27.030  30.716   7.350
 8326POPC   NC363995  15.171  26.849   5.550
 8326POPC   PO463996  15.185  26.805   5.850
 8326POPC   GL163997  15.131  26.861   6.150
 8326POPC   GL263998  15.153  26.705   6.150
 8326POPC   C1A63999  15.176  26.783   6.450
 8326POPC   D2A64000  15.184  26.863   6.750
 8326POPC   C3A64001  15.193  26.781   7.050
 8326POPC   C4A64002  15.173  26.791   7.350
 8326POPC   C1B64003  15.071  26.611   6.450
 8326POPC   C2B64004  15.113  26.589   6.750
 8326POPC   C3B64005  15.041  26.578   7.050
 8326POPC   C4B64006  15.075  26.585   7.350
 8327POPC   NC364007  11.305  17.556   5.550
 8327POPC   PO464008  11.268  17.515   5.850
 8327POPC   GL164009  11.319  17.524   6.150
 8327POPC   GL264010  11.148  17.476   6.150
 8327POPC   C1A64011  11.298  17.521   6.450
 8327POPC   D2A64012  11.292  17.522   6.750
 8327POPC   C3A64013  11.332  17.484   7.050
 8327POPC   C4A64014  11.255  17.510   7.350
 8327POPC   C1B64015  11.093  17.491   6.450
 8327POPC   C2B64016  11.039  17.491   6.750
 8327POPC   C3B64017  11.077  17.517   7.050
 8327POPC   C4B64018  11.013  17.495   7.350
 8328POPC   NC364019  40.757  12.847   5.550
 8328POPC   PO464020  40.749  12.849   5.850
 8328POPC   GL164021  40.819  12.853   6.150
 8328POPC   GL264022  40.700  12.827   6.150
 8328POPC   C1A64023  40.752  12.814   6.450
 8328POPC   D2A64024  40.788  12.854   6.750
 8328POPC   C3A64025  40.782  12.805   7.050
 8328POPC   C4A64026  40.797  12.884   7.350
 8328POPC   C1B64027  40.537  12.689   6.450
 8328POPC   C2B64028  40.593  12.717   6.750
 8328POPC   C3B64029  40.610  12.738   7.050
 8328POPC   C4B64030  40.598  12.750   7.350
 8329POPC   NC364031  15.947  41.565   5.550
 8329POPC   PO464032  15.948  41.511   5.850
 8329POPC   GL164033  15.974  41.568   6.150
 8329POPC   GL264034  15.844  41.578   6.150
 8329POPC   C1A64035  15.913  41.586   6.450
 8329POPC   D2A64036  15.929  41.588   6.750
 8329POPC   C3A64037  15.988  41.592   7.050
 8329POPC   C4A64038  15.950  41.584   7.350
 8329POPC   C1B64039  15.699  41.585   6.450
 8329POPC   C2B64040  15.680  41.559   6.750
 8329POPC   C3B64041  15.742  41.613   7.050
 8329POPC   C4B64042  15.726  41.559   7.350
 8330POPC   NC364043  25.236  32.983   5.550
 8330POPC   PO464044  25.290  32.995   5.850
 8330POPC   GL164045  25.244  33.029   6.150
 8330POPC   GL264046  25.199  32.933   6.150
 8330POPC   C1A64047  25.273  33.003   6.450
 8330POPC   D2A64048  25.272  33.018   6.750
 8330POPC   C3A64049  25.294  33.054   7.050
 8330POPC   C4A64050  25.261  32.995   7.350
 8330POPC   C1B64051  25.195  32.742   6.450
 8330POPC   C2B64052  25.194  32.817   6.750
 8330POPC   C3B64053  25.160  32.779   7.050
 8330POPC   C4B64054  25.185  32.825   7.350
 8331POPC   NC364055  17.539  17.459   5.550
 8331POPC   PO464056  17.535  17.557   5.850
 8331POPC   GL164057  17.478  17.535   6.150
 8331POPC   GL264058  17.589  17.640   6.150
 8331POPC   C1A64059  17.476  17.525   6.450
 8331POPC   D2A64060  17.462  17.502   6.750
 8331POPC   C3A64061  17.488  17.553   7.050
 8331POPC   C4A64062  17.527  17.517   7.350
 8331POPC   C1B64063  17.601  17.711   6.450
 8331POPC   C2B64064  17.649  17.691   6.750
 8331POPC   C3B64065  17.687  17.669   7.050
 8331POPC   C4B64066  17.680  17.728   7.350
 8332POPC   NC364067  24.491  28.344   5.550
 8332POPC   PO464068  24.513  28.369   5.850
 8332POPC   GL164069  24.461  28.364   6.150
 8332POPC   GL264070  24.377  28.430   6.150
 8332POPC   C1A64071  24.508  28.362   6.450
 8332POPC   D2A64072  24.511  28.371   6.750
 8332POPC   C3A64073  24.508  28.418   7.050
 8332POPC   C4A64074  24.441  28.342   7.350
 8332POPC   C1B64075  24.309  28.474   6.450
 8332POPC   C2B64076  24.300  28.481   6.750
 8332POPC   C3B64077  24.307  28.488   7.050
 8332POPC   C4B64078  24.311  28.552   7.350
 8333POPC   NC364079  40.760  20.614   5.550
 8333POPC   PO464080  40.761  20.642   5.850
 8333POPC   GL164081  40.826  20.604   6.150
 8333POPC   GL264082  40.939  20.500   6.150
 8333POPC   C1A64083  40.770  20.583   6.450
 8333POPC   D2A64084  40.751  20.578   6.750
 8333POPC   C3A64085  40.754  20.571   7.050
 8333POPC   C4A64086  40.801  20.607   7.350
 8333POPC   C1B64087  41.039  20.475   6.450
 8333POPC   C2B64088  41.009  20.463   6.750
 8333POPC   C3B64089  41.049  20.441   7.050
 8333POPC   C4B64090  41.035  20.518   7.350
 8334POPC   NC364091  41.574  26.782   5.550
 8334POPC   PO464092  41.568  26.826   5.850
 8334POPC   GL164093  41.550  26.831   6.150
 8334POPC   GL264094  41.694  26.883   6.150
 8334POPC   C1A64095  41.570  26.812   6.450
 8334POPC   D2A64096  41.592  26.800   6.750
 8334POPC   C3A64097  41.514  26.851   7.050
 8334POPC   C4A64098  41.594  26.826   7.350
 8334POPC   C1B64099  41.766  26.943   6.450
 8334POPC   C2B64100  41.748  26.964   6.750
 8334POPC   C3B64101  41.727  26.928   7.050
 8334POPC   C4B64102  41.748  26.909   7.350
 8335POPC   NC364103  33.832  12.098   5.550
 8335POPC   PO464104  33.762  12.051   5.850
 8335POPC   GL164105  33.759  12.034   6.150
 8335POPC   GL264106  33.896  11.994   6.150
 8335POPC   C1A64107  33.809  12.051   6.450
 8335POPC   D2A64108  33.776  12.088   6.750
 8335POPC   C3A64109  33.752  12.125   7.050
 8335POPC   C4A64110  33.841  12.034   7.350
 8335POPC   C1B64111  33.961  11.880   6.450
 8335POPC   C2B64112  34.018  11.943   6.750
 8335POPC   C3B64113  33.946  11.912   7.050
 8335POPC   C4B64114  34.013  11.886   7.350
 8336POPC   NC364115  15.185  16.775   5.550
 8336POPC   PO464116  15.194  16.706   5.850
 8336POPC   GL164117  15.167  16.694   6.150
 8336POPC   GL264118  15.121  16.659   6.150
 8336POPC   C1A64119  15.162  16.718   6.450
 8336POPC   D2A64120  15.147  16.703   6.750
 8336POPC   C3A64121  15.130  16.685   7.050
 8336POPC   C4A64122  15.179  16.696   7.350
 8336POPC   C1B64123  15.003  16.499   6.450
 8336POPC   C2B64124  15.017  16.516   6.750
 8336POPC   C3B64125  15.040  16.509   7.050
 8336POPC   C4B64126  15.045  16.552   7.350
 8337POPC   NC364127  30.689  42.344   5.550
 8337POPC   PO464128  30.710  42.326   5.850
 8337POPC   GL164129  30.677  42.330   6.150
 8337POPC   GL264130  30.806  42.359   6.150
 8337POPC   C1A64131  30.680  42.328   6.450
 8337POPC   D2A64132  30.647  42.327   6.750
 8337POPC   C3A64133  30.687  42.331   7.050
 8337POPC   C4A64134  30.717  42.325   7.350
 8337POPC   C1B64135  30.936  42.239   6.450
 8337POPC   C2B64136  30.985  42.239   6.750
 8337POPC   C3B64137  30.902  42.288   7.050
 8337POPC   C4B64138  30.966  42.335   7.350
 8338POPC   NC364139  39.212  41.545   5.550
 8338POPC   PO464140  39.196  41.530   5.850
 8338POPC   GL164141  39.208  41.570   6.150
 8338POPC   GL264142  39.079  41.555   6.150
 8338POPC   C1A64143  39.275  41.578   6.450
 8338POPC   D2A64144  39.230  41.585   6.750
 8338POPC   C3A64145  39.244  41.545   7.050
 8338POPC   C4A64146  39.184  41.609   7.350
 8338POPC   C1B64147  38.951  41.491   6.450
 8338POPC   C2B64148  39.019  41.481   6.750
 8338POPC   C3B64149  38.969  41.445   7.050
 8338POPC   C4B64150  38.958  41.539   7.350
 8339POPC   NC364151  31.453  22.113   5.550
 8339POPC   PO464152  31.432  22.125   5.850
 8339POPC   GL164153  31.481  22.176   6.150
 8339POPC   GL264154  31.632  22.213   6.150
 8339POPC   C1A64155  31.425  22.146   6.450
 8339POPC   D2A64156  31.477  22.123   6.750
 8339POPC   C3A64157  31.506  22.127   7.050
 8339POPC   C4A64158  31.511  22.129   7.350
 8339POPC   C1B64159  31.725  22.135   6.450
 8339POPC   C2B64160  31.761  22.186   6.750
 8339POPC   C3B64161  31.727  22.174   7.050
 8339POPC   C4B64162  31.684  22.224   7.350
 8340POPC   NC364163  12.821  21.403   5.550
 8340POPC   PO464164  12.882  21.423   5.850
 8340POPC   GL164165  12.883  21.422   6.150
 8340POPC   GL264166  12.987  21.427   6.150
 8340POPC   C1A64167  12.840  21.405   6.450
 8340POPC   D2A64168  12.889  21.400   6.750
 8340POPC   C3A64169  12.839  21.388   7.050
 8340POPC   C4A64170  12.814  21.343   7.350
 8340POPC   C1B64171  13.097  21.493   6.450
 8340POPC   C2B64172  13.073  21.508   6.750
 8340POPC   C3B64173  13.046  21.450   7.050
 8340POPC   C4B64174  13.072  21.439   7.350
 8341POPC   NC364175  14.393  22.182   5.550
 8341POPC   PO464176  14.377  22.113   5.850
 8341POPC   GL164177  14.418  22.152   6.150
 8341POPC   GL264178  14.311  22.246   6.150
 8341POPC   C1A64179  14.378  22.181   6.450
 8341POPC   D2A64180  14.448  22.171   6.750
 8341POPC   C3A64181  14.373  22.121   7.050
 8341POPC   C4A64182  14.356  22.170   7.350
 8341POPC   C1B64183  14.250  22.365   6.450
 8341POPC   C2B64184  14.318  22.383   6.750
 8341POPC   C3B64185  14.277  22.361   7.050
 8341POPC   C4B64186  14.313  22.358   7.350
 8342POPC   NC364187  35.319  11.310   5.550
 8342POPC   PO464188  35.309  11.313   5.850
 8342POPC   GL164189  35.394  11.275   6.150
 8342POPC   GL264190  35.303  11.236   6.150
 8342POPC   C1A64191  35.396  11.272   6.450
 8342POPC   D2A64192  35.398  11.345   6.750
 8342POPC   C3A64193  35.329  11.309   7.050
 8342POPC   C4A64194  35.353  11.347   7.350
 8342POPC   C1B64195  35.192  11.099   6.450
 8342POPC   C2B64196  35.261  11.135   6.750
 8342POPC   C3B64197  35.163  11.052   7.050
 8342POPC   C4B64198  35.247  11.111   7.350
 8343POPC   NC364199  29.097  33.835   5.550
 8343POPC   PO464200  29.140  33.828   5.850
 8343POPC   GL164201  29.172  33.825   6.150
 8343POPC   GL264202  29.075  33.811   6.150
 8343POPC   C1A64203  29.144  33.848   6.450
 8343POPC   D2A64204  29.121  33.785   6.750
 8343POPC   C3A64205  29.113  33.770   7.050
 8343POPC   C4A64206  29.120  33.844   7.350
 8343POPC   C1B64207  28.948  33.884   6.450
 8343POPC   C2B64208  28.930  33.888   6.750
 8343POPC   C3B64209  28.920  33.880   7.050
 8343POPC   C4B64210  28.901  33.940   7.350
 8344POPC   NC364211  16.694  20.600   5.550
 8344POPC   PO464212  16.693  20.620   5.850
 8344POPC   GL164213  16.744  20.567   6.150
 8344POPC   GL264214  16.654  20.566   6.150
 8344POPC   C1A64215  16.724  20.633   6.450
 8344POPC   D2A64216  16.741  20.654   6.750
 8344POPC   C3A64217  16.735  20.603   7.050
 8344POPC   C4A64218  16.753  20.656   7.350
 8344POPC   C1B64219  16.452  20.582   6.450
 8344POPC   C2B64220  16.493  20.613   6.750
 8344POPC   C3B64221  16.513  20.615   7.050
 8344POPC   C4B64222  16.495  20.598   7.350
 8345POPC   NC364223  25.265  17.457   5.550
 8345POPC   PO464224  25.314  17.485   5.850
 8345POPC   GL164225  25.267  17.506   6.150
 8345POPC   GL264226  25.185  17.570   6.150
 8345POPC   C1A64227  25.275  17.481   6.450
 8345POPC   D2A64228  25.252  17.486   6.750
 8345POPC   C3A64229  25.257  17.486   7.050
 8345POPC   C4A64230  25.260  17.519   7.350
 8345POPC   C1B64231  25.064  17.590   6.450
 8345POPC   C2B64232  25.059  17.610   6.750
 8345POPC   C3B64233  25.005  17.600   7.050
 8345POPC   C4B64234  25.018  17.608   7.350
 8346POPC   NC364235   1.959  37.650   5.550
 8346POPC   PO464236   2.005  37.692   5.850
 8346POPC   GL164237   2.013  37.644   6.150
 8346POPC   GL264238   2.001  37.590   6.150
 8346POPC   C1A64239   1.965  37.649   6.450
 8346POPC   D2A64240   1.973  37.654   6.750
 8346POPC   C3A64241   1.983  37.690   7.050
 8346POPC   C4A64242   1.949  37.708   7.350
 8346POPC   C1B64243   2.028  37.381   6.450
 8346POPC   C2B64244   2.057  37.463   6.750
 8346POPC   C3B64245   1.968  37.404   7.050
 8346POPC   C4B64246   2.032  37.400   7.350
 8347POPC   NC364247   5.069  13.671   5.550
 8347POPC   PO464248   5.068  13.599   5.850
 8347POPC   GL164249   5.047  13.614   6.150
 8347POPC   GL264250   5.115  13.745   6.150
 8347POPC   C1A64251   5.072  13.644   6.450
 8347POPC   D2A64252   5.048  13.650   6.750
 8347POPC   C3A64253   5.111  13.609   7.050
 8347POPC   C4A64254   5.116  13.632   7.350
 8347POPC   C1B64255   5.211  13.884   6.450
 8347POPC   C2B64256   5.161  13.903   6.750
 8347POPC   C3B64257   5.229  13.837   7.050
 8347POPC   C4B64258   5.151  13.839   7.350
 8348POPC   NC364259  31.457   7.448   5.550
 8348POPC   PO464260  31.441   7.437   5.850
 8348POPC   GL164261  31.481   7.467   6.150
 8348POPC   GL264262  31.489   7.506   6.150
 8348POPC   C1A64263  31.486   7.423   6.450
 8348POPC   D2A64264  31.517   7.468   6.750
 8348POPC   C3A64265  31.484   7.400   7.050
 8348POPC   C4A64266  31.501   7.380   7.350
 8348POPC   C1B64267  31.420   7.673   6.450
 8348POPC   C2B64268  31.445   7.708   6.750
 8348POPC   C3B64269  31.444   7.628   7.050
 8348POPC   C4B64270  31.423   7.655   7.350
 8349POPC   NC364271  35.352  35.378   5.550
 8349POPC   PO464272  35.324  35.379   5.850
 8349POPC   GL164273  35.309  35.305   6.150
 8349POPC   GL264274  35.290  35.389   6.150
 8349POPC   C1A64275  35.389  35.341   6.450
 8349POPC   D2A64276  35.379  35.345   6.750
 8349POPC   C3A64277  35.396  35.398   7.050
 8349POPC   C4A64278  35.332  35.336   7.350
 8349POPC   C1B64279  35.126  35.478   6.450
 8349POPC   C2B64280  35.151  35.457   6.750
 8349POPC   C3B64281  35.153  35.478   7.050
 8349POPC   C4B64282  35.106  35.446   7.350
 8350POPC   NC364283  22.969  11.300   5.550
 8350POPC   PO464284  22.935  11.296   5.850
 8350POPC   GL164285  22.976  11.254   6.150
 8350POPC   GL264286  22.902  11.401   6.150
 8350POPC   C1A64287  22.915  11.254   6.450
 8350POPC   D2A64288  22.985  11.287   6.750
 8350POPC   C3A64289  22.901  11.283   7.050
 8350POPC   C4A64290  22.980  11.321   7.350
 8350POPC   C1B64291  22.815  11.451   6.450
 8350POPC   C2B64292  22.718  11.474   6.750
 8350POPC   C3B64293  22.788  11.484   7.050
 8350POPC   C4B64294  22.728  11.434   7.350
 8351POPC   NC364295   2.795  34.575   5.550
 8351POPC   PO464296   2.774  34.561   5.850
 8351POPC   GL164297   2.716  34.604   6.150
 8351POPC   GL264298   2.666  34.477   6.150
 8351POPC   C1A64299   2.725  34.594   6.450
 8351POPC   D2A64300   2.719  34.573   6.750
 8351POPC   C3A64301   2.747  34.531   7.050
 8351POPC   C4A64302   2.802  34.610   7.350
 8351POPC   C1B64303   2.646  34.403   6.450
 8351POPC   C2B64304   2.620  34.339   6.750
 8351POPC   C3B64305   2.644  34.325   7.050
 8351POPC   C4B64306   2.618  34.355   7.350
 8352POPC   NC364307  26.780  35.401   5.550
 8352POPC   PO464308  26.811  35.334   5.850
 8352POPC   GL164309  26.842  35.374   6.150
 8352POPC   GL264310  26.695  35.227   6.150
 8352POPC   C1A64311  26.803  35.384   6.450
 8352POPC   D2A64312  26.861  35.309   6.750
 8352POPC   C3A64313  26.773  35.376   7.050
 8352POPC   C4A64314  26.777  35.340   7.350
 8352POPC   C1B64315  26.622  35.198   6.450
 8352POPC   C2B64316  26.625  35.193   6.750
 8352POPC   C3B64317  26.637  35.206   7.050
 8352POPC   C4B64318  26.655  35.141   7.350
 8353POPC   NC364319  17.557  21.395   5.550
 8353POPC   PO464320  17.513  21.362   5.850
 8353POPC   GL164321  17.515  21.367   6.150
 8353POPC   GL264322  17.574  21.317   6.150
 8353POPC   C1A64323  17.504  21.346   6.450
 8353POPC   D2A64324  17.520  21.373   6.750
 8353POPC   C3A64325  17.478  21.343   7.050
 8353POPC   C4A64326  17.526  21.418   7.350
 8353POPC   C1B64327  17.671  21.264   6.450
 8353POPC   C2B64328  17.733  21.256   6.750
 8353POPC   C3B64329  17.732  21.281   7.050
 8353POPC   C4B64330  17.702  21.196   7.350
 8354POPC   NC364331  29.135  16.763   5.550
 8354POPC   PO464332  29.118  16.778   5.850
 8354POPC   GL164333  29.103  16.697   6.150
 8354POPC   GL264334  29.234  16.598   6.150
 8354POPC   C1A64335  29.109  16.739   6.450
 8354POPC   D2A64336  29.158  16.725   6.750
 8354POPC   C3A64337  29.168  16.731   7.050
 8354POPC   C4A64338  29.168  16.757   7.350
 8354POPC   C1B64339  29.296  16.509   6.450
 8354POPC   C2B64340  29.330  16.588   6.750
 8354POPC   C3B64341  29.284  16.568   7.050
 8354POPC   C4B64342  29.278  16.555   7.350
 8355POPC   NC364343  39.234   5.080   5.550
 8355POPC   PO464344  39.232   5.131   5.850
 8355POPC   GL164345  39.247   5.078   6.150
 8355POPC   GL264346  39.170   5.229   6.150
 8355POPC   C1A64347  39.252   5.132   6.450
 8355POPC   D2A64348  39.200   5.064   6.750
 8355POPC   C3A64349  39.250   5.138   7.050
 8355POPC   C4A64350  39.233   5.111   7.350
 8355POPC   C1B64351  39.094   5.360   6.450
 8355POPC   C2B64352  39.092   5.364   6.750
 8355POPC   C3B64353  39.126   5.314   7.050
 8355POPC   C4B64354  39.147   5.326   7.350
 8356POPC   NC364355  39.213   2.722   5.550
 8356POPC   PO464356  39.263   2.751   5.850
 8356POPC   GL164357  39.244   2.795   6.150
 8356POPC   GL264358  39.226   2.909   6.150
 8356POPC   C1A64359  39.204   2.746   6.450
 8356POPC   D2A64360  39.225   2.778   6.750
 8356POPC   C3A64361  39.236   2.808   7.050
 8356POPC   C4A64362  39.236   2.718   7.350
 8356POPC   C1B64363  39.128   3.001   6.450
 8356POPC   C2B64364  39.159   3.032   6.750
 8356POPC   C3B64365  39.129   2.988   7.050
 8356POPC   C4B64366  39.143   2.992   7.350
 8357POPC   NC364367  32.292  19.823   5.550
 8357POPC   PO464368  32.233  19.855   5.850
 8357POPC   GL164369  32.205  19.812   6.150
 8357POPC   GL264370  32.360  19.919   6.150
 8357POPC   C1A64371  32.259  19.813   6.450
 8357POPC   D2A64372  32.264  19.841   6.750
 8357POPC   C3A64373  32.219  19.798   7.050
 8357POPC   C4A64374  32.262  19.788   7.350
 8357POPC   C1B64375  32.365  20.027   6.450
 8357POPC   C2B64376  32.369  19.999   6.750
 8357POPC   C3B64377  32.400  20.055   7.050
 8357POPC   C4B64378  32.401  19.994   7.350
 8358POPC   NC364379   6.668  17.485   5.550
 8358POPC   PO464380   6.686  17.513   5.850
 8358POPC   GL164381   6.621  17.491   6.150
 8358POPC   GL264382   6.643  17.412   6.150
 8358POPC   C1A64383   6.686  17.543   6.450
 8358POPC   D2A64384   6.629  17.509   6.750
 8358POPC   C3A64385   6.630  17.518   7.050
 8358POPC   C4A64386   6.641  17.486   7.350
 8358POPC   C1B64387   6.722  17.249   6.450
 8358POPC   C2B64388   6.724  17.224   6.750
 8358POPC   C3B64389   6.720  17.279   7.050
 8358POPC   C4B64390   6.722  17.264   7.350
 8359POPC   NC364391  34.549   8.200   5.550
 8359POPC   PO464392  34.572   8.174   5.850
 8359POPC   GL164393  34.598   8.169   6.150
 8359POPC   GL264394  34.572   8.078   6.150
 8359POPC   C1A64395  34.528   8.192   6.450
 8359POPC   D2A64396  34.595   8.196   6.750
 8359POPC   C3A64397  34.596   8.192   7.050
 8359POPC   C4A64398  34.586   8.161   7.350
 8359POPC   C1B64399  34.436   7.982   6.450
 8359POPC   C2B64400  34.499   7.970   6.750
 8359POPC   C3B64401  34.478   8.004   7.050
 8359POPC   C4B64402  34.495   7.978   7.350
 8360POPC   NC364403   1.970  33.842   5.550
 8360POPC   PO464404   2.034  33.781   5.850
 8360POPC   GL164405   1.953  33.756   6.150
 8360POPC   GL264406   1.912  33.753   6.150
 8360POPC   C1A64407   1.997  33.831   6.450
 8360POPC   D2A64408   2.015  33.795   6.750
 8360POPC   C3A64409   1.965  33.832   7.050
 8360POPC   C4A64410   1.963  33.826   7.350
 8360POPC   C1B64411   1.767  33.668   6.450
 8360POPC   C2B64412   1.747  33.633   6.750
 8360POPC   C3B64413   1.819  33.652   7.050
 8360POPC   C4B64414   1.775  33.669   7.350
 8361POPC   NC364415  36.943   5.130   5.550
 8361POPC   PO464416  36.926   5.093   5.850
 8361POPC   GL164417  36.864   5.109   6.150
 8361POPC   GL264418  36.850   4.943   6.150
 8361POPC   C1A64419  36.879   5.133   6.450
 8361POPC   D2A64420  36.891   5.119   6.750
 8361POPC   C3A64421  36.936   5.058   7.050
 8361POPC   C4A64422  36.864   5.067   7.350
 8361POPC   C1B64423  36.753   4.842   6.450
 8361POPC   C2B64424  36.843   4.901   6.750
 8361POPC   C3B64425  36.758   4.827   7.050
 8361POPC   C4B64426  36.809   4.909   7.350
 8362POPC   NC364427  34.534  41.601   5.550
 8362POPC   PO464428  34.612  41.532   5.850
 8362POPC   GL164429  34.548  41.533   6.150
 8362POPC   GL264430  34.601  41.670   6.150
 8362POPC   C1A64431  34.531  41.568   6.450
 8362POPC   D2A64432  34.554  41.584   6.750
 8362POPC   C3A64433  34.621  41.547   7.050
 8362POPC   C4A64434  34.573  41.593   7.350
 8362POPC   C1B64435  34.649  41.775   6.450
 8362POPC   C2B64436  34.677  41.808   6.750
 8362POPC   C3B64437  34.610  41.829   7.050
 8362POPC   C4B64438  34.640  41.781   7.350
 8363POPC   NC364439  30.737  26.863   5.550
 8363POPC   PO464440  30.734  26.833   5.850
 8363POPC   GL164441  30.675  26.770   6.150
 8363POPC   GL264442  30.588  26.858   6.150
 8363POPC   C1A64443  30.745  26.856   6.450
 8363POPC   D2A64444  30.660  26.803   6.750
 8363POPC   C3A64445  30.719  26.838   7.050
 8363POPC   C4A64446  30.663  26.854   7.350
 8363POPC   C1B64447  30.472  26.812   6.450
 8363POPC   C2B64448  30.492  26.831   6.750
 8363POPC   C3B64449  30.444  26.880   7.050
 8363POPC   C4B64450  30.450  26.815   7.350
 8364POPC   NC364451  16.727  39.202   5.550
 8364POPC   PO464452  16.734  39.245   5.850
 8364POPC   GL164453  16.752  39.230   6.150
 8364POPC   GL264454  16.712  39.399   6.150
 8364POPC   C1A64455  16.699  39.268   6.450
 8364POPC   D2A64456  16.723  39.188   6.750
 8364POPC   C3A64457  16.778  39.218   7.050
 8364POPC   C4A64458  16.772  39.213   7.350
 8364POPC   C1B64459  16.720  39.430   6.450
 8364POPC   C2B64460  16.803  39.493   6.750
 8364POPC   C3B64461  16.783  39.464   7.050
 8364POPC   C4B64462  16.782  39.517   7.350
 8365POPC   NC364463  43.929  15.962   5.550
 8365POPC   PO464464  43.904  15.980   5.850
 8365POPC   GL164465  43.863  15.946   6.150
 8365POPC   GL264466  43.742  15.973   6.150
 8365POPC   C1A64467  43.925  15.945   6.450
 8365POPC   D2A64468  43.935  15.960   6.750
 8365POPC   C3A64469  43.925  16.001   7.050
 8365POPC   C4A64470  43.856  15.980   7.350
 8365POPC   C1B64471  43.667  16.057   6.450
 8365POPC   C2B64472  43.696  16.096   6.750
 8365POPC   C3B64473  43.686  16.101   7.050
 8365POPC   C4B64474  43.681  16.107   7.350
 8366POPC   NC364475  19.061   0.409   5.550
 8366POPC   PO464476  19.086   0.445   5.850
 8366POPC   GL164477  19.012   0.436   6.150
 8366POPC   GL264478  19.198   0.398   6.150
 8366POPC   C1A64479  19.086   0.405   6.450
 8366POPC   D2A64480  19.089   0.396   6.750
 8366POPC   C3A64481  19.046   0.448   7.050
 8366POPC   C4A64482  19.080   0.418   7.350
 8366POPC   C1B64483  19.305   0.335   6.450
 8366POPC   C2B64484  19.276   0.311   6.750
 8366POPC   C3B64485  19.241   0.291   7.050
 8366POPC   C4B64486  19.258   0.368   7.350
 8367POPC   NC364487  42.356  29.907   5.550
 8367POPC   PO464488  42.344  29.888   5.850
 8367POPC   GL164489  42.328  29.929   6.150
 8367POPC   GL264490  42.195  29.837   6.150
 8367POPC   C1A64491  42.289  29.956   6.450
 8367POPC   D2A64492  42.372  29.969   6.750
 8367POPC   C3A64493  42.375  29.895   7.050
 8367POPC   C4A64494  42.384  29.885   7.350
 8367POPC   C1B64495  42.136  29.774   6.450
 8367POPC   C2B64496  42.066  29.841   6.750
 8367POPC   C3B64497  42.070  29.756   7.050
 8367POPC   C4B64498  42.105  29.814   7.350
 8368POPC   NC364499  15.924  22.945   5.550
 8368POPC   PO464500  16.002  22.942   5.850
 8368POPC   GL164501  15.977  22.944   6.150
 8368POPC   GL264502  15.933  23.022   6.150
 8368POPC   C1A64503  15.917  22.947   6.450
 8368POPC   D2A64504  15.931  22.977   6.750
 8368POPC   C3A64505  15.978  22.916   7.050
 8368POPC   C4A64506  15.983  22.897   7.350
 8368POPC   C1B64507  15.908  23.191   6.450
 8368POPC   C2B64508  15.841  23.206   6.750
 8368POPC   C3B64509  15.845  23.172   7.050
 8368POPC   C4B64510  15.881  23.226   7.350
 8369POPC   NC364511  19.838   1.957   5.550
 8369POPC   PO464512  19.841   2.038   5.850
 8369POPC   GL164513  19.834   1.948   6.150
 8369POPC   GL264514  19.923   1.957   6.150
 8369POPC   C1A64515  19.857   1.959   6.450
 8369POPC   D2A64516  19.861   1.956   6.750
 8369POPC   C3A64517  19.860   1.975   7.050
 8369POPC   C4A64518  19.821   2.013   7.350
 8369POPC   C1B64519  20.027   1.859   6.450
 8369POPC   C2B64520  20.032   1.826   6.750
 8369POPC   C3B64521  20.078   1.892   7.050
 8369POPC   C4B64522  20.009   1.874   7.350
 8370POPC   NC364523  31.428  22.892   5.550
 8370POPC   PO464524  31.502  22.892   5.850
 8370POPC   GL164525  31.485  22.965   6.150
 8370POPC   GL264526  31.396  22.890   6.150
 8370POPC   C1A64527  31.516  22.971   6.450
 8370POPC   D2A64528  31.444  22.955   6.750
 8370POPC   C3A64529  31.504  22.915   7.050
 8370POPC   C4A64530  31.437  22.906   7.350
 8370POPC   C1B64531  31.349  22.730   6.450
 8370POPC   C2B64532  31.327  22.705   6.750
 8370POPC   C3B64533  31.338  22.708   7.050
 8370POPC   C4B64534  31.310  22.709   7.350
 8371POPC   NC364535   7.399  34.571   5.550
 8371POPC   PO464536   7.445  34.576   5.850
 8371POPC   GL164537   7.414  34.536   6.150
 8371POPC   GL264538   7.348  34.652   6.150
 8371POPC   C1A64539   7.378  34.573   6.450
 8371POPC   D2A64540   7.419  34.589   6.750
 8371POPC   C3A64541   7.460  34.545   7.050
 8371POPC   C4A64542   7.417  34.594   7.350
 8371POPC   C1B64543   7.227  34.705   6.450
 8371POPC   C2B64544   7.271  34.787   6.750
 8371POPC   C3B64545   7.215  34.742   7.050
 8371POPC   C4B64546   7.237  34.733   7.350
 8372POPC   NC364547   8.149   8.243   5.550
 8372POPC   PO464548   8.170   8.151   5.850
 8372POPC   GL164549   8.214   8.221   6.150
 8372POPC   GL264550   8.103   8.259   6.150
 8372POPC   C1A64551   8.172   8.154   6.450
 8372POPC   D2A64552   8.230   8.207   6.750
 8372POPC   C3A64553   8.169   8.190   7.050
 8372POPC   C4A64554   8.239   8.205   7.350
 8372POPC   C1B64555   8.018   8.408   6.450
 8372POPC   C2B64556   7.990   8.393   6.750
 8372POPC   C3B64557   8.086   8.395   7.050
 8372POPC   C4B64558   7.999   8.395   7.350
 8373POPC   NC364559  37.635  40.032   5.550
 8373POPC   PO464560  37.714  39.988   5.850
 8373POPC   GL164561  37.718  40.033   6.150
 8373POPC   GL264562  37.737  39.873   6.150
 8373POPC   C1A64563  37.710  40.021   6.450
 8373POPC   D2A64564  37.670  39.995   6.750
 8373POPC   C3A64565  37.642  39.969   7.050
 8373POPC   C4A64566  37.707  40.010   7.350
 8373POPC   C1B64567  37.800  39.755   6.450
 8373POPC   C2B64568  37.742  39.788   6.750
 8373POPC   C3B64569  37.796  39.790   7.050
 8373POPC   C4B64570  37.803  39.759   7.350
 8374POPC   NC364571  27.634  15.988   5.550
 8374POPC   PO464572  27.593  15.940   5.850
 8374POPC   GL164573  27.588  15.937   6.150
 8374POPC   GL264574  27.665  15.844   6.150
 8374POPC   C1A64575  27.591  15.947   6.450
 8374POPC   D2A64576  27.596  15.984   6.750
 8374POPC   C3A64577  27.613  15.988   7.050
 8374POPC   C4A64578  27.570  15.956   7.350
 8374POPC   C1B64579  27.767  15.807   6.450
 8374POPC   C2B64580  27.845  15.783   6.750
 8374POPC   C3B64581  27.765  15.774   7.050
 8374POPC   C4B64582  27.840  15.858   7.350
 8375POPC   NC364583  12.842  36.169   5.550
 8375POPC   PO464584  12.821  36.085   5.850
 8375POPC   GL164585  12.900  36.104   6.150
 8375POPC   GL264586  12.834  36.256   6.150
 8375POPC   C1A64587  12.825  36.115   6.450
 8375POPC   D2A64588  12.833  36.079   6.750
 8375POPC   C3A64589  12.892  36.156   7.050
 8375POPC   C4A64590  12.826  36.151   7.350
 8375POPC   C1B64591  12.864  36.331   6.450
 8375POPC   C2B64592  12.819  36.407   6.750
 8375POPC   C3B64593  12.790  36.409   7.050
 8375POPC   C4B64594  12.798  36.420   7.350
 8376POPC   NC364595  10.497  17.484   5.550
 8376POPC   PO464596  10.504  17.510   5.850
 8376POPC   GL164597  10.559  17.504   6.150
 8376POPC   GL264598  10.603  17.499   6.150
 8376POPC   C1A64599  10.559  17.515   6.450
 8376POPC   D2A64600  10.519  17.539   6.750
 8376POPC   C3A64601  10.508  17.476   7.050
 8376POPC   C4A64602  10.508  17.495   7.350
 8376POPC   C1B64603  10.795  17.373   6.450
 8376POPC   C2B64604  10.739  17.445   6.750
 8376POPC   C3B64605  10.785  17.449   7.050
 8376POPC   C4B64606  10.740  17.441   7.350
 8377POPC   NC364607  29.173  23.672   5.550
 8377POPC   PO464608  29.106  23.714   5.850
 8377POPC   GL164609  29.187  23.743   6.150
 8377POPC   GL264610  29.017  23.621   6.150
 8377POPC   C1A64611  29.107  23.729   6.450
 8377POPC   D2A64612  29.117  23.739   6.750
 8377POPC   C3A64613  29.184  23.756   7.050
 8377POPC   C4A64614  29.108  23.680   7.350
 8377POPC   C1B64615  28.952  23.500   6.450
 8377POPC   C2B64616  28.990  23.527   6.750
 8377POPC   C3B64617  29.006  23.478   7.050
 8377POPC   C4B64618  28.967  23.532   7.350
 8378POPC   NC364619  19.826   5.861   5.550
 8378POPC   PO464620  19.785   5.916   5.850
 8378POPC   GL164621  19.818   5.860   6.150
 8378POPC   GL264622  19.754   5.846   6.150
 8378POPC   C1A64623  19.812   5.892   6.450
 8378POPC   D2A64624  19.866   5.825   6.750
 8378POPC   C3A64625  19.836   5.879   7.050
 8378POPC   C4A64626  19.838   5.839   7.350
 8378POPC   C1B64627  19.579   5.832   6.450
 8378POPC   C2B64628  19.577   5.805   6.750
 8378POPC   C3B64629  19.541   5.833   7.050
 8378POPC   C4B64630  19.626   5.803   7.350
 8379POPC   NC364631  44.615  28.355   5.550
 8379POPC   PO464632  44.632  28.384   5.850
 8379POPC   GL164633  44.654  28.346   6.150
 8379POPC   GL264634  44.743  28.250   6.150
 8379POPC   C1A64635  44.646  28.389   6.450
 8379POPC   D2A64636  44.702  28.327   6.750
 8379POPC   C3A64637  44.694  28.343   7.050
 8379POPC   C4A64638  44.706  28.325   7.350
 8379POPC   C1B64639  44.869  28.152   6.450
 8379POPC   C2B64640  44.865  28.199   6.750
 8379POPC   C3B64641  44.839  28.226   7.050
 8379POPC   C4B64642  44.791  28.162   7.350
 8380POPC   NC364643  33.010  30.689   5.550
 8380POPC   PO464644  33.003  30.735   5.850
 8380POPC   GL164645  33.017  30.726   6.150
 8380POPC   GL264646  33.190  30.618   6.150
 8380POPC   C1A64647  33.052  30.708   6.450
 8380POPC   D2A64648  33.011  30.700   6.750
 8380POPC   C3A64649  32.984  30.686   7.050
 8380POPC   C4A64650  32.994  30.659   7.350
 8380POPC   C1B64651  33.226  30.575   6.450
 8380POPC   C2B64652  33.297  30.603   6.750
 8380POPC   C3B64653  33.239  30.575   7.050
 8380POPC   C4B64654  33.276  30.620   7.350
 8381POPC   NC364655  42.291   5.112   5.550
 8381POPC   PO464656  42.306   5.140   5.850
 8381POPC   GL164657  42.358   5.088   6.150
 8381POPC   GL264658  42.305   5.229   6.150
 8381POPC   C1A64659  42.354   5.065   6.450
 8381POPC   D2A64660  42.287   5.054   6.750
 8381POPC   C3A64661  42.377   5.081   7.050
 8381POPC   C4A64662  42.366   5.119   7.350
 8381POPC   C1B64663  42.302   5.373   6.450
 8381POPC   C2B64664  42.343   5.371   6.750
 8381POPC   C3B64665  42.354   5.316   7.050
 8381POPC   C4B64666  42.321   5.307   7.350
 8382POPC   NC364667  16.736   2.802   5.550
 8382POPC   PO464668  16.691   2.742   5.850
 8382POPC   GL164669  16.717   2.729   6.150
 8382POPC   GL264670  16.866   2.705   6.150
 8382POPC   C1A64671  16.759   2.806   6.450
 8382POPC   D2A64672  16.739   2.788   6.750
 8382POPC   C3A64673  16.684   2.799   7.050
 8382POPC   C4A64674  16.763   2.807   7.350
 8382POPC   C1B64675  16.914   2.640   6.450
 8382POPC   C2B64676  16.949   2.652   6.750
 8382POPC   C3B64677  16.972   2.609   7.050
 8382POPC   C4B64678  16.963   2.689   7.350
 8383POPC   NC364679  11.349  22.921   5.550
 8383POPC   PO464680  11.293  22.973   5.850
 8383POPC   GL164681  11.253  22.968   6.150
 8383POPC   GL264682  11.178  22.991   6.150
 8383POPC   C1A64683  11.265  22.968   6.450
 8383POPC   D2A64684  11.289  22.919   6.750
 8383POPC   C3A64685  11.327  22.958   7.050
 8383POPC   C4A64686  11.253  22.915   7.350
 8383POPC   C1B64687  11.045  22.907   6.450
 8383POPC   C2B64688  11.064  22.946   6.750
 8383POPC   C3B64689  11.038  22.914   7.050
 8383POPC   C4B64690  11.003  22.982   7.350
 8384POPC   NC364691  36.918  36.084   5.550
 8384POPC   PO464692  36.948  36.100   5.850
 8384POPC   GL164693  36.886  36.126   6.150
 8384POPC   GL264694  37.033  36.213   6.150
 8384POPC   C1A64695  36.896  36.092   6.450
 8384POPC   D2A64696  36.930  36.078   6.750
 8384POPC   C3A64697  36.927  36.122   7.050
 8384POPC   C4A64698  36.905  36.113   7.350
 8384POPC   C1B64699  37.098  36.335   6.450
 8384POPC   C2B64700  37.057  36.260   6.750
 8384POPC   C3B64701  37.126  36.316   7.050
 8384POPC   C4B64702  37.086  36.341   7.350
 8385POPC   NC364703  10.543  39.964   5.550
 8385POPC   PO464704  10.493  40.018   5.850
 8385POPC   GL164705  10.548  39.996   6.150
 8385POPC   GL264706  10.676  40.070   6.150
 8385POPC   C1A64707  10.484  39.986   6.450
 8385POPC   D2A64708  10.543  40.008   6.750
 8385POPC   C3A64709  10.531  39.960   7.050
 8385POPC   C4A64710  10.490  39.976   7.350
 8385POPC   C1B64711  10.796  40.128   6.450
 8385POPC   C2B64712  10.726  40.112   6.750
 8385POPC   C3B64713  10.749  40.041   7.050
 8385POPC   C4B64714  10.797  40.099   7.350
 8386POPC   NC364715  33.036  26.010   5.550
 8386POPC   PO464716  33.006  25.997   5.850
 8386POPC   GL164717  33.007  26.028   6.150
 8386POPC   GL264718  33.032  25.913   6.150
 8386POPC   C1A64719  33.065  25.992   6.450
 8386POPC   D2A64720  33.004  26.027   6.750
 8386POPC   C3A64721  32.979  26.039   7.050
 8386POPC   C4A64722  33.006  26.025   7.350
 8386POPC   C1B64723  33.066  25.770   6.450
 8386POPC   C2B64724  33.068  25.834   6.750
 8386POPC   C3B64725  33.098  25.772   7.050
 8386POPC   C4B64726  33.035  25.772   7.350
 8387POPC   NC364727  44.677  41.579   5.550
 8387POPC   PO464728  44.660  41.524   5.850
 8387POPC   GL164729  44.655  41.552   6.150
 8387POPC   GL264730  44.759  41.537   6.150
 8387POPC   C1A64731  44.700  41.590   6.450
 8387POPC   D2A64732  44.652  41.525   6.750
 8387POPC   C3A64733  44.694  41.541   7.050
 8387POPC   C4A64734  44.693  41.509   7.350
 8387POPC   C1B64735  44.946  41.475   6.450
 8387POPC   C2B64736  44.923  41.537   6.750
 8387POPC   C3B64737  44.922  41.532   7.050
 8387POPC   C4B64738  44.884  41.529   7.350
 8388POPC   NC364739  10.510   9.796   5.550
 8388POPC   PO464740  10.536   9.742   5.850
 8388POPC   GL164741  10.477   9.699   6.150
 8388POPC   GL264742  10.475   9.623   6.150
 8388POPC   C1A64743  10.567   9.757   6.450
 8388POPC   D2A64744  10.519   9.735   6.750
 8388POPC   C3A64745  10.499   9.745   7.050
 8388POPC   C4A64746  10.566   9.748   7.350
 8388POPC   C1B64747  10.469   9.511   6.450
 8388POPC   C2B64748  10.512   9.516   6.750
 8388POPC   C3B64749  10.435   9.467   7.050
 8388POPC   C4B64750  10.452   9.465   7.350
 8389POPC   NC364751   8.925  38.447   5.550
 8389POPC   PO464752   8.923  38.494   5.850
 8389POPC   GL164753   9.007  38.407   6.150
 8389POPC   GL264754   8.864  38.394   6.150
 8389POPC   C1A64755   8.978  38.484   6.450
 8389POPC   D2A64756   8.961  38.505   6.750
 8389POPC   C3A64757   9.021  38.408   7.050
 8389POPC   C4A64758   8.945  38.474   7.350
 8389POPC   C1B64759   8.814  38.257   6.450
 8389POPC   C2B64760   8.803  38.279   6.750
 8389POPC   C3B64761   8.784  38.298   7.050
 8389POPC   C4B64762   8.754  38.238   7.350
 8390POPC   NC364763   3.523  29.937   5.550
 8390POPC   PO464764   3.506  29.963   5.850
 8390POPC   GL164765   3.522  29.916   6.150
 8390POPC   GL264766   3.489  29.971   6.150
 8390POPC   C1A64767   3.577  29.904   6.450
 8390POPC   D2A64768   3.549  29.928   6.750
 8390POPC   C3A64769   3.566  29.905   7.050
 8390POPC   C4A64770   3.498  29.948   7.350
 8390POPC   C1B64771   3.298  30.113   6.450
 8390POPC   C2B64772   3.330  30.028   6.750
 8390POPC   C3B64773   3.394  30.095   7.050
 8390POPC   C4B64774   3.338  30.036   7.350
 8391POPC   NC364775  43.097   8.946   5.550
 8391POPC   PO464776  43.145   8.977   5.850
 8391POPC   GL164777  43.121   8.955   6.150
 8391POPC   GL264778  42.982   9.053   6.150
 8391POPC   C1A64779  43.106   8.997   6.450
 8391POPC   D2A64780  43.106   9.018   6.750
 8391POPC   C3A64781  43.092   8.977   7.050
 8391POPC   C4A64782  43.086   8.973   7.350
 8391POPC   C1B64783  42.905   9.161   6.450
 8391POPC   C2B64784  42.889   9.127   6.750
 8391POPC   C3B64785  42.930   9.089   7.050
 8391POPC   C4B64786  42.930   9.129   7.350
 8392POPC   NC364787  10.513  13.596   5.550
 8392POPC   PO464788  10.563  13.670   5.850
 8392POPC   GL164789  10.558  13.627   6.150
 8392POPC   GL264790  10.619  13.655   6.150
 8392POPC   C1A64791  10.530  13.633   6.450
 8392POPC   D2A64792  10.560  13.670   6.750
 8392POPC   C3A64793  10.485  13.583   7.050
 8392POPC   C4A64794  10.561  13.644   7.350
 8392POPC   C1B64795  10.735  13.706   6.450
 8392POPC   C2B64796  10.803  13.673   6.750
 8392POPC   C3B64797  10.795  13.734   7.050
 8392POPC   C4B64798  10.784  13.673   7.350
 8393POPC   NC364799  30.652  39.993   5.550
 8393POPC   PO464800  30.743  40.016   5.850
 8393POPC   GL164801  30.705  40.001   6.150
 8393POPC   GL264802  30.632  39.911   6.150
 8393POPC   C1A64803  30.666  40.000   6.450
 8393POPC   D2A64804  30.714  39.968   6.750
 8393POPC   C3A64805  30.736  39.982   7.050
 8393POPC   C4A64806  30.742  39.978   7.350
 8393POPC   C1B64807  30.473  39.806   6.450
 8393POPC   C2B64808  30.542  39.821   6.750
 8393POPC   C3B64809  30.461  39.839   7.050
 8393POPC   C4B64810  30.520  39.899   7.350
 8394POPC   NC364811   3.501   8.956   5.550
 8394POPC   PO464812   3.503   8.999   5.850
 8394POPC   GL164813   3.524   8.947   6.150
 8394POPC   GL264814   3.640   9.027   6.150
 8394POPC   C1A64815   3.571   8.975   6.450
 8394POPC   D2A64816   3.509   8.983   6.750
 8394POPC   C3A64817   3.499   8.944   7.050
 8394POPC   C4A64818   3.576   8.959   7.350
 8394POPC   C1B64819   3.746   9.074   6.450
 8394POPC   C2B64820   3.761   9.123   6.750
 8394POPC   C3B64821   3.760   9.046   7.050
 8394POPC   C4B64822   3.795   9.122   7.350
 8395POPC   NC364823  26.038  19.876   5.550
 8395POPC   PO464824  26.001  19.861   5.850
 8395POPC   GL164825  26.033  19.815   6.150
 8395POPC   GL264826  26.209  19.772   6.150
 8395POPC   C1A64827  26.071  19.846   6.450
 8395POPC   D2A64828  26.033  19.882   6.750
 8395POPC   C3A64829  25.992  19.788   7.050
 8395POPC   C4A64830  26.051  19.810   7.350
 8395POPC   C1B64831  26.277  19.763   6.450
 8395POPC   C2B64832  26.303  19.745   6.750
 8395POPC   C3B64833  26.280  19.770   7.050
 8395POPC   C4B64834  26.258  19.737   7.350
 8396POPC   NC364835  32.987   9.788   5.550
 8396POPC   PO464836  33.027   9.761   5.850
 8396POPC   GL164837  33.008   9.791   6.150
 8396POPC   GL264838  33.122   9.647   6.150
 8396POPC   C1A64839  33.031   9.752   6.450
 8396POPC   D2A64840  33.035   9.778   6.750
 8396POPC   C3A64841  33.001   9.765   7.050
 8396POPC   C4A64842  33.072   9.740   7.350
 8396POPC   C1B64843  33.202   9.506   6.450
 8396POPC   C2B64844  33.156   9.549   6.750
 8396POPC   C3B64845  33.149   9.588   7.050
 8396POPC   C4B64846  33.137   9.531   7.350
 8397POPC   NC364847  28.357  18.290   5.550
 8397POPC   PO464848  28.351  18.264   5.850
 8397POPC   GL164849  28.366  18.294   6.150
 8397POPC   GL264850  28.327  18.152   6.150
 8397POPC   C1A64851  28.356  18.235   6.450
 8397POPC   D2A64852  28.357  18.332   6.750
 8397POPC   C3A64853  28.359  18.313   7.050
 8397POPC   C4A64854  28.418  18.315   7.350
 8397POPC   C1B64855  28.228  18.039   6.450
 8397POPC   C2B64856  28.182  18.095   6.750
 8397POPC   C3B64857  28.212  18.102   7.050
 8397POPC   C4B64858  28.255  18.121   7.350
 8398POPC   NC364859  17.523  11.340   5.550
 8398POPC   PO464860  17.544  11.280   5.850
 8398POPC   GL164861  17.502  11.326   6.150
 8398POPC   GL264862  17.560  11.393   6.150
 8398POPC   C1A64863  17.501  11.325   6.450
 8398POPC   D2A64864  17.489  11.307   6.750
 8398POPC   C3A64865  17.476  11.314   7.050
 8398POPC   C4A64866  17.466  11.268   7.350
 8398POPC   C1B64867  17.582  11.492   6.450
 8398POPC   C2B64868  17.646  11.563   6.750
 8398POPC   C3B64869  17.657  11.475   7.050
 8398POPC   C4B64870  17.655  11.512   7.350
 8399POPC   NC364871  12.031  27.562   5.550
 8399POPC   PO464872  12.100  27.549   5.850
 8399POPC   GL164873  12.044  27.563   6.150
 8399POPC   GL264874  12.175  27.632   6.150
 8399POPC   C1A64875  12.091  27.609   6.450
 8399POPC   D2A64876  12.060  27.618   6.750
 8399POPC   C3A64877  12.120  27.558   7.050
 8399POPC   C4A64878  12.047  27.584   7.350
 8399POPC   C1B64879  12.363  27.558   6.450
 8399POPC   C2B64880  12.294  27.583   6.750
 8399POPC   C3B64881  12.327  27.636   7.050
 8399POPC   C4B64882  12.373  27.615   7.350
 8400POPC   NC364883   8.245   5.139   5.550
 8400POPC   PO464884   8.244   5.129   5.850
 8400POPC   GL164885   8.198   5.078   6.150
 8400POPC   GL264886   8.088   5.111   6.150
 8400POPC   C1A64887   8.152   5.082   6.450
 8400POPC   D2A64888   8.193   5.092   6.750
 8400POPC   C3A64889   8.228   5.100   7.050
 8400POPC   C4A64890   8.177   5.068   7.350
 8400POPC   C1B64891   7.914   5.177   6.450
 8400POPC   C2B64892   7.916   5.109   6.750
 8400POPC   C3B64893   7.984   5.156   7.050
 8400POPC   C4B64894   7.977   5.199   7.350
 8401POPC   NC364895  39.208  35.385   5.550
 8401POPC   PO464896  39.260  35.344   5.850
 8401POPC   GL164897  39.262  35.348   6.150
 8401POPC   GL264898  39.065  35.322   6.150
 8401POPC   C1A64899  39.241  35.304   6.450
 8401POPC   D2A64900  39.229  35.315   6.750
 8401POPC   C3A64901  39.242  35.381   7.050
 8401POPC   C4A64902  39.279  35.342   7.350
 8401POPC   C1B64903  39.012  35.349   6.450
 8401POPC   C2B64904  38.961  35.333   6.750
 8401POPC   C3B64905  38.987  35.376   7.050
 8401POPC   C4B64906  38.950  35.341   7.350
 8402POPC   NC364907  28.326  37.694   5.550
 8402POPC   PO464908  28.328  37.716   5.850
 8402POPC   GL164909  28.388  37.662   6.150
 8402POPC   GL264910  28.486  37.573   6.150
 8402POPC   C1A64911  28.360  37.657   6.450
 8402POPC   D2A64912  28.391  37.655   6.750
 8402POPC   C3A64913  28.385  37.715   7.050
 8402POPC   C4A64914  28.345  37.673   7.350
 8402POPC   C1B64915  28.561  37.534   6.450
 8402POPC   C2B64916  28.552  37.595   6.750
 8402POPC   C3B64917  28.569  37.582   7.050
 8402POPC   C4B64918  28.567  37.583   7.350
 8403POPC   NC364919  19.808   1.258   5.550
 8403POPC   PO464920  19.842   1.216   5.850
 8403POPC   GL164921  19.799   1.250   6.150
 8403POPC   GL264922  19.993   1.248   6.150
 8403POPC   C1A64923  19.846   1.166   6.450
 8403POPC   D2A64924  19.802   1.197   6.750
 8403POPC   C3A64925  19.836   1.206   7.050
 8403POPC   C4A64926  19.880   1.205   7.350
 8403POPC   C1B64927  20.114   1.271   6.450
 8403POPC   C2B64928  20.032   1.277   6.750
 8403POPC   C3B64929  20.092   1.296   7.050
 8403POPC   C4B64930  20.101   1.242   7.350
 8404POPC   NC364931   2.007  36.866   5.550
 8404POPC   PO464932   1.984  36.939   5.850
 8404POPC   GL164933   1.996  36.948   6.150
 8404POPC   GL264934   1.865  37.016   6.150
 8404POPC   C1A64935   1.961  36.897   6.450
 8404POPC   D2A64936   1.989  36.928   6.750
 8404POPC   C3A64937   1.942  36.953   7.050
 8404POPC   C4A64938   2.034  36.902   7.350
 8404POPC   C1B64939   1.747  37.048   6.450
 8404POPC   C2B64940   1.793  37.061   6.750
 8404POPC   C3B64941   1.762  37.012   7.050
 8404POPC   C4B64942   1.813  37.022   7.350
 8405POPC   NC364943  38.433  26.068   5.550
 8405POPC   PO464944  38.473  25.997   5.850
 8405POPC   GL164945  38.467  25.996   6.150
 8405POPC   GL264946  38.394  25.920   6.150
 8405POPC   C1A64947  38.450  26.056   6.450
 8405POPC   D2A64948  38.487  26.057   6.750
 8405POPC   C3A64949  38.477  26.034   7.050
 8405POPC   C4A64950  38.453  26.024   7.350
 8405POPC   C1B64951  38.398  25.779   6.450
 8405POPC   C2B64952  38.367  25.775   6.750
 8405POPC   C3B64953  38.365  25.774   7.050
 8405POPC   C4B64954  38.417  25.819   7.350
 8406POPC   NC364955  32.218  13.605   5.550
 8406POPC   PO464956  32.258  13.654   5.850
 8406POPC   GL164957  32.198  13.601   6.150
 8406POPC   GL264958  32.366  13.648   6.150
 8406POPC   C1A64959  32.218  13.648   6.450
 8406POPC   D2A64960  32.201  13.594   6.750
 8406POPC   C3A64961  32.276  13.614   7.050
 8406POPC   C4A64962  32.268  13.637   7.350
 8406POPC   C1B64963  32.423  13.761   6.450
 8406POPC   C2B64964  32.514  13.785   6.750
 8406POPC   C3B64965  32.426  13.707   7.050
 8406POPC   C4B64966  32.456  13.773   7.350
 8407POPC   NC364967  20.608  18.254   5.550
 8407POPC   PO464968  20.561  18.295   5.850
 8407POPC   GL164969  20.583  18.299   6.150
 8407POPC   GL264970  20.584  18.432   6.150
 8407POPC   C1A64971  20.627  18.263   6.450
 8407POPC   D2A64972  20.600  18.254   6.750
 8407POPC   C3A64973  20.591  18.316   7.050
 8407POPC   C4A64974  20.602  18.327   7.350
 8407POPC   C1B64975  20.571  18.543   6.450
 8407POPC   C2B64976  20.621  18.499   6.750
 8407POPC   C3B64977  20.616  18.535   7.050
 8407POPC   C4B64978  20.586  18.560   7.350
 8408POPC   NC364979  36.914  22.891   5.550
 8408POPC   PO464980  36.862  22.984   5.850
 8408POPC   GL164981  36.943  22.968   6.150
 8408POPC   GL264982  37.020  22.794   6.150
 8408POPC   C1A64983  36.941  22.929   6.450
 8408POPC   D2A64984  36.858  22.951   6.750
 8408POPC   C3A64985  36.885  22.940   7.050
 8408POPC   C4A64986  36.919  22.981   7.350
 8408POPC   C1B64987  37.072  22.767   6.450
 8408POPC   C2B64988  37.034  22.758   6.750
 8408POPC   C3B64989  37.087  22.683   7.050
 8408POPC   C4B64990  37.037  22.704   7.350
 8409POPC   NC364991  16.732  31.513   5.550
 8409POPC   PO464992  16.767  31.430   5.850
 8409POPC   GL164993  16.717  31.449   6.150
 8409POPC   GL264994  16.675  31.499   6.150
 8409POPC   C1A64995  16.723  31.426   6.450
 8409POPC   D2A64996  16.706  31.494   6.750
 8409POPC   C3A64997  16.693  31.487   7.050
 8409POPC   C4A64998  16.749  31.486   7.350
 8409POPC   C1B64999  16.564  31.575   6.450
 8409POPC   C2B65000  16.563  31.648   6.750
 8409POPC   C3B65001  16.553  31.610   7.050
 8409POPC   C4B65002  16.550  31.590   7.350
 8410POPC   NC365003  30.701  36.171   5.550
 8410POPC   PO465004  30.654  36.079   5.850
 8410POPC   GL165005  30.663  36.142   6.150
 8410POPC   GL265006  30.794  36.177   6.150
 8410POPC   C1A65007  30.670  36.135   6.450
 8410POPC   D2A65008  30.704  36.112   6.750
 8410POPC   C3A65009  30.651  36.158   7.050
 8410POPC   C4A65010  30.697  36.086   7.350
 8410POPC   C1B65011  30.910  36.240   6.450
 8410POPC   C2B65012  30.907  36.295   6.750
 8410POPC   C3B65013  30.957  36.280   7.050
 8410POPC   C4B65014  30.869  36.293   7.350
 8411POPC   NC365015  32.978  40.824   5.550
 8411POPC   PO465016  33.023  40.832   5.850
 8411POPC   GL165017  33.000  40.824   6.150
 8411POPC   GL265018  32.953  40.679   6.150
 8411POPC   C1A65019  33.017  40.771   6.450
 8411POPC   D2A65020  33.017  40.753   6.750
 8411POPC   C3A65021  33.067  40.825   7.050
 8411POPC   C4A65022  33.068  40.773   7.350
 8411POPC   C1B65023  32.978  40.520   6.450
 8411POPC   C2B65024  32.928  40.557   6.750
 8411POPC   C3B65025  32.989  40.583   7.050
 8411POPC   C4B65026  32.962  40.505   7.350
 8412POPC   NC365027  27.547  40.793   5.550
 8412POPC   PO465028  27.598  40.776   5.850
 8412POPC   GL165029  27.623  40.832   6.150
 8412POPC   GL265030  27.491  40.771   6.150
 8412POPC   C1A65031  27.561  40.793   6.450
 8412POPC   D2A65032  27.563  40.823   6.750
 8412POPC   C3A65033  27.597  40.801   7.050
 8412POPC   C4A65034  27.630  40.756   7.350
 8412POPC   C1B65035  27.335  40.875   6.450
 8412POPC   C2B65036  27.309  40.841   6.750
 8412POPC   C3B65037  27.336  40.820   7.050
 8412POPC   C4B65038  27.338  40.833   7.350
 8413POPC   NC365039  17.484  32.275   5.550
 8413POPC   PO465040  17.485  32.231   5.850
 8413POPC   GL165041  17.463  32.281   6.150
 8413POPC   GL265042  17.648  32.172   6.150
 8413POPC   C1A65043  17.464  32.240   6.450
 8413POPC   D2A65044  17.477  32.298   6.750
 8413POPC   C3A65045  17.527  32.259   7.050
 8413POPC   C4A65046  17.504  32.271   7.350
 8413POPC   C1B65047  17.688  32.118   6.450
 8413POPC   C2B65048  17.651  32.127   6.750
 8413POPC   C3B65049  17.668  32.093   7.050
 8413POPC   C4B65050  17.704  32.127   7.350
 8414POPC   NC365051  19.063  40.824   5.550
 8414POPC   PO465052  19.061  40.747   5.850
 8414POPC   GL165053  19.090  40.742   6.150
 8414POPC   GL265054  19.198  40.853   6.150
 8414POPC   C1A65055  19.070  40.758   6.450
 8414POPC   D2A65056  19.087  40.795   6.750
 8414POPC   C3A65057  19.107  40.815   7.050
 8414POPC   C4A65058  19.044  40.774   7.350
 8414POPC   C1B65059  19.313  40.934   6.450
 8414POPC   C2B65060  19.288  40.903   6.750
 8414POPC   C3B65061  19.271  40.887   7.050
 8414POPC   C4B65062  19.235  40.916   7.350
 8415POPC   NC365063  43.137   7.436   5.550
 8415POPC   PO465064  43.133   7.387   5.850
 8415POPC   GL165065  43.120   7.375   6.150
 8415POPC   GL265066  43.121   7.325   6.150
 8415POPC   C1A65067  43.128   7.445   6.450
 8415POPC   D2A65068  43.122   7.371   6.750
 8415POPC   C3A65069  43.068   7.391   7.050
 8415POPC   C4A65070  43.147   7.422   7.350
 8415POPC   C1B65071  43.239   7.215   6.450
 8415POPC   C2B65072  43.207   7.203   6.750
 8415POPC   C3B65073  43.251   7.205   7.050
 8415POPC   C4B65074  43.184   7.215   7.350
 8416POPC   NC365075  22.148  34.620   5.550
 8416POPC   PO465076  22.125  34.582   5.850
 8416POPC   GL165077  22.149  34.619   6.150
 8416POPC   GL265078  22.128  34.692   6.150
 8416POPC   C1A65079  22.187  34.533   6.450
 8416POPC   D2A65080  22.196  34.531   6.750
 8416POPC   C3A65081  22.202  34.609   7.050
 8416POPC   C4A65082  22.127  34.557   7.350
 8416POPC   C1B65083  22.023  34.760   6.450
 8416POPC   C2B65084  22.042  34.810   6.750
 8416POPC   C3B65085  22.004  34.826   7.050
 8416POPC   C4B65086  22.009  34.754   7.350
 8417POPC   NC365087  36.128  41.524   5.550
 8417POPC   PO465088  36.096  41.543   5.850
 8417POPC   GL165089  36.139  41.563   6.150
 8417POPC   GL265090  36.254  41.529   6.150
 8417POPC   C1A65091  36.132  41.521   6.450
 8417POPC   D2A65092  36.081  41.538   6.750
 8417POPC   C3A65093  36.169  41.587   7.050
 8417POPC   C4A65094  36.138  41.530   7.350
 8417POPC   C1B65095  36.368  41.415   6.450
 8417POPC   C2B65096  36.375  41.415   6.750
 8417POPC   C3B65097  36.334  41.411   7.050
 8417POPC   C4B65098  36.355  41.458   7.350
 8418POPC   NC365099  36.098   1.215   5.550
 8418POPC   PO465100  36.081   1.222   5.850
 8418POPC   GL165101  36.092   1.165   6.150
 8418POPC   GL265102  36.249   1.177   6.150
 8418POPC   C1A65103  36.095   1.242   6.450
 8418POPC   D2A65104  36.149   1.175   6.750
 8418POPC   C3A65105  36.153   1.241   7.050
 8418POPC   C4A65106  36.105   1.197   7.350
 8418POPC   C1B65107  36.390   1.147   6.450
 8418POPC   C2B65108  36.363   1.153   6.750
 8418POPC   C3B65109  36.391   1.184   7.050
 8418POPC   C4B65110  36.388   1.246   7.350
 8419POPC   NC365111  15.138  20.570   5.550
 8419POPC   PO465112  15.205  20.606   5.850
 8419POPC   GL165113  15.187  20.571   6.150
 8419POPC   GL265114  15.227  20.506   6.150
 8419POPC   C1A65115  15.137  20.650   6.450
 8419POPC   D2A65116  15.197  20.615   6.750
 8419POPC   C3A65117  15.145  20.640   7.050
 8419POPC   C4A65118  15.216  20.623   7.350
 8419POPC   C1B65119  15.340  20.426   6.450
 8419POPC   C2B65120  15.340  20.474   6.750
 8419POPC   C3B65121  15.407  20.398   7.050
 8419POPC   C4B65122  15.404  20.457   7.350
 8420POPC   NC365123   8.976   8.960   5.550
 8420POPC   PO465124   8.959   8.963   5.850
 8420POPC   GL165125   9.016   8.959   6.150
 8420POPC   GL265126   8.833   9.005   6.150
 8420POPC   C1A65127   9.016   8.946   6.450
 8420POPC   D2A65128   8.956   8.988   6.750
 8420POPC   C3A65129   8.989   8.957   7.050
 8420POPC   C4A65130   9.007   8.945   7.350
 8420POPC   C1B65131   8.824   9.169   6.450
 8420POPC   C2B65132   8.760   9.106   6.750
 8420POPC   C3B65133   8.764   9.091   7.050
 8420POPC   C4B65134   8.749   9.156   7.350
 8421POPC   NC365135  16.686  17.474   5.550
 8421POPC   PO465136  16.692  17.532   5.850
 8421POPC   GL165137  16.684  17.470   6.150
 8421POPC   GL265138  16.832  17.656   6.150
 8421POPC   C1A65139  16.777  17.478   6.450
 8421POPC   D2A65140  16.711  17.523   6.750
 8421POPC   C3A65141  16.702  17.482   7.050
 8421POPC   C4A65142  16.713  17.481   7.350
 8421POPC   C1B65143  16.878  17.780   6.450
 8421POPC   C2B65144  16.884  17.694   6.750
 8421POPC   C3B65145  16.869  17.701   7.050
 8421POPC   C4B65146  16.867  17.714   7.350
 8422POPC   NC365147  33.805  15.907   5.550
 8422POPC   PO465148  33.828  15.968   5.850
 8422POPC   GL165149  33.807  15.989   6.150
 8422POPC   GL265150  33.658  15.934   6.150
 8422POPC   C1A65151  33.829  15.938   6.450
 8422POPC   D2A65152  33.774  15.917   6.750
 8422POPC   C3A65153  33.759  15.935   7.050
 8422POPC   C4A65154  33.850  15.957   7.350
 8422POPC   C1B65155  33.524  15.918   6.450
 8422POPC   C2B65156  33.533  15.947   6.750
 8422POPC   C3B65157  33.506  15.899   7.050
 8422POPC   C4B65158  33.521  15.953   7.350
 8423POPC   NC365159  21.407  29.871   5.550
 8423POPC   PO465160  21.353  29.882   5.850
 8423POPC   GL165161  21.407  29.905   6.150
 8423POPC   GL265162  21.432  29.791   6.150
 8423POPC   C1A65163  21.363  29.907   6.450
 8423POPC   D2A65164  21.421  29.912   6.750
 8423POPC   C3A65165  21.403  29.949   7.050
 8423POPC   C4A65166  21.356  29.967   7.350
 8423POPC   C1B65167  21.409  29.629   6.450
 8423POPC   C2B65168  21.342  29.641   6.750
 8423POPC   C3B65169  21.379  29.708   7.050
 8423POPC   C4B65170  21.418  29.674   7.350
 8424POPC   NC365171  14.400  43.078   5.550
 8424POPC   PO465172  14.400  43.068   5.850
 8424POPC   GL165173  14.408  43.110   6.150
 8424POPC   GL265174  14.440  43.016   6.150
 8424POPC   C1A65175  14.421  43.081   6.450
 8424POPC   D2A65176  14.358  43.080   6.750
 8424POPC   C3A65177  14.400  43.082   7.050
 8424POPC   C4A65178  14.391  43.087   7.350
 8424POPC   C1B65179  14.477  42.863   6.450
 8424POPC   C2B65180  14.478  42.858   6.750
 8424POPC   C3B65181  14.517  42.907   7.050
 8424POPC   C4B65182  14.458  42.905   7.350
 8425POPC   NC365183  26.048  35.393   5.550
 8425POPC   PO465184  26.076  35.356   5.850
 8425POPC   GL165185  26.053  35.312   6.150
 8425POPC   GL265186  25.966  35.413   6.150
 8425POPC   C1A65187  26.069  35.319   6.450
 8425POPC   D2A65188  26.021  35.308   6.750
 8425POPC   C3A65189  25.999  35.397   7.050
 8425POPC   C4A65190  26.079  35.339   7.350
 8425POPC   C1B65191  25.838  35.501   6.450
 8425POPC   C2B65192  25.832  35.544   6.750
 8425POPC   C3B65193  25.882  35.553   7.050
 8425POPC   C4B65194  25.915  35.528   7.350
 8426POPC   NC365195  32.253  43.897   5.550
 8426POPC   PO465196  32.278  43.871   5.850
 8426POPC   GL165197  32.240  43.853   6.150
 8426POPC   GL265198  32.201  43.977   6.150
 8426POPC   C1A65199  32.263  43.883   6.450
 8426POPC   D2A65200  32.283  43.918   6.750
 8426POPC   C3A65201  32.270  43.844   7.050
 8426POPC   C4A65202  32.208  43.893   7.350
 8426POPC   C1B65203  32.105  44.073   6.450
 8426POPC   C2B65204  32.083  44.042   6.750
 8426POPC   C3B65205  32.098  44.073   7.050
 8426POPC   C4B65206  32.061  44.129   7.350
 8427POPC   NC365207  14.434  32.211   5.550
 8427POPC   PO465208  14.397  32.226   5.850
 8427POPC   GL165209  14.381  32.234   6.150
 8427POPC   GL265210  14.478  32.408   6.150
 8427POPC   C1A65211  14.449  32.235   6.450
 8427POPC   D2A65212  14.357  32.208   6.750
 8427POPC   C3A65213  14.449  32.246   7.050
 8427POPC   C4A65214  14.431  32.235   7.350
 8427POPC   C1B65215  14.519  32.476   6.450
 8427POPC   C2B65216  14.502  32.510   6.750
 8427POPC   C3B65217  14.498  32.528   7.050
 8427POPC   C4B65218  14.462  32.522   7.350
 8428POPC   NC365219  43.879   8.928   5.550
 8428POPC   PO465220  43.847   9.014   5.850
 8428POPC   GL165221  43.917   8.993   6.150
 8428POPC   GL265222  43.919   8.875   6.150
 8428POPC   C1A65223  43.888   8.971   6.450
 8428POPC   D2A65224  43.911   8.950   6.750
 8428POPC   C3A65225  43.852   8.990   7.050
 8428POPC   C4A65226  43.872   8.932   7.350
 8428POPC   C1B65227  43.947   8.717   6.450
 8428POPC   C2B65228  43.931   8.707   6.750
 8428POPC   C3B65229  43.987   8.694   7.050
 8428POPC   C4B65230  43.929   8.753   7.350
 8429POPC   NC365231  35.345  18.256   5.550
 8429POPC   PO465232  35.350  18.237   5.850
 8429POPC   GL165233  35.401  18.244   6.150
 8429POPC   GL265234  35.302  18.151   6.150
 8429POPC   C1A65235  35.315  18.302   6.450
 8429POPC   D2A65236  35.318  18.281   6.750
 8429POPC   C3A65237  35.322  18.267   7.050
 8429POPC   C4A65238  35.361  18.290   7.350
 8429POPC   C1B65239  35.232  18.014   6.450
 8429POPC   C2B65240  35.283  18.073   6.750
 8429POPC   C3B65241  35.260  18.014   7.050
 8429POPC   C4B65242  35.233  18.055   7.350
 8430POPC   NC365243  37.721  43.129   5.550
 8430POPC   PO465244  37.665  43.085   5.850
 8430POPC   GL165245  37.639  43.066   6.150
 8430POPC   GL265246  37.708  42.987   6.150
 8430POPC   C1A65247  37.666  43.114   6.450
 8430POPC   D2A65248  37.635  43.120   6.750
 8430POPC   C3A65249  37.681  43.111   7.050
 8430POPC   C4A65250  37.636  43.089   7.350
 8430POPC   C1B65251  37.800  42.902   6.450
 8430POPC   C2B65252  37.850  42.946   6.750
 8430POPC   C3B65253  37.839  42.902   7.050
 8430POPC   C4B65254  37.851  42.865   7.350
 8431POPC   NC365255  19.833  44.643   5.550
 8431POPC   PO465256  19.808  44.646   5.850
 8431POPC   GL165257  19.812  44.699   6.150
 8431POPC   GL265258  19.903  44.739   6.150
 8431POPC   C1A65259  19.876  44.659   6.450
 8431POPC   D2A65260  19.800  44.663   6.750
 8431POPC   C3A65261  19.785  44.704   7.050
 8431POPC   C4A65262  19.809  44.625   7.350
 8431POPC   C1B65263  20.012  44.732   6.450
 8431POPC   C2B65264  20.067  44.741   6.750
 8431POPC   C3B65265  20.050  44.803   7.050
 8431POPC   C4B65266  20.087  44.772   7.350
 8432POPC   NC365267  26.091  27.546   5.550
 8432POPC   PO465268  26.003  27.557   5.850
 8432POPC   GL165269  26.053  27.562   6.150
 8432POPC   GL265270  25.969  27.427   6.150
 8432POPC   C1A65271  26.052  27.546   6.450
 8432POPC   D2A65272  26.068  27.619   6.750
 8432POPC   C3A65273  26.082  27.553   7.050
 8432POPC   C4A65274  26.061  27.626   7.350
 8432POPC   C1B65275  25.915  27.402   6.450
 8432POPC   C2B65276  25.986  27.399   6.750
 8432POPC   C3B65277  25.943  27.311   7.050
 8432POPC   C4B65278  26.003  27.310   7.350
 8433POPC   NC365279  40.018  27.624   5.550
 8433POPC   PO465280  40.013  27.544   5.850
 8433POPC   GL165281  40.053  27.606   6.150
 8433POPC   GL265282  39.889  27.565   6.150
 8433POPC   C1A65283  40.008  27.581   6.450
 8433POPC   D2A65284  40.012  27.579   6.750
 8433POPC   C3A65285  40.017  27.640   7.050
 8433POPC   C4A65286  40.023  27.549   7.350
 8433POPC   C1B65287  39.837  27.415   6.450
 8433POPC   C2B65288  39.842  27.482   6.750
 8433POPC   C3B65289  39.807  27.450   7.050
 8433POPC   C4B65290  39.801  27.427   7.350
 8434POPC   NC365291  26.805  41.585   5.550
 8434POPC   PO465292  26.835  41.569   5.850
 8434POPC   GL165293  26.798  41.527   6.150
 8434POPC   GL265294  26.682  41.646   6.150
 8434POPC   C1A65295  26.829  41.573   6.450
 8434POPC   D2A65296  26.862  41.556   6.750
 8434POPC   C3A65297  26.841  41.595   7.050
 8434POPC   C4A65298  26.819  41.531   7.350
 8434POPC   C1B65299  26.570  41.639   6.450
 8434POPC   C2B65300  26.590  41.685   6.750
 8434POPC   C3B65301  26.559  41.673   7.050
 8434POPC   C4B65302  26.585  41.712   7.350
 8435POPC   NC365303  33.761  35.308   5.550
 8435POPC   PO465304  33.802  35.324   5.850
 8435POPC   GL165305  33.765  35.320   6.150
 8435POPC   GL265306  33.680  35.385   6.150
 8435POPC   C1A65307  33.752  35.364   6.450
 8435POPC   D2A65308  33.780  35.378   6.750
 8435POPC   C3A65309  33.814  35.355   7.050
 8435POPC   C4A65310  33.803  35.333   7.350
 8435POPC   C1B65311  33.559  35.489   6.450
 8435POPC   C2B65312  33.609  35.460   6.750
 8435POPC   C3B65313  33.580  35.496   7.050
 8435POPC   C4B65314  33.576  35.471   7.350
 8436POPC   NC365315  14.366  35.321   5.550
 8436POPC   PO465316  14.425  35.333   5.850
 8436POPC   GL165317  14.394  35.401   6.150
 8436POPC   GL265318  14.399  35.240   6.150
 8436POPC   C1A65319  14.414  35.395   6.450
 8436POPC   D2A65320  14.380  35.386   6.750
 8436POPC   C3A65321  14.403  35.317   7.050
 8436POPC   C4A65322  14.354  35.384   7.350
 8436POPC   C1B65323  14.388  35.102   6.450
 8436POPC   C2B65324  14.392  35.106   6.750
 8436POPC   C3B65325  14.372  35.084   7.050
 8436POPC   C4B65326  14.331  35.094   7.350
 8437POPC   NC365327  12.058   5.086   5.550
 8437POPC   PO465328  12.105   5.139   5.850
 8437POPC   GL165329  12.030   5.083   6.150
 8437POPC   GL265330  12.212   5.124   6.150
 8437POPC   C1A65331  12.044   5.058   6.450
 8437POPC   D2A65332  12.045   5.106   6.750
 8437POPC   C3A65333  12.043   5.045   7.050
 8437POPC   C4A65334  12.074   5.078   7.350
 8437POPC   C1B65335  12.293   5.180   6.450
 8437POPC   C2B65336  12.305   5.161   6.750
 8437POPC   C3B65337  12.328   5.181   7.050
 8437POPC   C4B65338  12.358   5.160   7.350
 8438POPC   NC365339   0.429  34.602   5.550
 8438POPC   PO465340   0.446  34.568   5.850
 8438POPC   GL165341   0.478  34.621   6.150
 8438POPC   GL265342   0.352  34.564   6.150
 8438POPC   C1A65343   0.431  34.617   6.450
 8438POPC   D2A65344   0.446  34.621   6.750
 8438POPC   C3A65345   0.395  34.539   7.050
 8438POPC   C4A65346   0.439  34.616   7.350
 8438POPC   C1B65347   0.202  34.481   6.450
 8438POPC   C2B65348   0.235  34.495   6.750
 8438POPC   C3B65349   0.173  34.410   7.050
 8438POPC   C4B65350   0.185  34.431   7.350
 8439POPC   NC365351   8.211  16.707   5.550
 8439POPC   PO465352   8.154  16.695   5.850
 8439POPC   GL165353   8.224  16.701   6.150
 8439POPC   GL265354   8.110  16.802   6.150
 8439POPC   C1A65355   8.159  16.704   6.450
 8439POPC   D2A65356   8.192  16.719   6.750
 8439POPC   C3A65357   8.193  16.731   7.050
 8439POPC   C4A65358   8.214  16.707   7.350
 8439POPC   C1B65359   8.095  17.004   6.450
 8439POPC   C2B65360   8.118  16.955   6.750
 8439POPC   C3B65361   8.140  17.009   7.050
 8439POPC   C4B65362   8.148  16.922   7.350
 8440POPC   NC365363  40.754  11.280   5.550
 8440POPC   PO465364  40.766  11.340   5.850
 8440POPC   GL165365  40.774  11.320   6.150
 8440POPC   GL265366  40.627  11.310   6.150
 8440POPC   C1A65367  40.812  11.292   6.450
 8440POPC   D2A65368  40.824  11.259   6.750
 8440POPC   C3A65369  40.786  11.275   7.050
 8440POPC   C4A65370  40.754  11.259   7.350
 8440POPC   C1B65371  40.584  11.410   6.450
 8440POPC   C2B65372  40.529  11.401   6.750
 8440POPC   C3B65373  40.527  11.461   7.050
 8440POPC   C4B65374  40.519  11.443   7.350
 8441POPC   NC365375  32.211  22.917   5.550
 8441POPC   PO465376  32.285  22.898   5.850
 8441POPC   GL165377  32.208  22.939   6.150
 8441POPC   GL265378  32.389  22.834   6.150
 8441POPC   C1A65379  32.211  22.909   6.450
 8441POPC   D2A65380  32.215  22.940   6.750
 8441POPC   C3A65381  32.276  22.901   7.050
 8441POPC   C4A65382  32.232  22.978   7.350
 8441POPC   C1B65383  32.397  22.772   6.450
 8441POPC   C2B65384  32.433  22.769   6.750
 8441POPC   C3B65385  32.465  22.737   7.050
 8441POPC   C4B65386  32.476  22.741   7.350
 8442POPC   NC365387  41.575   4.338   5.550
 8442POPC   PO465388  41.541   4.328   5.850
 8442POPC   GL165389  41.548   4.335   6.150
 8442POPC   GL265390  41.508   4.276   6.150
 8442POPC   C1A65391  41.557   4.326   6.450
 8442POPC   D2A65392  41.603   4.337   6.750
 8442POPC   C3A65393  41.607   4.336   7.050
 8442POPC   C4A65394  41.579   4.279   7.350
 8442POPC   C1B65395  41.410   4.128   6.450
 8442POPC   C2B65396  41.377   4.123   6.750
 8442POPC   C3B65397  41.386   4.116   7.050
 8442POPC   C4B65398  41.419   4.126   7.350
 8443POPC   NC365399  44.702  15.202   5.550
 8443POPC   PO465400  44.694  15.140   5.850
 8443POPC   GL165401  44.655  15.210   6.150
 8443POPC   GL265402  44.582  15.105   6.150
 8443POPC   C1A65403  44.689  15.218   6.450
 8443POPC   D2A65404  44.696  15.215   6.750
 8443POPC   C3A65405  44.635  15.184   7.050
 8443POPC   C4A65406  44.618  15.226   7.350
 8443POPC   C1B65407  44.459  15.138   6.450
 8443POPC   C2B65408  44.451  15.132   6.750
 8443POPC   C3B65409  44.451  15.112   7.050
 8443POPC   C4B65410  44.372  15.088   7.350
 8444POPC   NC365411   5.089  31.499   5.550
 8444POPC   PO465412   5.045  31.477   5.850
 8444POPC   GL165413   5.109  31.522   6.150
 8444POPC   GL265414   5.010  31.366   6.150
 8444POPC   C1A65415   5.059  31.448   6.450
 8444POPC   D2A65416   5.121  31.498   6.750
 8444POPC   C3A65417   5.096  31.522   7.050
 8444POPC   C4A65418   5.087  31.463   7.350
 8444POPC   C1B65419   4.903  31.309   6.450
 8444POPC   C2B65420   4.939  31.280   6.750
 8444POPC   C3B65421   4.943  31.271   7.050
 8444POPC   C4B65422   4.919  31.347   7.350
 8445POPC   NC365423   0.486   1.240   5.550
 8445POPC   PO465424   0.396   1.194   5.850
 8445POPC   GL165425   0.473   1.165   6.150
 8445POPC   GL265426   0.492   1.057   6.150
 8445POPC   C1A65427   0.443   1.263   6.450
 8445POPC   D2A65428   0.478   1.210   6.750
 8445POPC   C3A65429   0.465   1.199   7.050
 8445POPC   C4A65430   0.479   1.236   7.350
 8445POPC   C1B65431   0.577   1.033   6.450
 8445POPC   C2B65432   0.514   0.967   6.750
 8445POPC   C3B65433   0.505   0.960   7.050
 8445POPC   C4B65434   0.538   0.938   7.350
 8446POPC   NC365435  30.681  35.311   5.550
 8446POPC   PO465436  30.719  35.353   5.850
 8446POPC   GL165437  30.721  35.336   6.150
 8446POPC   GL265438  30.777  35.270   6.150
 8446POPC   C1A65439  30.714  35.360   6.450
 8446POPC   D2A65440  30.723  35.366   6.750
 8446POPC   C3A65441  30.723  35.302   7.050
 8446POPC   C4A65442  30.728  35.355   7.350
 8446POPC   C1B65443  30.766  35.171   6.450
 8446POPC   C2B65444  30.847  35.080   6.750
 8446POPC   C3B65445  30.778  35.166   7.050
 8446POPC   C4B65446  30.768  35.105   7.350
 8447POPC   NC365447   6.682  39.967   5.550
 8447POPC   PO465448   6.681  39.960   5.850
 8447POPC   GL165449   6.689  39.982   6.150
 8447POPC   GL265450   6.627  40.121   6.150
 8447POPC   C1A65451   6.657  39.962   6.450
 8447POPC   D2A65452   6.683  40.020   6.750
 8447POPC   C3A65453   6.684  39.961   7.050
 8447POPC   C4A65454   6.642  39.968   7.350
 8447POPC   C1B65455   6.546  40.183   6.450
 8447POPC   C2B65456   6.544  40.264   6.750
 8447POPC   C3B65457   6.513  40.233   7.050
 8447POPC   C4B65458   6.530  40.187   7.350
 8448POPC   NC365459   6.660  15.181   5.550
 8448POPC   PO465460   6.640  15.207   5.850
 8448POPC   GL165461   6.650  15.203   6.150
 8448POPC   GL265462   6.542  15.184   6.150
 8448POPC   C1A65463   6.649  15.184   6.450
 8448POPC   D2A65464   6.607  15.140   6.750
 8448POPC   C3A65465   6.667  15.143   7.050
 8448POPC   C4A65466   6.637  15.211   7.350
 8448POPC   C1B65467   6.464  15.276   6.450
 8448POPC   C2B65468   6.457  15.280   6.750
 8448POPC   C3B65469   6.446  15.314   7.050
 8448POPC   C4B65470   6.459  15.250   7.350
 8449POPC   NC365471  35.337  26.837   5.550
 8449POPC   PO465472  35.327  26.808   5.850
 8449POPC   GL165473  35.332  26.833   6.150
 8449POPC   GL265474  35.262  26.766   6.150
 8449POPC   C1A65475  35.309  26.818   6.450
 8449POPC   D2A65476  35.363  26.784   6.750
 8449POPC   C3A65477  35.382  26.847   7.050
 8449POPC   C4A65478  35.345  26.810   7.350
 8449POPC   C1B65479  35.144  26.774   6.450
 8449POPC   C2B65480  35.079  26.751   6.750
 8449POPC   C3B65481  35.142  26.787   7.050
 8449POPC   C4B65482  35.112  26.753   7.350
 8450POPC   NC365483  34.576  26.839   5.550
 8450POPC   PO465484  34.555  26.833   5.850
 8450POPC   GL165485  34.605  26.825   6.150
 8450POPC   GL265486  34.598  26.672   6.150
 8450POPC   C1A65487  34.564  26.808   6.450
 8450POPC   D2A65488  34.527  26.823   6.750
 8450POPC   C3A65489  34.550  26.806   7.050
 8450POPC   C4A65490  34.584  26.786   7.350
 8450POPC   C1B65491  34.662  26.588   6.450
 8450POPC   C2B65492  34.591  26.610   6.750
 8450POPC   C3B65493  34.664  26.580   7.050
 8450POPC   C4B65494  34.587  26.541   7.350
 8451POPC   NC365495  26.866  21.385   5.550
 8451POPC   PO465496  26.856  21.423   5.850
 8451POPC   GL165497  26.819  21.416   6.150
 8451POPC   GL265498  26.991  21.348   6.150
 8451POPC   C1A65499  26.843  21.405   6.450
 8451POPC   D2A65500  26.852  21.412   6.750
 8451POPC   C3A65501  26.779  21.348   7.050
 8451POPC   C4A65502  26.840  21.378   7.350
 8451POPC   C1B65503  27.045  21.388   6.450
 8451POPC   C2B65504  27.051  21.369   6.750
 8451POPC   C3B65505  27.069  21.357   7.050
 8451POPC   C4B65506  27.086  21.345   7.350
 8452POPC   NC365507  11.316  37.711   5.550
 8452POPC   PO465508  11.258  37.649   5.850
 8452POPC   GL165509  11.251  37.669   6.150
 8452POPC   GL265510  11.318  37.787   6.150
 8452POPC   C1A65511  11.308  37.638   6.450
 8452POPC   D2A65512  11.271  37.719   6.750
 8452POPC   C3A65513  11.294  37.710   7.050
 8452POPC   C4A65514  11.270  37.672   7.350
 8452POPC   C1B65515  11.421  37.890   6.450
 8452POPC   C2B65516  11.428  37.892   6.750
 8452POPC   C3B65517  11.399  37.929   7.050
 8452POPC   C4B65518  11.378  37.886   7.350
 8453POPC   NC365519   7.412  22.917   5.550
 8453POPC   PO465520   7.415  22.908   5.850
 8453POPC   GL165521   7.466  22.966   6.150
 8453POPC   GL265522   7.363  22.989   6.150
 8453POPC   C1A65523   7.385  22.911   6.450
 8453POPC   D2A65524   7.464  22.986   6.750
 8453POPC   C3A65525   7.469  22.976   7.050
 8453POPC   C4A65526   7.395  22.935   7.350
 8453POPC   C1B65527   7.279  23.154   6.450
 8453POPC   C2B65528   7.269  23.079   6.750
 8453POPC   C3B65529   7.245  23.091   7.050
 8453POPC   C4B65530   7.199  23.161   7.350
 8454POPC   NC365531   5.094  20.634   5.550
 8454POPC   PO465532   5.059  20.636   5.850
 8454POPC   GL165533   5.045  20.565   6.150
 8454POPC   GL265534   5.123  20.679   6.150
 8454POPC   C1A65535   5.062  20.562   6.450
 8454POPC   D2A65536   5.062  20.594   6.750
 8454POPC   C3A65537   5.059  20.611   7.050
 8454POPC   C4A65538   5.070  20.591   7.350
 8454POPC   C1B65539   5.205  20.860   6.450
 8454POPC   C2B65540   5.152  20.804   6.750
 8454POPC   C3B65541   5.198  20.882   7.050
 8454POPC   C4B65542   5.192  20.889   7.350
 8455POPC   NC365543  16.771  26.849   5.550
 8455POPC   PO465544  16.738  26.836   5.850
 8455POPC   GL165545  16.773  26.772   6.150
 8455POPC   GL265546  16.676  26.686   6.150
 8455POPC   C1A65547  16.723  26.788   6.450
 8455POPC   D2A65548  16.684  26.865   6.750
 8455POPC   C3A65549  16.687  26.811   7.050
 8455POPC   C4A65550  16.737  26.845   7.350
 8455POPC   C1B65551  16.576  26.649   6.450
 8455POPC   C2B65552  16.583  26.651   6.750
 8455POPC   C3B65553  16.629  26.565   7.050
 8455POPC   C4B65554  16.564  26.646   7.350
 8456POPC   NC365555   5.125  15.985   5.550
 8456POPC   PO465556   5.073  16.003   5.850
 8456POPC   GL165557   5.074  15.929   6.150
 8456POPC   GL265558   5.077  16.062   6.150
 8456POPC   C1A65559   5.112  15.956   6.450
 8456POPC   D2A65560   5.127  16.000   6.750
 8456POPC   C3A65561   5.111  15.985   7.050
 8456POPC   C4A65562   5.060  15.991   7.350
 8456POPC   C1B65563   4.985  16.190   6.450
 8456POPC   C2B65564   5.018  16.189   6.750
 8456POPC   C3B65565   4.946  16.152   7.050
 8456POPC   C4B65566   4.947  16.135   7.350
 8457POPC   NC365567  20.593  37.648   5.550
 8457POPC   PO465568  20.608  37.687   5.850
 8457POPC   GL165569  20.603  37.703   6.150
 8457POPC   GL265570  20.696  37.544   6.150
 8457POPC   C1A65571  20.575  37.635   6.450
 8457POPC   D2A65572  20.593  37.635   6.750
 8457POPC   C3A65573  20.605  37.674   7.050
 8457POPC   C4A65574  20.604  37.631   7.350
 8457POPC   C1B65575  20.760  37.421   6.450
 8457POPC   C2B65576  20.732  37.485   6.750
 8457POPC   C3B65577  20.714  37.487   7.050
 8457POPC   C4B65578  20.678  37.459   7.350
 8458POPC   NC365579  22.975  20.650   5.550
 8458POPC   PO465580  22.986  20.585   5.850
 8458POPC   GL165581  22.941  20.597   6.150
 8458POPC   GL265582  23.058  20.620   6.150
 8458POPC   C1A65583  22.986  20.622   6.450
 8458POPC   D2A65584  22.951  20.612   6.750
 8458POPC   C3A65585  22.904  20.624   7.050
 8458POPC   C4A65586  22.945  20.627   7.350
 8458POPC   C1B65587  23.219  20.489   6.450
 8458POPC   C2B65588  23.145  20.499   6.750
 8458POPC   C3B65589  23.148  20.546   7.050
 8458POPC   C4B65590  23.189  20.538   7.350
 8459POPC   NC365591   7.409   4.314   5.550
 8459POPC   PO465592   7.395   4.355   5.850
 8459POPC   GL165593   7.464   4.285   6.150
 8459POPC   GL265594   7.564   4.349   6.150
 8459POPC   C1A65595   7.419   4.299   6.450
 8459POPC   D2A65596   7.389   4.322   6.750
 8459POPC   C3A65597   7.443   4.304   7.050
 8459POPC   C4A65598   7.412   4.308   7.350
 8459POPC   C1B65599   7.626   4.430   6.450
 8459POPC   C2B65600   7.606   4.397   6.750
 8459POPC   C3B65601   7.670   4.429   7.050
 8459POPC   C4B65602   7.635   4.379   7.350
 8460POPC   NC365603  39.237  11.329   5.550
 8460POPC   PO465604  39.232  11.307   5.850
 8460POPC   GL165605  39.249  11.306   6.150
 8460POPC   GL265606  39.102  11.348   6.150
 8460POPC   C1A65607  39.218  11.255   6.450
 8460POPC   D2A65608  39.258  11.264   6.750
 8460POPC   C3A65609  39.190  11.276   7.050
 8460POPC   C4A65610  39.234  11.273   7.350
 8460POPC   C1B65611  39.037  11.418   6.450
 8460POPC   C2B65612  39.023  11.427   6.750
 8460POPC   C3B65613  38.983  11.351   7.050
 8460POPC   C4B65614  39.032  11.362   7.350
 8461POPC   NC365615  38.471  43.107   5.550
 8461POPC   PO465616  38.440  43.125   5.850
 8461POPC   GL165617  38.421  43.151   6.150
 8461POPC   GL265618  38.538  42.957   6.150
 8461POPC   C1A65619  38.450  43.096   6.450
 8461POPC   D2A65620  38.426  43.141   6.750
 8461POPC   C3A65621  38.481  43.155   7.050
 8461POPC   C4A65622  38.495  43.079   7.350
 8461POPC   C1B65623  38.620  42.904   6.450
 8461POPC   C2B65624  38.641  42.924   6.750
 8461POPC   C3B65625  38.636  42.943   7.050
 8461POPC   C4B65626  38.554  42.913   7.350
 8462POPC   NC365627  28.407  15.157   5.550
 8462POPC   PO465628  28.407  15.214   5.850
 8462POPC   GL165629  28.417  15.134   6.150
 8462POPC   GL265630  28.273  15.043   6.150
 8462POPC   C1A65631  28.412  15.140   6.450
 8462POPC   D2A65632  28.356  15.136   6.750
 8462POPC   C3A65633  28.365  15.133   7.050
 8462POPC   C4A65634  28.323  15.229   7.350
 8462POPC   C1B65635  28.225  14.927   6.450
 8462POPC   C2B65636  28.314  14.967   6.750
 8462POPC   C3B65637  28.310  14.912   7.050
 8462POPC   C4B65638  28.311  14.915   7.350
 8463POPC   NC365639  32.221  36.084   5.550
 8463POPC   PO465640  32.202  36.079   5.850
 8463POPC   GL165641  32.297  36.121   6.150
 8463POPC   GL265642  32.119  36.245   6.150
 8463POPC   C1A65643  32.236  36.120   6.450
 8463POPC   D2A65644  32.238  36.099   6.750
 8463POPC   C3A65645  32.295  36.141   7.050
 8463POPC   C4A65646  32.229  36.085   7.350
 8463POPC   C1B65647  32.116  36.250   6.450
 8463POPC   C2B65648  32.087  36.309   6.750
 8463POPC   C3B65649  32.055  36.314   7.050
 8463POPC   C4B65650  32.077  36.293   7.350
 8464POPC   NC365651  40.754   4.313   5.550
 8464POPC   PO465652  40.799   4.361   5.850
 8464POPC   GL165653  40.818   4.337   6.150
 8464POPC   GL265654  40.874   4.254   6.150
 8464POPC   C1A65655  40.781   4.341   6.450
 8464POPC   D2A65656  40.812   4.333   6.750
 8464POPC   C3A65657  40.744   4.335   7.050
 8464POPC   C4A65658  40.832   4.319   7.350
 8464POPC   C1B65659  40.989   4.197   6.450
 8464POPC   C2B65660  40.984   4.149   6.750
 8464POPC   C3B65661  40.956   4.160   7.050
 8464POPC   C4B65662  40.946   4.190   7.350
 8465POPC   NC365663  41.522  43.840   5.550
 8465POPC   PO465664  41.548  43.894   5.850
 8465POPC   GL165665  41.608  43.847   6.150
 8465POPC   GL265666  41.522  43.780   6.150
 8465POPC   C1A65667  41.533  43.887   6.450
 8465POPC   D2A65668  41.549  43.852   6.750
 8465POPC   C3A65669  41.585  43.921   7.050
 8465POPC   C4A65670  41.516  43.894   7.350
 8465POPC   C1B65671  41.382  43.626   6.450
 8465POPC   C2B65672  41.437  43.680   6.750
 8465POPC   C3B65673  41.430  43.658   7.050
 8465POPC   C4B65674  41.477  43.632   7.350
 8466POPC   NC365675  37.663   2.792   5.550
 8466POPC   PO465676  37.663   2.789   5.850
 8466POPC   GL165677  37.655   2.813   6.150
 8466POPC   GL265678  37.829   2.728   6.150
 8466POPC   C1A65679  37.679   2.770   6.450
 8466POPC   D2A65680  37.706   2.766   6.750
 8466POPC   C3A65681  37.709   2.801   7.050
 8466POPC   C4A65682  37.681   2.783   7.350
 8466POPC   C1B65683  37.910   2.708   6.450
 8466POPC   C2B65684  37.930   2.722   6.750
 8466POPC   C3B65685  37.926   2.737   7.050
 8466POPC   C4B65686  37.879   2.693   7.350
 8467POPC   NC365687  26.044  23.728   5.550
 8467POPC   PO465688  26.001  23.677   5.850
 8467POPC   GL165689  26.072  23.684   6.150
 8467POPC   GL265690  26.049  23.631   6.150
 8467POPC   C1A65691  25.994  23.760   6.450
 8467POPC   D2A65692  26.020  23.745   6.750
 8467POPC   C3A65693  26.042  23.724   7.050
 8467POPC   C4A65694  26.048  23.736   7.350
 8467POPC   C1B65695  26.092  23.462   6.450
 8467POPC   C2B65696  26.148  23.472   6.750
 8467POPC   C3B65697  26.104  23.452   7.050
 8467POPC   C4B65698  26.110  23.472   7.350
 8468POPC   NC365699  22.191   9.758   5.550
 8468POPC   PO465700  22.147   9.774   5.850
 8468POPC   GL165701  22.122   9.722   6.150
 8468POPC   GL265702  22.310   9.703   6.150
 8468POPC   C1A65703  22.193   9.722   6.450
 8468POPC   D2A65704  22.192   9.745   6.750
 8468POPC   C3A65705  22.209   9.750   7.050
 8468POPC   C4A65706  22.127   9.760   7.350
 8468POPC   C1B65707  22.401   9.693   6.450
 8468POPC   C2B65708  22.386   9.653   6.750
 8468POPC   C3B65709  22.405   9.644   7.050
 8468POPC   C4B65710  22.365   9.606   7.350
 8469POPC   NC365711  23.693  28.344   5.550
 8469POPC   PO465712  23.700  28.418   5.850
 8469POPC   GL165713  23.695  28.334   6.150
 8469POPC   GL265714  23.558  28.355   6.150
 8469POPC   C1A65715  23.683  28.393   6.450
 8469POPC   D2A65716  23.698  28.331   6.750
 8469POPC   C3A65717  23.750  28.374   7.050
 8469POPC   C4A65718  23.746  28.412   7.350
 8469POPC   C1B65719  23.458  28.309   6.450
 8469POPC   C2B65720  23.507  28.348   6.750
 8469POPC   C3B65721  23.439  28.284   7.050
 8469POPC   C4B65722  23.503  28.312   7.350
 8470POPC   NC365723  27.601  22.962   5.550
 8470POPC   PO465724  27.618  22.915   5.850
 8470POPC   GL165725  27.637  22.947   6.150
 8470POPC   GL265726  27.702  23.058   6.150
 8470POPC   C1A65727  27.573  22.917   6.450
 8470POPC   D2A65728  27.626  22.909   6.750
 8470POPC   C3A65729  27.624  22.978   7.050
 8470POPC   C4A65730  27.625  22.950   7.350
 8470POPC   C1B65731  27.757  23.148   6.450
 8470POPC   C2B65732  27.760  23.123   6.750
 8470POPC   C3B65733  27.777  23.125   7.050
 8470POPC   C4B65734  27.791  23.117   7.350
 8471POPC   NC365735  27.563  21.376   5.550
 8471POPC   PO465736  27.606  21.369   5.850
 8471POPC   GL165737  27.579  21.367   6.150
 8471POPC   GL265738  27.498  21.311   6.150
 8471POPC   C1A65739  27.633  21.351   6.450
 8471POPC   D2A65740  27.580  21.347   6.750
 8471POPC   C3A65741  27.626  21.393   7.050
 8471POPC   C4A65742  27.565  21.381   7.350
 8471POPC   C1B65743  27.466  21.133   6.450
 8471POPC   C2B65744  27.475  21.133   6.750
 8471POPC   C3B65745  27.458  21.219   7.050
 8471POPC   C4B65746  27.457  21.198   7.350
 8472POPC   NC365747  44.665  15.906   5.550
 8472POPC   PO465748  44.688  15.994   5.850
 8472POPC   GL165749  44.709  15.921   6.150
 8472POPC   GL265750  44.563  15.983   6.150
 8472POPC   C1A65751  44.675  15.976   6.450
 8472POPC   D2A65752  44.642  15.913   6.750
 8472POPC   C3A65753  44.667  15.948   7.050
 8472POPC   C4A65754  44.640  15.918   7.350
 8472POPC   C1B65755  44.411  15.947   6.450
 8472POPC   C2B65756  44.387  15.993   6.750
 8472POPC   C3B65757  44.415  15.951   7.050
 8472POPC   C4B65758  44.413  15.983   7.350
 8473POPC   NC365759   6.605   8.164   5.550
 8473POPC   PO465760   6.657   8.153   5.850
 8473POPC   GL165761   6.606   8.244   6.150
 8473POPC   GL265762   6.643   8.311   6.150
 8473POPC   C1A65763   6.612   8.167   6.450
 8473POPC   D2A65764   6.595   8.233   6.750
 8473POPC   C3A65765   6.615   8.157   7.050
 8473POPC   C4A65766   6.693   8.209   7.350
 8473POPC   C1B65767   6.550   8.426   6.450
 8473POPC   C2B65768   6.593   8.406   6.750
 8473POPC   C3B65769   6.544   8.433   7.050
 8473POPC   C4B65770   6.619   8.426   7.350
 8474POPC   NC365771  18.244   8.194   5.550
 8474POPC   PO465772  18.239   8.187   5.850
 8474POPC   GL165773  18.317   8.230   6.150
 8474POPC   GL265774  18.189   8.148   6.150
 8474POPC   C1A65775  18.280   8.194   6.450
 8474POPC   D2A65776  18.314   8.203   6.750
 8474POPC   C3A65777  18.291   8.195   7.050
 8474POPC   C4A65778  18.297   8.226   7.350
 8474POPC   C1B65779  18.134   8.042   6.450
 8474POPC   C2B65780  18.117   8.054   6.750
 8474POPC   C3B65781  18.143   7.980   7.050
 8474POPC   C4B65782  18.079   8.007   7.350
 8475POPC   NC365783  12.096  36.115   5.550
 8475POPC   PO465784  12.096  36.135   5.850
 8475POPC   GL165785  12.069  36.127   6.150
 8475POPC   GL265786  12.108  36.286   6.150
 8475POPC   C1A65787  12.034  36.160   6.450
 8475POPC   D2A65788  12.036  36.113   6.750
 8475POPC   C3A65789  12.043  36.110   7.050
 8475POPC   C4A65790  12.086  36.123   7.350
 8475POPC   C1B65791  12.136  36.346   6.450
 8475POPC   C2B65792  12.142  36.355   6.750
 8475POPC   C3B65793  12.105  36.378   7.050
 8475POPC   C4B65794  12.124  36.338   7.350
 8476POPC   NC365795   9.745  29.174   5.550
 8476POPC   PO465796   9.772  29.142   5.850
 8476POPC   GL165797   9.699  29.189   6.150
 8476POPC   GL265798   9.716  29.077   6.150
 8476POPC   C1A65799   9.711  29.095   6.450
 8476POPC   D2A65800   9.748  29.132   6.750
 8476POPC   C3A65801   9.709  29.122   7.050
 8476POPC   C4A65802   9.704  29.193   7.350
 8476POPC   C1B65803   9.565  28.903   6.450
 8476POPC   C2B65804   9.556  28.902   6.750
 8476POPC   C3B65805   9.560  28.941   7.050
 8476POPC   C4B65806   9.605  28.970   7.350
 8477POPC   NC365807  19.879  33.756   5.550
 8477POPC   PO465808  19.870  33.765   5.850
 8477POPC   GL165809  19.873  33.795   6.150
 8477POPC   GL265810  19.740  33.746   6.150
 8477POPC   C1A65811  19.795  33.773   6.450
 8477POPC   D2A65812  19.785  33.840   6.750
 8477POPC   C3A65813  19.830  33.751   7.050
 8477POPC   C4A65814  19.794  33.812   7.350
 8477POPC   C1B65815  19.580  33.753   6.450
 8477POPC   C2B65816  19.648  33.728   6.750
 8477POPC   C3B65817  19.566  33.737   7.050
 8477POPC   C4B65818  19.602  33.737   7.350
 8478POPC   NC365819   5.890  34.547   5.550
 8478POPC   PO465820   5.878  34.608   5.850
 8478POPC   GL165821   5.919  34.549   6.150
 8478POPC   GL265822   5.716  34.663   6.150
 8478POPC   C1A65823   5.860  34.623   6.450
 8478POPC   D2A65824   5.879  34.625   6.750
 8478POPC   C3A65825   5.836  34.616   7.050
 8478POPC   C4A65826   5.910  34.592   7.350
 8478POPC   C1B65827   5.621  34.729   6.450
 8478POPC   C2B65828   5.650  34.687   6.750
 8478POPC   C3B65829   5.693  34.733   7.050
 8478POPC   C4B65830   5.673  34.714   7.350
 8479POPC   NC365831  43.150  36.139   5.550
 8479POPC   PO465832  43.071  36.100   5.850
 8479POPC   GL165833  43.064  36.086   6.150
 8479POPC   GL265834  42.955  36.133   6.150
 8479POPC   C1A65835  43.083  36.099   6.450
 8479POPC   D2A65836  43.084  36.102   6.750
 8479POPC   C3A65837  43.101  36.177   7.050
 8479POPC   C4A65838  43.100  36.169   7.350
 8479POPC   C1B65839  42.905  36.229   6.450
 8479POPC   C2B65840  42.891  36.287   6.750
 8479POPC   C3B65841  42.864  36.268   7.050
 8479POPC   C4B65842  42.862  36.220   7.350
 8480POPC   NC365843  26.771  29.148   5.550
 8480POPC   PO465844  26.770  29.143   5.850
 8480POPC   GL165845  26.854  29.158   6.150
 8480POPC   GL265846  26.922  29.268   6.150
 8480POPC   C1A65847  26.797  29.187   6.450
 8480POPC   D2A65848  26.864  29.184   6.750
 8480POPC   C3A65849  26.768  29.140   7.050
 8480POPC   C4A65850  26.789  29.157   7.350
 8480POPC   C1B65851  26.980  29.307   6.450
 8480POPC   C2B65852  26.967  29.357   6.750
 8480POPC   C3B65853  26.959  29.361   7.050
 8480POPC   C4B65854  26.996  29.361   7.350
 8481POPC   NC365855  12.087  23.738   5.550
 8481POPC   PO465856  12.116  23.752   5.850
 8481POPC   GL165857  12.078  23.724   6.150
 8481POPC   GL265858  12.055  23.795   6.150
 8481POPC   C1A65859  12.101  23.685   6.450
 8481POPC   D2A65860  12.038  23.694   6.750
 8481POPC   C3A65861  12.038  23.667   7.050
 8481POPC   C4A65862  12.046  23.734   7.350
 8481POPC   C1B65863  12.062  23.925   6.450
 8481POPC   C2B65864  12.130  23.942   6.750
 8481POPC   C3B65865  12.072  23.946   7.050
 8481POPC   C4B65866  12.034  23.995   7.350
 8482POPC   NC365867  39.979  41.593   5.550
 8482POPC   PO465868  39.987  41.542   5.850
 8482POPC   GL165869  39.960  41.512   6.150
 8482POPC   GL265870  40.103  41.525   6.150
 8482POPC   C1A65871  40.007  41.516   6.450
 8482POPC   D2A65872  40.020  41.606   6.750
 8482POPC   C3A65873  39.969  41.596   7.050
 8482POPC   C4A65874  40.038  41.584   7.350
 8482POPC   C1B65875  40.251  41.478   6.450
 8482POPC   C2B65876  40.198  41.480   6.750
 8482POPC   C3B65877  40.196  41.435   7.050
 8482POPC   C4B65878  40.287  41.466   7.350
 8483POPC   NC365879   2.808  37.710   5.550
 8483POPC   PO465880   2.806  37.704   5.850
 8483POPC   GL165881   2.795  37.700   6.150
 8483POPC   GL265882   2.655  37.546   6.150
 8483POPC   C1A65883   2.800  37.659   6.450
 8483POPC   D2A65884   2.778  37.707   6.750
 8483POPC   C3A65885   2.807  37.709   7.050
 8483POPC   C4A65886   2.808  37.728   7.350
 8483POPC   C1B65887   2.562  37.489   6.450
 8483POPC   C2B65888   2.647  37.523   6.750
 8483POPC   C3B65889   2.643  37.523   7.050
 8483POPC   C4B65890   2.627  37.537   7.350
 8484POPC   NC365891  43.857  31.457   5.550
 8484POPC   PO465892  43.929  31.515   5.850
 8484POPC   GL165893  43.897  31.511   6.150
 8484POPC   GL265894  43.938  31.367   6.150
 8484POPC   C1A65895  43.893  31.492   6.450
 8484POPC   D2A65896  43.936  31.501   6.750
 8484POPC   C3A65897  43.895  31.430   7.050
 8484POPC   C4A65898  43.871  31.432   7.350
 8484POPC   C1B65899  43.989  31.243   6.450
 8484POPC   C2B65900  43.971  31.225   6.750
 8484POPC   C3B65901  43.989  31.279   7.050
 8484POPC   C4B65902  43.954  31.217   7.350
 8485POPC   NC365903  19.850  37.660   5.550
 8485POPC   PO465904  19.857  37.727   5.850
 8485POPC   GL165905  19.819  37.698   6.150
 8485POPC   GL265906  19.755  37.689   6.150
 8485POPC   C1A65907  19.804  37.712   6.450
 8485POPC   D2A65908  19.825  37.679   6.750
 8485POPC   C3A65909  19.849  37.668   7.050
 8485POPC   C4A65910  19.847  37.649   7.350
 8485POPC   C1B65911  19.566  37.761   6.450
 8485POPC   C2B65912  19.610  37.706   6.750
 8485POPC   C3B65913  19.572  37.725   7.050
 8485POPC   C4B65914  19.545  37.759   7.350
 8486POPC   NC365915  44.663   1.165   5.550
 8486POPC   PO465916  44.679   1.261   5.850
 8486POPC   GL165917  44.687   1.191   6.150
 8486POPC   GL265918  44.752   1.236   6.150
 8486POPC   C1A65919  44.639   1.215   6.450
 8486POPC   D2A65920  44.644   1.235   6.750
 8486POPC   C3A65921  44.684   1.238   7.050
 8486POPC   C4A65922  44.661   1.212   7.350
 8486POPC   C1B65923  44.955   1.160   6.450
 8486POPC   C2B65924  44.952   1.178   6.750
 8486POPC   C3B65925  44.944   1.188   7.050
 8486POPC   C4B65926  44.902   1.187   7.350
 8487POPC   NC365927  12.877  34.592   5.550
 8487POPC   PO465928  12.808  34.625   5.850
 8487POPC   GL165929  12.882  34.616   6.150
 8487POPC   GL265930  12.743  34.513   6.150
 8487POPC   C1A65931  12.851  34.599   6.450
 8487POPC   D2A65932  12.892  34.549   6.750
 8487POPC   C3A65933  12.831  34.555   7.050
 8487POPC   C4A65934  12.830  34.533   7.350
 8487POPC   C1B65935  12.761  34.323   6.450
 8487POPC   C2B65936  12.700  34.345   6.750
 8487POPC   C3B65937  12.733  34.361   7.050
 8487POPC   C4B65938  12.675  34.374   7.350
 8488POPC   NC365939  35.365  14.398   5.550
 8488POPC   PO465940  35.321  14.418   5.850
 8488POPC   GL165941  35.336  14.360   6.150
 8488POPC   GL265942  35.431  14.298   6.150
 8488POPC   C1A65943  35.363  14.427   6.450
 8488POPC   D2A65944  35.349  14.359   6.750
 8488POPC   C3A65945  35.363  14.412   7.050
 8488POPC   C4A65946  35.309  14.374   7.350
 8488POPC   C1B65947  35.593  14.268   6.450
 8488POPC   C2B65948  35.535  14.284   6.750
 8488POPC   C3B65949  35.574  14.237   7.050
 8488POPC   C4B65950  35.510  14.299   7.350
 8489POPC   NC365951   4.294  33.798   5.550
 8489POPC   PO465952   4.317  33.774   5.850
 8489POPC   GL165953   4.350  33.831   6.150
 8489POPC   GL265954   4.182  33.697   6.150
 8489POPC   C1A65955   4.341  33.810   6.450
 8489POPC   D2A65956   4.351  33.800   6.750
 8489POPC   C3A65957   4.323  33.824   7.050
 8489POPC   C4A65958   4.302  33.815   7.350
 8489POPC   C1B65959   4.113  33.670   6.450
 8489POPC   C2B65960   4.110  33.666   6.750
 8489POPC   C3B65961   4.180  33.652   7.050
 8489POPC   C4B65962   4.097  33.611   7.350
 8490POPC   NC365963   5.833  22.211   5.550
 8490POPC   PO465964   5.878  22.187   5.850
 8490POPC   GL165965   5.892  22.198   6.150
 8490POPC   GL265966   5.941  22.205   6.150
 8490POPC   C1A65967   5.869  22.200   6.450
 8490POPC   D2A65968   5.914  22.137   6.750
 8490POPC   C3A65969   5.826  22.138   7.050
 8490POPC   C4A65970   5.883  22.135   7.350
 8490POPC   C1B65971   6.095  22.328   6.450
 8490POPC   C2B65972   6.099  22.319   6.750
 8490POPC   C3B65973   6.061  22.275   7.050
 8490POPC   C4B65974   6.067  22.265   7.350
 8491POPC   NC365975  24.480  10.504   5.550
 8491POPC   PO465976  24.455  10.483   5.850
 8491POPC   GL165977  24.466  10.480   6.150
 8491POPC   GL265978  24.568  10.432   6.150
 8491POPC   C1A65979  24.463  10.530   6.450
 8491POPC   D2A65980  24.515  10.516   6.750
 8491POPC   C3A65981  24.483  10.505   7.050
 8491POPC   C4A65982  24.446  10.503   7.350
 8491POPC   C1B65983  24.682  10.357   6.450
 8491POPC   C2B65984  24.722  10.417   6.750
 8491POPC   C3B65985  24.701  10.347   7.050
 8491POPC   C4B65986  24.682  10.361   7.350
 8492POPC   NC365987   0.401  35.366   5.550
 8492POPC   PO465988   0.390  35.380   5.850
 8492POPC   GL165989   0.443  35.321   6.150
 8492POPC   GL265990   0.513  35.343   6.150
 8492POPC   C1A65991   0.424  35.375   6.450
 8492POPC   D2A65992   0.457  35.370   6.750
 8492POPC   C3A65993   0.433  35.392   7.050
 8492POPC   C4A65994   0.461  35.314   7.350
 8492POPC   C1B65995   0.732  35.305   6.450
 8492POPC   C2B65996   0.671  35.347   6.750
 8492POPC   C3B65997   0.696  35.307   7.050
 8492POPC   C4B65998   0.730  35.304   7.350
 8493POPC   NC365999  33.034  19.838   5.550
 8493POPC   PO466000  33.013  19.879   5.850
 8493POPC   GL166001  32.988  19.813   6.150
 8493POPC   GL266002  32.976  19.770   6.150
 8493POPC   C1A66003  33.010  19.789   6.450
 8493POPC   D2A66004  33.029  19.797   6.750
 8493POPC   C3A66005  33.005  19.858   7.050
 8493POPC   C4A66006  33.055  19.844   7.350
 8493POPC   C1B66007  32.882  19.633   6.450
 8493POPC   C2B66008  32.835  19.689   6.750
 8493POPC   C3B66009  32.847  19.647   7.050
 8493POPC   C4B66010  32.816  19.696   7.350
 8494POPC   NC366011  33.812   4.310   5.550
 8494POPC   PO466012  33.826   4.324   5.850
 8494POPC   GL166013  33.756   4.365   6.150
 8494POPC   GL266014  33.711   4.237   6.150
 8494POPC   C1A66015  33.826   4.349   6.450
 8494POPC   D2A66016  33.757   4.345   6.750
 8494POPC   C3A66017  33.837   4.335   7.050
 8494POPC   C4A66018  33.770   4.291   7.350
 8494POPC   C1B66019  33.688   4.106   6.450
 8494POPC   C2B66020  33.686   4.073   6.750
 8494POPC   C3B66021  33.680   4.064   7.050
 8494POPC   C4B66022  33.652   4.119   7.350
 8495POPC   NC366023   2.792  33.786   5.550
 8495POPC   PO466024   2.807  33.781   5.850
 8495POPC   GL166025   2.753  33.815   6.150
 8495POPC   GL266026   2.865  33.900   6.150
 8495POPC   C1A66027   2.772  33.760   6.450
 8495POPC   D2A66028   2.795  33.812   6.750
 8495POPC   C3A66029   2.784  33.827   7.050
 8495POPC   C4A66030   2.756  33.801   7.350
 8495POPC   C1B66031   2.947  34.015   6.450
 8495POPC   C2B66032   2.892  34.019   6.750
 8495POPC   C3B66033   2.908  33.981   7.050
 8495POPC   C4B66034   2.938  34.020   7.350
 8496POPC   NC366035  26.863  39.964   5.550
 8496POPC   PO466036  26.845  39.979   5.850
 8496POPC   GL166037  26.850  40.047   6.150
 8496POPC   GL266038  26.803  40.166   6.150
 8496POPC   C1A66039  26.856  39.973   6.450
 8496POPC   D2A66040  26.856  39.973   6.750
 8496POPC   C3A66041  26.820  39.991   7.050
 8496POPC   C4A66042  26.784  39.964   7.350
 8496POPC   C1B66043  26.819  40.221   6.450
 8496POPC   C2B66044  26.786  40.207   6.750
 8496POPC   C3B66045  26.835  40.231   7.050
 8496POPC   C4B66046  26.827  40.252   7.350
 8497POPC   NC366047  24.529  34.545   5.550
 8497POPC   PO466048  24.508  34.626   5.850
 8497POPC   GL166049  24.486  34.550   6.150
 8497POPC   GL266050  24.361  34.460   6.150
 8497POPC   C1A66051  24.520  34.617   6.450
 8497POPC   D2A66052  24.446  34.540   6.750
 8497POPC   C3A66053  24.505  34.575   7.050
 8497POPC   C4A66054  24.443  34.584   7.350
 8497POPC   C1B66055  24.283  34.427   6.450
 8497POPC   C2B66056  24.308  34.422   6.750
 8497POPC   C3B66057  24.261  34.442   7.050
 8497POPC   C4B66058  24.250  34.438   7.350
 8498POPC   NC366059   4.284  23.760   5.550
 8498POPC   PO466060   4.367  23.749   5.850
 8498POPC   GL166061   4.353  23.756   6.150
 8498POPC   GL266062   4.292  23.842   6.150
 8498POPC   C1A66063   4.365  23.708   6.450
 8498POPC   D2A66064   4.291  23.680   6.750
 8498POPC   C3A66065   4.313  23.733   7.050
 8498POPC   C4A66066   4.361  23.732   7.350
 8498POPC   C1B66067   4.258  23.982   6.450
 8498POPC   C2B66068   4.281  23.944   6.750
 8498POPC   C3B66069   4.269  23.961   7.050
 8498POPC   C4B66070   4.320  23.964   7.350
 8499POPC   NC366071  12.861  29.166   5.550
 8499POPC   PO466072  12.894  29.191   5.850
 8499POPC   GL166073  12.865  29.178   6.150
 8499POPC   GL266074  12.824  29.249   6.150
 8499POPC   C1A66075  12.816  29.109   6.450
 8499POPC   D2A66076  12.844  29.179   6.750
 8499POPC   C3A66077  12.850  29.159   7.050
 8499POPC   C4A66078  12.866  29.117   7.350
 8499POPC   C1B66079  12.704  29.329   6.450
 8499POPC   C2B66080  12.669  29.318   6.750
 8499POPC   C3B66081  12.735  29.366   7.050
 8499POPC   C4B66082  12.722  29.320   7.350
 8500POPC   NC366083  26.776  22.925   5.550
 8500POPC   PO466084  26.835  22.958   5.850
 8500POPC   GL166085  26.853  22.975   6.150
 8500POPC   GL266086  26.946  22.867   6.150
 8500POPC   C1A66087  26.836  22.953   6.450
 8500POPC   D2A66088  26.838  22.918   6.750
 8500POPC   C3A66089  26.824  22.960   7.050
 8500POPC   C4A66090  26.802  22.977   7.350
 8500POPC   C1B66091  26.983  22.754   6.450
 8500POPC   C2B66092  27.007  22.795   6.750
 8500POPC   C3B66093  27.037  22.781   7.050
 8500POPC   C4B66094  26.977  22.787   7.350
 8501POPC   NC366095  34.588  10.527   5.550
 8501POPC   PO466096  34.619  10.524   5.850
 8501POPC   GL166097  34.602  10.477   6.150
 8501POPC   GL266098  34.567  10.399   6.150
 8501POPC   C1A66099  34.598  10.482   6.450
 8501POPC   D2A66100  34.553  10.509   6.750
 8501POPC   C3A66101  34.618  10.509   7.050
 8501POPC   C4A66102  34.592  10.554   7.350
 8501POPC   C1B66103  34.606  10.314   6.450
 8501POPC   C2B66104  34.561  10.253   6.750
 8501POPC   C3B66105  34.615  10.282   7.050
 8501POPC   C4B66106  34.583  10.256   7.350
 8502POPC   NC366107  26.838   2.744   5.550
 8502POPC   PO466108  26.770   2.773   5.850
 8502POPC   GL166109  26.797   2.796   6.150
 8502POPC   GL266110  26.715   2.627   6.150
 8502POPC   C1A66111  26.769   2.777   6.450
 8502POPC   D2A66112  26.818   2.783   6.750
 8502POPC   C3A66113  26.817   2.748   7.050
 8502POPC   C4A66114  26.778   2.814   7.350
 8502POPC   C1B66115  26.671   2.528   6.450
 8502POPC   C2B66116  26.711   2.582   6.750
 8502POPC   C3B66117  26.724   2.546   7.050
 8502POPC   C4B66118  26.657   2.533   7.350
 8503POPC   NC366119  13.605  33.800   5.550
 8503POPC   PO466120  13.590  33.836   5.850
 8503POPC   GL166121  13.608  33.789   6.150
 8503POPC   GL266122  13.777  33.797   6.150
 8503POPC   C1A66123  13.590  33.755   6.450
 8503POPC   D2A66124  13.596  33.807   6.750
 8503POPC   C3A66125  13.638  33.790   7.050
 8503POPC   C4A66126  13.633  33.796   7.350
 8503POPC   C1B66127  13.832  33.883   6.450
 8503POPC   C2B66128  13.856  33.870   6.750
 8503POPC   C3B66129  13.846  33.854   7.050
 8503POPC   C4B66130  13.881  33.806   7.350
 8504POPC   NC366131   5.868  32.229   5.550
 8504POPC   PO466132   5.871  32.287   5.850
 8504POPC   GL166133   5.869  32.285   6.150
 8504POPC   GL266134   5.956  32.307   6.150
 8504POPC   C1A66135   5.879  32.246   6.450
 8504POPC   D2A66136   5.881  32.261   6.750
 8504POPC   C3A66137   5.864  32.229   7.050
 8504POPC   C4A66138   5.835  32.251   7.350
 8504POPC   C1B66139   6.096  32.383   6.450
 8504POPC   C2B66140   6.122  32.336   6.750
 8504POPC   C3B66141   6.096  32.430   7.050
 8504POPC   C4B66142   6.119  32.418   7.350
 8505POPC   NC366143  29.922  11.343   5.550
 8505POPC   PO466144  29.897  11.323   5.850
 8505POPC   GL166145  29.939  11.302   6.150
 8505POPC   GL266146  29.872  11.238   6.150
 8505POPC   C1A66147  29.965  11.348   6.450
 8505POPC   D2A66148  29.920  11.267   6.750
 8505POPC   C3A66149  29.966  11.265   7.050
 8505POPC   C4A66150  29.925  11.272   7.350
 8505POPC   C1B66151  29.714  11.130   6.450
 8505POPC   C2B66152  29.709  11.106   6.750
 8505POPC   C3B66153  29.697  11.100   7.050
 8505POPC   C4B66154  29.701  11.146   7.350
 8506POPC   NC366155   5.872   5.064   5.550
 8506POPC   PO466156   5.855   5.068   5.850
 8506POPC   GL166157   5.850   5.117   6.150
 8506POPC   GL266158   5.898   5.187   6.150
 8506POPC   C1A66159   5.836   5.101   6.450
 8506POPC   D2A66160   5.861   5.078   6.750
 8506POPC   C3A66161   5.918   5.141   7.050
 8506POPC   C4A66162   5.885   5.100   7.350
 8506POPC   C1B66163   6.017   5.324   6.450
 8506POPC   C2B66164   5.988   5.338   6.750
 8506POPC   C3B66165   5.987   5.327   7.050
 8506POPC   C4B66166   5.964   5.326   7.350
 8507POPC   NC366167  44.671  16.756   5.550
 8507POPC   PO466168  44.628  16.718   5.850
 8507POPC   GL166169  44.660  16.682   6.150
 8507POPC   GL266170  44.800  16.750   6.150
 8507POPC   C1A66171  44.697  16.697   6.450
 8507POPC   D2A66172  44.692  16.726   6.750
 8507POPC   C3A66173  44.624  16.736   7.050
 8507POPC   C4A66174  44.613  16.734   7.350
 8507POPC   C1B66175  44.889  16.707   6.450
 8507POPC   C2B66176  44.933  16.743   6.750
 8507POPC   C3B66177  44.866  16.749   7.050
 8507POPC   C4B66178  44.882  16.705   7.350
 8508POPC   NC366179  15.954  26.786   5.550
 8508POPC   PO466180  15.984  26.793   5.850
 8508POPC   GL166181  15.986  26.827   6.150
 8508POPC   GL266182  15.808  26.749   6.150
 8508POPC   C1A66183  15.967  26.785   6.450
 8508POPC   D2A66184  15.937  26.796   6.750
 8508POPC   C3A66185  15.915  26.788   7.050
 8508POPC   C4A66186  15.947  26.809   7.350
 8508POPC   C1B66187  15.704  26.654   6.450
 8508POPC   C2B66188  15.760  26.708   6.750
 8508POPC   C3B66189  15.720  26.696   7.050
 8508POPC   C4B66190  15.690  26.727   7.350
 8509POPC   NC366191  16.781  19.832   5.550
 8509POPC   PO466192  16.682  19.794   5.850
 8509POPC   GL166193  16.736  19.821   6.150
 8509POPC   GL266194  16.858  19.735   6.150
 8509POPC   C1A66195  16.696  19.791   6.450
 8509POPC   D2A66196  16.738  19.869   6.750
 8509POPC   C3A66197  16.695  19.839   7.050
 8509POPC   C4A66198  16.742  19.872   7.350
 8509POPC   C1B66199  16.933  19.705   6.450
 8509POPC   C2B66200  16.898  19.720   6.750
 8509POPC   C3B66201  16.924  19.664   7.050
 8509POPC   C4B66202  16.879  19.629   7.350
 8510POPC   NC366203  23.705  31.441   5.550
 8510POPC   PO466204  23.690  31.438   5.850
 8510POPC   GL166205  23.693  31.501   6.150
 8510POPC   GL266206  23.849  31.364   6.150
 8510POPC   C1A66207  23.712  31.474   6.450
 8510POPC   D2A66208  23.733  31.477   6.750
 8510POPC   C3A66209  23.756  31.453   7.050
 8510POPC   C4A66210  23.732  31.507   7.350
 8510POPC   C1B66211  23.923  31.336   6.450
 8510POPC   C2B66212  23.948  31.338   6.750
 8510POPC   C3B66213  23.910  31.371   7.050
 8510POPC   C4B66214  23.968  31.362   7.350
 8511POPC   NC366215  29.108  15.944   5.550
 8511POPC   PO466216  29.151  15.972   5.850
 8511POPC   GL166217  29.162  15.991   6.150
 8511POPC   GL266218  29.265  15.869   6.150
 8511POPC   C1A66219  29.183  15.965   6.450
 8511POPC   D2A66220  29.139  15.971   6.750
 8511POPC   C3A66221  29.180  15.922   7.050
 8511POPC   C4A66222  29.149  15.950   7.350
 8511POPC   C1B66223  29.332  15.849   6.450
 8511POPC   C2B66224  29.354  15.763   6.750
 8511POPC   C3B66225  29.387  15.850   7.050
 8511POPC   C4B66226  29.367  15.823   7.350
 8512POPC   NC366227  36.873   1.218   5.550
 8512POPC   PO466228  36.861   1.204   5.850
 8512POPC   GL166229  36.947   1.193   6.150
 8512POPC   GL266230  36.855   1.076   6.150
 8512POPC   C1A66231  36.951   1.197   6.450
 8512POPC   D2A66232  36.932   1.222   6.750
 8512POPC   C3A66233  36.893   1.168   7.050
 8512POPC   C4A66234  36.946   1.263   7.350
 8512POPC   C1B66235  36.850   0.931   6.450
 8512POPC   C2B66236  36.872   0.945   6.750
 8512POPC   C3B66237  36.890   0.956   7.050
 8512POPC   C4B66238  36.838   1.011   7.350
 8513POPC   NC366239   6.692  16.685   5.550
 8513POPC   PO466240   6.649  16.767   5.850
 8513POPC   GL166241   6.609  16.781   6.150
 8513POPC   GL266242   6.614  16.820   6.150
 8513POPC   C1A66243   6.675  16.701   6.450
 8513POPC   D2A66244   6.663  16.696   6.750
 8513POPC   C3A66245   6.630  16.683   7.050
 8513POPC   C4A66246   6.681  16.723   7.350
 8513POPC   C1B66247   6.550  16.952   6.450
 8513POPC   C2B66248   6.526  16.956   6.750
 8513POPC   C3B66249   6.562  16.903   7.050
 8513POPC   C4B66250   6.463  16.977   7.350
 8514POPC   NC366251  36.158  12.806   5.550
 8514POPC   PO466252  36.134  12.881   5.850
 8514POPC   GL166253  36.132  12.824   6.150
 8514POPC   GL266254  36.113  12.773   6.150
 8514POPC   C1A66255  36.155  12.880   6.450
 8514POPC   D2A66256  36.108  12.865   6.750
 8514POPC   C3A66257  36.102  12.848   7.050
 8514POPC   C4A66258  36.087  12.854   7.350
 8514POPC   C1B66259  36.073  12.615   6.450
 8514POPC   C2B66260  36.069  12.654   6.750
 8514POPC   C3B66261  36.036  12.570   7.050
 8514POPC   C4B66262  36.087  12.598   7.350
 8515POPC   NC366263  25.314  20.599   5.550
 8515POPC   PO466264  25.245  20.625   5.850
 8515POPC   GL166265  25.267  20.576   6.150
 8515POPC   GL266266  25.124  20.643   6.150
 8515POPC   C1A66267  25.314  20.651   6.450
 8515POPC   D2A66268  25.286  20.610   6.750
 8515POPC   C3A66269  25.241  20.636   7.050
 8515POPC   C4A66270  25.257  20.633   7.350
 8515POPC   C1B66271  25.066  20.661   6.450
 8515POPC   C2B66272  25.033  20.746   6.750
 8515POPC   C3B66273  25.030  20.667   7.050
 8515POPC   C4B66274  25.037  20.671   7.350
 8516POPC   NC366275   8.925  41.554   5.550
 8516POPC   PO466276   8.934  41.582   5.850
 8516POPC   GL166277   8.959  41.553   6.150
 8516POPC   GL266278   9.021  41.429   6.150
 8516POPC   C1A66279   8.983  41.512   6.450
 8516POPC   D2A66280   8.965  41.539   6.750
 8516POPC   C3A66281   8.958  41.587   7.050
 8516POPC   C4A66282   8.923  41.563   7.350
 8516POPC   C1B66283   9.111  41.382   6.450
 8516POPC   C2B66284   9.088  41.308   6.750
 8516POPC   C3B66285   9.051  41.291   7.050
 8516POPC   C4B66286   9.051  41.318   7.350
 8517POPC   NC366287   9.792   5.068   5.550
 8517POPC   PO466288   9.737   5.113   5.850
 8517POPC   GL166289   9.701   5.134   6.150
 8517POPC   GL266290   9.909   5.049   6.150
 8517POPC   C1A66291   9.776   5.116   6.450
 8517POPC   D2A66292   9.712   5.127   6.750
 8517POPC   C3A66293   9.795   5.090   7.050
 8517POPC   C4A66294   9.716   5.060   7.350
 8517POPC   C1B66295   9.972   5.059   6.450
 8517POPC   C2B66296  10.010   5.069   6.750
 8517POPC   C3B66297  10.029   5.102   7.050
 8517POPC   C4B66298   9.986   5.078   7.350
 8518POPC   NC366299  20.626   6.667   5.550
 8518POPC   PO466300  20.620   6.638   5.850
 8518POPC   GL166301  20.624   6.639   6.150
 8518POPC   GL266302  20.556   6.583   6.150
 8518POPC   C1A66303  20.587   6.693   6.450
 8518POPC   D2A66304  20.575   6.652   6.750
 8518POPC   C3A66305  20.617   6.623   7.050
 8518POPC   C4A66306  20.612   6.674   7.350
 8518POPC   C1B66307  20.415   6.495   6.450
 8518POPC   C2B66308  20.438   6.501   6.750
 8518POPC   C3B66309  20.448   6.467   7.050
 8518POPC   C4B66310  20.397   6.521   7.350
 8519POPC   NC366311  26.784  18.278   5.550
 8519POPC   PO466312  26.866  18.277   5.850
 8519POPC   GL166313  26.856  18.239   6.150
 8519POPC   GL266314  26.871  18.178   6.150
 8519POPC   C1A66315  26.814  18.282   6.450
 8519POPC   D2A66316  26.862  18.315   6.750
 8519POPC   C3A66317  26.785  18.256   7.050
 8519POPC   C4A66318  26.840  18.294   7.350
 8519POPC   C1B66319  26.883  18.094   6.450
 8519POPC   C2B66320  26.965  18.062   6.750
 8519POPC   C3B66321  26.957  18.090   7.050
 8519POPC   C4B66322  26.916  18.046   7.350
 8520POPC   NC366323   5.073  10.561   5.550
 8520POPC   PO466324   5.128  10.529   5.850
 8520POPC   GL166325   5.114  10.507   6.150
 8520POPC   GL266326   5.124  10.694   6.150
 8520POPC   C1A66327   5.100  10.508   6.450
 8520POPC   D2A66328   5.044  10.479   6.750
 8520POPC   C3A66329   5.071  10.485   7.050
 8520POPC   C4A66330   5.109  10.559   7.350
 8520POPC   C1B66331   5.027  10.753   6.450
 8520POPC   C2B66332   5.061  10.748   6.750
 8520POPC   C3B66333   5.050  10.732   7.050
 8520POPC   C4B66334   5.057  10.803   7.350
 8521POPC   NC366335  14.385   9.715   5.550
 8521POPC   PO466336  14.414   9.731   5.850
 8521POPC   GL166337  14.417   9.797   6.150
 8521POPC   GL266338  14.268   9.701   6.150
 8521POPC   C1A66339  14.372   9.699   6.450
 8521POPC   D2A66340  14.402   9.784   6.750
 8521POPC   C3A66341  14.365   9.722   7.050
 8521POPC   C4A66342  14.434   9.771   7.350
 8521POPC   C1B66343  14.196   9.595   6.450
 8521POPC   C2B66344  14.199   9.619   6.750
 8521POPC   C3B66345  14.240   9.621   7.050
 8521POPC   C4B66346  14.223   9.607   7.350
 8522POPC   NC366347  29.183  29.909   5.550
 8522POPC   PO466348  29.115  29.944   5.850
 8522POPC   GL166349  29.125  29.884   6.150
 8522POPC   GL266350  29.225  29.997   6.150
 8522POPC   C1A66351  29.144  29.902   6.450
 8522POPC   D2A66352  29.155  29.892   6.750
 8522POPC   C3A66353  29.099  29.924   7.050
 8522POPC   C4A66354  29.135  29.950   7.350
 8522POPC   C1B66355  29.227  30.177   6.450
 8522POPC   C2B66356  29.192  30.190   6.750
 8522POPC   C3B66357  29.220  30.112   7.050
 8522POPC   C4B66358  29.272  30.204   7.350
 8523POPC   NC366359   4.297  19.026   5.550
 8523POPC   PO466360   4.348  19.043   5.850
 8523POPC   GL166361   4.339  19.097   6.150
 8523POPC   GL266362   4.215  18.950   6.150
 8523POPC   C1A66363   4.352  19.020   6.450
 8523POPC   D2A66364   4.281  19.047   6.750
 8523POPC   C3A66365   4.318  19.048   7.050
 8523POPC   C4A66366   4.312  19.101   7.350
 8523POPC   C1B66367   4.133  18.879   6.450
 8523POPC   C2B66368   4.120  18.893   6.750
 8523POPC   C3B66369   4.203  18.850   7.050
 8523POPC   C4B66370   4.215  18.903   7.350
 8524POPC   NC366371   4.319  35.307   5.550
 8524POPC   PO466372   4.329  35.347   5.850
 8524POPC   GL166373   4.280  35.348   6.150
 8524POPC   GL266374   4.404  35.427   6.150
 8524POPC   C1A66375   4.327  35.371   6.450
 8524POPC   D2A66376   4.281  35.396   6.750
 8524POPC   C3A66377   4.302  35.371   7.050
 8524POPC   C4A66378   4.365  35.339   7.350
 8524POPC   C1B66379   4.404  35.597   6.450
 8524POPC   C2B66380   4.403  35.624   6.750
 8524POPC   C3B66381   4.385  35.633   7.050
 8524POPC   C4B66382   4.399  35.582   7.350
 8525POPC   NC366383  30.647   1.250   5.550
 8525POPC   PO466384  30.658   1.200   5.850
 8525POPC   GL166385  30.653   1.230   6.150
 8525POPC   GL266386  30.826   1.346   6.150
 8525POPC   C1A66387  30.744   1.176   6.450
 8525POPC   D2A66388  30.724   1.239   6.750
 8525POPC   C3A66389  30.702   1.181   7.050
 8525POPC   C4A66390  30.723   1.171   7.350
 8525POPC   C1B66391  30.882   1.402   6.450
 8525POPC   C2B66392  30.817   1.451   6.750
 8525POPC   C3B66393  30.872   1.408   7.050
 8525POPC   C4B66394  30.846   1.395   7.350
 8526POPC   NC366395  27.600  36.090   5.550
 8526POPC   PO466396  27.608  36.100   5.850
 8526POPC   GL166397  27.623  36.116   6.150
 8526POPC   GL266398  27.634  36.074   6.150
 8526POPC   C1A66399  27.629  36.152   6.450
 8526POPC   D2A66400  27.566  36.159   6.750
 8526POPC   C3A66401  27.606  36.092   7.050
 8526POPC   C4A66402  27.639  36.153   7.350
 8526POPC   C1B66403  27.697  35.880   6.450
 8526POPC   C2B66404  27.764  35.935   6.750
 8526POPC   C3B66405  27.725  35.900   7.050
 8526POPC   C4B66406  27.708  35.938   7.350
 8527POPC   NC366407  11.303  39.265   5.550
 8527POPC   PO466408  11.251  39.248   5.850
 8527POPC   GL166409  11.315  39.253   6.150
 8527POPC   GL266410  11.408  39.214   6.150
 8527POPC   C1A66411  11.341  39.201   6.450
 8527POPC   D2A66412  11.280  39.221   6.750
 8527POPC   C3A66413  11.319  39.272   7.050
 8527POPC   C4A66414  11.260  39.195   7.350
 8527POPC   C1B66415  11.510  39.094   6.450
 8527POPC   C2B66416  11.540  39.064   6.750
 8527POPC   C3B66417  11.537  39.120   7.050
 8527POPC   C4B66418  11.517  39.108   7.350
 8528POPC   NC366419   1.942   2.032   5.550
 8528POPC   PO466420   1.957   1.948   5.850
 8528POPC   GL166421   1.987   2.004   6.150
 8528POPC   GL266422   1.906   1.967   6.150
 8528POPC   C1A66423   2.033   1.953   6.450
 8528POPC   D2A66424   1.947   1.994   6.750
 8528POPC   C3A66425   1.953   1.974   7.050
 8528POPC   C4A66426   1.963   1.955   7.350
 8528POPC   C1B66427   1.780   1.912   6.450
 8528POPC   C2B66428   1.750   1.923   6.750
 8528POPC   C3B66429   1.748   1.881   7.050
 8528POPC   C4B66430   1.723   1.927   7.350
 8529POPC   NC366431  29.875  17.510   5.550
 8529POPC   PO466432  29.875  17.519   5.850
 8529POPC   GL166433  29.918  17.479   6.150
 8529POPC   GL266434  29.904  17.355   6.150
 8529POPC   C1A66435  29.916  17.485   6.450
 8529POPC   D2A66436  29.899  17.552   6.750
 8529POPC   C3A66437  29.918  17.551   7.050
 8529POPC   C4A66438  29.897  17.499   7.350
 8529POPC   C1B66439  29.802  17.315   6.450
 8529POPC   C2B66440  29.792  17.259   6.750
 8529POPC   C3B66441  29.834  17.268   7.050
 8529POPC   C4B66442  29.803  17.323   7.350
 8530POPC   NC366443   9.701  28.358   5.550
 8530POPC   PO466444   9.724  28.360   5.850
 8530POPC   GL166445   9.746  28.331   6.150
 8530POPC   GL266446   9.798  28.223   6.150
 8530POPC   C1A66447   9.706  28.341   6.450
 8530POPC   D2A66448   9.785  28.412   6.750
 8530POPC   C3A66449   9.724  28.376   7.050
 8530POPC   C4A66450   9.735  28.345   7.350
 8530POPC   C1B66451   9.860  28.134   6.450
 8530POPC   C2B66452   9.793  28.179   6.750
 8530POPC   C3B66453   9.821  28.125   7.050
 8530POPC   C4B66454   9.851  28.160   7.350
 8531POPC   NC366455  41.586   8.245   5.550
 8531POPC   PO466456  41.590   8.189   5.850
 8531POPC   GL166457  41.603   8.152   6.150
 8531POPC   GL266458  41.459   8.294   6.150
 8531POPC   C1A66459  41.519   8.185   6.450
 8531POPC   D2A66460  41.571   8.174   6.750
 8531POPC   C3A66461  41.545   8.230   7.050
 8531POPC   C4A66462  41.555   8.181   7.350
 8531POPC   C1B66463  41.369   8.386   6.450
 8531POPC   C2B66464  41.374   8.352   6.750
 8531POPC   C3B66465  41.363   8.394   7.050
 8531POPC   C4B66466  41.396   8.402   7.350
 8532POPC   NC366467  11.331   6.693   5.550
 8532POPC   PO466468  11.292   6.665   5.850
 8532POPC   GL166469  11.307   6.649   6.150
 8532POPC   GL266470  11.283   6.573   6.150
 8532POPC   C1A66471  11.312   6.604   6.450
 8532POPC   D2A66472  11.314   6.644   6.750
 8532POPC   C3A66473  11.252   6.644   7.050
 8532POPC   C4A66474  11.295   6.629   7.350
 8532POPC   C1B66475  11.258   6.384   6.450
 8532POPC   C2B66476  11.208   6.407   6.750
 8532POPC   C3B66477  11.209   6.397   7.050
 8532POPC   C4B66478  11.196   6.437   7.350
 8533POPC   NC366479  19.012  31.453   5.550
 8533POPC   PO466480  19.100  31.507   5.850
 8533POPC   GL166481  19.063  31.478   6.150
 8533POPC   GL266482  19.217  31.409   6.150
 8533POPC   C1A66483  19.054  31.497   6.450
 8533POPC   D2A66484  19.051  31.464   6.750
 8533POPC   C3A66485  19.067  31.433   7.050
 8533POPC   C4A66486  19.074  31.495   7.350
 8533POPC   C1B66487  19.316  31.467   6.450
 8533POPC   C2B66488  19.304  31.419   6.750
 8533POPC   C3B66489  19.322  31.471   7.050
 8533POPC   C4B66490  19.324  31.447   7.350
 8534POPC   NC366491   3.512   4.279   5.550
 8534POPC   PO466492   3.576   4.310   5.850
 8534POPC   GL166493   3.524   4.348   6.150
 8534POPC   GL266494   3.643   4.396   6.150
 8534POPC   C1A66495   3.589   4.273   6.450
 8534POPC   D2A66496   3.538   4.320   6.750
 8534POPC   C3A66497   3.588   4.347   7.050
 8534POPC   C4A66498   3.561   4.289   7.350
 8534POPC   C1B66499   3.761   4.416   6.450
 8534POPC   C2B66500   3.812   4.394   6.750
 8534POPC   C3B66501   3.745   4.418   7.050
 8534POPC   C4B66502   3.803   4.421   7.350
 8535POPC   NC366503  27.566  19.792   5.550
 8535POPC   PO466504  27.590  19.865   5.850
 8535POPC   GL166505  27.608  19.847   6.150
 8535POPC   GL266506  27.517  19.896   6.150
 8535POPC   C1A66507  27.543  19.882   6.450
 8535POPC   D2A66508  27.619  19.821   6.750
 8535POPC   C3A66509  27.643  19.858   7.050
 8535POPC   C4A66510  27.554  19.790   7.350
 8535POPC   C1B66511  27.426  20.073   6.450
 8535POPC   C2B66512  27.447  19.982   6.750
 8535POPC   C3B66513  27.392  20.057   7.050
 8535POPC   C4B66514  27.381  20.049   7.350
 8536POPC   NC366515  31.478  37.681   5.550
 8536POPC   PO466516  31.472  37.680   5.850
 8536POPC   GL166517  31.442  37.677   6.150
 8536POPC   GL266518  31.422  37.602   6.150
 8536POPC   C1A66519  31.440  37.659   6.450
 8536POPC   D2A66520  31.508  37.714   6.750
 8536POPC   C3A66521  31.470  37.705   7.050
 8536POPC   C4A66522  31.471  37.674   7.350
 8536POPC   C1B66523  31.396  37.441   6.450
 8536POPC   C2B66524  31.345  37.393   6.750
 8536POPC   C3B66525  31.358  37.476   7.050
 8536POPC   C4B66526  31.421  37.429   7.350
 8537POPC   NC366527   8.198  24.489   5.550
 8537POPC   PO466528   8.222  24.477   5.850
 8537POPC   GL166529   8.166  24.512   6.150
 8537POPC   GL266530   8.108  24.571   6.150
 8537POPC   C1A66531   8.237  24.518   6.450
 8537POPC   D2A66532   8.208  24.529   6.750
 8537POPC   C3A66533   8.245  24.527   7.050
 8537POPC   C4A66534   8.228  24.512   7.350
 8537POPC   C1B66535   7.959  24.625   6.450
 8537POPC   C2B66536   7.952  24.642   6.750
 8537POPC   C3B66537   7.947  24.580   7.050
 8537POPC   C4B66538   7.941  24.626   7.350
 8538POPC   NC366539  36.887  44.700   5.550
 8538POPC   PO466540  36.946  44.637   5.850
 8538POPC   GL166541  36.875  44.647   6.150
 8538POPC   GL266542  36.850  44.788   6.150
 8538POPC   C1A66543  36.854  44.632   6.450
 8538POPC   D2A66544  36.949  44.700   6.750
 8538POPC   C3A66545  36.931  44.636   7.050
 8538POPC   C4A66546  36.951  44.703   7.350
 8538POPC   C1B66547  36.843  44.935   6.450
 8538POPC   C2B66548  36.825  44.880   6.750
 8538POPC   C3B66549  36.842  44.889   7.050
 8538POPC   C4B66550  36.896  44.876   7.350
 8539POPC   NC366551  19.854  33.063   5.550
 8539POPC   PO466552  19.863  33.051   5.850
 8539POPC   GL166553  19.802  33.002   6.150
 8539POPC   GL266554  19.784  33.081   6.150
 8539POPC   C1A66555  19.878  32.976   6.450
 8539POPC   D2A66556  19.880  32.984   6.750
 8539POPC   C3A66557  19.807  33.030   7.050
 8539POPC   C4A66558  19.786  33.036   7.350
 8539POPC   C1B66559  19.695  33.198   6.450
 8539POPC   C2B66560  19.713  33.208   6.750
 8539POPC   C3B66561  19.706  33.232   7.050
 8539POPC   C4B66562  19.724  33.172   7.350
 8540POPC   NC366563  40.787  13.602   5.550
 8540POPC   PO466564  40.746  13.602   5.850
 8540POPC   GL166565  40.776  13.611   6.150
 8540POPC   GL266566  40.716  13.766   6.150
 8540POPC   C1A66567  40.829  13.601   6.450
 8540POPC   D2A66568  40.764  13.580   6.750
 8540POPC   C3A66569  40.831  13.649   7.050
 8540POPC   C4A66570  40.830  13.600   7.350
 8540POPC   C1B66571  40.612  13.858   6.450
 8540POPC   C2B66572  40.648  13.810   6.750
 8540POPC   C3B66573  40.647  13.818   7.050
 8540POPC   C4B66574  40.647  13.817   7.350
 8541POPC   NC366575  23.702  26.052   5.550
 8541POPC   PO466576  23.693  26.082   5.850
 8541POPC   GL166577  23.687  26.072   6.150
 8541POPC   GL266578  23.746  25.919   6.150
 8541POPC   C1A66579  23.694  26.026   6.450
 8541POPC   D2A66580  23.695  26.027   6.750
 8541POPC   C3A66581  23.690  26.070   7.050
 8541POPC   C4A66582  23.726  26.031   7.350
 8541POPC   C1B66583  23.699  25.782   6.450
 8541POPC   C2B66584  23.691  25.815   6.750
 8541POPC   C3B66585  23.650  25.820   7.050
 8541POPC   C4B66586  23.714  25.825   7.350
 8542POPC   NC366587   9.774  31.451   5.550
 8542POPC   PO466588   9.768  31.470   5.850
 8542POPC   GL166589   9.757  31.440   6.150
 8542POPC   GL266590   9.861  31.402   6.150
 8542POPC   C1A66591   9.749  31.519   6.450
 8542POPC   D2A66592   9.782  31.435   6.750
 8542POPC   C3A66593   9.720  31.424   7.050
 8542POPC   C4A66594   9.725  31.432   7.350
 8542POPC   C1B66595   9.967  31.292   6.450
 8542POPC   C2B66596   9.940  31.257   6.750
 8542POPC   C3B66597   9.882  31.345   7.050
 8542POPC   C4B66598   9.913  31.265   7.350
 8543POPC   NC366599  13.599  14.396   5.550
 8543POPC   PO466600  13.670  14.427   5.850
 8543POPC   GL166601  13.647  14.442   6.150
 8543POPC   GL266602  13.706  14.396   6.150
 8543POPC   C1A66603  13.604  14.445   6.450
 8543POPC   D2A66604  13.639  14.425   6.750
 8543POPC   C3A66605  13.654  14.379   7.050
 8543POPC   C4A66606  13.622  14.381   7.350
 8543POPC   C1B66607  13.896  14.458   6.450
 8543POPC   C2B66608  13.826  14.456   6.750
 8543POPC   C3B66609  13.836  14.474   7.050
 8543POPC   C4B66610  13.893  14.415   7.350
 8544POPC   NC366611  14.431  14.425   5.550
 8544POPC   PO466612  14.401  14.440   5.850
 8544POPC   GL166613  14.378  14.388   6.150
 8544POPC   GL266614  14.378  14.311   6.150
 8544POPC   C1A66615  14.447  14.392   6.450
 8544POPC   D2A66616  14.382  14.400   6.750
 8544POPC   C3A66617  14.394  14.372   7.050
 8544POPC   C4A66618  14.424  14.387   7.350
 8544POPC   C1B66619  14.283  14.195   6.450
 8544POPC   C2B66620  14.273  14.156   6.750
 8544POPC   C3B66621  14.290  14.133   7.050
 8544POPC   C4B66622  14.358  14.177   7.350
 8545POPC   NC366623  39.997  13.588   5.550
 8545POPC   PO466624  39.984  13.579   5.850
 8545POPC   GL166625  39.992  13.626   6.150
 8545POPC   GL266626  40.038  13.743   6.150
 8545POPC   C1A66627  39.992  13.652   6.450
 8545POPC   D2A66628  40.029  13.595   6.750
 8545POPC   C3A66629  39.983  13.632   7.050
 8545POPC   C4A66630  39.963  13.676   7.350
 8545POPC   C1B66631  40.122  13.849   6.450
 8545POPC   C2B66632  40.094  13.881   6.750
 8545POPC   C3B66633  40.058  13.849   7.050
 8545POPC   C4B66634  40.061  13.855   7.350
 8546POPC   NC366635  11.329  34.558   5.550
 8546POPC   PO466636  11.342  34.616   5.850
 8546POPC   GL166637  11.293  34.600   6.150
 8546POPC   GL266638  11.360  34.677   6.150
 8546POPC   C1A66639  11.344  34.574   6.450
 8546POPC   D2A66640  11.308  34.573   6.750
 8546POPC   C3A66641  11.315  34.623   7.050
 8546POPC   C4A66642  11.345  34.558   7.350
 8546POPC   C1B66643  11.422  34.734   6.450
 8546POPC   C2B66644  11.478  34.765   6.750
 8546POPC   C3B66645  11.438  34.746   7.050
 8546POPC   C4B66646  11.409  34.769   7.350
 8547POPC   NC366647   6.653  30.732   5.550
 8547POPC   PO466648   6.625  30.656   5.850
 8547POPC   GL166649   6.608  30.731   6.150
 8547POPC   GL266650   6.771  30.714   6.150
 8547POPC   C1A66651   6.673  30.700   6.450
 8547POPC   D2A66652   6.645  30.742   6.750
 8547POPC   C3A66653   6.648  30.735   7.050
 8547POPC   C4A66654   6.604  30.716   7.350
 8547POPC   C1B66655   6.869  30.721   6.450
 8547POPC   C2B66656   6.919  30.793   6.750
 8547POPC   C3B66657   6.917  30.791   7.050
 8547POPC   C4B66658   6.838  30.805   7.350
 8548POPC   NC366659  40.749  18.270   5.550
 8548POPC   PO466660  40.795  18.273   5.850
 8548POPC   GL166661  40.812  18.283   6.150
 8548POPC   GL266662  40.815  18.426   6.150
 8548POPC   C1A66663  40.734  18.314   6.450
 8548POPC   D2A66664  40.821  18.289   6.750
 8548POPC   C3A66665  40.814  18.236   7.050
 8548POPC   C4A66666  40.766  18.305   7.350
 8548POPC   C1B66667  40.778  18.531   6.450
 8548POPC   C2B66668  40.798  18.553   6.750
 8548POPC   C3B66669  40.834  18.500   7.050
 8548POPC   C4B66670  40.778  18.536   7.350
 8549POPC   NC366671   4.343  26.788   5.550
 8549POPC   PO466672   4.353  26.772   5.850
 8549POPC   GL166673   4.362  26.802   6.150
 8549POPC   GL266674   4.301  26.658   6.150
 8549POPC   C1A66675   4.366  26.858   6.450
 8549POPC   D2A66676   4.334  26.816   6.750
 8549POPC   C3A66677   4.360  26.830   7.050
 8549POPC   C4A66678   4.268  26.768   7.350
 8549POPC   C1B66679   4.334  26.563   6.450
 8549POPC   C2B66680   4.267  26.526   6.750
 8549POPC   C3B66681   4.335  26.540   7.050
 8549POPC   C4B66682   4.270  26.545   7.350
 8550POPC   NC366683  23.727   8.985   5.550
 8550POPC   PO466684  23.690   8.971   5.850
 8550POPC   GL166685  23.676   8.942   6.150
 8550POPC   GL266686  23.741   9.132   6.150
 8550POPC   C1A66687  23.730   9.021   6.450
 8550POPC   D2A66688  23.763   8.985   6.750
 8550POPC   C3A66689  23.681   8.951   7.050
 8550POPC   C4A66690  23.761   8.936   7.350
 8550POPC   C1B66691  23.774   9.207   6.450
 8550POPC   C2B66692  23.764   9.172   6.750
 8550POPC   C3B66693  23.744   9.181   7.050
 8550POPC   C4B66694  23.768   9.259   7.350
 8551POPC   NC366695  36.929  15.200   5.550
 8551POPC   PO466696  36.952  15.219   5.850
 8551POPC   GL166697  36.894  15.174   6.150
 8551POPC   GL266698  36.937  15.017   6.150
 8551POPC   C1A66699  36.953  15.163   6.450
 8551POPC   D2A66700  36.953  15.175   6.750
 8551POPC   C3A66701  36.927  15.228   7.050
 8551POPC   C4A66702  36.871  15.223   7.350
 8551POPC   C1B66703  36.975  14.947   6.450
 8551POPC   C2B66704  37.031  14.952   6.750
 8551POPC   C3B66705  36.998  14.930   7.050
 8551POPC   C4B66706  37.004  14.996   7.350
 8552POPC   NC366707   1.210  30.655   5.550
 8552POPC   PO466708   1.166  30.660   5.850
 8552POPC   GL166709   1.201  30.652   6.150
 8552POPC   GL266710   1.075  30.630   6.150
 8552POPC   C1A66711   1.173  30.692   6.450
 8552POPC   D2A66712   1.230  30.649   6.750
 8552POPC   C3A66713   1.219  30.703   7.050
 8552POPC   C4A66714   1.234  30.676   7.350
 8552POPC   C1B66715   0.944  30.621   6.450
 8552POPC   C2B66716   0.977  30.657   6.750
 8552POPC   C3B66717   1.018  30.571   7.050
 8552POPC   C4B66718   0.940  30.651   7.350
 8553POPC   NC366719  22.917  13.634   5.550
 8553POPC   PO466720  22.954  13.669   5.850
 8553POPC   GL166721  22.967  13.635   6.150
 8553POPC   GL266722  23.008  13.573   6.150
 8553POPC   C1A66723  22.974  13.596   6.450
 8553POPC   D2A66724  22.944  13.660   6.750
 8553POPC   C3A66725  22.973  13.676   7.050
 8553POPC   C4A66726  22.909  13.640   7.350
 8553POPC   C1B66727  23.220  13.535   6.450
 8553POPC   C2B66728  23.123  13.542   6.750
 8553POPC   C3B66729  23.206  13.494   7.050
 8553POPC   C4B66730  23.203  13.586   7.350
 8554POPC   NC366731  19.042  34.618   5.550
 8554POPC   PO466732  19.020  34.557   5.850
 8554POPC   GL166733  19.011  34.569   6.150
 8554POPC   GL266734  19.139  34.607   6.150
 8554POPC   C1A66735  19.088  34.594   6.450
 8554POPC   D2A66736  19.019  34.533   6.750
 8554POPC   C3A66737  19.033  34.609   7.050
 8554POPC   C4A66738  19.099  34.537   7.350
 8554POPC   C1B66739  19.270  34.553   6.450
 8554POPC   C2B66740  19.293  34.548   6.750
 8554POPC   C3B66741  19.273  34.526   7.050
 8554POPC   C4B66742  19.294  34.596   7.350
 8555POPC   NC366743  36.856   2.769   5.550
 8555POPC   PO466744  36.946   2.756   5.850
 8555POPC   GL166745  36.870   2.716   6.150
 8555POPC   GL266746  36.965   2.632   6.150
 8555POPC   C1A66747  36.920   2.747   6.450
 8555POPC   D2A66748  36.874   2.728   6.750
 8555POPC   C3A66749  36.926   2.779   7.050
 8555POPC   C4A66750  36.893   2.717   7.350
 8555POPC   C1B66751  37.062   2.532   6.450
 8555POPC   C2B66752  37.066   2.580   6.750
 8555POPC   C3B66753  37.034   2.584   7.050
 8555POPC   C4B66754  37.067   2.542   7.350
 8556POPC   NC366755  31.427  29.944   5.550
 8556POPC   PO466756  31.516  29.882   5.850
 8556POPC   GL166757  31.504  29.933   6.150
 8556POPC   GL266758  31.350  30.000   6.150
 8556POPC   C1A66759  31.452  29.951   6.450
 8556POPC   D2A66760  31.425  29.961   6.750
 8556POPC   C3A66761  31.426  29.916   7.050
 8556POPC   C4A66762  31.432  29.916   7.350
 8556POPC   C1B66763  31.360  30.095   6.450
 8556POPC   C2B66764  31.292  30.151   6.750
 8556POPC   C3B66765  31.286  30.108   7.050
 8556POPC   C4B66766  31.367  30.113   7.350
 8557POPC   NC366767   7.443  19.834   5.550
 8557POPC   PO466768   7.449  19.850   5.850
 8557POPC   GL166769   7.403  19.833   6.150
 8557POPC   GL266770   7.291  19.852   6.150
 8557POPC   C1A66771   7.407  19.871   6.450
 8557POPC   D2A66772   7.387  19.869   6.750
 8557POPC   C3A66773   7.375  19.840   7.050
 8557POPC   C4A66774   7.415  19.861   7.350
 8557POPC   C1B66775   7.200  19.797   6.450
 8557POPC   C2B66776   7.192  19.820   6.750
 8557POPC   C3B66777   7.129  19.855   7.050
 8557POPC   C4B66778   7.169  19.821   7.350
 8558POPC   NC366779  26.799  36.876   5.550
 8558POPC   PO466780  26.806  36.937   5.850
 8558POPC   GL166781  26.864  36.888   6.150
 8558POPC   GL266782  26.745  37.016   6.150
 8558POPC   C1A66783  26.808  36.951   6.450
 8558POPC   D2A66784  26.832  36.897   6.750
 8558POPC   C3A66785  26.773  36.882   7.050
 8558POPC   C4A66786  26.769  36.916   7.350
 8558POPC   C1B66787  26.686  37.133   6.450
 8558POPC   C2B66788  26.665  37.144   6.750
 8558POPC   C3B66789  26.700  37.088   7.050
 8558POPC   C4B66790  26.716  37.111   7.350
 8559POPC   NC366791  44.654   6.597   5.550
 8559POPC   PO466792  44.627   6.628   5.850
 8559POPC   GL166793  44.657   6.606   6.150
 8559POPC   GL266794  44.640   6.749   6.150
 8559POPC   C1A66795  44.690   6.658   6.450
 8559POPC   D2A66796  44.631   6.603   6.750
 8559POPC   C3A66797  44.681   6.637   7.050
 8559POPC   C4A66798  44.671   6.651   7.350
 8559POPC   C1B66799  44.553   6.847   6.450
 8559POPC   C2B66800  44.576   6.851   6.750
 8559POPC   C3B66801  44.557   6.917   7.050
 8559POPC   C4B66802  44.588   6.900   7.350
 8560POPC   NC366803  15.195  21.429   5.550
 8560POPC   PO466804  15.215  21.341   5.850
 8560POPC   GL166805  15.173  21.409   6.150
 8560POPC   GL266806  15.268  21.436   6.150
 8560POPC   C1A66807  15.192  21.360   6.450
 8560POPC   D2A66808  15.184  21.419   6.750
 8560POPC   C3A66809  15.145  21.401   7.050
 8560POPC   C4A66810  15.136  21.425   7.350
 8560POPC   C1B66811  15.382  21.422   6.450
 8560POPC   C2B66812  15.432  21.347   6.750
 8560POPC   C3B66813  15.446  21.433   7.050
 8560POPC   C4B66814  15.397  21.358   7.350
 8561POPC   NC366815  33.005  43.129   5.550
 8561POPC   PO466816  33.070  43.138   5.850
 8561POPC   GL166817  33.001  43.127   6.150
 8561POPC   GL266818  32.900  43.173   6.150
 8561POPC   C1A66819  33.029  43.135   6.450
 8561POPC   D2A66820  32.982  43.097   6.750
 8561POPC   C3A66821  32.999  43.083   7.050
 8561POPC   C4A66822  33.039  43.134   7.350
 8561POPC   C1B66823  32.800  43.220   6.450
 8561POPC   C2B66824  32.782  43.251   6.750
 8561POPC   C3B66825  32.752  43.226   7.050
 8561POPC   C4B66826  32.834  43.249   7.350
 8562POPC   NC366827  36.087  20.645   5.550
 8562POPC   PO466828  36.176  20.610   5.850
 8562POPC   GL166829  36.122  20.602   6.150
 8562POPC   GL266830  36.272  20.656   6.150
 8562POPC   C1A66831  36.160  20.576   6.450
 8562POPC   D2A66832  36.138  20.612   6.750
 8562POPC   C3A66833  36.149  20.588   7.050
 8562POPC   C4A66834  36.083  20.598   7.350
 8562POPC   C1B66835  36.410  20.571   6.450
 8562POPC   C2B66836  36.342  20.602   6.750
 8562POPC   C3B66837  36.343  20.647   7.050
 8562POPC   C4B66838  36.334  20.623   7.350
 8563POPC   NC366839  44.657  27.615   5.550
 8563POPC   PO466840  44.691  27.631   5.850
 8563POPC   GL166841  44.701  27.610   6.150
 8563POPC   GL266842  44.589  27.669   6.150
 8563POPC   C1A66843  44.649  27.616   6.450
 8563POPC   D2A66844  44.673  27.616   6.750
 8563POPC   C3A66845  44.704  27.629   7.050
 8563POPC   C4A66846  44.689  27.614   7.350
 8563POPC   C1B66847  44.436  27.693   6.450
 8563POPC   C2B66848  44.471  27.656   6.750
 8563POPC   C3B66849  44.405  27.636   7.050
 8563POPC   C4B66850  44.456  27.657   7.350
 8564POPC   NC366851  33.769  33.001   5.550
 8564POPC   PO466852  33.819  32.992   5.850
 8564POPC   GL166853  33.798  32.978   6.150
 8564POPC   GL266854  33.654  33.032   6.150
 8564POPC   C1A66855  33.826  32.978   6.450
 8564POPC   D2A66856  33.797  33.032   6.750
 8564POPC   C3A66857  33.766  32.996   7.050
 8564POPC   C4A66858  33.826  33.013   7.350
 8564POPC   C1B66859  33.603  32.924   6.450
 8564POPC   C2B66860  33.510  32.987   6.750
 8564POPC   C3B66861  33.583  32.978   7.050
 8564POPC   C4B66862  33.597  32.960   7.350
 8565POPC   NC366863  40.826  21.368   5.550
 8565POPC   PO466864  40.755  21.413   5.850
 8565POPC   GL166865  40.770  21.364   6.150
 8565POPC   GL266866  40.829  21.264   6.150
 8565POPC   C1A66867  40.795  21.396   6.450
 8565POPC   D2A66868  40.779  21.352   6.750
 8565POPC   C3A66869  40.766  21.426   7.050
 8565POPC   C4A66870  40.821  21.411   7.350
 8565POPC   C1B66871  40.986  21.173   6.450
 8565POPC   C2B66872  40.984  21.222   6.750
 8565POPC   C3B66873  40.988  21.221   7.050
 8565POPC   C4B66874  40.967  21.246   7.350
 8566POPC   NC366875  15.172   1.181   5.550
 8566POPC   PO466876  15.176   1.206   5.850
 8566POPC   GL166877  15.197   1.201   6.150
 8566POPC   GL266878  15.059   1.213   6.150
 8566POPC   C1A66879  15.217   1.255   6.450
 8566POPC   D2A66880  15.200   1.215   6.750
 8566POPC   C3A66881  15.148   1.225   7.050
 8566POPC   C4A66882  15.172   1.231   7.350
 8566POPC   C1B66883  14.950   1.241   6.450
 8566POPC   C2B66884  14.945   1.219   6.750
 8566POPC   C3B66885  14.968   1.234   7.050
 8566POPC   C4B66886  14.976   1.197   7.350
 8567POPC   NC366887  36.117   9.721   5.550
 8567POPC   PO466888  36.157   9.708   5.850
 8567POPC   GL166889  36.166   9.732   6.150
 8567POPC   GL266890  36.270   9.790   6.150
 8567POPC   C1A66891  36.177   9.735   6.450
 8567POPC   D2A66892  36.100   9.714   6.750
 8567POPC   C3A66893  36.171   9.724   7.050
 8567POPC   C4A66894  36.171   9.699   7.350
 8567POPC   C1B66895  36.336   9.944   6.450
 8567POPC   C2B66896  36.356   9.859   6.750
 8567POPC   C3B66897  36.373   9.912   7.050
 8567POPC   C4B66898  36.360   9.926   7.350
 8568POPC   NC366899  16.725  34.588   5.550
 8568POPC   PO466900  16.721  34.619   5.850
 8568POPC   GL166901  16.694  34.609   6.150
 8568POPC   GL266902  16.741  34.712   6.150
 8568POPC   C1A66903  16.732  34.610   6.450
 8568POPC   D2A66904  16.685  34.607   6.750
 8568POPC   C3A66905  16.703  34.548   7.050
 8568POPC   C4A66906  16.724  34.605   7.350
 8568POPC   C1B66907  16.717  34.803   6.450
 8568POPC   C2B66908  16.657  34.777   6.750
 8568POPC   C3B66909  16.646  34.811   7.050
 8568POPC   C4B66910  16.690  34.821   7.350
 8569POPC   NC366911  12.870  22.159   5.550
 8569POPC   PO466912  12.840  22.133   5.850
 8569POPC   GL166913  12.879  22.129   6.150
 8569POPC   GL266914  12.847  22.083   6.150
 8569POPC   C1A66915  12.897  22.210   6.450
 8569POPC   D2A66916  12.826  22.158   6.750
 8569POPC   C3A66917  12.847  22.116   7.050
 8569POPC   C4A66918  12.878  22.197   7.350
 8569POPC   C1B66919  12.869  21.895   6.450
 8569POPC   C2B66920  12.866  21.877   6.750
 8569POPC   C3B66921  12.915  21.943   7.050
 8569POPC   C4B66922  12.929  21.892   7.350
 8570POPC   NC366923  34.540  28.385   5.550
 8570POPC   PO466924  34.591  28.321   5.850
 8570POPC   GL166925  34.617  28.357   6.150
 8570POPC   GL266926  34.586  28.471   6.150
 8570POPC   C1A66927  34.530  28.377   6.450
 8570POPC   D2A66928  34.551  28.375   6.750
 8570POPC   C3A66929  34.533  28.336   7.050
 8570POPC   C4A66930  34.550  28.384   7.350
 8570POPC   C1B66931  34.662  28.573   6.450
 8570POPC   C2B66932  34.673  28.638   6.750
 8570POPC   C3B66933  34.649  28.621   7.050
 8570POPC   C4B66934  34.655  28.610   7.350
 8571POPC   NC366935  14.432  23.758   5.550
 8571POPC   PO466936  14.400  23.756   5.850
 8571POPC   GL166937  14.358  23.666   6.150
 8571POPC   GL266938  14.399  23.864   6.150
 8571POPC   C1A66939  14.432  23.733   6.450
 8571POPC   D2A66940  14.385  23.665   6.750
 8571POPC   C3A66941  14.423  23.695   7.050
 8571POPC   C4A66942  14.426  23.666   7.350
 8571POPC   C1B66943  14.394  23.989   6.450
 8571POPC   C2B66944  14.410  23.930   6.750
 8571POPC   C3B66945  14.396  23.974   7.050
 8571POPC   C4B66946  14.432  23.975   7.350
 8572POPC   NC366947  35.361  29.897   5.550
 8572POPC   PO466948  35.324  29.943   5.850
 8572POPC   GL166949  35.390  29.883   6.150
 8572POPC   GL266950  35.385  30.074   6.150
 8572POPC   C1A66951  35.377  29.880   6.450
 8572POPC   D2A66952  35.357  29.904   6.750
 8572POPC   C3A66953  35.365  29.884   7.050
 8572POPC   C4A66954  35.381  29.949   7.350
 8572POPC   C1B66955  35.457  30.108   6.450
 8572POPC   C2B66956  35.434  30.193   6.750
 8572POPC   C3B66957  35.416  30.166   7.050
 8572POPC   C4B66958  35.502  30.112   7.350
 8573POPC   NC366959  33.030  10.484   5.550
 8573POPC   PO466960  33.000  10.560   5.850
 8573POPC   GL166961  33.061  10.493   6.150
 8573POPC   GL266962  33.006  10.368   6.150
 8573POPC   C1A66963  32.981  10.565   6.450
 8573POPC   D2A66964  33.002  10.569   6.750
 8573POPC   C3A66965  33.062  10.536   7.050
 8573POPC   C4A66966  33.031  10.486   7.350
 8573POPC   C1B66967  32.976  10.306   6.450
 8573POPC   C2B66968  32.995  10.245   6.750
 8573POPC   C3B66969  32.951  10.260   7.050
 8573POPC   C4B66970  32.974  10.251   7.350
 8574POPC   NC366971  16.696   0.472   5.550
 8574POPC   PO466972  16.717   0.439   5.850
 8574POPC   GL166973  16.736   0.417   6.150
 8574POPC   GL266974  16.810   0.335   6.150
 8574POPC   C1A66975  16.740   0.428   6.450
 8574POPC   D2A66976  16.771   0.390   6.750
 8574POPC   C3A66977  16.691   0.430   7.050
 8574POPC   C4A66978  16.717   0.445   7.350
 8574POPC   C1B66979  16.806   0.218   6.450
 8574POPC   C2B66980  16.875   0.174   6.750
 8574POPC   C3B66981  16.822   0.181   7.050
 8574POPC   C4B66982  16.794   0.232   7.350
 8575POPC   NC366983  43.129  26.838   5.550
 8575POPC   PO466984  43.134  26.787   5.850
 8575POPC   GL166985  43.067  26.770   6.150
 8575POPC   GL266986  43.184  26.676   6.150
 8575POPC   C1A66987  43.151  26.824   6.450
 8575POPC   D2A66988  43.090  26.865   6.750
 8575POPC   C3A66989  43.086  26.782   7.050
 8575POPC   C4A66990  43.134  26.795   7.350
 8575POPC   C1B66991  43.166  26.556   6.450
 8575POPC   C2B66992  43.189  26.552   6.750
 8575POPC   C3B66993  43.190  26.613   7.050
 8575POPC   C4B66994  43.168  26.570   7.350
 8576POPC   NC366995   5.143  29.966   5.550
 8576POPC   PO466996   5.079  29.959   5.850
 8576POPC   GL166997   5.093  29.894   6.150
 8576POPC   GL266998   4.981  29.970   6.150
 8576POPC   C1A66999   5.115  29.889   6.450
 8576POPC   D2A67000   5.089  29.872   6.750
 8576POPC   C3A67001   5.105  29.969   7.050
 8576POPC   C4A67002   5.104  29.893   7.350
 8576POPC   C1B67003   4.881  30.129   6.450
 8576POPC   C2B67004   4.936  30.049   6.750
 8576POPC   C3B67005   4.878  30.082   7.050
 8576POPC   C4B67006   4.867  30.115   7.350
 8577POPC   NC367007  16.699  23.712   5.550
 8577POPC   PO467008  16.760  23.760   5.850
 8577POPC   GL167009  16.700  23.712   6.150
 8577POPC   GL267010  16.623  23.720   6.150
 8577POPC   C1A67011  16.733  23.693   6.450
 8577POPC   D2A67012  16.723  23.753   6.750
 8577POPC   C3A67013  16.776  23.745   7.050
 8577POPC   C4A67014  16.690  23.683   7.350
 8577POPC   C1B67015  16.534  23.832   6.450
 8577POPC   C2B67016  16.519  23.769   6.750
 8577POPC   C3B67017  16.511  23.796   7.050
 8577POPC   C4B67018  16.535  23.769   7.350
 8578POPC   NC367019  24.442   2.789   5.550
 8578POPC   PO467020  24.458   2.813   5.850
 8578POPC   GL167021  24.467   2.734   6.150
 8578POPC   GL267022  24.655   2.766   6.150
 8578POPC   C1A67023  24.506   2.742   6.450
 8578POPC   D2A67024  24.493   2.727   6.750
 8578POPC   C3A67025  24.501   2.769   7.050
 8578POPC   C4A67026  24.468   2.797   7.350
 8578POPC   C1B67027  24.771   2.720   6.450
 8578POPC   C2B67028  24.779   2.750   6.750
 8578POPC   C3B67029  24.719   2.730   7.050
 8578POPC   C4B67030  24.770   2.811   7.350
 8579POPC   NC367031  20.568  36.109   5.550
 8579POPC   PO467032  20.567  36.152   5.850
 8579POPC   GL167033  20.584  36.135   6.150
 8579POPC   GL267034  20.497  36.264   6.150
 8579POPC   C1A67035  20.609  36.123   6.450
 8579POPC   D2A67036  20.633  36.153   6.750
 8579POPC   C3A67037  20.640  36.117   7.050
 8579POPC   C4A67038  20.625  36.096   7.350
 8579POPC   C1B67039  20.410  36.337   6.450
 8579POPC   C2B67040  20.495  36.350   6.750
 8579POPC   C3B67041  20.465  36.310   7.050
 8579POPC   C4B67042  20.465  36.365   7.350
 8580POPC   NC367043  31.490   2.721   5.550
 8580POPC   PO467044  31.449   2.746   5.850
 8580POPC   GL167045  31.443   2.725   6.150
 8580POPC   GL267046  31.504   2.705   6.150
 8580POPC   C1A67047  31.462   2.800   6.450
 8580POPC   D2A67048  31.499   2.765   6.750
 8580POPC   C3A67049  31.428   2.775   7.050
 8580POPC   C4A67050  31.428   2.767   7.350
 8580POPC   C1B67051  31.642   2.577   6.450
 8580POPC   C2B67052  31.655   2.544   6.750
 8580POPC   C3B67053  31.657   2.581   7.050
 8580POPC   C4B67054  31.593   2.605   7.350
 8581POPC   NC367055  43.089  43.892   5.550
 8581POPC   PO467056  43.091  43.855   5.850
 8581POPC   GL167057  43.065  43.933   6.150
 8581POPC   GL267058  43.244  43.995   6.150
 8581POPC   C1A67059  43.120  43.884   6.450
 8581POPC   D2A67060  43.071  43.866   6.750
 8581POPC   C3A67061  43.078  43.925   7.050
 8581POPC   C4A67062  43.073  43.837   7.350
 8581POPC   C1B67063  43.262  44.053   6.450
 8581POPC   C2B67064  43.322  44.039   6.750
 8581POPC   C3B67065  43.267  44.100   7.050
 8581POPC   C4B67066  43.312  44.026   7.350
 8582POPC   NC367067   5.068  25.283   5.550
 8582POPC   PO467068   5.070  25.308   5.850
 8582POPC   GL167069   5.113  25.224   6.150
 8582POPC   GL267070   5.213  25.209   6.150
 8582POPC   C1A67071   5.076  25.238   6.450
 8582POPC   D2A67072   5.142  25.235   6.750
 8582POPC   C3A67073   5.085  25.309   7.050
 8582POPC   C4A67074   5.076  25.253   7.350
 8582POPC   C1B67075   5.348  25.174   6.450
 8582POPC   C2B67076   5.387  25.210   6.750
 8582POPC   C3B67077   5.328  25.228   7.050
 8582POPC   C4B67078   5.375  25.206   7.350
 8583POPC   NC367079   4.315  16.720   5.550
 8583POPC   PO467080   4.277  16.779   5.850
 8583POPC   GL167081   4.347  16.705   6.150
 8583POPC   GL267082   4.369  16.830   6.150
 8583POPC   C1A67083   4.351  16.754   6.450
 8583POPC   D2A67084   4.293  16.780   6.750
 8583POPC   C3A67085   4.268  16.691   7.050
 8583POPC   C4A67086   4.274  16.691   7.350
 8583POPC   C1B67087   4.437  16.943   6.450
 8583POPC   C2B67088   4.456  16.909   6.750
 8583POPC   C3B67089   4.484  16.958   7.050
 8583POPC   C4B67090   4.415  16.893   7.350
 8584POPC   NC367091  21.366  36.163   5.550
 8584POPC   PO467092  21.425  36.116   5.850
 8584POPC   GL167093  21.362  36.168   6.150
 8584POPC   GL267094  21.493  36.167   6.150
 8584POPC   C1A67095  21.409  36.106   6.450
 8584POPC   D2A67096  21.389  36.168   6.750
 8584POPC   C3A67097  21.347  36.135   7.050
 8584POPC   C4A67098  21.432  36.097   7.350
 8584POPC   C1B67099  21.574  36.183   6.450
 8584POPC   C2B67100  21.602  36.252   6.750
 8584POPC   C3B67101  21.623  36.236   7.050
 8584POPC   C4B67102  21.670  36.184   7.350
 8585POPC   NC367103  34.593   9.009   5.550
 8585POPC   PO467104  34.526   8.961   5.850
 8585POPC   GL167105  34.572   9.003   6.150
 8585POPC   GL267106  34.569   8.855   6.150
 8585POPC   C1A67107  34.554   8.995   6.450
 8585POPC   D2A67108  34.616   8.923   6.750
 8585POPC   C3A67109  34.624   9.010   7.050
 8585POPC   C4A67110  34.565   9.010   7.350
 8585POPC   C1B67111  34.536   8.743   6.450
 8585POPC   C2B67112  34.592   8.681   6.750
 8585POPC   C3B67113  34.541   8.748   7.050
 8585POPC   C4B67114  34.525   8.718   7.350
 8586POPC   NC367115  42.353   1.940   5.550
 8586POPC   PO467116  42.349   1.999   5.850
 8586POPC   GL167117  42.332   1.955   6.150
 8586POPC   GL267118  42.465   2.001   6.150
 8586POPC   C1A67119  42.353   1.985   6.450
 8586POPC   D2A67120  42.303   1.992   6.750
 8586POPC   C3A67121  42.313   2.036   7.050
 8586POPC   C4A67122  42.369   1.955   7.350
 8586POPC   C1B67123  42.613   2.064   6.450
 8586POPC   C2B67124  42.539   2.053   6.750
 8586POPC   C3B67125  42.542   2.091   7.050
 8586POPC   C4B67126  42.542   2.065   7.350
 8587POPC   NC367127  20.634  15.913   5.550
 8587POPC   PO467128  20.626  15.947   5.850
 8587POPC   GL167129  20.637  15.947   6.150
 8587POPC   GL267130  20.669  16.034   6.150
 8587POPC   C1A67131  20.573  15.986   6.450
 8587POPC   D2A67132  20.618  15.986   6.750
 8587POPC   C3A67133  20.655  15.964   7.050
 8587POPC   C4A67134  20.634  15.983   7.350
 8587POPC   C1B67135  20.775  16.083   6.450
 8587POPC   C2B67136  20.858  16.137   6.750
 8587POPC   C3B67137  20.783  16.136   7.050
 8587POPC   C4B67138  20.803  16.102   7.350
 8588POPC   NC367139  26.046   0.469   5.550
 8588POPC   PO467140  26.046   0.485   5.850
 8588POPC   GL167141  25.996   0.419   6.150
 8588POPC   GL267142  26.175   0.405   6.150
 8588POPC   C1A67143  26.030   0.435   6.450
 8588POPC   D2A67144  26.001   0.398   6.750
 8588POPC   C3A67145  26.040   0.441   7.050
 8588POPC   C4A67146  26.062   0.422   7.350
 8588POPC   C1B67147  26.286   0.475   6.450
 8588POPC   C2B67148  26.262   0.450   6.750
 8588POPC   C3B67149  26.289   0.450   7.050
 8588POPC   C4B67150  26.283   0.412   7.350
 8589POPC   NC367151  18.252  15.928   5.550
 8589POPC   PO467152  18.234  15.921   5.850
 8589POPC   GL167153  18.307  15.969   6.150
 8589POPC   GL267154  18.367  16.058   6.150
 8589POPC   C1A67155  18.248  15.908   6.450
 8589POPC   D2A67156  18.307  15.991   6.750
 8589POPC   C3A67157  18.259  15.923   7.050
 8589POPC   C4A67158  18.312  15.947   7.350
 8589POPC   C1B67159  18.498  16.094   6.450
 8589POPC   C2B67160  18.472  16.142   6.750
 8589POPC   C3B67161  18.470  16.086   7.050
 8589POPC   C4B67162  18.466  16.127   7.350
 8590POPC   NC367163  10.544   8.970   5.550
 8590POPC   PO467164  10.496   8.936   5.850
 8590POPC   GL167165  10.567   8.942   6.150
 8590POPC   GL267166  10.413   9.026   6.150
 8590POPC   C1A67167  10.559   8.988   6.450
 8590POPC   D2A67168  10.481   8.982   6.750
 8590POPC   C3A67169  10.527   8.970   7.050
 8590POPC   C4A67170  10.557   8.993   7.350
 8590POPC   C1B67171  10.342   9.156   6.450
 8590POPC   C2B67172  10.397   9.164   6.750
 8590POPC   C3B67173  10.397   9.205   7.050
 8590POPC   C4B67174  10.372   9.141   7.350
 8591POPC   NC367175  12.110  13.600   5.550
 8591POPC   PO467176  12.035  13.655   5.850
 8591POPC   GL167177  12.121  13.599   6.150
 8591POPC   GL267178  12.020  13.766   6.150
 8591POPC   C1A67179  12.116  13.676   6.450
 8591POPC   D2A67180  12.027  13.600   6.750
 8591POPC   C3A67181  12.118  13.589   7.050
 8591POPC   C4A67182  12.050  13.620   7.350
 8591POPC   C1B67183  12.091  13.836   6.450
 8591POPC   C2B67184  12.086  13.849   6.750
 8591POPC   C3B67185  12.038  13.827   7.050
 8591POPC   C4B67186  12.060  13.916   7.350
 8592POPC   NC367187   8.956  22.965   5.550
 8592POPC   PO467188   8.997  22.899   5.850
 8592POPC   GL167189   8.954  22.914   6.150
 8592POPC   GL267190   9.066  22.851   6.150
 8592POPC   C1A67191   9.007  22.964   6.450
 8592POPC   D2A67192   8.951  22.987   6.750
 8592POPC   C3A67193   8.955  22.892   7.050
 8592POPC   C4A67194   9.006  22.979   7.350
 8592POPC   C1B67195   9.234  22.856   6.450
 8592POPC   C2B67196   9.228  22.864   6.750
 8592POPC   C3B67197   9.155  22.856   7.050
 8592POPC   C4B67198   9.246  22.809   7.350
 8593POPC   NC367199  23.692  26.778   5.550
 8593POPC   PO467200  23.709  26.859   5.850
 8593POPC   GL167201  23.700  26.783   6.150
 8593POPC   GL267202  23.658  26.907   6.150
 8593POPC   C1A67203  23.717  26.812   6.450
 8593POPC   D2A67204  23.724  26.852   6.750
 8593POPC   C3A67205  23.665  26.835   7.050
 8593POPC   C4A67206  23.699  26.768   7.350
 8593POPC   C1B67207  23.690  27.084   6.450
 8593POPC   C2B67208  23.667  27.103   6.750
 8593POPC   C3B67209  23.677  27.072   7.050
 8593POPC   C4B67210  23.651  27.033   7.350
 8594POPC   NC367211  33.799  34.606   5.550
 8594POPC   PO467212  33.776  34.624   5.850
 8594POPC   GL167213  33.775  34.563   6.150
 8594POPC   GL267214  33.830  34.412   6.150
 8594POPC   C1A67215  33.849  34.534   6.450
 8594POPC   D2A67216  33.779  34.590   6.750
 8594POPC   C3A67217  33.786  34.584   7.050
 8594POPC   C4A67218  33.775  34.610   7.350
 8594POPC   C1B67219  33.886  34.377   6.450
 8594POPC   C2B67220  33.867  34.346   6.750
 8594POPC   C3B67221  33.911  34.296   7.050
 8594POPC   C4B67222  33.885  34.321   7.350
 8595POPC   NC367223  26.033   6.623   5.550
 8595POPC   PO467224  26.025   6.675   5.850
 8595POPC   GL167225  26.032   6.603   6.150
 8595POPC   GL267226  26.090   6.793   6.150
 8595POPC   C1A67227  26.068   6.607   6.450
 8595POPC   D2A67228  26.003   6.690   6.750
 8595POPC   C3A67229  26.051   6.595   7.050
 8595POPC   C4A67230  25.995   6.598   7.350
 8595POPC   C1B67231  26.179   6.881   6.450
 8595POPC   C2B67232  26.089   6.848   6.750
 8595POPC   C3B67233  26.102   6.879   7.050
 8595POPC   C4B67234  26.105   6.860   7.350
 8596POPC   NC367235  29.170   0.453   5.550
 8596POPC   PO467236  29.106   0.407   5.850
 8596POPC   GL167237  29.131   0.486   6.150
 8596POPC   GL267238  29.236   0.457   6.150
 8596POPC   C1A67239  29.177   0.451   6.450
 8596POPC   D2A67240  29.188   0.455   6.750
 8596POPC   C3A67241  29.112   0.468   7.050
 8596POPC   C4A67242  29.151   0.417   7.350
 8596POPC   C1B67243  29.403   0.413   6.450
 8596POPC   C2B67244  29.431   0.340   6.750
 8596POPC   C3B67245  29.423   0.354   7.050
 8596POPC   C4B67246  29.409   0.394   7.350
 8597POPC   NC367247  38.435  24.459   5.550
 8597POPC   PO467248  38.440  24.525   5.850
 8597POPC   GL167249  38.477  24.515   6.150
 8597POPC   GL267250  38.590  24.459   6.150
 8597POPC   C1A67251  38.466  24.505   6.450
 8597POPC   D2A67252  38.446  24.476   6.750
 8597POPC   C3A67253  38.472  24.503   7.050
 8597POPC   C4A67254  38.466  24.466   7.350
 8597POPC   C1B67255  38.707  24.385   6.450
 8597POPC   C2B67256  38.669  24.388   6.750
 8597POPC   C3B67257  38.661  24.379   7.050
 8597POPC   C4B67258  38.705  24.409   7.350
 8598POPC   NC367259  38.472  22.961   5.550
 8598POPC   PO467260  38.454  22.929   5.850
 8598POPC   GL167261  38.474  22.927   6.150
 8598POPC   GL267262  38.318  22.948   6.150
 8598POPC   C1A67263  38.432  22.979   6.450
 8598POPC   D2A67264  38.460  22.954   6.750
 8598POPC   C3A67265  38.447  22.962   7.050
 8598POPC   C4A67266  38.428  22.913   7.350
 8598POPC   C1B67267  38.229  22.931   6.450
 8598POPC   C2B67268  38.205  23.002   6.750
 8598POPC   C3B67269  38.210  23.007   7.050
 8598POPC   C4B67270  38.202  22.917   7.350
 8599POPC   NC367271   3.522  26.061   5.550
 8599POPC   PO467272   3.514  26.035   5.850
 8599POPC   GL167273   3.492  26.021   6.150
 8599POPC   GL267274   3.447  26.031   6.150
 8599POPC   C1A67275   3.501  26.057   6.450
 8599POPC   D2A67276   3.586  26.077   6.750
 8599POPC   C3A67277   3.576  26.070   7.050
 8599POPC   C4A67278   3.493  26.071   7.350
 8599POPC   C1B67279   3.337  25.990   6.450
 8599POPC   C2B67280   3.329  25.978   6.750
 8599POPC   C3B67281   3.303  26.050   7.050
 8599POPC   C4B67282   3.286  26.037   7.350
 8600POPC   NC367283  32.297   1.213   5.550
 8600POPC   PO467284  32.240   1.196   5.850
 8600POPC   GL167285  32.201   1.211   6.150
 8600POPC   GL267286  32.153   1.263   6.150
 8600POPC   C1A67287  32.223   1.204   6.450
 8600POPC   D2A67288  32.257   1.186   6.750
 8600POPC   C3A67289  32.250   1.169   7.050
 8600POPC   C4A67290  32.251   1.172   7.350
 8600POPC   C1B67291  32.068   1.330   6.450
 8600POPC   C2B67292  32.081   1.331   6.750
 8600POPC   C3B67293  32.062   1.392   7.050
 8600POPC   C4B67294  32.015   1.341   7.350
 8601POPC   NC367295  11.270   4.295   5.550
 8601POPC   PO467296  11.343   4.286   5.850
 8601POPC   GL167297  11.307   4.339   6.150
 8601POPC   GL267298  11.389   4.317   6.150
 8601POPC   C1A67299  11.309   4.365   6.450
 8601POPC   D2A67300  11.273   4.328   6.750
 8601POPC   C3A67301  11.307   4.317   7.050
 8601POPC   C4A67302  11.312   4.290   7.350
 8601POPC   C1B67303  11.539   4.257   6.450
 8601POPC   C2B67304  11.510   4.280   6.750
 8601POPC   C3B67305  11.503   4.202   7.050
 8601POPC   C4B67306  11.498   4.266   7.350
 8602POPC   NC367307  29.887  27.546   5.550
 8602POPC   PO467308  29.905  27.559   5.850
 8602POPC   GL167309  29.878  27.634   6.150
 8602POPC   GL267310  29.923  27.504   6.150
 8602POPC   C1A67311  29.876  27.568   6.450
 8602POPC   D2A67312  29.928  27.548   6.750
 8602POPC   C3A67313  29.965  27.628   7.050
 8602POPC   C4A67314  29.907  27.607   7.350
 8602POPC   C1B67315  29.965  27.351   6.450
 8602POPC   C2B67316  30.026  27.309   6.750
 8602POPC   C3B67317  29.954  27.343   7.050
 8602POPC   C4B67318  29.974  27.383   7.350
 8603POPC   NC367319  29.922  38.446   5.550
 8603POPC   PO467320  29.951  38.416   5.850
 8603POPC   GL167321  29.883  38.489   6.150
 8603POPC   GL267322  29.798  38.383   6.150
 8603POPC   C1A67323  29.915  38.502   6.450
 8603POPC   D2A67324  29.871  38.422   6.750
 8603POPC   C3A67325  29.947  38.435   7.050
 8603POPC   C4A67326  29.872  38.429   7.350
 8603POPC   C1B67327  29.644  38.379   6.450
 8603POPC   C2B67328  29.693  38.353   6.750
 8603POPC   C3B67329  29.684  38.404   7.050
 8603POPC   C4B67330  29.657  38.315   7.350
 8604POPC   NC367331  25.258  12.091   5.550
 8604POPC   PO467332  25.286  12.123   5.850
 8604POPC   GL167333  25.249  12.051   6.150
 8604POPC   GL267334  25.348  12.105   6.150
 8604POPC   C1A67335  25.296  12.086   6.450
 8604POPC   D2A67336  25.283  12.054   6.750
 8604POPC   C3A67337  25.265  12.116   7.050
 8604POPC   C4A67338  25.300  12.088   7.350
 8604POPC   C1B67339  25.472  12.010   6.450
 8604POPC   C2B67340  25.469  12.095   6.750
 8604POPC   C3B67341  25.537  12.067   7.050
 8604POPC   C4B67342  25.472  12.066   7.350
 8605POPC   NC367343   2.771  18.312   5.550
 8605POPC   PO467344   2.781  18.240   5.850
 8605POPC   GL167345   2.740  18.296   6.150
 8605POPC   GL267346   2.645  18.243   6.150
 8605POPC   C1A67347   2.797  18.244   6.450
 8605POPC   D2A67348   2.789  18.317   6.750
 8605POPC   C3A67349   2.757  18.250   7.050
 8605POPC   C4A67350   2.753  18.241   7.350
 8605POPC   C1B67351   2.515  18.187   6.450
 8605POPC   C2B67352   2.487  18.185   6.750
 8605POPC   C3B67353   2.493  18.205   7.050
 8605POPC   C4B67354   2.537  18.240   7.350
 8606POPC   NC367355  28.334  36.103   5.550
 8606POPC   PO467356  28.404  36.133   5.850
 8606POPC   GL167357  28.390  36.174   6.150
 8606POPC   GL267358  28.225  36.178   6.150
 8606POPC   C1A67359  28.386  36.157   6.450
 8606POPC   D2A67360  28.400  36.115   6.750
 8606POPC   C3A67361  28.377  36.119   7.050
 8606POPC   C4A67362  28.357  36.167   7.350
 8606POPC   C1B67363  28.124  36.181   6.450
 8606POPC   C2B67364  28.155  36.168   6.750
 8606POPC   C3B67365  28.159  36.199   7.050
 8606POPC   C4B67366  28.153  36.127   7.350
 8607POPC   NC367367  14.378  38.428   5.550
 8607POPC   PO467368  14.357  38.471   5.850
 8607POPC   GL167369  14.440  38.454   6.150
 8607POPC   GL267370  14.449  38.537   6.150
 8607POPC   C1A67371  14.400  38.505   6.450
 8607POPC   D2A67372  14.387  38.429   6.750
 8607POPC   C3A67373  14.416  38.414   7.050
 8607POPC   C4A67374  14.447  38.505   7.350
 8607POPC   C1B67375  14.581  38.689   6.450
 8607POPC   C2B67376  14.600  38.605   6.750
 8607POPC   C3B67377  14.602  38.616   7.050
 8607POPC   C4B67378  14.531  38.610   7.350
 8608POPC   NC367379  33.812  25.263   5.550
 8608POPC   PO467380  33.832  25.229   5.850
 8608POPC   GL167381  33.818  25.311   6.150
 8608POPC   GL267382  33.720  25.156   6.150
 8608POPC   C1A67383  33.767  25.308   6.450
 8608POPC   D2A67384  33.836  25.289   6.750
 8608POPC   C3A67385  33.750  25.250   7.050
 8608POPC   C4A67386  33.759  25.235   7.350
 8608POPC   C1B67387  33.692  25.045   6.450
 8608POPC   C2B67388  33.726  25.079   6.750
 8608POPC   C3B67389  33.675  24.994   7.050
 8608POPC   C4B67390  33.690  25.056   7.350
 8609POPC   NC367391  40.791  34.549   5.550
 8609POPC   PO467392  40.806  34.599   5.850
 8609POPC   GL167393  40.780  34.551   6.150
 8609POPC   GL267394  40.847  34.427   6.150
 8609POPC   C1A67395  40.764  34.599   6.450
 8609POPC   D2A67396  40.768  34.575   6.750
 8609POPC   C3A67397  40.766  34.600   7.050
 8609POPC   C4A67398  40.798  34.617   7.350
 8609POPC   C1B67399  40.972  34.380   6.450
 8609POPC   C2B67400  40.891  34.341   6.750
 8609POPC   C3B67401  40.962  34.358   7.050
 8609POPC   C4B67402  40.906  34.358   7.350
 8610POPC   NC367403  29.872   2.734   5.550
 8610POPC   PO467404  29.929   2.807   5.850
 8610POPC   GL167405  29.890   2.754   6.150
 8610POPC   GL267406  29.959   2.895   6.150
 8610POPC   C1A67407  29.902   2.751   6.450
 8610POPC   D2A67408  29.896   2.776   6.750
 8610POPC   C3A67409  29.904   2.767   7.050
 8610POPC   C4A67410  29.895   2.786   7.350
 8610POPC   C1B67411  29.906   3.006   6.450
 8610POPC   C2B67412  29.951   2.971   6.750
 8610POPC   C3B67413  29.873   3.063   7.050
 8610POPC   C4B67414  29.930   3.037   7.350
 8611POPC   NC367415  18.275  27.566   5.550
 8611POPC   PO467416  18.308  27.638   5.850
 8611POPC   GL167417  18.331  27.549   6.150
 8611POPC   GL267418  18.367  27.537   6.150
 8611POPC   C1A67419  18.292  27.580   6.450
 8611POPC   D2A67420  18.329  27.612   6.750
 8611POPC   C3A67421  18.332  27.618   7.050
 8611POPC   C4A67422  18.326  27.633   7.350
 8611POPC   C1B67423  18.560  27.552   6.450
 8611POPC   C2B67424  18.513  27.540   6.750
 8611POPC   C3B67425  18.492  27.558   7.050
 8611POPC   C4B67426  18.525  27.579   7.350
 8612POPC   NC367427   7.374   6.598   5.550
 8612POPC   PO467428   7.394   6.619   5.850
 8612POPC   GL167429   7.383   6.690   6.150
 8612POPC   GL267430   7.322   6.707   6.150
 8612POPC   C1A67431   7.455   6.619   6.450
 8612POPC   D2A67432   7.378   6.658   6.750
 8612POPC   C3A67433   7.435   6.635   7.050
 8612POPC   C4A67434   7.433   6.691   7.350
 8612POPC   C1B67435   7.229   6.696   6.450
 8612POPC   C2B67436   7.194   6.733   6.750
 8612POPC   C3B67437   7.155   6.693   7.050
 8612POPC   C4B67438   7.197   6.775   7.350
 8613POPC   NC367439  40.044  26.006   5.550
 8613POPC   PO467440  40.033  26.041   5.850
 8613POPC   GL167441  39.978  25.996   6.150
 8613POPC   GL267442  39.937  25.928   6.150
 8613POPC   C1A67443  40.022  25.997   6.450
 8613POPC   D2A67444  39.991  26.023   6.750
 8613POPC   C3A67445  39.993  26.081   7.050
 8613POPC   C4A67446  40.056  26.061   7.350
 8613POPC   C1B67447  39.882  25.836   6.450
 8613POPC   C2B67448  39.865  25.846   6.750
 8613POPC   C3B67449  39.880  25.815   7.050
 8613POPC   C4B67450  39.866  25.836   7.350
 8614POPC   NC367451   8.928  23.687   5.550
 8614POPC   PO467452   8.947  23.739   5.850
 8614POPC   GL167453   8.931  23.731   6.150
 8614POPC   GL267454   9.093  23.686   6.150
 8614POPC   C1A67455   8.958  23.760   6.450
 8614POPC   D2A67456   8.931  23.721   6.750
 8614POPC   C3A67457   9.004  23.717   7.050
 8614POPC   C4A67458   8.949  23.706   7.350
 8614POPC   C1B67459   9.232  23.793   6.450
 8614POPC   C2B67460   9.202  23.766   6.750
 8614POPC   C3B67461   9.227  23.723   7.050
 8614POPC   C4B67462   9.259  23.793   7.350
 8615POPC   NC367463  43.861  19.022   5.550
 8615POPC   PO467464  43.871  19.071   5.850
 8615POPC   GL167465  43.839  19.030   6.150
 8615POPC   GL267466  44.025  19.146   6.150
 8615POPC   C1A67467  43.902  19.038   6.450
 8615POPC   D2A67468  43.887  19.066   6.750
 8615POPC   C3A67469  43.850  19.080   7.050
 8615POPC   C4A67470  43.919  19.017   7.350
 8615POPC   C1B67471  44.155  19.157   6.450
 8615POPC   C2B67472  44.130  19.137   6.750
 8615POPC   C3B67473  44.125  19.117   7.050
 8615POPC   C4B67474  44.100  19.154   7.350
 8616POPC   NC367475   9.760   8.965   5.550
 8616POPC   PO467476   9.742   8.944   5.850
 8616POPC   GL167477   9.729   8.949   6.150
 8616POPC   GL267478   9.775   9.066   6.150
 8616POPC   C1A67479   9.775   8.923   6.450
 8616POPC   D2A67480   9.761   8.963   6.750
 8616POPC   C3A67481   9.720   9.004   7.050
 8616POPC   C4A67482   9.723   8.951   7.350
 8616POPC   C1B67483   9.812   9.237   6.450
 8616POPC   C2B67484   9.818   9.188   6.750
 8616POPC   C3B67485   9.800   9.209   7.050
 8616POPC   C4B67486   9.819   9.179   7.350
 8617POPC   NC367487  16.718  18.325   5.550
 8617POPC   PO467488  16.746  18.316   5.850
 8617POPC   GL167489  16.758  18.256   6.150
 8617POPC   GL267490  16.661  18.330   6.150
 8617POPC   C1A67491  16.749  18.273   6.450
 8617POPC   D2A67492  16.691  18.234   6.750
 8617POPC   C3A67493  16.741  18.258   7.050
 8617POPC   C4A67494  16.751  18.235   7.350
 8617POPC   C1B67495  16.539  18.414   6.450
 8617POPC   C2B67496  16.567  18.424   6.750
 8617POPC   C3B67497  16.491  18.452   7.050
 8617POPC   C4B67498  16.575  18.440   7.350
 8618POPC   NC367499  34.567  44.619   5.550
 8618POPC   PO467500  34.572  44.625   5.850
 8618POPC   GL167501  34.565  44.671   6.150
 8618POPC   GL267502  34.493  44.567   6.150
 8618POPC   C1A67503  34.608  44.711   6.450
 8618POPC   D2A67504  34.583  44.637   6.750
 8618POPC   C3A67505  34.555  44.655   7.050
 8618POPC   C4A67506  34.552  44.652   7.350
 8618POPC   C1B67507  34.394  44.537   6.450
 8618POPC   C2B67508  34.372  44.471   6.750
 8618POPC   C3B67509  34.371  44.457   7.050
 8618POPC   C4B67510  34.387  44.515   7.350
 8619POPC   NC367511   3.578   1.181   5.550
 8619POPC   PO467512   3.498   1.246   5.850
 8619POPC   GL167513   3.566   1.247   6.150
 8619POPC   GL267514   3.502   1.067   6.150
 8619POPC   C1A67515   3.540   1.238   6.450
 8619POPC   D2A67516   3.493   1.200   6.750
 8619POPC   C3A67517   3.526   1.235   7.050
 8619POPC   C4A67518   3.553   1.181   7.350
 8619POPC   C1B67519   3.378   1.026   6.450
 8619POPC   C2B67520   3.353   1.010   6.750
 8619POPC   C3B67521   3.370   1.055   7.050
 8619POPC   C4B67522   3.362   1.046   7.350
 8620POPC   NC367523  21.382  43.107   5.550
 8620POPC   PO467524  21.423  43.096   5.850
 8620POPC   GL167525  21.378  43.070   6.150
 8620POPC   GL267526  21.531  43.084   6.150
 8620POPC   C1A67527  21.363  43.109   6.450
 8620POPC   D2A67528  21.400  43.121   6.750
 8620POPC   C3A67529  21.401  43.152   7.050
 8620POPC   C4A67530  21.433  43.065   7.350
 8620POPC   C1B67531  21.595  43.083   6.450
 8620POPC   C2B67532  21.615  43.085   6.750
 8620POPC   C3B67533  21.641  43.103   7.050
 8620POPC   C4B67534  21.682  43.107   7.350
 8621POPC   NC367535  11.269  43.072   5.550
 8621POPC   PO467536  11.287  43.103   5.850
 8621POPC   GL167537  11.281  43.069   6.150
 8621POPC   GL267538  11.378  43.194   6.150
 8621POPC   C1A67539  11.276  43.133   6.450
 8621POPC   D2A67540  11.300  43.122   6.750
 8621POPC   C3A67541  11.301  43.063   7.050
 8621POPC   C4A67542  11.325  43.073   7.350
 8621POPC   C1B67543  11.556  43.211   6.450
 8621POPC   C2B67544  11.521  43.191   6.750
 8621POPC   C3B67545  11.481  43.256   7.050
 8621POPC   C4B67546  11.572  43.225   7.350
 8622POPC   NC367547  18.302  33.043   5.550
 8622POPC   PO467548  18.304  33.025   5.850
 8622POPC   GL167549  18.279  33.070   6.150
 8622POPC   GL267550  18.249  33.185   6.150
 8622POPC   C1A67551  18.325  33.006   6.450
 8622POPC   D2A67552  18.246  33.006   6.750
 8622POPC   C3A67553  18.305  33.005   7.050
 8622POPC   C4A67554  18.266  32.999   7.350
 8622POPC   C1B67555  18.159  33.247   6.450
 8622POPC   C2B67556  18.222  33.227   6.750
 8622POPC   C3B67557  18.187  33.238   7.050
 8622POPC   C4B67558  18.182  33.249   7.350
 8623POPC   NC367559   0.441  24.522   5.550
 8623POPC   PO467560   0.427  24.511   5.850
 8623POPC   GL167561   0.487  24.486   6.150
 8623POPC   GL267562   0.551  24.611   6.150
 8623POPC   C1A67563   0.452  24.513   6.450
 8623POPC   D2A67564   0.401  24.528   6.750
 8623POPC   C3A67565   0.411  24.494   7.050
 8623POPC   C4A67566   0.454  24.484   7.350
 8623POPC   C1B67567   0.616  24.699   6.450
 8623POPC   C2B67568   0.574  24.752   6.750
 8623POPC   C3B67569   0.542  24.662   7.050
 8623POPC   C4B67570   0.560  24.708   7.350
 8624POPC   NC367571   2.020  12.046   5.550
 8624POPC   PO467572   2.015  12.075   5.850
 8624POPC   GL167573   1.974  12.092   6.150
 8624POPC   GL267574   1.899  12.102   6.150
 8624POPC   C1A67575   2.019  12.105   6.450
 8624POPC   D2A67576   1.992  12.032   6.750
 8624POPC   C3A67577   1.977  12.058   7.050
 8624POPC   C4A67578   1.983  12.091   7.350
 8624POPC   C1B67579   1.774  12.101   6.450
 8624POPC   C2B67580   1.753  12.109   6.750
 8624POPC   C3B67581   1.692  12.078   7.050
 8624POPC   C4B67582   1.748  12.085   7.350
 8625POPC   NC367583  11.295  10.565   5.550
 8625POPC   PO467584  11.283  10.548   5.850
 8625POPC   GL167585  11.319  10.502   6.150
 8625POPC   GL267586  11.350  10.596   6.150
 8625POPC   C1A67587  11.297  10.520   6.450
 8625POPC   D2A67588  11.338  10.525   6.750
 8625POPC   C3A67589  11.264  10.536   7.050
 8625POPC   C4A67590  11.263  10.565   7.350
 8625POPC   C1B67591  11.403  10.773   6.450
 8625POPC   C2B67592  11.428  10.712   6.750
 8625POPC   C3B67593  11.385  10.767   7.050
 8625POPC   C4B67594  11.386  10.751   7.350
 8626POPC   NC367595  17.478   3.532   5.550
 8626POPC   PO467596  17.554   3.558   5.850
 8626POPC   GL167597  17.511   3.550   6.150
 8626POPC   GL267598  17.377   3.550   6.150
 8626POPC   C1A67599  17.467   3.538   6.450
 8626POPC   D2A67600  17.497   3.495   6.750
 8626POPC   C3A67601  17.479   3.572   7.050
 8626POPC   C4A67602  17.506   3.585   7.350
 8626POPC   C1B67603  17.245   3.512   6.450
 8626POPC   C2B67604  17.223   3.543   6.750
 8626POPC   C3B67605  17.261   3.542   7.050
 8626POPC   C4B67606  17.227   3.587   7.350
 8627POPC   NC367607  12.074  42.343   5.550
 8627POPC   PO467608  12.123  42.307   5.850
 8627POPC   GL167609  12.081  42.371   6.150
 8627POPC   GL267610  12.147  42.222   6.150
 8627POPC   C1A67611  12.049  42.301   6.450
 8627POPC   D2A67612  12.084  42.289   6.750
 8627POPC   C3A67613  12.103  42.331   7.050
 8627POPC   C4A67614  12.054  42.327   7.350
 8627POPC   C1B67615  12.177  42.099   6.450
 8627POPC   C2B67616  12.166  42.104   6.750
 8627POPC   C3B67617  12.156  42.115   7.050
 8627POPC   C4B67618  12.182  42.165   7.350
 8628POPC   NC367619  15.224  38.463   5.550
 8628POPC   PO467620  15.195  38.462   5.850
 8628POPC   GL167621  15.133  38.470   6.150
 8628POPC   GL267622  15.024  38.382   6.150
 8628POPC   C1A67623  15.130  38.501   6.450
 8628POPC   D2A67624  15.225  38.464   6.750
 8628POPC   C3A67625  15.134  38.427   7.050
 8628POPC   C4A67626  15.132  38.460   7.350
 8628POPC   C1B67627  14.935  38.376   6.450
 8628POPC   C2B67628  14.907  38.382   6.750
 8628POPC   C3B67629  14.913  38.332   7.050
 8628POPC   C4B67630  14.912  38.351   7.350
 8629POPC   NC367631   2.027  32.293   5.550
 8629POPC   PO467632   1.982  32.202   5.850
 8629POPC   GL167633   2.008  32.294   6.150
 8629POPC   GL267634   1.901  32.199   6.150
 8629POPC   C1A67635   2.010  32.270   6.450
 8629POPC   D2A67636   1.979  32.272   6.750
 8629POPC   C3A67637   2.014  32.253   7.050
 8629POPC   C4A67638   2.022  32.244   7.350
 8629POPC   C1B67639   1.807  32.081   6.450
 8629POPC   C2B67640   1.792  32.074   6.750
 8629POPC   C3B67641   1.809  32.072   7.050
 8629POPC   C4B67642   1.845  32.038   7.350
 8630POPC   NC367643  41.584  18.238   5.550
 8630POPC   PO467644  41.589  18.312   5.850
 8630POPC   GL167645  41.578  18.328   6.150
 8630POPC   GL267646  41.552  18.188   6.150
 8630POPC   C1A67647  41.581  18.309   6.450
 8630POPC   D2A67648  41.581  18.308   6.750
 8630POPC   C3A67649  41.545  18.269   7.050
 8630POPC   C4A67650  41.606  18.280   7.350
 8630POPC   C1B67651  41.564  18.041   6.450
 8630POPC   C2B67652  41.553  18.045   6.750
 8630POPC   C3B67653  41.569  18.051   7.050
 8630POPC   C4B67654  41.587  17.985   7.350
 8631POPC   NC367655  41.603   8.993   5.550
 8631POPC   PO467656  41.571   8.940   5.850
 8631POPC   GL167657  41.548   8.947   6.150
 8631POPC   GL267658  41.607   8.823   6.150
 8631POPC   C1A67659  41.517   8.931   6.450
 8631POPC   D2A67660  41.544   8.947   6.750
 8631POPC   C3A67661  41.538   9.007   7.050
 8631POPC   C4A67662  41.605   8.977   7.350
 8631POPC   C1B67663  41.585   8.721   6.450
 8631POPC   C2B67664  41.553   8.717   6.750
 8631POPC   C3B67665  41.634   8.718   7.050
 8631POPC   C4B67666  41.613   8.699   7.350
 8632POPC   NC367667  26.859  32.261   5.550
 8632POPC   PO467668  26.787  32.281   5.850
 8632POPC   GL167669  26.857  32.239   6.150
 8632POPC   GL267670  26.685  32.118   6.150
 8632POPC   C1A67671  26.772  32.206   6.450
 8632POPC   D2A67672  26.815  32.248   6.750
 8632POPC   C3A67673  26.863  32.272   7.050
 8632POPC   C4A67674  26.845  32.287   7.350
 8632POPC   C1B67675  26.649  32.030   6.450
 8632POPC   C2B67676  26.621  32.106   6.750
 8632POPC   C3B67677  26.607  32.092   7.050
 8632POPC   C4B67678  26.611  32.059   7.350
 8633POPC   NC367679  39.266  23.732   5.550
 8633POPC   PO467680  39.223  23.738   5.850
 8633POPC   GL167681  39.202  23.705   6.150
 8633POPC   GL267682  39.142  23.763   6.150
 8633POPC   C1A67683  39.269  23.745   6.450
 8633POPC   D2A67684  39.266  23.681   6.750
 8633POPC   C3A67685  39.255  23.719   7.050
 8633POPC   C4A67686  39.223  23.754   7.350
 8633POPC   C1B67687  38.998  23.723   6.450
 8633POPC   C2B67688  39.009  23.760   6.750
 8633POPC   C3B67689  39.003  23.694   7.050
 8633POPC   C4B67690  39.004  23.698   7.350
 8634POPC   NC367691  31.519  36.887   5.550
 8634POPC   PO467692  31.479  36.946   5.850
 8634POPC   GL167693  31.429  36.863   6.150
 8634POPC   GL267694  31.375  36.877   6.150
 8634POPC   C1A67695  31.463  36.934   6.450
 8634POPC   D2A67696  31.447  36.872   6.750
 8634POPC   C3A67697  31.513  36.865   7.050
 8634POPC   C4A67698  31.478  36.884   7.350
 8634POPC   C1B67699  31.313  36.737   6.450
 8634POPC   C2B67700  31.285  36.714   6.750
 8634POPC   C3B67701  31.261  36.734   7.050
 8634POPC   C4B67702  31.288  36.731   7.350
 8635POPC   NC367703   8.933   1.256   5.550
 8635POPC   PO467704   8.951   1.174   5.850
 8635POPC   GL167705   8.928   1.255   6.150
 8635POPC   GL267706   8.892   1.229   6.150
 8635POPC   C1A67707   8.925   1.188   6.450
 8635POPC   D2A67708   9.022   1.222   6.750
 8635POPC   C3A67709   8.991   1.226   7.050
 8635POPC   C4A67710   9.014   1.263   7.350
 8635POPC   C1B67711   8.756   1.216   6.450
 8635POPC   C2B67712   8.767   1.213   6.750
 8635POPC   C3B67713   8.720   1.152   7.050
 8635POPC   C4B67714   8.763   1.236   7.350
 8636POPC   NC367715  11.266  11.250   5.550
 8636POPC   PO467716  11.324  11.256   5.850
 8636POPC   GL167717  11.289  11.291   6.150
 8636POPC   GL267718  11.234  11.452   6.150
 8636POPC   C1A67719  11.331  11.253   6.450
 8636POPC   D2A67720  11.270  11.286   6.750
 8636POPC   C3A67721  11.331  11.275   7.050
 8636POPC   C4A67722  11.340  11.347   7.350
 8636POPC   C1B67723  11.146  11.551   6.450
 8636POPC   C2B67724  11.128  11.494   6.750
 8636POPC   C3B67725  11.146  11.532   7.050
 8636POPC   C4B67726  11.130  11.535   7.350
 8637POPC   NC367727   2.787  15.139   5.550
 8637POPC   PO467728   2.718  15.228   5.850
 8637POPC   GL167729   2.780  15.198   6.150
 8637POPC   GL267730   2.887  15.230   6.150
 8637POPC   C1A67731   2.760  15.139   6.450
 8637POPC   D2A67732   2.784  15.189   6.750
 8637POPC   C3A67733   2.788  15.158   7.050
 8637POPC   C4A67734   2.759  15.172   7.350
 8637POPC   C1B67735   2.887  15.333   6.450
 8637POPC   C2B67736   2.952  15.365   6.750
 8637POPC   C3B67737   2.897  15.401   7.050
 8637POPC   C4B67738   2.888  15.388   7.350
 8638POPC   NC367739  24.492   9.716   5.550
 8638POPC   PO467740  24.478   9.724   5.850
 8638POPC   GL167741  24.494   9.790   6.150
 8638POPC   GL267742  24.373   9.861   6.150
 8638POPC   C1A67743  24.504   9.771   6.450
 8638POPC   D2A67744  24.505   9.788   6.750
 8638POPC   C3A67745  24.524   9.734   7.050
 8638POPC   C4A67746  24.487   9.720   7.350
 8638POPC   C1B67747  24.263   9.919   6.450
 8638POPC   C2B67748  24.326   9.956   6.750
 8638POPC   C3B67749  24.349   9.882   7.050
 8638POPC   C4B67750  24.323   9.893   7.350
 8639POPC   NC367751  40.808  26.016   5.550
 8639POPC   PO467752  40.795  26.062   5.850
 8639POPC   GL167753  40.768  25.996   6.150
 8639POPC   GL267754  40.722  25.966   6.150
 8639POPC   C1A67755  40.815  26.059   6.450
 8639POPC   D2A67756  40.788  26.066   6.750
 8639POPC   C3A67757  40.805  26.060   7.050
 8639POPC   C4A67758  40.770  26.029   7.350
 8639POPC   C1B67759  40.663  25.894   6.450
 8639POPC   C2B67760  40.673  25.833   6.750
 8639POPC   C3B67761  40.613  25.822   7.050
 8639POPC   C4B67762  40.645  25.882   7.350
 8640POPC   NC367763  23.716   1.178   5.550
 8640POPC   PO467764  23.689   1.243   5.850
 8640POPC   GL167765  23.680   1.208   6.150
 8640POPC   GL267766  23.881   1.247   6.150
 8640POPC   C1A67767  23.754   1.214   6.450
 8640POPC   D2A67768  23.739   1.250   6.750
 8640POPC   C3A67769  23.744   1.180   7.050
 8640POPC   C4A67770  23.721   1.252   7.350
 8640POPC   C1B67771  23.973   1.290   6.450
 8640POPC   C2B67772  23.927   1.273   6.750
 8640POPC   C3B67773  23.934   1.260   7.050
 8640POPC   C4B67774  23.926   1.272   7.350
 8641POPC   NC367775   8.233  39.263   5.550
 8641POPC   PO467776   8.185  39.211   5.850
 8641POPC   GL167777   8.173  39.196   6.150
 8641POPC   GL267778   8.304  39.321   6.150
 8641POPC   C1A67779   8.213  39.279   6.450
 8641POPC   D2A67780   8.168  39.234   6.750
 8641POPC   C3A67781   8.173  39.230   7.050
 8641POPC   C4A67782   8.218  39.194   7.350
 8641POPC   C1B67783   8.382  39.380   6.450
 8641POPC   C2B67784   8.357  39.372   6.750
 8641POPC   C3B67785   8.375  39.377   7.050
 8641POPC   C4B67786   8.365  39.342   7.350
 8642POPC   NC367787  25.998   1.248   5.550
 8642POPC   PO467788  26.004   1.187   5.850
 8642POPC   GL167789  26.067   1.256   6.150
 8642POPC   GL267790  26.158   1.223   6.150
 8642POPC   C1A67791  26.016   1.169   6.450
 8642POPC   D2A67792  26.042   1.228   6.750
 8642POPC   C3A67793  26.079   1.252   7.050
 8642POPC   C4A67794  26.056   1.228   7.350
 8642POPC   C1B67795  26.318   1.111   6.450
 8642POPC   C2B67796  26.308   1.150   6.750
 8642POPC   C3B67797  26.306   1.183   7.050
 8642POPC   C4B67798  26.245   1.134   7.350
 8643POPC   NC367799  14.421   2.002   5.550
 8643POPC   PO467800  14.378   2.009   5.850
 8643POPC   GL167801  14.413   1.967   6.150
 8643POPC   GL267802  14.294   2.005   6.150
 8643POPC   C1A67803  14.429   1.986   6.450
 8643POPC   D2A67804  14.392   1.992   6.750
 8643POPC   C3A67805  14.435   1.946   7.050
 8643POPC   C4A67806  14.356   2.002   7.350
 8643POPC   C1B67807  14.153   2.090   6.450
 8643POPC   C2B67808  14.208   2.057   6.750
 8643POPC   C3B67809  14.198   2.079   7.050
 8643POPC   C4B67810  14.124   2.074   7.350
 8644POPC   NC367811  16.741   8.223   5.550
 8644POPC   PO467812  16.720   8.207   5.850
 8644POPC   GL167813  16.710   8.200   6.150
 8644POPC   GL267814  16.693   8.272   6.150
 8644POPC   C1A67815  16.682   8.245   6.450
 8644POPC   D2A67816  16.767   8.173   6.750
 8644POPC   C3A67817  16.743   8.212   7.050
 8644POPC   C4A67818  16.688   8.227   7.350
 8644POPC   C1B67819  16.739   8.411   6.450
 8644POPC   C2B67820  16.698   8.406   6.750
 8644POPC   C3B67821  16.687   8.486   7.050
 8644POPC   C4B67822  16.768   8.402   7.350
 8645POPC   NC367823  26.838  19.022   5.550
 8645POPC   PO467824  26.842  19.050   5.850
 8645POPC   GL167825  26.847  19.068   6.150
 8645POPC   GL267826  26.823  18.970   6.150
 8645POPC   C1A67827  26.775  19.034   6.450
 8645POPC   D2A67828  26.852  19.042   6.750
 8645POPC   C3A67829  26.839  19.065   7.050
 8645POPC   C4A67830  26.796  19.086   7.350
 8645POPC   C1B67831  26.780  18.778   6.450
 8645POPC   C2B67832  26.787  18.868   6.750
 8645POPC   C3B67833  26.773  18.811   7.050
 8645POPC   C4B67834  26.765  18.844   7.350
 8646POPC   NC367835  31.520   5.074   5.550
 8646POPC   PO467836  31.491   5.050   5.850
 8646POPC   GL167837  31.492   5.113   6.150
 8646POPC   GL267838  31.619   5.151   6.150
 8646POPC   C1A67839  31.472   5.115   6.450
 8646POPC   D2A67840  31.426   5.112   6.750
 8646POPC   C3A67841  31.426   5.099   7.050
 8646POPC   C4A67842  31.487   5.076   7.350
 8646POPC   C1B67843  31.745   5.240   6.450
 8646POPC   C2B67844  31.706   5.205   6.750
 8646POPC   C3B67845  31.705   5.241   7.050
 8646POPC   C4B67846  31.732   5.250   7.350
 8647POPC   NC367847  40.779   0.397   5.550
 8647POPC   PO467848  40.819   0.460   5.850
 8647POPC   GL167849  40.757   0.426   6.150
 8647POPC   GL267850  40.803   0.331   6.150
 8647POPC   C1A67851  40.796   0.415   6.450
 8647POPC   D2A67852  40.787   0.458   6.750
 8647POPC   C3A67853  40.783   0.398   7.050
 8647POPC   C4A67854  40.804   0.466   7.350
 8647POPC   C1B67855  40.710   0.143   6.450
 8647POPC   C2B67856  40.726   0.232   6.750
 8647POPC   C3B67857  40.703   0.205   7.050
 8647POPC   C4B67858  40.782   0.181   7.350
 8648POPC   NC367859  17.521  40.001   5.550
 8648POPC   PO467860  17.492  39.977   5.850
 8648POPC   GL167861  17.537  40.023   6.150
 8648POPC   GL267862  17.574  40.152   6.150
 8648POPC   C1A67863  17.467  40.045   6.450
 8648POPC   D2A67864  17.505  40.032   6.750
 8648POPC   C3A67865  17.522  39.987   7.050
 8648POPC   C4A67866  17.470  39.983   7.350
 8648POPC   C1B67867  17.617  40.169   6.450
 8648POPC   C2B67868  17.665  40.173   6.750
 8648POPC   C3B67869  17.688  40.176   7.050
 8648POPC   C4B67870  17.701  40.191   7.350
 8649POPC   NC367871  43.141   1.978   5.550
 8649POPC   PO467872  43.128   2.005   5.850
 8649POPC   GL167873  43.152   1.966   6.150
 8649POPC   GL267874  43.036   1.835   6.150
 8649POPC   C1A67875  43.107   2.030   6.450
 8649POPC   D2A67876  43.097   1.942   6.750
 8649POPC   C3A67877  43.144   2.024   7.050
 8649POPC   C4A67878  43.124   1.957   7.350
 8649POPC   C1B67879  43.071   1.783   6.450
 8649POPC   C2B67880  43.024   1.800   6.750
 8649POPC   C3B67881  42.993   1.775   7.050
 8649POPC   C4B67882  43.017   1.710   7.350
 8650POPC   NC367883  29.175  40.807   5.550
 8650POPC   PO467884  29.113  40.768   5.850
 8650POPC   GL167885  29.132  40.749   6.150
 8650POPC   GL267886  29.197  40.743   6.150
 8650POPC   C1A67887  29.187  40.783   6.450
 8650POPC   D2A67888  29.147  40.789   6.750
 8650POPC   C3A67889  29.191  40.786   7.050
 8650POPC   C4A67890  29.128  40.749   7.350
 8650POPC   C1B67891  29.396  40.632   6.450
 8650POPC   C2B67892  29.357  40.652   6.750
 8650POPC   C3B67893  29.388  40.636   7.050
 8650POPC   C4B67894  29.354  40.628   7.350
 8651POPC   NC367895  38.483  12.822   5.550
 8651POPC   PO467896  38.484  12.806   5.850
 8651POPC   GL167897  38.490  12.810   6.150
 8651POPC   GL267898  38.514  12.935   6.150
 8651POPC   C1A67899  38.458  12.841   6.450
 8651POPC   D2A67900  38.418  12.865   6.750
 8651POPC   C3A67901  38.472  12.896   7.050
 8651POPC   C4A67902  38.463  12.839   7.350
 8651POPC   C1B67903  38.590  13.059   6.450
 8651POPC   C2B67904  38.562  13.049   6.750
 8651POPC   C3B67905  38.566  13.073   7.050
 8651POPC   C4B67906  38.564  13.083   7.350
 8652POPC   NC367907   7.419  33.816   5.550
 8652POPC   PO467908   7.462  33.817   5.850
 8652POPC   GL167909   7.393  33.792   6.150
 8652POPC   GL267910   7.474  33.945   6.150
 8652POPC   C1A67911   7.457  33.808   6.450
 8652POPC   D2A67912   7.454  33.826   6.750
 8652POPC   C3A67913   7.456  33.815   7.050
 8652POPC   C4A67914   7.386  33.794   7.350
 8652POPC   C1B67915   7.602  34.041   6.450
 8652POPC   C2B67916   7.582  34.024   6.750
 8652POPC   C3B67917   7.535  33.977   7.050
 8652POPC   C4B67918   7.623  34.039   7.350
 8653POPC   NC367919  29.959  15.908   5.550
 8653POPC   PO467920  29.931  15.985   5.850
 8653POPC   GL167921  29.962  15.940   6.150
 8653POPC   GL267922  29.827  15.885   6.150
 8653POPC   C1A67923  29.913  15.964   6.450
 8653POPC   D2A67924  29.880  15.966   6.750
 8653POPC   C3A67925  29.962  15.969   7.050
 8653POPC   C4A67926  29.942  15.955   7.350
 8653POPC   C1B67927  29.746  15.834   6.450
 8653POPC   C2B67928  29.765  15.785   6.750
 8653POPC   C3B67929  29.687  15.809   7.050
 8653POPC   C4B67930  29.732  15.767   7.350
 8654POPC   NC367931   1.216  38.417   5.550
 8654POPC   PO467932   1.258  38.496   5.850
 8654POPC   GL167933   1.186  38.451   6.150
 8654POPC   GL267934   1.241  38.340   6.150
 8654POPC   C1A67935   1.195  38.504   6.450
 8654POPC   D2A67936   1.259  38.410   6.750
 8654POPC   C3A67937   1.188  38.501   7.050
 8654POPC   C4A67938   1.187  38.445   7.350
 8654POPC   C1B67939   1.152  38.176   6.450
 8654POPC   C2B67940   1.229  38.173   6.750
 8654POPC   C3B67941   1.139  38.213   7.050
 8654POPC   C4B67942   1.133  38.175   7.350
 8655POPC   NC367943  15.153  40.781   5.550
 8655POPC   PO467944  15.155  40.798   5.850
 8655POPC   GL167945  15.171  40.824   6.150
 8655POPC   GL267946  15.053  40.843   6.150
 8655POPC   C1A67947  15.153  40.817   6.450
 8655POPC   D2A67948  15.130  40.747   6.750
 8655POPC   C3A67949  15.141  40.763   7.050
 8655POPC   C4A67950  15.199  40.824   7.350
 8655POPC   C1B67951  14.936  40.857   6.450
 8655POPC   C2B67952  14.937  40.918   6.750
 8655POPC   C3B67953  14.909  40.881   7.050
 8655POPC   C4B67954  14.973  40.887   7.350
 8656POPC   NC367955  28.385   2.778   5.550
 8656POPC   PO467956  28.395   2.756   5.850
 8656POPC   GL167957  28.402   2.803   6.150
 8656POPC   GL267958  28.317   2.871   6.150
 8656POPC   C1A67959  28.398   2.799   6.450
 8656POPC   D2A67960  28.333   2.738   6.750
 8656POPC   C3A67961  28.321   2.772   7.050
 8656POPC   C4A67962  28.416   2.753   7.350
 8656POPC   C1B67963  28.350   2.972   6.450
 8656POPC   C2B67964  28.344   3.037   6.750
 8656POPC   C3B67965  28.365   2.966   7.050
 8656POPC   C4B67966  28.384   2.967   7.350
 8657POPC   NC367967  28.415   2.000   5.550
 8657POPC   PO467968  28.403   1.951   5.850
 8657POPC   GL167969  28.355   1.960   6.150
 8657POPC   GL267970  28.286   1.907   6.150
 8657POPC   C1A67971  28.337   1.987   6.450
 8657POPC   D2A67972  28.359   1.948   6.750
 8657POPC   C3A67973  28.344   2.009   7.050
 8657POPC   C4A67974  28.340   1.998   7.350
 8657POPC   C1B67975  28.130   1.893   6.450
 8657POPC   C2B67976  28.089   1.927   6.750
 8657POPC   C3B67977  28.126   1.930   7.050
 8657POPC   C4B67978  28.135   1.906   7.350
 8658POPC   NC367979   7.435  39.272   5.550
 8658POPC   PO467980   7.449  39.183   5.850
 8658POPC   GL167981   7.425  39.230   6.150
 8658POPC   GL267982   7.536  39.208   6.150
 8658POPC   C1A67983   7.376  39.231   6.450
 8658POPC   D2A67984   7.441  39.264   6.750
 8658POPC   C3A67985   7.395  39.257   7.050
 8658POPC   C4A67986   7.384  39.219   7.350
 8658POPC   C1B67987   7.701  39.227   6.450
 8658POPC   C2B67988   7.706  39.297   6.750
 8658POPC   C3B67989   7.665  39.239   7.050
 8658POPC   C4B67990   7.622  39.252   7.350
 8659POPC   NC367991   7.447  21.428   5.550
 8659POPC   PO467992   7.470  21.417   5.850
 8659POPC   GL167993   7.412  21.392   6.150
 8659POPC   GL267994   7.346  21.436   6.150
 8659POPC   C1A67995   7.459  21.418   6.450
 8659POPC   D2A67996   7.426  21.373   6.750
 8659POPC   C3A67997   7.462  21.365   7.050
 8659POPC   C4A67998   7.448  21.425   7.350
 8659POPC   C1B67999   7.222  21.543   6.450
 8659POPC   C2B68000   7.209  21.592   6.750
 8659POPC   C3B68001   7.243  21.508   7.050
 8659POPC   C4B68002   7.201  21.516   7.350
 8660POPC   NC368003   0.467   0.411   5.550
 8660POPC   PO468004   0.454   0.452   5.850
 8660POPC   GL168005   0.430   0.403   6.150
 8660POPC   GL268006   0.604   0.423   6.150
 8660POPC   C1A68007   0.391   0.422   6.450
 8660POPC   D2A68008   0.411   0.405   6.750
 8660POPC   C3A68009   0.394   0.422   7.050
 8660POPC   C4A68010   0.392   0.468   7.350
 8660POPC   C1B68011   0.728   0.482   6.450
 8660POPC   C2B68012   0.700   0.436   6.750
 8660POPC   C3B68013   0.644   0.405   7.050
 8660POPC   C4B68014   0.689   0.472   7.350
 8661POPC   NC368015  13.642   7.421   5.550
 8661POPC   PO468016  13.622   7.457   5.850
 8661POPC   GL168017  13.662   7.378   6.150
 8661POPC   GL268018  13.590   7.565   6.150
 8661POPC   C1A68019  13.665   7.444   6.450
 8661POPC   D2A68020  13.643   7.440   6.750
 8661POPC   C3A68021  13.607   7.386   7.050
 8661POPC   C4A68022  13.668   7.464   7.350
 8661POPC   C1B68023  13.446   7.644   6.450
 8661POPC   C2B68024  13.486   7.649   6.750
 8661POPC   C3B68025  13.435   7.578   7.050
 8661POPC   C4B68026  13.518   7.633   7.350
 8662POPC   NC368027  25.275  36.176   5.550
 8662POPC   PO468028  25.225  36.138   5.850
 8662POPC   GL168029  25.243  36.147   6.150
 8662POPC   GL268030  25.155  36.118   6.150
 8662POPC   C1A68031  25.223  36.116   6.450
 8662POPC   D2A68032  25.235  36.150   6.750
 8662POPC   C3A68033  25.217  36.125   7.050
 8662POPC   C4A68034  25.244  36.163   7.350
 8662POPC   C1B68035  25.039  36.197   6.450
 8662POPC   C2B68036  25.064  36.133   6.750
 8662POPC   C3B68037  25.065  36.101   7.050
 8662POPC   C4B68038  25.051  36.159   7.350
 8663POPC   NC368039   1.170   3.590   5.550
 8663POPC   PO468040   1.247   3.581   5.850
 8663POPC   GL168041   1.244   3.586   6.150
 8663POPC   GL268042   1.259   3.704   6.150
 8663POPC   C1A68043   1.227   3.508   6.450
 8663POPC   D2A68044   1.213   3.535   6.750
 8663POPC   C3A68045   1.250   3.517   7.050
 8663POPC   C4A68046   1.236   3.557   7.350
 8663POPC   C1B68047   1.281   3.763   6.450
 8663POPC   C2B68048   1.245   3.797   6.750
 8663POPC   C3B68049   1.326   3.816   7.050
 8663POPC   C4B68050   1.309   3.758   7.350
 8664POPC   NC368051   9.787  13.606   5.550
 8664POPC   PO468052   9.712  13.619   5.850
 8664POPC   GL168053   9.747  13.618   6.150
 8664POPC   GL268054   9.753  13.473   6.150
 8664POPC   C1A68055   9.745  13.584   6.450
 8664POPC   D2A68056   9.789  13.676   6.750
 8664POPC   C3A68057   9.699  13.672   7.050
 8664POPC   C4A68058   9.797  13.662   7.350
 8664POPC   C1B68059   9.858  13.350   6.450
 8664POPC   C2B68060   9.808  13.395   6.750
 8664POPC   C3B68061   9.787  13.349   7.050
 8664POPC   C4B68062   9.834  13.399   7.350
 8665POPC   NC368063  20.651  30.672   5.550
 8665POPC   PO468064  20.630  30.718   5.850
 8665POPC   GL168065  20.562  30.690   6.150
 8665POPC   GL268066  20.523  30.781   6.150
 8665POPC   C1A68067  20.589  30.711   6.450
 8665POPC   D2A68068  20.603  30.694   6.750
 8665POPC   C3A68069  20.570  30.720   7.050
 8665POPC   C4A68070  20.601  30.721   7.350
 8665POPC   C1B68071  20.453  30.965   6.450
 8665POPC   C2B68072  20.514  30.961   6.750
 8665POPC   C3B68073  20.513  30.937   7.050
 8665POPC   C4B68074  20.489  30.909   7.350
 8666POPC   NC368075  31.466   8.199   5.550
 8666POPC   PO468076  31.460   8.169   5.850
 8666POPC   GL168077  31.444   8.185   6.150
 8666POPC   GL268078  31.497   8.030   6.150
 8666POPC   C1A68079  31.491   8.175   6.450
 8666POPC   D2A68080  31.466   8.148   6.750
 8666POPC   C3A68081  31.474   8.236   7.050
 8666POPC   C4A68082  31.462   8.148   7.350
 8666POPC   C1B68083  31.393   7.945   6.450
 8666POPC   C2B68084  31.397   7.992   6.750
 8666POPC   C3B68085  31.398   7.970   7.050
 8666POPC   C4B68086  31.440   7.949   7.350
 8667POPC   NC368087  21.376  21.422   5.550
 8667POPC   PO468088  21.349  21.342   5.850
 8667POPC   GL168089  21.369  21.354   6.150
 8667POPC   GL268090  21.385  21.244   6.150
 8667POPC   C1A68091  21.418  21.383   6.450
 8667POPC   D2A68092  21.393  21.382   6.750
 8667POPC   C3A68093  21.383  21.423   7.050
 8667POPC   C4A68094  21.364  21.421   7.350
 8667POPC   C1B68095  21.459  21.174   6.450
 8667POPC   C2B68096  21.441  21.109   6.750
 8667POPC   C3B68097  21.502  21.148   7.050
 8667POPC   C4B68098  21.495  21.130   7.350
 8668POPC   NC368099  39.276   5.863   5.550
 8668POPC   PO468100  39.202   5.885   5.850
 8668POPC   GL168101  39.240   5.881   6.150
 8668POPC   GL268102  39.107   5.798   6.150
 8668POPC   C1A68103  39.275   5.866   6.450
 8668POPC   D2A68104  39.185   5.861   6.750
 8668POPC   C3A68105  39.220   5.885   7.050
 8668POPC   C4A68106  39.256   5.897   7.350
 8668POPC   C1B68107  39.056   5.669   6.450
 8668POPC   C2B68108  39.112   5.658   6.750
 8668POPC   C3B68109  39.059   5.632   7.050
 8668POPC   C4B68110  39.089   5.641   7.350
 8669POPC   NC368111  37.702  28.325   5.550
 8669POPC   PO468112  37.716  28.416   5.850
 8669POPC   GL168113  37.659  28.381   6.150
 8669POPC   GL268114  37.590  28.312   6.150
 8669POPC   C1A68115  37.715  28.391   6.450
 8669POPC   D2A68116  37.723  28.405   6.750
 8669POPC   C3A68117  37.659  28.372   7.050
 8669POPC   C4A68118  37.713  28.353   7.350
 8669POPC   C1B68119  37.484  28.230   6.450
 8669POPC   C2B68120  37.473  28.143   6.750
 8669POPC   C3B68121  37.522  28.162   7.050
 8669POPC   C4B68122  37.460  28.178   7.350
 8670POPC   NC368123  11.285  25.313   5.550
 8670POPC   PO468124  11.256  25.226   5.850
 8670POPC   GL168125  11.326  25.259   6.150
 8670POPC   GL268126  11.181  25.212   6.150
 8670POPC   C1A68127  11.253  25.283   6.450
 8670POPC   D2A68128  11.255  25.237   6.750
 8670POPC   C3A68129  11.260  25.239   7.050
 8670POPC   C4A68130  11.335  25.286   7.350
 8670POPC   C1B68131  11.064  25.110   6.450
 8670POPC   C2B68132  11.124  25.144   6.750
 8670POPC   C3B68133  11.035  25.158   7.050
 8670POPC   C4B68134  11.119  25.140   7.350
 8671POPC   NC368135  43.889  37.686   5.550
 8671POPC   PO468136  43.931  37.653   5.850
 8671POPC   GL168137  43.919  37.718   6.150
 8671POPC   GL268138  43.778  37.574   6.150
 8671POPC   C1A68139  43.891  37.722   6.450
 8671POPC   D2A68140  43.915  37.661   6.750
 8671POPC   C3A68141  43.930  37.655   7.050
 8671POPC   C4A68142  43.842  37.700   7.350
 8671POPC   C1B68143  43.650  37.545   6.450
 8671POPC   C2B68144  43.654  37.563   6.750
 8671POPC   C3B68145  43.651  37.574   7.050
 8671POPC   C4B68146  43.655  37.494   7.350
 8672POPC   NC368147  28.387  31.474   5.550
 8672POPC   PO468148  28.346  31.434   5.850
 8672POPC   GL168149  28.417  31.506   6.150
 8672POPC   GL268150  28.512  31.489   6.150
 8672POPC   C1A68151  28.333  31.517   6.450
 8672POPC   D2A68152  28.323  31.436   6.750
 8672POPC   C3A68153  28.355  31.430   7.050
 8672POPC   C4A68154  28.345  31.455   7.350
 8672POPC   C1B68155  28.579  31.533   6.450
 8672POPC   C2B68156  28.650  31.465   6.750
 8672POPC   C3B68157  28.639  31.492   7.050
 8672POPC   C4B68158  28.636  31.521   7.350
 8673POPC   NC368159  11.272  14.372   5.550
 8673POPC   PO468160  11.335  14.427   5.850
 8673POPC   GL168161  11.323  14.397   6.150
 8673POPC   GL268162  11.404  14.509   6.150
 8673POPC   C1A68163  11.277  14.435   6.450
 8673POPC   D2A68164  11.298  14.413   6.750
 8673POPC   C3A68165  11.255  14.411   7.050
 8673POPC   C4A68166  11.265  14.415   7.350
 8673POPC   C1B68167  11.497  14.580   6.450
 8673POPC   C2B68168  11.499  14.559   6.750
 8673POPC   C3B68169  11.522  14.613   7.050
 8673POPC   C4B68170  11.472  14.550   7.350
 8674POPC   NC368171  40.021  39.200   5.550
 8674POPC   PO468172  39.967  39.222   5.850
 8674POPC   GL168173  40.044  39.243   6.150
 8674POPC   GL268174  40.016  39.398   6.150
 8674POPC   C1A68175  39.959  39.215   6.450
 8674POPC   D2A68176  39.984  39.269   6.750
 8674POPC   C3A68177  39.977  39.216   7.050
 8674POPC   C4A68178  40.041  39.248   7.350
 8674POPC   C1B68179  39.970  39.484   6.450
 8674POPC   C2B68180  39.929  39.497   6.750
 8674POPC   C3B68181  40.011  39.504   7.050
 8674POPC   C4B68182  40.017  39.503   7.350
 8675POPC   NC368183  27.588  24.472   5.550
 8675POPC   PO468184  27.626  24.529   5.850
 8675POPC   GL168185  27.574  24.533   6.150
 8675POPC   GL268186  27.652  24.330   6.150
 8675POPC   C1A68187  27.620  24.441   6.450
 8675POPC   D2A68188  27.548  24.502   6.750
 8675POPC   C3A68189  27.622  24.467   7.050
 8675POPC   C4A68190  27.625  24.531   7.350
 8675POPC   C1B68191  27.663  24.275   6.450
 8675POPC   C2B68192  27.674  24.219   6.750
 8675POPC   C3B68193  27.636  24.280   7.050
 8675POPC   C4B68194  27.677  24.249   7.350
 8676POPC   NC368195   6.654  36.936   5.550
 8676POPC   PO468196   6.648  36.867   5.850
 8676POPC   GL168197   6.648  36.883   6.150
 8676POPC   GL268198   6.642  37.057   6.150
 8676POPC   C1A68199   6.638  36.859   6.450
 8676POPC   D2A68200   6.653  36.881   6.750
 8676POPC   C3A68201   6.666  36.912   7.050
 8676POPC   C4A68202   6.670  36.945   7.350
 8676POPC   C1B68203   6.584  37.171   6.450
 8676POPC   C2B68204   6.559  37.102   6.750
 8676POPC   C3B68205   6.560  37.158   7.050
 8676POPC   C4B68206   6.549  37.130   7.350
 8677POPC   NC368207  29.103  42.353   5.550
 8677POPC   PO468208  29.163  42.348   5.850
 8677POPC   GL168209  29.168  42.356   6.150
 8677POPC   GL268210  29.045  42.300   6.150
 8677POPC   C1A68211  29.171  42.368   6.450
 8677POPC   D2A68212  29.178  42.291   6.750
 8677POPC   C3A68213  29.106  42.371   7.050
 8677POPC   C4A68214  29.189  42.365   7.350
 8677POPC   C1B68215  28.916  42.213   6.450
 8677POPC   C2B68216  28.940  42.136   6.750
 8677POPC   C3B68217  28.918  42.195   7.050
 8677POPC   C4B68218  28.972  42.154   7.350
 8678POPC   NC368219  32.282  26.051   5.550
 8678POPC   PO468220  32.231  26.088   5.850
 8678POPC   GL168221  32.257  25.996   6.150
 8678POPC   GL268222  32.345  26.194   6.150
 8678POPC   C1A68223  32.272  25.993   6.450
 8678POPC   D2A68224  32.286  25.994   6.750
 8678POPC   C3A68225  32.295  25.997   7.050
 8678POPC   C4A68226  32.257  25.998   7.350
 8678POPC   C1B68227  32.390  26.258   6.450
 8678POPC   C2B68228  32.415  26.290   6.750
 8678POPC   C3B68229  32.395  26.293   7.050
 8678POPC   C4B68230  32.384  26.277   7.350
 8679POPC   NC368231   3.515  25.237   5.550
 8679POPC   PO468232   3.535  25.237   5.850
 8679POPC   GL168233   3.533  25.308   6.150
 8679POPC   GL268234   3.448  25.286   6.150
 8679POPC   C1A68235   3.583  25.286   6.450
 8679POPC   D2A68236   3.530  25.280   6.750
 8679POPC   C3A68237   3.585  25.281   7.050
 8679POPC   C4A68238   3.582  25.226   7.350
 8679POPC   C1B68239   3.271  25.216   6.450
 8679POPC   C2B68240   3.252  25.306   6.750
 8679POPC   C3B68241   3.292  25.285   7.050
 8679POPC   C4B68242   3.273  25.251   7.350
 8680POPC   NC368243  15.957  43.122   5.550
 8680POPC   PO468244  15.957  43.120   5.850
 8680POPC   GL168245  15.925  43.121   6.150
 8680POPC   GL268246  15.945  43.022   6.150
 8680POPC   C1A68247  15.959  43.097   6.450
 8680POPC   D2A68248  15.906  43.126   6.750
 8680POPC   C3A68249  15.916  43.160   7.050
 8680POPC   C4A68250  15.917  43.103   7.350
 8680POPC   C1B68251  15.908  42.924   6.450
 8680POPC   C2B68252  15.882  42.850   6.750
 8680POPC   C3B68253  15.901  42.898   7.050
 8680POPC   C4B68254  15.818  42.857   7.350
 8681POPC   NC368255  40.016  36.935   5.550
 8681POPC   PO468256  39.977  36.891   5.850
 8681POPC   GL168257  39.991  36.900   6.150
 8681POPC   GL268258  40.017  36.972   6.150
 8681POPC   C1A68259  39.967  36.901   6.450
 8681POPC   D2A68260  40.018  36.928   6.750
 8681POPC   C3A68261  39.994  36.952   7.050
 8681POPC   C4A68262  39.982  36.877   7.350
 8681POPC   C1B68263  40.072  37.128   6.450
 8681POPC   C2B68264  40.065  37.162   6.750
 8681POPC   C3B68265  40.143  37.117   7.050
 8681POPC   C4B68266  40.146  37.105   7.350
 8682POPC   NC368267  22.943  32.199   5.550
 8682POPC   PO468268  22.974  32.206   5.850
 8682POPC   GL168269  22.935  32.230   6.150
 8682POPC   GL268270  22.922  32.384   6.150
 8682POPC   C1A68271  22.918  32.237   6.450
 8682POPC   D2A68272  22.940  32.206   6.750
 8682POPC   C3A68273  22.947  32.229   7.050
 8682POPC   C4A68274  22.953  32.294   7.350
 8682POPC   C1B68275  22.970  32.523   6.450
 8682POPC   C2B68276  22.963  32.494   6.750
 8682POPC   C3B68277  22.938  32.452   7.050
 8682POPC   C4B68278  22.986  32.497   7.350
 8683POPC   NC368279  16.690  44.634   5.550
 8683POPC   PO468280  16.735  44.667   5.850
 8683POPC   GL168281  16.712  44.645   6.150
 8683POPC   GL268282  16.804  44.541   6.150
 8683POPC   C1A68283  16.773  44.615   6.450
 8683POPC   D2A68284  16.740  44.641   6.750
 8683POPC   C3A68285  16.690  44.651   7.050
 8683POPC   C4A68286  16.708  44.704   7.350
 8683POPC   C1B68287  16.831  44.461   6.450
 8683POPC   C2B68288  16.883  44.501   6.750
 8683POPC   C3B68289  16.869  44.451   7.050
 8683POPC   C4B68290  16.849  44.420   7.350
 8684POPC   NC368291  27.581  18.290   5.550
 8684POPC   PO468292  27.597  18.324   5.850
 8684POPC   GL168293  27.615  18.260   6.150
 8684POPC   GL268294  27.644  18.201   6.150
 8684POPC   C1A68295  27.590  18.284   6.450
 8684POPC   D2A68296  27.586  18.292   6.750
 8684POPC   C3A68297  27.618  18.246   7.050
 8684POPC   C4A68298  27.573  18.328   7.350
 8684POPC   C1B68299  27.675  18.024   6.450
 8684POPC   C2B68300  27.607  17.998   6.750
 8684POPC   C3B68301  27.645  18.081   7.050
 8684POPC   C4B68302  27.663  18.068   7.350
 8685POPC   NC368303   6.616  41.594   5.550
 8685POPC   PO468304   6.676  41.576   5.850
 8685POPC   GL168305   6.687  41.584   6.150
 8685POPC   GL268306   6.550  41.619   6.150
 8685POPC   C1A68307   6.641  41.527   6.450
 8685POPC   D2A68308   6.598  41.584   6.750
 8685POPC   C3A68309   6.639  41.559   7.050
 8685POPC   C4A68310   6.616  41.515   7.350
 8685POPC   C1B68311   6.471  41.702   6.450
 8685POPC   C2B68312   6.512  41.767   6.750
 8685POPC   C3B68313   6.436  41.704   7.050
 8685POPC   C4B68314   6.449  41.733   7.350
 8686POPC   NC368315   8.231  21.353   5.550
 8686POPC   PO468316   8.175  21.426   5.850
 8686POPC   GL168317   8.236  21.420   6.150
 8686POPC   GL268318   8.132  21.469   6.150
 8686POPC   C1A68319   8.197  21.435   6.450
 8686POPC   D2A68320   8.224  21.381   6.750
 8686POPC   C3A68321   8.231  21.344   7.050
 8686POPC   C4A68322   8.159  21.344   7.350
 8686POPC   C1B68323   7.979  21.542   6.450
 8686POPC   C2B68324   7.989  21.512   6.750
 8686POPC   C3B68325   7.974  21.507   7.050
 8686POPC   C4B68326   7.929  21.501   7.350
 8687POPC   NC368327  37.711   4.327   5.550
 8687POPC   PO468328  37.714   4.360   5.850
 8687POPC   GL168329  37.637   4.269   6.150
 8687POPC   GL268330  37.808   4.366   6.150
 8687POPC   C1A68331  37.656   4.327   6.450
 8687POPC   D2A68332  37.633   4.302   6.750
 8687POPC   C3A68333  37.714   4.359   7.050
 8687POPC   C4A68334  37.680   4.315   7.350
 8687POPC   C1B68335  37.921   4.448   6.450
 8687POPC   C2B68336  37.891   4.439   6.750
 8687POPC   C3B68337  37.937   4.393   7.050
 8687POPC   C4B68338  37.932   4.395   7.350
 8688POPC   NC368339  15.222   9.785   5.550
 8688POPC   PO468340  15.196   9.717   5.850
 8688POPC   GL168341  15.190   9.766   6.150
 8688POPC   GL268342  15.256   9.867   6.150
 8688POPC   C1A68343  15.183   9.774   6.450
 8688POPC   D2A68344  15.213   9.733   6.750
 8688POPC   C3A68345  15.136   9.768   7.050
 8688POPC   C4A68346  15.142   9.700   7.350
 8688POPC   C1B68347  15.258   9.993   6.450
 8688POPC   C2B68348  15.270   9.956   6.750
 8688POPC   C3B68349  15.273   9.919   7.050
 8688POPC   C4B68350  15.351   9.915   7.350
 8689POPC   NC368351  36.125  27.603   5.550
 8689POPC   PO468352  36.095  27.641   5.850
 8689POPC   GL168353  36.114  27.583   6.150
 8689POPC   GL268354  36.081  27.706   6.150
 8689POPC   C1A68355  36.177  27.580   6.450
 8689POPC   D2A68356  36.113  27.577   6.750
 8689POPC   C3A68357  36.124  27.581   7.050
 8689POPC   C4A68358  36.149  27.556   7.350
 8689POPC   C1B68359  35.980  27.827   6.450
 8689POPC   C2B68360  35.998  27.814   6.750
 8689POPC   C3B68361  35.955  27.815   7.050
 8689POPC   C4B68362  35.986  27.789   7.350
 8690POPC   NC368363  36.127  33.776   5.550
 8690POPC   PO468364  36.137  33.761   5.850
 8690POPC   GL168365  36.153  33.766   6.150
 8690POPC   GL268366  35.981  33.825   6.150
 8690POPC   C1A68367  36.139  33.849   6.450
 8690POPC   D2A68368  36.079  33.764   6.750
 8690POPC   C3A68369  36.160  33.772   7.050
 8690POPC   C4A68370  36.141  33.751   7.350
 8690POPC   C1B68371  35.884  33.793   6.450
 8690POPC   C2B68372  35.891  33.812   6.750
 8690POPC   C3B68373  35.843  33.841   7.050
 8690POPC   C4B68374  35.860  33.868   7.350
 8691POPC   NC368375  35.318  41.590   5.550
 8691POPC   PO468376  35.317  41.598   5.850
 8691POPC   GL168377  35.355  41.593   6.150
 8691POPC   GL268378  35.254  41.595   6.150
 8691POPC   C1A68379  35.306  41.512   6.450
 8691POPC   D2A68380  35.337  41.568   6.750
 8691POPC   C3A68381  35.321  41.512   7.050
 8691POPC   C4A68382  35.392  41.588   7.350
 8691POPC   C1B68383  35.113  41.545   6.450
 8691POPC   C2B68384  35.087  41.601   6.750
 8691POPC   C3B68385  35.070  41.568   7.050
 8691POPC   C4B68386  35.059  41.548   7.350
 8692POPC   NC368387  26.016  26.799   5.550
 8692POPC   PO468388  26.050  26.848   5.850
 8692POPC   GL168389  26.026  26.846   6.150
 8692POPC   GL268390  26.162  26.790   6.150
 8692POPC   C1A68391  26.058  26.811   6.450
 8692POPC   D2A68392  26.069  26.836   6.750
 8692POPC   C3A68393  26.048  26.794   7.050
 8692POPC   C4A68394  26.080  26.787   7.350
 8692POPC   C1B68395  26.288  26.718   6.450
 8692POPC   C2B68396  26.265  26.660   6.750
 8692POPC   C3B68397  26.220  26.705   7.050
 8692POPC   C4B68398  26.237  26.697   7.350
 8693POPC   NC368399  44.660  39.999   5.550
 8693POPC   PO468400  44.675  40.042   5.850
 8693POPC   GL168401  44.626  39.988   6.150
 8693POPC   GL268402  44.580  39.936   6.150
 8693POPC   C1A68403  44.673  39.962   6.450
 8693POPC   D2A68404  44.682  39.989   6.750
 8693POPC   C3A68405  44.634  40.053   7.050
 8693POPC   C4A68406  44.632  39.961   7.350
 8693POPC   C1B68407  44.603  39.756   6.450
 8693POPC   C2B68408  44.559  39.813   6.750
 8693POPC   C3B68409  44.589  39.802   7.050
 8693POPC   C4B68410  44.598  39.767   7.350
 8694POPC   NC368411   2.717   2.020   5.550
 8694POPC   PO468412   2.790   1.986   5.850
 8694POPC   GL168413   2.811   2.013   6.150
 8694POPC   GL268414   2.663   1.879   6.150
 8694POPC   C1A68415   2.775   1.989   6.450
 8694POPC   D2A68416   2.753   2.007   6.750
 8694POPC   C3A68417   2.752   2.007   7.050
 8694POPC   C4A68418   2.725   1.969   7.350
 8694POPC   C1B68419   2.570   1.832   6.450
 8694POPC   C2B68420   2.608   1.812   6.750
 8694POPC   C3B68421   2.646   1.833   7.050
 8694POPC   C4B68422   2.608   1.759   7.350
 8695POPC   NC368423  29.970  28.365   5.550
 8695POPC   PO468424  29.943  28.388   5.850
 8695POPC   GL168425  29.922  28.369   6.150
 8695POPC   GL268426  29.936  28.443   6.150
 8695POPC   C1A68427  29.884  28.400   6.450
 8695POPC   D2A68428  29.958  28.391   6.750
 8695POPC   C3A68429  29.960  28.382   7.050
 8695POPC   C4A68430  29.873  28.352   7.350
 8695POPC   C1B68431  29.971  28.580   6.450
 8695POPC   C2B68432  30.054  28.605   6.750
 8695POPC   C3B68433  30.023  28.623   7.050
 8695POPC   C4B68434  30.055  28.616   7.350
 8696POPC   NC368435  20.594   2.784   5.550
 8696POPC   PO468436  20.657   2.795   5.850
 8696POPC   GL168437  20.622   2.778   6.150
 8696POPC   GL268438  20.721   2.756   6.150
 8696POPC   C1A68439  20.631   2.759   6.450
 8696POPC   D2A68440  20.597   2.731   6.750
 8696POPC   C3A68441  20.637   2.729   7.050
 8696POPC   C4A68442  20.653   2.813   7.350
 8696POPC   C1B68443  20.886   2.725   6.450
 8696POPC   C2B68444  20.907   2.747   6.750
 8696POPC   C3B68445  20.879   2.792   7.050
 8696POPC   C4B68446  20.822   2.754   7.350
 8697POPC   NC368447  23.674  29.100   5.550
 8697POPC   PO468448  23.693  29.169   5.850
 8697POPC   GL168449  23.753  29.140   6.150
 8697POPC   GL268450  23.696  29.049   6.150
 8697POPC   C1A68451  23.755  29.132   6.450
 8697POPC   D2A68452  23.686  29.166   6.750
 8697POPC   C3A68453  23.763  29.113   7.050
 8697POPC   C4A68454  23.746  29.100   7.350
 8697POPC   C1B68455  23.749  28.913   6.450
 8697POPC   C2B68456  23.694  28.891   6.750
 8697POPC   C3B68457  23.731  28.940   7.050
 8697POPC   C4B68458  23.766  28.911   7.350
 8698POPC   NC368459  43.850   7.413   5.550
 8698POPC   PO468460  43.837   7.406   5.850
 8698POPC   GL168461  43.935   7.398   6.150
 8698POPC   GL268462  43.884   7.263   6.150
 8698POPC   C1A68463  43.888   7.382   6.450
 8698POPC   D2A68464  43.930   7.406   6.750
 8698POPC   C3A68465  43.890   7.446   7.050
 8698POPC   C4A68466  43.845   7.413   7.350
 8698POPC   C1B68467  43.833   7.201   6.450
 8698POPC   C2B68468  43.842   7.181   6.750
 8698POPC   C3B68469  43.837   7.225   7.050
 8698POPC   C4B68470  43.747   7.175   7.350
 8699POPC   NC368471  22.192  22.137   5.550
 8699POPC   PO468472  22.163  22.156   5.850
 8699POPC   GL168473  22.199  22.191   6.150
 8699POPC   GL268474  22.239  22.149   6.150
 8699POPC   C1A68475  22.188  22.154   6.450
 8699POPC   D2A68476  22.195  22.163   6.750
 8699POPC   C3A68477  22.169  22.172   7.050
 8699POPC   C4A68478  22.186  22.156   7.350
 8699POPC   C1B68479  22.447  22.130   6.450
 8699POPC   C2B68480  22.382  22.063   6.750
 8699POPC   C3B68481  22.410  22.139   7.050
 8699POPC   C4B68482  22.405  22.147   7.350
 8700POPC   NC368483  35.313   5.844   5.550
 8700POPC   PO468484  35.378   5.900   5.850
 8700POPC   GL168485  35.311   5.897   6.150
 8700POPC   GL268486  35.230   5.993   6.150
 8700POPC   C1A68487  35.310   5.917   6.450
 8700POPC   D2A68488  35.372   5.832   6.750
 8700POPC   C3A68489  35.314   5.918   7.050
 8700POPC   C4A68490  35.370   5.836   7.350
 8700POPC   C1B68491  35.216   6.079   6.450
 8700POPC   C2B68492  35.169   6.037   6.750
 8700POPC   C3B68493  35.204   6.048   7.050
 8700POPC   C4B68494  35.192   6.086   7.350
 8701POPC   NC368495  33.765   0.425   5.550
 8701POPC   PO468496  33.782   0.454   5.850
 8701POPC   GL168497  33.789   0.439   6.150
 8701POPC   GL268498  33.696   0.463   6.150
 8701POPC   C1A68499  33.792   0.399   6.450
 8701POPC   D2A68500  33.818   0.392   6.750
 8701POPC   C3A68501  33.807   0.434   7.050
 8701POPC   C4A68502  33.750   0.487   7.350
 8701POPC   C1B68503  33.551   0.596   6.450
 8701POPC   C2B68504  33.616   0.583   6.750
 8701POPC   C3B68505  33.534   0.512   7.050
 8701POPC   C4B68506  33.615   0.517   7.350
 8702POPC   NC368507  26.809  31.520   5.550
 8702POPC   PO468508  26.819  31.511   5.850
 8702POPC   GL168509  26.824  31.504   6.150
 8702POPC   GL268510  26.884  31.557   6.150
 8702POPC   C1A68511  26.818  31.446   6.450
 8702POPC   D2A68512  26.860  31.465   6.750
 8702POPC   C3A68513  26.815  31.444   7.050
 8702POPC   C4A68514  26.785  31.458   7.350
 8702POPC   C1B68515  27.014  31.622   6.450
 8702POPC   C2B68516  26.987  31.655   6.750
 8702POPC   C3B68517  27.018  31.637   7.050
 8702POPC   C4B68518  27.002  31.642   7.350
 8703POPC   NC368519   1.211  44.654   5.550
 8703POPC   PO468520   1.226  44.698   5.850
 8703POPC   GL168521   1.231  44.612   6.150
 8703POPC   GL268522   1.312  44.766   6.150
 8703POPC   C1A68523   1.174  44.677   6.450
 8703POPC   D2A68524   1.208  44.695   6.750
 8703POPC   C3A68525   1.254  44.672   7.050
 8703POPC   C4A68526   1.172  44.632   7.350
 8703POPC   C1B68527   1.392  44.860   6.450
 8703POPC   C2B68528   1.349  44.867   6.750
 8703POPC   C3B68529   1.312  44.895   7.050
 8703POPC   C4B68530   1.319  44.856   7.350
 8704POPC   NC368531  31.500  33.004   5.550
 8704POPC   PO468532  31.426  33.053   5.850
 8704POPC   GL168533  31.473  33.071   6.150
 8704POPC   GL268534  31.356  33.057   6.150
 8704POPC   C1A68535  31.457  33.010   6.450
 8704POPC   D2A68536  31.501  32.982   6.750
 8704POPC   C3A68537  31.474  33.065   7.050
 8704POPC   C4A68538  31.509  33.025   7.350
 8704POPC   C1B68539  31.255  33.095   6.450
 8704POPC   C2B68540  31.256  33.050   6.750
 8704POPC   C3B68541  31.211  33.087   7.050
 8704POPC   C4B68542  31.177  33.061   7.350
 8705POPC   NC368543  36.085  18.245   5.550
 8705POPC   PO468544  36.120  18.245   5.850
 8705POPC   GL168545  36.131  18.304   6.150
 8705POPC   GL268546  36.187  18.143   6.150
 8705POPC   C1A68547  36.112  18.324   6.450
 8705POPC   D2A68548  36.145  18.260   6.750
 8705POPC   C3A68549  36.114  18.286   7.050
 8705POPC   C4A68550  36.115  18.251   7.350
 8705POPC   C1B68551  36.241  18.085   6.450
 8705POPC   C2B68552  36.216  18.012   6.750
 8705POPC   C3B68553  36.251  18.060   7.050
 8705POPC   C4B68554  36.257  18.048   7.350
 8706POPC   NC368555  19.063   5.112   5.550
 8706POPC   PO468556  19.075   5.061   5.850
 8706POPC   GL168557  19.093   5.110   6.150
 8706POPC   GL268558  19.046   4.942   6.150
 8706POPC   C1A68559  19.036   5.114   6.450
 8706POPC   D2A68560  19.043   5.051   6.750
 8706POPC   C3A68561  19.078   5.075   7.050
 8706POPC   C4A68562  19.063   5.052   7.350
 8706POPC   C1B68563  18.992   4.821   6.450
 8706POPC   C2B68564  18.953   4.848   6.750
 8706POPC   C3B68565  19.006   4.827   7.050
 8706POPC   C4B68566  18.981   4.825   7.350
 8707POPC   NC368567  42.346  18.331   5.550
 8707POPC   PO468568  42.361  18.248   5.850
 8707POPC   GL168569  42.353  18.293   6.150
 8707POPC   GL268570  42.343  18.407   6.150
 8707POPC   C1A68571  42.319  18.238   6.450
 8707POPC   D2A68572  42.376  18.278   6.750
 8707POPC   C3A68573  42.326  18.303   7.050
 8707POPC   C4A68574  42.323  18.284   7.350
 8707POPC   C1B68575  42.250  18.485   6.450
 8707POPC   C2B68576  42.275  18.558   6.750
 8707POPC   C3B68577  42.238  18.478   7.050
 8707POPC   C4B68578  42.238  18.521   7.350
 8708POPC   NC368579  19.019  29.130   5.550
 8708POPC   PO468580  19.055  29.138   5.850
 8708POPC   GL168581  19.075  29.154   6.150
 8708POPC   GL268582  18.892  29.146   6.150
 8708POPC   C1A68583  19.088  29.100   6.450
 8708POPC   D2A68584  19.088  29.162   6.750
 8708POPC   C3A68585  19.064  29.190   7.050
 8708POPC   C4A68586  19.095  29.123   7.350
 8708POPC   C1B68587  18.827  29.137   6.450
 8708POPC   C2B68588  18.843  29.130   6.750
 8708POPC   C3B68589  18.788  29.203   7.050
 8708POPC   C4B68590  18.850  29.154   7.350
 8709POPC   NC368591  34.620  34.580   5.550
 8709POPC   PO468592  34.548  34.535   5.850
 8709POPC   GL168593  34.558  34.595   6.150
 8709POPC   GL268594  34.579  34.702   6.150
 8709POPC   C1A68595  34.597  34.543   6.450
 8709POPC   D2A68596  34.538  34.550   6.750
 8709POPC   C3A68597  34.598  34.596   7.050
 8709POPC   C4A68598  34.575  34.547   7.350
 8709POPC   C1B68599  34.616  34.811   6.450
 8709POPC   C2B68600  34.636  34.793   6.750
 8709POPC   C3B68601  34.586  34.816   7.050
 8709POPC   C4B68602  34.588  34.839   7.350
 8710POPC   NC368603  42.348  32.992   5.550
 8710POPC   PO468604  42.294  33.016   5.850
 8710POPC   GL168605  42.304  33.004   6.150
 8710POPC   GL268606  42.212  32.960   6.150
 8710POPC   C1A68607  42.332  32.990   6.450
 8710POPC   D2A68608  42.315  33.067   6.750
 8710POPC   C3A68609  42.384  33.010   7.050
 8710POPC   C4A68610  42.342  33.036   7.350
 8710POPC   C1B68611  42.147  32.843   6.450
 8710POPC   C2B68612  42.157  32.857   6.750
 8710POPC   C3B68613  42.124  32.839   7.050
 8710POPC   C4B68614  42.119  32.853   7.350
 8711POPC   NC368615  17.555  19.855   5.550
 8711POPC   PO468616  17.472  19.821   5.850
 8711POPC   GL168617  17.468  19.877   6.150
 8711POPC   GL268618  17.567  19.942   6.150
 8711POPC   C1A68619  17.459  19.796   6.450
 8711POPC   D2A68620  17.466  19.819   6.750
 8711POPC   C3A68621  17.468  19.819   7.050
 8711POPC   C4A68622  17.480  19.872   7.350
 8711POPC   C1B68623  17.720  19.960   6.450
 8711POPC   C2B68624  17.712  20.000   6.750
 8711POPC   C3B68625  17.710  19.965   7.050
 8711POPC   C4B68626  17.740  20.014   7.350
 8712POPC   NC368627  33.753   5.893   5.550
 8712POPC   PO468628  33.752   5.844   5.850
 8712POPC   GL168629  33.805   5.883   6.150
 8712POPC   GL268630  33.910   5.982   6.150
 8712POPC   C1A68631  33.801   5.896   6.450
 8712POPC   D2A68632  33.820   5.895   6.750
 8712POPC   C3A68633  33.828   5.874   7.050
 8712POPC   C4A68634  33.768   5.871   7.350
 8712POPC   C1B68635  34.007   6.079   6.450
 8712POPC   C2B68636  34.000   6.048   6.750
 8712POPC   C3B68637  34.004   6.081   7.050
 8712POPC   C4B68638  33.992   5.999   7.350
 8713POPC   NC368639  19.854  43.084   5.550
 8713POPC   PO468640  19.859  43.088   5.850
 8713POPC   GL168641  19.792  43.151   6.150
 8713POPC   GL268642  19.686  43.057   6.150
 8713POPC   C1A68643  19.809  43.061   6.450
 8713POPC   D2A68644  19.845  43.124   6.750
 8713POPC   C3A68645  19.844  43.097   7.050
 8713POPC   C4A68646  19.788  43.123   7.350
 8713POPC   C1B68647  19.610  42.971   6.450
 8713POPC   C2B68648  19.664  43.026   6.750
 8713POPC   C3B68649  19.643  43.029   7.050
 8713POPC   C4B68650  19.629  43.004   7.350
 8714POPC   NC368651   6.668   8.937   5.550
 8714POPC   PO468652   6.647   9.008   5.850
 8714POPC   GL168653   6.637   8.934   6.150
 8714POPC   GL268654   6.536   8.843   6.150
 8714POPC   C1A68655   6.670   8.954   6.450
 8714POPC   D2A68656   6.648   8.984   6.750
 8714POPC   C3A68657   6.617   8.953   7.050
 8714POPC   C4A68658   6.634   8.978   7.350
 8714POPC   C1B68659   6.486   8.706   6.450
 8714POPC   C2B68660   6.480   8.740   6.750
 8714POPC   C3B68661   6.570   8.777   7.050
 8714POPC   C4B68662   6.495   8.729   7.350
 8715POPC   NC368663   3.544  34.592   5.550
 8715POPC   PO468664   3.555  34.526   5.850
 8715POPC   GL168665   3.521  34.620   6.150
 8715POPC   GL268666   3.609  34.539   6.150
 8715POPC   C1A68667   3.560  34.547   6.450
 8715POPC   D2A68668   3.535  34.611   6.750
 8715POPC   C3A68669   3.509  34.604   7.050
 8715POPC   C4A68670   3.554  34.554   7.350
 8715POPC   C1B68671   3.806  34.465   6.450
 8715POPC   C2B68672   3.749  34.414   6.750
 8715POPC   C3B68673   3.760  34.477   7.050
 8715POPC   C4B68674   3.750  34.465   7.350
 8716POPC   NC368675  17.496  34.600   5.550
 8716POPC   PO468676  17.484  34.530   5.850
 8716POPC   GL168677  17.496  34.583   6.150
 8716POPC   GL268678  17.365  34.516   6.150
 8716POPC   C1A68679  17.554  34.546   6.450
 8716POPC   D2A68680  17.550  34.603   6.750
 8716POPC   C3A68681  17.476  34.564   7.050
 8716POPC   C4A68682  17.487  34.526   7.350
 8716POPC   C1B68683  17.296  34.436   6.450
 8716POPC   C2B68684  17.338  34.418   6.750
 8716POPC   C3B68685  17.274  34.404   7.050
 8716POPC   C4B68686  17.325  34.477   7.350
 8717POPC   NC368687  38.491  30.714   5.550
 8717POPC   PO468688  38.436  30.727   5.850
 8717POPC   GL168689  38.477  30.691   6.150
 8717POPC   GL268690  38.454  30.804   6.150
 8717POPC   C1A68691  38.442  30.728   6.450
 8717POPC   D2A68692  38.471  30.720   6.750
 8717POPC   C3A68693  38.431  30.699   7.050
 8717POPC   C4A68694  38.425  30.735   7.350
 8717POPC   C1B68695  38.443  30.954   6.450
 8717POPC   C2B68696  38.390  30.966   6.750
 8717POPC   C3B68697  38.486  30.982   7.050
 8717POPC   C4B68698  38.413  30.915   7.350
 8718POPC   NC368699   4.348  39.215   5.550
 8718POPC   PO468700   4.326  39.230   5.850
 8718POPC   GL168701   4.349  39.279   6.150
 8718POPC   GL268702   4.387  39.322   6.150
 8718POPC   C1A68703   4.271  39.227   6.450
 8718POPC   D2A68704   4.274  39.208   6.750
 8718POPC   C3A68705   4.273  39.249   7.050
 8718POPC   C4A68706   4.286  39.245   7.350
 8718POPC   C1B68707   4.377  39.444   6.450
 8718POPC   C2B68708   4.377  39.468   6.750
 8718POPC   C3B68709   4.373  39.484   7.050
 8718POPC   C4B68710   4.400  39.493   7.350
 8719POPC   NC368711   7.398  19.079   5.550
 8719POPC   PO468712   7.422  19.078   5.850
 8719POPC   GL168713   7.392  19.032   6.150
 8719POPC   GL268714   7.344  19.038   6.150
 8719POPC   C1A68715   7.458  19.104   6.450
 8719POPC   D2A68716   7.450  19.073   6.750
 8719POPC   C3A68717   7.373  19.068   7.050
 8719POPC   C4A68718   7.440  19.089   7.350
 8719POPC   C1B68719   7.180  19.019   6.450
 8719POPC   C2B68720   7.177  19.004   6.750
 8719POPC   C3B68721   7.160  18.986   7.050
 8719POPC   C4B68722   7.176  18.995   7.350
 8720POPC   NC368723   9.765   7.441   5.550
 8720POPC   PO468724   9.713   7.379   5.850
 8720POPC   GL168725   9.703   7.381   6.150
 8720POPC   GL268726   9.775   7.305   6.150
 8720POPC   C1A68727   9.718   7.406   6.450
 8720POPC   D2A68728   9.701   7.411   6.750
 8720POPC   C3A68729   9.783   7.440   7.050
 8720POPC   C4A68730   9.741   7.466   7.350
 8720POPC   C1B68731   9.920   7.205   6.450
 8720POPC   C2B68732   9.921   7.232   6.750
 8720POPC   C3B68733   9.942   7.268   7.050
 8720POPC   C4B68734   9.901   7.193   7.350
 8721POPC   NC368735   3.563  26.772   5.550
 8721POPC   PO468736   3.530  26.821   5.850
 8721POPC   GL168737   3.535  26.844   6.150
 8721POPC   GL268738   3.601  26.904   6.150
 8721POPC   C1A68739   3.567  26.848   6.450
 8721POPC   D2A68740   3.518  26.856   6.750
 8721POPC   C3A68741   3.588  26.851   7.050
 8721POPC   C4A68742   3.570  26.807   7.350
 8721POPC   C1B68743   3.725  27.061   6.450
 8721POPC   C2B68744   3.685  27.027   6.750
 8721POPC   C3B68745   3.685  27.001   7.050
 8721POPC   C4B68746   3.627  27.076   7.350
 8722POPC   NC368747  38.503  21.365   5.550
 8722POPC   PO468748  38.415  21.361   5.850
 8722POPC   GL168749  38.437  21.368   6.150
 8722POPC   GL268750  38.388  21.464   6.150
 8722POPC   C1A68751  38.416  21.395   6.450
 8722POPC   D2A68752  38.423  21.394   6.750
 8722POPC   C3A68753  38.437  21.410   7.050
 8722POPC   C4A68754  38.498  21.375   7.350
 8722POPC   C1B68755  38.274  21.553   6.450
 8722POPC   C2B68756  38.295  21.587   6.750
 8722POPC   C3B68757  38.313  21.630   7.050
 8722POPC   C4B68758  38.342  21.551   7.350
 8723POPC   NC368759   1.988  25.307   5.550
 8723POPC   PO468760   2.015  25.294   5.850
 8723POPC   GL168761   1.948  25.254   6.150
 8723POPC   GL268762   2.056  25.340   6.150
 8723POPC   C1A68763   1.957  25.221   6.450
 8723POPC   D2A68764   2.016  25.216   6.750
 8723POPC   C3A68765   2.000  25.265   7.050
 8723POPC   C4A68766   2.008  25.296   7.350
 8723POPC   C1B68767   2.082  25.450   6.450
 8723POPC   C2B68768   2.073  25.541   6.750
 8723POPC   C3B68769   2.069  25.529   7.050
 8723POPC   C4B68770   2.056  25.479   7.350
 8724POPC   NC368771  21.375  14.414   5.550
 8724POPC   PO468772  21.385  14.439   5.850
 8724POPC   GL168773  21.348  14.380   6.150
 8724POPC   GL268774  21.368  14.493   6.150
 8724POPC   C1A68775  21.345  14.404   6.450
 8724POPC   D2A68776  21.382  14.430   6.750
 8724POPC   C3A68777  21.361  14.404   7.050
 8724POPC   C4A68778  21.408  14.409   7.350
 8724POPC   C1B68779  21.430  14.688   6.450
 8724POPC   C2B68780  21.386  14.702   6.750
 8724POPC   C3B68781  21.350  14.676   7.050
 8724POPC   C4B68782  21.366  14.681   7.350
 8725POPC   NC368783   5.835   9.744   5.550
 8725POPC   PO468784   5.834   9.793   5.850
 8725POPC   GL168785   5.863   9.743   6.150
 8725POPC   GL268786   5.711   9.698   6.150
 8725POPC   C1A68787   5.836   9.716   6.450
 8725POPC   D2A68788   5.821   9.776   6.750
 8725POPC   C3A68789   5.909   9.769   7.050
 8725POPC   C4A68790   5.880   9.756   7.350
 8725POPC   C1B68791   5.638   9.691   6.450
 8725POPC   C2B68792   5.570   9.737   6.750
 8725POPC   C3B68793   5.612   9.736   7.050
 8725POPC   C4B68794   5.649   9.760   7.350
 8726POPC   NC368795   6.649   1.231   5.550
 8726POPC   PO468796   6.670   1.201   5.850
 8726POPC   GL168797   6.615   1.201   6.150
 8726POPC   GL268798   6.503   1.256   6.150
 8726POPC   C1A68799   6.676   1.201   6.450
 8726POPC   D2A68800   6.694   1.258   6.750
 8726POPC   C3A68801   6.651   1.183   7.050
 8726POPC   C4A68802   6.642   1.183   7.350
 8726POPC   C1B68803   6.365   1.269   6.450
 8726POPC   C2B68804   6.347   1.277   6.750
 8726POPC   C3B68805   6.422   1.202   7.050
 8726POPC   C4B68806   6.346   1.245   7.350
 8727POPC   NC368807  21.403  18.241   5.550
 8727POPC   PO468808  21.386  18.239   5.850
 8727POPC   GL168809  21.371  18.306   6.150
 8727POPC   GL268810  21.433  18.356   6.150
 8727POPC   C1A68811  21.377  18.306   6.450
 8727POPC   D2A68812  21.417  18.268   6.750
 8727POPC   C3A68813  21.432  18.245   7.050
 8727POPC   C4A68814  21.411  18.250   7.350
 8727POPC   C1B68815  21.419  18.562   6.450
 8727POPC   C2B68816  21.445  18.501   6.750
 8727POPC   C3B68817  21.474  18.489   7.050
 8727POPC   C4B68818  21.410  18.490   7.350
 8728POPC   NC368819  33.808  10.503   5.550
 8728POPC   PO468820  33.842  10.493   5.850
 8728POPC   GL168821  33.833  10.563   6.150
 8728POPC   GL268822  33.759  10.362   6.150
 8728POPC   C1A68823  33.847  10.525   6.450
 8728POPC   D2A68824  33.804  10.515   6.750
 8728POPC   C3A68825  33.817  10.556   7.050
 8728POPC   C4A68826  33.759  10.480   7.350
 8728POPC   C1B68827  33.728  10.257   6.450
 8728POPC   C2B68828  33.690  10.331   6.750
 8728POPC   C3B68829  33.762  10.273   7.050
 8728POPC   C4B68830  33.761  10.328   7.350
 8729POPC   NC368831   9.733  36.141   5.550
 8729POPC   PO468832   9.761  36.144   5.850
 8729POPC   GL168833   9.744  36.079   6.150
 8729POPC   GL268834   9.810  36.251   6.150
 8729POPC   C1A68835   9.791  36.115   6.450
 8729POPC   D2A68836   9.727  36.164   6.750
 8729POPC   C3A68837   9.730  36.130   7.050
 8729POPC   C4A68838   9.761  36.085   7.350
 8729POPC   C1B68839   9.918  36.273   6.450
 8729POPC   C2B68840   9.901  36.338   6.750
 8729POPC   C3B68841   9.875  36.352   7.050
 8729POPC   C4B68842   9.940  36.326   7.350
 8730POPC   NC368843  36.133  26.058   5.550
 8730POPC   PO468844  36.174  26.083   5.850
 8730POPC   GL168845  36.089  26.042   6.150
 8730POPC   GL268846  36.157  25.980   6.150
 8730POPC   C1A68847  36.096  26.003   6.450
 8730POPC   D2A68848  36.111  26.019   6.750
 8730POPC   C3A68849  36.127  26.004   7.050
 8730POPC   C4A68850  36.079  26.048   7.350
 8730POPC   C1B68851  36.237  25.823   6.450
 8730POPC   C2B68852  36.257  25.818   6.750
 8730POPC   C3B68853  36.229  25.840   7.050
 8730POPC   C4B68854  36.252  25.786   7.350
 8731POPC   NC368855  13.640  43.924   5.550
 8731POPC   PO468856  13.633  43.911   5.850
 8731POPC   GL168857  13.604  43.900   6.150
 8731POPC   GL268858  13.523  43.804   6.150
 8731POPC   C1A68859  13.605  43.874   6.450
 8731POPC   D2A68860  13.607  43.886   6.750
 8731POPC   C3A68861  13.627  43.851   7.050
 8731POPC   C4A68862  13.678  43.931   7.350
 8731POPC   C1B68863  13.399  43.819   6.450
 8731POPC   C2B68864  13.402  43.822   6.750
 8731POPC   C3B68865  13.347  43.826   7.050
 8731POPC   C4B68866  13.407  43.778   7.350
 8732POPC   NC368867   7.396   9.019   5.550
 8732POPC   PO468868   7.389   8.997   5.850
 8732POPC   GL168869   7.419   8.946   6.150
 8732POPC   GL268870   7.471   8.847   6.150
 8732POPC   C1A68871   7.432   8.969   6.450
 8732POPC   D2A68872   7.460   9.014   6.750
 8732POPC   C3A68873   7.459   8.922   7.050
 8732POPC   C4A68874   7.393   8.924   7.350
 8732POPC   C1B68875   7.573   8.788   6.450
 8732POPC   C2B68876   7.601   8.842   6.750
 8732POPC   C3B68877   7.578   8.801   7.050
 8732POPC   C4B68878   7.602   8.821   7.350
 8733POPC   NC368879  36.084  17.496   5.550
 8733POPC   PO468880  36.160  17.520   5.850
 8733POPC   GL168881  36.109  17.507   6.150
 8733POPC   GL268882  36.043  17.580   6.150
 8733POPC   C1A68883  36.146  17.510   6.450
 8733POPC   D2A68884  36.127  17.527   6.750
 8733POPC   C3A68885  36.119  17.529   7.050
 8733POPC   C4A68886  36.112  17.484   7.350
 8733POPC   C1B68887  36.001  17.692   6.450
 8733POPC   C2B68888  36.014  17.721   6.750
 8733POPC   C3B68889  36.051  17.702   7.050
 8733POPC   C4B68890  36.040  17.751   7.350
 8734POPC   NC368891  19.848   8.203   5.550
 8734POPC   PO468892  19.791   8.148   5.850
 8734POPC   GL168893  19.864   8.192   6.150
 8734POPC   GL268894  19.963   8.225   6.150
 8734POPC   C1A68895  19.842   8.160   6.450
 8734POPC   D2A68896  19.814   8.197   6.750
 8734POPC   C3A68897  19.797   8.245   7.050
 8734POPC   C4A68898  19.785   8.207   7.350
 8734POPC   C1B68899  20.123   8.209   6.450
 8734POPC   C2B68900  20.129   8.200   6.750
 8734POPC   C3B68901  20.083   8.161   7.050
 8734POPC   C4B68902  20.111   8.174   7.350
 8735POPC   NC368903  23.757  17.536   5.550
 8735POPC   PO468904  23.751  17.513   5.850
 8735POPC   GL168905  23.753  17.547   6.150
 8735POPC   GL268906  23.763  17.632   6.150
 8735POPC   C1A68907  23.679  17.457   6.450
 8735POPC   D2A68908  23.692  17.497   6.750
 8735POPC   C3A68909  23.735  17.502   7.050
 8735POPC   C4A68910  23.729  17.509   7.350
 8735POPC   C1B68911  23.916  17.709   6.450
 8735POPC   C2B68912  23.857  17.685   6.750
 8735POPC   C3B68913  23.869  17.709   7.050
 8735POPC   C4B68914  23.835  17.657   7.350
 8736POPC   NC368915  31.440  10.565   5.550
 8736POPC   PO468916  31.468  10.534   5.850
 8736POPC   GL168917  31.491  10.555   6.150
 8736POPC   GL268918  31.422  10.601   6.150
 8736POPC   C1A68919  31.494  10.487   6.450
 8736POPC   D2A68920  31.484  10.481   6.750
 8736POPC   C3A68921  31.512  10.507   7.050
 8736POPC   C4A68922  31.434  10.569   7.350
 8736POPC   C1B68923  31.399  10.715   6.450
 8736POPC   C2B68924  31.363  10.779   6.750
 8736POPC   C3B68925  31.335  10.770   7.050
 8736POPC   C4B68926  31.396  10.732   7.350
 8737POPC   NC368927  39.202  19.817   5.550
 8737POPC   PO468928  39.249  19.791   5.850
 8737POPC   GL168929  39.264  19.787   6.150
 8737POPC   GL268930  39.154  19.896   6.150
 8737POPC   C1A68931  39.267  19.785   6.450
 8737POPC   D2A68932  39.185  19.855   6.750
 8737POPC   C3A68933  39.191  19.837   7.050
 8737POPC   C4A68934  39.259  19.849   7.350
 8737POPC   C1B68935  38.993  19.930   6.450
 8737POPC   C2B68936  39.012  19.992   6.750
 8737POPC   C3B68937  39.037  19.993   7.050
 8737POPC   C4B68938  38.991  20.009   7.350
 8738POPC   NC368939   2.773  14.442   5.550
 8738POPC   PO468940   2.752  14.428   5.850
 8738POPC   GL168941   2.718  14.396   6.150
 8738POPC   GL268942   2.892  14.391   6.150
 8738POPC   C1A68943   2.743  14.445   6.450
 8738POPC   D2A68944   2.716  14.441   6.750
 8738POPC   C3A68945   2.760  14.425   7.050
 8738POPC   C4A68946   2.760  14.416   7.350
 8738POPC   C1B68947   3.010  14.320   6.450
 8738POPC   C2B68948   3.011  14.318   6.750
 8738POPC   C3B68949   2.982  14.304   7.050
 8738POPC   C4B68950   2.978  14.314   7.350
 8739POPC   NC368951  17.517   2.763   5.550
 8739POPC   PO468952  17.480   2.803   5.850
 8739POPC   GL168953  17.487   2.810   6.150
 8739POPC   GL268954  17.378   2.694   6.150
 8739POPC   C1A68955  17.479   2.773   6.450
 8739POPC   D2A68956  17.533   2.788   6.750
 8739POPC   C3A68957  17.538   2.810   7.050
 8739POPC   C4A68958  17.497   2.722   7.350
 8739POPC   C1B68959  17.267   2.647   6.450
 8739POPC   C2B68960  17.258   2.653   6.750
 8739POPC   C3B68961  17.331   2.672   7.050
 8739POPC   C4B68962  17.343   2.592   7.350
 8740POPC   NC368963  39.230  14.450   5.550
 8740POPC   PO468964  39.193  14.382   5.850
 8740POPC   GL168965  39.265  14.442   6.150
 8740POPC   GL268966  39.196  14.509   6.150
 8740POPC   C1A68967  39.197  14.432   6.450
 8740POPC   D2A68968  39.252  14.371   6.750
 8740POPC   C3A68969  39.209  14.417   7.050
 8740POPC   C4A68970  39.183  14.448   7.350
 8740POPC   C1B68971  39.024  14.621   6.450
 8740POPC   C2B68972  39.043  14.615   6.750
 8740POPC   C3B68973  39.070  14.615   7.050
 8740POPC   C4B68974  39.103  14.576   7.350
 8741POPC   NC368975  12.038   0.412   5.550
 8741POPC   PO468976  12.043   0.463   5.850
 8741POPC   GL168977  12.059   0.451   6.150
 8741POPC   GL268978  12.142   0.343   6.150
 8741POPC   C1A68979  12.042   0.436   6.450
 8741POPC   D2A68980  12.118   0.394   6.750
 8741POPC   C3A68981  12.096   0.456   7.050
 8741POPC   C4A68982  12.093   0.429   7.350
 8741POPC   C1B68983  12.170   0.229   6.450
 8741POPC   C2B68984  12.204   0.216   6.750
 8741POPC   C3B68985  12.220   0.185   7.050
 8741POPC   C4B68986  12.218   0.208   7.350
 8742POPC   NC368987  25.247  26.056   5.550
 8742POPC   PO468988  25.314  25.999   5.850
 8742POPC   GL168989  25.248  26.031   6.150
 8742POPC   GL268990  25.347  26.023   6.150
 8742POPC   C1A68991  25.276  26.054   6.450
 8742POPC   D2A68992  25.268  25.995   6.750
 8742POPC   C3A68993  25.260  26.045   7.050
 8742POPC   C4A68994  25.267  26.058   7.350
 8742POPC   C1B68995  25.454  25.923   6.450
 8742POPC   C2B68996  25.447  25.980   6.750
 8742POPC   C3B68997  25.447  25.982   7.050
 8742POPC   C4B68998  25.483  25.964   7.350
 8743POPC   NC368999  23.745  19.102   5.550
 8743POPC   PO469000  23.686  19.048   5.850
 8743POPC   GL169001  23.746  19.040   6.150
 8743POPC   GL269002  23.721  19.144   6.150
 8743POPC   C1A69003  23.745  19.097   6.450
 8743POPC   D2A69004  23.684  19.071   6.750
 8743POPC   C3A69005  23.740  19.106   7.050
 8743POPC   C4A69006  23.743  19.028   7.350
 8743POPC   C1B69007  23.799  19.257   6.450
 8743POPC   C2B69008  23.837  19.255   6.750
 8743POPC   C3B69009  23.758  19.311   7.050
 8743POPC   C4B69010  23.778  19.338   7.350
 8744POPC   NC369011   4.316  31.492   5.550
 8744POPC   PO469012   4.334  31.434   5.850
 8744POPC   GL169013   4.309  31.429   6.150
 8744POPC   GL269014   4.469  31.518   6.150
 8744POPC   C1A69015   4.346  31.522   6.450
 8744POPC   D2A69016   4.333  31.466   6.750
 8744POPC   C3A69017   4.362  31.439   7.050
 8744POPC   C4A69018   4.283  31.503   7.350
 8744POPC   C1B69019   4.528  31.572   6.450
 8744POPC   C2B69020   4.570  31.588   6.750
 8744POPC   C3B69021   4.600  31.539   7.050
 8744POPC   C4B69022   4.535  31.592   7.350
 8745POPC   NC369023   6.662   1.974   5.550
 8745POPC   PO469024   6.597   2.010   5.850
 8745POPC   GL169025   6.647   2.020   6.150
 8745POPC   GL269026   6.777   2.027   6.150
 8745POPC   C1A69027   6.601   2.002   6.450
 8745POPC   D2A69028   6.654   2.019   6.750
 8745POPC   C3A69029   6.677   1.941   7.050
 8745POPC   C4A69030   6.680   2.001   7.350
 8745POPC   C1B69031   6.856   2.105   6.450
 8745POPC   C2B69032   6.912   2.122   6.750
 8745POPC   C3B69033   6.917   2.108   7.050
 8745POPC   C4B69034   6.840   2.081   7.350
 8746POPC   NC369035   5.890  37.636   5.550
 8746POPC   PO469036   5.916  37.662   5.850
 8746POPC   GL169037   5.828  37.647   6.150
 8746POPC   GL269038   5.900  37.570   6.150
 8746POPC   C1A69039   5.861  37.637   6.450
 8746POPC   D2A69040   5.889  37.675   6.750
 8746POPC   C3A69041   5.832  37.656   7.050
 8746POPC   C4A69042   5.832  37.670   7.350
 8746POPC   C1B69043   6.010  37.523   6.450
 8746POPC   C2B69044   5.996  37.440   6.750
 8746POPC   C3B69045   5.972  37.510   7.050
 8746POPC   C4B69046   6.054  37.528   7.350
 8747POPC   NC369047  24.516  19.834   5.550
 8747POPC   PO469048  24.527  19.851   5.850
 8747POPC   GL169049  24.484  19.856   6.150
 8747POPC   GL269050  24.373  19.817   6.150
 8747POPC   C1A69051  24.461  19.812   6.450
 8747POPC   D2A69052  24.528  19.804   6.750
 8747POPC   C3A69053  24.454  19.869   7.050
 8747POPC   C4A69054  24.532  19.858   7.350
 8747POPC   C1B69055  24.273  19.766   6.450
 8747POPC   C2B69056  24.207  19.732   6.750
 8747POPC   C3B69057  24.271  19.739   7.050
 8747POPC   C4B69058  24.211  19.753   7.350
 8748POPC   NC369059  20.624  42.289   5.550
 8748POPC   PO469060  20.649  42.345   5.850
 8748POPC   GL169061  20.578  42.341   6.150
 8748POPC   GL269062  20.659  42.442   6.150
 8748POPC   C1A69063  20.609  42.347   6.450
 8748POPC   D2A69064  20.568  42.296   6.750
 8748POPC   C3A69065  20.564  42.340   7.050
 8748POPC   C4A69066  20.598  42.377   7.350
 8748POPC   C1B69067  20.763  42.509   6.450
 8748POPC   C2B69068  20.764  42.487   6.750
 8748POPC   C3B69069  20.813  42.481   7.050
 8748POPC   C4B69070  20.791  42.500   7.350
 8749POPC   NC369071   9.748  39.265   5.550
 8749POPC   PO469072   9.763  39.251   5.850
 8749POPC   GL169073   9.709  39.202   6.150
 8749POPC   GL269074   9.670  39.134   6.150
 8749POPC   C1A69075   9.762  39.208   6.450
 8749POPC   D2A69076   9.767  39.258   6.750
 8749POPC   C3A69077   9.737  39.202   7.050
 8749POPC   C4A69078   9.750  39.273   7.350
 8749POPC   C1B69079   9.602  39.026   6.450
 8749POPC   C2B69080   9.574  39.058   6.750
 8749POPC   C3B69081   9.542  39.080   7.050
 8749POPC   C4B69082   9.540  39.050   7.350
 8750POPC   NC369083   2.799  36.100   5.550
 8750POPC   PO469084   2.745  36.112   5.850
 8750POPC   GL169085   2.739  36.167   6.150
 8750POPC   GL269086   2.738  36.269   6.150
 8750POPC   C1A69087   2.730  36.167   6.450
 8750POPC   D2A69088   2.807  36.130   6.750
 8750POPC   C3A69089   2.763  36.091   7.050
 8750POPC   C4A69090   2.765  36.082   7.350
 8750POPC   C1B69091   2.778  36.368   6.450
 8750POPC   C2B69092   2.785  36.339   6.750
 8750POPC   C3B69093   2.796  36.423   7.050
 8750POPC   C4B69094   2.723  36.343   7.350
 8751POPC   NC369095   2.779  22.975   5.550
 8751POPC   PO469096   2.800  22.955   5.850
 8751POPC   GL169097   2.764  22.912   6.150
 8751POPC   GL269098   2.754  22.847   6.150
 8751POPC   C1A69099   2.757  22.974   6.450
 8751POPC   D2A69100   2.743  22.979   6.750
 8751POPC   C3A69101   2.793  22.916   7.050
 8751POPC   C4A69102   2.757  22.973   7.350
 8751POPC   C1B69103   2.792  22.663   6.450
 8751POPC   C2B69104   2.833  22.734   6.750
 8751POPC   C3B69105   2.815  22.721   7.050
 8751POPC   C4B69106   2.750  22.736   7.350
 8752POPC   NC369107  40.788  33.789   5.550
 8752POPC   PO469108  40.775  33.841   5.850
 8752POPC   GL169109  40.780  33.837   6.150
 8752POPC   GL269110  40.705  33.710   6.150
 8752POPC   C1A69111  40.755  33.777   6.450
 8752POPC   D2A69112  40.758  33.829   6.750
 8752POPC   C3A69113  40.765  33.783   7.050
 8752POPC   C4A69114  40.770  33.794   7.350
 8752POPC   C1B69115  40.527  33.683   6.450
 8752POPC   C2B69116  40.583  33.694   6.750
 8752POPC   C3B69117  40.529  33.707   7.050
 8752POPC   C4B69118  40.516  33.709   7.350
 8753POPC   NC369119  15.175  11.334   5.550
 8753POPC   PO469120  15.185  11.289   5.850
 8753POPC   GL169121  15.209  11.264   6.150
 8753POPC   GL269122  15.055  11.189   6.150
 8753POPC   C1A69123  15.219  11.293   6.450
 8753POPC   D2A69124  15.187  11.296   6.750
 8753POPC   C3A69125  15.164  11.329   7.050
 8753POPC   C4A69126  15.167  11.325   7.350
 8753POPC   C1B69127  15.013  11.163   6.450
 8753POPC   C2B69128  14.945  11.119   6.750
 8753POPC   C3B69129  14.984  11.203   7.050
 8753POPC   C4B69130  14.930  11.146   7.350
 8754POPC   NC369131  23.678   2.000   5.550
 8754POPC   PO469132  23.728   1.953   5.850
 8754POPC   GL169133  23.672   2.033   6.150
 8754POPC   GL269134  23.740   2.143   6.150
 8754POPC   C1A69135  23.742   1.970   6.450
 8754POPC   D2A69136  23.699   1.946   6.750
 8754POPC   C3A69137  23.752   2.029   7.050
 8754POPC   C4A69138  23.734   2.014   7.350
 8754POPC   C1B69139  23.651   2.207   6.450
 8754POPC   C2B69140  23.725   2.287   6.750
 8754POPC   C3B69141  23.732   2.252   7.050
 8754POPC   C4B69142  23.703   2.227   7.350
 8755POPC   NC369143  26.006  18.308   5.550
 8755POPC   PO469144  26.037  18.298   5.850
 8755POPC   GL169145  26.005  18.286   6.150
 8755POPC   GL269146  25.970  18.223   6.150
 8755POPC   C1A69147  26.006  18.297   6.450
 8755POPC   D2A69148  26.083  18.269   6.750
 8755POPC   C3A69149  26.068  18.270   7.050
 8755POPC   C4A69150  26.069  18.238   7.350
 8755POPC   C1B69151  25.791  18.182   6.450
 8755POPC   C2B69152  25.821  18.147   6.750
 8755POPC   C3B69153  25.774  18.224   7.050
 8755POPC   C4B69154  25.775  18.134   7.350
 8756POPC   NC369155  16.757   8.931   5.550
 8756POPC   PO469156  16.765   8.988   5.850
 8756POPC   GL169157  16.732   8.932   6.150
 8756POPC   GL269158  16.642   8.957   6.150
 8756POPC   C1A69159  16.704   8.953   6.450
 8756POPC   D2A69160  16.713   8.943   6.750
 8756POPC   C3A69161  16.715   9.019   7.050
 8756POPC   C4A69162  16.774   8.929   7.350
 8756POPC   C1B69163  16.493   9.048   6.450
 8756POPC   C2B69164  16.466   9.042   6.750
 8756POPC   C3B69165  16.513   9.049   7.050
 8756POPC   C4B69166  16.482   8.969   7.350
 8757POPC   NC369167  15.948  42.340   5.550
 8757POPC   PO469168  15.997  42.334   5.850
 8757POPC   GL169169  15.914  42.356   6.150
 8757POPC   GL269170  15.992  42.264   6.150
 8757POPC   C1A69171  15.973  42.291   6.450
 8757POPC   D2A69172  15.988  42.298   6.750
 8757POPC   C3A69173  15.943  42.294   7.050
 8757POPC   C4A69174  15.995  42.377   7.350
 8757POPC   C1B69175  16.016  42.072   6.450
 8757POPC   C2B69176  16.020  42.076   6.750
 8757POPC   C3B69177  16.047  42.125   7.050
 8757POPC   C4B69178  16.063  42.113   7.350
 8758POPC   NC369179  15.168  15.155   5.550
 8758POPC   PO469180  15.172  15.185   5.850
 8758POPC   GL169181  15.172  15.163   6.150
 8758POPC   GL269182  15.200  15.314   6.150
 8758POPC   C1A69183  15.215  15.218   6.450
 8758POPC   D2A69184  15.155  15.138   6.750
 8758POPC   C3A69185  15.227  15.220   7.050
 8758POPC   C4A69186  15.199  15.166   7.350
 8758POPC   C1B69187  15.236  15.376   6.450
 8758POPC   C2B69188  15.268  15.385   6.750
 8758POPC   C3B69189  15.316  15.363   7.050
 8758POPC   C4B69190  15.270  15.394   7.350
 8759POPC   NC369191  22.890  17.459   5.550
 8759POPC   PO469192  22.918  17.486   5.850
 8759POPC   GL169193  22.898  17.459   6.150
 8759POPC   GL269194  22.985  17.638   6.150
 8759POPC   C1A69195  22.948  17.471   6.450
 8759POPC   D2A69196  22.938  17.457   6.750
 8759POPC   C3A69197  22.971  17.487   7.050
 8759POPC   C4A69198  22.906  17.548   7.350
 8759POPC   C1B69199  22.942  17.807   6.450
 8759POPC   C2B69200  22.960  17.802   6.750
 8759POPC   C3B69201  22.961  17.753   7.050
 8759POPC   C4B69202  22.916  17.761   7.350
 8760POPC   NC369203   2.763   5.875   5.550
 8760POPC   PO469204   2.773   5.887   5.850
 8760POPC   GL169205   2.773   5.917   6.150
 8760POPC   GL269206   2.689   5.960   6.150
 8760POPC   C1A69207   2.787   5.820   6.450
 8760POPC   D2A69208   2.734   5.845   6.750
 8760POPC   C3A69209   2.771   5.862   7.050
 8760POPC   C4A69210   2.717   5.838   7.350
 8760POPC   C1B69211   2.577   5.935   6.450
 8760POPC   C2B69212   2.508   5.957   6.750
 8760POPC   C3B69213   2.556   6.023   7.050
 8760POPC   C4B69214   2.540   5.983   7.350
 8761POPC   NC369215  32.240  32.980   5.550
 8761POPC   PO469216  32.266  33.019   5.850
 8761POPC   GL169217  32.278  33.018   6.150
 8761POPC   GL269218  32.120  32.908   6.150
 8761POPC   C1A69219  32.260  32.975   6.450
 8761POPC   D2A69220  32.229  32.976   6.750
 8761POPC   C3A69221  32.276  33.042   7.050
 8761POPC   C4A69222  32.271  32.995   7.350
 8761POPC   C1B69223  32.093  32.857   6.450
 8761POPC   C2B69224  32.067  32.923   6.750
 8761POPC   C3B69225  32.012  32.884   7.050
 8761POPC   C4B69226  32.080  32.844   7.350
 8762POPC   NC369227  28.370   1.227   5.550
 8762POPC   PO469228  28.348   1.227   5.850
 8762POPC   GL169229  28.347   1.258   6.150
 8762POPC   GL269230  28.516   1.111   6.150
 8762POPC   C1A69231  28.346   1.208   6.450
 8762POPC   D2A69232  28.415   1.187   6.750
 8762POPC   C3A69233  28.415   1.221   7.050
 8762POPC   C4A69234  28.368   1.196   7.350
 8762POPC   C1B69235  28.579   1.101   6.450
 8762POPC   C2B69236  28.616   1.055   6.750
 8762POPC   C3B69237  28.554   1.069   7.050
 8762POPC   C4B69238  28.561   1.086   7.350
 8763POPC   NC369239  42.337  31.473   5.550
 8763POPC   PO469240  42.294  31.520   5.850
 8763POPC   GL169241  42.381  31.434   6.150
 8763POPC   GL269242  42.492  31.502   6.150
 8763POPC   C1A69243  42.289  31.516   6.450
 8763POPC   D2A69244  42.356  31.461   6.750
 8763POPC   C3A69245  42.286  31.475   7.050
 8763POPC   C4A69246  42.300  31.477   7.350
 8763POPC   C1B69247  42.563  31.584   6.450
 8763POPC   C2B69248  42.568  31.607   6.750
 8763POPC   C3B69249  42.562  31.616   7.050
 8763POPC   C4B69250  42.601  31.554   7.350
 8764POPC   NC369251  15.131  43.153   5.550
 8764POPC   PO469252  15.193  43.136   5.850
 8764POPC   GL169253  15.183  43.079   6.150
 8764POPC   GL269254  15.241  43.184   6.150
 8764POPC   C1A69255  15.214  43.060   6.450
 8764POPC   D2A69256  15.167  43.133   6.750
 8764POPC   C3A69257  15.157  43.126   7.050
 8764POPC   C4A69258  15.215  43.072   7.350
 8764POPC   C1B69259  15.293  43.340   6.450
 8764POPC   C2B69260  15.311  43.275   6.750
 8764POPC   C3B69261  15.342  43.274   7.050
 8764POPC   C4B69262  15.339  43.269   7.350
 8765POPC   NC369263   5.079  17.536   5.550
 8765POPC   PO469264   5.077  17.519   5.850
 8765POPC   GL169265   5.086  17.531   6.150
 8765POPC   GL269266   5.100  17.428   6.150
 8765POPC   C1A69267   5.118  17.489   6.450
 8765POPC   D2A69268   5.142  17.458   6.750
 8765POPC   C3A69269   5.122  17.539   7.050
 8765POPC   C4A69270   5.070  17.527   7.350
 8765POPC   C1B69271   5.050  17.245   6.450
 8765POPC   C2B69272   5.086  17.215   6.750
 8765POPC   C3B69273   5.097  17.235   7.050
 8765POPC   C4B69274   5.053  17.268   7.350
 8766POPC   NC369275   7.405  13.589   5.550
 8766POPC   PO469276   7.447  13.660   5.850
 8766POPC   GL169277   7.436  13.668   6.150
 8766POPC   GL269278   7.505  13.497   6.150
 8766POPC   C1A69279   7.384  13.617   6.450
 8766POPC   D2A69280   7.382  13.662   6.750
 8766POPC   C3A69281   7.407  13.651   7.050
 8766POPC   C4A69282   7.428  13.665   7.350
 8766POPC   C1B69283   7.564  13.470   6.450
 8766POPC   C2B69284   7.521  13.435   6.750
 8766POPC   C3B69285   7.580  13.392   7.050
 8766POPC   C4B69286   7.583  13.469   7.350
 8767POPC   NC369287  11.265  28.417   5.550
 8767POPC   PO469288  11.328  28.416   5.850
 8767POPC   GL169289  11.348  28.386   6.150
 8767POPC   GL269290  11.434  28.389   6.150
 8767POPC   C1A69291  11.278  28.338   6.450
 8767POPC   D2A69292  11.258  28.336   6.750
 8767POPC   C3A69293  11.251  28.401   7.050
 8767POPC   C4A69294  11.287  28.380   7.350
 8767POPC   C1B69295  11.576  28.498   6.450
 8767POPC   C2B69296  11.524  28.503   6.750
 8767POPC   C3B69297  11.576  28.430   7.050
 8767POPC   C4B69298  11.550  28.512   7.350
 8768POPC   NC369299  25.267   3.566   5.550
 8768POPC   PO469300  25.275   3.514   5.850
 8768POPC   GL169301  25.216   3.544   6.150
 8768POPC   GL269302  25.094   3.507   6.150
 8768POPC   C1A69303  25.280   3.510   6.450
 8768POPC   D2A69304  25.269   3.574   6.750
 8768POPC   C3A69305  25.226   3.570   7.050
 8768POPC   C4A69306  25.246   3.589   7.350
 8768POPC   C1B69307  24.968   3.482   6.450
 8768POPC   C2B69308  25.042   3.513   6.750
 8768POPC   C3B69309  25.052   3.559   7.050
 8768POPC   C4B69310  24.972   3.501   7.350
 8769POPC   NC369311  19.809  27.631   5.550
 8769POPC   PO469312  19.831  27.615   5.850
 8769POPC   GL169313  19.839  27.593   6.150
 8769POPC   GL269314  19.774  27.537   6.150
 8769POPC   C1A69315  19.801  27.569   6.450
 8769POPC   D2A69316  19.798  27.576   6.750
 8769POPC   C3A69317  19.883  27.592   7.050
 8769POPC   C4A69318  19.790  27.571   7.350
 8769POPC   C1B69319  19.687  27.431   6.450
 8769POPC   C2B69320  19.639  27.364   6.750
 8769POPC   C3B69321  19.650  27.353   7.050
 8769POPC   C4B69322  19.718  27.437   7.350
 8770POPC   NC369323  14.381  12.814   5.550
 8770POPC   PO469324  14.360  12.826   5.850
 8770POPC   GL169325  14.430  12.812   6.150
 8770POPC   GL269326  14.341  12.818   6.150
 8770POPC   C1A69327  14.366  12.877   6.450
 8770POPC   D2A69328  14.392  12.883   6.750
 8770POPC   C3A69329  14.361  12.870   7.050
 8770POPC   C4A69330  14.363  12.873   7.350
 8770POPC   C1B69331  14.172  12.710   6.450
 8770POPC   C2B69332  14.160  12.729   6.750
 8770POPC   C3B69333  14.225  12.729   7.050
 8770POPC   C4B69334  14.152  12.732   7.350
 8771POPC   NC369335  36.139  28.379   5.550
 8771POPC   PO469336  36.079  28.380   5.850
 8771POPC   GL169337  36.095  28.354   6.150
 8771POPC   GL269338  36.104  28.511   6.150
 8771POPC   C1A69339  36.092  28.348   6.450
 8771POPC   D2A69340  36.156  28.418   6.750
 8771POPC   C3A69341  36.140  28.353   7.050
 8771POPC   C4A69342  36.105  28.355   7.350
 8771POPC   C1B69343  36.022  28.625   6.450
 8771POPC   C2B69344  36.062  28.653   6.750
 8771POPC   C3B69345  36.116  28.640   7.050
 8771POPC   C4B69346  36.034  28.595   7.350
 8772POPC   NC369347  36.870  43.927   5.550
 8772POPC   PO469348  36.951  43.895   5.850
 8772POPC   GL169349  36.945  43.852   6.150
 8772POPC   GL269350  36.930  44.033   6.150
 8772POPC   C1A69351  36.932  43.936   6.450
 8772POPC   D2A69352  36.940  43.928   6.750
 8772POPC   C3A69353  36.856  43.837   7.050
 8772POPC   C4A69354  36.949  43.849   7.350
 8772POPC   C1B69355  36.919  44.178   6.450
 8772POPC   C2B69356  36.895  44.159   6.750
 8772POPC   C3B69357  36.922  44.085   7.050
 8772POPC   C4B69358  36.974  44.104   7.350
 8773POPC   NC369359  12.866  26.848   5.550
 8773POPC   PO469360  12.844  26.847   5.850
 8773POPC   GL169361  12.901  26.833   6.150
 8773POPC   GL269362  13.020  26.804   6.150
 8773POPC   C1A69363  12.882  26.824   6.450
 8773POPC   D2A69364  12.838  26.865   6.750
 8773POPC   C3A69365  12.878  26.778   7.050
 8773POPC   C4A69366  12.844  26.817   7.350
 8773POPC   C1B69367  13.046  26.781   6.450
 8773POPC   C2B69368  13.096  26.737   6.750
 8773POPC   C3B69369  13.125  26.688   7.050
 8773POPC   C4B69370  13.124  26.701   7.350
 8774POPC   NC369371  42.336  15.933   5.550
 8774POPC   PO469372  42.329  15.999   5.850
 8774POPC   GL169373  42.341  15.920   6.150
 8774POPC   GL269374  42.323  16.037   6.150
 8774POPC   C1A69375  42.289  15.914   6.450
 8774POPC   D2A69376  42.349  15.918   6.750
 8774POPC   C3A69377  42.337  15.956   7.050
 8774POPC   C4A69378  42.327  15.994   7.350
 8774POPC   C1B69379  42.334  16.206   6.450
 8774POPC   C2B69380  42.358  16.158   6.750
 8774POPC   C3B69381  42.358  16.159   7.050
 8774POPC   C4B69382  42.323  16.246   7.350
 8775POPC   NC369383  12.875  13.623   5.550
 8775POPC   PO469384  12.814  13.649   5.850
 8775POPC   GL169385  12.836  13.630   6.150
 8775POPC   GL269386  12.933  13.545   6.150
 8775POPC   C1A69387  12.897  13.675   6.450
 8775POPC   D2A69388  12.871  13.593   6.750
 8775POPC   C3A69389  12.881  13.607   7.050
 8775POPC   C4A69390  12.816  13.669   7.350
 8775POPC   C1B69391  12.956  13.411   6.450
 8775POPC   C2B69392  12.929  13.440   6.750
 8775POPC   C3B69393  12.918  13.389   7.050
 8775POPC   C4B69394  12.918  13.426   7.350
 8776POPC   NC369395  24.469  30.744   5.550
 8776POPC   PO469396  24.536  30.698   5.850
 8776POPC   GL169397  24.515  30.647   6.150
 8776POPC   GL269398  24.483  30.574   6.150
 8776POPC   C1A69399  24.497  30.719   6.450
 8776POPC   D2A69400  24.535  30.697   6.750
 8776POPC   C3A69401  24.457  30.667   7.050
 8776POPC   C4A69402  24.456  30.698   7.350
 8776POPC   C1B69403  24.515  30.476   6.450
 8776POPC   C2B69404  24.507  30.489   6.750
 8776POPC   C3B69405  24.501  30.460   7.050
 8776POPC   C4B69406  24.532  30.462   7.350
 8777POPC   NC369407  44.642  42.337   5.550
 8777POPC   PO469408  44.701  42.325   5.850
 8777POPC   GL169409  44.667  42.327   6.150
 8777POPC   GL269410  44.569  42.325   6.150
 8777POPC   C1A69411  44.691  42.298   6.450
 8777POPC   D2A69412  44.652  42.372   6.750
 8777POPC   C3A69413  44.705  42.364   7.050
 8777POPC   C4A69414  44.703  42.332   7.350
 8777POPC   C1B69415  44.477  42.238   6.450
 8777POPC   C2B69416  44.411  42.203   6.750
 8777POPC   C3B69417  44.397  42.228   7.050
 8777POPC   C4B69418  44.459  42.212   7.350
 8778POPC   NC369419  13.650  26.861   5.550
 8778POPC   PO469420  13.672  26.805   5.850
 8778POPC   GL169421  13.633  26.863   6.150
 8778POPC   GL269422  13.574  26.756   6.150
 8778POPC   C1A69423  13.647  26.858   6.450
 8778POPC   D2A69424  13.649  26.804   6.750
 8778POPC   C3A69425  13.591  26.857   7.050
 8778POPC   C4A69426  13.650  26.778   7.350
 8778POPC   C1B69427  13.524  26.629   6.450
 8778POPC   C2B69428  13.554  26.585   6.750
 8778POPC   C3B69429  13.545  26.556   7.050
 8778POPC   C4B69430  13.468  26.564   7.350
 8779POPC   NC369431  21.344  27.592   5.550
 8779POPC   PO469432  21.409  27.576   5.850
 8779POPC   GL169433  21.412  27.585   6.150
 8779POPC   GL269434  21.452  27.489   6.150
 8779POPC   C1A69435  21.347  27.592   6.450
 8779POPC   D2A69436  21.375  27.591   6.750
 8779POPC   C3A69437  21.353  27.577   7.050
 8779POPC   C4A69438  21.406  27.631   7.350
 8779POPC   C1B69439  21.574  27.469   6.450
 8779POPC   C2B69440  21.583  27.469   6.750
 8779POPC   C3B69441  21.555  27.429   7.050
 8779POPC   C4B69442  21.614  27.441   7.350
 8780POPC   NC369443  11.292   5.052   5.550
 8780POPC   PO469444  11.279   5.051   5.850
 8780POPC   GL169445  11.328   5.086   6.150
 8780POPC   GL269446  11.151   5.193   6.150
 8780POPC   C1A69447  11.300   5.123   6.450
 8780POPC   D2A69448  11.279   5.143   6.750
 8780POPC   C3A69449  11.251   5.092   7.050
 8780POPC   C4A69450  11.280   5.114   7.350
 8780POPC   C1B69451  11.079   5.266   6.450
 8780POPC   C2B69452  11.129   5.199   6.750
 8780POPC   C3B69453  11.128   5.229   7.050
 8780POPC   C4B69454  11.108   5.270   7.350
 8781POPC   NC369455  13.652   8.989   5.550
 8781POPC   PO469456  13.624   8.938   5.850
 8781POPC   GL169457  13.582   9.005   6.150
 8781POPC   GL269458  13.606   8.870   6.150
 8781POPC   C1A69459  13.667   8.961   6.450
 8781POPC   D2A69460  13.640   9.017   6.750
 8781POPC   C3A69461  13.602   9.011   7.050
 8781POPC   C4A69462  13.649   8.946   7.350
 8781POPC   C1B69463  13.563   8.778   6.450
 8781POPC   C2B69464  13.533   8.683   6.750
 8781POPC   C3B69465  13.584   8.724   7.050
 8781POPC   C4B69466  13.581   8.780   7.350
 8782POPC   NC369467   6.621  29.964   5.550
 8782POPC   PO469468   6.620  29.956   5.850
 8782POPC   GL169469   6.654  29.922   6.150
 8782POPC   GL269470   6.674  30.027   6.150
 8782POPC   C1A69471   6.629  29.887   6.450
 8782POPC   D2A69472   6.647  29.901   6.750
 8782POPC   C3A69473   6.693  29.894   7.050
 8782POPC   C4A69474   6.648  29.881   7.350
 8782POPC   C1B69475   6.732  30.168   6.450
 8782POPC   C2B69476   6.681  30.194   6.750
 8782POPC   C3B69477   6.684  30.188   7.050
 8782POPC   C4B69478   6.763  30.163   7.350
 8783POPC   NC369479  43.075  19.088   5.550
 8783POPC   PO469480  43.144  19.015   5.850
 8783POPC   GL169481  43.120  19.062   6.150
 8783POPC   GL269482  43.236  18.983   6.150
 8783POPC   C1A69483  43.073  19.024   6.450
 8783POPC   D2A69484  43.085  19.090   6.750
 8783POPC   C3A69485  43.079  19.083   7.050
 8783POPC   C4A69486  43.157  19.095   7.350
 8783POPC   C1B69487  43.345  19.001   6.450
 8783POPC   C2B69488  43.323  18.993   6.750
 8783POPC   C3B69489  43.320  19.015   7.050
 8783POPC   C4B69490  43.365  18.951   7.350
 8784POPC   NC369491   7.409  12.817   5.550
 8784POPC   PO469492   7.382  12.830   5.850
 8784POPC   GL169493   7.459  12.860   6.150
 8784POPC   GL269494   7.345  12.729   6.150
 8784POPC   C1A69495   7.404  12.826   6.450
 8784POPC   D2A69496   7.388  12.806   6.750
 8784POPC   C3A69497   7.389  12.876   7.050
 8784POPC   C4A69498   7.390  12.890   7.350
 8784POPC   C1B69499   7.334  12.667   6.450
 8784POPC   C2B69500   7.280  12.642   6.750
 8784POPC   C3B69501   7.252  12.656   7.050
 8784POPC   C4B69502   7.263  12.619   7.350
 8785POPC   NC369503  23.714  15.141   5.550
 8785POPC   PO469504  23.754  15.171   5.850
 8785POPC   GL169505  23.730  15.217   6.150
 8785POPC   GL269506  23.597  15.120   6.150
 8785POPC   C1A69507  23.761  15.175   6.450
 8785POPC   D2A69508  23.724  15.218   6.750
 8785POPC   C3A69509  23.735  15.162   7.050
 8785POPC   C4A69510  23.693  15.219   7.350
 8785POPC   C1B69511  23.520  14.960   6.450
 8785POPC   C2B69512  23.563  14.944   6.750
 8785POPC   C3B69513  23.541  14.956   7.050
 8785POPC   C4B69514  23.604  15.014   7.350
 8786POPC   NC369515   5.058  12.033   5.550
 8786POPC   PO469516   5.077  12.115   5.850
 8786POPC   GL169517   5.121  12.060   6.150
 8786POPC   GL269518   5.011  12.147   6.150
 8786POPC   C1A69519   5.111  12.034   6.450
 8786POPC   D2A69520   5.068  12.054   6.750
 8786POPC   C3A69521   5.094  12.058   7.050
 8786POPC   C4A69522   5.045  12.081   7.350
 8786POPC   C1B69523   4.837  12.241   6.450
 8786POPC   C2B69524   4.861  12.257   6.750
 8786POPC   C3B69525   4.917  12.243   7.050
 8786POPC   C4B69526   4.867  12.179   7.350
 8787POPC   NC369527  13.617   4.300   5.550
 8787POPC   PO469528  13.584   4.363   5.850
 8787POPC   GL169529  13.606   4.355   6.150
 8787POPC   GL269530  13.649   4.238   6.150
 8787POPC   C1A69531  13.646   4.328   6.450
 8787POPC   D2A69532  13.602   4.361   6.750
 8787POPC   C3A69533  13.608   4.345   7.050
 8787POPC   C4A69534  13.614   4.321   7.350
 8787POPC   C1B69535  13.743   4.076   6.450
 8787POPC   C2B69536  13.694   4.071   6.750
 8787POPC   C3B69537  13.766   4.080   7.050
 8787POPC   C4B69538  13.735   4.099   7.350
 8788POPC   NC369539  21.419  44.697   5.550
 8788POPC   PO469540  21.412  44.617   5.850
 8788POPC   GL169541  21.381  44.616   6.150
 8788POPC   GL269542  21.531  44.591   6.150
 8788POPC   C1A69543  21.410  44.701   6.450
 8788POPC   D2A69544  21.421  44.637   6.750
 8788POPC   C3A69545  21.396  44.620   7.050
 8788POPC   C4A69546  21.409  44.671   7.350
 8788POPC   C1B69547  21.638  44.497   6.450
 8788POPC   C2B69548  21.627  44.527   6.750
 8788POPC   C3B69549  21.646  44.498   7.050
 8788POPC   C4B69550  21.605  44.531   7.350
 8789POPC   NC369551  15.138  15.972   5.550
 8789POPC   PO469552  15.228  15.913   5.850
 8789POPC   GL169553  15.173  15.960   6.150
 8789POPC   GL269554  15.105  15.834   6.150
 8789POPC   C1A69555  15.183  15.930   6.450
 8789POPC   D2A69556  15.180  15.991   6.750
 8789POPC   C3A69557  15.195  15.996   7.050
 8789POPC   C4A69558  15.202  15.909   7.350
 8789POPC   C1B69559  15.056  15.761   6.450
 8789POPC   C2B69560  15.055  15.723   6.750
 8789POPC   C3B69561  15.054  15.754   7.050
 8789POPC   C4B69562  14.991  15.820   7.350
 8790POPC   NC369563  13.648  12.810   5.550
 8790POPC   PO469564  13.617  12.866   5.850
 8790POPC   GL169565  13.590  12.842   6.150
 8790POPC   GL269566  13.621  12.948   6.150
 8790POPC   C1A69567  13.592  12.832   6.450
 8790POPC   D2A69568  13.578  12.900   6.750
 8790POPC   C3A69569  13.620  12.843   7.050
 8790POPC   C4A69570  13.666  12.835   7.350
 8790POPC   C1B69571  13.675  13.068   6.450
 8790POPC   C2B69572  13.634  13.060   6.750
 8790POPC   C3B69573  13.710  13.087   7.050
 8790POPC   C4B69574  13.687  13.101   7.350
 8791POPC   NC369575  38.437  26.808   5.550
 8791POPC   PO469576  38.496  26.864   5.850
 8791POPC   GL169577  38.426  26.781   6.150
 8791POPC   GL269578  38.339  26.737   6.150
 8791POPC   C1A69579  38.407  26.803   6.450
 8791POPC   D2A69580  38.434  26.858   6.750
 8791POPC   C3A69581  38.474  26.862   7.050
 8791POPC   C4A69582  38.427  26.827   7.350
 8791POPC   C1B69583  38.226  26.737   6.450
 8791POPC   C2B69584  38.185  26.764   6.750
 8791POPC   C3B69585  38.187  26.760   7.050
 8791POPC   C4B69586  38.215  26.738   7.350
 8792POPC   NC369587  19.061  41.607   5.550
 8792POPC   PO469588  19.029  41.573   5.850
 8792POPC   GL169589  19.078  41.509   6.150
 8792POPC   GL269590  18.971  41.513   6.150
 8792POPC   C1A69591  19.010  41.529   6.450
 8792POPC   D2A69592  19.043  41.589   6.750
 8792POPC   C3A69593  19.086  41.577   7.050
 8792POPC   C4A69594  19.098  41.541   7.350
 8792POPC   C1B69595  18.881  41.371   6.450
 8792POPC   C2B69596  18.875  41.361   6.750
 8792POPC   C3B69597  18.836  41.370   7.050
 8792POPC   C4B69598  18.839  41.342   7.350
 8793POPC   NC369599  21.391  31.492   5.550
 8793POPC   PO469600  21.423  31.463   5.850
 8793POPC   GL169601  21.364  31.449   6.150
 8793POPC   GL269602  21.231  31.483   6.150
 8793POPC   C1A69603  21.387  31.449   6.450
 8793POPC   D2A69604  21.392  31.498   6.750
 8793POPC   C3A69605  21.420  31.509   7.050
 8793POPC   C4A69606  21.400  31.438   7.350
 8793POPC   C1B69607  21.172  31.545   6.450
 8793POPC   C2B69608  21.185  31.570   6.750
 8793POPC   C3B69609  21.144  31.582   7.050
 8793POPC   C4B69610  21.201  31.535   7.350
 8794POPC   NC369611  29.127  36.932   5.550
 8794POPC   PO469612  29.095  36.939   5.850
 8794POPC   GL169613  29.141  36.871   6.150
 8794POPC   GL269614  29.069  36.799   6.150
 8794POPC   C1A69615  29.098  36.899   6.450
 8794POPC   D2A69616  29.172  36.889   6.750
 8794POPC   C3A69617  29.158  36.941   7.050
 8794POPC   C4A69618  29.157  36.878   7.350
 8794POPC   C1B69619  29.001  36.751   6.450
 8794POPC   C2B69620  29.002  36.698   6.750
 8794POPC   C3B69621  29.039  36.726   7.050
 8794POPC   C4B69622  28.955  36.665   7.350
 8795POPC   NC369623   1.169  40.743   5.550
 8795POPC   PO469624   1.252  40.771   5.850
 8795POPC   GL169625   1.207  40.813   6.150
 8795POPC   GL269626   1.166  40.934   6.150
 8795POPC   C1A69627   1.185  40.827   6.450
 8795POPC   D2A69628   1.186  40.738   6.750
 8795POPC   C3A69629   1.192  40.803   7.050
 8795POPC   C4A69630   1.178  40.734   7.350
 8795POPC   C1B69631   1.154  41.047   6.450
 8795POPC   C2B69632   1.142  41.049   6.750
 8795POPC   C3B69633   1.161  41.060   7.050
 8795POPC   C4B69634   1.205  40.990   7.350
 8796POPC   NC369635   0.466   6.658   5.550
 8796POPC   PO469636   0.423   6.649   5.850
 8796POPC   GL169637   0.437   6.638   6.150
 8796POPC   GL269638   0.527   6.768   6.150
 8796POPC   C1A69639   0.477   6.609   6.450
 8796POPC   D2A69640   0.485   6.649   6.750
 8796POPC   C3A69641   0.393   6.668   7.050
 8796POPC   C4A69642   0.403   6.684   7.350
 8796POPC   C1B69643   0.628   6.863   6.450
 8796POPC   C2B69644   0.571   6.890   6.750
 8796POPC   C3B69645   0.604   6.853   7.050
 8796POPC   C4B69646   0.569   6.858   7.350
 8797POPC   NC369647  35.388  22.898   5.550
 8797POPC   PO469648  35.344  22.938   5.850
 8797POPC   GL169649  35.393  22.967   6.150
 8797POPC   GL269650  35.424  22.839   6.150
 8797POPC   C1A69651  35.372  22.938   6.450
 8797POPC   D2A69652  35.363  22.896   6.750
 8797POPC   C3A69653  35.342  22.974   7.050
 8797POPC   C4A69654  35.344  22.964   7.350
 8797POPC   C1B69655  35.526  22.742   6.450
 8797POPC   C2B69656  35.490  22.786   6.750
 8797POPC   C3B69657  35.514  22.715   7.050
 8797POPC   C4B69658  35.506  22.758   7.350
 8798POPC   NC369659   5.099  26.011   5.550
 8798POPC   PO469660   5.082  26.030   5.850
 8798POPC   GL169661   5.063  26.003   6.150
 8798POPC   GL269662   5.228  26.061   6.150
 8798POPC   C1A69663   5.095  25.993   6.450
 8798POPC   D2A69664   5.120  26.044   6.750
 8798POPC   C3A69665   5.091  26.045   7.050
 8798POPC   C4A69666   5.123  26.044   7.350
 8798POPC   C1B69667   5.345  26.069   6.450
 8798POPC   C2B69668   5.295  26.026   6.750
 8798POPC   C3B69669   5.382  26.057   7.050
 8798POPC   C4B69670   5.326  26.014   7.350
 8799POPC   NC369671  31.467   4.317   5.550
 8799POPC   PO469672  31.432   4.359   5.850
 8799POPC   GL169673  31.469   4.270   6.150
 8799POPC   GL269674  31.552   4.382   6.150
 8799POPC   C1A69675  31.467   4.288   6.450
 8799POPC   D2A69676  31.448   4.331   6.750
 8799POPC   C3A69677  31.480   4.337   7.050
 8799POPC   C4A69678  31.493   4.356   7.350
 8799POPC   C1B69679  31.685   4.432   6.450
 8799POPC   C2B69680  31.713   4.407   6.750
 8799POPC   C3B69681  31.678   4.385   7.050
 8799POPC   C4B69682  31.687   4.451   7.350
 8800POPC   NC369683  41.598  42.355   5.550
 8800POPC   PO469684  41.517  42.317   5.850
 8800POPC   GL169685  41.533  42.314   6.150
 8800POPC   GL269686  41.471  42.385   6.150
 8800POPC   C1A69687  41.603  42.287   6.450
 8800POPC   D2A69688  41.569  42.334   6.750
 8800POPC   C3A69689  41.583  42.317   7.050
 8800POPC   C4A69690  41.509  42.297   7.350
 8800POPC   C1B69691  41.310  42.451   6.450
 8800POPC   C2B69692  41.290  42.450   6.750
 8800POPC   C3B69693  41.314  42.396   7.050
 8800POPC   C4B69694  41.290  42.434   7.350
 8801POPC   NC369695  14.365  24.450   5.550
 8801POPC   PO469696  14.448  24.486   5.850
 8801POPC   GL169697  14.443  24.447   6.150
 8801POPC   GL269698  14.385  24.661   6.150
 8801POPC   C1A69699  14.433  24.525   6.450
 8801POPC   D2A69700  14.367  24.461   6.750
 8801POPC   C3A69701  14.383  24.449   7.050
 8801POPC   C4A69702  14.356  24.474   7.350
 8801POPC   C1B69703  14.383  24.768   6.450
 8801POPC   C2B69704  14.375  24.779   6.750
 8801POPC   C3B69705  14.418  24.754   7.050
 8801POPC   C4B69706  14.418  24.693   7.350
 8802POPC   NC369707  43.147  19.878   5.550
 8802POPC   PO469708  43.120  19.850   5.850
 8802POPC   GL169709  43.101  19.785   6.150
 8802POPC   GL269710  43.248  19.878   6.150
 8802POPC   C1A69711  43.120  19.804   6.450
 8802POPC   D2A69712  43.061  19.876   6.750
 8802POPC   C3A69713  43.078  19.793   7.050
 8802POPC   C4A69714  43.148  19.879   7.350
 8802POPC   C1B69715  43.372  19.835   6.450
 8802POPC   C2B69716  43.326  19.829   6.750
 8802POPC   C3B69717  43.314  19.859   7.050
 8802POPC   C4B69718  43.343  19.786   7.350
 8803POPC   NC369719  18.253   2.723   5.550
 8803POPC   PO469720  18.328   2.803   5.850
 8803POPC   GL169721  18.277   2.784   6.150
 8803POPC   GL269722  18.304   2.935   6.150
 8803POPC   C1A69723  18.327   2.767   6.450
 8803POPC   D2A69724  18.234   2.751   6.750
 8803POPC   C3A69725  18.312   2.786   7.050
 8803POPC   C4A69726  18.294   2.795   7.350
 8803POPC   C1B69727  18.336   3.045   6.450
 8803POPC   C2B69728  18.276   2.986   6.750
 8803POPC   C3B69729  18.294   2.975   7.050
 8803POPC   C4B69730  18.323   3.022   7.350
 8804POPC   NC369731  43.906   5.834   5.550
 8804POPC   PO469732  43.935   5.851   5.850
 8804POPC   GL169733  43.932   5.911   6.150
 8804POPC   GL269734  43.844   6.012   6.150
 8804POPC   C1A69735  43.876   5.892   6.450
 8804POPC   D2A69736  43.908   5.893   6.750
 8804POPC   C3A69737  43.883   5.911   7.050
 8804POPC   C4A69738  43.932   5.882   7.350
 8804POPC   C1B69739  43.834   6.095   6.450
 8804POPC   C2B69740  43.837   6.110   6.750
 8804POPC   C3B69741  43.826   6.094   7.050
 8804POPC   C4B69742  43.821   6.112   7.350
 8805POPC   NC369743  37.682  22.943   5.550
 8805POPC   PO469744  37.675  22.892   5.850
 8805POPC   GL169745  37.684  22.899   6.150
 8805POPC   GL269746  37.583  22.982   6.150
 8805POPC   C1A69747  37.688  22.920   6.450
 8805POPC   D2A69748  37.658  22.897   6.750
 8805POPC   C3A69749  37.644  22.924   7.050
 8805POPC   C4A69750  37.643  22.910   7.350
 8805POPC   C1B69751  37.485  23.100   6.450
 8805POPC   C2B69752  37.471  23.139   6.750
 8805POPC   C3B69753  37.532  23.044   7.050
 8805POPC   C4B69754  37.438  23.045   7.350
 8806POPC   NC369755   1.993   6.639   5.550
 8806POPC   PO469756   2.024   6.613   5.850
 8806POPC   GL169757   1.967   6.649   6.150
 8806POPC   GL269758   1.851   6.679   6.150
 8806POPC   C1A69759   1.992   6.657   6.450
 8806POPC   D2A69760   1.982   6.624   6.750
 8806POPC   C3A69761   2.005   6.625   7.050
 8806POPC   C4A69762   1.942   6.631   7.350
 8806POPC   C1B69763   1.712   6.696   6.450
 8806POPC   C2B69764   1.732   6.735   6.750
 8806POPC   C3B69765   1.741   6.689   7.050
 8806POPC   C4B69766   1.707   6.754   7.350
 8807POPC   NC369767   4.313  39.974   5.550
 8807POPC   PO469768   4.340  40.054   5.850
 8807POPC   GL169769   4.357  40.017   6.150
 8807POPC   GL269770   4.331  40.158   6.150
 8807POPC   C1A69771   4.348  39.964   6.450
 8807POPC   D2A69772   4.360  39.957   6.750
 8807POPC   C3A69773   4.275  40.005   7.050
 8807POPC   C4A69774   4.309  40.006   7.350
 8807POPC   C1B69775   4.253  40.298   6.450
 8807POPC   C2B69776   4.260  40.214   6.750
 8807POPC   C3B69777   4.342  40.217   7.050
 8807POPC   C4B69778   4.252  40.223   7.350
 8808POPC   NC369779  21.428  43.866   5.550
 8808POPC   PO469780  21.380  43.897   5.850
 8808POPC   GL169781  21.352  43.882   6.150
 8808POPC   GL269782  21.366  43.760   6.150
 8808POPC   C1A69783  21.366  43.907   6.450
 8808POPC   D2A69784  21.425  43.870   6.750
 8808POPC   C3A69785  21.426  43.933   7.050
 8808POPC   C4A69786  21.355  43.886   7.350
 8808POPC   C1B69787  21.281  43.605   6.450
 8808POPC   C2B69788  21.297  43.609   6.750
 8808POPC   C3B69789  21.297  43.632   7.050
 8808POPC   C4B69790  21.253  43.621   7.350
 8809POPC   NC369791  44.637   9.020   5.550
 8809POPC   PO469792  44.681   8.959   5.850
 8809POPC   GL169793  44.687   8.997   6.150
 8809POPC   GL269794  44.787   8.983   6.150
 8809POPC   C1A69795  44.674   8.960   6.450
 8809POPC   D2A69796  44.645   8.939   6.750
 8809POPC   C3A69797  44.629   9.015   7.050
 8809POPC   C4A69798  44.641   9.011   7.350
 8809POPC   C1B69799  44.882   9.104   6.450
 8809POPC   C2B69800  44.845   9.084   6.750
 8809POPC   C3B69801  44.930   9.080   7.050
 8809POPC   C4B69802  44.906   9.099   7.350
 8810POPC   NC369803  15.955  34.590   5.550
 8810POPC   PO469804  15.999  34.529   5.850
 8810POPC   GL169805  16.001  34.576   6.150
 8810POPC   GL269806  15.833  34.639   6.150
 8810POPC   C1A69807  15.969  34.558   6.450
 8810POPC   D2A69808  15.942  34.579   6.750
 8810POPC   C3A69809  15.945  34.550   7.050
 8810POPC   C4A69810  15.968  34.609   7.350
 8810POPC   C1B69811  15.679  34.691   6.450
 8810POPC   C2B69812  15.740  34.709   6.750
 8810POPC   C3B69813  15.690  34.707   7.050
 8810POPC   C4B69814  15.701  34.683   7.350
 8811POPC   NC369815  12.098  10.480   5.550
 8811POPC   PO469816  12.058  10.517   5.850
 8811POPC   GL169817  12.086  10.551   6.150
 8811POPC   GL269818  12.087  10.626   6.150
 8811POPC   C1A69819  12.086  10.505   6.450
 8811POPC   D2A69820  12.117  10.523   6.750
 8811POPC   C3A69821  12.064  10.574   7.050
 8811POPC   C4A69822  12.092  10.549   7.350
 8811POPC   C1B69823  12.000  10.783   6.450
 8811POPC   C2B69824  12.053  10.773   6.750
 8811POPC   C3B69825  12.002  10.739   7.050
 8811POPC   C4B69826  12.052  10.813   7.350
 8812POPC   NC369827  24.455   6.672   5.550
 8812POPC   PO469828  24.514   6.659   5.850
 8812POPC   GL169829  24.472   6.661   6.150
 8812POPC   GL269830  24.421   6.476   6.150
 8812POPC   C1A69831  24.523   6.688   6.450
 8812POPC   D2A69832  24.442   6.638   6.750
 8812POPC   C3A69833  24.498   6.596   7.050
 8812POPC   C4A69834  24.484   6.666   7.350
 8812POPC   C1B69835  24.434   6.444   6.450
 8812POPC   C2B69836  24.434   6.375   6.750
 8812POPC   C3B69837  24.436   6.396   7.050
 8812POPC   C4B69838  24.486   6.412   7.350
 8813POPC   NC369839   8.201  33.013   5.550
 8813POPC   PO469840   8.212  33.056   5.850
 8813POPC   GL169841   8.157  33.001   6.150
 8813POPC   GL269842   8.311  33.026   6.150
 8813POPC   C1A69843   8.183  33.053   6.450
 8813POPC   D2A69844   8.193  33.050   6.750
 8813POPC   C3A69845   8.210  32.987   7.050
 8813POPC   C4A69846   8.160  33.068   7.350
 8813POPC   C1B69847   8.484  33.107   6.450
 8813POPC   C2B69848   8.398  33.094   6.750
 8813POPC   C3B69849   8.403  33.068   7.050
 8813POPC   C4B69850   8.455  33.089   7.350
 8814POPC   NC369851  29.131  26.030   5.550
 8814POPC   PO469852  29.099  26.007   5.850
 8814POPC   GL169853  29.140  26.022   6.150
 8814POPC   GL269854  29.044  25.990   6.150
 8814POPC   C1A69855  29.124  26.040   6.450
 8814POPC   D2A69856  29.175  25.998   6.750
 8814POPC   C3A69857  29.126  26.079   7.050
 8814POPC   C4A69858  29.180  26.010   7.350
 8814POPC   C1B69859  28.873  26.054   6.450
 8814POPC   C2B69860  28.865  26.012   6.750
 8814POPC   C3B69861  28.853  25.979   7.050
 8814POPC   C4B69862  28.920  26.014   7.350
 8815POPC   NC369863   0.427   8.199   5.550
 8815POPC   PO469864   0.487   8.187   5.850
 8815POPC   GL169865   0.417   8.147   6.150
 8815POPC   GL269866   0.495   8.087   6.150
 8815POPC   C1A69867   0.442   8.175   6.450
 8815POPC   D2A69868   0.395   8.162   6.750
 8815POPC   C3A69869   0.394   8.171   7.050
 8815POPC   C4A69870   0.415   8.147   7.350
 8815POPC   C1B69871   0.586   7.969   6.450
 8815POPC   C2B69872   0.492   7.931   6.750
 8815POPC   C3B69873   0.586   7.990   7.050
 8815POPC   C4B69874   0.502   7.966   7.350
 8816POPC   NC369875   2.009  40.024   5.550
 8816POPC   PO469876   1.952  40.000   5.850
 8816POPC   GL169877   2.027  40.049   6.150
 8816POPC   GL269878   2.040  40.127   6.150
 8816POPC   C1A69879   1.962  39.991   6.450
 8816POPC   D2A69880   2.007  40.038   6.750
 8816POPC   C3A69881   1.993  40.033   7.050
 8816POPC   C4A69882   2.033  40.043   7.350
 8816POPC   C1B69883   2.135  40.132   6.450
 8816POPC   C2B69884   2.202  40.206   6.750
 8816POPC   C3B69885   2.163  40.221   7.050
 8816POPC   C4B69886   2.134  40.193   7.350
 8817POPC   NC369887  32.226   2.803   5.550
 8817POPC   PO469888  32.268   2.722   5.850
 8817POPC   GL169889  32.207   2.725   6.150
 8817POPC   GL269890  32.337   2.635   6.150
 8817POPC   C1A69891  32.232   2.775   6.450
 8817POPC   D2A69892  32.259   2.758   6.750
 8817POPC   C3A69893  32.284   2.806   7.050
 8817POPC   C4A69894  32.217   2.737   7.350
 8817POPC   C1B69895  32.338   2.518   6.450
 8817POPC   C2B69896  32.345   2.515   6.750
 8817POPC   C3B69897  32.314   2.549   7.050
 8817POPC   C4B69898  32.379   2.584   7.350
 8818POPC   NC369899  38.446  19.066   5.550
 8818POPC   PO469900  38.449  19.062   5.850
 8818POPC   GL169901  38.487  19.040   6.150
 8818POPC   GL269902  38.295  19.065   6.150
 8818POPC   C1A69903  38.488  19.083   6.450
 8818POPC   D2A69904  38.454  19.072   6.750
 8818POPC   C3A69905  38.456  19.042   7.050
 8818POPC   C4A69906  38.494  19.010   7.350
 8818POPC   C1B69907  38.276  19.177   6.450
 8818POPC   C2B69908  38.232  19.151   6.750
 8818POPC   C3B69909  38.279  19.154   7.050
 8818POPC   C4B69910  38.221  19.125   7.350
 8819POPC   NC369911   0.446  12.888   5.550
 8819POPC   PO469912   0.460  12.846   5.850
 8819POPC   GL169913   0.488  12.860   6.150
 8819POPC   GL269914   0.317  12.853   6.150
 8819POPC   C1A69915   0.393  12.888   6.450
 8819POPC   D2A69916   0.425  12.825   6.750
 8819POPC   C3A69917   0.474  12.846   7.050
 8819POPC   C4A69918   0.422  12.889   7.350
 8819POPC   C1B69919   0.182  12.835   6.450
 8819POPC   C2B69920   0.176  12.837   6.750
 8819POPC   C3B69921   0.236  12.806   7.050
 8819POPC   C4B69922   0.182  12.827   7.350
 8820POPC   NC369923  16.688  30.655   5.550
 8820POPC   PO469924  16.758  30.682   5.850
 8820POPC   GL169925  16.762  30.726   6.150
 8820POPC   GL269926  16.844  30.642   6.150
 8820POPC   C1A69927  16.691  30.656   6.450
 8820POPC   D2A69928  16.687  30.740   6.750
 8820POPC   C3A69929  16.764  30.656   7.050
 8820POPC   C4A69930  16.696  30.652   7.350
 8820POPC   C1B69931  16.946  30.559   6.450
 8820POPC   C2B69932  16.908  30.588   6.750
 8820POPC   C3B69933  16.974  30.510   7.050
 8820POPC   C4B69934  16.941  30.503   7.350
 8821POPC   NC369935  36.892  13.620   5.550
 8821POPC   PO469936  36.896  13.647   5.850
 8821POPC   GL169937  36.905  13.580   6.150
 8821POPC   GL269938  36.934  13.466   6.150
 8821POPC   C1A69939  36.921  13.646   6.450
 8821POPC   D2A69940  36.896  13.672   6.750
 8821POPC   C3A69941  36.868  13.651   7.050
 8821POPC   C4A69942  36.907  13.641   7.350
 8821POPC   C1B69943  36.997  13.354   6.450
 8821POPC   C2B69944  37.004  13.429   6.750
 8821POPC   C3B69945  36.997  13.350   7.050
 8821POPC   C4B69946  36.987  13.447   7.350
 8822POPC   NC369947  28.375   3.563   5.550
 8822POPC   PO469948  28.398   3.503   5.850
 8822POPC   GL169949  28.334   3.572   6.150
 8822POPC   GL269950  28.226   3.564   6.150
 8822POPC   C1A69951  28.329   3.508   6.450
 8822POPC   D2A69952  28.379   3.554   6.750
 8822POPC   C3A69953  28.335   3.501   7.050
 8822POPC   C4A69954  28.407   3.533   7.350
 8822POPC   C1B69955  28.153   3.466   6.450
 8822POPC   C2B69956  28.152   3.517   6.750
 8822POPC   C3B69957  28.111   3.500   7.050
 8822POPC   C4B69958  28.149   3.508   7.350
 8823POPC   NC369959   2.792  27.577   5.550
 8823POPC   PO469960   2.738  27.641   5.850
 8823POPC   GL169961   2.760  27.608   6.150
 8823POPC   GL269962   2.760  27.470   6.150
 8823POPC   C1A69963   2.810  27.615   6.450
 8823POPC   D2A69964   2.744  27.571   6.750
 8823POPC   C3A69965   2.748  27.614   7.050
 8823POPC   C4A69966   2.803  27.587   7.350
 8823POPC   C1B69967   2.774  27.362   6.450
 8823POPC   C2B69968   2.741  27.367   6.750
 8823POPC   C3B69969   2.737  27.299   7.050
 8823POPC   C4B69970   2.693  27.354   7.350
 8824POPC   NC369971  27.607  43.081   5.550
 8824POPC   PO469972  27.562  43.142   5.850
 8824POPC   GL169973  27.581  43.109   6.150
 8824POPC   GL269974  27.491  43.103   6.150
 8824POPC   C1A69975  27.592  43.100   6.450
 8824POPC   D2A69976  27.623  43.147   6.750
 8824POPC   C3A69977  27.629  43.073   7.050
 8824POPC   C4A69978  27.559  43.088   7.350
 8824POPC   C1B69979  27.329  43.052   6.450
 8824POPC   C2B69980  27.412  43.019   6.750
 8824POPC   C3B69981  27.393  43.009   7.050
 8824POPC   C4B69982  27.382  43.049   7.350
 8825POPC   NC369983   1.179  33.760   5.550
 8825POPC   PO469984   1.256  33.829   5.850
 8825POPC   GL169985   1.190  33.809   6.150
 8825POPC   GL269986   1.104  33.765   6.150
 8825POPC   C1A69987   1.208  33.781   6.450
 8825POPC   D2A69988   1.170  33.809   6.750
 8825POPC   C3A69989   1.231  33.790   7.050
 8825POPC   C4A69990   1.206  33.793   7.350
 8825POPC   C1B69991   0.961  33.769   6.450
 8825POPC   C2B69992   0.981  33.796   6.750
 8825POPC   C3B69993   0.963  33.800   7.050
 8825POPC   C4B69994   0.925  33.798   7.350
 8826POPC   NC369995   4.347  12.120   5.550
 8826POPC   PO469996   4.325  12.039   5.850
 8826POPC   GL169997   4.275  12.111   6.150
 8826POPC   GL269998   4.211  12.046   6.150
 8826POPC   C1A69999   4.311  12.037   6.450
 8826POPC   D2A70000   4.269  12.058   6.750
 8826POPC   C3A70001   4.267  12.034   7.050
 8826POPC   C4A70002   4.270  12.053   7.350
 8826POPC   C1B70003   4.095  11.881   6.450
 8826POPC   C2B70004   4.162  11.900   6.750
 8826POPC   C3B70005   4.107  11.893   7.050
 8826POPC   C4B70006   4.151  11.886   7.350
 8827POPC   NC370007  20.609  31.463   5.550
 8827POPC   PO470008  20.633  31.434   5.850
 8827POPC   GL170009  20.631  31.443   6.150
 8827POPC   GL270010  20.696  31.329   6.150
 8827POPC   C1A70011  20.614  31.455   6.450
 8827POPC   D2A70012  20.581  31.472   6.750
 8827POPC   C3A70013  20.653  31.444   7.050
 8827POPC   C4A70014  20.626  31.453   7.350
 8827POPC   C1B70015  20.807  31.299   6.450
 8827POPC   C2B70016  20.774  31.287   6.750
 8827POPC   C3B70017  20.790  31.241   7.050
 8827POPC   C4B70018  20.765  31.267   7.350
 8828POPC   NC370019  12.067  29.884   5.550
 8828POPC   PO470020  12.030  29.884   5.850
 8828POPC   GL170021  12.067  29.889   6.150
 8828POPC   GL270022  11.974  30.016   6.150
 8828POPC   C1A70023  12.048  29.959   6.450
 8828POPC   D2A70024  12.039  29.958   6.750
 8828POPC   C3A70025  12.113  29.958   7.050
 8828POPC   C4A70026  12.109  29.902   7.350
 8828POPC   C1B70027  11.910  30.075   6.450
 8828POPC   C2B70028  11.859  30.055   6.750
 8828POPC   C3B70029  11.869  30.068   7.050
 8828POPC   C4B70030  11.860  30.052   7.350
 8829POPC   NC370031  40.819  30.732   5.550
 8829POPC   PO470032  40.755  30.734   5.850
 8829POPC   GL170033  40.768  30.683   6.150
 8829POPC   GL270034  40.833  30.825   6.150
 8829POPC   C1A70035  40.785  30.650   6.450
 8829POPC   D2A70036  40.820  30.711   6.750
 8829POPC   C3A70037  40.759  30.656   7.050
 8829POPC   C4A70038  40.824  30.679   7.350
 8829POPC   C1B70039  40.968  30.898   6.450
 8829POPC   C2B70040  40.950  30.861   6.750
 8829POPC   C3B70041  41.005  30.881   7.050
 8829POPC   C4B70042  40.976  30.820   7.350
 8830POPC   NC370043  44.672   7.389   5.550
 8830POPC   PO470044  44.648   7.375   5.850
 8830POPC   GL170045  44.687   7.459   6.150
 8830POPC   GL270046  44.727   7.383   6.150
 8830POPC   C1A70047  44.678   7.468   6.450
 8830POPC   D2A70048  44.705   7.449   6.750
 8830POPC   C3A70049  44.625   7.450   7.050
 8830POPC   C4A70050  44.686   7.413   7.350
 8830POPC   C1B70051  44.899   7.299   6.450
 8830POPC   C2B70052  44.881   7.304   6.750
 8830POPC   C3B70053  44.844   7.296   7.050
 8830POPC   C4B70054  44.836   7.275   7.350
 8831POPC   NC370055  17.554  18.319   5.550
 8831POPC   PO470056  17.525  18.298   5.850
 8831POPC   GL170057  17.557  18.239   6.150
 8831POPC   GL270058  17.377  18.300   6.150
 8831POPC   C1A70059  17.483  18.288   6.450
 8831POPC   D2A70060  17.469  18.259   6.750
 8831POPC   C3A70061  17.544  18.277   7.050
 8831POPC   C4A70062  17.481  18.311   7.350
 8831POPC   C1B70063  17.260  18.357   6.450
 8831POPC   C2B70064  17.213  18.333   6.750
 8831POPC   C3B70065  17.225  18.308   7.050
 8831POPC   C4B70066  17.217  18.332   7.350
 8832POPC   NC370067   6.687  37.643   5.550
 8832POPC   PO470068   6.656  37.671   5.850
 8832POPC   GL170069   6.688  37.661   6.150
 8832POPC   GL270070   6.540  37.647   6.150
 8832POPC   C1A70071   6.617  37.719   6.450
 8832POPC   D2A70072   6.628  37.640   6.750
 8832POPC   C3A70073   6.636  37.701   7.050
 8832POPC   C4A70074   6.677  37.662   7.350
 8832POPC   C1B70075   6.357  37.675   6.450
 8832POPC   C2B70076   6.403  37.619   6.750
 8832POPC   C3B70077   6.385  37.669   7.050
 8832POPC   C4B70078   6.372  37.676   7.350
 8833POPC   NC370079   2.785  10.536   5.550
 8833POPC   PO470080   2.791  10.512   5.850
 8833POPC   GL170081   2.762  10.563   6.150
 8833POPC   GL270082   2.738  10.358   6.150
 8833POPC   C1A70083   2.792  10.515   6.450
 8833POPC   D2A70084   2.785  10.543   6.750
 8833POPC   C3A70085   2.722  10.512   7.050
 8833POPC   C4A70086   2.741  10.511   7.350
 8833POPC   C1B70087   2.786  10.262   6.450
 8833POPC   C2B70088   2.736  10.251   6.750
 8833POPC   C3B70089   2.733  10.260   7.050
 8833POPC   C4B70090   2.751  10.253   7.350
 8834POPC   NC370091  16.765  33.825   5.550
 8834POPC   PO470092  16.773  33.811   5.850
 8834POPC   GL170093  16.688  33.805   6.150
 8834POPC   GL270094  16.707  33.902   6.150
 8834POPC   C1A70095  16.757  33.846   6.450
 8834POPC   D2A70096  16.741  33.832   6.750
 8834POPC   C3A70097  16.758  33.835   7.050
 8834POPC   C4A70098  16.771  33.828   7.350
 8834POPC   C1B70099  16.710  34.060   6.450
 8834POPC   C2B70100  16.669  34.024   6.750
 8834POPC   C3B70101  16.732  34.095   7.050
 8834POPC   C4B70102  16.657  34.033   7.350
 8835POPC   NC370103  42.383   2.739   5.550
 8835POPC   PO470104  42.333   2.775   5.850
 8835POPC   GL170105  42.367   2.739   6.150
 8835POPC   GL270106  42.472   2.740   6.150
 8835POPC   C1A70107  42.367   2.730   6.450
 8835POPC   D2A70108  42.323   2.792   6.750
 8835POPC   C3A70109  42.374   2.781   7.050
 8835POPC   C4A70110  42.358   2.727   7.350
 8835POPC   C1B70111  42.542   2.724   6.450
 8835POPC   C2B70112  42.555   2.777   6.750
 8835POPC   C3B70113  42.582   2.805   7.050
 8835POPC   C4B70114  42.605   2.786   7.350
 8836POPC   NC370115  38.424  43.837   5.550
 8836POPC   PO470116  38.495  43.912   5.850
 8836POPC   GL170117  38.406  43.923   6.150
 8836POPC   GL270118  38.593  43.818   6.150
 8836POPC   C1A70119  38.486  43.876   6.450
 8836POPC   D2A70120  38.469  43.874   6.750
 8836POPC   C3A70121  38.499  43.906   7.050
 8836POPC   C4A70122  38.443  43.888   7.350
 8836POPC   C1B70123  38.676  43.769   6.450
 8836POPC   C2B70124  38.683  43.755   6.750
 8836POPC   C3B70125  38.673  43.766   7.050
 8836POPC   C4B70126  38.699  43.713   7.350
 8837POPC   NC370127  30.692  12.087   5.550
 8837POPC   PO470128  30.681  12.064   5.850
 8837POPC   GL170129  30.738  12.087   6.150
 8837POPC   GL270130  30.571  12.008   6.150
 8837POPC   C1A70131  30.729  12.069   6.450
 8837POPC   D2A70132  30.658  12.120   6.750
 8837POPC   C3A70133  30.729  12.099   7.050
 8837POPC   C4A70134  30.737  12.087   7.350
 8837POPC   C1B70135  30.462  11.976   6.450
 8837POPC   C2B70136  30.460  11.974   6.750
 8837POPC   C3B70137  30.468  11.978   7.050
 8837POPC   C4B70138  30.477  11.984   7.350
 8838POPC   NC370139   9.798  16.742   5.550
 8838POPC   PO470140   9.760  16.739   5.850
 8838POPC   GL170141   9.719  16.710   6.150
 8838POPC   GL270142   9.684  16.669   6.150
 8838POPC   C1A70143   9.769  16.700   6.450
 8838POPC   D2A70144   9.725  16.682   6.750
 8838POPC   C3A70145   9.777  16.691   7.050
 8838POPC   C4A70146   9.766  16.762   7.350
 8838POPC   C1B70147   9.546  16.594   6.450
 8838POPC   C2B70148   9.563  16.627   6.750
 8838POPC   C3B70149   9.506  16.630   7.050
 8838POPC   C4B70150   9.509  16.641   7.350
 8839POPC   NC370151  36.863  28.415   5.550
 8839POPC   PO470152  36.949  28.376   5.850
 8839POPC   GL170153  36.925  28.357   6.150
 8839POPC   GL270154  36.987  28.267   6.150
 8839POPC   C1A70155  36.937  28.352   6.450
 8839POPC   D2A70156  36.874  28.379   6.750
 8839POPC   C3A70157  36.868  28.399   7.050
 8839POPC   C4A70158  36.886  28.390   7.350
 8839POPC   C1B70159  37.098  28.189   6.450
 8839POPC   C2B70160  37.096  28.171   6.750
 8839POPC   C3B70161  37.075  28.229   7.050
 8839POPC   C4B70162  37.117  28.218   7.350
 8840POPC   NC370163  29.937  41.590   5.550
 8840POPC   PO470164  29.888  41.525   5.850
 8840POPC   GL170165  29.939  41.573   6.150
 8840POPC   GL270166  29.979  41.584   6.150
 8840POPC   C1A70167  29.894  41.509   6.450
 8840POPC   D2A70168  29.893  41.544   6.750
 8840POPC   C3A70169  29.922  41.577   7.050
 8840POPC   C4A70170  29.958  41.583   7.350
 8840POPC   C1B70171  30.146  41.679   6.450
 8840POPC   C2B70172  30.154  41.690   6.750
 8840POPC   C3B70173  30.127  41.750   7.050
 8840POPC   C4B70174  30.110  41.727   7.350
 8841POPC   NC370175  13.658  19.107   5.550
 8841POPC   PO470176  13.635  19.062   5.850
 8841POPC   GL170177  13.643  19.058   6.150
 8841POPC   GL270178  13.457  19.033   6.150
 8841POPC   C1A70179  13.630  19.097   6.450
 8841POPC   D2A70180  13.646  19.062   6.750
 8841POPC   C3A70181  13.629  19.058   7.050
 8841POPC   C4A70182  13.667  19.100   7.350
 8841POPC   C1B70183  13.334  19.005   6.450
 8841POPC   C2B70184  13.418  19.031   6.750
 8841POPC   C3B70185  13.402  19.051   7.050
 8841POPC   C4B70186  13.415  19.044   7.350
 8842POPC   NC370187   8.234  10.554   5.550
 8842POPC   PO470188   8.235  10.527   5.850
 8842POPC   GL170189   8.189  10.525   6.150
 8842POPC   GL270190   8.212  10.385   6.150
 8842POPC   C1A70191   8.213  10.512   6.450
 8842POPC   D2A70192   8.168  10.482   6.750
 8842POPC   C3A70193   8.153  10.574   7.050
 8842POPC   C4A70194   8.158  10.566   7.350
 8842POPC   C1B70195   8.271  10.314   6.450
 8842POPC   C2B70196   8.329  10.259   6.750
 8842POPC   C3B70197   8.263  10.331   7.050
 8842POPC   C4B70198   8.315  10.294   7.350
 8843POPC   NC370199  28.321  20.607   5.550
 8843POPC   PO470200  28.337  20.590   5.850
 8843POPC   GL170201  28.413  20.577   6.150
 8843POPC   GL270202  28.268  20.669   6.150
 8843POPC   C1A70203  28.331  20.625   6.450
 8843POPC   D2A70204  28.327  20.587   6.750
 8843POPC   C3A70205  28.343  20.658   7.050
 8843POPC   C4A70206  28.404  20.633   7.350
 8843POPC   C1B70207  28.164  20.679   6.450
 8843POPC   C2B70208  28.106  20.657   6.750
 8843POPC   C3B70209  28.161  20.684   7.050
 8843POPC   C4B70210  28.167  20.662   7.350
 8844POPC   NC370211  12.828   8.161   5.550
 8844POPC   PO470212  12.851   8.209   5.850
 8844POPC   GL170213  12.902   8.195   6.150
 8844POPC   GL270214  12.754   8.133   6.150
 8844POPC   C1A70215  12.844   8.194   6.450
 8844POPC   D2A70216  12.887   8.240   6.750
 8844POPC   C3A70217  12.807   8.148   7.050
 8844POPC   C4A70218  12.859   8.233   7.350
 8844POPC   C1B70219  12.634   8.042   6.450
 8844POPC   C2B70220  12.657   8.044   6.750
 8844POPC   C3B70221  12.721   8.057   7.050
 8844POPC   C4B70222  12.697   7.993   7.350
 8845POPC   NC370223  43.873  30.721   5.550
 8845POPC   PO470224  43.909  30.688   5.850
 8845POPC   GL170225  43.854  30.673   6.150
 8845POPC   GL270226  43.776  30.654   6.150
 8845POPC   C1A70227  43.847  30.730   6.450
 8845POPC   D2A70228  43.931  30.717   6.750
 8845POPC   C3A70229  43.865  30.664   7.050
 8845POPC   C4A70230  43.858  30.711   7.350
 8845POPC   C1B70231  43.661  30.612   6.450
 8845POPC   C2B70232  43.598  30.619   6.750
 8845POPC   C3B70233  43.675  30.612   7.050
 8845POPC   C4B70234  43.677  30.639   7.350
 8846POPC   NC370235   6.680  29.175   5.550
 8846POPC   PO470236   6.632  29.107   5.850
 8846POPC   GL170237   6.683  29.156   6.150
 8846POPC   GL270238   6.751  29.052   6.150
 8846POPC   C1A70239   6.669  29.195   6.450
 8846POPC   D2A70240   6.663  29.157   6.750
 8846POPC   C3A70241   6.670  29.135   7.050
 8846POPC   C4A70242   6.684  29.184   7.350
 8846POPC   C1B70243   6.821  28.950   6.450
 8846POPC   C2B70244   6.840  29.018   6.750
 8846POPC   C3B70245   6.866  28.944   7.050
 8846POPC   C4B70246   6.804  29.029   7.350
 8847POPC   NC370247  36.170  43.139   5.550
 8847POPC   PO470248  36.176  43.111   5.850
 8847POPC   GL170249  36.105  43.071   6.150
 8847POPC   GL270250  36.201  43.031   6.150
 8847POPC   C1A70251  36.086  43.133   6.450
 8847POPC   D2A70252  36.106  43.082   6.750
 8847POPC   C3A70253  36.165  43.085   7.050
 8847POPC   C4A70254  36.131  43.136   7.350
 8847POPC   C1B70255  36.186  42.874   6.450
 8847POPC   C2B70256  36.204  42.882   6.750
 8847POPC   C3B70257  36.204  42.862   7.050
 8847POPC   C4B70258  36.240  42.859   7.350
 8848POPC   NC370259  37.634  41.565   5.550
 8848POPC   PO470260  37.680  41.601   5.850
 8848POPC   GL170261  37.690  41.516   6.150
 8848POPC   GL270262  37.623  41.515   6.150
 8848POPC   C1A70263  37.679  41.515   6.450
 8848POPC   D2A70264  37.728  41.517   6.750
 8848POPC   C3A70265  37.671  41.591   7.050
 8848POPC   C4A70266  37.706  41.592   7.350
 8848POPC   C1B70267  37.545  41.399   6.450
 8848POPC   C2B70268  37.558  41.352   6.750
 8848POPC   C3B70269  37.482  41.327   7.050
 8848POPC   C4B70270  37.516  41.347   7.350
 8849POPC   NC370271   5.878   2.741   5.550
 8849POPC   PO470272   5.902   2.810   5.850
 8849POPC   GL170273   5.895   2.743   6.150
 8849POPC   GL270274   6.009   2.823   6.150
 8849POPC   C1A70275   5.820   2.765   6.450
 8849POPC   D2A70276   5.865   2.717   6.750
 8849POPC   C3A70277   5.915   2.787   7.050
 8849POPC   C4A70278   5.832   2.756   7.350
 8849POPC   C1B70279   6.114   2.796   6.450
 8849POPC   C2B70280   6.108   2.805   6.750
 8849POPC   C3B70281   6.116   2.805   7.050
 8849POPC   C4B70282   6.105   2.842   7.350
 8850POPC   NC370283  35.339   8.940   5.550
 8850POPC   PO470284  35.348   8.958   5.850
 8850POPC   GL170285  35.383   8.929   6.150
 8850POPC   GL270286  35.279   9.001   6.150
 8850POPC   C1A70287  35.373   8.960   6.450
 8850POPC   D2A70288  35.345   8.999   6.750
 8850POPC   C3A70289  35.348   9.019   7.050
 8850POPC   C4A70290  35.338   8.947   7.350
 8850POPC   C1B70291  35.133   9.138   6.450
 8850POPC   C2B70292  35.190   9.170   6.750
 8850POPC   C3B70293  35.149   9.139   7.050
 8850POPC   C4B70294  35.158   9.086   7.350
 8851POPC   NC370295  25.309  41.558   5.550
 8851POPC   PO470296  25.238  41.558   5.850
 8851POPC   GL170297  25.291  41.585   6.150
 8851POPC   GL270298  25.279  41.672   6.150
 8851POPC   C1A70299  25.282  41.525   6.450
 8851POPC   D2A70300  25.248  41.520   6.750
 8851POPC   C3A70301  25.301  41.517   7.050
 8851POPC   C4A70302  25.261  41.579   7.350
 8851POPC   C1B70303  25.327  41.786   6.450
 8851POPC   C2B70304  25.399  41.778   6.750
 8851POPC   C3B70305  25.382  41.759   7.050
 8851POPC   C4B70306  25.332  41.822   7.350
 8852POPC   NC370307  29.187  32.269   5.550
 8852POPC   PO470308  29.146  32.298   5.850
 8852POPC   GL170309  29.169  32.249   6.150
 8852POPC   GL270310  29.061  32.319   6.150
 8852POPC   C1A70311  29.100  32.235   6.450
 8852POPC   D2A70312  29.191  32.263   6.750
 8852POPC   C3A70313  29.158  32.274   7.050
 8852POPC   C4A70314  29.186  32.241   7.350
 8852POPC   C1B70315  29.104  32.496   6.450
 8852POPC   C2B70316  29.055  32.495   6.750
 8852POPC   C3B70317  29.087  32.510   7.050
 8852POPC   C4B70318  29.116  32.456   7.350
 8853POPC   NC370319   6.613  43.105   5.550
 8853POPC   PO470320   6.650  43.079   5.850
 8853POPC   GL170321   6.677  43.125   6.150
 8853POPC   GL270322   6.761  43.066   6.150
 8853POPC   C1A70323   6.615  43.062   6.450
 8853POPC   D2A70324   6.682  43.157   6.750
 8853POPC   C3A70325   6.667  43.153   7.050
 8853POPC   C4A70326   6.632  43.074   7.350
 8853POPC   C1B70327   6.814  42.980   6.450
 8853POPC   C2B70328   6.843  42.951   6.750
 8853POPC   C3B70329   6.821  42.983   7.050
 8853POPC   C4B70330   6.872  42.938   7.350
 8854POPC   NC370331  15.174  18.311   5.550
 8854POPC   PO470332  15.194  18.311   5.850
 8854POPC   GL170333  15.208  18.285   6.150
 8854POPC   GL270334  15.165  18.148   6.150
 8854POPC   C1A70335  15.191  18.262   6.450
 8854POPC   D2A70336  15.191  18.272   6.750
 8854POPC   C3A70337  15.199  18.271   7.050
 8854POPC   C4A70338  15.212  18.237   7.350
 8854POPC   C1B70339  15.068  18.028   6.450
 8854POPC   C2B70340  15.097  18.046   6.750
 8854POPC   C3B70341  15.096  18.063   7.050
 8854POPC   C4B70342  15.116  18.088   7.350
 8855POPC   NC370343  25.224  18.247   5.550
 8855POPC   PO470344  25.286  18.321   5.850
 8855POPC   GL170345  25.216  18.242   6.150
 8855POPC   GL270346  25.152  18.239   6.150
 8855POPC   C1A70347  25.261  18.259   6.450
 8855POPC   D2A70348  25.257  18.304   6.750
 8855POPC   C3A70349  25.285  18.271   7.050
 8855POPC   C4A70350  25.310  18.242   7.350
 8855POPC   C1B70351  25.070  18.137   6.450
 8855POPC   C2B70352  25.058  18.115   6.750
 8855POPC   C3B70353  25.081  18.145   7.050
 8855POPC   C4B70354  25.047  18.128   7.350
 8856POPC   NC370355  26.769   3.542   5.550
 8856POPC   PO470356  26.819   3.562   5.850
 8856POPC   GL170357  26.835   3.558   6.150
 8856POPC   GL270358  26.929   3.615   6.150
 8856POPC   C1A70359  26.780   3.572   6.450
 8856POPC   D2A70360  26.829   3.558   6.750
 8856POPC   C3A70361  26.830   3.497   7.050
 8856POPC   C4A70362  26.854   3.536   7.350
 8856POPC   C1B70363  27.031   3.764   6.450
 8856POPC   C2B70364  27.034   3.707   6.750
 8856POPC   C3B70365  26.973   3.744   7.050
 8856POPC   C4B70366  26.985   3.726   7.350
 8857POPC   NC370367  23.719  10.490   5.550
 8857POPC   PO470368  23.735  10.565   5.850
 8857POPC   GL170369  23.750  10.550   6.150
 8857POPC   GL270370  23.658  10.587   6.150
 8857POPC   C1A70371  23.720  10.554   6.450
 8857POPC   D2A70372  23.704  10.522   6.750
 8857POPC   C3A70373  23.750  10.523   7.050
 8857POPC   C4A70374  23.665  10.503   7.350
 8857POPC   C1B70375  23.595  10.759   6.450
 8857POPC   C2B70376  23.553  10.754   6.750
 8857POPC   C3B70377  23.593  10.745   7.050
 8857POPC   C4B70378  23.604  10.733   7.350
 8858POPC   NC370379   8.939  14.411   5.550
 8858POPC   PO470380   8.991  14.414   5.850
 8858POPC   GL170381   8.946  14.373   6.150
 8858POPC   GL270382   8.948  14.275   6.150
 8858POPC   C1A70383   8.931  14.410   6.450
 8858POPC   D2A70384   9.008  14.450   6.750
 8858POPC   C3A70385   8.988  14.421   7.050
 8858POPC   C4A70386   8.965  14.449   7.350
 8858POPC   C1B70387   9.018  14.176   6.450
 8858POPC   C2B70388   9.008  14.127   6.750
 8858POPC   C3B70389   9.048  14.155   7.050
 8858POPC   C4B70390   8.992  14.138   7.350
 8859POPC   NC370391  17.511  42.339   5.550
 8859POPC   PO470392  17.528  42.299   5.850
 8859POPC   GL170393  17.463  42.318   6.150
 8859POPC   GL270394  17.676  42.296   6.150
 8859POPC   C1A70395  17.540  42.299   6.450
 8859POPC   D2A70396  17.465  42.291   6.750
 8859POPC   C3A70397  17.516  42.288   7.050
 8859POPC   C4A70398  17.502  42.294   7.350
 8859POPC   C1B70399  17.773  42.248   6.450
 8859POPC   C2B70400  17.775  42.239   6.750
 8859POPC   C3B70401  17.777  42.300   7.050
 8859POPC   C4B70402  17.733  42.251   7.350
 8860POPC   NC370403  43.117   9.768   5.550
 8860POPC   PO470404  43.104   9.759   5.850
 8860POPC   GL170405  43.115   9.768   6.150
 8860POPC   GL270406  42.995   9.707   6.150
 8860POPC   C1A70407  43.086   9.793   6.450
 8860POPC   D2A70408  43.090   9.700   6.750
 8860POPC   C3A70409  43.138   9.725   7.050
 8860POPC   C4A70410  43.156   9.720   7.350
 8860POPC   C1B70411  42.877   9.577   6.450
 8860POPC   C2B70412  42.877   9.665   6.750
 8860POPC   C3B70413  42.891   9.573   7.050
 8860POPC   C4B70414  42.899   9.626   7.350
 8861POPC   NC370415  36.930   0.466   5.550
 8861POPC   PO470416  36.905   0.397   5.850
 8861POPC   GL170417  36.922   0.413   6.150
 8861POPC   GL270418  36.905   0.294   6.150
 8861POPC   C1A70419  36.917   0.448   6.450
 8861POPC   D2A70420  36.949   0.482   6.750
 8861POPC   C3A70421  36.863   0.460   7.050
 8861POPC   C4A70422  36.865   0.432   7.350
 8861POPC   C1B70423  36.983   0.223   6.450
 8861POPC   C2B70424  36.926   0.207   6.750
 8861POPC   C3B70425  36.962   0.213   7.050
 8861POPC   C4B70426  36.954   0.218   7.350
 8862POPC   NC370427   5.140   9.780   5.550
 8862POPC   PO470428   5.055   9.723   5.850
 8862POPC   GL170429   5.112   9.753   6.150
 8862POPC   GL270430   5.063   9.619   6.150
 8862POPC   C1A70431   5.086   9.710   6.450
 8862POPC   D2A70432   5.119   9.777   6.750
 8862POPC   C3A70433   5.085   9.713   7.050
 8862POPC   C4A70434   5.118   9.733   7.350
 8862POPC   C1B70435   4.954   9.555   6.450
 8862POPC   C2B70436   4.985   9.602   6.750
 8862POPC   C3B70437   4.978   9.556   7.050
 8862POPC   C4B70438   4.915   9.571   7.350
 8863POPC   NC370439  16.692  40.734   5.550
 8863POPC   PO470440  16.697  40.740   5.850
 8863POPC   GL170441  16.762  40.781   6.150
 8863POPC   GL270442  16.685  40.694   6.150
 8863POPC   C1A70443  16.700  40.799   6.450
 8863POPC   D2A70444  16.701  40.796   6.750
 8863POPC   C3A70445  16.773  40.734   7.050
 8863POPC   C4A70446  16.734  40.784   7.350
 8863POPC   C1B70447  16.690  40.507   6.450
 8863POPC   C2B70448  16.698  40.583   6.750
 8863POPC   C3B70449  16.672  40.503   7.050
 8863POPC   C4B70450  16.692  40.578   7.350
 8864POPC   NC370451  27.633  27.627   5.550
 8864POPC   PO470452  27.599  27.615   5.850
 8864POPC   GL170453  27.602  27.598   6.150
 8864POPC   GL270454  27.694  27.445   6.150
 8864POPC   C1A70455  27.596  27.580   6.450
 8864POPC   D2A70456  27.555  27.617   6.750
 8864POPC   C3A70457  27.610  27.562   7.050
 8864POPC   C4A70458  27.578  27.579   7.350
 8864POPC   C1B70459  27.691  27.358   6.450
 8864POPC   C2B70460  27.739  27.352   6.750
 8864POPC   C3B70461  27.686  27.333   7.050
 8864POPC   C4B70462  27.689  27.394   7.350
 8865POPC   NC370463  15.984  36.096   5.550
 8865POPC   PO470464  15.963  36.141   5.850
 8865POPC   GL170465  16.001  36.115   6.150
 8865POPC   GL270466  15.872  36.174   6.150
 8865POPC   C1A70467  15.986  36.108   6.450
 8865POPC   D2A70468  15.940  36.138   6.750
 8865POPC   C3A70469  15.987  36.084   7.050
 8865POPC   C4A70470  15.927  36.174   7.350
 8865POPC   C1B70471  15.712  36.280   6.450
 8865POPC   C2B70472  15.787  36.218   6.750
 8865POPC   C3B70473  15.754  36.215   7.050
 8865POPC   C4B70474  15.724  36.268   7.350
 8866POPC   NC370475  25.313  19.870   5.550
 8866POPC   PO470476  25.297  19.832   5.850
 8866POPC   GL170477  25.302  19.795   6.150
 8866POPC   GL270478  25.358  19.993   6.150
 8866POPC   C1A70479  25.296  19.844   6.450
 8866POPC   D2A70480  25.225  19.803   6.750
 8866POPC   C3A70481  25.280  19.816   7.050
 8866POPC   C4A70482  25.260  19.884   7.350
 8866POPC   C1B70483  25.346  20.050   6.450
 8866POPC   C2B70484  25.427  20.013   6.750
 8866POPC   C3B70485  25.368  20.063   7.050
 8866POPC   C4B70486  25.397  20.085   7.350
 8867POPC   NC370487   1.963  29.119   5.550
 8867POPC   PO470488   1.994  29.124   5.850
 8867POPC   GL170489   1.986  29.130   6.150
 8867POPC   GL270490   1.844  29.196   6.150
 8867POPC   C1A70491   2.008  29.148   6.450
 8867POPC   D2A70492   1.953  29.136   6.750
 8867POPC   C3A70493   1.953  29.115   7.050
 8867POPC   C4A70494   1.978  29.192   7.350
 8867POPC   C1B70495   1.710  29.107   6.450
 8867POPC   C2B70496   1.732  29.130   6.750
 8867POPC   C3B70497   1.753  29.134   7.050
 8867POPC   C4B70498   1.773  29.181   7.350
 8868POPC   NC370499   1.246  15.951   5.550
 8868POPC   PO470500   1.198  15.941   5.850
 8868POPC   GL170501   1.191  15.998   6.150
 8868POPC   GL270502   1.135  16.069   6.150
 8868POPC   C1A70503   1.165  15.948   6.450
 8868POPC   D2A70504   1.249  15.981   6.750
 8868POPC   C3A70505   1.217  16.002   7.050
 8868POPC   C4A70506   1.179  15.937   7.350
 8868POPC   C1B70507   1.071  16.168   6.450
 8868POPC   C2B70508   1.108  16.167   6.750
 8868POPC   C3B70509   1.034  16.136   7.050
 8868POPC   C4B70510   1.055  16.199   7.350
 8869POPC   NC370511  15.210  39.216   5.550
 8869POPC   PO470512  15.196  39.185   5.850
 8869POPC   GL170513  15.198  39.235   6.150
 8869POPC   GL270514  15.127  39.336   6.150
 8869POPC   C1A70515  15.188  39.253   6.450
 8869POPC   D2A70516  15.218  39.244   6.750
 8869POPC   C3A70517  15.130  39.260   7.050
 8869POPC   C4A70518  15.195  39.208   7.350
 8869POPC   C1B70519  14.943  39.372   6.450
 8869POPC   C2B70520  14.939  39.354   6.750
 8869POPC   C3B70521  14.952  39.337   7.050
 8869POPC   C4B70522  14.998  39.372   7.350
 8870POPC   NC370523   9.742   3.541   5.550
 8870POPC   PO470524   9.743   3.507   5.850
 8870POPC   GL170525   9.730   3.561   6.150
 8870POPC   GL270526   9.839   3.546   6.150
 8870POPC   C1A70527   9.773   3.519   6.450
 8870POPC   D2A70528   9.750   3.560   6.750
 8870POPC   C3A70529   9.723   3.571   7.050
 8870POPC   C4A70530   9.770   3.493   7.350
 8870POPC   C1B70531   9.998   3.546   6.450
 8870POPC   C2B70532  10.044   3.505   6.750
 8870POPC   C3B70533  10.045   3.516   7.050
 8870POPC   C4B70534   9.957   3.475   7.350
 8871POPC   NC370535  33.801  16.767   5.550
 8871POPC   PO470536  33.806  16.691   5.850
 8871POPC   GL170537  33.829  16.770   6.150
 8871POPC   GL270538  33.743  16.652   6.150
 8871POPC   C1A70539  33.835  16.744   6.450
 8871POPC   D2A70540  33.821  16.736   6.750
 8871POPC   C3A70541  33.849  16.770   7.050
 8871POPC   C4A70542  33.831  16.699   7.350
 8871POPC   C1B70543  33.593  16.542   6.450
 8871POPC   C2B70544  33.663  16.593   6.750
 8871POPC   C3B70545  33.618  16.505   7.050
 8871POPC   C4B70546  33.618  16.545   7.350
 8872POPC   NC370547  40.794  43.131   5.550
 8872POPC   PO470548  40.737  43.079   5.850
 8872POPC   GL170549  40.799  43.071   6.150
 8872POPC   GL270550  40.716  43.037   6.150
 8872POPC   C1A70551  40.793  43.157   6.450
 8872POPC   D2A70552  40.795  43.133   6.750
 8872POPC   C3A70553  40.742  43.111   7.050
 8872POPC   C4A70554  40.809  43.136   7.350
 8872POPC   C1B70555  40.703  42.879   6.450
 8872POPC   C2B70556  40.665  42.851   6.750
 8872POPC   C3B70557  40.668  42.892   7.050
 8872POPC   C4B70558  40.726  42.863   7.350
 8873POPC   NC370559  31.481  43.858   5.550
 8873POPC   PO470560  31.424  43.927   5.850
 8873POPC   GL170561  31.462  43.876   6.150
 8873POPC   GL270562  31.581  43.813   6.150
 8873POPC   C1A70563  31.465  43.850   6.450
 8873POPC   D2A70564  31.441  43.920   6.750
 8873POPC   C3A70565  31.514  43.934   7.050
 8873POPC   C4A70566  31.451  43.874   7.350
 8873POPC   C1B70567  31.674  43.725   6.450
 8873POPC   C2B70568  31.636  43.759   6.750
 8873POPC   C3B70569  31.650  43.762   7.050
 8873POPC   C4B70570  31.696  43.775   7.350
 8874POPC   NC370571  18.252  38.492   5.550
 8874POPC   PO470572  18.287  38.478   5.850
 8874POPC   GL170573  18.290  38.472   6.150
 8874POPC   GL270574  18.354  38.496   6.150
 8874POPC   C1A70575  18.314  38.492   6.450
 8874POPC   D2A70576  18.256  38.467   6.750
 8874POPC   C3A70577  18.253  38.486   7.050
 8874POPC   C4A70578  18.237  38.477   7.350
 8874POPC   C1B70579  18.463  38.617   6.450
 8874POPC   C2B70580  18.515  38.562   6.750
 8874POPC   C3B70581  18.490  38.529   7.050
 8874POPC   C4B70582  18.461  38.527   7.350
 8875POPC   NC370583  31.506   1.948   5.550
 8875POPC   PO470584  31.439   2.015   5.850
 8875POPC   GL170585  31.508   2.003   6.150
 8875POPC   GL270586  31.632   2.016   6.150
 8875POPC   C1A70587  31.479   1.966   6.450
 8875POPC   D2A70588  31.506   2.010   6.750
 8875POPC   C3A70589  31.453   2.032   7.050
 8875POPC   C4A70590  31.512   2.012   7.350
 8875POPC   C1B70591  31.700   2.070   6.450
 8875POPC   C2B70592  31.734   2.072   6.750
 8875POPC   C3B70593  31.668   2.070   7.050
 8875POPC   C4B70594  31.727   1.998   7.350
 8876POPC   NC370595  36.162  30.699   5.550
 8876POPC   PO470596  36.116  30.672   5.850
 8876POPC   GL170597  36.125  30.723   6.150
 8876POPC   GL270598  36.235  30.760   6.150
 8876POPC   C1A70599  36.105  30.676   6.450
 8876POPC   D2A70600  36.138  30.698   6.750
 8876POPC   C3A70601  36.078  30.661   7.050
 8876POPC   C4A70602  36.172  30.676   7.350
 8876POPC   C1B70603  36.280  30.860   6.450
 8876POPC   C2B70604  36.259  30.946   6.750
 8876POPC   C3B70605  36.264  30.924   7.050
 8876POPC   C4B70606  36.252  30.938   7.350
 8877POPC   NC370607  43.152  30.731   5.550
 8877POPC   PO470608  43.131  30.686   5.850
 8877POPC   GL170609  43.077  30.723   6.150
 8877POPC   GL270610  43.067  30.801   6.150
 8877POPC   C1A70611  43.094  30.697   6.450
 8877POPC   D2A70612  43.096  30.728   6.750
 8877POPC   C3A70613  43.121  30.725   7.050
 8877POPC   C4A70614  43.093  30.718   7.350
 8877POPC   C1B70615  42.963  30.909   6.450
 8877POPC   C2B70616  42.978  30.895   6.750
 8877POPC   C3B70617  42.960  30.894   7.050
 8877POPC   C4B70618  43.042  30.907   7.350
 8878POPC   NC370619   3.539  33.069   5.550
 8878POPC   PO470620   3.558  33.044   5.850
 8878POPC   GL170621   3.561  32.999   6.150
 8878POPC   GL270622   3.449  33.131   6.150
 8878POPC   C1A70623   3.568  32.987   6.450
 8878POPC   D2A70624   3.525  33.069   6.750
 8878POPC   C3A70625   3.549  33.037   7.050
 8878POPC   C4A70626   3.514  33.047   7.350
 8878POPC   C1B70627   3.407  33.177   6.450
 8878POPC   C2B70628   3.353  33.210   6.750
 8878POPC   C3B70629   3.332  33.185   7.050
 8878POPC   C4B70630   3.368  33.254   7.350
 8879POPC   NC370631  29.902  12.063   5.550
 8879POPC   PO470632  29.964  12.047   5.850
 8879POPC   GL170633  29.874  12.029   6.150
 8879POPC   GL270634  29.841  12.157   6.150
 8879POPC   C1A70635  29.886  12.118   6.450
 8879POPC   D2A70636  29.874  12.043   6.750
 8879POPC   C3A70637  29.931  12.111   7.050
 8879POPC   C4A70638  29.924  12.098   7.350
 8879POPC   C1B70639  29.836  12.311   6.450
 8879POPC   C2B70640  29.820  12.347   6.750
 8879POPC   C3B70641  29.778  12.319   7.050
 8879POPC   C4B70642  29.824  12.267   7.350
 8880POPC   NC370643  24.466  13.579   5.550
 8880POPC   PO470644  24.474  13.608   5.850
 8880POPC   GL170645  24.487  13.634   6.150
 8880POPC   GL270646  24.482  13.465   6.150
 8880POPC   C1A70647  24.523  13.634   6.450
 8880POPC   D2A70648  24.525  13.639   6.750
 8880POPC   C3A70649  24.445  13.588   7.050
 8880POPC   C4A70650  24.535  13.626   7.350
 8880POPC   C1B70651  24.453  13.335   6.450
 8880POPC   C2B70652  24.457  13.341   6.750
 8880POPC   C3B70653  24.450  13.376   7.050
 8880POPC   C4B70654  24.403  13.412   7.350
 8881POPC   NC370655  42.356  35.344   5.550
 8881POPC   PO470656  42.321  35.331   5.850
 8881POPC   GL170657  42.355  35.338   6.150
 8881POPC   GL270658  42.220  35.319   6.150
 8881POPC   C1A70659  42.368  35.328   6.450
 8881POPC   D2A70660  42.345  35.302   6.750
 8881POPC   C3A70661  42.325  35.358   7.050
 8881POPC   C4A70662  42.337  35.302   7.350
 8881POPC   C1B70663  42.131  35.334   6.450
 8881POPC   C2B70664  42.089  35.331   6.750
 8881POPC   C3B70665  42.095  35.318   7.050
 8881POPC   C4B70666  42.106  35.284   7.350
 8882POPC   NC370667  16.775  33.054   5.550
 8882POPC   PO470668  16.709  33.059   5.850
 8882POPC   GL170669  16.754  32.978   6.150
 8882POPC   GL270670  16.819  33.044   6.150
 8882POPC   C1A70671  16.690  33.073   6.450
 8882POPC   D2A70672  16.755  33.051   6.750
 8882POPC   C3A70673  16.732  33.039   7.050
 8882POPC   C4A70674  16.750  33.011   7.350
 8882POPC   C1B70675  16.979  33.089   6.450
 8882POPC   C2B70676  16.994  33.089   6.750
 8882POPC   C3B70677  16.970  33.083   7.050
 8882POPC   C4B70678  16.946  33.139   7.350
 8883POPC   NC370679  29.941   0.470   5.550
 8883POPC   PO470680  29.911   0.454   5.850
 8883POPC   GL170681  29.953   0.463   6.150
 8883POPC   GL270682  29.892   0.547   6.150
 8883POPC   C1A70683  29.907   0.476   6.450
 8883POPC   D2A70684  29.877   0.456   6.750
 8883POPC   C3A70685  29.948   0.479   7.050
 8883POPC   C4A70686  29.875   0.460   7.350
 8883POPC   C1B70687  29.821   0.605   6.450
 8883POPC   C2B70688  29.795   0.605   6.750
 8883POPC   C3B70689  29.772   0.671   7.050
 8883POPC   C4B70690  29.776   0.648   7.350
 8884POPC   NC370691  28.369  44.670   5.550
 8884POPC   PO470692  28.357  44.620   5.850
 8884POPC   GL170693  28.331  44.712   6.150
 8884POPC   GL270694  28.400  44.585   6.150
 8884POPC   C1A70695  28.333  44.646   6.450
 8884POPC   D2A70696  28.382  44.670   6.750
 8884POPC   C3A70697  28.365  44.710   7.050
 8884POPC   C4A70698  28.401  44.629   7.350
 8884POPC   C1B70699  28.459  44.465   6.450
 8884POPC   C2B70700  28.507  44.450   6.750
 8884POPC   C3B70701  28.493  44.464   7.050
 8884POPC   C4B70702  28.481  44.423   7.350
 8885POPC   NC370703  15.964  26.073   5.550
 8885POPC   PO470704  15.940  26.083   5.850
 8885POPC   GL170705  15.997  26.087   6.150
 8885POPC   GL270706  16.016  26.123   6.150
 8885POPC   C1A70707  15.976  26.018   6.450
 8885POPC   D2A70708  15.951  26.084   6.750
 8885POPC   C3A70709  15.926  26.072   7.050
 8885POPC   C4A70710  15.933  26.009   7.350
 8885POPC   C1B70711  16.067  26.277   6.450
 8885POPC   C2B70712  16.019  26.325   6.750
 8885POPC   C3B70713  16.058  26.311   7.050
 8885POPC   C4B70714  15.971  26.252   7.350
 8886POPC   NC370715   4.270   0.450   5.550
 8886POPC   PO470716   4.318   0.390   5.850
 8886POPC   GL170717   4.304   0.432   6.150
 8886POPC   GL270718   4.408   0.558   6.150
 8886POPC   C1A70719   4.307   0.479   6.450
 8886POPC   D2A70720   4.367   0.448   6.750
 8886POPC   C3A70721   4.324   0.453   7.050
 8886POPC   C4A70722   4.362   0.449   7.350
 8886POPC   C1B70723   4.521   0.626   6.450
 8886POPC   C2B70724   4.493   0.622   6.750
 8886POPC   C3B70725   4.460   0.610   7.050
 8886POPC   C4B70726   4.432   0.673   7.350
 8887POPC   NC370727  38.459  10.512   5.550
 8887POPC   PO470728  38.445  10.528   5.850
 8887POPC   GL170729  38.432  10.555   6.150
 8887POPC   GL270730  38.588  10.393   6.150
 8887POPC   C1A70731  38.481  10.497   6.450
 8887POPC   D2A70732  38.431  10.477   6.750
 8887POPC   C3A70733  38.430  10.474   7.050
 8887POPC   C4A70734  38.465  10.530   7.350
 8887POPC   C1B70735  38.598  10.356   6.450
 8887POPC   C2B70736  38.594  10.326   6.750
 8887POPC   C3B70737  38.668  10.324   7.050
 8887POPC   C4B70738  38.635  10.364   7.350
 8888POPC   NC370739   8.953  29.157   5.550
 8888POPC   PO470740   8.951  29.190   5.850
 8888POPC   GL170741   8.955  29.131   6.150
 8888POPC   GL270742   8.875  29.095   6.150
 8888POPC   C1A70743   8.963  29.163   6.450
 8888POPC   D2A70744   8.969  29.172   6.750
 8888POPC   C3A70745   8.931  29.180   7.050
 8888POPC   C4A70746   8.991  29.184   7.350
 8888POPC   C1B70747   8.753  29.028   6.450
 8888POPC   C2B70748   8.802  29.046   6.750
 8888POPC   C3B70749   8.770  28.979   7.050
 8888POPC   C4B70750   8.741  28.967   7.350
 8889POPC   NC370751   2.744   6.619   5.550
 8889POPC   PO470752   2.794   6.691   5.850
 8889POPC   GL170753   2.776   6.682   6.150
 8889POPC   GL270754   2.720   6.747   6.150
 8889POPC   C1A70755   2.716   6.611   6.450
 8889POPC   D2A70756   2.737   6.626   6.750
 8889POPC   C3A70757   2.791   6.688   7.050
 8889POPC   C4A70758   2.813   6.669   7.350
 8889POPC   C1B70759   2.683   6.841   6.450
 8889POPC   C2B70760   2.666   6.893   6.750
 8889POPC   C3B70761   2.701   6.839   7.050
 8889POPC   C4B70762   2.673   6.828   7.350
 8890POPC   NC370763  19.874  41.571   5.550
 8890POPC   PO470764  19.849  41.603   5.850
 8890POPC   GL170765  19.883  41.579   6.150
 8890POPC   GL270766  19.845  41.723   6.150
 8890POPC   C1A70767  19.881  41.571   6.450
 8890POPC   D2A70768  19.805  41.569   6.750
 8890POPC   C3A70769  19.874  41.605   7.050
 8890POPC   C4A70770  19.869  41.539   7.350
 8890POPC   C1B70771  19.712  41.816   6.450
 8890POPC   C2B70772  19.745  41.783   6.750
 8890POPC   C3B70773  19.728  41.795   7.050
 8890POPC   C4B70774  19.809  41.780   7.350
 8891POPC   NC370775   8.174  37.693   5.550
 8891POPC   PO470776   8.149  37.652   5.850
 8891POPC   GL170777   8.208  37.650   6.150
 8891POPC   GL270778   8.101  37.604   6.150
 8891POPC   C1A70779   8.152  37.695   6.450
 8891POPC   D2A70780   8.207  37.682   6.750
 8891POPC   C3A70781   8.180  37.722   7.050
 8891POPC   C4A70782   8.153  37.695   7.350
 8891POPC   C1B70783   8.051  37.472   6.450
 8891POPC   C2B70784   7.995  37.492   6.750
 8891POPC   C3B70785   7.964  37.492   7.050
 8891POPC   C4B70786   8.007  37.542   7.350
 8892POPC   NC370787  26.020  40.762   5.550
 8892POPC   PO470788  26.070  40.821   5.850
 8892POPC   GL170789  26.042  40.769   6.150
 8892POPC   GL270790  26.029  40.701   6.150
 8892POPC   C1A70791  26.034  40.768   6.450
 8892POPC   D2A70792  26.016  40.796   6.750
 8892POPC   C3A70793  26.012  40.832   7.050
 8892POPC   C4A70794  26.017  40.801   7.350
 8892POPC   C1B70795  26.148  40.541   6.450
 8892POPC   C2B70796  26.108  40.492   6.750
 8892POPC   C3B70797  26.129  40.498   7.050
 8892POPC   C4B70798  26.113  40.551   7.350
 8893POPC   NC370799  43.144  34.551   5.550
 8893POPC   PO470800  43.144  34.561   5.850
 8893POPC   GL170801  43.104  34.618   6.150
 8893POPC   GL270802  43.223  34.449   6.150
 8893POPC   C1A70803  43.131  34.595   6.450
 8893POPC   D2A70804  43.119  34.589   6.750
 8893POPC   C3A70805  43.130  34.545   7.050
 8893POPC   C4A70806  43.134  34.537   7.350
 8893POPC   C1B70807  43.245  34.400   6.450
 8893POPC   C2B70808  43.232  34.397   6.750
 8893POPC   C3B70809  43.278  34.357   7.050
 8893POPC   C4B70810  43.278  34.342   7.350
 8894POPC   NC370811  35.383   1.251   5.550
 8894POPC   PO470812  35.384   1.259   5.850
 8894POPC   GL170813  35.394   1.202   6.150
 8894POPC   GL270814  35.437   1.144   6.150
 8894POPC   C1A70815  35.370   1.212   6.450
 8894POPC   D2A70816  35.358   1.218   6.750
 8894POPC   C3A70817  35.360   1.253   7.050
 8894POPC   C4A70818  35.303   1.249   7.350
 8894POPC   C1B70819  35.620   1.120   6.450
 8894POPC   C2B70820  35.569   1.142   6.750
 8894POPC   C3B70821  35.567   1.110   7.050
 8894POPC   C4B70822  35.537   1.071   7.350
 8895POPC   NC370823   1.192  14.396   5.550
 8895POPC   PO470824   1.189  14.407   5.850
 8895POPC   GL170825   1.166  14.423   6.150
 8895POPC   GL270826   1.055  14.335   6.150
 8895POPC   C1A70827   1.240  14.432   6.450
 8895POPC   D2A70828   1.238  14.399   6.750
 8895POPC   C3A70829   1.174  14.364   7.050
 8895POPC   C4A70830   1.239  14.381   7.350
 8895POPC   C1B70831   0.983  14.383   6.450
 8895POPC   C2B70832   0.973  14.355   6.750
 8895POPC   C3B70833   0.990  14.407   7.050
 8895POPC   C4B70834   0.946  14.367   7.350
 8896POPC   NC370835  27.591  37.675   5.550
 8896POPC   PO470836  27.581  37.693   5.850
 8896POPC   GL170837  27.544  37.681   6.150
 8896POPC   GL270838  27.660  37.786   6.150
 8896POPC   C1A70839  27.614  37.705   6.450
 8896POPC   D2A70840  27.543  37.721   6.750
 8896POPC   C3A70841  27.587  37.659   7.050
 8896POPC   C4A70842  27.561  37.706   7.350
 8896POPC   C1B70843  27.687  37.883   6.450
 8896POPC   C2B70844  27.616  37.905   6.750
 8896POPC   C3B70845  27.622  37.923   7.050
 8896POPC   C4B70846  27.693  37.892   7.350
 8897POPC   NC370847   5.827  12.874   5.550
 8897POPC   PO470848   5.905  12.803   5.850
 8897POPC   GL170849   5.918  12.843   6.150
 8897POPC   GL270850   5.839  12.778   6.150
 8897POPC   C1A70851   5.900  12.874   6.450
 8897POPC   D2A70852   5.882  12.829   6.750
 8897POPC   C3A70853   5.861  12.802   7.050
 8897POPC   C4A70854   5.823  12.819   7.350
 8897POPC   C1B70855   5.820  12.641   6.450
 8897POPC   C2B70856   5.802  12.601   6.750
 8897POPC   C3B70857   5.834  12.581   7.050
 8897POPC   C4B70858   5.748  12.628   7.350
 8898POPC   NC370859  15.969  39.216   5.550
 8898POPC   PO470860  15.935  39.185   5.850
 8898POPC   GL170861  15.997  39.223   6.150
 8898POPC   GL270862  16.029  39.380   6.150
 8898POPC   C1A70863  15.942  39.260   6.450
 8898POPC   D2A70864  15.984  39.205   6.750
 8898POPC   C3A70865  15.930  39.243   7.050
 8898POPC   C4A70866  15.956  39.274   7.350
 8898POPC   C1B70867  16.087  39.493   6.450
 8898POPC   C2B70868  16.043  39.441   6.750
 8898POPC   C3B70869  16.123  39.487   7.050
 8898POPC   C4B70870  16.096  39.399   7.350
 8899POPC   NC370871  36.903  34.622   5.550
 8899POPC   PO470872  36.880  34.600   5.850
 8899POPC   GL170873  36.938  34.535   6.150
 8899POPC   GL270874  36.941  34.656   6.150
 8899POPC   C1A70875  36.882  34.586   6.450
 8899POPC   D2A70876  36.946  34.570   6.750
 8899POPC   C3A70877  36.907  34.534   7.050
 8899POPC   C4A70878  36.923  34.601   7.350
 8899POPC   C1B70879  37.076  34.790   6.450
 8899POPC   C2B70880  37.037  34.749   6.750
 8899POPC   C3B70881  37.039  34.781   7.050
 8899POPC   C4B70882  36.994  34.835   7.350
 8900POPC   NC370883  18.248  30.657   5.550
 8900POPC   PO470884  18.295  30.671   5.850
 8900POPC   GL170885  18.327  30.738   6.150
 8900POPC   GL270886  18.123  30.668   6.150
 8900POPC   C1A70887  18.299  30.712   6.450
 8900POPC   D2A70888  18.320  30.728   6.750
 8900POPC   C3A70889  18.250  30.736   7.050
 8900POPC   C4A70890  18.269  30.695   7.350
 8900POPC   C1B70891  17.988  30.675   6.450
 8900POPC   C2B70892  18.051  30.632   6.750
 8900POPC   C3B70893  18.062  30.678   7.050
 8900POPC   C4B70894  18.078  30.644   7.350
 8901POPC   NC370895   9.701  25.248   5.550
 8901POPC   PO470896   9.719  25.252   5.850
 8901POPC   GL170897   9.798  25.303   6.150
 8901POPC   GL270898   9.852  25.304   6.150
 8901POPC   C1A70899   9.733  25.247   6.450
 8901POPC   D2A70900   9.728  25.263   6.750
 8901POPC   C3A70901   9.762  25.267   7.050
 8901POPC   C4A70902   9.758  25.295   7.350
 8901POPC   C1B70903  10.028  25.335   6.450
 8901POPC   C2B70904   9.996  25.359   6.750
 8901POPC   C3B70905   9.941  25.339   7.050
 8901POPC   C4B70906   9.981  25.384   7.350
 8902POPC   NC370907  33.797  33.780   5.550
 8902POPC   PO470908  33.792  33.845   5.850
 8902POPC   GL170909  33.823  33.775   6.150
 8902POPC   GL270910  33.720  33.854   6.150
 8902POPC   C1A70911  33.758  33.822   6.450
 8902POPC   D2A70912  33.779  33.768   6.750
 8902POPC   C3A70913  33.776  33.819   7.050
 8902POPC   C4A70914  33.817  33.787   7.350
 8902POPC   C1B70915  33.543  33.919   6.450
 8902POPC   C2B70916  33.583  33.946   6.750
 8902POPC   C3B70917  33.527  33.902   7.050
 8902POPC   C4B70918  33.575  33.904   7.350
 8903POPC   NC370919  34.575  22.167   5.550
 8903POPC   PO470920  34.556  22.144   5.850
 8903POPC   GL170921  34.597  22.177   6.150
 8903POPC   GL270922  34.553  22.021   6.150
 8903POPC   C1A70923  34.611  22.173   6.450
 8903POPC   D2A70924  34.532  22.199   6.750
 8903POPC   C3A70925  34.621  22.170   7.050
 8903POPC   C4A70926  34.529  22.208   7.350
 8903POPC   C1B70927  34.614  21.882   6.450
 8903POPC   C2B70928  34.599  21.949   6.750
 8903POPC   C3B70929  34.592  21.908   7.050
 8903POPC   C4B70930  34.562  21.886   7.350
 8904POPC   NC370931  17.502   6.614   5.550
 8904POPC   PO470932  17.485   6.666   5.850
 8904POPC   GL170933  17.461   6.611   6.150
 8904POPC   GL270934  17.568   6.675   6.150
 8904POPC   C1A70935  17.469   6.604   6.450
 8904POPC   D2A70936  17.508   6.645   6.750
 8904POPC   C3A70937  17.472   6.681   7.050
 8904POPC   C4A70938  17.483   6.645   7.350
 8904POPC   C1B70939  17.693   6.752   6.450
 8904POPC   C2B70940  17.749   6.810   6.750
 8904POPC   C3B70941  17.687   6.750   7.050
 8904POPC   C4B70942  17.737   6.829   7.350
 8905POPC   NC370943   0.418  44.709   5.550
 8905POPC   PO470944   0.403  44.628   5.850
 8905POPC   GL170945   0.474  44.636   6.150
 8905POPC   GL270946   0.504  44.761   6.150
 8905POPC   C1A70947   0.405  44.632   6.450
 8905POPC   D2A70948   0.458  44.678   6.750
 8905POPC   C3A70949   0.399  44.631   7.050
 8905POPC   C4A70950   0.421  44.637   7.350
 8905POPC   C1B70951   0.524  44.929   6.450
 8905POPC   C2B70952   0.582  44.874   6.750
 8905POPC   C3B70953   0.517  44.874   7.050
 8905POPC   C4B70954   0.505  44.855   7.350
 8906POPC   NC370955  25.279  27.587   5.550
 8906POPC   PO470956  25.236  27.595   5.850
 8906POPC   GL170957  25.242  27.556   6.150
 8906POPC   GL270958  25.411  27.644   6.150
 8906POPC   C1A70959  25.280  27.545   6.450
 8906POPC   D2A70960  25.312  27.618   6.750
 8906POPC   C3A70961  25.294  27.549   7.050
 8906POPC   C4A70962  25.271  27.591   7.350
 8906POPC   C1B70963  25.488  27.600   6.450
 8906POPC   C2B70964  25.498  27.576   6.750
 8906POPC   C3B70965  25.502  27.587   7.050
 8906POPC   C4B70966  25.473  27.604   7.350
 8907POPC   NC370967  39.279  21.338   5.550
 8907POPC   PO470968  39.267  21.406   5.850
 8907POPC   GL170969  39.192  21.369   6.150
 8907POPC   GL270970  39.264  21.292   6.150
 8907POPC   C1A70971  39.251  21.367   6.450
 8907POPC   D2A70972  39.242  21.364   6.750
 8907POPC   C3A70973  39.263  21.380   7.050
 8907POPC   C4A70974  39.202  21.376   7.350
 8907POPC   C1B70975  39.393  21.125   6.450
 8907POPC   C2B70976  39.397  21.179   6.750
 8907POPC   C3B70977  39.368  21.159   7.050
 8907POPC   C4B70978  39.311  21.142   7.350
 8908POPC   NC370979  43.084  25.249   5.550
 8908POPC   PO470980  43.121  25.217   5.850
 8908POPC   GL170981  43.108  25.305   6.150
 8908POPC   GL270982  43.114  25.387   6.150
 8908POPC   C1A70983  43.138  25.238   6.450
 8908POPC   D2A70984  43.089  25.257   6.750
 8908POPC   C3A70985  43.090  25.291   7.050
 8908POPC   C4A70986  43.140  25.305   7.350
 8908POPC   C1B70987  43.086  25.481   6.450
 8908POPC   C2B70988  43.060  25.539   6.750
 8908POPC   C3B70989  43.087  25.472   7.050
 8908POPC   C4B70990  42.998  25.527   7.350
 8909POPC   NC370991  40.041  16.707   5.550
 8909POPC   PO470992  40.032  16.708   5.850
 8909POPC   GL170993  40.032  16.779   6.150
 8909POPC   GL270994  40.064  16.776   6.150
 8909POPC   C1A70995  40.028  16.736   6.450
 8909POPC   D2A70996  39.958  16.704   6.750
 8909POPC   C3A70997  40.038  16.721   7.050
 8909POPC   C4A70998  40.037  16.758   7.350
 8909POPC   C1B70999  40.225  16.921   6.450
 8909POPC   C2B71000  40.166  16.835   6.750
 8909POPC   C3B71001  40.199  16.892   7.050
 8909POPC   C4B71002  40.183  16.857   7.350
 8910POPC   NC371003  23.751  22.148   5.550
 8910POPC   PO471004  23.730  22.160   5.850
 8910POPC   GL171005  23.744  22.113   6.150
 8910POPC   GL271006  23.782  22.262   6.150
 8910POPC   C1A71007  23.685  22.197   6.450
 8910POPC   D2A71008  23.756  22.118   6.750
 8910POPC   C3A71009  23.745  22.188   7.050
 8910POPC   C4A71010  23.758  22.129   7.350
 8910POPC   C1B71011  23.853  22.394   6.450
 8910POPC   C2B71012  23.783  22.422   6.750
 8910POPC   C3B71013  23.760  22.400   7.050
 8910POPC   C4B71014  23.808  22.416   7.350
 8911POPC   NC371015  26.013  26.048   5.550
 8911POPC   PO471016  26.001  26.007   5.850
 8911POPC   GL171017  26.043  26.028   6.150
 8911POPC   GL271018  26.028  25.897   6.150
 8911POPC   C1A71019  25.999  26.031   6.450
 8911POPC   D2A71020  25.996  26.021   6.750
 8911POPC   C3A71021  26.050  26.009   7.050
 8911POPC   C4A71022  26.046  26.057   7.350
 8911POPC   C1B71023  26.080  25.812   6.450
 8911POPC   C2B71024  26.068  25.809   6.750
 8911POPC   C3B71025  26.033  25.774   7.050
 8911POPC   C4B71026  26.047  25.807   7.350
 8912POPC   NC371027  39.990  33.788   5.550
 8912POPC   PO471028  39.985  33.755   5.850
 8912POPC   GL171029  39.978  33.808   6.150
 8912POPC   GL271030  39.925  33.828   6.150
 8912POPC   C1A71031  40.007  33.777   6.450
 8912POPC   D2A71032  40.009  33.832   6.750
 8912POPC   C3A71033  40.052  33.780   7.050
 8912POPC   C4A71034  39.963  33.791   7.350
 8912POPC   C1B71035  39.818  33.990   6.450
 8912POPC   C2B71036  39.779  33.926   6.750
 8912POPC   C3B71037  39.796  33.988   7.050
 8912POPC   C4B71038  39.833  33.975   7.350
 8913POPC   NC371039  29.957   5.915   5.550
 8913POPC   PO471040  29.897   5.835   5.850
 8913POPC   GL171041  29.904   5.823   6.150
 8913POPC   GL271042  29.779   5.912   6.150
 8913POPC   C1A71043  29.873   5.918   6.450
 8913POPC   D2A71044  29.959   5.911   6.750
 8913POPC   C3A71045  29.880   5.841   7.050
 8913POPC   C4A71046  29.903   5.839   7.350
 8913POPC   C1B71047  29.716   5.869   6.450
 8913POPC   C2B71048  29.625   5.836   6.750
 8913POPC   C3B71049  29.638   5.859   7.050
 8913POPC   C4B71050  29.624   5.839   7.350
 8914POPC   NC371051   6.682   5.898   5.550
 8914POPC   PO471052   6.615   5.833   5.850
 8914POPC   GL171053   6.683   5.853   6.150
 8914POPC   GL271054   6.471   5.833   6.150
 8914POPC   C1A71055   6.658   5.865   6.450
 8914POPC   D2A71056   6.685   5.838   6.750
 8914POPC   C3A71057   6.683   5.896   7.050
 8914POPC   C4A71058   6.650   5.911   7.350
 8914POPC   C1B71059   6.436   5.816   6.450
 8914POPC   C2B71060   6.372   5.835   6.750
 8914POPC   C3B71061   6.390   5.804   7.050
 8914POPC   C4B71062   6.439   5.854   7.350
 8915POPC   NC371063  32.205  30.655   5.550
 8915POPC   PO471064  32.215  30.717   5.850
 8915POPC   GL171065  32.211  30.689   6.150
 8915POPC   GL271066  32.340  30.775   6.150
 8915POPC   C1A71067  32.284  30.707   6.450
 8915POPC   D2A71068  32.256  30.662   6.750
 8915POPC   C3A71069  32.218  30.661   7.050
 8915POPC   C4A71070  32.239  30.672   7.350
 8915POPC   C1B71071  32.443  30.883   6.450
 8915POPC   C2B71072  32.428  30.863   6.750
 8915POPC   C3B71073  32.435  30.837   7.050
 8915POPC   C4B71074  32.427  30.849   7.350
 8916POPC   NC371075  35.379  19.091   5.550
 8916POPC   PO471076  35.340  19.069   5.850
 8916POPC   GL171077  35.345  19.047   6.150
 8916POPC   GL271078  35.436  19.082   6.150
 8916POPC   C1A71079  35.362  19.091   6.450
 8916POPC   D2A71080  35.372  19.087   6.750
 8916POPC   C3A71081  35.326  19.103   7.050
 8916POPC   C4A71082  35.306  19.083   7.350
 8916POPC   C1B71083  35.624  19.181   6.450
 8916POPC   C2B71084  35.567  19.130   6.750
 8916POPC   C3B71085  35.625  19.183   7.050
 8916POPC   C4B71086  35.551  19.180   7.350
 8917POPC   NC371087   9.019  26.065   5.550
 8917POPC   PO471088   8.958  26.048   5.850
 8917POPC   GL171089   9.011  26.082   6.150
 8917POPC   GL271090   9.031  25.941   6.150
 8917POPC   C1A71091   8.927  25.992   6.450
 8917POPC   D2A71092   8.931  26.021   6.750
 8917POPC   C3A71093   8.984  26.056   7.050
 8917POPC   C4A71094   8.977  26.042   7.350
 8917POPC   C1B71095   9.196  25.873   6.450
 8917POPC   C2B71096   9.169  25.910   6.750
 8917POPC   C3B71097   9.200  25.904   7.050
 8917POPC   C4B71098   9.191  25.904   7.350
 8918POPC   NC371099   3.530   9.726   5.550
 8918POPC   PO471100   3.496   9.725   5.850
 8918POPC   GL171101   3.554   9.773   6.150
 8918POPC   GL271102   3.640   9.804   6.150
 8918POPC   C1A71103   3.533   9.777   6.450
 8918POPC   D2A71104   3.547   9.765   6.750
 8918POPC   C3A71105   3.542   9.719   7.050
 8918POPC   C4A71106   3.524   9.735   7.350
 8918POPC   C1B71107   3.795   9.796   6.450
 8918POPC   C2B71108   3.751   9.802   6.750
 8918POPC   C3B71109   3.759   9.858   7.050
 8918POPC   C4B71110   3.750   9.859   7.350
 8919POPC   NC371111  30.746  30.665   5.550
 8919POPC   PO471112  30.696  30.663   5.850
 8919POPC   GL171113  30.737  30.737   6.150
 8919POPC   GL271114  30.588  30.640   6.150
 8919POPC   C1A71115  30.698  30.669   6.450
 8919POPC   D2A71116  30.656  30.741   6.750
 8919POPC   C3A71117  30.721  30.739   7.050
 8919POPC   C4A71118  30.696  30.732   7.350
 8919POPC   C1B71119  30.524  30.518   6.450
 8919POPC   C2B71120  30.525  30.453   6.750
 8919POPC   C3B71121  30.558  30.446   7.050
 8919POPC   C4B71122  30.552  30.458   7.350
 8920POPC   NC371123  37.662   9.778   5.550
 8920POPC   PO471124  37.725   9.739   5.850
 8920POPC   GL171125  37.698   9.710   6.150
 8920POPC   GL271126  37.545   9.788   6.150
 8920POPC   C1A71127  37.654   9.736   6.450
 8920POPC   D2A71128  37.717   9.704   6.750
 8920POPC   C3A71129  37.659   9.777   7.050
 8920POPC   C4A71130  37.686   9.711   7.350
 8920POPC   C1B71131  37.432   9.850   6.450
 8920POPC   C2B71132  37.474   9.780   6.750
 8920POPC   C3B71133  37.457   9.779   7.050
 8920POPC   C4B71134  37.415   9.825   7.350
 8921POPC   NC371135  35.398  29.143   5.550
 8921POPC   PO471136  35.350  29.124   5.850
 8921POPC   GL171137  35.363  29.108   6.150
 8921POPC   GL271138  35.463  29.230   6.150
 8921POPC   C1A71139  35.314  29.122   6.450
 8921POPC   D2A71140  35.320  29.142   6.750
 8921POPC   C3A71141  35.361  29.182   7.050
 8921POPC   C4A71142  35.355  29.151   7.350
 8921POPC   C1B71143  35.497  29.344   6.450
 8921POPC   C2B71144  35.555  29.349   6.750
 8921POPC   C3B71145  35.497  29.322   7.050
 8921POPC   C4B71146  35.495  29.267   7.350
 8922POPC   NC371147  43.855  36.855   5.550
 8922POPC   PO471148  43.874  36.937   5.850
 8922POPC   GL171149  43.853  36.930   6.150
 8922POPC   GL271150  43.984  36.903   6.150
 8922POPC   C1A71151  43.891  36.875   6.450
 8922POPC   D2A71152  43.929  36.856   6.750
 8922POPC   C3A71153  43.843  36.865   7.050
 8922POPC   C4A71154  43.859  36.931   7.350
 8922POPC   C1B71155  44.083  36.861   6.450
 8922POPC   C2B71156  44.084  36.803   6.750
 8922POPC   C3B71157  44.179  36.883   7.050
 8922POPC   C4B71158  44.089  36.846   7.350
 8923POPC   NC371159  15.159  14.445   5.550
 8923POPC   PO471160  15.196  14.354   5.850
 8923POPC   GL171161  15.138  14.397   6.150
 8923POPC   GL271162  15.128  14.494   6.150
 8923POPC   C1A71163  15.130  14.363   6.450
 8923POPC   D2A71164  15.193  14.412   6.750
 8923POPC   C3A71165  15.222  14.400   7.050
 8923POPC   C4A71166  15.211  14.402   7.350
 8923POPC   C1B71167  14.972  14.581   6.450
 8923POPC   C2B71168  14.974  14.592   6.750
 8923POPC   C3B71169  15.014  14.546   7.050
 8923POPC   C4B71170  15.032  14.544   7.350
 8924POPC   NC371171  26.771  27.558   5.550
 8924POPC   PO471172  26.819  27.578   5.850
 8924POPC   GL171173  26.795  27.550   6.150
 8924POPC   GL271174  26.859  27.711   6.150
 8924POPC   C1A71175  26.847  27.570   6.450
 8924POPC   D2A71176  26.815  27.621   6.750
 8924POPC   C3A71177  26.864  27.566   7.050
 8924POPC   C4A71178  26.821  27.549   7.350
 8924POPC   C1B71179  26.889  27.828   6.450
 8924POPC   C2B71180  26.935  27.804   6.750
 8924POPC   C3B71181  26.949  27.841   7.050
 8924POPC   C4B71182  26.892  27.849   7.350
 8925POPC   NC371183  18.309  29.890   5.550
 8925POPC   PO471184  18.325  29.913   5.850
 8925POPC   GL171185  18.272  29.886   6.150
 8925POPC   GL271186  18.240  30.002   6.150
 8925POPC   C1A71187  18.273  29.905   6.450
 8925POPC   D2A71188  18.236  29.900   6.750
 8925POPC   C3A71189  18.305  29.969   7.050
 8925POPC   C4A71190  18.328  29.959   7.350
 8925POPC   C1B71191  18.204  30.152   6.450
 8925POPC   C2B71192  18.286  30.170   6.750
 8925POPC   C3B71193  18.201  30.128   7.050
 8925POPC   C4B71194  18.227  30.188   7.350
 8926POPC   NC371195  16.740   1.192   5.550
 8926POPC   PO471196  16.713   1.226   5.850
 8926POPC   GL171197  16.697   1.171   6.150
 8926POPC   GL271198  16.685   1.318   6.150
 8926POPC   C1A71199  16.721   1.170   6.450
 8926POPC   D2A71200  16.714   1.235   6.750
 8926POPC   C3A71201  16.741   1.232   7.050
 8926POPC   C4A71202  16.719   1.194   7.350
 8926POPC   C1B71203  16.520   1.401   6.450
 8926POPC   C2B71204  16.540   1.429   6.750
 8926POPC   C3B71205  16.517   1.432   7.050
 8926POPC   C4B71206  16.552   1.370   7.350
 8927POPC   NC371207  40.034   2.003   5.550
 8927POPC   PO471208  39.968   1.982   5.850
 8927POPC   GL171209  39.992   2.034   6.150
 8927POPC   GL271210  40.128   1.914   6.150
 8927POPC   C1A71211  39.957   1.995   6.450
 8927POPC   D2A71212  40.048   2.012   6.750
 8927POPC   C3A71213  39.986   2.033   7.050
 8927POPC   C4A71214  39.981   1.960   7.350
 8927POPC   C1B71215  40.177   1.768   6.450
 8927POPC   C2B71216  40.169   1.815   6.750
 8927POPC   C3B71217  40.163   1.788   7.050
 8927POPC   C4B71218  40.180   1.834   7.350
 8928POPC   NC371219   2.762  42.310   5.550
 8928POPC   PO471220   2.782  42.381   5.850
 8928POPC   GL171221   2.726  42.335   6.150
 8928POPC   GL271222   2.696  42.228   6.150
 8928POPC   C1A71223   2.782  42.383   6.450
 8928POPC   D2A71224   2.726  42.374   6.750
 8928POPC   C3A71225   2.748  42.309   7.050
 8928POPC   C4A71226   2.763  42.361   7.350
 8928POPC   C1B71227   2.600  42.191   6.450
 8928POPC   C2B71228   2.560  42.187   6.750
 8928POPC   C3B71229   2.558  42.154   7.050
 8928POPC   C4B71230   2.579  42.201   7.350
 8929POPC   NC371231  37.713  34.548   5.550
 8929POPC   PO471232  37.695  34.597   5.850
 8929POPC   GL171233  37.633  34.561   6.150
 8929POPC   GL271234  37.653  34.453   6.150
 8929POPC   C1A71235  37.699  34.603   6.450
 8929POPC   D2A71236  37.629  34.544   6.750
 8929POPC   C3A71237  37.687  34.608   7.050
 8929POPC   C4A71238  37.666  34.537   7.350
 8929POPC   C1B71239  37.577  34.406   6.450
 8929POPC   C2B71240  37.539  34.319   6.750
 8929POPC   C3B71241  37.579  34.310   7.050
 8929POPC   C4B71242  37.598  34.382   7.350
 8930POPC   NC371243  22.898  29.188   5.550
 8930POPC   PO471244  22.967  29.145   5.850
 8930POPC   GL171245  22.954  29.172   6.150
 8930POPC   GL271246  22.855  29.280   6.150
 8930POPC   C1A71247  22.936  29.177   6.450
 8930POPC   D2A71248  22.928  29.179   6.750
 8930POPC   C3A71249  22.958  29.171   7.050
 8930POPC   C4A71250  22.935  29.096   7.350
 8930POPC   C1B71251  22.837  29.388   6.450
 8930POPC   C2B71252  22.817  29.409   6.750
 8930POPC   C3B71253  22.837  29.362   7.050
 8930POPC   C4B71254  22.778  29.373   7.350
 8931POPC   NC371255  44.660  33.783   5.550
 8931POPC   PO471256  44.613  33.810   5.850
 8931POPC   GL171257  44.672  33.773   6.150
 8931POPC   GL271258  44.578  33.821   6.150
 8931POPC   C1A71259  44.706  33.795   6.450
 8931POPC   D2A71260  44.660  33.837   6.750
 8931POPC   C3A71261  44.652  33.816   7.050
 8931POPC   C4A71262  44.667  33.814   7.350
 8931POPC   C1B71263  44.400  33.771   6.450
 8931POPC   C2B71264  44.437  33.775   6.750
 8931POPC   C3B71265  44.392  33.819   7.050
 8931POPC   C4B71266  44.364  33.832   7.350
 8932POPC   NC371267  19.824  36.136   5.550
 8932POPC   PO471268  19.872  36.088   5.850
 8932POPC   GL171269  19.839  36.136   6.150
 8932POPC   GL271270  19.914  35.985   6.150
 8932POPC   C1A71271  19.814  36.154   6.450
 8932POPC   D2A71272  19.822  36.130   6.750
 8932POPC   C3A71273  19.865  36.172   7.050
 8932POPC   C4A71274  19.841  36.172   7.350
 8932POPC   C1B71275  19.934  35.905   6.450
 8932POPC   C2B71276  19.954  35.865   6.750
 8932POPC   C3B71277  19.950  35.857   7.050
 8932POPC   C4B71278  19.893  35.906   7.350
 8933POPC   NC371279  39.275  25.292   5.550
 8933POPC   PO471280  39.278  25.238   5.850
 8933POPC   GL171281  39.208  25.224   6.150
 8933POPC   GL271282  39.153  25.111   6.150
 8933POPC   C1A71283  39.262  25.231   6.450
 8933POPC   D2A71284  39.184  25.294   6.750
 8933POPC   C3A71285  39.253  25.260   7.050
 8933POPC   C4A71286  39.271  25.289   7.350
 8933POPC   C1B71287  39.117  25.064   6.450
 8933POPC   C2B71288  39.122  24.998   6.750
 8933POPC   C3B71289  39.175  24.979   7.050
 8933POPC   C4B71290  39.140  24.986   7.350
 8934POPC   NC371291   5.142  32.267   5.550
 8934POPC   PO471292   5.101  32.280   5.850
 8934POPC   GL171293   5.108  32.262   6.150
 8934POPC   GL271294   5.216  32.229   6.150
 8934POPC   C1A71295   5.137  32.257   6.450
 8934POPC   D2A71296   5.096  32.212   6.750
 8934POPC   C3A71297   5.113  32.205   7.050
 8934POPC   C4A71298   5.047  32.245   7.350
 8934POPC   C1B71299   5.352  32.130   6.450
 8934POPC   C2B71300   5.328  32.223   6.750
 8934POPC   C3B71301   5.324  32.216   7.050
 8934POPC   C4B71302   5.374  32.162   7.350
 8935POPC   NC371303   8.181  14.401   5.550
 8935POPC   PO471304   8.176  14.382   5.850
 8935POPC   GL171305   8.154  14.369   6.150
 8935POPC   GL271306   8.111  14.373   6.150
 8935POPC   C1A71307   8.195  14.413   6.450
 8935POPC   D2A71308   8.230  14.447   6.750
 8935POPC   C3A71309   8.191  14.389   7.050
 8935POPC   C4A71310   8.187  14.368   7.350
 8935POPC   C1B71311   7.982  14.257   6.450
 8935POPC   C2B71312   7.972  14.272   6.750
 8935POPC   C3B71313   7.985  14.236   7.050
 8935POPC   C4B71314   7.997  14.252   7.350
 8936POPC   NC371315  20.585  17.534   5.550
 8936POPC   PO471316  20.577  17.485   5.850
 8936POPC   GL171317  20.632  17.480   6.150
 8936POPC   GL271318  20.481  17.515   6.150
 8936POPC   C1A71319  20.613  17.481   6.450
 8936POPC   D2A71320  20.639  17.518   6.750
 8936POPC   C3A71321  20.624  17.493   7.050
 8936POPC   C4A71322  20.638  17.486   7.350
 8936POPC   C1B71323  20.396  17.565   6.450
 8936POPC   C2B71324  20.349  17.526   6.750
 8936POPC   C3B71325  20.403  17.529   7.050
 8936POPC   C4B71326  20.345  17.535   7.350
 8937POPC   NC371327  12.841  26.014   5.550
 8937POPC   PO471328  12.824  26.065   5.850
 8937POPC   GL171329  12.862  26.091   6.150
 8937POPC   GL271330  12.873  25.947   6.150
 8937POPC   C1A71331  12.902  26.083   6.450
 8937POPC   D2A71332  12.857  26.050   6.750
 8937POPC   C3A71333  12.880  26.070   7.050
 8937POPC   C4A71334  12.869  26.087   7.350
 8937POPC   C1B71335  12.823  25.792   6.450
 8937POPC   C2B71336  12.811  25.770   6.750
 8937POPC   C3B71337  12.874  25.813   7.050
 8937POPC   C4B71338  12.902  25.810   7.350
 8938POPC   NC371339   4.311   4.350   5.550
 8938POPC   PO471340   4.282   4.279   5.850
 8938POPC   GL171341   4.279   4.313   6.150
 8938POPC   GL271342   4.264   4.230   6.150
 8938POPC   C1A71343   4.281   4.301   6.450
 8938POPC   D2A71344   4.311   4.316   6.750
 8938POPC   C3A71345   4.274   4.336   7.050
 8938POPC   C4A71346   4.289   4.296   7.350
 8938POPC   C1B71347   4.066   4.207   6.450
 8938POPC   C2B71348   4.133   4.200   6.750
 8938POPC   C3B71349   4.124   4.178   7.050
 8938POPC   C4B71350   4.136   4.140   7.350
 8939POPC   NC371351   4.277  38.504   5.550
 8939POPC   PO471352   4.287  38.430   5.850
 8939POPC   GL171353   4.286  38.410   6.150
 8939POPC   GL271354   4.419  38.405   6.150
 8939POPC   C1A71355   4.366  38.430   6.450
 8939POPC   D2A71356   4.283  38.406   6.750
 8939POPC   C3A71357   4.304  38.442   7.050
 8939POPC   C4A71358   4.293  38.408   7.350
 8939POPC   C1B71359   4.567  38.393   6.450
 8939POPC   C2B71360   4.555  38.365   6.750
 8939POPC   C3B71361   4.561  38.392   7.050
 8939POPC   C4B71362   4.522  38.387   7.350
 8940POPC   NC371363   4.337  21.336   5.550
 8940POPC   PO471364   4.268  21.359   5.850
 8940POPC   GL171365   4.281  21.421   6.150
 8940POPC   GL271366   4.408  21.511   6.150
 8940POPC   C1A71367   4.329  21.359   6.450
 8940POPC   D2A71368   4.334  21.349   6.750
 8940POPC   C3A71369   4.302  21.339   7.050
 8940POPC   C4A71370   4.291  21.410   7.350
 8940POPC   C1B71371   4.474  21.583   6.450
 8940POPC   C2B71372   4.506  21.603   6.750
 8940POPC   C3B71373   4.451  21.578   7.050
 8940POPC   C4B71374   4.492  21.578   7.350
 8941POPC   NC371375  43.865  25.996   5.550
 8941POPC   PO471376  43.854  25.997   5.850
 8941POPC   GL171377  43.902  26.070   6.150
 8941POPC   GL271378  43.829  25.933   6.150
 8941POPC   C1A71379  43.872  26.052   6.450
 8941POPC   D2A71380  43.912  26.075   6.750
 8941POPC   C3A71381  43.885  26.056   7.050
 8941POPC   C4A71382  43.900  25.993   7.350
 8941POPC   C1B71383  43.718  25.826   6.450
 8941POPC   C2B71384  43.736  25.833   6.750
 8941POPC   C3B71385  43.744  25.852   7.050
 8941POPC   C4B71386  43.720  25.798   7.350
 8942POPC   NC371387  29.934   5.134   5.550
 8942POPC   PO471388  29.919   5.132   5.850
 8942POPC   GL171389  29.888   5.132   6.150
 8942POPC   GL271390  30.038   5.115   6.150
 8942POPC   C1A71391  29.938   5.066   6.450
 8942POPC   D2A71392  29.899   5.076   6.750
 8942POPC   C3A71393  29.883   5.143   7.050
 8942POPC   C4A71394  29.955   5.112   7.350
 8942POPC   C1B71395  30.183   5.140   6.450
 8942POPC   C2B71396  30.178   5.184   6.750
 8942POPC   C3B71397  30.184   5.201   7.050
 8942POPC   C4B71398  30.130   5.106   7.350
 8943POPC   NC371399  36.917  27.628   5.550
 8943POPC   PO471400  36.935  27.550   5.850
 8943POPC   GL171401  36.903  27.612   6.150
 8943POPC   GL271402  36.794  27.579   6.150
 8943POPC   C1A71403  36.931  27.555   6.450
 8943POPC   D2A71404  36.922  27.575   6.750
 8943POPC   C3A71405  36.858  27.593   7.050
 8943POPC   C4A71406  36.872  27.621   7.350
 8943POPC   C1B71407  36.680  27.561   6.450
 8943POPC   C2B71408  36.670  27.563   6.750
 8943POPC   C3B71409  36.613  27.608   7.050
 8943POPC   C4B71410  36.694  27.632   7.350
 8944POPC   NC371411  15.229  39.994   5.550
 8944POPC   PO471412  15.223  40.054   5.850
 8944POPC   GL171413  15.207  40.001   6.150
 8944POPC   GL271414  15.232  39.875   6.150
 8944POPC   C1A71415  15.142  40.002   6.450
 8944POPC   D2A71416  15.142  40.007   6.750
 8944POPC   C3A71417  15.165  39.987   7.050
 8944POPC   C4A71418  15.158  40.021   7.350
 8944POPC   C1B71419  15.354  39.785   6.450
 8944POPC   C2B71420  15.304  39.837   6.750
 8944POPC   C3B71421  15.333  39.812   7.050
 8944POPC   C4B71422  15.302  39.841   7.350
 8945POPC   NC371423  24.469   0.446   5.550
 8945POPC   PO471424  24.511   0.445   5.850
 8945POPC   GL171425  24.440   0.457   6.150
 8945POPC   GL271426  24.572   0.531   6.150
 8945POPC   C1A71427  24.464   0.455   6.450
 8945POPC   D2A71428  24.498   0.478   6.750
 8945POPC   C3A71429  24.507   0.486   7.050
 8945POPC   C4A71430  24.479   0.474   7.350
 8945POPC   C1B71431  24.668   0.632   6.450
 8945POPC   C2B71432  24.590   0.616   6.750
 8945POPC   C3B71433  24.610   0.653   7.050
 8945POPC   C4B71434  24.589   0.681   7.350
 8946POPC   NC371435  41.601  27.603   5.550
 8946POPC   PO471436  41.524  27.632   5.850
 8946POPC   GL171437  41.542  27.622   6.150
 8946POPC   GL271438  41.670  27.589   6.150
 8946POPC   C1A71439  41.607  27.562   6.450
 8946POPC   D2A71440  41.589  27.574   6.750
 8946POPC   C3A71441  41.598  27.584   7.050
 8946POPC   C4A71442  41.539  27.619   7.350
 8946POPC   C1B71443  41.856  27.591   6.450
 8946POPC   C2B71444  41.809  27.560   6.750
 8946POPC   C3B71445  41.837  27.603   7.050
 8946POPC   C4B71446  41.834  27.569   7.350
 8947POPC   NC371447  39.183  26.861   5.550
 8947POPC   PO471448  39.244  26.814   5.850
 8947POPC   GL171449  39.214  26.806   6.150
 8947POPC   GL271450  39.199  26.735   6.150
 8947POPC   C1A71451  39.245  26.801   6.450
 8947POPC   D2A71452  39.247  26.770   6.750
 8947POPC   C3A71453  39.229  26.863   7.050
 8947POPC   C4A71454  39.265  26.867   7.350
 8947POPC   C1B71455  39.190  26.618   6.450
 8947POPC   C2B71456  39.192  26.618   6.750
 8947POPC   C3B71457  39.169  26.576   7.050
 8947POPC   C4B71458  39.200  26.557   7.350
 8948POPC   NC371459   0.480  26.085   5.550
 8948POPC   PO471460   0.430  26.036   5.850
 8948POPC   GL171461   0.480  26.078   6.150
 8948POPC   GL271462   0.399  25.902   6.150
 8948POPC   C1A71463   0.389  26.088   6.450
 8948POPC   D2A71464   0.459  26.037   6.750
 8948POPC   C3A71465   0.472  26.091   7.050
 8948POPC   C4A71466   0.389  26.009   7.350
 8948POPC   C1B71467   0.351  25.870   6.450
 8948POPC   C2B71468   0.263  25.853   6.750
 8948POPC   C3B71469   0.306  25.786   7.050
 8948POPC   C4B71470   0.301  25.796   7.350
 8949POPC   NC371471  33.050  37.688   5.550
 8949POPC   PO471472  33.060  37.718   5.850
 8949POPC   GL171473  32.993  37.687   6.150
 8949POPC   GL271474  33.070  37.797   6.150
 8949POPC   C1A71475  33.073  37.696   6.450
 8949POPC   D2A71476  33.044  37.640   6.750
 8949POPC   C3A71477  33.004  37.710   7.050
 8949POPC   C4A71478  33.066  37.695   7.350
 8949POPC   C1B71479  33.097  37.877   6.450
 8949POPC   C2B71480  33.157  37.881   6.750
 8949POPC   C3B71481  33.163  37.885   7.050
 8949POPC   C4B71482  33.151  37.862   7.350
 8950POPC   NC371483  31.467  29.138   5.550
 8950POPC   PO471484  31.476  29.095   5.850
 8950POPC   GL171485  31.464  29.129   6.150
 8950POPC   GL271486  31.422  29.069   6.150
 8950POPC   C1A71487  31.432  29.150   6.450
 8950POPC   D2A71488  31.443  29.147   6.750
 8950POPC   C3A71489  31.445  29.131   7.050
 8950POPC   C4A71490  31.427  29.180   7.350
 8950POPC   C1B71491  31.425  28.913   6.450
 8950POPC   C2B71492  31.469  28.914   6.750
 8950POPC   C3B71493  31.466  28.861   7.050
 8950POPC   C4B71494  31.473  28.882   7.350
 8951POPC   NC371495  10.513  20.633   5.550
 8951POPC   PO471496  10.557  20.614   5.850
 8951POPC   GL171497  10.528  20.567   6.150
 8951POPC   GL271498  10.378  20.652   6.150
 8951POPC   C1A71499  10.544  20.627   6.450
 8951POPC   D2A71500  10.501  20.569   6.750
 8951POPC   C3A71501  10.552  20.613   7.050
 8951POPC   C4A71502  10.514  20.652   7.350
 8951POPC   C1B71503  10.238  20.624   6.450
 8951POPC   C2B71504  10.294  20.556   6.750
 8951POPC   C3B71505  10.247  20.570   7.050
 8951POPC   C4B71506  10.295  20.568   7.350
 8952POPC   NC371507  39.968  43.850   5.550
 8952POPC   PO471508  39.983  43.853   5.850
 8952POPC   GL171509  40.026  43.873   6.150
 8952POPC   GL271510  40.078  44.019   6.150
 8952POPC   C1A71511  40.040  43.886   6.450
 8952POPC   D2A71512  40.047  43.897   6.750
 8952POPC   C3A71513  40.009  43.892   7.050
 8952POPC   C4A71514  39.977  43.903   7.350
 8952POPC   C1B71515  40.142  44.024   6.450
 8952POPC   C2B71516  40.138  44.109   6.750
 8952POPC   C3B71517  40.154  44.112   7.050
 8952POPC   C4B71518  40.208  44.031   7.350
 8953POPC   NC371519  19.088  15.909   5.550
 8953POPC   PO471520  19.019  15.907   5.850
 8953POPC   GL171521  19.016  15.935   6.150
 8953POPC   GL271522  19.079  15.852   6.150
 8953POPC   C1A71523  19.086  15.952   6.450
 8953POPC   D2A71524  19.043  15.960   6.750
 8953POPC   C3A71525  19.083  15.972   7.050
 8953POPC   C4A71526  19.031  16.001   7.350
 8953POPC   C1B71527  19.047  15.707   6.450
 8953POPC   C2B71528  19.087  15.721   6.750
 8953POPC   C3B71529  19.094  15.698   7.050
 8953POPC   C4B71530  19.108  15.665   7.350
 8954POPC   NC371531  39.997   5.139   5.550
 8954POPC   PO471532  40.056   5.133   5.850
 8954POPC   GL171533  40.004   5.114   6.150
 8954POPC   GL271534  40.065   5.039   6.150
 8954POPC   C1A71535  40.023   5.081   6.450
 8954POPC   D2A71536  39.996   5.124   6.750
 8954POPC   C3A71537  40.041   5.132   7.050
 8954POPC   C4A71538  40.003   5.122   7.350
 8954POPC   C1B71539  40.223   4.913   6.450
 8954POPC   C2B71540  40.202   4.914   6.750
 8954POPC   C3B71541  40.228   4.902   7.050
 8954POPC   C4B71542  40.203   4.940   7.350
 8955POPC   NC371543   5.045  35.382   5.550
 8955POPC   PO471544   5.073  35.322   5.850
 8955POPC   GL171545   5.128  35.349   6.150
 8955POPC   GL271546   4.970  35.436   6.150
 8955POPC   C1A71547   5.118  35.339   6.450
 8955POPC   D2A71548   5.116  35.343   6.750
 8955POPC   C3A71549   5.047  35.372   7.050
 8955POPC   C4A71550   5.135  35.331   7.350
 8955POPC   C1B71551   4.929  35.464   6.450
 8955POPC   C2B71552   4.843  35.507   6.750
 8955POPC   C3B71553   4.927  35.536   7.050
 8955POPC   C4B71554   4.878  35.459   7.350
 8956POPC   NC371555  43.909   6.607   5.550
 8956POPC   PO471556  43.896   6.635   5.850
 8956POPC   GL171557  43.919   6.656   6.150
 8956POPC   GL271558  43.853   6.524   6.150
 8956POPC   C1A71559  43.901   6.618   6.450
 8956POPC   D2A71560  43.913   6.641   6.750
 8956POPC   C3A71561  43.900   6.662   7.050
 8956POPC   C4A71562  43.929   6.600   7.350
 8956POPC   C1B71563  43.896   6.372   6.450
 8956POPC   C2B71564  43.897   6.382   6.750
 8956POPC   C3B71565  43.909   6.432   7.050
 8956POPC   C4B71566  43.835   6.379   7.350
 8957POPC   NC371567  36.914  26.031   5.550
 8957POPC   PO471568  36.904  26.046   5.850
 8957POPC   GL171569  36.936  26.074   6.150
 8957POPC   GL271570  36.856  26.147   6.150
 8957POPC   C1A71571  36.948  26.090   6.450
 8957POPC   D2A71572  36.885  26.001   6.750
 8957POPC   C3A71573  36.950  26.088   7.050
 8957POPC   C4A71574  36.951  26.079   7.350
 8957POPC   C1B71575  36.833  26.295   6.450
 8957POPC   C2B71576  36.750  26.266   6.750
 8957POPC   C3B71577  36.819  26.316   7.050
 8957POPC   C4B71578  36.822  26.234   7.350
 8958POPC   NC371579   8.958  20.564   5.550
 8958POPC   PO471580   8.951  20.564   5.850
 8958POPC   GL171581   8.950  20.660   6.150
 8958POPC   GL271582   8.928  20.664   6.150
 8958POPC   C1A71583   9.020  20.615   6.450
 8958POPC   D2A71584   8.936  20.582   6.750
 8958POPC   C3A71585   8.958  20.595   7.050
 8958POPC   C4A71586   8.992  20.590   7.350
 8958POPC   C1B71587   8.769  20.743   6.450
 8958POPC   C2B71588   8.766  20.784   6.750
 8958POPC   C3B71589   8.833  20.813   7.050
 8958POPC   C4B71590   8.774  20.805   7.350
 8959POPC   NC371591   1.970  23.730   5.550
 8959POPC   PO471592   1.960  23.721   5.850
 8959POPC   GL171593   1.983  23.752   6.150
 8959POPC   GL271594   2.092  23.659   6.150
 8959POPC   C1A71595   1.987  23.762   6.450
 8959POPC   D2A71596   2.019  23.689   6.750
 8959POPC   C3A71597   1.982  23.702   7.050
 8959POPC   C4A71598   2.038  23.690   7.350
 8959POPC   C1B71599   2.258  23.714   6.450
 8959POPC   C2B71600   2.256  23.657   6.750
 8959POPC   C3B71601   2.222  23.644   7.050
 8959POPC   C4B71602   2.252  23.677   7.350
 8960POPC   NC371603  41.589   6.692   5.550
 8960POPC   PO471604  41.592   6.675   5.850
 8960POPC   GL171605  41.597   6.609   6.150
 8960POPC   GL271606  41.484   6.756   6.150
 8960POPC   C1A71607  41.526   6.644   6.450
 8960POPC   D2A71608  41.537   6.634   6.750
 8960POPC   C3A71609  41.586   6.634   7.050
 8960POPC   C4A71610  41.574   6.680   7.350
 8960POPC   C1B71611  41.382   6.854   6.450
 8960POPC   C2B71612  41.423   6.851   6.750
 8960POPC   C3B71613  41.341   6.804   7.050
 8960POPC   C4B71614  41.383   6.834   7.350
 8961POPC   NC371615  40.772   9.017   5.550
 8961POPC   PO471616  40.776   8.996   5.850
 8961POPC   GL171617  40.778   9.002   6.150
 8961POPC   GL271618  40.787   9.057   6.150
 8961POPC   C1A71619  40.820   8.997   6.450
 8961POPC   D2A71620  40.763   9.021   6.750
 8961POPC   C3A71621  40.832   8.969   7.050
 8961POPC   C4A71622  40.753   8.975   7.350
 8961POPC   C1B71623  40.793   9.250   6.450
 8961POPC   C2B71624  40.826   9.192   6.750
 8961POPC   C3B71625  40.795   9.196   7.050
 8961POPC   C4B71626  40.806   9.222   7.350
 8962POPC   NC371627  32.986  42.364   5.550
 8962POPC   PO471628  33.014  42.384   5.850
 8962POPC   GL171629  33.009  42.290   6.150
 8962POPC   GL271630  33.122  42.380   6.150
 8962POPC   C1A71631  33.062  42.309   6.450
 8962POPC   D2A71632  33.073  42.383   6.750
 8962POPC   C3A71633  33.022  42.368   7.050
 8962POPC   C4A71634  33.048  42.289   7.350
 8962POPC   C1B71635  33.228  42.476   6.450
 8962POPC   C2B71636  33.211  42.488   6.750
 8962POPC   C3B71637  33.234  42.427   7.050
 8962POPC   C4B71638  33.224  42.414   7.350
 8963POPC   NC371639  14.395  15.180   5.550
 8963POPC   PO471640  14.434  15.203   5.850
 8963POPC   GL171641  14.447  15.205   6.150
 8963POPC   GL271642  14.314  15.136   6.150
 8963POPC   C1A71643  14.366  15.198   6.450
 8963POPC   D2A71644  14.430  15.187   6.750
 8963POPC   C3A71645  14.391  15.219   7.050
 8963POPC   C4A71646  14.415  15.211   7.350
 8963POPC   C1B71647  14.167  15.125   6.450
 8963POPC   C2B71648  14.186  15.149   6.750
 8963POPC   C3B71649  14.136  15.151   7.050
 8963POPC   C4B71650  14.120  15.094   7.350
 8964POPC   NC371651  39.255  22.977   5.550
 8964POPC   PO471652  39.217  22.896   5.850
 8964POPC   GL171653  39.278  22.919   6.150
 8964POPC   GL271654  39.350  22.869   6.150
 8964POPC   C1A71655  39.212  22.919   6.450
 8964POPC   D2A71656  39.264  22.971   6.750
 8964POPC   C3A71657  39.202  22.985   7.050
 8964POPC   C4A71658  39.249  22.987   7.350
 8964POPC   C1B71659  39.518  22.818   6.450
 8964POPC   C2B71660  39.480  22.874   6.750
 8964POPC   C3B71661  39.496  22.866   7.050
 8964POPC   C4B71662  39.472  22.896   7.350
 8965POPC   NC371663  38.405   1.974   5.550
 8965POPC   PO471664  38.449   2.034   5.850
 8965POPC   GL171665  38.498   1.977   6.150
 8965POPC   GL271666  38.438   1.926   6.150
 8965POPC   C1A71667  38.436   2.015   6.450
 8965POPC   D2A71668  38.485   1.974   6.750
 8965POPC   C3A71669  38.408   2.008   7.050
 8965POPC   C4A71670  38.499   1.978   7.350
 8965POPC   C1B71671  38.352   1.733   6.450
 8965POPC   C2B71672  38.343   1.781   6.750
 8965POPC   C3B71673  38.314   1.811   7.050
 8965POPC   C4B71674  38.390   1.767   7.350
 8966POPC   NC371675  19.831  17.554   5.550
 8966POPC   PO471676  19.830  17.527   5.850
 8966POPC   GL171677  19.833  17.462   6.150
 8966POPC   GL271678  19.946  17.426   6.150
 8966POPC   C1A71679  19.866  17.491   6.450
 8966POPC   D2A71680  19.851  17.537   6.750
 8966POPC   C3A71681  19.842  17.527   7.050
 8966POPC   C4A71682  19.852  17.527   7.350
 8966POPC   C1B71683  20.062  17.334   6.450
 8966POPC   C2B71684  19.999  17.348   6.750
 8966POPC   C3B71685  20.002  17.328   7.050
 8966POPC   C4B71686  20.064  17.341   7.350
 8967POPC   NC371687  39.989  22.971   5.550
 8967POPC   PO471688  40.035  22.988   5.850
 8967POPC   GL171689  40.026  22.969   6.150
 8967POPC   GL271690  40.093  23.011   6.150
 8967POPC   C1A71691  40.043  22.930   6.450
 8967POPC   D2A71692  40.020  22.948   6.750
 8967POPC   C3A71693  39.996  22.944   7.050
 8967POPC   C4A71694  39.989  22.930   7.350
 8967POPC   C1B71695  40.177  23.058   6.450
 8967POPC   C2B71696  40.242  23.076   6.750
 8967POPC   C3B71697  40.223  23.070   7.050
 8967POPC   C4B71698  40.234  23.045   7.350
 8968POPC   NC371699   5.850  38.472   5.550
 8968POPC   PO471700   5.870  38.439   5.850
 8968POPC   GL171701   5.913  38.494   6.150
 8968POPC   GL271702   5.908  38.619   6.150
 8968POPC   C1A71703   5.860  38.457   6.450
 8968POPC   D2A71704   5.885  38.459   6.750
 8968POPC   C3A71705   5.844  38.435   7.050
 8968POPC   C4A71706   5.872  38.445   7.350
 8968POPC   C1B71707   5.880  38.695   6.450
 8968POPC   C2B71708   5.838  38.714   6.750
 8968POPC   C3B71709   5.863  38.682   7.050
 8968POPC   C4B71710   5.887  38.735   7.350
 8969POPC   NC371711  31.467  36.128   5.550
 8969POPC   PO471712  31.425  36.125   5.850
 8969POPC   GL171713  31.490  36.125   6.150
 8969POPC   GL271714  31.424  36.186   6.150
 8969POPC   C1A71715  31.439  36.132   6.450
 8969POPC   D2A71716  31.442  36.090   6.750
 8969POPC   C3A71717  31.481  36.128   7.050
 8969POPC   C4A71718  31.444  36.108   7.350
 8969POPC   C1B71719  31.296  36.293   6.450
 8969POPC   C2B71720  31.350  36.315   6.750
 8969POPC   C3B71721  31.322  36.303   7.050
 8969POPC   C4B71722  31.315  36.286   7.350
 8970POPC   NC371723  32.286  12.828   5.550
 8970POPC   PO471724  32.237  12.822   5.850
 8970POPC   GL171725  32.247  12.855   6.150
 8970POPC   GL271726  32.165  12.979   6.150
 8970POPC   C1A71727  32.227  12.805   6.450
 8970POPC   D2A71728  32.241  12.828   6.750
 8970POPC   C3A71729  32.234  12.851   7.050
 8970POPC   C4A71730  32.241  12.833   7.350
 8970POPC   C1B71731  32.072  13.112   6.450
 8970POPC   C2B71732  32.124  13.025   6.750
 8970POPC   C3B71733  32.087  13.065   7.050
 8970POPC   C4B71734  32.159  13.032   7.350
 8971POPC   NC371735   4.270  29.891   5.550
 8971POPC   PO471736   4.301  29.923   5.850
 8971POPC   GL171737   4.324  29.951   6.150
 8971POPC   GL271738   4.385  29.928   6.150
 8971POPC   C1A71739   4.327  29.935   6.450
 8971POPC   D2A71740   4.290  29.936   6.750
 8971POPC   C3A71741   4.346  29.945   7.050
 8971POPC   C4A71742   4.341  29.901   7.350
 8971POPC   C1B71743   4.559  30.011   6.450
 8971POPC   C2B71744   4.586  30.008   6.750
 8971POPC   C3B71745   4.574  29.978   7.050
 8971POPC   C4B71746   4.505  30.023   7.350
 8972POPC   NC371747  40.735  25.274   5.550
 8972POPC   PO471748  40.828  25.220   5.850
 8972POPC   GL171749  40.752  25.284   6.150
 8972POPC   GL271750  40.753  25.386   6.150
 8972POPC   C1A71751  40.762  25.244   6.450
 8972POPC   D2A71752  40.751  25.237   6.750
 8972POPC   C3A71753  40.773  25.232   7.050
 8972POPC   C4A71754  40.768  25.310   7.350
 8972POPC   C1B71755  40.858  25.552   6.450
 8972POPC   C2B71756  40.814  25.516   6.750
 8972POPC   C3B71757  40.864  25.552   7.050
 8972POPC   C4B71758  40.852  25.463   7.350
 8973POPC   NC371759   4.318   5.885   5.550
 8973POPC   PO471760   4.339   5.828   5.850
 8973POPC   GL171761   4.299   5.837   6.150
 8973POPC   GL271762   4.320   5.754   6.150
 8973POPC   C1A71763   4.277   5.843   6.450
 8973POPC   D2A71764   4.279   5.820   6.750
 8973POPC   C3A71765   4.364   5.882   7.050
 8973POPC   C4A71766   4.333   5.907   7.350
 8973POPC   C1B71767   4.361   5.667   6.450
 8973POPC   C2B71768   4.364   5.666   6.750
 8973POPC   C3B71769   4.337   5.582   7.050
 8973POPC   C4B71770   4.278   5.635   7.350
 8974POPC   NC371771   8.149  32.289   5.550
 8974POPC   PO471772   8.230  32.209   5.850
 8974POPC   GL171773   8.205  32.240   6.150
 8974POPC   GL271774   8.231  32.372   6.150
 8974POPC   C1A71775   8.206  32.280   6.450
 8974POPC   D2A71776   8.191  32.276   6.750
 8974POPC   C3A71777   8.200  32.292   7.050
 8974POPC   C4A71778   8.223  32.248   7.350
 8974POPC   C1B71779   8.359  32.511   6.450
 8974POPC   C2B71780   8.335  32.432   6.750
 8974POPC   C3B71781   8.282  32.493   7.050
 8974POPC   C4B71782   8.318  32.463   7.350
 8975POPC   NC371783   5.909  27.570   5.550
 8975POPC   PO471784   5.845  27.615   5.850
 8975POPC   GL171785   5.844  27.547   6.150
 8975POPC   GL271786   5.775  27.592   6.150
 8975POPC   C1A71787   5.821  27.620   6.450
 8975POPC   D2A71788   5.820  27.583   6.750
 8975POPC   C3A71789   5.891  27.596   7.050
 8975POPC   C4A71790   5.820  27.613   7.350
 8975POPC   C1B71791   5.587  27.608   6.450
 8975POPC   C2B71792   5.618  27.642   6.750
 8975POPC   C3B71793   5.642  27.620   7.050
 8975POPC   C4B71794   5.585  27.616   7.350
 8976POPC   NC371795  37.701  30.688   5.550
 8976POPC   PO471796  37.678  30.723   5.850
 8976POPC   GL171797  37.722  30.699   6.150
 8976POPC   GL271798  37.683  30.785   6.150
 8976POPC   C1A71799  37.697  30.739   6.450
 8976POPC   D2A71800  37.637  30.731   6.750
 8976POPC   C3A71801  37.713  30.686   7.050
 8976POPC   C4A71802  37.726  30.660   7.350
 8976POPC   C1B71803  37.716  30.936   6.450
 8976POPC   C2B71804  37.722  30.919   6.750
 8976POPC   C3B71805  37.723  30.963   7.050
 8976POPC   C4B71806  37.654  30.904   7.350
 8977POPC   NC371807  15.910  44.679   5.550
 8977POPC   PO471808  15.949  44.628   5.850
 8977POPC   GL171809  16.001  44.638   6.150
 8977POPC   GL271810  15.871  44.627   6.150
 8977POPC   C1A71811  15.911  44.710   6.450
 8977POPC   D2A71812  15.959  44.628   6.750
 8977POPC   C3A71813  15.918  44.656   7.050
 8977POPC   C4A71814  15.962  44.682   7.350
 8977POPC   C1B71815  15.708  44.532   6.450
 8977POPC   C2B71816  15.711  44.482   6.750
 8977POPC   C3B71817  15.711  44.531   7.050
 8977POPC   C4B71818  15.749  44.476   7.350
 8978POPC   NC371819  33.815  32.265   5.550
 8978POPC   PO471820  33.842  32.250   5.850
 8978POPC   GL171821  33.837  32.227   6.150
 8978POPC   GL271822  33.707  32.173   6.150
 8978POPC   C1A71823  33.807  32.283   6.450
 8978POPC   D2A71824  33.838  32.234   6.750
 8978POPC   C3A71825  33.821  32.203   7.050
 8978POPC   C4A71826  33.844  32.237   7.350
 8978POPC   C1B71827  33.572  32.108   6.450
 8978POPC   C2B71828  33.573  32.031   6.750
 8978POPC   C3B71829  33.656  32.040   7.050
 8978POPC   C4B71830  33.590  32.106   7.350
 8979POPC   NC371831  12.085  25.269   5.550
 8979POPC   PO471832  12.123  25.244   5.850
 8979POPC   GL171833  12.121  25.247   6.150
 8979POPC   GL271834  12.040  25.111   6.150
 8979POPC   C1A71835  12.077  25.219   6.450
 8979POPC   D2A71836  12.123  25.257   6.750
 8979POPC   C3A71837  12.072  25.302   7.050
 8979POPC   C4A71838  12.033  25.222   7.350
 8979POPC   C1B71839  12.013  25.012   6.450
 8979POPC   C2B71840  11.989  25.042   6.750
 8979POPC   C3B71841  12.055  25.008   7.050
 8979POPC   C4B71842  12.054  25.056   7.350
 8980POPC   NC371843  34.573  11.340   5.550
 8980POPC   PO471844  34.621  11.339   5.850
 8980POPC   GL171845  34.604  11.292   6.150
 8980POPC   GL271846  34.680  11.232   6.150
 8980POPC   C1A71847  34.606  11.258   6.450
 8980POPC   D2A71848  34.570  11.296   6.750
 8980POPC   C3A71849  34.533  11.302   7.050
 8980POPC   C4A71850  34.594  11.298   7.350
 8980POPC   C1B71851  34.836  11.198   6.450
 8980POPC   C2B71852  34.793  11.237   6.750
 8980POPC   C3B71853  34.854  11.171   7.050
 8980POPC   C4B71854  34.789  11.248   7.350
 8981POPC   NC371855  38.432  40.734   5.550
 8981POPC   PO471856  38.416  40.734   5.850
 8981POPC   GL171857  38.487  40.772   6.150
 8981POPC   GL271858  38.570  40.865   6.150
 8981POPC   C1A71859  38.446  40.740   6.450
 8981POPC   D2A71860  38.418  40.782   6.750
 8981POPC   C3A71861  38.448  40.785   7.050
 8981POPC   C4A71862  38.466  40.821   7.350
 8981POPC   C1B71863  38.625  40.979   6.450
 8981POPC   C2B71864  38.641  40.941   6.750
 8981POPC   C3B71865  38.602  41.003   7.050
 8981POPC   C4B71866  38.652  40.984   7.350
 8982POPC   NC371867  26.011  40.050   5.550
 8982POPC   PO471868  26.030  40.009   5.850
 8982POPC   GL171869  26.024  40.026   6.150
 8982POPC   GL271870  25.895  40.031   6.150
 8982POPC   C1A71871  26.015  40.050   6.450
 8982POPC   D2A71872  26.069  40.029   6.750
 8982POPC   C3A71873  26.053  39.994   7.050
 8982POPC   C4A71874  26.013  40.010   7.350
 8982POPC   C1B71875  25.768  40.056   6.450
 8982POPC   C2B71876  25.846  40.069   6.750
 8982POPC   C3B71877  25.784  40.039   7.050
 8982POPC   C4B71878  25.751  40.016   7.350
 8983POPC   NC371879  44.653  31.510   5.550
 8983POPC   PO471880  44.648  31.453   5.850
 8983POPC   GL171881  44.699  31.500   6.150
 8983POPC   GL271882  44.750  31.550   6.150
 8983POPC   C1A71883  44.661  31.516   6.450
 8983POPC   D2A71884  44.617  31.513   6.750
 8983POPC   C3A71885  44.675  31.483   7.050
 8983POPC   C4A71886  44.651  31.446   7.350
 8983POPC   C1B71887  44.843  31.630   6.450
 8983POPC   C2B71888  44.765  31.628   6.750
 8983POPC   C3B71889  44.788  31.672   7.050
 8983POPC   C4B71890  44.772  31.708   7.350
 8984POPC   NC371891  11.301  21.415   5.550
 8984POPC   PO471892  11.289  21.392   5.850
 8984POPC   GL171893  11.327  21.397   6.150
 8984POPC   GL271894  11.364  21.298   6.150
 8984POPC   C1A71895  11.272  21.355   6.450
 8984POPC   D2A71896  11.254  21.358   6.750
 8984POPC   C3A71897  11.275  21.415   7.050
 8984POPC   C4A71898  11.318  21.354   7.350
 8984POPC   C1B71899  11.476  21.228   6.450
 8984POPC   C2B71900  11.467  21.290   6.750
 8984POPC   C3B71901  11.488  21.257   7.050
 8984POPC   C4B71902  11.547  21.262   7.350
 8985POPC   NC371903  27.558  10.536   5.550
 8985POPC   PO471904  27.587  10.506   5.850
 8985POPC   GL171905  27.565  10.530   6.150
 8985POPC   GL271906  27.639  10.423   6.150
 8985POPC   C1A71907  27.565  10.484   6.450
 8985POPC   D2A71908  27.602  10.538   6.750
 8985POPC   C3A71909  27.629  10.480   7.050
 8985POPC   C4A71910  27.546  10.551   7.350
 8985POPC   C1B71911  27.745  10.317   6.450
 8985POPC   C2B71912  27.792  10.328   6.750
 8985POPC   C3B71913  27.786  10.351   7.050
 8985POPC   C4B71914  27.754  10.338   7.350
 8986POPC   NC371915   5.883  15.218   5.550
 8986POPC   PO471916   5.915  15.198   5.850
 8986POPC   GL171917   5.832  15.226   6.150
 8986POPC   GL271918   6.015  15.102   6.150
 8986POPC   C1A71919   5.866  15.187   6.450
 8986POPC   D2A71920   5.874  15.138   6.750
 8986POPC   C3A71921   5.917  15.181   7.050
 8986POPC   C4A71922   5.854  15.161   7.350
 8986POPC   C1B71923   6.106  15.067   6.450
 8986POPC   C2B71924   6.103  15.057   6.750
 8986POPC   C3B71925   6.036  14.998   7.050
 8986POPC   C4B71926   6.062  15.021   7.350
 8987POPC   NC371927  39.232   8.957   5.550
 8987POPC   PO471928  39.220   8.942   5.850
 8987POPC   GL171929  39.219   8.958   6.150
 8987POPC   GL271930  39.323   8.979   6.150
 8987POPC   C1A71931  39.190   8.988   6.450
 8987POPC   D2A71932  39.276   8.954   6.750
 8987POPC   C3A71933  39.251   8.966   7.050
 8987POPC   C4A71934  39.197   9.011   7.350
 8987POPC   C1B71935  39.481   8.925   6.450
 8987POPC   C2B71936  39.521   8.969   6.750
 8987POPC   C3B71937  39.460   8.985   7.050
 8987POPC   C4B71938  39.444   8.927   7.350
 8988POPC   NC371939  22.959   1.239   5.550
 8988POPC   PO471940  22.889   1.226   5.850
 8988POPC   GL171941  22.910   1.169   6.150
 8988POPC   GL271942  23.019   1.252   6.150
 8988POPC   C1A71943  22.972   1.208   6.450
 8988POPC   D2A71944  22.964   1.256   6.750
 8988POPC   C3A71945  22.937   1.171   7.050
 8988POPC   C4A71946  22.948   1.256   7.350
 8988POPC   C1B71947  23.137   1.238   6.450
 8988POPC   C2B71948  23.205   1.297   6.750
 8988POPC   C3B71949  23.172   1.237   7.050
 8988POPC   C4B71950  23.216   1.217   7.350
 8989POPC   NC371951   1.182  33.058   5.550
 8989POPC   PO471952   1.168  33.061   5.850
 8989POPC   GL171953   1.237  32.980   6.150
 8989POPC   GL271954   1.341  33.030   6.150
 8989POPC   C1A71955   1.209  33.067   6.450
 8989POPC   D2A71956   1.213  33.045   6.750
 8989POPC   C3A71957   1.178  32.996   7.050
 8989POPC   C4A71958   1.176  32.979   7.350
 8989POPC   C1B71959   1.508  32.971   6.450
 8989POPC   C2B71960   1.508  32.967   6.750
 8989POPC   C3B71961   1.469  33.028   7.050
 8989POPC   C4B71962   1.476  33.038   7.350
 8990POPC   NC371963   5.097  18.322   5.550
 8990POPC   PO471964   5.083  18.299   5.850
 8990POPC   GL171965   5.100  18.311   6.150
 8990POPC   GL271966   5.032  18.117   6.150
 8990POPC   C1A71967   5.053  18.265   6.450
 8990POPC   D2A71968   5.058  18.250   6.750
 8990POPC   C3A71969   5.081  18.277   7.050
 8990POPC   C4A71970   5.134  18.268   7.350
 8990POPC   C1B71971   4.997  18.029   6.450
 8990POPC   C2B71972   4.962  18.054   6.750
 8990POPC   C3B71973   5.009  18.052   7.050
 8990POPC   C4B71974   5.022  18.079   7.350
 8991POPC   NC371975  22.191   4.365   5.550
 8991POPC   PO471976  22.211   4.315   5.850
 8991POPC   GL171977  22.176   4.348   6.150
 8991POPC   GL271978  22.219   4.434   6.150
 8991POPC   C1A71979  22.185   4.327   6.450
 8991POPC   D2A71980  22.174   4.324   6.750
 8991POPC   C3A71981  22.136   4.325   7.050
 8991POPC   C4A71982  22.188   4.336   7.350
 8991POPC   C1B71983  22.247   4.528   6.450
 8991POPC   C2B71984  22.218   4.535   6.750
 8991POPC   C3B71985  22.257   4.573   7.050
 8991POPC   C4B71986  22.274   4.500   7.350
 8992POPC   NC371987  28.356  40.028   5.550
 8992POPC   PO471988  28.398  39.962   5.850
 8992POPC   GL171989  28.331  40.006   6.150
 8992POPC   GL271990  28.510  39.960   6.150
 8992POPC   C1A71991  28.416  39.977   6.450
 8992POPC   D2A71992  28.389  39.989   6.750
 8992POPC   C3A71993  28.355  40.014   7.050
 8992POPC   C4A71994  28.321  40.047   7.350
 8992POPC   C1B71995  28.605  39.825   6.450
 8992POPC   C2B71996  28.608  39.824   6.750
 8992POPC   C3B71997  28.564  39.852   7.050
 8992POPC   C4B71998  28.596  39.841   7.350
 8993POPC   NC371999  26.091  43.107   5.550
 8993POPC   PO472000  26.058  43.082   5.850
 8993POPC   GL172001  26.012  43.099   6.150
 8993POPC   GL272002  26.133  43.043   6.150
 8993POPC   C1A72003  26.044  43.074   6.450
 8993POPC   D2A72004  26.080  43.061   6.750
 8993POPC   C3A72005  26.029  43.063   7.050
 8993POPC   C4A72006  26.065  43.122   7.350
 8993POPC   C1B72007  26.170  42.929   6.450
 8993POPC   C2B72008  26.202  42.926   6.750
 8993POPC   C3B72009  26.159  42.892   7.050
 8993POPC   C4B72010  26.212  42.919   7.350
 8994POPC   NC372011  33.042  39.229   5.550
 8994POPC   PO472012  33.014  39.247   5.850
 8994POPC   GL172013  33.051  39.242   6.150
 8994POPC   GL272014  32.993  39.299   6.150
 8994POPC   C1A72015  33.027  39.187   6.450
 8994POPC   D2A72016  33.074  39.266   6.750
 8994POPC   C3A72017  33.030  39.259   7.050
 8994POPC   C4A72018  32.974  39.184   7.350
 8994POPC   C1B72019  32.830  39.435   6.450
 8994POPC   C2B72020  32.906  39.393   6.750
 8994POPC   C3B72021  32.907  39.387   7.050
 8994POPC   C4B72022  32.841  39.464   7.350
 8995POPC   NC372023   9.786  18.300   5.550
 8995POPC   PO472024   9.718  18.321   5.850
 8995POPC   GL172025   9.775  18.246   6.150
 8995POPC   GL272026   9.674  18.199   6.150
 8995POPC   C1A72027   9.750  18.303   6.450
 8995POPC   D2A72028   9.784  18.258   6.750
 8995POPC   C3A72029   9.784  18.289   7.050
 8995POPC   C4A72030   9.772  18.281   7.350
 8995POPC   C1B72031   9.597  18.060   6.450
 8995POPC   C2B72032   9.552  18.127   6.750
 8995POPC   C3B72033   9.601  18.100   7.050
 8995POPC   C4B72034   9.536  18.107   7.350
 8996POPC   NC372035  13.620  22.137   5.550
 8996POPC   PO472036  13.632  22.154   5.850
 8996POPC   GL172037  13.582  22.165   6.150
 8996POPC   GL272038  13.566  22.108   6.150
 8996POPC   C1A72039  13.661  22.194   6.450
 8996POPC   D2A72040  13.591  22.177   6.750
 8996POPC   C3A72041  13.598  22.115   7.050
 8996POPC   C4A72042  13.589  22.156   7.350
 8996POPC   C1B72043  13.441  21.945   6.450
 8996POPC   C2B72044  13.418  21.948   6.750
 8996POPC   C3B72045  13.437  21.962   7.050
 8996POPC   C4B72046  13.431  22.004   7.350
 8997POPC   NC372047  11.328  33.813   5.550
 8997POPC   PO472048  11.321  33.818   5.850
 8997POPC   GL172049  11.268  33.806   6.150
 8997POPC   GL272050  11.386  33.691   6.150
 8997POPC   C1A72051  11.344  33.823   6.450
 8997POPC   D2A72052  11.294  33.798   6.750
 8997POPC   C3A72053  11.275  33.773   7.050
 8997POPC   C4A72054  11.314  33.833   7.350
 8997POPC   C1B72055  11.402  33.609   6.450
 8997POPC   C2B72056  11.452  33.601   6.750
 8997POPC   C3B72057  11.394  33.543   7.050
 8997POPC   C4B72058  11.418  33.591   7.350
 8998POPC   NC372059  12.828  19.103   5.550
 8998POPC   PO472060  12.815  19.013   5.850
 8998POPC   GL172061  12.899  19.070   6.150
 8998POPC   GL272062  12.900  19.213   6.150
 8998POPC   C1A72063  12.815  19.107   6.450
 8998POPC   D2A72064  12.806  19.029   6.750
 8998POPC   C3A72065  12.823  19.045   7.050
 8998POPC   C4A72066  12.871  19.027   7.350
 8998POPC   C1B72067  12.969  19.259   6.450
 8998POPC   C2B72068  13.008  19.323   6.750
 8998POPC   C3B72069  12.961  19.289   7.050
 8998POPC   C4B72070  12.987  19.239   7.350
 8999POPC   NC372071  29.878  18.330   5.550
 8999POPC   PO472072  29.949  18.268   5.850
 8999POPC   GL172073  29.915  18.260   6.150
 8999POPC   GL272074  29.812  18.203   6.150
 8999POPC   C1A72075  29.911  18.296   6.450
 8999POPC   D2A72076  29.875  18.324   6.750
 8999POPC   C3A72077  29.970  18.308   7.050
 8999POPC   C4A72078  29.921  18.318   7.350
 8999POPC   C1B72079  29.651  18.270   6.450
 8999POPC   C2B72080  29.701  18.173   6.750
 8999POPC   C3B72081  29.715  18.206   7.050
 8999POPC   C4B72082  29.665  18.207   7.350
 9000POPC   NC372083   7.388  12.031   5.550
 9000POPC   PO472084   7.416  12.099   5.850
 9000POPC   GL172085   7.429  12.118   6.150
 9000POPC   GL272086   7.512  12.148   6.150
 9000POPC   C1A72087   7.409  12.089   6.450
 9000POPC   D2A72088   7.458  12.103   6.750
 9000POPC   C3A72089   7.455  12.053   7.050
 9000POPC   C4A72090   7.435  12.087   7.350
 9000POPC   C1B72091   7.507  12.287   6.450
 9000POPC   C2B72092   7.485  12.299   6.750
 9000POPC   C3B72093   7.547  12.353   7.050
 9000POPC   C4B72094   7.540  12.326   7.350
 9001POPC   NC372095  36.885  21.375   5.550
 9001POPC   PO472096  36.868  21.393   5.850
 9001POPC   GL172097  36.919  21.338   6.150
 9001POPC   GL272098  36.772  21.343   6.150
 9001POPC   C1A72099  36.938  21.429   6.450
 9001POPC   D2A72100  36.921  21.412   6.750
 9001POPC   C3A72101  36.898  21.357   7.050
 9001POPC   C4A72102  36.916  21.402   7.350
 9001POPC   C1B72103  36.750  21.243   6.450
 9001POPC   C2B72104  36.723  21.158   6.750
 9001POPC   C3B72105  36.739  21.165   7.050
 9001POPC   C4B72106  36.780  21.250   7.350
 9002POPC   NC372107  28.344  32.276   5.550
 9002POPC   PO472108  28.363  32.262   5.850
 9002POPC   GL172109  28.385  32.250   6.150
 9002POPC   GL272110  28.375  32.391   6.150
 9002POPC   C1A72111  28.386  32.239   6.450
 9002POPC   D2A72112  28.359  32.204   6.750
 9002POPC   C3A72113  28.406  32.271   7.050
 9002POPC   C4A72114  28.394  32.241   7.350
 9002POPC   C1B72115  28.440  32.468   6.450
 9002POPC   C2B72116  28.439  32.519   6.750
 9002POPC   C3B72117  28.357  32.471   7.050
 9002POPC   C4B72118  28.421  32.542   7.350
 9003POPC   NC372119   5.866  29.130   5.550
 9003POPC   PO472120   5.855  29.140   5.850
 9003POPC   GL172121   5.881  29.185   6.150
 9003POPC   GL272122   5.826  29.065   6.150
 9003POPC   C1A72123   5.917  29.096   6.450
 9003POPC   D2A72124   5.869  29.189   6.750
 9003POPC   C3A72125   5.836  29.161   7.050
 9003POPC   C4A72126   5.860  29.167   7.350
 9003POPC   C1B72127   5.871  28.945   6.450
 9003POPC   C2B72128   5.873  28.898   6.750
 9003POPC   C3B72129   5.885  28.920   7.050
 9003POPC   C4B72130   5.878  28.940   7.350
 9004POPC   NC372131  42.364  27.631   5.550
 9004POPC   PO472132  42.335  27.594   5.850
 9004POPC   GL172133  42.376  27.635   6.150
 9004POPC   GL272134  42.366  27.671   6.150
 9004POPC   C1A72135  42.375  27.556   6.450
 9004POPC   D2A72136  42.297  27.625   6.750
 9004POPC   C3A72137  42.347  27.594   7.050
 9004POPC   C4A72138  42.309  27.554   7.350
 9004POPC   C1B72139  42.433  27.786   6.450
 9004POPC   C2B72140  42.474  27.800   6.750
 9004POPC   C3B72141  42.454  27.785   7.050
 9004POPC   C4B72142  42.447  27.854   7.350
 9005POPC   NC372143   5.104  29.173   5.550
 9005POPC   PO472144   5.067  29.140   5.850
 9005POPC   GL172145   5.061  29.129   6.150
 9005POPC   GL272146   5.029  29.068   6.150
 9005POPC   C1A72147   5.072  29.178   6.450
 9005POPC   D2A72148   5.107  29.102   6.750
 9005POPC   C3A72149   5.067  29.190   7.050
 9005POPC   C4A72150   5.123  29.169   7.350
 9005POPC   C1B72151   4.913  28.905   6.450
 9005POPC   C2B72152   4.986  28.897   6.750
 9005POPC   C3B72153   4.978  28.908   7.050
 9005POPC   C4B72154   4.944  28.964   7.350
 9006POPC   NC372155  35.390   8.228   5.550
 9006POPC   PO472156  35.385   8.209   5.850
 9006POPC   GL172157  35.340   8.149   6.150
 9006POPC   GL272158  35.449   8.196   6.150
 9006POPC   C1A72159  35.352   8.179   6.450
 9006POPC   D2A72160  35.336   8.203   6.750
 9006POPC   C3A72161  35.375   8.184   7.050
 9006POPC   C4A72162  35.356   8.215   7.350
 9006POPC   C1B72163  35.554   8.220   6.450
 9006POPC   C2B72164  35.600   8.206   6.750
 9006POPC   C3B72165  35.564   8.205   7.050
 9006POPC   C4B72166  35.572   8.215   7.350
 9007POPC   NC372167   1.979  26.082   5.550
 9007POPC   PO472168   2.017  26.062   5.850
 9007POPC   GL172169   1.955  26.016   6.150
 9007POPC   GL272170   2.082  25.954   6.150
 9007POPC   C1A72171   2.005  26.048   6.450
 9007POPC   D2A72172   1.967  26.021   6.750
 9007POPC   C3A72173   1.982  26.022   7.050
 9007POPC   C4A72174   2.023  25.993   7.350
 9007POPC   C1B72175   2.208  25.905   6.450
 9007POPC   C2B72176   2.196  26.000   6.750
 9007POPC   C3B72177   2.184  25.963   7.050
 9007POPC   C4B72178   2.253  25.945   7.350
 9008POPC   NC372179  29.941  29.114   5.550
 9008POPC   PO472180  29.917  29.173   5.850
 9008POPC   GL172181  29.913  29.112   6.150
 9008POPC   GL272182  29.931  28.987   6.150
 9008POPC   C1A72183  29.968  29.140   6.450
 9008POPC   D2A72184  29.905  29.102   6.750
 9008POPC   C3A72185  29.952  29.095   7.050
 9008POPC   C4A72186  29.873  29.105   7.350
 9008POPC   C1B72187  29.957  28.894   6.450
 9008POPC   C2B72188  29.966  28.862   6.750
 9008POPC   C3B72189  29.904  28.921   7.050
 9008POPC   C4B72190  29.984  28.906   7.350
 9009POPC   NC372191  31.484  18.310   5.550
 9009POPC   PO472192  31.522  18.236   5.850
 9009POPC   GL172193  31.510  18.236   6.150
 9009POPC   GL272194  31.639  18.236   6.150
 9009POPC   C1A72195  31.453  18.267   6.450
 9009POPC   D2A72196  31.426  18.332   6.750
 9009POPC   C3A72197  31.437  18.280   7.050
 9009POPC   C4A72198  31.477  18.248   7.350
 9009POPC   C1B72199  31.735  18.279   6.450
 9009POPC   C2B72200  31.688  18.269   6.750
 9009POPC   C3B72201  31.673  18.260   7.050
 9009POPC   C4B72202  31.715  18.270   7.350
 9010POPC   NC372203  15.961   2.738   5.550
 9010POPC   PO472204  15.992   2.722   5.850
 9010POPC   GL172205  15.967   2.744   6.150
 9010POPC   GL272206  15.961   2.878   6.150
 9010POPC   C1A72207  15.937   2.766   6.450
 9010POPC   D2A72208  15.990   2.750   6.750
 9010POPC   C3A72209  15.997   2.798   7.050
 9010POPC   C4A72210  15.942   2.776   7.350
 9010POPC   C1B72211  15.955   3.019   6.450
 9010POPC   C2B72212  15.962   2.997   6.750
 9010POPC   C3B72213  15.992   3.062   7.050
 9010POPC   C4B72214  16.031   3.008   7.350
 9011POPC   NC372215  29.889  43.935   5.550
 9011POPC   PO472216  29.889  43.881   5.850
 9011POPC   GL172217  29.879  43.840   6.150
 9011POPC   GL272218  30.047  44.016   6.150
 9011POPC   C1A72219  29.886  43.860   6.450
 9011POPC   D2A72220  29.903  43.860   6.750
 9011POPC   C3A72221  29.944  43.842   7.050
 9011POPC   C4A72222  29.932  43.844   7.350
 9011POPC   C1B72223  30.101  44.050   6.450
 9011POPC   C2B72224  30.069  44.114   6.750
 9011POPC   C3B72225  30.036  44.075   7.050
 9011POPC   C4B72226  30.038  44.058   7.350
 9012POPC   NC372227  37.673  40.775   5.550
 9012POPC   PO472228  37.671  40.813   5.850
 9012POPC   GL172229  37.635  40.793   6.150
 9012POPC   GL272230  37.692  40.918   6.150
 9012POPC   C1A72231  37.670  40.772   6.450
 9012POPC   D2A72232  37.648  40.829   6.750
 9012POPC   C3A72233  37.635  40.791   7.050
 9012POPC   C4A72234  37.665  40.788   7.350
 9012POPC   C1B72235  37.685  41.028   6.450
 9012POPC   C2B72236  37.771  40.978   6.750
 9012POPC   C3B72237  37.719  41.072   7.050
 9012POPC   C4B72238  37.775  41.047   7.350
 9013POPC   NC372239  19.836  10.533   5.550
 9013POPC   PO472240  19.791  10.556   5.850
 9013POPC   GL172241  19.859  10.562   6.150
 9013POPC   GL272242  19.767  10.588   6.150
 9013POPC   C1A72243  19.798  10.516   6.450
 9013POPC   D2A72244  19.863  10.526   6.750
 9013POPC   C3A72245  19.844  10.524   7.050
 9013POPC   C4A72246  19.835  10.501   7.350
 9013POPC   C1B72247  19.736  10.750   6.450
 9013POPC   C2B72248  19.731  10.756   6.750
 9013POPC   C3B72249  19.694  10.765   7.050
 9013POPC   C4B72250  19.710  10.683   7.350
 9014POPC   NC372251  34.593  42.293   5.550
 9014POPC   PO472252  34.593  42.308   5.850
 9014POPC   GL172253  34.540  42.342   6.150
 9014POPC   GL272254  34.699  42.449   6.150
 9014POPC   C1A72255  34.581  42.357   6.450
 9014POPC   D2A72256  34.543  42.286   6.750
 9014POPC   C3A72257  34.537  42.381   7.050
 9014POPC   C4A72258  34.561  42.335   7.350
 9014POPC   C1B72259  34.798  42.523   6.450
 9014POPC   C2B72260  34.764  42.555   6.750
 9014POPC   C3B72261  34.726  42.532   7.050
 9014POPC   C4B72262  34.774  42.526   7.350
 9015POPC   NC372263  14.396  21.398   5.550
 9015POPC   PO472264  14.370  21.425   5.850
 9015POPC   GL172265  14.385  21.351   6.150
 9015POPC   GL272266  14.472  21.318   6.150
 9015POPC   C1A72267  14.370  21.378   6.450
 9015POPC   D2A72268  14.420  21.431   6.750
 9015POPC   C3A72269  14.426  21.402   7.050
 9015POPC   C4A72270  14.381  21.397   7.350
 9015POPC   C1B72271  14.654  21.288   6.450
 9015POPC   C2B72272  14.649  21.249   6.750
 9015POPC   C3B72273  14.657  21.286   7.050
 9015POPC   C4B72274  14.672  21.255   7.350
 9016POPC   NC372275  22.201   8.969   5.550
 9016POPC   PO472276  22.188   8.988   5.850
 9016POPC   GL172277  22.134   8.946   6.150
 9016POPC   GL272278  22.189   8.854   6.150
 9016POPC   C1A72279  22.170   9.005   6.450
 9016POPC   D2A72280  22.199   8.987   6.750
 9016POPC   C3A72281  22.151   9.011   7.050
 9016POPC   C4A72282  22.175   8.966   7.350
 9016POPC   C1B72283  22.248   8.760   6.450
 9016POPC   C2B72284  22.234   8.698   6.750
 9016POPC   C3B72285  22.208   8.770   7.050
 9016POPC   C4B72286  22.168   8.728   7.350
 9017POPC   NC372287   2.789  24.511   5.550
 9017POPC   PO472288   2.734  24.460   5.850
 9017POPC   GL172289   2.718  24.451   6.150
 9017POPC   GL272290   2.750  24.336   6.150
 9017POPC   C1A72291   2.739  24.442   6.450
 9017POPC   D2A72292   2.783  24.515   6.750
 9017POPC   C3A72293   2.796  24.527   7.050
 9017POPC   C4A72294   2.799  24.444   7.350
 9017POPC   C1B72295   2.626  24.281   6.450
 9017POPC   C2B72296   2.694  24.271   6.750
 9017POPC   C3B72297   2.675  24.222   7.050
 9017POPC   C4B72298   2.620  24.299   7.350
 9018POPC   NC372299  19.836  29.177   5.550
 9018POPC   PO472300  19.810  29.167   5.850
 9018POPC   GL172301  19.789  29.113   6.150
 9018POPC   GL272302  19.806  29.000   6.150
 9018POPC   C1A72303  19.871  29.148   6.450
 9018POPC   D2A72304  19.831  29.113   6.750
 9018POPC   C3A72305  19.876  29.104   7.050
 9018POPC   C4A72306  19.859  29.181   7.350
 9018POPC   C1B72307  19.680  28.891   6.450
 9018POPC   C2B72308  19.766  28.873   6.750
 9018POPC   C3B72309  19.751  28.957   7.050
 9018POPC   C4B72310  19.749  28.913   7.350
 9019POPC   NC372311  19.021   1.237   5.550
 9019POPC   PO472312  19.068   1.189   5.850
 9019POPC   GL172313  19.031   1.245   6.150
 9019POPC   GL272314  19.013   1.378   6.150
 9019POPC   C1A72315  19.066   1.181   6.450
 9019POPC   D2A72316  19.030   1.218   6.750
 9019POPC   C3A72317  19.056   1.192   7.050
 9019POPC   C4A72318  19.086   1.210   7.350
 9019POPC   C1B72319  19.030   1.483   6.450
 9019POPC   C2B72320  18.994   1.436   6.750
 9019POPC   C3B72321  19.064   1.453   7.050
 9019POPC   C4B72322  18.991   1.472   7.350
 9020POPC   NC372323  40.774  12.094   5.550
 9020POPC   PO472324  40.736  12.118   5.850
 9020POPC   GL172325  40.766  12.056   6.150
 9020POPC   GL272326  40.918  11.998   6.150
 9020POPC   C1A72327  40.738  12.046   6.450
 9020POPC   D2A72328  40.802  12.072   6.750
 9020POPC   C3A72329  40.736  12.032   7.050
 9020POPC   C4A72330  40.830  12.097   7.350
 9020POPC   C1B72331  41.007  11.899   6.450
 9020POPC   C2B72332  41.009  11.919   6.750
 9020POPC   C3B72333  40.937  11.871   7.050
 9020POPC   C4B72334  40.936  11.910   7.350
 9021POPC   NC372335  37.705  15.964   5.550
 9021POPC   PO472336  37.702  15.951   5.850
 9021POPC   GL172337  37.698  15.933   6.150
 9021POPC   GL272338  37.682  16.117   6.150
 9021POPC   C1A72339  37.671  15.987   6.450
 9021POPC   D2A72340  37.721  15.999   6.750
 9021POPC   C3A72341  37.719  15.949   7.050
 9021POPC   C4A72342  37.647  15.973   7.350
 9021POPC   C1B72343  37.808  16.234   6.450
 9021POPC   C2B72344  37.806  16.218   6.750
 9021POPC   C3B72345  37.768  16.203   7.050
 9021POPC   C4B72346  37.762  16.200   7.350
 9022POPC   NC372347  24.475  35.333   5.550
 9022POPC   PO472348  24.484  35.340   5.850
 9022POPC   GL172349  24.494  35.369   6.150
 9022POPC   GL272350  24.458  35.202   6.150
 9022POPC   C1A72351  24.461  35.357   6.450
 9022POPC   D2A72352  24.443  35.361   6.750
 9022POPC   C3A72353  24.448  35.338   7.050
 9022POPC   C4A72354  24.488  35.397   7.350
 9022POPC   C1B72355  24.338  35.179   6.450
 9022POPC   C2B72356  24.332  35.135   6.750
 9022POPC   C3B72357  24.385  35.109   7.050
 9022POPC   C4B72358  24.400  35.143   7.350
 9023POPC   NC372359   4.293  25.275   5.550
 9023POPC   PO472360   4.340  25.291   5.850
 9023POPC   GL172361   4.341  25.272   6.150
 9023POPC   GL272362   4.217  25.341   6.150
 9023POPC   C1A72363   4.365  25.309   6.450
 9023POPC   D2A72364   4.344  25.236   6.750
 9023POPC   C3A72365   4.279  25.236   7.050
 9023POPC   C4A72366   4.274  25.220   7.350
 9023POPC   C1B72367   4.083  25.380   6.450
 9023POPC   C2B72368   4.084  25.380   6.750
 9023POPC   C3B72369   4.086  25.422   7.050
 9023POPC   C4B72370   4.101  25.379   7.350
 9024POPC   NC372371   8.171  40.833   5.550
 9024POPC   PO472372   8.241  40.734   5.850
 9024POPC   GL172373   8.148  40.832   6.150
 9024POPC   GL272374   8.268  40.897   6.150
 9024POPC   C1A72375   8.220  40.772   6.450
 9024POPC   D2A72376   8.159  40.763   6.750
 9024POPC   C3A72377   8.238  40.823   7.050
 9024POPC   C4A72378   8.176  40.826   7.350
 9024POPC   C1B72379   8.345  40.989   6.450
 9024POPC   C2B72380   8.358  41.032   6.750
 9024POPC   C3B72381   8.337  40.949   7.050
 9024POPC   C4B72382   8.336  41.015   7.350
 9025POPC   NC372383   5.089  37.651   5.550
 9025POPC   PO472384   5.121  37.659   5.850
 9025POPC   GL172385   5.054  37.713   6.150
 9025POPC   GL272386   5.015  37.581   6.150
 9025POPC   C1A72387   5.085  37.636   6.450
 9025POPC   D2A72388   5.082  37.695   6.750
 9025POPC   C3A72389   5.099  37.671   7.050
 9025POPC   C4A72390   5.124  37.631   7.350
 9025POPC   C1B72391   4.924  37.503   6.450
 9025POPC   C2B72392   4.898  37.500   6.750
 9025POPC   C3B72393   4.912  37.487   7.050
 9025POPC   C4B72394   4.987  37.508   7.350
 9026POPC   NC372395  26.046  21.350   5.550
 9026POPC   PO472396  26.001  21.390   5.850
 9026POPC   GL172397  26.015  21.382   6.150
 9026POPC   GL272398  26.047  21.216   6.150
 9026POPC   C1A72399  26.042  21.378   6.450
 9026POPC   D2A72400  26.014  21.416   6.750
 9026POPC   C3A72401  26.075  21.404   7.050
 9026POPC   C4A72402  26.018  21.360   7.350
 9026POPC   C1B72403  26.089  21.103   6.450
 9026POPC   C2B72404  26.062  21.186   6.750
 9026POPC   C3B72405  26.079  21.100   7.050
 9026POPC   C4B72406  26.053  21.183   7.350
 9027POPC   NC372407  42.357  43.868   5.550
 9027POPC   PO472408  42.364  43.927   5.850
 9027POPC   GL172409  42.334  43.838   6.150
 9027POPC   GL272410  42.163  43.912   6.150
 9027POPC   C1A72411  42.376  43.882   6.450
 9027POPC   D2A72412  42.333  43.864   6.750
 9027POPC   C3A72413  42.285  43.907   7.050
 9027POPC   C4A72414  42.333  43.891   7.350
 9027POPC   C1B72415  42.104  43.822   6.450
 9027POPC   C2B72416  42.051  43.885   6.750
 9027POPC   C3B72417  42.130  43.865   7.050
 9027POPC   C4B72418  42.098  43.809   7.350
 9028POPC   NC372419  36.104  40.830   5.550
 9028POPC   PO472420  36.079  40.794   5.850
 9028POPC   GL172421  36.147  40.805   6.150
 9028POPC   GL272422  36.250  40.721   6.150
 9028POPC   C1A72423  36.108  40.819   6.450
 9028POPC   D2A72424  36.146  40.756   6.750
 9028POPC   C3A72425  36.142  40.765   7.050
 9028POPC   C4A72426  36.083  40.747   7.350
 9028POPC   C1B72427  36.323  40.575   6.450
 9028POPC   C2B72428  36.316  40.644   6.750
 9028POPC   C3B72429  36.282  40.572   7.050
 9028POPC   C4B72430  36.268  40.581   7.350
 9029POPC   NC372431  17.517  22.889   5.550
 9029POPC   PO472432  17.551  22.948   5.850
 9029POPC   GL172433  17.530  22.913   6.150
 9029POPC   GL272434  17.371  22.877   6.150
 9029POPC   C1A72435  17.531  22.945   6.450
 9029POPC   D2A72436  17.503  22.977   6.750
 9029POPC   C3A72437  17.523  22.911   7.050
 9029POPC   C4A72438  17.551  22.924   7.350
 9029POPC   C1B72439  17.257  22.942   6.450
 9029POPC   C2B72440  17.246  22.859   6.750
 9029POPC   C3B72441  17.264  22.888   7.050
 9029POPC   C4B72442  17.231  22.897   7.350
 9030POPC   NC372443  12.879  22.939   5.550
 9030POPC   PO472444  12.834  22.970   5.850
 9030POPC   GL172445  12.890  22.891   6.150
 9030POPC   GL272446  12.833  22.861   6.150
 9030POPC   C1A72447  12.899  22.974   6.450
 9030POPC   D2A72448  12.838  22.947   6.750
 9030POPC   C3A72449  12.829  22.916   7.050
 9030POPC   C4A72450  12.881  22.912   7.350
 9030POPC   C1B72451  12.847  22.666   6.450
 9030POPC   C2B72452  12.837  22.646   6.750
 9030POPC   C3B72453  12.802  22.675   7.050
 9030POPC   C4B72454  12.792  22.731   7.350
 9031POPC   NC372455  23.726  36.146   5.550
 9031POPC   PO472456  23.667  36.125   5.850
 9031POPC   GL172457  23.672  36.098   6.150
 9031POPC   GL272458  23.728  36.298   6.150
 9031POPC   C1A72459  23.723  36.177   6.450
 9031POPC   D2A72460  23.743  36.088   6.750
 9031POPC   C3A72461  23.731  36.152   7.050
 9031POPC   C4A72462  23.705  36.083   7.350
 9031POPC   C1B72463  23.785  36.397   6.450
 9031POPC   C2B72464  23.727  36.347   6.750
 9031POPC   C3B72465  23.783  36.423   7.050
 9031POPC   C4B72466  23.764  36.357   7.350
 9032POPC   NC372467  26.850  12.051   5.550
 9032POPC   PO472468  26.797  12.092   5.850
 9032POPC   GL172469  26.773  12.050   6.150
 9032POPC   GL272470  26.710  12.173   6.150
 9032POPC   C1A72471  26.769  12.119   6.450
 9032POPC   D2A72472  26.865  12.041   6.750
 9032POPC   C3A72473  26.778  12.089   7.050
 9032POPC   C4A72474  26.800  12.091   7.350
 9032POPC   C1B72475  26.721  12.250   6.450
 9032POPC   C2B72476  26.643  12.257   6.750
 9032POPC   C3B72477  26.641  12.315   7.050
 9032POPC   C4B72478  26.641  12.270   7.350
 9033POPC   NC372479  36.857  42.345   5.550
 9033POPC   PO472480  36.913  42.340   5.850
 9033POPC   GL172481  36.901  42.298   6.150
 9033POPC   GL272482  37.042  42.333   6.150
 9033POPC   C1A72483  36.921  42.293   6.450
 9033POPC   D2A72484  36.911  42.321   6.750
 9033POPC   C3A72485  36.937  42.324   7.050
 9033POPC   C4A72486  36.908  42.362   7.350
 9033POPC   C1B72487  37.109  42.360   6.450
 9033POPC   C2B72488  37.178  42.385   6.750
 9033POPC   C3B72489  37.185  42.422   7.050
 9033POPC   C4B72490  37.137  42.405   7.350
 9034POPC   NC372491  19.050  22.138   5.550
 9034POPC   PO472492  19.031  22.196   5.850
 9034POPC   GL172493  19.050  22.134   6.150
 9034POPC   GL272494  19.067  22.036   6.150
 9034POPC   C1A72495  19.088  22.158   6.450
 9034POPC   D2A72496  19.074  22.133   6.750
 9034POPC   C3A72497  19.080  22.154   7.050
 9034POPC   C4A72498  19.088  22.186   7.350
 9034POPC   C1B72499  19.041  21.876   6.450
 9034POPC   C2B72500  19.031  21.953   6.750
 9034POPC   C3B72501  19.030  21.911   7.050
 9034POPC   C4B72502  19.001  21.944   7.350
 9035POPC   NC372503  26.077  44.704   5.550
 9035POPC   PO472504  26.031  44.632   5.850
 9035POPC   GL172505  26.040  44.660   6.150
 9035POPC   GL272506  25.945  44.516   6.150
 9035POPC   C1A72507  26.086  44.692   6.450
 9035POPC   D2A72508  26.061  44.663   6.750
 9035POPC   C3A72509  26.004  44.670   7.050
 9035POPC   C4A72510  26.003  44.632   7.350
 9035POPC   C1B72511  25.977  44.397   6.450
 9035POPC   C2B72512  25.950  44.394   6.750
 9035POPC   C3B72513  25.922  44.391   7.050
 9035POPC   C4B72514  25.946  44.474   7.350
 9036POPC   NC372515  12.871   7.444   5.550
 9036POPC   PO472516  12.900   7.442   5.850
 9036POPC   GL172517  12.832   7.393   6.150
 9036POPC   GL272518  12.814   7.294   6.150
 9036POPC   C1A72519  12.846   7.432   6.450
 9036POPC   D2A72520  12.887   7.378   6.750
 9036POPC   C3A72521  12.808   7.408   7.050
 9036POPC   C4A72522  12.849   7.428   7.350
 9036POPC   C1B72523  12.834   7.211   6.450
 9036POPC   C2B72524  12.872   7.189   6.750
 9036POPC   C3B72525  12.862   7.131   7.050
 9036POPC   C4B72526  12.884   7.156   7.350
 9037POPC   NC372527   9.744  14.450   5.550
 9037POPC   PO472528   9.782  14.385   5.850
 9037POPC   GL172529   9.743  14.388   6.150
 9037POPC   GL272530   9.717  14.304   6.150
 9037POPC   C1A72531   9.728  14.405   6.450
 9037POPC   D2A72532   9.705  14.427   6.750
 9037POPC   C3A72533   9.714  14.379   7.050
 9037POPC   C4A72534   9.775  14.367   7.350
 9037POPC   C1B72535   9.708  14.173   6.450
 9037POPC   C2B72536   9.691  14.164   6.750
 9037POPC   C3B72537   9.736  14.197   7.050
 9037POPC   C4B72538   9.668  14.183   7.350
 9038POPC   NC372539  24.518   8.935   5.550
 9038POPC   PO472540  24.453   9.021   5.850
 9038POPC   GL172541  24.463   9.021   6.150
 9038POPC   GL272542  24.454   9.063   6.150
 9038POPC   C1A72543  24.452   8.999   6.450
 9038POPC   D2A72544  24.474   8.992   6.750
 9038POPC   C3A72545  24.444   9.009   7.050
 9038POPC   C4A72546  24.442   8.981   7.350
 9038POPC   C1B72547  24.504   9.229   6.450
 9038POPC   C2B72548  24.496   9.173   6.750
 9038POPC   C3B72549  24.433   9.258   7.050
 9038POPC   C4B72550  24.464   9.270   7.350
 9039POPC   NC372551   7.404  29.102   5.550
 9039POPC   PO472552   7.423  29.175   5.850
 9039POPC   GL172553   7.423  29.140   6.150
 9039POPC   GL272554   7.330  29.244   6.150
 9039POPC   C1A72555   7.463  29.141   6.450
 9039POPC   D2A72556   7.374  29.152   6.750
 9039POPC   C3A72557   7.371  29.158   7.050
 9039POPC   C4A72558   7.437  29.191   7.350
 9039POPC   C1B72559   7.305  29.364   6.450
 9039POPC   C2B72560   7.255  29.303   6.750
 9039POPC   C3B72561   7.279  29.344   7.050
 9039POPC   C4B72562   7.296  29.369   7.350
 9040POPC   NC372563  15.157  22.928   5.550
 9040POPC   PO472564  15.190  22.953   5.850
 9040POPC   GL172565  15.136  22.906   6.150
 9040POPC   GL272566  15.265  23.088   6.150
 9040POPC   C1A72567  15.164  22.957   6.450
 9040POPC   D2A72568  15.222  22.969   6.750
 9040POPC   C3A72569  15.188  22.955   7.050
 9040POPC   C4A72570  15.206  22.976   7.350
 9040POPC   C1B72571  15.261  23.175   6.450
 9040POPC   C2B72572  15.273  23.139   6.750
 9040POPC   C3B72573  15.259  23.139   7.050
 9040POPC   C4B72574  15.280  23.184   7.350
 9041POPC   NC372575   4.357  11.291   5.550
 9041POPC   PO472576   4.334  11.289   5.850
 9041POPC   GL172577   4.355  11.320   6.150
 9041POPC   GL272578   4.472  11.298   6.150
 9041POPC   C1A72579   4.331  11.280   6.450
 9041POPC   D2A72580   4.340  11.292   6.750
 9041POPC   C3A72581   4.302  11.256   7.050
 9041POPC   C4A72582   4.316  11.262   7.350
 9041POPC   C1B72583   4.530  11.360   6.450
 9041POPC   C2B72584   4.541  11.355   6.750
 9041POPC   C3B72585   4.514  11.372   7.050
 9041POPC   C4B72586   4.542  11.438   7.350
 9042POPC   NC372587  18.272  26.823   5.550
 9042POPC   PO472588  18.329  26.865   5.850
 9042POPC   GL172589  18.293  26.794   6.150
 9042POPC   GL272590  18.221  26.711   6.150
 9042POPC   C1A72591  18.283  26.866   6.450
 9042POPC   D2A72592  18.292  26.848   6.750
 9042POPC   C3A72593  18.278  26.843   7.050
 9042POPC   C4A72594  18.291  26.821   7.350
 9042POPC   C1B72595  18.207  26.604   6.450
 9042POPC   C2B72596  18.216  26.549   6.750
 9042POPC   C3B72597  18.219  26.560   7.050
 9042POPC   C4B72598  18.291  26.556   7.350
 9043POPC   NC372599  27.564  25.286   5.550
 9043POPC   PO472600  27.588  25.263   5.850
 9043POPC   GL172601  27.546  25.290   6.150
 9043POPC   GL272602  27.647  25.217   6.150
 9043POPC   C1A72603  27.548  25.266   6.450
 9043POPC   D2A72604  27.579  25.278   6.750
 9043POPC   C3A72605  27.636  25.261   7.050
 9043POPC   C4A72606  27.567  25.266   7.350
 9043POPC   C1B72607  27.821  25.151   6.450
 9043POPC   C2B72608  27.763  25.152   6.750
 9043POPC   C3B72609  27.789  25.070   7.050
 9043POPC   C4B72610  27.762  25.098   7.350
 9044POPC   NC372611  13.592   2.014   5.550
 9044POPC   PO472612  13.653   1.950   5.850
 9044POPC   GL172613  13.633   2.025   6.150
 9044POPC   GL272614  13.759   1.871   6.150
 9044POPC   C1A72615  13.590   1.944   6.450
 9044POPC   D2A72616  13.610   1.967   6.750
 9044POPC   C3A72617  13.613   1.993   7.050
 9044POPC   C4A72618  13.653   2.035   7.350
 9044POPC   C1B72619  13.827   1.826   6.450
 9044POPC   C2B72620  13.848   1.802   6.750
 9044POPC   C3B72621  13.865   1.880   7.050
 9044POPC   C4B72622  13.796   1.873   7.350
 9045POPC   NC372623  31.491  16.733   5.550
 9045POPC   PO472624  31.472  16.775   5.850
 9045POPC   GL172625  31.522  16.772   6.150
 9045POPC   GL272626  31.430  16.568   6.150
 9045POPC   C1A72627  31.482  16.761   6.450
 9045POPC   D2A72628  31.428  16.701   6.750
 9045POPC   C3A72629  31.504  16.712   7.050
 9045POPC   C4A72630  31.516  16.723   7.350
 9045POPC   C1B72631  31.514  16.483   6.450
 9045POPC   C2B72632  31.471  16.515   6.750
 9045POPC   C3B72633  31.534  16.515   7.050
 9045POPC   C4B72634  31.492  16.450   7.350
 9046POPC   NC372635   3.553   2.021   5.550
 9046POPC   PO472636   3.505   1.947   5.850
 9046POPC   GL172637   3.557   2.002   6.150
 9046POPC   GL272638   3.677   1.958   6.150
 9046POPC   C1A72639   3.553   1.987   6.450
 9046POPC   D2A72640   3.503   1.953   6.750
 9046POPC   C3A72641   3.579   1.964   7.050
 9046POPC   C4A72642   3.540   2.033   7.350
 9046POPC   C1B72643   3.733   1.829   6.450
 9046POPC   C2B72644   3.766   1.898   6.750
 9046POPC   C3B72645   3.813   1.825   7.050
 9046POPC   C4B72646   3.801   1.866   7.350
 9047POPC   NC372647  19.064  28.393   5.550
 9047POPC   PO472648  19.014  28.349   5.850
 9047POPC   GL172649  19.042  28.379   6.150
 9047POPC   GL272650  19.136  28.393   6.150
 9047POPC   C1A72651  19.086  28.373   6.450
 9047POPC   D2A72652  19.057  28.326   6.750
 9047POPC   C3A72653  19.017  28.396   7.050
 9047POPC   C4A72654  19.032  28.379   7.350
 9047POPC   C1B72655  19.335  28.411   6.450
 9047POPC   C2B72656  19.335  28.445   6.750
 9047POPC   C3B72657  19.285  28.417   7.050
 9047POPC   C4B72658  19.320  28.422   7.350
 9048POPC   NC372659  15.936  23.668   5.550
 9048POPC   PO472660  15.953  23.746   5.850
 9048POPC   GL172661  15.963  23.696   6.150
 9048POPC   GL272662  15.878  23.794   6.150
 9048POPC   C1A72663  15.947  23.726   6.450
 9048POPC   D2A72664  15.983  23.763   6.750
 9048POPC   C3A72665  15.981  23.700   7.050
 9048POPC   C4A72666  15.929  23.755   7.350
 9048POPC   C1B72667  15.744  23.907   6.450
 9048POPC   C2B72668  15.741  23.882   6.750
 9048POPC   C3B72669  15.752  23.921   7.050
 9048POPC   C4B72670  15.803  23.883   7.350
 9049POPC   NC372671  43.078  31.492   5.550
 9049POPC   PO472672  43.096  31.465   5.850
 9049POPC   GL172673  43.128  31.490   6.150
 9049POPC   GL272674  43.186  31.376   6.150
 9049POPC   C1A72675  43.140  31.481   6.450
 9049POPC   D2A72676  43.153  31.505   6.750
 9049POPC   C3A72677  43.082  31.514   7.050
 9049POPC   C4A72678  43.091  31.494   7.350
 9049POPC   C1B72679  43.216  31.253   6.450
 9049POPC   C2B72680  43.155  31.213   6.750
 9049POPC   C3B72681  43.198  31.248   7.050
 9049POPC   C4B72682  43.224  31.199   7.350
 9050POPC   NC372683   5.909  10.513   5.550
 9050POPC   PO472684   5.846  10.560   5.850
 9050POPC   GL172685   5.876  10.531   6.150
 9050POPC   GL272686   5.946  10.662   6.150
 9050POPC   C1A72687   5.867  10.526   6.450
 9050POPC   D2A72688   5.853  10.479   6.750
 9050POPC   C3A72689   5.838  10.501   7.050
 9050POPC   C4A72690   5.857  10.524   7.350
 9050POPC   C1B72691   6.028  10.749   6.450
 9050POPC   C2B72692   5.976  10.744   6.750
 9050POPC   C3B72693   6.022  10.723   7.050
 9050POPC   C4B72694   5.963  10.715   7.350
 9051POPC   NC372695  37.643  13.587   5.550
 9051POPC   PO472696  37.715  13.618   5.850
 9051POPC   GL172697  37.710  13.624   6.150
 9051POPC   GL272698  37.694  13.763   6.150
 9051POPC   C1A72699  37.666  13.676   6.450
 9051POPC   D2A72700  37.698  13.677   6.750
 9051POPC   C3A72701  37.630  13.580   7.050
 9051POPC   C4A72702  37.650  13.654   7.350
 9051POPC   C1B72703  37.694  13.842   6.450
 9051POPC   C2B72704  37.700  13.834   6.750
 9051POPC   C3B72705  37.736  13.889   7.050
 9051POPC   C4B72706  37.676  13.896   7.350
 9052POPC   NC372707  40.816  41.520   5.550
 9052POPC   PO472708  40.742  41.602   5.850
 9052POPC   GL172709  40.777  41.590   6.150
 9052POPC   GL272710  40.860  41.626   6.150
 9052POPC   C1A72711  40.772  41.602   6.450
 9052POPC   D2A72712  40.824  41.558   6.750
 9052POPC   C3A72713  40.781  41.568   7.050
 9052POPC   C4A72714  40.818  41.536   7.350
 9052POPC   C1B72715  41.052  41.673   6.450
 9052POPC   C2B72716  41.030  41.633   6.750
 9052POPC   C3B72717  40.989  41.656   7.050
 9052POPC   C4B72718  40.983  41.662   7.350
 9053POPC   NC372719  34.527  30.661   5.550
 9053POPC   PO472720  34.624  30.731   5.850
 9053POPC   GL172721  34.600  30.733   6.150
 9053POPC   GL272722  34.448  30.618   6.150
 9053POPC   C1A72723  34.527  30.648   6.450
 9053POPC   D2A72724  34.561  30.731   6.750
 9053POPC   C3A72725  34.542  30.659   7.050
 9053POPC   C4A72726  34.568  30.650   7.350
 9053POPC   C1B72727  34.333  30.612   6.450
 9053POPC   C2B72728  34.379  30.624   6.750
 9053POPC   C3B72729  34.370  30.584   7.050
 9053POPC   C4B72730  34.319  30.614   7.350
 9054POPC   NC372731   9.018  15.938   5.550
 9054POPC   PO472732   9.014  15.925   5.850
 9054POPC   GL172733   8.943  15.945   6.150
 9054POPC   GL272734   9.107  15.943   6.150
 9054POPC   C1A72735   8.995  15.982   6.450
 9054POPC   D2A72736   8.928  15.930   6.750
 9054POPC   C3A72737   8.933  15.963   7.050
 9054POPC   C4A72738   8.974  15.991   7.350
 9054POPC   C1B72739   9.181  15.918   6.450
 9054POPC   C2B72740   9.216  15.972   6.750
 9054POPC   C3B72741   9.190  15.969   7.050
 9054POPC   C4B72742   9.234  15.892   7.350
 9055POPC   NC372743  27.598  30.725   5.550
 9055POPC   PO472744  27.587  30.647   5.850
 9055POPC   GL172745  27.601  30.691   6.150
 9055POPC   GL272746  27.474  30.630   6.150
 9055POPC   C1A72747  27.579  30.698   6.450
 9055POPC   D2A72748  27.638  30.726   6.750
 9055POPC   C3A72749  27.638  30.662   7.050
 9055POPC   C4A72750  27.571  30.687   7.350
 9055POPC   C1B72751  27.459  30.535   6.450
 9055POPC   C2B72752  27.457  30.486   6.750
 9055POPC   C3B72753  27.388  30.461   7.050
 9055POPC   C4B72754  27.475  30.514   7.350
 9056POPC   NC372755  29.131  25.262   5.550
 9056POPC   PO472756  29.192  25.277   5.850
 9056POPC   GL172757  29.157  25.249   6.150
 9056POPC   GL272758  29.064  25.385   6.150
 9056POPC   C1A72759  29.181  25.284   6.450
 9056POPC   D2A72760  29.178  25.286   6.750
 9056POPC   C3A72761  29.155  25.294   7.050
 9056POPC   C4A72762  29.097  25.301   7.350
 9056POPC   C1B72763  28.996  25.429   6.450
 9056POPC   C2B72764  28.901  25.448   6.750
 9056POPC   C3B72765  28.968  25.388   7.050
 9056POPC   C4B72766  28.972  25.417   7.350
 9057POPC   NC372767   9.767  17.528   5.550
 9057POPC   PO472768   9.786  17.518   5.850
 9057POPC   GL172769   9.735  17.518   6.150
 9057POPC   GL272770   9.824  17.461   6.150
 9057POPC   C1A72771   9.714  17.512   6.450
 9057POPC   D2A72772   9.726  17.482   6.750
 9057POPC   C3A72773   9.794  17.495   7.050
 9057POPC   C4A72774   9.705  17.542   7.350
 9057POPC   C1B72775   9.908  17.323   6.450
 9057POPC   C2B72776   9.912  17.383   6.750
 9057POPC   C3B72777   9.993  17.336   7.050
 9057POPC   C4B72778   9.965  17.318   7.350
 9058POPC   NC372779  15.144  13.640   5.550
 9058POPC   PO472780  15.217  13.675   5.850
 9058POPC   GL172781  15.141  13.582   6.150
 9058POPC   GL272782  15.109  13.505   6.150
 9058POPC   C1A72783  15.196  13.671   6.450
 9058POPC   D2A72784  15.135  13.639   6.750
 9058POPC   C3A72785  15.199  13.615   7.050
 9058POPC   C4A72786  15.132  13.620   7.350
 9058POPC   C1B72787  14.976  13.469   6.450
 9058POPC   C2B72788  15.026  13.478   6.750
 9058POPC   C3B72789  15.023  13.470   7.050
 9058POPC   C4B72790  15.016  13.450   7.350
 9059POPC   NC372791   3.505  22.982   5.550
 9059POPC   PO472792   3.584  22.965   5.850
 9059POPC   GL172793   3.494  22.918   6.150
 9059POPC   GL272794   3.375  23.005   6.150
 9059POPC   C1A72795   3.560  22.898   6.450
 9059POPC   D2A72796   3.515  22.933   6.750
 9059POPC   C3A72797   3.501  22.901   7.050
 9059POPC   C4A72798   3.506  22.946   7.350
 9059POPC   C1B72799   3.285  22.999   6.450
 9059POPC   C2B72800   3.319  23.048   6.750
 9059POPC   C3B72801   3.335  23.009   7.050
 9059POPC   C4B72802   3.286  23.007   7.350
 9060POPC   NC372803   5.841  33.006   5.550
 9060POPC   PO472804   5.918  33.012   5.850
 9060POPC   GL172805   5.837  33.062   6.150
 9060POPC   GL272806   5.959  32.977   6.150
 9060POPC   C1A72807   5.860  33.042   6.450
 9060POPC   D2A72808   5.867  33.010   6.750
 9060POPC   C3A72809   5.908  32.992   7.050
 9060POPC   C4A72810   5.841  33.006   7.350
 9060POPC   C1B72811   6.087  32.912   6.450
 9060POPC   C2B72812   6.077  32.886   6.750
 9060POPC   C3B72813   6.137  32.959   7.050
 9060POPC   C4B72814   6.062  32.918   7.350
 9061POPC   NC372815  12.802  12.044   5.550
 9061POPC   PO472816  12.854  12.070   5.850
 9061POPC   GL172817  12.878  12.090   6.150
 9061POPC   GL272818  12.740  12.023   6.150
 9061POPC   C1A72819  12.812  12.041   6.450
 9061POPC   D2A72820  12.824  12.120   6.750
 9061POPC   C3A72821  12.833  12.079   7.050
 9061POPC   C4A72822  12.830  12.056   7.350
 9061POPC   C1B72823  12.601  12.047   6.450
 9061POPC   C2B72824  12.609  12.022   6.750
 9061POPC   C3B72825  12.579  12.094   7.050
 9061POPC   C4B72826  12.597  12.097   7.350
 9062POPC   NC372827  30.743  43.109   5.550
 9062POPC   PO472828  30.652  43.154   5.850
 9062POPC   GL172829  30.725  43.092   6.150
 9062POPC   GL272830  30.776  43.243   6.150
 9062POPC   C1A72831  30.708  43.065   6.450
 9062POPC   D2A72832  30.737  43.127   6.750
 9062POPC   C3A72833  30.692  43.135   7.050
 9062POPC   C4A72834  30.701  43.082   7.350
 9062POPC   C1B72835  30.834  43.304   6.450
 9062POPC   C2B72836  30.854  43.308   6.750
 9062POPC   C3B72837  30.795  43.356   7.050
 9062POPC   C4B72838  30.834  43.276   7.350
 9063POPC   NC372839  13.673  26.013   5.550
 9063POPC   PO472840  13.609  26.086   5.850
 9063POPC   GL172841  13.618  26.036   6.150
 9063POPC   GL272842  13.613  25.870   6.150
 9063POPC   C1A72843  13.635  26.043   6.450
 9063POPC   D2A72844  13.579  26.078   6.750
 9063POPC   C3A72845  13.602  25.992   7.050
 9063POPC   C4A72846  13.634  26.001   7.350
 9063POPC   C1B72847  13.637  25.757   6.450
 9063POPC   C2B72848  13.625  25.830   6.750
 9063POPC   C3B72849  13.630  25.758   7.050
 9063POPC   C4B72850  13.662  25.837   7.350
 9064POPC   NC372851  12.856   5.060   5.550
 9064POPC   PO472852  12.808   5.068   5.850
 9064POPC   GL172853  12.884   5.061   6.150
 9064POPC   GL272854  12.847   4.966   6.150
 9064POPC   C1A72855  12.866   5.094   6.450
 9064POPC   D2A72856  12.823   5.093   6.750
 9064POPC   C3A72857  12.828   5.133   7.050
 9064POPC   C4A72858  12.807   5.135   7.350
 9064POPC   C1B72859  12.749   4.812   6.450
 9064POPC   C2B72860  12.783   4.887   6.750
 9064POPC   C3B72861  12.811   4.832   7.050
 9064POPC   C4B72862  12.830   4.818   7.350
 9065POPC   NC372863  38.427   3.581   5.550
 9065POPC   PO472864  38.447   3.521   5.850
 9065POPC   GL172865  38.441   3.573   6.150
 9065POPC   GL272866  38.550   3.431   6.150
 9065POPC   C1A72867  38.417   3.521   6.450
 9065POPC   D2A72868  38.454   3.591   6.750
 9065POPC   C3A72869  38.502   3.545   7.050
 9065POPC   C4A72870  38.482   3.544   7.350
 9065POPC   C1B72871  38.606   3.317   6.450
 9065POPC   C2B72872  38.663   3.335   6.750
 9065POPC   C3B72873  38.587   3.370   7.050
 9065POPC   C4B72874  38.643   3.386   7.350
 9066POPC   NC372875  12.080  28.322   5.550
 9066POPC   PO472876  12.068  28.401   5.850
 9066POPC   GL172877  12.090  28.320   6.150
 9066POPC   GL272878  12.031  28.518   6.150
 9066POPC   C1A72879  12.051  28.357   6.450
 9066POPC   D2A72880  12.027  28.384   6.750
 9066POPC   C3A72881  12.037  28.323   7.050
 9066POPC   C4A72882  12.074  28.403   7.350
 9066POPC   C1B72883  11.935  28.626   6.450
 9066POPC   C2B72884  11.978  28.552   6.750
 9066POPC   C3B72885  11.975  28.628   7.050
 9066POPC   C4B72886  11.962  28.637   7.350
 9067POPC   NC372887  33.822  23.675   5.550
 9067POPC   PO472888  33.787  23.755   5.850
 9067POPC   GL172889  33.782  23.749   6.150
 9067POPC   GL272890  33.758  23.840   6.150
 9067POPC   C1A72891  33.773  23.753   6.450
 9067POPC   D2A72892  33.788  23.691   6.750
 9067POPC   C3A72893  33.752  23.701   7.050
 9067POPC   C4A72894  33.789  23.688   7.350
 9067POPC   C1B72895  33.673  23.888   6.450
 9067POPC   C2B72896  33.670  23.883   6.750
 9067POPC   C3B72897  33.658  23.890   7.050
 9067POPC   C4B72898  33.607  23.927   7.350
 9068POPC   NC372899  39.281  27.602   5.550
 9068POPC   PO472900  39.275  27.554   5.850
 9068POPC   GL172901  39.281  27.605   6.150
 9068POPC   GL272902  39.355  27.492   6.150
 9068POPC   C1A72903  39.248  27.550   6.450
 9068POPC   D2A72904  39.199  27.627   6.750
 9068POPC   C3A72905  39.236  27.602   7.050
 9068POPC   C4A72906  39.274  27.608   7.350
 9068POPC   C1B72907  39.436  27.440   6.450
 9068POPC   C2B72908  39.455  27.442   6.750
 9068POPC   C3B72909  39.431  27.441   7.050
 9068POPC   C4B72910  39.460  27.517   7.350
 9069POPC   NC372911   1.950  13.658   5.550
 9069POPC   PO472912   1.981  13.664   5.850
 9069POPC   GL172913   1.992  13.601   6.150
 9069POPC   GL272914   2.063  13.720   6.150
 9069POPC   C1A72915   2.026  13.654   6.450
 9069POPC   D2A72916   1.996  13.674   6.750
 9069POPC   C3A72917   2.029  13.611   7.050
 9069POPC   C4A72918   2.011  13.636   7.350
 9069POPC   C1B72919   2.174  13.870   6.450
 9069POPC   C2B72920   2.104  13.829   6.750
 9069POPC   C3B72921   2.137  13.824   7.050
 9069POPC   C4B72922   2.108  13.828   7.350
 9070POPC   NC372923  19.089   8.948   5.550
 9070POPC   PO472924  19.104   8.944   5.850
 9070POPC   GL172925  19.083   8.976   6.150
 9070POPC   GL272926  18.972   8.930   6.150
 9070POPC   C1A72927  19.062   8.951   6.450
 9070POPC   D2A72928  19.081   8.937   6.750
 9070POPC   C3A72929  19.082   8.926   7.050
 9070POPC   C4A72930  19.081   8.940   7.350
 9070POPC   C1B72931  18.829   8.954   6.450
 9070POPC   C2B72932  18.823   8.942   6.750
 9070POPC   C3B72933  18.850   8.862   7.050
 9070POPC   C4B72934  18.829   8.919   7.350
 9071POPC   NC372935  37.657   0.474   5.550
 9071POPC   PO472936  37.681   0.477   5.850
 9071POPC   GL172937  37.682   0.465   6.150
 9071POPC   GL272938  37.577   0.536   6.150
 9071POPC   C1A72939  37.651   0.448   6.450
 9071POPC   D2A72940  37.695   0.431   6.750
 9071POPC   C3A72941  37.691   0.390   7.050
 9071POPC   C4A72942  37.699   0.397   7.350
 9071POPC   C1B72943  37.524   0.593   6.450
 9071POPC   C2B72944  37.524   0.601   6.750
 9071POPC   C3B72945  37.506   0.598   7.050
 9071POPC   C4B72946  37.450   0.608   7.350
 9072POPC   NC372947  21.406  36.902   5.550
 9072POPC   PO472948  21.347  36.895   5.850
 9072POPC   GL172949  21.432  36.930   6.150
 9072POPC   GL272950  21.437  36.965   6.150
 9072POPC   C1A72951  21.405  36.861   6.450
 9072POPC   D2A72952  21.411  36.942   6.750
 9072POPC   C3A72953  21.361  36.864   7.050
 9072POPC   C4A72954  21.415  36.892   7.350
 9072POPC   C1B72955  21.569  37.106   6.450
 9072POPC   C2B72956  21.595  37.122   6.750
 9072POPC   C3B72957  21.548  37.111   7.050
 9072POPC   C4B72958  21.519  37.119   7.350
 9073POPC   NC372959  23.665   8.241   5.550
 9073POPC   PO472960  23.694   8.234   5.850
 9073POPC   GL172961  23.689   8.232   6.150
 9073POPC   GL272962  23.612   8.302   6.150
 9073POPC   C1A72963  23.754   8.159   6.450
 9073POPC   D2A72964  23.724   8.162   6.750
 9073POPC   C3A72965  23.727   8.230   7.050
 9073POPC   C4A72966  23.758   8.230   7.350
 9073POPC   C1B72967  23.600   8.442   6.450
 9073POPC   C2B72968  23.561   8.434   6.750
 9073POPC   C3B72969  23.523   8.355   7.050
 9073POPC   C4B72970  23.594   8.437   7.350
 9074POPC   NC372971  32.287   0.411   5.550
 9074POPC   PO472972  32.201   0.453   5.850
 9074POPC   GL172973  32.250   0.481   6.150
 9074POPC   GL272974  32.173   0.520   6.150
 9074POPC   C1A72975  32.204   0.484   6.450
 9074POPC   D2A72976  32.215   0.435   6.750
 9074POPC   C3A72977  32.245   0.414   7.050
 9074POPC   C4A72978  32.278   0.482   7.350
 9074POPC   C1B72979  32.036   0.575   6.450
 9074POPC   C2B72980  32.085   0.595   6.750
 9074POPC   C3B72981  32.006   0.607   7.050
 9074POPC   C4B72982  32.054   0.623   7.350
 9075POPC   NC372983  37.716  16.776   5.550
 9075POPC   PO472984  37.714  16.772   5.850
 9075POPC   GL172985  37.694  16.758   6.150
 9075POPC   GL272986  37.769  16.665   6.150
 9075POPC   C1A72987  37.680  16.777   6.450
 9075POPC   D2A72988  37.664  16.743   6.750
 9075POPC   C3A72989  37.673  16.687   7.050
 9075POPC   C4A72990  37.706  16.764   7.350
 9075POPC   C1B72991  37.798  16.501   6.450
 9075POPC   C2B72992  37.850  16.554   6.750
 9075POPC   C3B72993  37.784  16.543   7.050
 9075POPC   C4B72994  37.821  16.504   7.350
 9076POPC   NC372995   0.422  40.772   5.550
 9076POPC   PO472996   0.412  40.831   5.850
 9076POPC   GL172997   0.396  40.775   6.150
 9076POPC   GL272998   0.566  40.860   6.150
 9076POPC   C1A72999   0.481  40.737   6.450
 9076POPC   D2A73000   0.454  40.765   6.750
 9076POPC   C3A73001   0.429  40.810   7.050
 9076POPC   C4A73002   0.456  40.743   7.350
 9076POPC   C1B73003   0.616  40.915   6.450
 9076POPC   C2B73004   0.694  40.927   6.750
 9076POPC   C3B73005   0.681  40.864   7.050
 9076POPC   C4B73006   0.679  40.850   7.350
 9077POPC   NC373007  41.522  30.656   5.550
 9077POPC   PO473008  41.538  30.727   5.850
 9077POPC   GL173009  41.510  30.689   6.150
 9077POPC   GL273010  41.562  30.834   6.150
 9077POPC   C1A73011  41.598  30.702   6.450
 9077POPC   D2A73012  41.520  30.743   6.750
 9077POPC   C3A73013  41.582  30.736   7.050
 9077POPC   C4A73014  41.523  30.722   7.350
 9077POPC   C1B73015  41.557  30.927   6.450
 9077POPC   C2B73016  41.535  30.977   6.750
 9077POPC   C3B73017  41.544  30.971   7.050
 9077POPC   C4B73018  41.533  30.995   7.350
 9078POPC   NC373019  12.850  31.452   5.550
 9078POPC   PO473020  12.841  31.520   5.850
 9078POPC   GL173021  12.898  31.456   6.150
 9078POPC   GL273022  12.795  31.594   6.150
 9078POPC   C1A73023  12.857  31.516   6.450
 9078POPC   D2A73024  12.857  31.426   6.750
 9078POPC   C3A73025  12.820  31.425   7.050
 9078POPC   C4A73026  12.899  31.437   7.350
 9078POPC   C1B73027  12.723  31.665   6.450
 9078POPC   C2B73028  12.706  31.641   6.750
 9078POPC   C3B73029  12.690  31.694   7.050
 9078POPC   C4B73030  12.651  31.651   7.350
 9079POPC   NC373031   9.704  26.082   5.550
 9079POPC   PO473032   9.733  26.068   5.850
 9079POPC   GL173033   9.776  26.034   6.150
 9079POPC   GL273034   9.760  26.141   6.150
 9079POPC   C1A73035   9.740  26.032   6.450
 9079POPC   D2A73036   9.797  26.015   6.750
 9079POPC   C3A73037   9.795  26.084   7.050
 9079POPC   C4A73038   9.788  26.046   7.350
 9079POPC   C1B73039   9.662  26.319   6.450
 9079POPC   C2B73040   9.725  26.286   6.750
 9079POPC   C3B73041   9.660  26.328   7.050
 9079POPC   C4B73042   9.688  26.310   7.350
 9080POPC   NC373043  40.040   9.702   5.550
 9080POPC   PO473044  39.986   9.715   5.850
 9080POPC   GL173045  39.998   9.721   6.150
 9080POPC   GL273046  39.966   9.611   6.150
 9080POPC   C1A73047  39.971   9.785   6.450
 9080POPC   D2A73048  40.030   9.712   6.750
 9080POPC   C3A73049  39.961   9.722   7.050
 9080POPC   C4A73050  40.039   9.743   7.350
 9080POPC   C1B73051  39.833   9.485   6.450
 9080POPC   C2B73052  39.876   9.559   6.750
 9080POPC   C3B73053  39.879   9.582   7.050
 9080POPC   C4B73054  39.885   9.548   7.350
 9081POPC   NC373055  29.189  40.052   5.550
 9081POPC   PO473056  29.178  39.990   5.850
 9081POPC   GL173057  29.141  39.989   6.150
 9081POPC   GL273058  29.072  40.075   6.150
 9081POPC   C1A73059  29.142  39.962   6.450
 9081POPC   D2A73060  29.174  39.958   6.750
 9081POPC   C3A73061  29.194  40.000   7.050
 9081POPC   C4A73062  29.110  39.990   7.350
 9081POPC   C1B73063  28.975  40.161   6.450
 9081POPC   C2B73064  28.922  40.223   6.750
 9081POPC   C3B73065  29.001  40.222   7.050
 9081POPC   C4B73066  28.958  40.124   7.350
 9082POPC   NC373067  32.236   9.721   5.550
 9082POPC   PO473068  32.253   9.768   5.850
 9082POPC   GL173069  32.284   9.730   6.150
 9082POPC   GL273070  32.285   9.906   6.150
 9082POPC   C1A73071  32.230   9.774   6.450
 9082POPC   D2A73072  32.215   9.723   6.750
 9082POPC   C3A73073  32.241   9.767   7.050
 9082POPC   C4A73074  32.286   9.797   7.350
 9082POPC   C1B73075  32.242  10.033   6.450
 9082POPC   C2B73076  32.221   9.990   6.750
 9082POPC   C3B73077  32.192   9.986   7.050
 9082POPC   C4B73078  32.218  10.004   7.350
 9083POPC   NC373079   6.614  11.345   5.550
 9083POPC   PO473080   6.677  11.251   5.850
 9083POPC   GL173081   6.632  11.277   6.150
 9083POPC   GL273082   6.587  11.187   6.150
 9083POPC   C1A73083   6.675  11.325   6.450
 9083POPC   D2A73084   6.668  11.267   6.750
 9083POPC   C3A73085   6.614  11.251   7.050
 9083POPC   C4A73086   6.655  11.261   7.350
 9083POPC   C1B73087   6.454  11.124   6.450
 9083POPC   C2B73088   6.455  11.087   6.750
 9083POPC   C3B73089   6.423  11.106   7.050
 9083POPC   C4B73090   6.505  11.103   7.350
 9084POPC   NC373091  44.643   4.288   5.550
 9084POPC   PO473092  44.698   4.318   5.850
 9084POPC   GL173093  44.699   4.325   6.150
 9084POPC   GL273094  44.682   4.453   6.150
 9084POPC   C1A73095  44.694   4.336   6.450
 9084POPC   D2A73096  44.652   4.294   6.750
 9084POPC   C3A73097  44.687   4.350   7.050
 9084POPC   C4A73098  44.652   4.309   7.350
 9084POPC   C1B73099  44.743   4.521   6.450
 9084POPC   C2B73100  44.720   4.575   6.750
 9084POPC   C3B73101  44.713   4.508   7.050
 9084POPC   C4B73102  44.753   4.585   7.350
 9085POPC   NC373103  26.861  34.616   5.550
 9085POPC   PO473104  26.815  34.536   5.850
 9085POPC   GL173105  26.859  34.531   6.150
 9085POPC   GL273106  26.949  34.544   6.150
 9085POPC   C1A73107  26.845  34.572   6.450
 9085POPC   D2A73108  26.813  34.559   6.750
 9085POPC   C3A73109  26.811  34.586   7.050
 9085POPC   C4A73110  26.809  34.564   7.350
 9085POPC   C1B73111  26.970  34.410   6.450
 9085POPC   C2B73112  27.049  34.470   6.750
 9085POPC   C3B73113  27.007  34.465   7.050
 9085POPC   C4B73114  27.031  34.397   7.350
 9086POPC   NC373115  34.617  25.998   5.550
 9086POPC   PO473116  34.533  26.005   5.850
 9086POPC   GL173117  34.598  26.008   6.150
 9086POPC   GL273118  34.486  26.071   6.150
 9086POPC   C1A73119  34.547  26.007   6.450
 9086POPC   D2A73120  34.554  26.004   6.750
 9086POPC   C3A73121  34.577  26.041   7.050
 9086POPC   C4A73122  34.533  26.039   7.350
 9086POPC   C1B73123  34.352  26.073   6.450
 9086POPC   C2B73124  34.369  26.080   6.750
 9086POPC   C3B73125  34.362  26.071   7.050
 9086POPC   C4B73126  34.317  26.133   7.350
 9087POPC   NC373127  37.673  11.260   5.550
 9087POPC   PO473128  37.715  11.343   5.850
 9087POPC   GL173129  37.705  11.267   6.150
 9087POPC   GL273130  37.597  11.394   6.150
 9087POPC   C1A73131  37.661  11.343   6.450
 9087POPC   D2A73132  37.676  11.289   6.750
 9087POPC   C3A73133  37.702  11.330   7.050
 9087POPC   C4A73134  37.653  11.322   7.350
 9087POPC   C1B73135  37.539  11.432   6.450
 9087POPC   C2B73136  37.457  11.428   6.750
 9087POPC   C3B73137  37.543  11.503   7.050
 9087POPC   C4B73138  37.482  11.482   7.350
 9088POPC   NC373139   9.735  35.353   5.550
 9088POPC   PO473140   9.776  35.356   5.850
 9088POPC   GL173141   9.740  35.337   6.150
 9088POPC   GL273142   9.814  35.401   6.150
 9088POPC   C1A73143   9.783  35.380   6.450
 9088POPC   D2A73144   9.700  35.330   6.750
 9088POPC   C3A73145   9.765  35.317   7.050
 9088POPC   C4A73146   9.797  35.340   7.350
 9088POPC   C1B73147   9.897  35.486   6.450
 9088POPC   C2B73148   9.947  35.551   6.750
 9088POPC   C3B73149   9.938  35.581   7.050
 9088POPC   C4B73150   9.907  35.530   7.350
 9089POPC   NC373151  17.496  27.623   5.550
 9089POPC   PO473152  17.474  27.589   5.850
 9089POPC   GL173153  17.543  27.554   6.150
 9089POPC   GL273154  17.646  27.479   6.150
 9089POPC   C1A73155  17.506  27.567   6.450
 9089POPC   D2A73156  17.478  27.597   6.750
 9089POPC   C3A73157  17.518  27.605   7.050
 9089POPC   C4A73158  17.491  27.640   7.350
 9089POPC   C1B73159  17.681  27.370   6.450
 9089POPC   C2B73160  17.657  27.418   6.750
 9089POPC   C3B73161  17.708  27.426   7.050
 9089POPC   C4B73162  17.690  27.438   7.350
 9090POPC   NC373163  43.142   5.897   5.550
 9090POPC   PO473164  43.127   5.831   5.850
 9090POPC   GL173165  43.065   5.835   6.150
 9090POPC   GL273166  43.134   5.775   6.150
 9090POPC   C1A73167  43.127   5.902   6.450
 9090POPC   D2A73168  43.110   5.862   6.750
 9090POPC   C3A73169  43.128   5.913   7.050
 9090POPC   C4A73170  43.103   5.880   7.350
 9090POPC   C1B73171  43.243   5.646   6.450
 9090POPC   C2B73172  43.244   5.682   6.750
 9090POPC   C3B73173  43.182   5.644   7.050
 9090POPC   C4B73174  43.231   5.653   7.350
 9091POPC   NC373175   8.230  28.353   5.550
 9091POPC   PO473176   8.222  28.397   5.850
 9091POPC   GL173177   8.218  28.410   6.150
 9091POPC   GL273178   8.063  28.484   6.150
 9091POPC   C1A73179   8.204  28.362   6.450
 9091POPC   D2A73180   8.212  28.336   6.750
 9091POPC   C3A73181   8.172  28.345   7.050
 9091POPC   C4A73182   8.190  28.347   7.350
 9091POPC   C1B73183   8.065  28.557   6.450
 9091POPC   C2B73184   8.004  28.528   6.750
 9091POPC   C3B73185   7.997  28.566   7.050
 9091POPC   C4B73186   7.978  28.584   7.350
 9092POPC   NC373187  31.493  30.657   5.550
 9092POPC   PO473188  31.503  30.709   5.850
 9092POPC   GL173189  31.478  30.722   6.150
 9092POPC   GL273190  31.343  30.733   6.150
 9092POPC   C1A73191  31.440  30.678   6.450
 9092POPC   D2A73192  31.442  30.680   6.750
 9092POPC   C3A73193  31.450  30.670   7.050
 9092POPC   C4A73194  31.491  30.704   7.350
 9092POPC   C1B73195  31.190  30.711   6.450
 9092POPC   C2B73196  31.245  30.700   6.750
 9092POPC   C3B73197  31.254  30.751   7.050
 9092POPC   C4B73198  31.252  30.743   7.350
 9093POPC   NC373199  33.775   3.510   5.550
 9093POPC   PO473200  33.809   3.515   5.850
 9093POPC   GL173201  33.804   3.585   6.150
 9093POPC   GL273202  33.892   3.572   6.150
 9093POPC   C1A73203  33.823   3.501   6.450
 9093POPC   D2A73204  33.759   3.589   6.750
 9093POPC   C3A73205  33.792   3.499   7.050
 9093POPC   C4A73206  33.782   3.588   7.350
 9093POPC   C1B73207  34.034   3.530   6.450
 9093POPC   C2B73208  34.090   3.493   6.750
 9093POPC   C3B73209  34.082   3.544   7.050
 9093POPC   C4B73210  34.061   3.495   7.350
 9094POPC   NC373211   4.273  42.303   5.550
 9094POPC   PO473212   4.315  42.360   5.850
 9094POPC   GL173213   4.297  42.339   6.150
 9094POPC   GL273214   4.272  42.160   6.150
 9094POPC   C1A73215   4.337  42.317   6.450
 9094POPC   D2A73216   4.289  42.336   6.750
 9094POPC   C3A73217   4.298  42.308   7.050
 9094POPC   C4A73218   4.297  42.351   7.350
 9094POPC   C1B73219   4.312  42.117   6.450
 9094POPC   C2B73220   4.301  42.048   6.750
 9094POPC   C3B73221   4.278  42.084   7.050
 9094POPC   C4B73222   4.262  42.104   7.350
 9095POPC   NC373223   6.670  22.190   5.550
 9095POPC   PO473224   6.637  22.178   5.850
 9095POPC   GL173225   6.687  22.127   6.150
 9095POPC   GL273226   6.745  22.296   6.150
 9095POPC   C1A73227   6.670  22.175   6.450
 9095POPC   D2A73228   6.656  22.195   6.750
 9095POPC   C3A73229   6.678  22.157   7.050
 9095POPC   C4A73230   6.670  22.120   7.350
 9095POPC   C1B73231   6.773  22.389   6.450
 9095POPC   C2B73232   6.841  22.328   6.750
 9095POPC   C3B73233   6.800  22.311   7.050
 9095POPC   C4B73234   6.794  22.352   7.350
 9096POPC   NC373235   0.443  15.177   5.550
 9096POPC   PO473236   0.423  15.217   5.850
 9096POPC   GL173237   0.409  15.164   6.150
 9096POPC   GL273238   0.543  15.193   6.150
 9096POPC   C1A73239   0.462  15.224   6.450
 9096POPC   D2A73240   0.433  15.135   6.750
 9096POPC   C3A73241   0.393  15.165   7.050
 9096POPC   C4A73242   0.463  15.187   7.350
 9096POPC   C1B73243   0.649  15.318   6.450
 9096POPC   C2B73244   0.630  15.273   6.750
 9096POPC   C3B73245   0.708  15.302   7.050
 9096POPC   C4B73246   0.633  15.305   7.350
 9097POPC   NC373247   1.956  33.054   5.550
 9097POPC   PO473248   1.994  33.002   5.850
 9097POPC   GL173249   1.992  33.064   6.150
 9097POPC   GL273250   1.882  33.019   6.150
 9097POPC   C1A73251   1.955  33.032   6.450
 9097POPC   D2A73252   1.991  33.041   6.750
 9097POPC   C3A73253   1.942  33.067   7.050
 9097POPC   C4A73254   1.994  32.993   7.350
 9097POPC   C1B73255   1.741  33.099   6.450
 9097POPC   C2B73256   1.741  33.143   6.750
 9097POPC   C3B73257   1.767  33.120   7.050
 9097POPC   C4B73258   1.719  33.079   7.350
 9098POPC   NC373259  35.369  17.506   5.550
 9098POPC   PO473260  35.310  17.550   5.850
 9098POPC   GL173261  35.379  17.519   6.150
 9098POPC   GL273262  35.469  17.566   6.150
 9098POPC   C1A73263  35.324  17.501   6.450
 9098POPC   D2A73264  35.310  17.550   6.750
 9098POPC   C3A73265  35.332  17.546   7.050
 9098POPC   C4A73266  35.335  17.461   7.350
 9098POPC   C1B73267  35.569  17.560   6.450
 9098POPC   C2B73268  35.614  17.636   6.750
 9098POPC   C3B73269  35.535  17.653   7.050
 9098POPC   C4B73270  35.576  17.559   7.350
 9099POPC   NC373271  35.379  21.373   5.550
 9099POPC   PO473272  35.388  21.405   5.850
 9099POPC   GL173273  35.376  21.351   6.150
 9099POPC   GL273274  35.522  21.374   6.150
 9099POPC   C1A73275  35.349  21.356   6.450
 9099POPC   D2A73276  35.325  21.387   6.750
 9099POPC   C3A73277  35.320  21.362   7.050
 9099POPC   C4A73278  35.336  21.361   7.350
 9099POPC   C1B73279  35.574  21.422   6.450
 9099POPC   C2B73280  35.613  21.399   6.750
 9099POPC   C3B73281  35.635  21.381   7.050
 9099POPC   C4B73282  35.571  21.348   7.350
 9100POPC   NC373283  17.493  24.450   5.550
 9100POPC   PO473284  17.461  24.449   5.850
 9100POPC   GL173285  17.470  24.520   6.150
 9100POPC   GL273286  17.668  24.433   6.150
 9100POPC   C1A73287  17.550  24.472   6.450
 9100POPC   D2A73288  17.549  24.535   6.750
 9100POPC   C3A73289  17.539  24.462   7.050
 9100POPC   C4A73290  17.556  24.481   7.350
 9100POPC   C1B73291  17.759  24.402   6.450
 9100POPC   C2B73292  17.718  24.417   6.750
 9100POPC   C3B73293  17.743  24.432   7.050
 9100POPC   C4B73294  17.726  24.379   7.350
 9101POPC   NC373295  33.074   5.100   5.550
 9101POPC   PO473296  32.985   5.062   5.850
 9101POPC   GL173297  33.010   5.059   6.150
 9101POPC   GL273298  32.859   5.170   6.150
 9101POPC   C1A73299  33.052   5.066   6.450
 9101POPC   D2A73300  33.061   5.046   6.750
 9101POPC   C3A73301  32.981   5.138   7.050
 9101POPC   C4A73302  33.020   5.137   7.350
 9101POPC   C1B73303  32.817   5.222   6.450
 9101POPC   C2B73304  32.809   5.144   6.750
 9101POPC   C3B73305  32.760   5.182   7.050
 9101POPC   C4B73306  32.796   5.149   7.350
 9102POPC   NC373307  31.469  33.821   5.550
 9102POPC   PO473308  31.437  33.758   5.850
 9102POPC   GL173309  31.521  33.831   6.150
 9102POPC   GL273310  31.413  33.668   6.150
 9102POPC   C1A73311  31.462  33.816   6.450
 9102POPC   D2A73312  31.507  33.804   6.750
 9102POPC   C3A73313  31.451  33.780   7.050
 9102POPC   C4A73314  31.518  33.756   7.350
 9102POPC   C1B73315  31.431  33.540   6.450
 9102POPC   C2B73316  31.403  33.582   6.750
 9102POPC   C3B73317  31.455  33.504   7.050
 9102POPC   C4B73318  31.396  33.517   7.350
 9103POPC   NC373319  12.862   1.991   5.550
 9103POPC   PO473320  12.850   2.010   5.850
 9103POPC   GL173321  12.876   1.972   6.150
 9103POPC   GL273322  12.979   1.989   6.150
 9103POPC   C1A73323  12.810   1.966   6.450
 9103POPC   D2A73324  12.805   1.958   6.750
 9103POPC   C3A73325  12.829   2.024   7.050
 9103POPC   C4A73326  12.880   2.038   7.350
 9103POPC   C1B73327  13.070   1.930   6.450
 9103POPC   C2B73328  13.104   1.923   6.750
 9103POPC   C3B73329  13.096   1.974   7.050
 9103POPC   C4B73330  13.071   1.963   7.350
 9104POPC   NC373331  40.013   6.663   5.550
 9104POPC   PO473332  40.045   6.643   5.850
 9104POPC   GL173333  40.007   6.657   6.150
 9104POPC   GL273334  40.108   6.725   6.150
 9104POPC   C1A73335  40.018   6.662   6.450
 9104POPC   D2A73336  39.989   6.615   6.750
 9104POPC   C3A73337  40.035   6.646   7.050
 9104POPC   C4A73338  39.958   6.659   7.350
 9104POPC   C1B73339  40.273   6.696   6.450
 9104POPC   C2B73340  40.239   6.708   6.750
 9104POPC   C3B73341  40.296   6.713   7.050
 9104POPC   C4B73342  40.205   6.736   7.350
 9105POPC   NC373343   9.737   8.165   5.550
 9105POPC   PO473344   9.709   8.197   5.850
 9105POPC   GL173345   9.741   8.208   6.150
 9105POPC   GL273346   9.587   8.219   6.150
 9105POPC   C1A73347   9.782   8.151   6.450
 9105POPC   D2A73348   9.755   8.222   6.750
 9105POPC   C3A73349   9.742   8.197   7.050
 9105POPC   C4A73350   9.793   8.214   7.350
 9105POPC   C1B73351   9.497   8.264   6.450
 9105POPC   C2B73352   9.535   8.287   6.750
 9105POPC   C3B73353   9.541   8.217   7.050
 9105POPC   C4B73354   9.522   8.288   7.350
 9106POPC   NC373355  37.703  21.376   5.550
 9106POPC   PO473356  37.722  21.342   5.850
 9106POPC   GL173357  37.703  21.431   6.150
 9106POPC   GL273358  37.710  21.293   6.150
 9106POPC   C1A73359  37.681  21.404   6.450
 9106POPC   D2A73360  37.683  21.353   6.750
 9106POPC   C3A73361  37.691  21.375   7.050
 9106POPC   C4A73362  37.685  21.343   7.350
 9106POPC   C1B73363  37.763  21.134   6.450
 9106POPC   C2B73364  37.804  21.146   6.750
 9106POPC   C3B73365  37.765  21.186   7.050
 9106POPC   C4B73366  37.789  21.126   7.350
 9107POPC   NC373367  40.045  12.819   5.550
 9107POPC   PO473368  40.036  12.854   5.850
 9107POPC   GL173369  39.965  12.820   6.150
 9107POPC   GL273370  40.060  12.990   6.150
 9107POPC   C1A73371  39.985  12.898   6.450
 9107POPC   D2A73372  40.010  12.825   6.750
 9107POPC   C3A73373  40.044  12.842   7.050
 9107POPC   C4A73374  39.989  12.845   7.350
 9107POPC   C1B73375  40.086  13.082   6.450
 9107POPC   C2B73376  40.169  13.052   6.750
 9107POPC   C3B73377  40.099  13.102   7.050
 9107POPC   C4B73378  40.183  13.082   7.350
 9108POPC   NC373379  33.026  33.838   5.550
 9108POPC   PO473380  32.975  33.833   5.850
 9108POPC   GL173381  33.028  33.784   6.150
 9108POPC   GL273382  33.082  33.742   6.150
 9108POPC   C1A73383  33.014  33.781   6.450
 9108POPC   D2A73384  32.979  33.821   6.750
 9108POPC   C3A73385  32.978  33.823   7.050
 9108POPC   C4A73386  33.073  33.756   7.350
 9108POPC   C1B73387  33.211  33.645   6.450
 9108POPC   C2B73388  33.208  33.690   6.750
 9108POPC   C3B73389  33.221  33.689   7.050
 9108POPC   C4B73390  33.207  33.701   7.350
 9109POPC   NC373391  40.773   8.169   5.550
 9109POPC   PO473392  40.800   8.147   5.850
 9109POPC   GL173393  40.733   8.191   6.150
 9109POPC   GL273394  40.731   8.275   6.150
 9109POPC   C1A73395  40.762   8.244   6.450
 9109POPC   D2A73396  40.784   8.194   6.750
 9109POPC   C3A73397  40.794   8.207   7.050
 9109POPC   C4A73398  40.794   8.156   7.350
 9109POPC   C1B73399  40.587   8.330   6.450
 9109POPC   C2B73400  40.627   8.379   6.750
 9109POPC   C3B73401  40.584   8.361   7.050
 9109POPC   C4B73402  40.625   8.372   7.350
 9110POPC   NC373403  38.422   0.486   5.550
 9110POPC   PO473404  38.483   0.390   5.850
 9110POPC   GL173405  38.440   0.470   6.150
 9110POPC   GL273406  38.456   0.358   6.150
 9110POPC   C1A73407  38.488   0.468   6.450
 9110POPC   D2A73408  38.413   0.434   6.750
 9110POPC   C3A73409  38.476   0.469   7.050
 9110POPC   C4A73410  38.453   0.479   7.350
 9110POPC   C1B73411  38.536   0.186   6.450
 9110POPC   C2B73412  38.456   0.215   6.750
 9110POPC   C3B73413  38.510   0.223   7.050
 9110POPC   C4B73414  38.491   0.237   7.350
 9111POPC   NC373415  40.828   5.877   5.550
 9111POPC   PO473416  40.805   5.859   5.850
 9111POPC   GL173417  40.743   5.875   6.150
 9111POPC   GL273418  40.714   6.027   6.150
 9111POPC   C1A73419  40.804   5.902   6.450
 9111POPC   D2A73420  40.778   5.866   6.750
 9111POPC   C3A73421  40.751   5.916   7.050
 9111POPC   C4A73422  40.812   5.883   7.350
 9111POPC   C1B73423  40.754   6.111   6.450
 9111POPC   C2B73424  40.738   6.159   6.750
 9111POPC   C3B73425  40.689   6.077   7.050
 9111POPC   C4B73426  40.683   6.103   7.350
 9112POPC   NC373427  34.586  18.235   5.550
 9112POPC   PO473428  34.575  18.268   5.850
 9112POPC   GL173429  34.539  18.285   6.150
 9112POPC   GL273430  34.652  18.363   6.150
 9112POPC   C1A73431  34.551  18.318   6.450
 9112POPC   D2A73432  34.624  18.290   6.750
 9112POPC   C3A73433  34.565  18.243   7.050
 9112POPC   C4A73434  34.601  18.285   7.350
 9112POPC   C1B73435  34.629  18.479   6.450
 9112POPC   C2B73436  34.642  18.514   6.750
 9112POPC   C3B73437  34.605  18.533   7.050
 9112POPC   C4B73438  34.665  18.519   7.350
 9113POPC   NC373439  22.892  42.289   5.550
 9113POPC   PO473440  22.956  42.326   5.850
 9113POPC   GL173441  22.939  42.310   6.150
 9113POPC   GL273442  23.062  42.230   6.150
 9113POPC   C1A73443  22.971  42.294   6.450
 9113POPC   D2A73444  22.901  42.288   6.750
 9113POPC   C3A73445  22.923  42.330   7.050
 9113POPC   C4A73446  22.944  42.352   7.350
 9113POPC   C1B73447  23.094  42.106   6.450
 9113POPC   C2B73448  23.051  42.114   6.750
 9113POPC   C3B73449  23.130  42.160   7.050
 9113POPC   C4B73450  23.099  42.120   7.350
 9114POPC   NC373451  12.876  29.912   5.550
 9114POPC   PO473452  12.861  29.910   5.850
 9114POPC   GL173453  12.820  29.871   6.150
 9114POPC   GL273454  12.955  29.999   6.150
 9114POPC   C1A73455  12.808  29.953   6.450
 9114POPC   D2A73456  12.819  29.932   6.750
 9114POPC   C3A73457  12.865  29.960   7.050
 9114POPC   C4A73458  12.816  29.940   7.350
 9114POPC   C1B73459  12.963  30.113   6.450
 9114POPC   C2B73460  12.919  30.194   6.750
 9114POPC   C3B73461  12.973  30.117   7.050
 9114POPC   C4B73462  12.995  30.105   7.350
 9115POPC   NC373463   1.231  18.258   5.550
 9115POPC   PO473464   1.185  18.271   5.850
 9115POPC   GL173465   1.192  18.319   6.150
 9115POPC   GL273466   1.210  18.176   6.150
 9115POPC   C1A73467   1.165  18.268   6.450
 9115POPC   D2A73468   1.191  18.332   6.750
 9115POPC   C3A73469   1.260  18.316   7.050
 9115POPC   C4A73470   1.239  18.237   7.350
 9115POPC   C1B73471   1.160  18.039   6.450
 9115POPC   C2B73472   1.086  18.019   6.750
 9115POPC   C3B73473   1.136  18.073   7.050
 9115POPC   C4B73474   1.094  18.009   7.350
 9116POPC   NC373475  12.819  41.524   5.550
 9116POPC   PO473476  12.894  41.573   5.850
 9116POPC   GL173477  12.833  41.514   6.150
 9116POPC   GL273478  12.744  41.477   6.150
 9116POPC   C1A73479  12.880  41.545   6.450
 9116POPC   D2A73480  12.830  41.539   6.750
 9116POPC   C3A73481  12.839  41.575   7.050
 9116POPC   C4A73482  12.875  41.540   7.350
 9116POPC   C1B73483  12.727  41.376   6.450
 9116POPC   C2B73484  12.711  41.423   6.750
 9116POPC   C3B73485  12.676  41.368   7.050
 9116POPC   C4B73486  12.650  41.378   7.350
 9117POPC   NC373487  36.889  22.174   5.550
 9117POPC   PO473488  36.887  22.182   5.850
 9117POPC   GL173489  36.861  22.165   6.150
 9117POPC   GL273490  36.910  22.027   6.150
 9117POPC   C1A73491  36.860  22.164   6.450
 9117POPC   D2A73492  36.885  22.131   6.750
 9117POPC   C3A73493  36.944  22.206   7.050
 9117POPC   C4A73494  36.914  22.177   7.350
 9117POPC   C1B73495  36.863  21.957   6.450
 9117POPC   C2B73496  36.803  21.942   6.750
 9117POPC   C3B73497  36.788  21.896   7.050
 9117POPC   C4B73498  36.791  21.931   7.350
 9118POPC   NC373499  14.360   0.429   5.550
 9118POPC   PO473500  14.453   0.429   5.850
 9118POPC   GL173501  14.447   0.483   6.150
 9118POPC   GL273502  14.422   0.287   6.150
 9118POPC   C1A73503  14.436   0.419   6.450
 9118POPC   D2A73504  14.360   0.432   6.750
 9118POPC   C3A73505  14.436   0.474   7.050
 9118POPC   C4A73506  14.447   0.488   7.350
 9118POPC   C1B73507  14.346   0.194   6.450
 9118POPC   C2B73508  14.391   0.228   6.750
 9118POPC   C3B73509  14.364   0.237   7.050
 9118POPC   C4B73510  14.333   0.192   7.350
 9119POPC   NC373511  22.169  16.724   5.550
 9119POPC   PO473512  22.124  16.696   5.850
 9119POPC   GL173513  22.134  16.703   6.150
 9119POPC   GL273514  22.043  16.854   6.150
 9119POPC   C1A73515  22.141  16.736   6.450
 9119POPC   D2A73516  22.122  16.781   6.750
 9119POPC   C3A73517  22.193  16.732   7.050
 9119POPC   C4A73518  22.173  16.753   7.350
 9119POPC   C1B73519  21.932  16.870   6.450
 9119POPC   C2B73520  21.959  16.876   6.750
 9119POPC   C3B73521  21.954  16.880   7.050
 9119POPC   C4B73522  21.981  16.910   7.350
 9120POPC   NC373523  33.809  22.949   5.550
 9120POPC   PO473524  33.840  22.976   5.850
 9120POPC   GL173525  33.844  22.957   6.150
 9120POPC   GL273526  33.647  22.930   6.150
 9120POPC   C1A73527  33.795  22.894   6.450
 9120POPC   D2A73528  33.754  22.971   6.750
 9120POPC   C3A73529  33.798  22.907   7.050
 9120POPC   C4A73530  33.836  22.918   7.350
 9120POPC   C1B73531  33.509  22.922   6.450
 9120POPC   C2B73532  33.501  22.889   6.750
 9120POPC   C3B73533  33.510  22.955   7.050
 9120POPC   C4B73534  33.529  22.922   7.350
 9121POPC   NC373535  15.959  19.044   5.550
 9121POPC   PO473536  16.004  19.042   5.850
 9121POPC   GL173537  15.983  19.061   6.150
 9121POPC   GL273538  15.934  18.946   6.150
 9121POPC   C1A73539  15.966  19.092   6.450
 9121POPC   D2A73540  15.979  19.047   6.750
 9121POPC   C3A73541  15.960  19.104   7.050
 9121POPC   C4A73542  15.953  19.042   7.350
 9121POPC   C1B73543  15.918  18.850   6.450
 9121POPC   C2B73544  15.901  18.851   6.750
 9121POPC   C3B73545  15.942  18.852   7.050
 9121POPC   C4B73546  15.983  18.826   7.350
 9122POPC   NC373547  24.470  22.915   5.550
 9122POPC   PO473548  24.475  22.985   5.850
 9122POPC   GL173549  24.522  22.943   6.150
 9122POPC   GL273550  24.654  23.006   6.150
 9122POPC   C1A73551  24.493  22.931   6.450
 9122POPC   D2A73552  24.468  22.954   6.750
 9122POPC   C3A73553  24.452  22.958   7.050
 9122POPC   C4A73554  24.535  22.946   7.350
 9122POPC   C1B73555  24.780  22.985   6.450
 9122POPC   C2B73556  24.780  23.028   6.750
 9122POPC   C3B73557  24.773  22.952   7.050
 9122POPC   C4B73558  24.758  22.986   7.350
 9123POPC   NC373559  36.083  13.591   5.550
 9123POPC   PO473560  36.156  13.621   5.850
 9123POPC   GL173561  36.117  13.607   6.150
 9123POPC   GL273562  36.048  13.511   6.150
 9123POPC   C1A73563  36.171  13.624   6.450
 9123POPC   D2A73564  36.116  13.588   6.750
 9123POPC   C3A73565  36.170  13.579   7.050
 9123POPC   C4A73566  36.101  13.593   7.350
 9123POPC   C1B73567  36.015  13.374   6.450
 9123POPC   C2B73568  35.993  13.371   6.750
 9123POPC   C3B73569  36.014  13.403   7.050
 9123POPC   C4B73570  36.030  13.363   7.350
 9124POPC   NC373571   4.342  12.817   5.550
 9124POPC   PO473572   4.338  12.897   5.850
 9124POPC   GL173573   4.314  12.831   6.150
 9124POPC   GL273574   4.390  12.843   6.150
 9124POPC   C1A73575   4.288  12.900   6.450
 9124POPC   D2A73576   4.365  12.898   6.750
 9124POPC   C3A73577   4.268  12.834   7.050
 9124POPC   C4A73578   4.293  12.837   7.350
 9124POPC   C1B73579   4.530  12.787   6.450
 9124POPC   C2B73580   4.554  12.697   6.750
 9124POPC   C3B73581   4.582  12.772   7.050
 9124POPC   C4B73582   4.541  12.782   7.350
 9125POPC   NC373583  36.149  14.359   5.550
 9125POPC   PO473584  36.093  14.368   5.850
 9125POPC   GL173585  36.107  14.406   6.150
 9125POPC   GL273586  35.980  14.377   6.150
 9125POPC   C1A73587  36.094  14.397   6.450
 9125POPC   D2A73588  36.136  14.403   6.750
 9125POPC   C3A73589  36.130  14.380   7.050
 9125POPC   C4A73590  36.123  14.417   7.350
 9125POPC   C1B73591  35.861  14.398   6.450
 9125POPC   C2B73592  35.912  14.391   6.750
 9125POPC   C3B73593  35.869  14.398   7.050
 9125POPC   C4B73594  35.831  14.334   7.350
 9126POPC   NC373595  41.552  14.410   5.550
 9126POPC   PO473596  41.607  14.439   5.850
 9126POPC   GL173597  41.538  14.423   6.150
 9126POPC   GL273598  41.715  14.352   6.150
 9126POPC   C1A73599  41.583  14.375   6.450
 9126POPC   D2A73600  41.564  14.433   6.750
 9126POPC   C3A73601  41.535  14.421   7.050
 9126POPC   C4A73602  41.563  14.442   7.350
 9126POPC   C1B73603  41.820  14.381   6.450
 9126POPC   C2B73604  41.815  14.434   6.750
 9126POPC   C3B73605  41.795  14.391   7.050
 9126POPC   C4B73606  41.849  14.425   7.350
 9127POPC   NC373607  22.942  15.160   5.550
 9127POPC   PO473608  22.936  15.222   5.850
 9127POPC   GL173609  22.901  15.216   6.150
 9127POPC   GL273610  23.057  15.144   6.150
 9127POPC   C1A73611  22.925  15.200   6.450
 9127POPC   D2A73612  22.909  15.163   6.750
 9127POPC   C3A73613  22.889  15.169   7.050
 9127POPC   C4A73614  22.899  15.135   7.350
 9127POPC   C1B73615  23.159  15.006   6.450
 9127POPC   C2B73616  23.121  14.998   6.750
 9127POPC   C3B73617  23.138  15.032   7.050
 9127POPC   C4B73618  23.103  14.985   7.350
 9128POPC   NC373619  40.794  26.820   5.550
 9128POPC   PO473620  40.823  26.806   5.850
 9128POPC   GL173621  40.786  26.822   6.150
 9128POPC   GL273622  40.664  26.832   6.150
 9128POPC   C1A73623  40.820  26.848   6.450
 9128POPC   D2A73624  40.740  26.860   6.750
 9128POPC   C3A73625  40.830  26.852   7.050
 9128POPC   C4A73626  40.738  26.792   7.350
 9128POPC   C1B73627  40.498  26.790   6.450
 9128POPC   C2B73628  40.542  26.782   6.750
 9128POPC   C3B73629  40.494  26.729   7.050
 9128POPC   C4B73630  40.527  26.744   7.350
 9129POPC   NC373631  26.851   5.079   5.550
 9129POPC   PO473632  26.862   5.061   5.850
 9129POPC   GL173633  26.784   5.131   6.150
 9129POPC   GL273634  26.702   5.006   6.150
 9129POPC   C1A73635  26.784   5.110   6.450
 9129POPC   D2A73636  26.838   5.097   6.750
 9129POPC   C3A73637  26.827   5.100   7.050
 9129POPC   C4A73638  26.861   5.141   7.350
 9129POPC   C1B73639  26.583   5.001   6.450
 9129POPC   C2B73640  26.544   5.033   6.750
 9129POPC   C3B73641  26.544   5.023   7.050
 9129POPC   C4B73642  26.620   4.965   7.350
 9130POPC   NC373643  15.929  27.551   5.550
 9130POPC   PO473644  15.952  27.617   5.850
 9130POPC   GL173645  15.953  27.548   6.150
 9130POPC   GL273646  16.006  27.654   6.150
 9130POPC   C1A73647  15.920  27.596   6.450
 9130POPC   D2A73648  16.005  27.563   6.750
 9130POPC   C3A73649  15.918  27.609   7.050
 9130POPC   C4A73650  15.941  27.563   7.350
 9130POPC   C1B73651  16.103  27.830   6.450
 9130POPC   C2B73652  16.137  27.827   6.750
 9130POPC   C3B73653  16.127  27.833   7.050
 9130POPC   C4B73654  16.109  27.829   7.350
 9131POPC   NC373655  12.059  39.972   5.550
 9131POPC   PO473656  12.124  39.958   5.850
 9131POPC   GL173657  12.078  39.984   6.150
 9131POPC   GL273658  12.197  39.968   6.150
 9131POPC   C1A73659  12.099  40.016   6.450
 9131POPC   D2A73660  12.098  39.958   6.750
 9131POPC   C3A73661  12.093  40.031   7.050
 9131POPC   C4A73662  12.034  39.989   7.350
 9131POPC   C1B73663  12.278  40.010   6.450
 9131POPC   C2B73664  12.373  40.026   6.750
 9131POPC   C3B73665  12.304  39.977   7.050
 9131POPC   C4B73666  12.355  40.015   7.350
 9132POPC   NC373667  27.589  31.457   5.550
 9132POPC   PO473668  27.586  31.510   5.850
 9132POPC   GL173669  27.565  31.437   6.150
 9132POPC   GL273670  27.549  31.318   6.150
 9132POPC   C1A73671  27.643  31.449   6.450
 9132POPC   D2A73672  27.631  31.507   6.750
 9132POPC   C3A73673  27.607  31.424   7.050
 9132POPC   C4A73674  27.581  31.473   7.350
 9132POPC   C1B73675  27.426  31.233   6.450
 9132POPC   C2B73676  27.456  31.249   6.750
 9132POPC   C3B73677  27.499  31.212   7.050
 9132POPC   C4B73678  27.502  31.282   7.350
 9133POPC   NC373679  17.466   0.416   5.550
 9133POPC   PO473680  17.481   0.418   5.850
 9133POPC   GL173681  17.510   0.464   6.150
 9133POPC   GL273682  17.486   0.271   6.150
 9133POPC   C1A73683  17.528   0.417   6.450
 9133POPC   D2A73684  17.510   0.455   6.750
 9133POPC   C3A73685  17.491   0.426   7.050
 9133POPC   C4A73686  17.553   0.435   7.350
 9133POPC   C1B73687  17.554   0.187   6.450
 9133POPC   C2B73688  17.567   0.181   6.750
 9133POPC   C3B73689  17.514   0.214   7.050
 9133POPC   C4B73690  17.527   0.227   7.350
 9134POPC   NC373691  39.227  20.609   5.550
 9134POPC   PO473692  39.277  20.638   5.850
 9134POPC   GL173693  39.190  20.620   6.150
 9134POPC   GL273694  39.162  20.739   6.150
 9134POPC   C1A73695  39.272  20.618   6.450
 9134POPC   D2A73696  39.264  20.600   6.750
 9134POPC   C3A73697  39.208  20.606   7.050
 9134POPC   C4A73698  39.272  20.577   7.350
 9134POPC   C1B73699  39.156  20.804   6.450
 9134POPC   C2B73700  39.117  20.887   6.750
 9134POPC   C3B73701  39.145  20.836   7.050
 9134POPC   C4B73702  39.114  20.840   7.350
 9135POPC   NC373703  12.855   6.632   5.550
 9135POPC   PO473704  12.878   6.620   5.850
 9135POPC   GL173705  12.872   6.683   6.150
 9135POPC   GL273706  12.940   6.569   6.150
 9135POPC   C1A73707  12.836   6.646   6.450
 9135POPC   D2A73708  12.893   6.620   6.750
 9135POPC   C3A73709  12.874   6.626   7.050
 9135POPC   C4A73710  12.879   6.644   7.350
 9135POPC   C1B73711  13.076   6.532   6.450
 9135POPC   C2B73712  13.047   6.567   6.750
 9135POPC   C3B73713  13.095   6.533   7.050
 9135POPC   C4B73714  13.056   6.628   7.350
 9136POPC   NC373715  29.953  36.859   5.550
 9136POPC   PO473716  29.921  36.931   5.850
 9136POPC   GL173717  29.880  36.899   6.150
 9136POPC   GL273718  29.900  36.790   6.150
 9136POPC   C1A73719  29.919  36.889   6.450
 9136POPC   D2A73720  29.887  36.921   6.750
 9136POPC   C3A73721  29.896  36.926   7.050
 9136POPC   C4A73722  29.894  36.938   7.350
 9136POPC   C1B73723  29.927  36.665   6.450
 9136POPC   C2B73724  29.983  36.612   6.750
 9136POPC   C3B73725  29.958  36.636   7.050
 9136POPC   C4B73726  29.978  36.614   7.350
 9137POPC   NC373727  17.483   7.377   5.550
 9137POPC   PO473728  17.482   7.432   5.850
 9137POPC   GL173729  17.542   7.446   6.150
 9137POPC   GL273730  17.625   7.365   6.150
 9137POPC   C1A73731  17.547   7.453   6.450
 9137POPC   D2A73732  17.473   7.462   6.750
 9137POPC   C3A73733  17.461   7.399   7.050
 9137POPC   C4A73734  17.523   7.391   7.350
 9137POPC   C1B73735  17.755   7.267   6.450
 9137POPC   C2B73736  17.703   7.301   6.750
 9137POPC   C3B73737  17.735   7.254   7.050
 9137POPC   C4B73738  17.668   7.267   7.350
 9138POPC   NC373739   5.858  19.811   5.550
 9138POPC   PO473740   5.868  19.862   5.850
 9138POPC   GL173741   5.912  19.838   6.150
 9138POPC   GL273742   5.979  19.852   6.150
 9138POPC   C1A73743   5.828  19.862   6.450
 9138POPC   D2A73744   5.819  19.803   6.750
 9138POPC   C3A73745   5.837  19.865   7.050
 9138POPC   C4A73746   5.829  19.809   7.350
 9138POPC   C1B73747   6.162  19.835   6.450
 9138POPC   C2B73748   6.085  19.825   6.750
 9138POPC   C3B73749   6.075  19.820   7.050
 9138POPC   C4B73750   6.096  19.858   7.350
 9139POPC   NC373751  25.228  40.003   5.550
 9139POPC   PO473752  25.260  39.967   5.850
 9139POPC   GL173753  25.299  39.962   6.150
 9139POPC   GL273754  25.316  39.904   6.150
 9139POPC   C1A73755  25.251  39.995   6.450
 9139POPC   D2A73756  25.217  39.959   6.750
 9139POPC   C3A73757  25.262  40.022   7.050
 9139POPC   C4A73758  25.312  40.037   7.350
 9139POPC   C1B73759  25.291  39.803   6.450
 9139POPC   C2B73760  25.339  39.752   6.750
 9139POPC   C3B73761  25.358  39.723   7.050
 9139POPC   C4B73762  25.300  39.712   7.350
 9140POPC   NC373763  40.773  10.559   5.550
 9140POPC   PO473764  40.804  10.565   5.850
 9140POPC   GL173765  40.786  10.571   6.150
 9140POPC   GL273766  40.702  10.496   6.150
 9140POPC   C1A73767  40.752  10.488   6.450
 9140POPC   D2A73768  40.808  10.548   6.750
 9140POPC   C3A73769  40.766  10.504   7.050
 9140POPC   C4A73770  40.808  10.478   7.350
 9140POPC   C1B73771  40.510  10.395   6.450
 9140POPC   C2B73772  40.575  10.437   6.750
 9140POPC   C3B73773  40.568  10.466   7.050
 9140POPC   C4B73774  40.569  10.381   7.350
 9141POPC   NC373775  26.082   5.077   5.550
 9141POPC   PO473776  26.083   5.057   5.850
 9141POPC   GL173777  26.049   5.125   6.150
 9141POPC   GL273778  26.190   5.078   6.150
 9141POPC   C1A73779  26.080   5.143   6.450
 9141POPC   D2A73780  26.084   5.108   6.750
 9141POPC   C3A73781  26.002   5.117   7.050
 9141POPC   C4A73782  26.083   5.132   7.350
 9141POPC   C1B73783  26.249   4.979   6.450
 9141POPC   C2B73784  26.268   5.029   6.750
 9141POPC   C3B73785  26.285   5.020   7.050
 9141POPC   C4B73786  26.276   4.993   7.350
 9142POPC   NC373787  10.475  21.359   5.550
 9142POPC   PO473788  10.498  21.387   5.850
 9142POPC   GL173789  10.517  21.422   6.150
 9142POPC   GL273790  10.384  21.444   6.150
 9142POPC   C1A73791  10.542  21.338   6.450
 9142POPC   D2A73792  10.517  21.349   6.750
 9142POPC   C3A73793  10.490  21.405   7.050
 9142POPC   C4A73794  10.571  21.398   7.350
 9142POPC   C1B73795  10.332  21.480   6.450
 9142POPC   C2B73796  10.319  21.467   6.750
 9142POPC   C3B73797  10.336  21.518   7.050
 9142POPC   C4B73798  10.337  21.544   7.350
 9143POPC   NC373799  23.713  14.405   5.550
 9143POPC   PO473800  23.746  14.443   5.850
 9143POPC   GL173801  23.686  14.426   6.150
 9143POPC   GL273802  23.821  14.454   6.150
 9143POPC   C1A73803  23.757  14.431   6.450
 9143POPC   D2A73804  23.667  14.436   6.750
 9143POPC   C3A73805  23.675  14.398   7.050
 9143POPC   C4A73806  23.686  14.451   7.350
 9143POPC   C1B73807  23.858  14.613   6.450
 9143POPC   C2B73808  23.865  14.589   6.750
 9143POPC   C3B73809  23.881  14.572   7.050
 9143POPC   C4B73810  23.861  14.545   7.350
 9144POPC   NC373811  13.629  18.314   5.550
 9144POPC   PO473812  13.657  18.258   5.850
 9144POPC   GL173813  13.648  18.293   6.150
 9144POPC   GL273814  13.616  18.148   6.150
 9144POPC   C1A73815  13.595  18.239   6.450
 9144POPC   D2A73816  13.614  18.295   6.750
 9144POPC   C3A73817  13.673  18.327   7.050
 9144POPC   C4A73818  13.583  18.317   7.350
 9144POPC   C1B73819  13.673  17.990   6.450
 9144POPC   C2B73820  13.680  17.991   6.750
 9144POPC   C3B73821  13.703  18.009   7.050
 9144POPC   C4B73822  13.703  18.080   7.350
 9145POPC   NC373823  37.685   5.901   5.550
 9145POPC   PO473824  37.655   5.877   5.850
 9145POPC   GL173825  37.719   5.853   6.150
 9145POPC   GL273826  37.531   5.901   6.150
 9145POPC   C1A73827  37.720   5.862   6.450
 9145POPC   D2A73828  37.660   5.834   6.750
 9145POPC   C3A73829  37.705   5.849   7.050
 9145POPC   C4A73830  37.690   5.854   7.350
 9145POPC   C1B73831  37.489   5.941   6.450
 9145POPC   C2B73832  37.501   5.959   6.750
 9145POPC   C3B73833  37.421   6.038   7.050
 9145POPC   C4B73834  37.504   5.957   7.350
 9146POPC   NC373835   2.762  35.327   5.550
 9146POPC   PO473836   2.813  35.398   5.850
 9146POPC   GL173837   2.768  35.371   6.150
 9146POPC   GL273838   2.915  35.383   6.150
 9146POPC   C1A73839   2.792  35.311   6.450
 9146POPC   D2A73840   2.786  35.312   6.750
 9146POPC   C3A73841   2.799  35.327   7.050
 9146POPC   C4A73842   2.794  35.340   7.350
 9146POPC   C1B73843   2.976  35.412   6.450
 9146POPC   C2B73844   3.020  35.460   6.750
 9146POPC   C3B73845   2.986  35.464   7.050
 9146POPC   C4B73846   2.970  35.450   7.350
 9147POPC   NC373847   9.702  23.735   5.550
 9147POPC   PO473848   9.754  23.713   5.850
 9147POPC   GL173849   9.731  23.691   6.150
 9147POPC   GL273850   9.645  23.592   6.150
 9147POPC   C1A73851   9.789  23.692   6.450
 9147POPC   D2A73852   9.745  23.706   6.750
 9147POPC   C3A73853   9.765  23.741   7.050
 9147POPC   C4A73854   9.732  23.754   7.350
 9147POPC   C1B73855   9.624  23.455   6.450
 9147POPC   C2B73856   9.661  23.527   6.750
 9147POPC   C3B73857   9.600  23.516   7.050
 9147POPC   C4B73858   9.630  23.461   7.350
 9148POPC   NC373859  24.487  42.285   5.550
 9148POPC   PO473860  24.478  42.349   5.850
 9148POPC   GL173861  24.456  42.335   6.150
 9148POPC   GL273862  24.511  42.223   6.150
 9148POPC   C1A73863  24.459  42.309   6.450
 9148POPC   D2A73864  24.506  42.355   6.750
 9148POPC   C3A73865  24.520  42.366   7.050
 9148POPC   C4A73866  24.514  42.366   7.350
 9148POPC   C1B73867  24.470  42.125   6.450
 9148POPC   C2B73868  24.483  42.095   6.750
 9148POPC   C3B73869  24.510  42.079   7.050
 9148POPC   C4B73870  24.429  42.069   7.350
 9149POPC   NC373871  35.316  33.785   5.550
 9149POPC   PO473872  35.375  33.822   5.850
 9149POPC   GL173873  35.314  33.754   6.150
 9149POPC   GL273874  35.471  33.722   6.150
 9149POPC   C1A73875  35.314  33.822   6.450
 9149POPC   D2A73876  35.366  33.792   6.750
 9149POPC   C3A73877  35.376  33.754   7.050
 9149POPC   C4A73878  35.396  33.822   7.350
 9149POPC   C1B73879  35.588  33.725   6.450
 9149POPC   C2B73880  35.581  33.733   6.750
 9149POPC   C3B73881  35.575  33.692   7.050
 9149POPC   C4B73882  35.593  33.691   7.350
 9150POPC   NC373883  27.586  20.563   5.550
 9150POPC   PO473884  27.546  20.630   5.850
 9150POPC   GL173885  27.629  20.658   6.150
 9150POPC   GL273886  27.704  20.606   6.150
 9150POPC   C1A73887  27.583  20.651   6.450
 9150POPC   D2A73888  27.610  20.641   6.750
 9150POPC   C3A73889  27.627  20.604   7.050
 9150POPC   C4A73890  27.580  20.633   7.350
 9150POPC   C1B73891  27.837  20.655   6.450
 9150POPC   C2B73892  27.808  20.671   6.750
 9150POPC   C3B73893  27.785  20.681   7.050
 9150POPC   C4B73894  27.834  20.722   7.350
 9151POPC   NC373895  22.953  19.105   5.550
 9151POPC   PO473896  22.959  19.088   5.850
 9151POPC   GL173897  22.988  19.021   6.150
 9151POPC   GL273898  23.076  19.029   6.150
 9151POPC   C1A73899  22.985  19.063   6.450
 9151POPC   D2A73900  22.973  19.084   6.750
 9151POPC   C3A73901  22.972  19.088   7.050
 9151POPC   C4A73902  22.943  19.038   7.350
 9151POPC   C1B73903  23.190  19.040   6.450
 9151POPC   C2B73904  23.183  18.970   6.750
 9151POPC   C3B73905  23.198  18.982   7.050
 9151POPC   C4B73906  23.141  18.999   7.350
 9152POPC   NC373907  10.528  15.160   5.550
 9152POPC   PO473908  10.541  15.206   5.850
 9152POPC   GL173909  10.506  15.172   6.150
 9152POPC   GL273910  10.487  15.056   6.150
 9152POPC   C1A73911  10.480  15.195   6.450
 9152POPC   D2A73912  10.547  15.175   6.750
 9152POPC   C3A73913  10.505  15.173   7.050
 9152POPC   C4A73914  10.534  15.143   7.350
 9152POPC   C1B73915  10.493  14.886   6.450
 9152POPC   C2B73916  10.509  14.886   6.750
 9152POPC   C3B73917  10.462  14.925   7.050
 9152POPC   C4B73918  10.484  14.977   7.350
 9153POPC   NC373919   8.237  22.132   5.550
 9153POPC   PO473920   8.155  22.178   5.850
 9153POPC   GL173921   8.240  22.160   6.150
 9153POPC   GL273922   8.182  22.076   6.150
 9153POPC   C1A73923   8.244  22.139   6.450
 9153POPC   D2A73924   8.207  22.116   6.750
 9153POPC   C3A73925   8.195  22.129   7.050
 9153POPC   C4A73926   8.167  22.119   7.350
 9153POPC   C1B73927   8.145  21.945   6.450
 9153POPC   C2B73928   8.227  21.868   6.750
 9153POPC   C3B73929   8.229  21.867   7.050
 9153POPC   C4B73930   8.207  21.933   7.350
 9154POPC   NC373931  16.756  24.510   5.550
 9154POPC   PO473932  16.774  24.492   5.850
 9154POPC   GL173933  16.764  24.444   6.150
 9154POPC   GL273934  16.737  24.563   6.150
 9154POPC   C1A73935  16.706  24.509   6.450
 9154POPC   D2A73936  16.709  24.464   6.750
 9154POPC   C3A73937  16.724  24.443   7.050
 9154POPC   C4A73938  16.739  24.461   7.350
 9154POPC   C1B73939  16.674  24.723   6.450
 9154POPC   C2B73940  16.678  24.700   6.750
 9154POPC   C3B73941  16.660  24.712   7.050
 9154POPC   C4B73942  16.621  24.720   7.350
 9155POPC   NC373943   9.734  22.915   5.550
 9155POPC   PO473944   9.731  22.961   5.850
 9155POPC   GL173945   9.758  22.981   6.150
 9155POPC   GL273946   9.623  22.957   6.150
 9155POPC   C1A73947   9.797  22.978   6.450
 9155POPC   D2A73948   9.737  22.902   6.750
 9155POPC   C3A73949   9.790  22.926   7.050
 9155POPC   C4A73950   9.766  22.956   7.350
 9155POPC   C1B73951   9.501  23.006   6.450
 9155POPC   C2B73952   9.523  23.053   6.750
 9155POPC   C3B73953   9.488  22.998   7.050
 9155POPC   C4B73954   9.545  23.087   7.350
 9156POPC   NC373955  41.523   9.711   5.550
 9156POPC   PO473956  41.567   9.704   5.850
 9156POPC   GL173957  41.551   9.705   6.150
 9156POPC   GL273958  41.439   9.878   6.150
 9156POPC   C1A73959  41.540   9.730   6.450
 9156POPC   D2A73960  41.533   9.723   6.750
 9156POPC   C3A73961  41.529   9.764   7.050
 9156POPC   C4A73962  41.556   9.755   7.350
 9156POPC   C1B73963  41.335   9.883   6.450
 9156POPC   C2B73964  41.397   9.869   6.750
 9156POPC   C3B73965  41.402   9.937   7.050
 9156POPC   C4B73966  41.405   9.924   7.350
 9157POPC   NC373967  29.170  19.864   5.550
 9157POPC   PO473968  29.193  19.840   5.850
 9157POPC   GL173969  29.178  19.797   6.150
 9157POPC   GL273970  29.225  19.778   6.150
 9157POPC   C1A73971  29.135  19.829   6.450
 9157POPC   D2A73972  29.187  19.800   6.750
 9157POPC   C3A73973  29.095  19.820   7.050
 9157POPC   C4A73974  29.173  19.869   7.350
 9157POPC   C1B73975  29.345  19.719   6.450
 9157POPC   C2B73976  29.314  19.699   6.750
 9157POPC   C3B73977  29.390  19.679   7.050
 9157POPC   C4B73978  29.366  19.685   7.350
 9158POPC   NC373979  32.281  40.798   5.550
 9158POPC   PO473980  32.253  40.823   5.850
 9158POPC   GL173981  32.220  40.751   6.150
 9158POPC   GL273982  32.224  40.849   6.150
 9158POPC   C1A73983  32.231  40.810   6.450
 9158POPC   D2A73984  32.284  40.820   6.750
 9158POPC   C3A73985  32.289  40.778   7.050
 9158POPC   C4A73986  32.216  40.757   7.350
 9158POPC   C1B73987  32.104  40.952   6.450
 9158POPC   C2B73988  32.090  41.008   6.750
 9158POPC   C3B73989  32.064  41.034   7.050
 9158POPC   C4B73990  32.134  40.968   7.350
 9159POPC   NC373991  11.291  44.634   5.550
 9159POPC   PO473992  11.252  44.632   5.850
 9159POPC   GL173993  11.266  44.640   6.150
 9159POPC   GL273994  11.250  44.508   6.150
 9159POPC   C1A73995  11.260  44.693   6.450
 9159POPC   D2A73996  11.292  44.695   6.750
 9159POPC   C3A73997  11.264  44.654   7.050
 9159POPC   C4A73998  11.290  44.683   7.350
 9159POPC   C1B73999  11.276  44.417   6.450
 9159POPC   C2B74000  11.278  44.382   6.750
 9159POPC   C3B74001  11.281  44.382   7.050
 9159POPC   C4B74002  11.245  44.392   7.350
 9160POPC   NC374003  35.321  22.130   5.550
 9160POPC   PO474004  35.351  22.189   5.850
 9160POPC   GL174005  35.370  22.113   6.150
 9160POPC   GL274006  35.469  22.200   6.150
 9160POPC   C1A74007  35.350  22.189   6.450
 9160POPC   D2A74008  35.378  22.198   6.750
 9160POPC   C3A74009  35.343  22.148   7.050
 9160POPC   C4A74010  35.355  22.156   7.350
 9160POPC   C1B74011  35.610  22.159   6.450
 9160POPC   C2B74012  35.640  22.206   6.750
 9160POPC   C3B74013  35.605  22.158   7.050
 9160POPC   C4B74014  35.586  22.183   7.350
 9161POPC   NC374015   4.341  13.661   5.550
 9161POPC   PO474016   4.295  13.650   5.850
 9161POPC   GL174017   4.333  13.595   6.150
 9161POPC   GL274018   4.146  13.586   6.150
 9161POPC   C1A74019   4.352  13.620   6.450
 9161POPC   D2A74020   4.275  13.628   6.750
 9161POPC   C3A74021   4.286  13.586   7.050
 9161POPC   C4A74022   4.280  13.660   7.350
 9161POPC   C1B74023   4.085  13.529   6.450
 9161POPC   C2B74024   4.053  13.616   6.750
 9161POPC   C3B74025   4.080  13.537   7.050
 9161POPC   C4B74026   4.054  13.543   7.350
 9162POPC   NC374027  29.902  32.221   5.550
 9162POPC   PO474028  29.934  32.216   5.850
 9162POPC   GL174029  29.903  32.261   6.150
 9162POPC   GL274030  29.936  32.411   6.150
 9162POPC   C1A74031  29.925  32.204   6.450
 9162POPC   D2A74032  29.951  32.227   6.750
 9162POPC   C3A74033  29.877  32.222   7.050
 9162POPC   C4A74034  29.925  32.203   7.350
 9162POPC   C1B74035  29.870  32.442   6.450
 9162POPC   C2B74036  29.890  32.511   6.750
 9162POPC   C3B74037  29.827  32.508   7.050
 9162POPC   C4B74038  29.811  32.518   7.350
 9163POPC   NC374039   3.561  42.318   5.550
 9163POPC   PO474040   3.572  42.301   5.850
 9163POPC   GL174041   3.565  42.346   6.150
 9163POPC   GL274042   3.515  42.233   6.150
 9163POPC   C1A74043   3.566  42.339   6.450
 9163POPC   D2A74044   3.531  42.297   6.750
 9163POPC   C3A74045   3.511  42.363   7.050
 9163POPC   C4A74046   3.560  42.367   7.350
 9163POPC   C1B74047   3.451  42.064   6.450
 9163POPC   C2B74048   3.491  42.143   6.750
 9163POPC   C3B74049   3.462  42.136   7.050
 9163POPC   C4B74050   3.472  42.108   7.350
 9164POPC   NC374051  21.338   1.249   5.550
 9164POPC   PO474052  21.367   1.183   5.850
 9164POPC   GL174053  21.347   1.175   6.150
 9164POPC   GL274054  21.437   1.093   6.150
 9164POPC   C1A74055  21.352   1.200   6.450
 9164POPC   D2A74056  21.374   1.181   6.750
 9164POPC   C3A74057  21.355   1.253   7.050
 9164POPC   C4A74058  21.369   1.193   7.350
 9164POPC   C1B74059  21.552   0.946   6.450
 9164POPC   C2B74060  21.507   0.987   6.750
 9164POPC   C3B74061  21.547   0.986   7.050
 9164POPC   C4B74062  21.460   1.004   7.350
 9165POPC   NC374063  19.083  39.210   5.550
 9165POPC   PO474064  19.025  39.245   5.850
 9165POPC   GL174065  19.071  39.254   6.150
 9165POPC   GL274066  19.188  39.188   6.150
 9165POPC   C1A74067  19.040  39.197   6.450
 9165POPC   D2A74068  19.047  39.183   6.750
 9165POPC   C3A74069  19.081  39.239   7.050
 9165POPC   C4A74070  19.043  39.232   7.350
 9165POPC   C1B74071  19.240  39.043   6.450
 9165POPC   C2B74072  19.219  39.063   6.750
 9165POPC   C3B74073  19.235  39.093   7.050
 9165POPC   C4B74074  19.295  39.060   7.350
 9166POPC   NC374075  29.106  12.059   5.550
 9166POPC   PO474076  29.124  12.115   5.850
 9166POPC   GL174077  29.096  12.101   6.150
 9166POPC   GL274078  29.225  12.060   6.150
 9166POPC   C1A74079  29.096  12.027   6.450
 9166POPC   D2A74080  29.173  12.060   6.750
 9166POPC   C3A74081  29.095  12.081   7.050
 9166POPC   C4A74082  29.185  12.046   7.350
 9166POPC   C1B74083  29.420  11.935   6.450
 9166POPC   C2B74084  29.332  11.933   6.750
 9166POPC   C3B74085  29.404  12.007   7.050
 9166POPC   C4B74086  29.399  11.945   7.350
 9167POPC   NC374087  13.578  10.480   5.550
 9167POPC   PO474088  13.604  10.529   5.850
 9167POPC   GL174089  13.602  10.505   6.150
 9167POPC   GL274090  13.637  10.432   6.150
 9167POPC   C1A74091  13.620  10.516   6.450
 9167POPC   D2A74092  13.602  10.522   6.750
 9167POPC   C3A74093  13.654  10.516   7.050
 9167POPC   C4A74094  13.613  10.482   7.350
 9167POPC   C1B74095  13.580  10.278   6.450
 9167POPC   C2B74096  13.614  10.320   6.750
 9167POPC   C3B74097  13.533  10.232   7.050
 9167POPC   C4B74098  13.576  10.297   7.350
 9168POPC   NC374099   3.506   8.239   5.550
 9168POPC   PO474100   3.567   8.221   5.850
 9168POPC   GL174101   3.585   8.164   6.150
 9168POPC   GL274102   3.673   8.231   6.150
 9168POPC   C1A74103   3.546   8.185   6.450
 9168POPC   D2A74104   3.586   8.196   6.750
 9168POPC   C3A74105   3.525   8.227   7.050
 9168POPC   C4A74106   3.501   8.237   7.350
 9168POPC   C1B74107   3.744   8.230   6.450
 9168POPC   C2B74108   3.767   8.220   6.750
 9168POPC   C3B74109   3.750   8.215   7.050
 9168POPC   C4B74110   3.823   8.218   7.350
 9169POPC   NC374111  38.459  20.577   5.550
 9169POPC   PO474112  38.414  20.567   5.850
 9169POPC   GL174113  38.504  20.570   6.150
 9169POPC   GL274114  38.603  20.681   6.150
 9169POPC   C1A74115  38.408  20.635   6.450
 9169POPC   D2A74116  38.484  20.579   6.750
 9169POPC   C3A74117  38.442  20.609   7.050
 9169POPC   C4A74118  38.424  20.634   7.350
 9169POPC   C1B74119  38.716  20.703   6.450
 9169POPC   C2B74120  38.684  20.635   6.750
 9169POPC   C3B74121  38.727  20.664   7.050
 9169POPC   C4B74122  38.651  20.717   7.350
 9170POPC   NC374123   4.342  14.417   5.550
 9170POPC   PO474124   4.327  14.368   5.850
 9170POPC   GL174125   4.333  14.389   6.150
 9170POPC   GL274126   4.298  14.272   6.150
 9170POPC   C1A74127   4.304  14.414   6.450
 9170POPC   D2A74128   4.325  14.367   6.750
 9170POPC   C3A74129   4.327  14.369   7.050
 9170POPC   C4A74130   4.363  14.424   7.350
 9170POPC   C1B74131   4.161  14.144   6.450
 9170POPC   C2B74132   4.155  14.220   6.750
 9170POPC   C3B74133   4.196  14.234   7.050
 9170POPC   C4B74134   4.200  14.189   7.350
 9171POPC   NC374135   2.018   8.183   5.550
 9171POPC   PO474136   1.977   8.239   5.850
 9171POPC   GL174137   1.998   8.212   6.150
 9171POPC   GL274138   2.070   8.137   6.150
 9171POPC   C1A74139   2.009   8.166   6.450
 9171POPC   D2A74140   2.009   8.169   6.750
 9171POPC   C3A74141   1.942   8.175   7.050
 9171POPC   C4A74142   1.967   8.193   7.350
 9171POPC   C1B74143   2.172   8.065   6.450
 9171POPC   C2B74144   2.173   8.038   6.750
 9171POPC   C3B74145   2.177   8.094   7.050
 9171POPC   C4B74146   2.207   8.115   7.350
 9172POPC   NC374147  39.227   6.660   5.550
 9172POPC   PO474148  39.239   6.623   5.850
 9172POPC   GL174149  39.212   6.659   6.150
 9172POPC   GL274150  39.284   6.702   6.150
 9172POPC   C1A74151  39.220   6.603   6.450
 9172POPC   D2A74152  39.182   6.647   6.750
 9172POPC   C3A74153  39.270   6.612   7.050
 9172POPC   C4A74154  39.221   6.607   7.350
 9172POPC   C1B74155  39.361   6.858   6.450
 9172POPC   C2B74156  39.427   6.858   6.750
 9172POPC   C3B74157  39.431   6.843   7.050
 9172POPC   C4B74158  39.444   6.881   7.350
 9173POPC   NC374159  11.330   9.728   5.550
 9173POPC   PO474160  11.288   9.765   5.850
 9173POPC   GL174161  11.259   9.720   6.150
 9173POPC   GL274162  11.346   9.677   6.150
 9173POPC   C1A74163  11.288   9.789   6.450
 9173POPC   D2A74164  11.282   9.797   6.750
 9173POPC   C3A74165  11.289   9.726   7.050
 9173POPC   C4A74166  11.256   9.734   7.350
 9173POPC   C1B74167  11.426   9.570   6.450
 9173POPC   C2B74168  11.488   9.527   6.750
 9173POPC   C3B74169  11.484   9.561   7.050
 9173POPC   C4B74170  11.475   9.572   7.350
 9174POPC   NC374171  33.764  19.088   5.550
 9174POPC   PO474172  33.759  19.107   5.850
 9174POPC   GL174173  33.786  19.094   6.150
 9174POPC   GL274174  33.960  19.135   6.150
 9174POPC   C1A74175  33.837  19.020   6.450
 9174POPC   D2A74176  33.775  19.066   6.750
 9174POPC   C3A74177  33.767  19.084   7.050
 9174POPC   C4A74178  33.823  19.030   7.350
 9174POPC   C1B74179  34.057  19.127   6.450
 9174POPC   C2B74180  33.985  19.160   6.750
 9174POPC   C3B74181  34.010  19.199   7.050
 9174POPC   C4B74182  34.002  19.175   7.350
 9175POPC   NC374183   7.415  18.325   5.550
 9175POPC   PO474184   7.417  18.279   5.850
 9175POPC   GL174185   7.386  18.261   6.150
 9175POPC   GL274186   7.265  18.280   6.150
 9175POPC   C1A74187   7.403  18.271   6.450
 9175POPC   D2A74188   7.414  18.266   6.750
 9175POPC   C3A74189   7.417  18.268   7.050
 9175POPC   C4A74190   7.440  18.285   7.350
 9175POPC   C1B74191   7.219  18.325   6.450
 9175POPC   C2B74192   7.198  18.309   6.750
 9175POPC   C3B74193   7.185  18.353   7.050
 9175POPC   C4B74194   7.180  18.358   7.350
 9176POPC   NC374195   8.245   2.774   5.550
 9176POPC   PO474196   8.164   2.742   5.850
 9176POPC   GL174197   8.197   2.742   6.150
 9176POPC   GL274198   8.257   2.649   6.150
 9176POPC   C1A74199   8.243   2.744   6.450
 9176POPC   D2A74200   8.159   2.781   6.750
 9176POPC   C3A74201   8.169   2.734   7.050
 9176POPC   C4A74202   8.180   2.813   7.350
 9176POPC   C1B74203   8.322   2.499   6.450
 9176POPC   C2B74204   8.319   2.583   6.750
 9176POPC   C3B74205   8.279   2.514   7.050
 9176POPC   C4B74206   8.327   2.592   7.350
 9177POPC   NC374207  15.223  41.522   5.550
 9177POPC   PO474208  15.223  41.577   5.850
 9177POPC   GL174209  15.210  41.543   6.150
 9177POPC   GL274210  15.260  41.417   6.150
 9177POPC   C1A74211  15.217  41.523   6.450
 9177POPC   D2A74212  15.222  41.567   6.750
 9177POPC   C3A74213  15.201  41.594   7.050
 9177POPC   C4A74214  15.139  41.581   7.350
 9177POPC   C1B74215  15.308  41.352   6.450
 9177POPC   C2B74216  15.309  41.376   6.750
 9177POPC   C3B74217  15.349  41.336   7.050
 9177POPC   C4B74218  15.327  41.401   7.350
 9178POPC   NC374219  24.441  26.865   5.550
 9178POPC   PO474220  24.526  26.782   5.850
 9178POPC   GL174221  24.489  26.832   6.150
 9178POPC   GL274222  24.549  26.716   6.150
 9178POPC   C1A74223  24.519  26.790   6.450
 9178POPC   D2A74224  24.539  26.826   6.750
 9178POPC   C3A74225  24.445  26.825   7.050
 9178POPC   C4A74226  24.514  26.776   7.350
 9178POPC   C1B74227  24.652  26.702   6.450
 9178POPC   C2B74228  24.713  26.622   6.750
 9178POPC   C3B74229  24.720  26.707   7.050
 9178POPC   C4B74230  24.684  26.656   7.350
 9179POPC   NC374231   5.134   3.517   5.550
 9179POPC   PO474232   5.083   3.561   5.850
 9179POPC   GL174233   5.074   3.497   6.150
 9179POPC   GL274234   4.951   3.465   6.150
 9179POPC   C1A74235   5.050   3.514   6.450
 9179POPC   D2A74236   5.104   3.554   6.750
 9179POPC   C3A74237   5.057   3.577   7.050
 9179POPC   C4A74238   5.115   3.530   7.350
 9179POPC   C1B74239   4.851   3.412   6.450
 9179POPC   C2B74240   4.851   3.495   6.750
 9179POPC   C3B74241   4.874   3.506   7.050
 9179POPC   C4B74242   4.864   3.416   7.350
 9180POPC   NC374243  35.383  26.035   5.550
 9180POPC   PO474244  35.313  26.055   5.850
 9180POPC   GL174245  35.327  26.005   6.150
 9180POPC   GL274246  35.258  25.905   6.150
 9180POPC   C1A74247  35.312  26.075   6.450
 9180POPC   D2A74248  35.311  26.032   6.750
 9180POPC   C3A74249  35.348  26.006   7.050
 9180POPC   C4A74250  35.310  26.062   7.350
 9180POPC   C1B74251  35.211  25.861   6.450
 9180POPC   C2B74252  35.192  25.852   6.750
 9180POPC   C3B74253  35.210  25.821   7.050
 9180POPC   C4B74254  35.181  25.892   7.350
 9181POPC   NC374255  12.052   1.967   5.550
 9181POPC   PO474256  12.125   2.003   5.850
 9181POPC   GL174257  12.045   1.990   6.150
 9181POPC   GL274258  12.144   2.017   6.150
 9181POPC   C1A74259  12.108   2.028   6.450
 9181POPC   D2A74260  12.106   1.974   6.750
 9181POPC   C3A74261  12.038   2.001   7.050
 9181POPC   C4A74262  12.061   1.980   7.350
 9181POPC   C1B74263  12.309   2.093   6.450
 9181POPC   C2B74264  12.268   2.131   6.750
 9181POPC   C3B74265  12.295   2.154   7.050
 9181POPC   C4B74266  12.318   2.085   7.350
 9182POPC   NC374267  27.576   1.232   5.550
 9182POPC   PO474268  27.596   1.223   5.850
 9182POPC   GL174269  27.637   1.200   6.150
 9182POPC   GL274270  27.523   1.078   6.150
 9182POPC   C1A74271  27.552   1.222   6.450
 9182POPC   D2A74272  27.563   1.224   6.750
 9182POPC   C3A74273  27.588   1.220   7.050
 9182POPC   C4A74274  27.582   1.200   7.350
 9182POPC   C1B74275  27.514   0.966   6.450
 9182POPC   C2B74276  27.499   1.030   6.750
 9182POPC   C3B74277  27.486   1.000   7.050
 9182POPC   C4B74278  27.469   0.988   7.350
 9183POPC   NC374279  35.369   7.448   5.550
 9183POPC   PO474280  35.334   7.376   5.850
 9183POPC   GL174281  35.309   7.402   6.150
 9183POPC   GL274282  35.426   7.299   6.150
 9183POPC   C1A74283  35.380   7.382   6.450
 9183POPC   D2A74284  35.362   7.463   6.750
 9183POPC   C3A74285  35.383   7.437   7.050
 9183POPC   C4A74286  35.320   7.466   7.350
 9183POPC   C1B74287  35.530   7.279   6.450
 9183POPC   C2B74288  35.522   7.258   6.750
 9183POPC   C3B74289  35.475   7.199   7.050
 9183POPC   C4B74290  35.563   7.241   7.350
 9184POPC   NC374291  36.893  29.191   5.550
 9184POPC   PO474292  36.937  29.113   5.850
 9184POPC   GL174293  36.875  29.183   6.150
 9184POPC   GL274294  36.773  29.112   6.150
 9184POPC   C1A74295  36.878  29.170   6.450
 9184POPC   D2A74296  36.889  29.105   6.750
 9184POPC   C3A74297  36.938  29.191   7.050
 9184POPC   C4A74298  36.868  29.130   7.350
 9184POPC   C1B74299  36.682  29.122   6.450
 9184POPC   C2B74300  36.693  29.124   6.750
 9184POPC   C3B74301  36.611  29.170   7.050
 9184POPC   C4B74302  36.626  29.142   7.350
 9185POPC   NC374303  11.252  15.163   5.550
 9185POPC   PO474304  11.339  15.184   5.850
 9185POPC   GL174305  11.275  15.160   6.150
 9185POPC   GL274306  11.264  15.290   6.150
 9185POPC   C1A74307  11.334  15.181   6.450
 9185POPC   D2A74308  11.275  15.139   6.750
 9185POPC   C3A74309  11.339  15.219   7.050
 9185POPC   C4A74310  11.332  15.150   7.350
 9185POPC   C1B74311  11.292  15.387   6.450
 9185POPC   C2B74312  11.300  15.454   6.750
 9185POPC   C3B74313  11.342  15.419   7.050
 9185POPC   C4B74314  11.369  15.474   7.350
 9186POPC   NC374315  24.506  15.157   5.550
 9186POPC   PO474316  24.493  15.209   5.850
 9186POPC   GL174317  24.500  15.224   6.150
 9186POPC   GL274318  24.493  15.063   6.150
 9186POPC   C1A74319  24.473  15.131   6.450
 9186POPC   D2A74320  24.471  15.226   6.750
 9186POPC   C3A74321  24.500  15.207   7.050
 9186POPC   C4A74322  24.462  15.144   7.350
 9186POPC   C1B74323  24.509  14.958   6.450
 9186POPC   C2B74324  24.475  14.932   6.750
 9186POPC   C3B74325  24.469  14.932   7.050
 9186POPC   C4B74326  24.495  14.957   7.350
 9187POPC   NC374327  25.246  25.217   5.550
 9187POPC   PO474328  25.253  25.281   5.850
 9187POPC   GL174329  25.296  25.304   6.150
 9187POPC   GL274330  25.323  25.103   6.150
 9187POPC   C1A74331  25.220  25.228   6.450
 9187POPC   D2A74332  25.295  25.217   6.750
 9187POPC   C3A74333  25.309  25.310   7.050
 9187POPC   C4A74334  25.250  25.243   7.350
 9187POPC   C1B74335  25.325  25.046   6.450
 9187POPC   C2B74336  25.383  25.041   6.750
 9187POPC   C3B74337  25.347  24.988   7.050
 9187POPC   C4B74338  25.339  25.073   7.350
 9188POPC   NC374339  36.905   6.597   5.550
 9188POPC   PO474340  36.931   6.670   5.850
 9188POPC   GL174341  36.876   6.683   6.150
 9188POPC   GL274342  36.888   6.787   6.150
 9188POPC   C1A74343  36.951   6.600   6.450
 9188POPC   D2A74344  36.867   6.686   6.750
 9188POPC   C3A74345  36.916   6.647   7.050
 9188POPC   C4A74346  36.890   6.618   7.350
 9188POPC   C1B74347  36.903   6.882   6.450
 9188POPC   C2B74348  36.927   6.871   6.750
 9188POPC   C3B74349  36.855   6.923   7.050
 9188POPC   C4B74350  36.845   6.937   7.350
 9189POPC   NC374351  19.038  40.013   5.550
 9189POPC   PO474352  19.103  39.970   5.850
 9189POPC   GL174353  19.014  40.027   6.150
 9189POPC   GL274354  19.100  39.925   6.150
 9189POPC   C1A74355  19.046  40.002   6.450
 9189POPC   D2A74356  19.101  40.019   6.750
 9189POPC   C3A74357  19.030  39.960   7.050
 9189POPC   C4A74358  19.102  40.040   7.350
 9189POPC   C1B74359  19.137  39.783   6.450
 9189POPC   C2B74360  19.155  39.765   6.750
 9189POPC   C3B74361  19.208  39.825   7.050
 9189POPC   C4B74362  19.191  39.760   7.350
 9190POPC   NC374363   5.082  40.734   5.550
 9190POPC   PO474364   5.065  40.767   5.850
 9190POPC   GL174365   5.063  40.772   6.150
 9190POPC   GL274366   5.114  40.935   6.150
 9190POPC   C1A74367   5.107  40.758   6.450
 9190POPC   D2A74368   5.105  40.735   6.750
 9190POPC   C3A74369   5.074  40.756   7.050
 9190POPC   C4A74370   5.115  40.777   7.350
 9190POPC   C1B74371   5.137  41.046   6.450
 9190POPC   C2B74372   5.107  41.022   6.750
 9190POPC   C3B74373   5.155  41.052   7.050
 9190POPC   C4B74374   5.189  40.990   7.350
 9191POPC   NC374375  34.545  12.065   5.550
 9191POPC   PO474376  34.570  12.040   5.850
 9191POPC   GL174377  34.554  12.085   6.150
 9191POPC   GL274378  34.533  12.165   6.150
 9191POPC   C1A74379  34.566  12.103   6.450
 9191POPC   D2A74380  34.539  12.119   6.750
 9191POPC   C3A74381  34.532  12.087   7.050
 9191POPC   C4A74382  34.532  12.122   7.350
 9191POPC   C1B74383  34.423  12.254   6.450
 9191POPC   C2B74384  34.470  12.267   6.750
 9191POPC   C3B74385  34.423  12.338   7.050
 9191POPC   C4B74386  34.429  12.335   7.350
 9192POPC   NC374387  19.061  37.678   5.550
 9192POPC   PO474388  19.015  37.631   5.850
 9192POPC   GL174389  19.050  37.648   6.150
 9192POPC   GL274390  19.004  37.609   6.150
 9192POPC   C1A74391  19.064  37.706   6.450
 9192POPC   D2A74392  19.022  37.676   6.750
 9192POPC   C3A74393  19.040  37.632   7.050
 9192POPC   C4A74394  19.009  37.696   7.350
 9192POPC   C1B74395  18.888  37.516   6.450
 9192POPC   C2B74396  18.873  37.458   6.750
 9192POPC   C3B74397  18.947  37.493   7.050
 9192POPC   C4B74398  18.864  37.458   7.350
 9193POPC   NC374399  21.389  35.394   5.550
 9193POPC   PO474400  21.336  35.357   5.850
 9193POPC   GL174401  21.397  35.377   6.150
 9193POPC   GL274402  21.560  35.331   6.150
 9193POPC   C1A74403  21.370  35.382   6.450
 9193POPC   D2A74404  21.342  35.364   6.750
 9193POPC   C3A74405  21.339  35.307   7.050
 9193POPC   C4A74406  21.367  35.376   7.350
 9193POPC   C1B74407  21.620  35.339   6.450
 9193POPC   C2B74408  21.683  35.306   6.750
 9193POPC   C3B74409  21.603  35.322   7.050
 9193POPC   C4B74410  21.661  35.323   7.350
 9194POPC   NC374411   3.560  12.068   5.550
 9194POPC   PO474412   3.562  12.102   5.850
 9194POPC   GL174413   3.588  12.030   6.150
 9194POPC   GL274414   3.593  12.109   6.150
 9194POPC   C1A74415   3.561  12.040   6.450
 9194POPC   D2A74416   3.509  12.071   6.750
 9194POPC   C3A74417   3.568  12.106   7.050
 9194POPC   C4A74418   3.572  12.057   7.350
 9194POPC   C1B74419   3.718  12.264   6.450
 9194POPC   C2B74420   3.728  12.262   6.750
 9194POPC   C3B74421   3.751  12.220   7.050
 9194POPC   C4B74422   3.720  12.261   7.350
 9195POPC   NC374423  11.304  19.066   5.550
 9195POPC   PO474424  11.295  19.024   5.850
 9195POPC   GL174425  11.302  19.065   6.150
 9195POPC   GL274426  11.202  19.099   6.150
 9195POPC   C1A74427  11.328  19.035   6.450
 9195POPC   D2A74428  11.307  19.063   6.750
 9195POPC   C3A74429  11.252  19.047   7.050
 9195POPC   C4A74430  11.304  19.015   7.350
 9195POPC   C1B74431  11.115  19.176   6.450
 9195POPC   C2B74432  11.082  19.170   6.750
 9195POPC   C3B74433  11.044  19.124   7.050
 9195POPC   C4B74434  11.117  19.210   7.350
 9196POPC   NC374435  31.473  39.970   5.550
 9196POPC   PO474436  31.490  39.981   5.850
 9196POPC   GL174437  31.518  39.966   6.150
 9196POPC   GL274438  31.359  39.965   6.150
 9196POPC   C1A74439  31.471  40.035   6.450
 9196POPC   D2A74440  31.460  40.057   6.750
 9196POPC   C3A74441  31.500  40.001   7.050
 9196POPC   C4A74442  31.520  40.027   7.350
 9196POPC   C1B74443  31.247  39.817   6.450
 9196POPC   C2B74444  31.311  39.864   6.750
 9196POPC   C3B74445  31.262  39.889   7.050
 9196POPC   C4B74446  31.313  39.840   7.350
 9197POPC   NC374447   8.186  30.719   5.550
 9197POPC   PO474448   8.233  30.679   5.850
 9197POPC   GL174449   8.198  30.730   6.150
 9197POPC   GL274450   8.349  30.744   6.150
 9197POPC   C1A74451   8.213  30.658   6.450
 9197POPC   D2A74452   8.217  30.727   6.750
 9197POPC   C3A74453   8.201  30.735   7.050
 9197POPC   C4A74454   8.203  30.728   7.350
 9197POPC   C1B74455   8.461  30.743   6.450
 9197POPC   C2B74456   8.436  30.744   6.750
 9197POPC   C3B74457   8.426  30.686   7.050
 9197POPC   C4B74458   8.480  30.726   7.350
 9198POPC   NC374459  26.002  20.643   5.550
 9198POPC   PO474460  25.999  20.565   5.850
 9198POPC   GL174461  26.004  20.639   6.150
 9198POPC   GL274462  25.969  20.520   6.150
 9198POPC   C1A74463  26.020  20.627   6.450
 9198POPC   D2A74464  26.055  20.641   6.750
 9198POPC   C3A74465  26.063  20.595   7.050
 9198POPC   C4A74466  26.042  20.589   7.350
 9198POPC   C1B74467  25.817  20.430   6.450
 9198POPC   C2B74468  25.801  20.428   6.750
 9198POPC   C3B74469  25.862  20.411   7.050
 9198POPC   C4B74470  25.844  20.487   7.350
 9199POPC   NC374471  24.502  44.654   5.550
 9199POPC   PO474472  24.466  44.634   5.850
 9199POPC   GL174473  24.526  44.692   6.150
 9199POPC   GL274474  24.614  44.605   6.150
 9199POPC   C1A74475  24.479  44.633   6.450
 9199POPC   D2A74476  24.463  44.630   6.750
 9199POPC   C3A74477  24.451  44.617   7.050
 9199POPC   C4A74478  24.481  44.651   7.350
 9199POPC   C1B74479  24.774  44.633   6.450
 9199POPC   C2B74480  24.738  44.614   6.750
 9199POPC   C3B74481  24.745  44.639   7.050
 9199POPC   C4B74482  24.785  44.585   7.350
 9200POPC   NC374483   1.958  43.073   5.550
 9200POPC   PO474484   1.954  43.107   5.850
 9200POPC   GL174485   2.001  43.157   6.150
 9200POPC   GL274486   2.058  43.031   6.150
 9200POPC   C1A74487   2.029  43.061   6.450
 9200POPC   D2A74488   1.955  43.127   6.750
 9200POPC   C3A74489   1.946  43.134   7.050
 9200POPC   C4A74490   2.013  43.067   7.350
 9200POPC   C1B74491   2.060  42.892   6.450
 9200POPC   C2B74492   2.107  42.835   6.750
 9200POPC   C3B74493   2.079  42.894   7.050
 9200POPC   C4B74494   2.073  42.901   7.350
 9201POPC   NC374495   7.400  14.403   5.550
 9201POPC   PO474496   7.380  14.451   5.850
 9201POPC   GL174497   7.400  14.449   6.150
 9201POPC   GL274498   7.532  14.291   6.150
 9201POPC   C1A74499   7.417  14.398   6.450
 9201POPC   D2A74500   7.414  14.389   6.750
 9201POPC   C3A74501   7.405  14.398   7.050
 9201POPC   C4A74502   7.379  14.424   7.350
 9201POPC   C1B74503   7.602  14.222   6.450
 9201POPC   C2B74504   7.592  14.219   6.750
 9201POPC   C3B74505   7.598  14.214   7.050
 9201POPC   C4B74506   7.595  14.181   7.350
 9202POPC   NC374507  11.340  12.861   5.550
 9202POPC   PO474508  11.278  12.846   5.850
 9202POPC   GL174509  11.257  12.863   6.150
 9202POPC   GL274510  11.264  12.796   6.150
 9202POPC   C1A74511  11.343  12.832   6.450
 9202POPC   D2A74512  11.329  12.837   6.750
 9202POPC   C3A74513  11.279  12.834   7.050
 9202POPC   C4A74514  11.250  12.885   7.350
 9202POPC   C1B74515  11.165  12.644   6.450
 9202POPC   C2B74516  11.185  12.649   6.750
 9202POPC   C3B74517  11.098  12.624   7.050
 9202POPC   C4B74518  11.129  12.630   7.350
 9203POPC   NC374519  30.652   6.608   5.550
 9203POPC   PO474520  30.662   6.651   5.850
 9203POPC   GL174521  30.667   6.684   6.150
 9203POPC   GL274522  30.783   6.572   6.150
 9203POPC   C1A74523  30.657   6.597   6.450
 9203POPC   D2A74524  30.708   6.609   6.750
 9203POPC   C3A74525  30.685   6.658   7.050
 9203POPC   C4A74526  30.742   6.615   7.350
 9203POPC   C1B74527  30.941   6.519   6.450
 9203POPC   C2B74528  30.962   6.511   6.750
 9203POPC   C3B74529  30.898   6.535   7.050
 9203POPC   C4B74530  30.969   6.510   7.350
 9204POPC   NC374531   2.739  29.925   5.550
 9204POPC   PO474532   2.782  29.944   5.850
 9204POPC   GL174533   2.730  29.960   6.150
 9204POPC   GL274534   2.673  29.911   6.150
 9204POPC   C1A74535   2.808  29.871   6.450
 9204POPC   D2A74536   2.772  29.942   6.750
 9204POPC   C3A74537   2.764  29.890   7.050
 9204POPC   C4A74538   2.770  29.871   7.350
 9204POPC   C1B74539   2.576  29.796   6.450
 9204POPC   C2B74540   2.494  29.889   6.750
 9204POPC   C3B74541   2.555  29.848   7.050
 9204POPC   C4B74542   2.504  29.818   7.350
 9205POPC   NC374543   1.196  12.850   5.550
 9205POPC   PO474544   1.240  12.858   5.850
 9205POPC   GL174545   1.195  12.858   6.150
 9205POPC   GL274546   1.294  12.947   6.150
 9205POPC   C1A74547   1.181  12.881   6.450
 9205POPC   D2A74548   1.259  12.852   6.750
 9205POPC   C3A74549   1.258  12.858   7.050
 9205POPC   C4A74550   1.185  12.890   7.350
 9205POPC   C1B74551   1.360  13.016   6.450
 9205POPC   C2B74552   1.446  12.962   6.750
 9205POPC   C3B74553   1.428  13.054   7.050
 9205POPC   C4B74554   1.426  13.003   7.350
 9206POPC   NC374555  14.441  13.623   5.550
 9206POPC   PO474556  14.398  13.660   5.850
 9206POPC   GL174557  14.431  13.600   6.150
 9206POPC   GL274558  14.479  13.627   6.150
 9206POPC   C1A74559  14.434  13.653   6.450
 9206POPC   D2A74560  14.422  13.646   6.750
 9206POPC   C3A74561  14.446  13.611   7.050
 9206POPC   C4A74562  14.357  13.670   7.350
 9206POPC   C1B74563  14.643  13.559   6.450
 9206POPC   C2B74564  14.604  13.619   6.750
 9206POPC   C3B74565  14.661  13.553   7.050
 9206POPC   C4B74566  14.640  13.586   7.350
 9207POPC   NC374567  26.013  30.660   5.550
 9207POPC   PO474568  26.078  30.661   5.850
 9207POPC   GL174569  26.008  30.655   6.150
 9207POPC   GL274570  26.107  30.830   6.150
 9207POPC   C1A74571  25.993  30.720   6.450
 9207POPC   D2A74572  26.046  30.666   6.750
 9207POPC   C3A74573  25.998  30.671   7.050
 9207POPC   C4A74574  26.049  30.687   7.350
 9207POPC   C1B74575  26.198  30.913   6.450
 9207POPC   C2B74576  26.196  30.873   6.750
 9207POPC   C3B74577  26.161  30.880   7.050
 9207POPC   C4B74578  26.191  30.899   7.350
 9208POPC   NC374579   7.444  25.285   5.550
 9208POPC   PO474580   7.410  25.238   5.850
 9208POPC   GL174581   7.433  25.276   6.150
 9208POPC   GL274582   7.425  25.387   6.150
 9208POPC   C1A74583   7.453  25.274   6.450
 9208POPC   D2A74584   7.453  25.241   6.750
 9208POPC   C3A74585   7.421  25.247   7.050
 9208POPC   C4A74586   7.464  25.309   7.350
 9208POPC   C1B74587   7.402  25.530   6.450
 9208POPC   C2B74588   7.396  25.525   6.750
 9208POPC   C3B74589   7.462  25.502   7.050
 9208POPC   C4B74590   7.403  25.542   7.350
 9209POPC   NC374591   1.220  27.589   5.550
 9209POPC   PO474592   1.198  27.573   5.850
 9209POPC   GL174593   1.203  27.641   6.150
 9209POPC   GL274594   1.140  27.598   6.150
 9209POPC   C1A74595   1.199  27.603   6.450
 9209POPC   D2A74596   1.171  27.599   6.750
 9209POPC   C3A74597   1.253  27.619   7.050
 9209POPC   C4A74598   1.227  27.600   7.350
 9209POPC   C1B74599   1.004  27.682   6.450
 9209POPC   C2B74600   0.951  27.649   6.750
 9209POPC   C3B74601   0.953  27.627   7.050
 9209POPC   C4B74602   1.002  27.661   7.350
 9210POPC   NC374603   5.132  27.564   5.550
 9210POPC   PO474604   5.056  27.601   5.850
 9210POPC   GL174605   5.136  27.547   6.150
 9210POPC   GL274606   4.965  27.511   6.150
 9210POPC   C1A74607   5.072  27.612   6.450
 9210POPC   D2A74608   5.072  27.635   6.750
 9210POPC   C3A74609   5.133  27.545   7.050
 9210POPC   C4A74610   5.139  27.571   7.350
 9210POPC   C1B74611   4.850  27.513   6.450
 9210POPC   C2B74612   4.908  27.478   6.750
 9210POPC   C3B74613   4.831  27.496   7.050
 9210POPC   C4B74614   4.889  27.509   7.350
 9211POPC   NC374615  11.345  16.769   5.550
 9211POPC   PO474616  11.297  16.744   5.850
 9211POPC   GL174617  11.276  16.761   6.150
 9211POPC   GL274618  11.133  16.726   6.150
 9211POPC   C1A74619  11.277  16.755   6.450
 9211POPC   D2A74620  11.285  16.769   6.750
 9211POPC   C3A74621  11.327  16.760   7.050
 9211POPC   C4A74622  11.300  16.777   7.350
 9211POPC   C1B74623  11.048  16.762   6.450
 9211POPC   C2B74624  11.052  16.836   6.750
 9211POPC   C3B74625  11.091  16.779   7.050
 9211POPC   C4B74626  11.105  16.817   7.350
 9212POPC   NC374627  12.063   9.740   5.550
 9212POPC   PO474628  12.113   9.763   5.850
 9212POPC   GL174629  12.107   9.762   6.150
 9212POPC   GL274630  11.906   9.796   6.150
 9212POPC   C1A74631  12.072   9.701   6.450
 9212POPC   D2A74632  12.118   9.700   6.750
 9212POPC   C3A74633  12.057   9.726   7.050
 9212POPC   C4A74634  12.032   9.761   7.350
 9212POPC   C1B74635  11.841   9.819   6.450
 9212POPC   C2B74636  11.873   9.781   6.750
 9212POPC   C3B74637  11.814   9.773   7.050
 9212POPC   C4B74638  11.865   9.856   7.350
 9213POPC   NC374639   8.175   9.750   5.550
 9213POPC   PO474640   8.184   9.756   5.850
 9213POPC   GL174641   8.169   9.755   6.150
 9213POPC   GL274642   8.276   9.821   6.150
 9213POPC   C1A74643   8.230   9.795   6.450
 9213POPC   D2A74644   8.167   9.743   6.750
 9213POPC   C3A74645   8.227   9.743   7.050
 9213POPC   C4A74646   8.166   9.786   7.350
 9213POPC   C1B74647   8.430   9.842   6.450
 9213POPC   C2B74648   8.364   9.857   6.750
 9213POPC   C3B74649   8.430   9.899   7.050
 9213POPC   C4B74650   8.449   9.891   7.350
 9214POPC   NC374651   0.467  43.117   5.550
 9214POPC   PO474652   0.401  43.138   5.850
 9214POPC   GL174653   0.448  43.073   6.150
 9214POPC   GL274654   0.356  43.071   6.150
 9214POPC   C1A74655   0.488  43.092   6.450
 9214POPC   D2A74656   0.424  43.074   6.750
 9214POPC   C3A74657   0.438  43.109   7.050
 9214POPC   C4A74658   0.465  43.156   7.350
 9214POPC   C1B74659   0.202  43.098   6.450
 9214POPC   C2B74660   0.153  43.093   6.750
 9214POPC   C3B74661   0.213  43.026   7.050
 9214POPC   C4B74662   0.204  43.063   7.350
 9215POPC   NC374663  20.564   1.983   5.550
 9215POPC   PO474664  20.656   1.975   5.850
 9215POPC   GL174665  20.587   2.036   6.150
 9215POPC   GL274666  20.512   1.831   6.150
 9215POPC   C1A74667  20.607   2.008   6.450
 9215POPC   D2A74668  20.590   1.963   6.750
 9215POPC   C3A74669  20.631   2.010   7.050
 9215POPC   C4A74670  20.648   1.954   7.350
 9215POPC   C1B74671  20.510   1.814   6.450
 9215POPC   C2B74672  20.460   1.730   6.750
 9215POPC   C3B74673  20.523   1.733   7.050
 9215POPC   C4B74674  20.455   1.726   7.350
 9216POPC   NC374675  36.120  32.273   5.550
 9216POPC   PO474676  36.178  32.250   5.850
 9216POPC   GL174677  36.161  32.238   6.150
 9216POPC   GL274678  36.005  32.190   6.150
 9216POPC   C1A74679  36.100  32.280   6.450
 9216POPC   D2A74680  36.151  32.242   6.750
 9216POPC   C3A74681  36.112  32.210   7.050
 9216POPC   C4A74682  36.131  32.212   7.350
 9216POPC   C1B74683  35.946  32.096   6.450
 9216POPC   C2B74684  35.913  32.043   6.750
 9216POPC   C3B74685  35.953  32.068   7.050
 9216POPC   C4B74686  35.910  32.067   7.350
 9217POPC   NC374687  12.859   1.190   5.550
 9217POPC   PO474688  12.808   1.232   5.850
 9217POPC   GL174689  12.839   1.201   6.150
 9217POPC   GL274690  12.851   1.108   6.150
 9217POPC   C1A74691  12.858   1.231   6.450
 9217POPC   D2A74692  12.880   1.208   6.750
 9217POPC   C3A74693  12.897   1.178   7.050
 9217POPC   C4A74694  12.858   1.182   7.350
 9217POPC   C1B74695  12.795   1.026   6.450
 9217POPC   C2B74696  12.732   0.979   6.750
 9217POPC   C3B74697  12.793   0.960   7.050
 9217POPC   C4B74698  12.809   0.936   7.350
 9218POPC   NC374699  41.599  20.650   5.550
 9218POPC   PO474700  41.526  20.627   5.850
 9218POPC   GL174701  41.599  20.639   6.150
 9218POPC   GL274702  41.650  20.576   6.150
 9218POPC   C1A74703  41.572  20.635   6.450
 9218POPC   D2A74704  41.586  20.631   6.750
 9218POPC   C3A74705  41.606  20.625   7.050
 9218POPC   C4A74706  41.549  20.570   7.350
 9218POPC   C1B74707  41.830  20.562   6.450
 9218POPC   C2B74708  41.837  20.610   6.750
 9218POPC   C3B74709  41.794  20.540   7.050
 9218POPC   C4B74710  41.766  20.546   7.350
 9219POPC   NC374711  27.564  34.555   5.550
 9219POPC   PO474712  27.550  34.568   5.850
 9219POPC   GL174713  27.579  34.606   6.150
 9219POPC   GL274714  27.469  34.433   6.150
 9219POPC   C1A74715  27.567  34.547   6.450
 9219POPC   D2A74716  27.626  34.583   6.750
 9219POPC   C3A74717  27.551  34.625   7.050
 9219POPC   C4A74718  27.607  34.530   7.350
 9219POPC   C1B74719  27.413  34.345   6.450
 9219POPC   C2B74720  27.398  34.340   6.750
 9219POPC   C3B74721  27.485  34.337   7.050
 9219POPC   C4B74722  27.478  34.359   7.350
 9220POPC   NC374723  25.246  33.803   5.550
 9220POPC   PO474724  25.227  33.842   5.850
 9220POPC   GL174725  25.287  33.786   6.150
 9220POPC   GL274726  25.277  33.696   6.150
 9220POPC   C1A74727  25.273  33.814   6.450
 9220POPC   D2A74728  25.224  33.823   6.750
 9220POPC   C3A74729  25.315  33.822   7.050
 9220POPC   C4A74730  25.275  33.817   7.350
 9220POPC   C1B74731  25.384  33.572   6.450
 9220POPC   C2B74732  25.310  33.542   6.750
 9220POPC   C3B74733  25.380  33.561   7.050
 9220POPC   C4B74734  25.337  33.570   7.350
 9221POPC   NC374735   1.941   0.401   5.550
 9221POPC   PO474736   1.983   0.453   5.850
 9221POPC   GL174737   2.018   0.430   6.150
 9221POPC   GL274738   2.089   0.323   6.150
 9221POPC   C1A74739   2.026   0.430   6.450
 9221POPC   D2A74740   2.037   0.461   6.750
 9221POPC   C3A74741   1.954   0.471   7.050
 9221POPC   C4A74742   2.039   0.454   7.350
 9221POPC   C1B74743   2.074   0.202   6.450
 9221POPC   C2B74744   2.116   0.230   6.750
 9221POPC   C3B74745   2.080   0.179   7.050
 9221POPC   C4B74746   2.166   0.241   7.350
 9222POPC   NC374747  19.094  44.643   5.550
 9222POPC   PO474748  19.085  44.617   5.850
 9222POPC   GL174749  19.009  44.671   6.150
 9222POPC   GL274750  18.971  44.584   6.150
 9222POPC   C1A74751  19.011  44.618   6.450
 9222POPC   D2A74752  19.050  44.629   6.750
 9222POPC   C3A74753  19.083  44.652   7.050
 9222POPC   C4A74754  19.074  44.662   7.350
 9222POPC   C1B74755  18.926  44.394   6.450
 9222POPC   C2B74756  18.929  44.442   6.750
 9222POPC   C3B74757  18.984  44.476   7.050
 9222POPC   C4B74758  18.974  44.455   7.350
 9223POPC   NC374759  32.269  33.802   5.550
 9223POPC   PO474760  32.273  33.846   5.850
 9223POPC   GL174761  32.264  33.840   6.150
 9223POPC   GL274762  32.121  33.849   6.150
 9223POPC   C1A74763  32.227  33.830   6.450
 9223POPC   D2A74764  32.295  33.769   6.750
 9223POPC   C3A74765  32.239  33.811   7.050
 9223POPC   C4A74766  32.214  33.780   7.350
 9223POPC   C1B74767  32.062  33.919   6.450
 9223POPC   C2B74768  32.006  33.887   6.750
 9223POPC   C3B74769  31.987  33.900   7.050
 9223POPC   C4B74770  32.000  33.884   7.350
 9224POPC   NC374771  12.075  14.427   5.550
 9224POPC   PO474772  12.088  14.370   5.850
 9224POPC   GL174773  12.044  14.407   6.150
 9224POPC   GL274774  11.940  14.351   6.150
 9224POPC   C1A74775  12.068  14.367   6.450
 9224POPC   D2A74776  12.075  14.434   6.750
 9224POPC   C3A74777  12.098  14.387   7.050
 9224POPC   C4A74778  12.042  14.432   7.350
 9224POPC   C1B74779  11.886  14.234   6.450
 9224POPC   C2B74780  11.826  14.271   6.750
 9224POPC   C3B74781  11.868  14.289   7.050
 9224POPC   C4B74782  11.890  14.245   7.350
 9225POPC   NC374783  30.734  29.949   5.550
 9225POPC   PO474784  30.719  29.942   5.850
 9225POPC   GL174785  30.727  29.916   6.150
 9225POPC   GL274786  30.865  29.920   6.150
 9225POPC   C1A74787  30.706  29.881   6.450
 9225POPC   D2A74788  30.716  29.902   6.750
 9225POPC   C3A74789  30.701  29.900   7.050
 9225POPC   C4A74790  30.675  29.970   7.350
 9225POPC   C1B74791  30.975  29.911   6.450
 9225POPC   C2B74792  30.932  29.917   6.750
 9225POPC   C3B74793  30.960  29.984   7.050
 9225POPC   C4B74794  30.976  29.902   7.350
 9226POPC   NC374795   8.926  34.612   5.550
 9226POPC   PO474796   8.994  34.573   5.850
 9226POPC   GL174797   8.955  34.546   6.150
 9226POPC   GL274798   9.139  34.506   6.150
 9226POPC   C1A74799   9.006  34.563   6.450
 9226POPC   D2A74800   8.976  34.529   6.750
 9226POPC   C3A74801   8.959  34.598   7.050
 9226POPC   C4A74802   8.968  34.609   7.350
 9226POPC   C1B74803   9.169  34.500   6.450
 9226POPC   C2B74804   9.261  34.517   6.750
 9226POPC   C3B74805   9.192  34.548   7.050
 9226POPC   C4B74806   9.206  34.526   7.350
 9227POPC   NC374807  29.148  20.643   5.550
 9227POPC   PO474808  29.136  20.597   5.850
 9227POPC   GL174809  29.163  20.595   6.150
 9227POPC   GL274810  29.248  20.490   6.150
 9227POPC   C1A74811  29.097  20.603   6.450
 9227POPC   D2A74812  29.137  20.593   6.750
 9227POPC   C3A74813  29.194  20.593   7.050
 9227POPC   C4A74814  29.139  20.634   7.350
 9227POPC   C1B74815  29.281  20.383   6.450
 9227POPC   C2B74816  29.297  20.404   6.750
 9227POPC   C3B74817  29.279  20.363   7.050
 9227POPC   C4B74818  29.230  20.404   7.350
 9228POPC   NC374819  29.134   1.947   5.550
 9228POPC   PO474820  29.114   2.012   5.850
 9228POPC   GL174821  29.170   1.945   6.150
 9228POPC   GL274822  29.040   2.056   6.150
 9228POPC   C1A74823  29.142   2.022   6.450
 9228POPC   D2A74824  29.195   2.006   6.750
 9228POPC   C3A74825  29.145   2.002   7.050
 9228POPC   C4A74826  29.182   1.971   7.350
 9228POPC   C1B74827  28.971   2.164   6.450
 9228POPC   C2B74828  28.962   2.105   6.750
 9228POPC   C3B74829  28.956   2.103   7.050
 9228POPC   C4B74830  28.972   2.137   7.350
 9229POPC   NC374831  13.583  42.315   5.550
 9229POPC   PO474832  13.598  42.305   5.850
 9229POPC   GL174833  13.649  42.316   6.150
 9229POPC   GL274834  13.524  42.326   6.150
 9229POPC   C1A74835  13.649  42.334   6.450
 9229POPC   D2A74836  13.675  42.318   6.750
 9229POPC   C3A74837  13.620  42.352   7.050
 9229POPC   C4A74838  13.609  42.302   7.350
 9229POPC   C1B74839  13.400  42.236   6.450
 9229POPC   C2B74840  13.430  42.254   6.750
 9229POPC   C3B74841  13.358  42.294   7.050
 9229POPC   C4B74842  13.421  42.310   7.350
 9230POPC   NC374843  39.995   5.837   5.550
 9230POPC   PO474844  39.964   5.856   5.850
 9230POPC   GL174845  39.990   5.909   6.150
 9230POPC   GL274846  39.947   5.973   6.150
 9230POPC   C1A74847  39.985   5.898   6.450
 9230POPC   D2A74848  39.977   5.864   6.750
 9230POPC   C3A74849  39.987   5.914   7.050
 9230POPC   C4A74850  39.999   5.843   7.350
 9230POPC   C1B74851  39.955   6.138   6.450
 9230POPC   C2B74852  39.908   6.097   6.750
 9230POPC   C3B74853  39.948   6.110   7.050
 9230POPC   C4B74854  39.967   6.148   7.350
 9231POPC   NC374855   9.021   1.994   5.550
 9231POPC   PO474856   8.993   1.959   5.850
 9231POPC   GL174857   9.010   1.988   6.150
 9231POPC   GL274858   9.099   1.982   6.150
 9231POPC   C1A74859   8.942   1.960   6.450
 9231POPC   D2A74860   8.955   2.012   6.750
 9231POPC   C3A74861   8.997   2.011   7.050
 9231POPC   C4A74862   8.988   1.990   7.350
 9231POPC   C1B74863   9.185   1.905   6.450
 9231POPC   C2B74864   9.189   1.902   6.750
 9231POPC   C3B74865   9.153   1.899   7.050
 9231POPC   C4B74866   9.156   1.842   7.350
 9232POPC   NC374867  19.813  40.802   5.550
 9232POPC   PO474868  19.795  40.744   5.850
 9232POPC   GL174869  19.818  40.743   6.150
 9232POPC   GL274870  19.738  40.908   6.150
 9232POPC   C1A74871  19.823  40.775   6.450
 9232POPC   D2A74872  19.860  40.804   6.750
 9232POPC   C3A74873  19.854  40.814   7.050
 9232POPC   C4A74874  19.828  40.802   7.350
 9232POPC   C1B74875  19.716  40.976   6.450
 9232POPC   C2B74876  19.712  40.973   6.750
 9232POPC   C3B74877  19.750  41.024   7.050
 9232POPC   C4B74878  19.785  41.022   7.350
 9233POPC   NC374879  28.417  26.791   5.550
 9233POPC   PO474880  28.332  26.858   5.850
 9233POPC   GL174881  28.413  26.858   6.150
 9233POPC   GL274882  28.283  26.706   6.150
 9233POPC   C1A74883  28.353  26.849   6.450
 9233POPC   D2A74884  28.352  26.788   6.750
 9233POPC   C3A74885  28.350  26.787   7.050
 9233POPC   C4A74886  28.395  26.794   7.350
 9233POPC   C1B74887  28.252  26.536   6.450
 9233POPC   C2B74888  28.304  26.589   6.750
 9233POPC   C3B74889  28.236  26.612   7.050
 9233POPC   C4B74890  28.252  26.607   7.350
 9234POPC   NC374891  39.973   7.377   5.550
 9234POPC   PO474892  39.971   7.371   5.850
 9234POPC   GL174893  40.023   7.431   6.150
 9234POPC   GL274894  39.995   7.285   6.150
 9234POPC   C1A74895  39.999   7.446   6.450
 9234POPC   D2A74896  39.997   7.440   6.750
 9234POPC   C3A74897  40.055   7.383   7.050
 9234POPC   C4A74898  40.057   7.454   7.350
 9234POPC   C1B74899  39.988   7.183   6.450
 9234POPC   C2B74900  40.054   7.132   6.750
 9234POPC   C3B74901  40.012   7.198   7.050
 9234POPC   C4B74902  39.996   7.158   7.350
 9235POPC   NC374903  15.151  35.308   5.550
 9235POPC   PO474904  15.180  35.373   5.850
 9235POPC   GL174905  15.165  35.362   6.150
 9235POPC   GL274906  15.101  35.307   6.150
 9235POPC   C1A74907  15.142  35.347   6.450
 9235POPC   D2A74908  15.200  35.342   6.750
 9235POPC   C3A74909  15.226  35.391   7.050
 9235POPC   C4A74910  15.186  35.305   7.350
 9235POPC   C1B74911  15.022  35.219   6.450
 9235POPC   C2B74912  14.998  35.181   6.750
 9235POPC   C3B74913  14.962  35.186   7.050
 9235POPC   C4B74914  15.050  35.124   7.350
 9236POPC   NC374915  19.015  33.060   5.550
 9236POPC   PO474916  19.031  33.028   5.850
 9236POPC   GL174917  19.014  32.998   6.150
 9236POPC   GL274918  19.219  32.975   6.150
 9236POPC   C1A74919  19.096  33.029   6.450
 9236POPC   D2A74920  19.031  33.011   6.750
 9236POPC   C3A74921  19.010  33.011   7.050
 9236POPC   C4A74922  19.060  33.055   7.350
 9236POPC   C1B74923  19.317  32.934   6.450
 9236POPC   C2B74924  19.319  33.006   6.750
 9236POPC   C3B74925  19.288  32.990   7.050
 9236POPC   C4B74926  19.340  32.935   7.350
 9237POPC   NC374927  29.970  30.697   5.550
 9237POPC   PO474928  29.913  30.686   5.850
 9237POPC   GL174929  29.946  30.660   6.150
 9237POPC   GL274930  29.908  30.555   6.150
 9237POPC   C1A74931  29.938  30.678   6.450
 9237POPC   D2A74932  29.899  30.711   6.750
 9237POPC   C3A74933  29.924  30.653   7.050
 9237POPC   C4A74934  29.894  30.690   7.350
 9237POPC   C1B74935  29.972  30.455   6.450
 9237POPC   C2B74936  29.997  30.497   6.750
 9237POPC   C3B74937  30.005  30.406   7.050
 9237POPC   C4B74938  29.992  30.432   7.350
 9238POPC   NC374939  36.905  26.808   5.550
 9238POPC   PO474940  36.858  26.786   5.850
 9238POPC   GL174941  36.897  26.854   6.150
 9238POPC   GL274942  36.856  26.898   6.150
 9238POPC   C1A74943  36.938  26.824   6.450
 9238POPC   D2A74944  36.859  26.848   6.750
 9238POPC   C3A74945  36.905  26.775   7.050
 9238POPC   C4A74946  36.869  26.830   7.350
 9238POPC   C1B74947  36.857  27.093   6.450
 9238POPC   C2B74948  36.887  27.075   6.750
 9238POPC   C3B74949  36.897  27.027   7.050
 9238POPC   C4B74950  36.929  27.099   7.350
 9239POPC   NC374951   7.457  32.235   5.550
 9239POPC   PO474952   7.374  32.278   5.850
 9239POPC   GL174953   7.447  32.210   6.150
 9239POPC   GL274954   7.348  32.327   6.150
 9239POPC   C1A74955   7.456  32.245   6.450
 9239POPC   D2A74956   7.469  32.249   6.750
 9239POPC   C3A74957   7.449  32.288   7.050
 9239POPC   C4A74958   7.433  32.288   7.350
 9239POPC   C1B74959   7.254  32.489   6.450
 9239POPC   C2B74960   7.295  32.419   6.750
 9239POPC   C3B74961   7.279  32.497   7.050
 9239POPC   C4B74962   7.266  32.503   7.350
 9240POPC   NC374963  26.789   5.884   5.550
 9240POPC   PO474964  26.852   5.908   5.850
 9240POPC   GL174965  26.789   5.913   6.150
 9240POPC   GL274966  26.691   5.775   6.150
 9240POPC   C1A74967  26.858   5.827   6.450
 9240POPC   D2A74968  26.846   5.899   6.750
 9240POPC   C3A74969  26.768   5.878   7.050
 9240POPC   C4A74970  26.816   5.894   7.350
 9240POPC   C1B74971  26.611   5.700   6.450
 9240POPC   C2B74972  26.601   5.642   6.750
 9240POPC   C3B74973  26.659   5.726   7.050
 9240POPC   C4B74974  26.621   5.696   7.350
 9241POPC   NC374975  24.534  21.340   5.550
 9241POPC   PO474976  24.504  21.413   5.850
 9241POPC   GL174977  24.516  21.343   6.150
 9241POPC   GL274978  24.352  21.522   6.150
 9241POPC   C1A74979  24.460  21.417   6.450
 9241POPC   D2A74980  24.468  21.355   6.750
 9241POPC   C3A74981  24.531  21.337   7.050
 9241POPC   C4A74982  24.531  21.365   7.350
 9241POPC   C1B74983  24.360  21.538   6.450
 9241POPC   C2B74984  24.299  21.558   6.750
 9241POPC   C3B74985  24.322  21.547   7.050
 9241POPC   C4B74986  24.357  21.602   7.350
 9242POPC   NC374987  11.275  29.948   5.550
 9242POPC   PO474988  11.253  29.887   5.850
 9242POPC   GL174989  11.291  29.944   6.150
 9242POPC   GL274990  11.270  30.078   6.150
 9242POPC   C1A74991  11.312  29.905   6.450
 9242POPC   D2A74992  11.282  29.913   6.750
 9242POPC   C3A74993  11.301  29.895   7.050
 9242POPC   C4A74994  11.264  29.872   7.350
 9242POPC   C1B74995  11.317  30.209   6.450
 9242POPC   C2B74996  11.309  30.154   6.750
 9242POPC   C3B74997  11.259  30.185   7.050
 9242POPC   C4B74998  11.259  30.157   7.350
 9243POPC   NC374999   0.428   7.405   5.550
 9243POPC   PO475000   0.449   7.440   5.850
 9243POPC   GL175001   0.406   7.402   6.150
 9243POPC   GL275002   0.490   7.552   6.150
 9243POPC   C1A75003   0.482   7.469   6.450
 9243POPC   D2A75004   0.429   7.387   6.750
 9243POPC   C3A75005   0.406   7.384   7.050
 9243POPC   C4A75006   0.404   7.372   7.350
 9243POPC   C1B75007   0.604   7.560   6.450
 9243POPC   C2B75008   0.649   7.638   6.750
 9243POPC   C3B75009   0.625   7.640   7.050
 9243POPC   C4B75010   0.575   7.580   7.350
 9244POPC   NC375011  40.823  23.695   5.550
 9244POPC   PO475012  40.790  23.713   5.850
 9244POPC   GL175013  40.779  23.686   6.150
 9244POPC   GL275014  40.838  23.745   6.150
 9244POPC   C1A75015  40.807  23.753   6.450
 9244POPC   D2A75016  40.760  23.739   6.750
 9244POPC   C3A75017  40.761  23.722   7.050
 9244POPC   C4A75018  40.763  23.745   7.350
 9244POPC   C1B75019  40.967  23.901   6.450
 9244POPC   C2B75020  40.941  23.913   6.750
 9244POPC   C3B75021  41.014  23.838   7.050
 9244POPC   C4B75022  41.027  23.844   7.350
 9245POPC   NC375023  27.599  29.167   5.550
 9245POPC   PO475024  27.625  29.160   5.850
 9245POPC   GL175025  27.546  29.162   6.150
 9245POPC   GL275026  27.736  29.133   6.150
 9245POPC   C1A75027  27.557  29.137   6.450
 9245POPC   D2A75028  27.585  29.178   6.750
 9245POPC   C3A75029  27.579  29.116   7.050
 9245POPC   C4A75030  27.635  29.134   7.350
 9245POPC   C1B75031  27.845  29.074   6.450
 9245POPC   C2B75032  27.872  29.097   6.750
 9245POPC   C3B75033  27.860  29.044   7.050
 9245POPC   C4B75034  27.859  29.036   7.350
 9246POPC   NC375035  43.128  43.114   5.550
 9246POPC   PO475036  43.131  43.115   5.850
 9246POPC   GL175037  43.154  43.088   6.150
 9246POPC   GL275038  43.020  43.130   6.150
 9246POPC   C1A75039  43.149  43.159   6.450
 9246POPC   D2A75040  43.089  43.087   6.750
 9246POPC   C3A75041  43.100  43.142   7.050
 9246POPC   C4A75042  43.142  43.107   7.350
 9246POPC   C1B75043  42.814  43.134   6.450
 9246POPC   C2B75044  42.897  43.102   6.750
 9246POPC   C3B75045  42.832  43.128   7.050
 9246POPC   C4B75046  42.904  43.136   7.350
 9247POPC   NC375047  32.985  15.142   5.550
 9247POPC   PO475048  33.050  15.152   5.850
 9247POPC   GL175049  33.070  15.141   6.150
 9247POPC   GL275050  32.900  15.079   6.150
 9247POPC   C1A75051  33.008  15.171   6.450
 9247POPC   D2A75052  32.992  15.159   6.750
 9247POPC   C3A75053  33.035  15.139   7.050
 9247POPC   C4A75054  33.003  15.200   7.350
 9247POPC   C1B75055  32.795  14.993   6.450
 9247POPC   C2B75056  32.836  15.038   6.750
 9247POPC   C3B75057  32.813  14.965   7.050
 9247POPC   C4B75058  32.803  14.989   7.350
 9248POPC   NC375059  15.981  43.884   5.550
 9248POPC   PO475060  15.911  43.871   5.850
 9248POPC   GL175061  15.977  43.904   6.150
 9248POPC   GL275062  15.928  43.718   6.150
 9248POPC   C1A75063  15.966  43.846   6.450
 9248POPC   D2A75064  15.999  43.904   6.750
 9248POPC   C3A75065  15.988  43.927   7.050
 9248POPC   C4A75066  15.914  43.917   7.350
 9248POPC   C1B75067  16.025  43.661   6.450
 9248POPC   C2B75068  15.972  43.685   6.750
 9248POPC   C3B75069  16.036  43.649   7.050
 9248POPC   C4B75070  16.025  43.670   7.350
 9249POPC   NC375071   0.406  36.911   5.550
 9249POPC   PO475072   0.416  36.921   5.850
 9249POPC   GL175073   0.458  36.942   6.150
 9249POPC   GL275074   0.545  36.776   6.150
 9249POPC   C1A75075   0.447  36.872   6.450
 9249POPC   D2A75076   0.447  36.934   6.750
 9249POPC   C3A75077   0.431  36.926   7.050
 9249POPC   C4A75078   0.476  36.876   7.350
 9249POPC   C1B75079   0.592  36.770   6.450
 9249POPC   C2B75080   0.621  36.743   6.750
 9249POPC   C3B75081   0.609  36.758   7.050
 9249POPC   C4B75082   0.658  36.769   7.350
 9250POPC   NC375083  29.167  27.565   5.550
 9250POPC   PO475084  29.164  27.632   5.850
 9250POPC   GL175085  29.168  27.628   6.150
 9250POPC   GL275086  29.192  27.511   6.150
 9250POPC   C1A75087  29.165  27.585   6.450
 9250POPC   D2A75088  29.136  27.563   6.750
 9250POPC   C3A75089  29.110  27.615   7.050
 9250POPC   C4A75090  29.120  27.578   7.350
 9250POPC   C1B75091  29.198  27.337   6.450
 9250POPC   C2B75092  29.211  27.362   6.750
 9250POPC   C3B75093  29.188  27.387   7.050
 9250POPC   C4B75094  29.226  27.350   7.350
 9251POPC   NC375095   0.409  29.959   5.550
 9251POPC   PO475096   0.480  29.915   5.850
 9251POPC   GL175097   0.471  29.959   6.150
 9251POPC   GL275098   0.530  29.783   6.150
 9251POPC   C1A75099   0.462  29.950   6.450
 9251POPC   D2A75100   0.465  29.897   6.750
 9251POPC   C3A75101   0.478  29.908   7.050
 9251POPC   C4A75102   0.458  29.904   7.350
 9251POPC   C1B75103   0.590  29.731   6.450
 9251POPC   C2B75104   0.568  29.721   6.750
 9251POPC   C3B75105   0.559  29.697   7.050
 9251POPC   C4B75106   0.504  29.699   7.350
 9252POPC   NC375107  11.333  31.468   5.550
 9252POPC   PO475108  11.307  31.447   5.850
 9252POPC   GL175109  11.316  31.440   6.150
 9252POPC   GL275110  11.165  31.396   6.150
 9252POPC   C1A75111  11.262  31.445   6.450
 9252POPC   D2A75112  11.331  31.466   6.750
 9252POPC   C3A75113  11.295  31.499   7.050
 9252POPC   C4A75114  11.323  31.443   7.350
 9252POPC   C1B75115  11.058  31.385   6.450
 9252POPC   C2B75116  11.037  31.367   6.750
 9252POPC   C3B75117  11.093  31.373   7.050
 9252POPC   C4B75118  11.099  31.372   7.350
 9253POPC   NC375119  31.521  40.795   5.550
 9253POPC   PO475120  31.449  40.751   5.850
 9253POPC   GL175121  31.454  40.747   6.150
 9253POPC   GL275122  31.562  40.754   6.150
 9253POPC   C1A75123  31.469  40.751   6.450
 9253POPC   D2A75124  31.492  40.787   6.750
 9253POPC   C3A75125  31.520  40.803   7.050
 9253POPC   C4A75126  31.476  40.779   7.350
 9253POPC   C1B75127  31.684  40.824   6.450
 9253POPC   C2B75128  31.734  40.787   6.750
 9253POPC   C3B75129  31.718  40.785   7.050
 9253POPC   C4B75130  31.759  40.835   7.350
 9254POPC   NC375131   8.973  12.822   5.550
 9254POPC   PO475132   8.959  12.862   5.850
 9254POPC   GL175133   8.929  12.833   6.150
 9254POPC   GL275134   8.870  12.892   6.150
 9254POPC   C1A75135   8.981  12.883   6.450
 9254POPC   D2A75136   8.959  12.828   6.750
 9254POPC   C3A75137   8.945  12.869   7.050
 9254POPC   C4A75138   8.947  12.886   7.350
 9254POPC   C1B75139   8.788  13.030   6.450
 9254POPC   C2B75140   8.802  12.991   6.750
 9254POPC   C3B75141   8.782  13.048   7.050
 9254POPC   C4B75142   8.767  13.057   7.350
 9255POPC   NC375143   6.687  21.382   5.550
 9255POPC   PO475144   6.644  21.421   5.850
 9255POPC   GL175145   6.603  21.400   6.150
 9255POPC   GL275146   6.700  21.277   6.150
 9255POPC   C1A75147   6.628  21.359   6.450
 9255POPC   D2A75148   6.676  21.412   6.750
 9255POPC   C3A75149   6.671  21.423   7.050
 9255POPC   C4A75150   6.657  21.431   7.350
 9255POPC   C1B75151   6.804  21.229   6.450
 9255POPC   C2B75152   6.859  21.186   6.750
 9255POPC   C3B75153   6.845  21.213   7.050
 9255POPC   C4B75154   6.812  21.249   7.350
 9256POPC   NC375155   1.186   8.162   5.550
 9256POPC   PO475156   1.181   8.180   5.850
 9256POPC   GL175157   1.193   8.171   6.150
 9256POPC   GL275158   1.253   8.068   6.150
 9256POPC   C1A75159   1.206   8.246   6.450
 9256POPC   D2A75160   1.177   8.234   6.750
 9256POPC   C3A75161   1.198   8.175   7.050
 9256POPC   C4A75162   1.214   8.242   7.350
 9256POPC   C1B75163   1.274   7.910   6.450
 9256POPC   C2B75164   1.255   7.989   6.750
 9256POPC   C3B75165   1.341   7.949   7.050
 9256POPC   C4B75166   1.249   7.914   7.350
 9257POPC   NC375167  31.429  26.062   5.550
 9257POPC   PO475168  31.474  25.995   5.850
 9257POPC   GL175169  31.456  25.997   6.150
 9257POPC   GL275170  31.446  25.908   6.150
 9257POPC   C1A75171  31.470  26.018   6.450
 9257POPC   D2A75172  31.476  26.011   6.750
 9257POPC   C3A75173  31.453  26.059   7.050
 9257POPC   C4A75174  31.469  26.052   7.350
 9257POPC   C1B75175  31.404  25.761   6.450
 9257POPC   C2B75176  31.368  25.775   6.750
 9257POPC   C3B75177  31.391  25.851   7.050
 9257POPC   C4B75178  31.346  25.854   7.350
 9258POPC   NC375179  23.763  30.703   5.550
 9258POPC   PO475180  23.749  30.671   5.850
 9258POPC   GL175181  23.696  30.709   6.150
 9258POPC   GL275182  23.792  30.800   6.150
 9258POPC   C1A75183  23.725  30.734   6.450
 9258POPC   D2A75184  23.747  30.711   6.750
 9258POPC   C3A75185  23.677  30.654   7.050
 9258POPC   C4A75186  23.709  30.698   7.350
 9258POPC   C1B75187  23.838  30.921   6.450
 9258POPC   C2B75188  23.853  30.924   6.750
 9258POPC   C3B75189  23.906  30.872   7.050
 9258POPC   C4B75190  23.866  30.841   7.350
 9259POPC   NC375191   7.378  26.031   5.550
 9259POPC   PO475192   7.413  26.089   5.850
 9259POPC   GL175193   7.423  26.039   6.150
 9259POPC   GL275194   7.471  25.926   6.150
 9259POPC   C1A75195   7.446  25.993   6.450
 9259POPC   D2A75196   7.438  26.000   6.750
 9259POPC   C3A75197   7.381  26.016   7.050
 9259POPC   C4A75198   7.466  26.035   7.350
 9259POPC   C1B75199   7.593  25.860   6.450
 9259POPC   C2B75200   7.612  25.836   6.750
 9259POPC   C3B75201   7.565  25.871   7.050
 9259POPC   C4B75202   7.550  25.847   7.350
 9260POPC   NC375203  32.280  26.805   5.550
 9260POPC   PO475204  32.260  26.851   5.850
 9260POPC   GL175205  32.258  26.777   6.150
 9260POPC   GL275206  32.274  26.669   6.150
 9260POPC   C1A75207  32.262  26.795   6.450
 9260POPC   D2A75208  32.231  26.824   6.750
 9260POPC   C3A75209  32.237  26.800   7.050
 9260POPC   C4A75210  32.202  26.801   7.350
 9260POPC   C1B75211  32.373  26.612   6.450
 9260POPC   C2B75212  32.378  26.578   6.750
 9260POPC   C3B75213  32.362  26.572   7.050
 9260POPC   C4B75214  32.422  26.625   7.350
 9261POPC   NC375215  44.669  30.666   5.550
 9261POPC   PO475216  44.613  30.731   5.850
 9261POPC   GL175217  44.695  30.685   6.150
 9261POPC   GL275218  44.830  30.682   6.150
 9261POPC   C1A75219  44.623  30.652   6.450
 9261POPC   D2A75220  44.630  30.674   6.750
 9261POPC   C3A75221  44.682  30.711   7.050
 9261POPC   C4A75222  44.633  30.717   7.350
 9261POPC   C1B75223  44.947  30.677   6.450
 9261POPC   C2B75224  44.859  30.652   6.750
 9261POPC   C3B75225  44.879  30.666   7.050
 9261POPC   C4B75226  44.860  30.655   7.350
 9262POPC   NC375227  43.118  15.169   5.550
 9262POPC   PO475228  43.101  15.165   5.850
 9262POPC   GL175229  43.085  15.152   6.150
 9262POPC   GL275230  42.976  15.267   6.150
 9262POPC   C1A75231  43.125  15.209   6.450
 9262POPC   D2A75232  43.061  15.150   6.750
 9262POPC   C3A75233  43.132  15.213   7.050
 9262POPC   C4A75234  43.160  15.174   7.350
 9262POPC   C1B75235  42.906  15.246   6.450
 9262POPC   C2B75236  42.838  15.305   6.750
 9262POPC   C3B75237  42.869  15.302   7.050
 9262POPC   C4B75238  42.822  15.225   7.350
 9263POPC   NC375239  11.276  43.888   5.550
 9263POPC   PO475240  11.281  43.869   5.850
 9263POPC   GL175241  11.292  43.936   6.150
 9263POPC   GL275242  11.233  43.946   6.150
 9263POPC   C1A75243  11.333  43.858   6.450
 9263POPC   D2A75244  11.291  43.839   6.750
 9263POPC   C3A75245  11.347  43.935   7.050
 9263POPC   C4A75246  11.317  43.890   7.350
 9263POPC   C1B75247  11.179  44.041   6.450
 9263POPC   C2B75248  11.190  44.130   6.750
 9263POPC   C3B75249  11.194  44.133   7.050
 9263POPC   C4B75250  11.129  44.065   7.350
 9264POPC   NC375251  29.165  22.164   5.550
 9264POPC   PO475252  29.190  22.120   5.850
 9264POPC   GL175253  29.169  22.204   6.150
 9264POPC   GL275254  29.138  22.009   6.150
 9264POPC   C1A75255  29.189  22.177   6.450
 9264POPC   D2A75256  29.146  22.137   6.750
 9264POPC   C3A75257  29.130  22.185   7.050
 9264POPC   C4A75258  29.154  22.205   7.350
 9264POPC   C1B75259  29.065  21.869   6.450
 9264POPC   C2B75260  29.131  21.925   6.750
 9264POPC   C3B75261  29.083  21.881   7.050
 9264POPC   C4B75262  29.089  21.881   7.350
 9265POPC   NC375263   9.746  37.636   5.550
 9265POPC   PO475264   9.757  37.704   5.850
 9265POPC   GL175265   9.787  37.680   6.150
 9265POPC   GL275266   9.813  37.557   6.150
 9265POPC   C1A75267   9.780  37.661   6.450
 9265POPC   D2A75268   9.737  37.669   6.750
 9265POPC   C3A75269   9.720  37.673   7.050
 9265POPC   C4A75270   9.788  37.719   7.350
 9265POPC   C1B75271   9.897  37.488   6.450
 9265POPC   C2B75272   9.865  37.429   6.750
 9265POPC   C3B75273   9.887  37.487   7.050
 9265POPC   C4B75274   9.913  37.465   7.350
 9266POPC   NC375275  39.269  43.103   5.550
 9266POPC   PO475276  39.213  43.107   5.850
 9266POPC   GL175277  39.271  43.067   6.150
 9266POPC   GL275278  39.323  43.143   6.150
 9266POPC   C1A75279  39.270  43.112   6.450
 9266POPC   D2A75280  39.226  43.083   6.750
 9266POPC   C3A75281  39.263  43.125   7.050
 9266POPC   C4A75282  39.184  43.115   7.350
 9266POPC   C1B75283  39.436  43.194   6.450
 9266POPC   C2B75284  39.479  43.184   6.750
 9266POPC   C3B75285  39.441  43.104   7.050
 9266POPC   C4B75286  39.495  43.190   7.350
 9267POPC   NC375287   2.006  10.529   5.550
 9267POPC   PO475288   1.988  10.519   5.850
 9267POPC   GL175289   1.958  10.571   6.150
 9267POPC   GL275290   1.845  10.471   6.150
 9267POPC   C1A75291   2.001  10.530   6.450
 9267POPC   D2A75292   1.984  10.567   6.750
 9267POPC   C3A75293   1.982  10.509   7.050
 9267POPC   C4A75294   1.944  10.552   7.350
 9267POPC   C1B75295   1.771  10.488   6.450
 9267POPC   C2B75296   1.713  10.507   6.750
 9267POPC   C3B75297   1.757  10.539   7.050
 9267POPC   C4B75298   1.770  10.516   7.350
 9268POPC   NC375299  15.970  29.163   5.550
 9268POPC   PO475300  15.947  29.173   5.850
 9268POPC   GL175301  15.921  29.156   6.150
 9268POPC   GL275302  16.124  29.189   6.150
 9268POPC   C1A75303  15.916  29.145   6.450
 9268POPC   D2A75304  15.991  29.194   6.750
 9268POPC   C3A75305  15.929  29.165   7.050
 9268POPC   C4A75306  15.938  29.159   7.350
 9268POPC   C1B75307  16.197  29.124   6.450
 9268POPC   C2B75308  16.183  29.149   6.750
 9268POPC   C3B75309  16.239  29.165   7.050
 9268POPC   C4B75310  16.173  29.109   7.350
 9269POPC   NC375311  15.198   8.923   5.550
 9269POPC   PO475312  15.181   8.970   5.850
 9269POPC   GL175313  15.151   9.016   6.150
 9269POPC   GL275314  15.191   8.893   6.150
 9269POPC   C1A75315  15.150   8.933   6.450
 9269POPC   D2A75316  15.149   8.949   6.750
 9269POPC   C3A75317  15.155   8.986   7.050
 9269POPC   C4A75318  15.213   8.949   7.350
 9269POPC   C1B75319  15.158   8.696   6.450
 9269POPC   C2B75320  15.142   8.673   6.750
 9269POPC   C3B75321  15.173   8.704   7.050
 9269POPC   C4B75322  15.188   8.721   7.350
 9270POPC   NC375323  35.337  44.634   5.550
 9270POPC   PO475324  35.398  44.711   5.850
 9270POPC   GL175325  35.382  44.636   6.150
 9270POPC   GL275326  35.287  44.756   6.150
 9270POPC   C1A75327  35.316  44.690   6.450
 9270POPC   D2A75328  35.332  44.664   6.750
 9270POPC   C3A75329  35.306  44.706   7.050
 9270POPC   C4A75330  35.304  44.669   7.350
 9270POPC   C1B75331  35.186  44.905   6.450
 9270POPC   C2B75332  35.263  44.890   6.750
 9270POPC   C3B75333  35.197  44.839   7.050
 9270POPC   C4B75334  35.264  44.870   7.350
 9271POPC   NC375335  29.932  13.614   5.550
 9271POPC   PO475336  29.939  13.596   5.850
 9271POPC   GL175337  29.899  13.665   6.150
 9271POPC   GL275338  29.788  13.709   6.150
 9271POPC   C1A75339  29.872  13.609   6.450
 9271POPC   D2A75340  29.953  13.596   6.750
 9271POPC   C3A75341  29.875  13.611   7.050
 9271POPC   C4A75342  29.962  13.617   7.350
 9271POPC   C1B75343  29.727  13.769   6.450
 9271POPC   C2B75344  29.685  13.807   6.750
 9271POPC   C3B75345  29.709  13.747   7.050
 9271POPC   C4B75346  29.748  13.761   7.350
 9272POPC   NC375347   4.291  26.007   5.550
 9272POPC   PO475348   4.301  25.995   5.850
 9272POPC   GL175349   4.318  26.018   6.150
 9272POPC   GL275350   4.335  25.963   6.150
 9272POPC   C1A75351   4.332  26.030   6.450
 9272POPC   D2A75352   4.335  26.028   6.750
 9272POPC   C3A75353   4.346  26.079   7.050
 9272POPC   C4A75354   4.366  26.039   7.350
 9272POPC   C1B75355   4.278  25.827   6.450
 9272POPC   C2B75356   4.285  25.796   6.750
 9272POPC   C3B75357   4.237  25.826   7.050
 9272POPC   C4B75358   4.289  25.841   7.350
 9273POPC   NC375359  15.181  37.715   5.550
 9273POPC   PO475360  15.132  37.714   5.850
 9273POPC   GL175361  15.169  37.662   6.150
 9273POPC   GL275362  15.123  37.804   6.150
 9273POPC   C1A75363  15.191  37.719   6.450
 9273POPC   D2A75364  15.139  37.697   6.750
 9273POPC   C3A75365  15.196  37.657   7.050
 9273POPC   C4A75366  15.189  37.655   7.350
 9273POPC   C1B75367  14.978  37.855   6.450
 9273POPC   C2B75368  15.022  37.795   6.750
 9273POPC   C3B75369  14.960  37.801   7.050
 9273POPC   C4B75370  14.994  37.850   7.350
 9274POPC   NC375371  28.401  21.404   5.550
 9274POPC   PO475372  28.406  21.427   5.850
 9274POPC   GL175373  28.374  21.337   6.150
 9274POPC   GL275374  28.453  21.497   6.150
 9274POPC   C1A75375  28.353  21.347   6.450
 9274POPC   D2A75376  28.379  21.382   6.750
 9274POPC   C3A75377  28.342  21.340   7.050
 9274POPC   C4A75378  28.360  21.421   7.350
 9274POPC   C1B75379  28.525  21.506   6.450
 9274POPC   C2B75380  28.519  21.534   6.750
 9274POPC   C3B75381  28.575  21.566   7.050
 9274POPC   C4B75382  28.561  21.519   7.350
 9275POPC   NC375383  15.917  15.988   5.550
 9275POPC   PO475384  15.960  15.916   5.850
 9275POPC   GL175385  15.921  16.004   6.150
 9275POPC   GL275386  15.880  15.857   6.150
 9275POPC   C1A75387  15.940  15.922   6.450
 9275POPC   D2A75388  15.933  15.954   6.750
 9275POPC   C3A75389  15.914  15.984   7.050
 9275POPC   C4A75390  15.949  15.983   7.350
 9275POPC   C1B75391  15.758  15.824   6.450
 9275POPC   C2B75392  15.719  15.813   6.750
 9275POPC   C3B75393  15.745  15.854   7.050
 9275POPC   C4B75394  15.774  15.816   7.350
 9276POPC   NC375395   2.809   8.227   5.550
 9276POPC   PO475396   2.746   8.165   5.850
 9276POPC   GL175397   2.720   8.223   6.150
 9276POPC   GL275398   2.885   8.297   6.150
 9276POPC   C1A75399   2.790   8.243   6.450
 9276POPC   D2A75400   2.737   8.219   6.750
 9276POPC   C3A75401   2.765   8.176   7.050
 9276POPC   C4A75402   2.721   8.150   7.350
 9276POPC   C1B75403   3.024   8.339   6.450
 9276POPC   C2B75404   3.007   8.280   6.750
 9276POPC   C3B75405   3.024   8.337   7.050
 9276POPC   C4B75406   2.995   8.345   7.350
 9277POPC   NC375407  26.063  32.294   5.550
 9277POPC   PO475408  26.051  32.245   5.850
 9277POPC   GL175409  26.004  32.226   6.150
 9277POPC   GL275410  26.106  32.286   6.150
 9277POPC   C1A75411  26.027  32.259   6.450
 9277POPC   D2A75412  26.011  32.216   6.750
 9277POPC   C3A75413  26.063  32.221   7.050
 9277POPC   C4A75414  25.992  32.258   7.350
 9277POPC   C1B75415  26.230  32.414   6.450
 9277POPC   C2B75416  26.263  32.345   6.750
 9277POPC   C3B75417  26.253  32.354   7.050
 9277POPC   C4B75418  26.288  32.401   7.350
 9278POPC   NC375419  19.036  21.378   5.550
 9278POPC   PO475420  19.022  21.388   5.850
 9278POPC   GL175421  19.026  21.429   6.150
 9278POPC   GL275422  19.105  21.308   6.150
 9278POPC   C1A75423  19.033  21.390   6.450
 9278POPC   D2A75424  19.107  21.432   6.750
 9278POPC   C3A75425  19.031  21.409   7.050
 9278POPC   C4A75426  19.060  21.379   7.350
 9278POPC   C1B75427  19.242  21.216   6.450
 9278POPC   C2B75428  19.217  21.219   6.750
 9278POPC   C3B75429  19.264  21.186   7.050
 9278POPC   C4B75430  19.268  21.191   7.350
 9279POPC   NC375431  25.307   8.232   5.550
 9279POPC   PO475432  25.283   8.184   5.850
 9279POPC   GL175433  25.281   8.162   6.150
 9279POPC   GL275434  25.432   8.155   6.150
 9279POPC   C1A75435  25.284   8.216   6.450
 9279POPC   D2A75436  25.280   8.217   6.750
 9279POPC   C3A75437  25.281   8.215   7.050
 9279POPC   C4A75438  25.289   8.172   7.350
 9279POPC   C1B75439  25.498   8.227   6.450
 9279POPC   C2B75440  25.538   8.166   6.750
 9279POPC   C3B75441  25.521   8.216   7.050
 9279POPC   C4B75442  25.548   8.224   7.350
 9280POPC   NC375443  32.292  20.567   5.550
 9280POPC   PO475444  32.235  20.619   5.850
 9280POPC   GL175445  32.268  20.614   6.150
 9280POPC   GL275446  32.307  20.501   6.150
 9280POPC   C1A75447  32.245  20.659   6.450
 9280POPC   D2A75448  32.244  20.644   6.750
 9280POPC   C3A75449  32.278  20.619   7.050
 9280POPC   C4A75450  32.278  20.619   7.350
 9280POPC   C1B75451  32.365  20.427   6.450
 9280POPC   C2B75452  32.368  20.433   6.750
 9280POPC   C3B75453  32.376  20.369   7.050
 9280POPC   C4B75454  32.389  20.389   7.350
 9281POPC   NC375455   9.720  44.633   5.550
 9281POPC   PO475456   9.710  44.628   5.850
 9281POPC   GL175457   9.720  44.631   6.150
 9281POPC   GL275458   9.891  44.634   6.150
 9281POPC   C1A75459   9.699  44.667   6.450
 9281POPC   D2A75460   9.751  44.653   6.750
 9281POPC   C3A75461   9.702  44.655   7.050
 9281POPC   C4A75462   9.726  44.663   7.350
 9281POPC   C1B75463   9.991  44.628   6.450
 9281POPC   C2B75464   9.976  44.692   6.750
 9281POPC   C3B75465  10.004  44.623   7.050
 9281POPC   C4B75466   9.972  44.702   7.350
 9282POPC   NC375467  37.706  33.003   5.550
 9282POPC   PO475468  37.662  33.008   5.850
 9282POPC   GL175469  37.683  32.986   6.150
 9282POPC   GL275470  37.722  33.113   6.150
 9282POPC   C1A75471  37.692  32.989   6.450
 9282POPC   D2A75472  37.718  33.052   6.750
 9282POPC   C3A75473  37.699  33.008   7.050
 9282POPC   C4A75474  37.718  33.066   7.350
 9282POPC   C1B75475  37.653  33.317   6.450
 9282POPC   C2B75476  37.722  33.255   6.750
 9282POPC   C3B75477  37.671  33.284   7.050
 9282POPC   C4B75478  37.697  33.269   7.350
 9283POPC   NC375479  36.936  10.483   5.550
 9283POPC   PO475480  36.901  10.561   5.850
 9283POPC   GL175481  36.913  10.546   6.150
 9283POPC   GL275482  36.877  10.436   6.150
 9283POPC   C1A75483  36.943  10.568   6.450
 9283POPC   D2A75484  36.943  10.572   6.750
 9283POPC   C3A75485  36.870  10.495   7.050
 9283POPC   C4A75486  36.909  10.525   7.350
 9283POPC   C1B75487  36.821  10.308   6.450
 9283POPC   C2B75488  36.816  10.264   6.750
 9283POPC   C3B75489  36.844  10.249   7.050
 9283POPC   C4B75490  36.790  10.330   7.350
 9284POPC   NC375491  36.887  29.926   5.550
 9284POPC   PO475492  36.944  29.909   5.850
 9284POPC   GL175493  36.907  29.890   6.150
 9284POPC   GL275494  36.959  29.811   6.150
 9284POPC   C1A75495  36.878  29.944   6.450
 9284POPC   D2A75496  36.855  29.946   6.750
 9284POPC   C3A75497  36.855  29.927   7.050
 9284POPC   C4A75498  36.935  29.961   7.350
 9284POPC   C1B75499  37.013  29.712   6.450
 9284POPC   C2B75500  37.052  29.665   6.750
 9284POPC   C3B75501  37.057  29.646   7.050
 9284POPC   C4B75502  37.029  29.702   7.350
 9285POPC   NC375503  26.818  28.378   5.550
 9285POPC   PO475504  26.784  28.402   5.850
 9285POPC   GL175505  26.787  28.373   6.150
 9285POPC   GL275506  26.990  28.311   6.150
 9285POPC   C1A75507  26.825  28.362   6.450
 9285POPC   D2A75508  26.804  28.386   6.750
 9285POPC   C3A75509  26.802  28.369   7.050
 9285POPC   C4A75510  26.836  28.365   7.350
 9285POPC   C1B75511  27.038  28.375   6.450
 9285POPC   C2B75512  27.073  28.354   6.750
 9285POPC   C3B75513  27.061  28.303   7.050
 9285POPC   C4B75514  27.062  28.337   7.350
 9286POPC   NC375515  15.990  29.915   5.550
 9286POPC   PO475516  15.955  29.915   5.850
 9286POPC   GL175517  15.947  29.965   6.150
 9286POPC   GL275518  16.072  29.982   6.150
 9286POPC   C1A75519  15.967  29.968   6.450
 9286POPC   D2A75520  15.925  29.913   6.750
 9286POPC   C3A75521  15.959  29.957   7.050
 9286POPC   C4A75522  15.922  29.935   7.350
 9286POPC   C1B75523  16.177  30.034   6.450
 9286POPC   C2B75524  16.129  30.113   6.750
 9286POPC   C3B75525  16.183  30.047   7.050
 9286POPC   C4B75526  16.112  30.083   7.350
 9287POPC   NC375527   3.553  28.331   5.550
 9287POPC   PO475528   3.529  28.412   5.850
 9287POPC   GL175529   3.569  28.400   6.150
 9287POPC   GL275530   3.692  28.396   6.150
 9287POPC   C1A75531   3.571  28.401   6.450
 9287POPC   D2A75532   3.505  28.368   6.750
 9287POPC   C3A75533   3.570  28.345   7.050
 9287POPC   C4A75534   3.557  28.363   7.350
 9287POPC   C1B75535   3.755  28.474   6.450
 9287POPC   C2B75536   3.731  28.418   6.750
 9287POPC   C3B75537   3.777  28.430   7.050
 9287POPC   C4B75538   3.765  28.470   7.350
 9288POPC   NC375539  13.643   2.740   5.550
 9288POPC   PO475540  13.663   2.773   5.850
 9288POPC   GL175541  13.661   2.779   6.150
 9288POPC   GL275542  13.708   2.708   6.150
 9288POPC   C1A75543  13.643   2.724   6.450
 9288POPC   D2A75544  13.595   2.811   6.750
 9288POPC   C3A75545  13.580   2.717   7.050
 9288POPC   C4A75546  13.656   2.752   7.350
 9288POPC   C1B75547  13.852   2.623   6.450
 9288POPC   C2B75548  13.791   2.610   6.750
 9288POPC   C3B75549  13.839   2.584   7.050
 9288POPC   C4B75550  13.804   2.658   7.350
 9289POPC   NC375551   9.722   9.700   5.550
 9289POPC   PO475552   9.793   9.704   5.850
 9289POPC   GL175553   9.719   9.740   6.150
 9289POPC   GL275554   9.658   9.692   6.150
 9289POPC   C1A75555   9.701   9.732   6.450
 9289POPC   D2A75556   9.793   9.786   6.750
 9289POPC   C3A75557   9.719   9.704   7.050
 9289POPC   C4A75558   9.783   9.758   7.350
 9289POPC   C1B75559   9.617   9.575   6.450
 9289POPC   C2B75560   9.630   9.516   6.750
 9289POPC   C3B75561   9.564   9.585   7.050
 9289POPC   C4B75562   9.590   9.508   7.350
 9290POPC   NC375563  29.097  33.064   5.550
 9290POPC   PO475564  29.123  33.019   5.850
 9290POPC   GL175565  29.163  33.069   6.150
 9290POPC   GL275566  29.238  33.071   6.150
 9290POPC   C1A75567  29.135  33.020   6.450
 9290POPC   D2A75568  29.123  33.033   6.750
 9290POPC   C3A75569  29.165  33.000   7.050
 9290POPC   C4A75570  29.123  33.072   7.350
 9290POPC   C1B75571  29.345  33.066   6.450
 9290POPC   C2B75572  29.399  33.063   6.750
 9290POPC   C3B75573  29.387  33.115   7.050
 9290POPC   C4B75574  29.403  33.113   7.350
 9291POPC   NC375575  19.014  27.575   5.550
 9291POPC   PO475576  19.068  27.607   5.850
 9291POPC   GL175577  19.078  27.561   6.150
 9291POPC   GL275578  19.057  27.433   6.150
 9291POPC   C1A75579  19.037  27.642   6.450
 9291POPC   D2A75580  19.074  27.631   6.750
 9291POPC   C3A75581  19.083  27.544   7.050
 9291POPC   C4A75582  19.093  27.549   7.350
 9291POPC   C1B75583  19.107  27.304   6.450
 9291POPC   C2B75584  19.078  27.300   6.750
 9291POPC   C3B75585  19.051  27.303   7.050
 9291POPC   C4B75586  19.047  27.373   7.350
 9292POPC   NC375587  17.491  23.748   5.550
 9292POPC   PO475588  17.514  23.671   5.850
 9292POPC   GL175589  17.479  23.730   6.150
 9292POPC   GL275590  17.370  23.714   6.150
 9292POPC   C1A75591  17.495  23.679   6.450
 9292POPC   D2A75592  17.556  23.665   6.750
 9292POPC   C3A75593  17.510  23.695   7.050
 9292POPC   C4A75594  17.524  23.762   7.350
 9292POPC   C1B75595  17.306  23.784   6.450
 9292POPC   C2B75596  17.308  23.773   6.750
 9292POPC   C3B75597  17.305  23.844   7.050
 9292POPC   C4B75598  17.296  23.784   7.350
 9293POPC   NC375599  15.945  35.368   5.550
 9293POPC   PO475600  15.976  35.304   5.850
 9293POPC   GL175601  16.000  35.311   6.150
 9293POPC   GL275602  15.902  35.316   6.150
 9293POPC   C1A75603  15.937  35.302   6.450
 9293POPC   D2A75604  15.988  35.332   6.750
 9293POPC   C3A75605  15.972  35.340   7.050
 9293POPC   C4A75606  15.924  35.345   7.350
 9293POPC   C1B75607  15.742  35.214   6.450
 9293POPC   C2B75608  15.776  35.153   6.750
 9293POPC   C3B75609  15.746  35.218   7.050
 9293POPC   C4B75610  15.721  35.227   7.350
 9294POPC   NC375611   7.380   1.201   5.550
 9294POPC   PO475612   7.391   1.200   5.850
 9294POPC   GL175613   7.447   1.230   6.150
 9294POPC   GL275614   7.300   1.174   6.150
 9294POPC   C1A75615   7.447   1.226   6.450
 9294POPC   D2A75616   7.425   1.209   6.750
 9294POPC   C3A75617   7.428   1.190   7.050
 9294POPC   C4A75618   7.375   1.262   7.350
 9294POPC   C1B75619   7.185   1.185   6.450
 9294POPC   C2B75620   7.216   1.234   6.750
 9294POPC   C3B75621   7.132   1.172   7.050
 9294POPC   C4B75622   7.195   1.252   7.350
 9295POPC   NC375623  14.450  44.710   5.550
 9295POPC   PO475624  14.430  44.688   5.850
 9295POPC   GL175625  14.358  44.630   6.150
 9295POPC   GL275626  14.344  44.572   6.150
 9295POPC   C1A75627  14.360  44.673   6.450
 9295POPC   D2A75628  14.357  44.659   6.750
 9295POPC   C3A75629  14.412  44.658   7.050
 9295POPC   C4A75630  14.439  44.634   7.350
 9295POPC   C1B75631  14.208  44.527   6.450
 9295POPC   C2B75632  14.239  44.521   6.750
 9295POPC   C3B75633  14.247  44.487   7.050
 9295POPC   C4B75634  14.221  44.494   7.350
 9296POPC   NC375635  26.027  12.877   5.550
 9296POPC   PO475636  26.074  12.841   5.850
 9296POPC   GL175637  26.066  12.814   6.150
 9296POPC   GL275638  26.007  12.956   6.150
 9296POPC   C1A75639  25.997  12.866   6.450
 9296POPC   D2A75640  26.068  12.803   6.750
 9296POPC   C3A75641  26.020  12.895   7.050
 9296POPC   C4A75642  26.004  12.887   7.350
 9296POPC   C1B75643  25.934  13.100   6.450
 9296POPC   C2B75644  25.908  13.056   6.750
 9296POPC   C3B75645  25.968  13.032   7.050
 9296POPC   C4B75646  25.914  13.085   7.350
 9297POPC   NC375647  10.501  29.120   5.550
 9297POPC   PO475648  10.491  29.104   5.850
 9297POPC   GL175649  10.560  29.184   6.150
 9297POPC   GL275650  10.551  29.282   6.150
 9297POPC   C1A75651  10.480  29.186   6.450
 9297POPC   D2A75652  10.482  29.172   6.750
 9297POPC   C3A75653  10.522  29.183   7.050
 9297POPC   C4A75654  10.519  29.154   7.350
 9297POPC   C1B75655  10.529  29.390   6.450
 9297POPC   C2B75656  10.496  29.359   6.750
 9297POPC   C3B75657  10.555  29.443   7.050
 9297POPC   C4B75658  10.486  29.358   7.350
 9298POPC   NC375659  15.959  10.556   5.550
 9298POPC   PO475660  15.959  10.510   5.850
 9298POPC   GL175661  15.984  10.568   6.150
 9298POPC   GL275662  16.048  10.590   6.150
 9298POPC   C1A75663  15.998  10.532   6.450
 9298POPC   D2A75664  15.942  10.479   6.750
 9298POPC   C3A75665  15.955  10.572   7.050
 9298POPC   C4A75666  15.951  10.559   7.350
 9298POPC   C1B75667  16.204  10.693   6.450
 9298POPC   C2B75668  16.183  10.693   6.750
 9298POPC   C3B75669  16.204  10.624   7.050
 9298POPC   C4B75670  16.171  10.677   7.350
 9299POPC   NC375671   8.955  40.056   5.550
 9299POPC   PO475672   9.004  40.043   5.850
 9299POPC   GL175673   9.016  40.035   6.150
 9299POPC   GL275674   8.991  40.141   6.150
 9299POPC   C1A75675   9.012  39.991   6.450
 9299POPC   D2A75676   8.942  40.009   6.750
 9299POPC   C3A75677   8.971  40.035   7.050
 9299POPC   C4A75678   9.012  40.033   7.350
 9299POPC   C1B75679   9.054  40.196   6.450
 9299POPC   C2B75680   9.055  40.269   6.750
 9299POPC   C3B75681   9.080  40.234   7.050
 9299POPC   C4B75682   9.047  40.189   7.350
 9300POPC   NC375683   5.111  36.111   5.550
 9300POPC   PO475684   5.121  36.123   5.850
 9300POPC   GL175685   5.076  36.172   6.150
 9300POPC   GL275686   5.079  36.266   6.150
 9300POPC   C1A75687   5.084  36.148   6.450
 9300POPC   D2A75688   5.118  36.115   6.750
 9300POPC   C3A75689   5.108  36.099   7.050
 9300POPC   C4A75690   5.055  36.145   7.350
 9300POPC   C1B75691   5.102  36.420   6.450
 9300POPC   C2B75692   5.075  36.345   6.750
 9300POPC   C3B75693   5.068  36.338   7.050
 9300POPC   C4B75694   5.136  36.408   7.350
 9301POPC   NC375695  10.527   1.194   5.550
 9301POPC   PO475696  10.551   1.219   5.850
 9301POPC   GL175697  10.499   1.255   6.150
 9301POPC   GL275698  10.563   1.292   6.150
 9301POPC   C1A75699  10.487   1.248   6.450
 9301POPC   D2A75700  10.505   1.172   6.750
 9301POPC   C3A75701  10.507   1.251   7.050
 9301POPC   C4A75702  10.559   1.230   7.350
 9301POPC   C1B75703  10.701   1.445   6.450
 9301POPC   C2B75704  10.706   1.372   6.750
 9301POPC   C3B75705  10.659   1.465   7.050
 9301POPC   C4B75706  10.630   1.447   7.350
 9302POPC   NC375707   1.203   9.760   5.550
 9302POPC   PO475708   1.247   9.786   5.850
 9302POPC   GL175709   1.243   9.770   6.150
 9302POPC   GL275710   1.199   9.819   6.150
 9302POPC   C1A75711   1.259   9.716   6.450
 9302POPC   D2A75712   1.197   9.714   6.750
 9302POPC   C3A75713   1.247   9.765   7.050
 9302POPC   C4A75714   1.200   9.731   7.350
 9302POPC   C1B75715   1.108   9.952   6.450
 9302POPC   C2B75716   1.145   9.958   6.750
 9302POPC   C3B75717   1.101   9.991   7.050
 9302POPC   C4B75718   1.112   9.976   7.350
 9303POPC   NC375719  16.751  12.118   5.550
 9303POPC   PO475720  16.719  12.032   5.850
 9303POPC   GL175721  16.755  12.095   6.150
 9303POPC   GL275722  16.795  11.918   6.150
 9303POPC   C1A75723  16.777  12.040   6.450
 9303POPC   D2A75724  16.685  12.117   6.750
 9303POPC   C3A75725  16.750  12.057   7.050
 9303POPC   C4A75726  16.717  12.037   7.350
 9303POPC   C1B75727  16.821  11.849   6.450
 9303POPC   C2B75728  16.882  11.890   6.750
 9303POPC   C3B75729  16.819  11.810   7.050
 9303POPC   C4B75730  16.850  11.854   7.350
 9304POPC   NC375731  29.952  25.227   5.550
 9304POPC   PO475732  29.904  25.248   5.850
 9304POPC   GL175733  29.871  25.223   6.150
 9304POPC   GL275734  29.824  25.118   6.150
 9304POPC   C1A75735  29.961  25.263   6.450
 9304POPC   D2A75736  29.919  25.271   6.750
 9304POPC   C3A75737  29.878  25.265   7.050
 9304POPC   C4A75738  29.916  25.266   7.350
 9304POPC   C1B75739  29.790  25.054   6.450
 9304POPC   C2B75740  29.757  25.060   6.750
 9304POPC   C3B75741  29.811  25.010   7.050
 9304POPC   C4B75742  29.798  25.035   7.350
 9305POPC   NC375743   0.410  16.745   5.550
 9305POPC   PO475744   0.461  16.723   5.850
 9305POPC   GL175745   0.466  16.686   6.150
 9305POPC   GL275746   0.375  16.782   6.150
 9305POPC   C1A75747   0.388  16.710   6.450
 9305POPC   D2A75748   0.478  16.706   6.750
 9305POPC   C3A75749   0.487  16.778   7.050
 9305POPC   C4A75750   0.422  16.697   7.350
 9305POPC   C1B75751   0.227  16.863   6.450
 9305POPC   C2B75752   0.246  16.905   6.750
 9305POPC   C3B75753   0.283  16.912   7.050
 9305POPC   C4B75754   0.274  16.869   7.350
 9306POPC   NC375755  43.870   0.449   5.550
 9306POPC   PO475756  43.902   0.433   5.850
 9306POPC   GL175757  43.838   0.405   6.150
 9306POPC   GL275758  44.049   0.359   6.150
 9306POPC   C1A75759  43.862   0.435   6.450
 9306POPC   D2A75760  43.865   0.463   6.750
 9306POPC   C3A75761  43.852   0.451   7.050
 9306POPC   C4A75762  43.851   0.403   7.350
 9306POPC   C1B75763  44.149   0.352   6.450
 9306POPC   C2B75764  44.166   0.388   6.750
 9306POPC   C3B75765  44.083   0.376   7.050
 9306POPC   C4B75766  44.169   0.356   7.350
 9307POPC   NC375767  18.244  22.186   5.550
 9307POPC   PO475768  18.264  22.173   5.850
 9307POPC   GL175769  18.245  22.145   6.150
 9307POPC   GL275770  18.183  22.259   6.150
 9307POPC   C1A75771  18.317  22.209   6.450
 9307POPC   D2A75772  18.289  22.165   6.750
 9307POPC   C3A75773  18.240  22.146   7.050
 9307POPC   C4A75774  18.257  22.172   7.350
 9307POPC   C1B75775  18.190  22.397   6.450
 9307POPC   C2B75776  18.126  22.394   6.750
 9307POPC   C3B75777  18.144  22.331   7.050
 9307POPC   C4B75778  18.174  22.364   7.350
 9308POPC   NC375779  34.582  16.720   5.550
 9308POPC   PO475780  34.605  16.761   5.850
 9308POPC   GL175781  34.541  16.692   6.150
 9308POPC   GL275782  34.405  16.717   6.150
 9308POPC   C1A75783  34.595  16.775   6.450
 9308POPC   D2A75784  34.553  16.717   6.750
 9308POPC   C3A75785  34.574  16.759   7.050
 9308POPC   C4A75786  34.547  16.730   7.350
 9308POPC   C1B75787  34.347  16.690   6.450
 9308POPC   C2B75788  34.285  16.705   6.750
 9308POPC   C3B75789  34.294  16.693   7.050
 9308POPC   C4B75790  34.341  16.684   7.350
 9309POPC   NC375791  18.265   0.391   5.550
 9309POPC   PO475792  18.252   0.469   5.850
 9309POPC   GL175793  18.295   0.417   6.150
 9309POPC   GL275794  18.420   0.536   6.150
 9309POPC   C1A75795  18.311   0.440   6.450
 9309POPC   D2A75796  18.306   0.402   6.750
 9309POPC   C3A75797  18.325   0.416   7.050
 9309POPC   C4A75798  18.259   0.426   7.350
 9309POPC   C1B75799  18.486   0.504   6.450
 9309POPC   C2B75800  18.526   0.592   6.750
 9309POPC   C3B75801  18.462   0.494   7.050
 9309POPC   C4B75802  18.548   0.496   7.350
 9310POPC   NC375803  39.995  38.490   5.550
 9310POPC   PO475804  39.970  38.443   5.850
 9310POPC   GL175805  39.964  38.414   6.150
 9310POPC   GL275806  39.919  38.494   6.150
 9310POPC   C1A75807  39.985  38.460   6.450
 9310POPC   D2A75808  39.988  38.419   6.750
 9310POPC   C3A75809  40.029  38.470   7.050
 9310POPC   C4A75810  40.032  38.463   7.350
 9310POPC   C1B75811  39.754  38.507   6.450
 9310POPC   C2B75812  39.747  38.462   6.750
 9310POPC   C3B75813  39.723  38.512   7.050
 9310POPC   C4B75814  39.744  38.460   7.350
 9311POPC   NC375815  32.215  42.350   5.550
 9311POPC   PO475816  32.294  42.335   5.850
 9311POPC   GL175817  32.233  42.290   6.150
 9311POPC   GL275818  32.337  42.382   6.150
 9311POPC   C1A75819  32.296  42.319   6.450
 9311POPC   D2A75820  32.274  42.308   6.750
 9311POPC   C3A75821  32.267  42.357   7.050
 9311POPC   C4A75822  32.289  42.295   7.350
 9311POPC   C1B75823  32.513  42.391   6.450
 9311POPC   C2B75824  32.432  42.427   6.750
 9311POPC   C3B75825  32.521  42.411   7.050
 9311POPC   C4B75826  32.483  42.389   7.350
 9312POPC   NC375827  22.953   8.160   5.550
 9312POPC   PO475828  22.959   8.156   5.850
 9312POPC   GL175829  22.983   8.169   6.150
 9312POPC   GL275830  22.952   8.063   6.150
 9312POPC   C1A75831  22.939   8.212   6.450
 9312POPC   D2A75832  22.969   8.219   6.750
 9312POPC   C3A75833  22.924   8.239   7.050
 9312POPC   C4A75834  22.937   8.147   7.350
 9312POPC   C1B75835  23.051   7.995   6.450
 9312POPC   C2B75836  23.011   7.934   6.750
 9312POPC   C3B75837  23.020   7.931   7.050
 9312POPC   C4B75838  23.030   8.003   7.350
 9313POPC   NC375839  43.140   5.136   5.550
 9313POPC   PO475840  43.085   5.114   5.850
 9313POPC   GL175841  43.158   5.111   6.150
 9313POPC   GL275842  43.172   4.951   6.150
 9313POPC   C1A75843  43.072   5.070   6.450
 9313POPC   D2A75844  43.098   5.112   6.750
 9313POPC   C3A75845  43.084   5.115   7.050
 9313POPC   C4A75846  43.155   5.117   7.350
 9313POPC   C1B75847  43.298   4.879   6.450
 9313POPC   C2B75848  43.307   4.903   6.750
 9313POPC   C3B75849  43.283   4.946   7.050
 9313POPC   C4B75850  43.236   4.918   7.350
 9314POPC   NC375851  44.633   9.727   5.550
 9314POPC   PO475852  44.659   9.704   5.850
 9314POPC   GL175853  44.685   9.757   6.150
 9314POPC   GL275854  44.617   9.598   6.150
 9314POPC   C1A75855  44.694   9.790   6.450
 9314POPC   D2A75856  44.619   9.761   6.750
 9314POPC   C3A75857  44.619   9.724   7.050
 9314POPC   C4A75858  44.639   9.778   7.350
 9314POPC   C1B75859  44.553   9.498   6.450
 9314POPC   C2B75860  44.588   9.519   6.750
 9314POPC   C3B75861  44.512   9.526   7.050
 9314POPC   C4B75862  44.556   9.529   7.350
 9315POPC   NC375863  42.364  28.341   5.550
 9315POPC   PO475864  42.331  28.320   5.850
 9315POPC   GL175865  42.381  28.349   6.150
 9315POPC   GL275866  42.260  28.267   6.150
 9315POPC   C1A75867  42.308  28.344   6.450
 9315POPC   D2A75868  42.354  28.368   6.750
 9315POPC   C3A75869  42.331  28.386   7.050
 9315POPC   C4A75870  42.310  28.415   7.350
 9315POPC   C1B75871  42.102  28.198   6.450
 9315POPC   C2B75872  42.174  28.260   6.750
 9315POPC   C3B75873  42.117  28.205   7.050
 9315POPC   C4B75874  42.120  28.220   7.350
 9316POPC   NC375875  40.027   3.524   5.550
 9316POPC   PO475876  40.038   3.539   5.850
 9316POPC   GL175877  40.055   3.555   6.150
 9316POPC   GL275878  39.988   3.662   6.150
 9316POPC   C1A75879  39.965   3.568   6.450
 9316POPC   D2A75880  39.959   3.507   6.750
 9316POPC   C3A75881  40.045   3.532   7.050
 9316POPC   C4A75882  40.022   3.540   7.350
 9316POPC   C1B75883  40.038   3.779   6.450
 9316POPC   C2B75884  39.970   3.814   6.750
 9316POPC   C3B75885  39.986   3.794   7.050
 9316POPC   C4B75886  40.014   3.787   7.350
 9317POPC   NC375887  43.881  33.031   5.550
 9317POPC   PO475888  43.845  32.984   5.850
 9317POPC   GL175889  43.882  33.029   6.150
 9317POPC   GL275890  43.859  32.948   6.150
 9317POPC   C1A75891  43.863  32.991   6.450
 9317POPC   D2A75892  43.844  33.041   6.750
 9317POPC   C3A75893  43.877  33.005   7.050
 9317POPC   C4A75894  43.837  33.058   7.350
 9317POPC   C1B75895  43.879  32.776   6.450
 9317POPC   C2B75896  43.895  32.820   6.750
 9317POPC   C3B75897  43.880  32.766   7.050
 9317POPC   C4B75898  43.906  32.799   7.350
 9318POPC   NC375899  32.263   8.198   5.550
 9318POPC   PO475900  32.284   8.204   5.850
 9318POPC   GL175901  32.264   8.166   6.150
 9318POPC   GL275902  32.247   8.281   6.150
 9318POPC   C1A75903  32.229   8.246   6.450
 9318POPC   D2A75904  32.295   8.175   6.750
 9318POPC   C3A75905  32.253   8.155   7.050
 9318POPC   C4A75906  32.268   8.202   7.350
 9318POPC   C1B75907  32.132   8.398   6.450
 9318POPC   C2B75908  32.155   8.390   6.750
 9318POPC   C3B75909  32.187   8.406   7.050
 9318POPC   C4B75910  32.136   8.454   7.350
 9319POPC   NC375911   5.131   5.871   5.550
 9319POPC   PO475912   5.129   5.905   5.850
 9319POPC   GL175913   5.089   5.899   6.150
 9319POPC   GL275914   5.205   5.880   6.150
 9319POPC   C1A75915   5.115   5.821   6.450
 9319POPC   D2A75916   5.059   5.820   6.750
 9319POPC   C3A75917   5.095   5.886   7.050
 9319POPC   C4A75918   5.046   5.825   7.350
 9319POPC   C1B75919   5.329   5.857   6.450
 9319POPC   C2B75920   5.367   5.853   6.750
 9319POPC   C3B75921   5.366   5.841   7.050
 9319POPC   C4B75922   5.303   5.911   7.350
 9320POPC   NC375923  15.208   2.730   5.550
 9320POPC   PO475924  15.147   2.763   5.850
 9320POPC   GL175925  15.168   2.733   6.150
 9320POPC   GL275926  15.169   2.921   6.150
 9320POPC   C1A75927  15.156   2.765   6.450
 9320POPC   D2A75928  15.150   2.733   6.750
 9320POPC   C3A75929  15.203   2.739   7.050
 9320POPC   C4A75930  15.197   2.733   7.350
 9320POPC   C1B75931  15.256   3.024   6.450
 9320POPC   C2B75932  15.218   2.985   6.750
 9320POPC   C3B75933  15.252   2.980   7.050
 9320POPC   C4B75934  15.186   2.999   7.350
 9321POPC   NC375935  28.399  13.626   5.550
 9321POPC   PO475936  28.365  13.591   5.850
 9321POPC   GL175937  28.409  13.640   6.150
 9321POPC   GL275938  28.267  13.596   6.150
 9321POPC   C1A75939  28.363  13.625   6.450
 9321POPC   D2A75940  28.407  13.630   6.750
 9321POPC   C3A75941  28.391  13.624   7.050
 9321POPC   C4A75942  28.412  13.660   7.350
 9321POPC   C1B75943  28.186  13.500   6.450
 9321POPC   C2B75944  28.187  13.541   6.750
 9321POPC   C3B75945  28.126  13.535   7.050
 9321POPC   C4B75946  28.160  13.537   7.350
 9322POPC   NC375947  38.492   1.206   5.550
 9322POPC   PO475948  38.456   1.197   5.850
 9322POPC   GL175949  38.475   1.180   6.150
 9322POPC   GL275950  38.413   1.087   6.150
 9322POPC   C1A75951  38.471   1.208   6.450
 9322POPC   D2A75952  38.491   1.180   6.750
 9322POPC   C3A75953  38.491   1.238   7.050
 9322POPC   C4A75954  38.500   1.189   7.350
 9322POPC   C1B75955  38.397   1.028   6.450
 9322POPC   C2B75956  38.410   0.993   6.750
 9322POPC   C3B75957  38.354   0.959   7.050
 9322POPC   C4B75958  38.333   1.020   7.350
 9323POPC   NC375959  29.917  33.061   5.550
 9323POPC   PO475960  29.908  33.023   5.850
 9323POPC   GL175961  29.951  33.066   6.150
 9323POPC   GL275962  29.815  32.916   6.150
 9323POPC   C1A75963  29.918  33.041   6.450
 9323POPC   D2A75964  29.927  33.051   6.750
 9323POPC   C3A75965  29.933  33.026   7.050
 9323POPC   C4A75966  29.966  33.070   7.350
 9323POPC   C1B75967  29.753  32.855   6.450
 9323POPC   C2B75968  29.816  32.793   6.750
 9323POPC   C3B75969  29.751  32.781   7.050
 9323POPC   C4B75970  29.746  32.761   7.350
 9324POPC   NC375971  36.119  29.098   5.550
 9324POPC   PO475972  36.171  29.163   5.850
 9324POPC   GL175973  36.108  29.103   6.150
 9324POPC   GL275974  36.178  29.256   6.150
 9324POPC   C1A75975  36.134  29.116   6.450
 9324POPC   D2A75976  36.109  29.128   6.750
 9324POPC   C3A75977  36.129  29.131   7.050
 9324POPC   C4A75978  36.131  29.122   7.350
 9324POPC   C1B75979  36.294  29.322   6.450
 9324POPC   C2B75980  36.284  29.361   6.750
 9324POPC   C3B75981  36.306  29.366   7.050
 9324POPC   C4B75982  36.246  29.333   7.350
 9325POPC   NC375983  37.712  36.144   5.550
 9325POPC   PO475984  37.676  36.137   5.850
 9325POPC   GL175985  37.713  36.151   6.150
 9325POPC   GL275986  37.831  36.120   6.150
 9325POPC   C1A75987  37.650  36.148   6.450
 9325POPC   D2A75988  37.728  36.086   6.750
 9325POPC   C3A75989  37.642  36.136   7.050
 9325POPC   C4A75990  37.661  36.160   7.350
 9325POPC   C1B75991  37.967  36.212   6.450
 9325POPC   C2B75992  37.919  36.208   6.750
 9325POPC   C3B75993  37.882  36.194   7.050
 9325POPC   C4B75994  37.922  36.221   7.350
 9326POPC   NC375995  33.786  11.336   5.550
 9326POPC   PO475996  33.811  11.308   5.850
 9326POPC   GL175997  33.838  11.339   6.150
 9326POPC   GL275998  33.703  11.214   6.150
 9326POPC   C1A75999  33.809  11.324   6.450
 9326POPC   D2A76000  33.840  11.311   6.750
 9326POPC   C3A76001  33.834  11.254   7.050
 9326POPC   C4A76002  33.829  11.278   7.350
 9326POPC   C1B76003  33.671  11.067   6.450
 9326POPC   C2B76004  33.649  11.114   6.750
 9326POPC   C3B76005  33.669  11.078   7.050
 9326POPC   C4B76006  33.737  11.092   7.350
 9327POPC   NC376007  43.860  25.253   5.550
 9327POPC   PO476008  43.852  25.268   5.850
 9327POPC   GL176009  43.927  25.305   6.150
 9327POPC   GL276010  43.790  25.155   6.150
 9327POPC   C1A76011  43.928  25.311   6.450
 9327POPC   D2A76012  43.855  25.315   6.750
 9327POPC   C3A76013  43.930  25.265   7.050
 9327POPC   C4A76014  43.837  25.294   7.350
 9327POPC   C1B76015  43.664  25.091   6.450
 9327POPC   C2B76016  43.708  25.118   6.750
 9327POPC   C3B76017  43.718  25.147   7.050
 9327POPC   C4B76018  43.696  25.096   7.350
 9328POPC   NC376019  22.163   1.980   5.550
 9328POPC   PO476020  22.154   1.957   5.850
 9328POPC   GL176021  22.113   1.957   6.150
 9328POPC   GL276022  22.100   2.108   6.150
 9328POPC   C1A76023  22.170   2.038   6.450
 9328POPC   D2A76024  22.162   2.006   6.750
 9328POPC   C3A76025  22.175   2.027   7.050
 9328POPC   C4A76026  22.155   1.976   7.350
 9328POPC   C1B76027  22.130   2.260   6.450
 9328POPC   C2B76028  22.064   2.190   6.750
 9328POPC   C3B76029  22.092   2.245   7.050
 9328POPC   C4B76030  22.047   2.240   7.350
 9329POPC   NC376031  28.391  22.184   5.550
 9329POPC   PO476032  28.374  22.155   5.850
 9329POPC   GL176033  28.385  22.160   6.150
 9329POPC   GL276034  28.354  22.056   6.150
 9329POPC   C1A76035  28.346  22.164   6.450
 9329POPC   D2A76036  28.392  22.120   6.750
 9329POPC   C3A76037  28.390  22.173   7.050
 9329POPC   C4A76038  28.367  22.198   7.350
 9329POPC   C1B76039  28.374  21.890   6.450
 9329POPC   C2B76040  28.343  21.887   6.750
 9329POPC   C3B76041  28.433  21.951   7.050
 9329POPC   C4B76042  28.407  21.879   7.350
 9330POPC   NC376043  27.612  15.134   5.550
 9330POPC   PO476044  27.547  15.208   5.850
 9330POPC   GL176045  27.555  15.197   6.150
 9330POPC   GL276046  27.569  15.303   6.150
 9330POPC   C1A76047  27.616  15.134   6.450
 9330POPC   D2A76048  27.547  15.197   6.750
 9330POPC   C3A76049  27.551  15.136   7.050
 9330POPC   C4A76050  27.634  15.159   7.350
 9330POPC   C1B76051  27.482  15.449   6.450
 9330POPC   C2B76052  27.485  15.463   6.750
 9330POPC   C3B76053  27.509  15.439   7.050
 9330POPC   C4B76054  27.546  15.426   7.350
 9331POPC   NC376055  22.927  18.314   5.550
 9331POPC   PO476056  22.979  18.293   5.850
 9331POPC   GL176057  22.927  18.242   6.150
 9331POPC   GL276058  22.892  18.361   6.150
 9331POPC   C1A76059  22.982  18.253   6.450
 9331POPC   D2A76060  22.933  18.262   6.750
 9331POPC   C3A76061  22.917  18.322   7.050
 9331POPC   C4A76062  22.974  18.308   7.350
 9331POPC   C1B76063  22.933  18.519   6.450
 9331POPC   C2B76064  22.933  18.546   6.750
 9331POPC   C3B76065  22.909  18.550   7.050
 9331POPC   C4B76066  22.864  18.567   7.350
 9332POPC   NC376067  34.601  25.313   5.550
 9332POPC   PO476068  34.546  25.256   5.850
 9332POPC   GL176069  34.553  25.271   6.150
 9332POPC   GL276070  34.641  25.379   6.150
 9332POPC   C1A76071  34.598  25.247   6.450
 9332POPC   D2A76072  34.603  25.285   6.750
 9332POPC   C3A76073  34.577  25.233   7.050
 9332POPC   C4A76074  34.558  25.265   7.350
 9332POPC   C1B76075  34.738  25.467   6.450
 9332POPC   C2B76076  34.688  25.475   6.750
 9332POPC   C3B76077  34.676  25.507   7.050
 9332POPC   C4B76078  34.654  25.500   7.350
 9333POPC   NC376079   6.609  40.774   5.550
 9333POPC   PO476080   6.621  40.803   5.850
 9333POPC   GL176081   6.690  40.755   6.150
 9333POPC   GL276082   6.584  40.829   6.150
 9333POPC   C1A76083   6.693  40.781   6.450
 9333POPC   D2A76084   6.662  40.797   6.750
 9333POPC   C3A76085   6.647  40.784   7.050
 9333POPC   C4A76086   6.634  40.832   7.350
 9333POPC   C1B76087   6.415  40.974   6.450
 9333POPC   C2B76088   6.499  40.908   6.750
 9333POPC   C3B76089   6.490  40.936   7.050
 9333POPC   C4B76090   6.460  40.970   7.350
 9334POPC   NC376091  27.563  13.589   5.550
 9334POPC   PO476092  27.636  13.669   5.850
 9334POPC   GL176093  27.625  13.602   6.150
 9334POPC   GL276094  27.692  13.616   6.150
 9334POPC   C1A76095  27.582  13.595   6.450
 9334POPC   D2A76096  27.553  13.625   6.750
 9334POPC   C3A76097  27.551  13.588   7.050
 9334POPC   C4A76098  27.584  13.586   7.350
 9334POPC   C1B76099  27.885  13.626   6.450
 9334POPC   C2B76100  27.882  13.645   6.750
 9334POPC   C3B76101  27.795  13.614   7.050
 9334POPC   C4B76102  27.856  13.573   7.350
 9335POPC   NC376103  41.586  15.997   5.550
 9335POPC   PO476104  41.521  15.909   5.850
 9335POPC   GL176105  41.544  15.984   6.150
 9335POPC   GL276106  41.402  15.864   6.150
 9335POPC   C1A76107  41.570  16.001   6.450
 9335POPC   D2A76108  41.602  16.002   6.750
 9335POPC   C3A76109  41.536  15.936   7.050
 9335POPC   C4A76110  41.604  15.971   7.350
 9335POPC   C1B76111  41.373  15.800   6.450
 9335POPC   C2B76112  41.357  15.816   6.750
 9335POPC   C3B76113  41.329  15.878   7.050
 9335POPC   C4B76114  41.389  15.818   7.350
 9336POPC   NC376115   7.430  42.299   5.550
 9336POPC   PO476116   7.409  42.382   5.850
 9336POPC   GL176117   7.461  42.360   6.150
 9336POPC   GL276118   7.592  42.317   6.150
 9336POPC   C1A76119   7.460  42.339   6.450
 9336POPC   D2A76120   7.446  42.351   6.750
 9336POPC   C3A76121   7.469  42.323   7.050
 9336POPC   C4A76122   7.437  42.328   7.350
 9336POPC   C1B76123   7.706  42.351   6.450
 9336POPC   C2B76124   7.659  42.288   6.750
 9336POPC   C3B76125   7.643  42.285   7.050
 9336POPC   C4B76126   7.643  42.338   7.350
 9337POPC   NC376127  19.025   1.948   5.550
 9337POPC   PO476128  19.075   2.003   5.850
 9337POPC   GL176129  19.047   1.982   6.150
 9337POPC   GL276130  19.002   1.894   6.150
 9337POPC   C1A76131  19.056   2.027   6.450
 9337POPC   D2A76132  19.061   1.978   6.750
 9337POPC   C3A76133  19.053   1.967   7.050
 9337POPC   C4A76134  19.018   2.017   7.350
 9337POPC   C1B76135  18.892   1.816   6.450
 9337POPC   C2B76136  18.857   1.861   6.750
 9337POPC   C3B76137  18.808   1.815   7.050
 9337POPC   C4B76138  18.830   1.894   7.350
 9338POPC   NC376139  40.744   2.781   5.550
 9338POPC   PO476140  40.813   2.787   5.850
 9338POPC   GL176141  40.832   2.799   6.150
 9338POPC   GL276142  40.870   2.698   6.150
 9338POPC   C1A76143  40.827   2.741   6.450
 9338POPC   D2A76144  40.810   2.721   6.750
 9338POPC   C3A76145  40.753   2.776   7.050
 9338POPC   C4A76146  40.798   2.780   7.350
 9338POPC   C1B76147  40.924   2.563   6.450
 9338POPC   C2B76148  40.962   2.535   6.750
 9338POPC   C3B76149  40.918   2.605   7.050
 9338POPC   C4B76150  40.965   2.566   7.350
 9339POPC   NC376151  25.264  31.452   5.550
 9339POPC   PO476152  25.219  31.471   5.850
 9339POPC   GL176153  25.275  31.474   6.150
 9339POPC   GL276154  25.341  31.304   6.150
 9339POPC   C1A76155  25.293  31.448   6.450
 9339POPC   D2A76156  25.292  31.432   6.750
 9339POPC   C3A76157  25.232  31.501   7.050
 9339POPC   C4A76158  25.253  31.522   7.350
 9339POPC   C1B76159  25.312  31.270   6.450
 9339POPC   C2B76160  25.373  31.233   6.750
 9339POPC   C3B76161  25.289  31.273   7.050
 9339POPC   C4B76162  25.280  31.265   7.350
 9340POPC   NC376163  21.422  19.056   5.550
 9340POPC   PO476164  21.424  19.097   5.850
 9340POPC   GL176165  21.360  19.029   6.150
 9340POPC   GL276166  21.464  19.010   6.150
 9340POPC   C1A76167  21.385  19.038   6.450
 9340POPC   D2A76168  21.348  19.039   6.750
 9340POPC   C3A76169  21.361  19.040   7.050
 9340POPC   C4A76170  21.343  19.048   7.350
 9340POPC   C1B76171  21.603  19.001   6.450
 9340POPC   C2B76172  21.664  18.971   6.750
 9340POPC   C3B76173  21.588  18.963   7.050
 9340POPC   C4B76174  21.641  19.021   7.350
 9341POPC   NC376175  14.446  19.828   5.550
 9341POPC   PO476176  14.419  19.866   5.850
 9341POPC   GL176177  14.372  19.884   6.150
 9341POPC   GL276178  14.558  19.874   6.150
 9341POPC   C1A76179  14.395  19.839   6.450
 9341POPC   D2A76180  14.387  19.785   6.750
 9341POPC   C3A76181  14.384  19.825   7.050
 9341POPC   C4A76182  14.407  19.815   7.350
 9341POPC   C1B76183  14.634  19.912   6.450
 9341POPC   C2B76184  14.677  19.872   6.750
 9341POPC   C3B76185  14.602  19.950   7.050
 9341POPC   C4B76186  14.676  19.935   7.350
 9342POPC   NC376187  15.993  12.902   5.550
 9342POPC   PO476188  15.940  12.885   5.850
 9342POPC   GL176189  15.943  12.839   6.150
 9342POPC   GL276190  15.783  12.845   6.150
 9342POPC   C1A76191  16.001  12.896   6.450
 9342POPC   D2A76192  15.942  12.853   6.750
 9342POPC   C3A76193  15.965  12.839   7.050
 9342POPC   C4A76194  15.907  12.829   7.350
 9342POPC   C1B76195  15.663  12.802   6.450
 9342POPC   C2B76196  15.676  12.803   6.750
 9342POPC   C3B76197  15.684  12.844   7.050
 9342POPC   C4B76198  15.751  12.841   7.350
 9343POPC   NC376199  25.225  28.418   5.550
 9343POPC   PO476200  25.236  28.372   5.850
 9343POPC   GL176201  25.247  28.335   6.150
 9343POPC   GL276202  25.433  28.424   6.150
 9343POPC   C1A76203  25.258  28.338   6.450
 9343POPC   D2A76204  25.272  28.416   6.750
 9343POPC   C3A76205  25.237  28.398   7.050
 9343POPC   C4A76206  25.280  28.412   7.350
 9343POPC   C1B76207  25.554  28.409   6.450
 9343POPC   C2B76208  25.468  28.400   6.750
 9343POPC   C3B76209  25.533  28.420   7.050
 9343POPC   C4B76210  25.517  28.402   7.350
 9344POPC   NC376211  22.960  32.982   5.550
 9344POPC   PO476212  22.896  32.991   5.850
 9344POPC   GL176213  22.941  32.983   6.150
 9344POPC   GL276214  22.940  33.120   6.150
 9344POPC   C1A76215  22.933  33.019   6.450
 9344POPC   D2A76216  22.913  33.057   6.750
 9344POPC   C3A76217  22.907  33.025   7.050
 9344POPC   C4A76218  22.918  33.030   7.350
 9344POPC   C1B76219  22.921  33.309   6.450
 9344POPC   C2B76220  22.969  33.279   6.750
 9344POPC   C3B76221  22.940  33.292   7.050
 9344POPC   C4B76222  22.950  33.309   7.350
 9345POPC   NC376223  17.498  33.842   5.550
 9345POPC   PO476224  17.486  33.776   5.850
 9345POPC   GL176225  17.476  33.760   6.150
 9345POPC   GL276226  17.510  33.712   6.150
 9345POPC   C1A76227  17.542  33.838   6.450
 9345POPC   D2A76228  17.480  33.824   6.750
 9345POPC   C3A76229  17.504  33.829   7.050
 9345POPC   C4A76230  17.541  33.760   7.350
 9345POPC   C1B76231  17.586  33.535   6.450
 9345POPC   C2B76232  17.540  33.575   6.750
 9345POPC   C3B76233  17.538  33.516   7.050
 9345POPC   C4B76234  17.551  33.514   7.350
 9346POPC   NC376235  41.531   7.393   5.550
 9346POPC   PO476236  41.538   7.399   5.850
 9346POPC   GL176237  41.564   7.387   6.150
 9346POPC   GL276238  41.462   7.291   6.150
 9346POPC   C1A76239  41.557   7.400   6.450
 9346POPC   D2A76240  41.551   7.394   6.750
 9346POPC   C3A76241  41.555   7.372   7.050
 9346POPC   C4A76242  41.604   7.379   7.350
 9346POPC   C1B76243  41.397   7.248   6.450
 9346POPC   C2B76244  41.374   7.247   6.750
 9346POPC   C3B76245  41.425   7.218   7.050
 9346POPC   C4B76246  41.438   7.232   7.350
 9347POPC   NC376247  33.019   2.031   5.550
 9347POPC   PO476248  33.051   1.991   5.850
 9347POPC   GL176249  33.028   2.020   6.150
 9347POPC   GL276250  32.914   2.033   6.150
 9347POPC   C1A76251  33.050   1.981   6.450
 9347POPC   D2A76252  33.021   2.010   6.750
 9347POPC   C3A76253  33.008   1.994   7.050
 9347POPC   C4A76254  33.048   1.949   7.350
 9347POPC   C1B76255  32.730   2.003   6.450
 9347POPC   C2B76256  32.731   2.022   6.750
 9347POPC   C3B76257  32.788   2.034   7.050
 9347POPC   C4B76258  32.762   2.003   7.350
 9348POPC   NC376259  28.378  43.136   5.550
 9348POPC   PO476260  28.338  43.145   5.850
 9348POPC   GL176261  28.331  43.068   6.150
 9348POPC   GL276262  28.200  43.127   6.150
 9348POPC   C1A76263  28.361  43.124   6.450
 9348POPC   D2A76264  28.338  43.092   6.750
 9348POPC   C3A76265  28.357  43.131   7.050
 9348POPC   C4A76266  28.396  43.098   7.350
 9348POPC   C1B76267  28.097  43.125   6.450
 9348POPC   C2B76268  28.129  43.173   6.750
 9348POPC   C3B76269  28.164  43.139   7.050
 9348POPC   C4B76270  28.125  43.172   7.350
 9349POPC   NC376271  40.809  15.930   5.550
 9349POPC   PO476272  40.823  15.932   5.850
 9349POPC   GL176273  40.766  15.984   6.150
 9349POPC   GL276274  40.619  15.902   6.150
 9349POPC   C1A76275  40.817  15.926   6.450
 9349POPC   D2A76276  40.771  15.950   6.750
 9349POPC   C3A76277  40.808  15.999   7.050
 9349POPC   C4A76278  40.771  15.949   7.350
 9349POPC   C1B76279  40.497  15.936   6.450
 9349POPC   C2B76280  40.584  15.947   6.750
 9349POPC   C3B76281  40.501  15.965   7.050
 9349POPC   C4B76282  40.536  15.879   7.350
 9350POPC   NC376283  39.235  36.134   5.550
 9350POPC   PO476284  39.277  36.109   5.850
 9350POPC   GL176285  39.215  36.139   6.150
 9350POPC   GL276286  39.274  36.284   6.150
 9350POPC   C1A76287  39.259  36.105   6.450
 9350POPC   D2A76288  39.269  36.081   6.750
 9350POPC   C3A76289  39.242  36.162   7.050
 9350POPC   C4A76290  39.280  36.114   7.350
 9350POPC   C1B76291  39.370  36.359   6.450
 9350POPC   C2B76292  39.358  36.313   6.750
 9350POPC   C3B76293  39.367  36.367   7.050
 9350POPC   C4B76294  39.320  36.330   7.350
 9351POPC   NC376295  26.001  10.516   5.550
 9351POPC   PO476296  26.064  10.568   5.850
 9351POPC   GL176297  26.004  10.529   6.150
 9351POPC   GL276298  25.949  10.684   6.150
 9351POPC   C1A76299  26.014  10.522   6.450
 9351POPC   D2A76300  26.031  10.483   6.750
 9351POPC   C3A76301  26.055  10.530   7.050
 9351POPC   C4A76302  26.005  10.541   7.350
 9351POPC   C1B76303  25.978  10.802   6.450
 9351POPC   C2B76304  25.908  10.727   6.750
 9351POPC   C3B76305  25.914  10.746   7.050
 9351POPC   C4B76306  25.945  10.719   7.350
 9352POPC   NC376307   1.993  15.934   5.550
 9352POPC   PO476308   1.974  15.918   5.850
 9352POPC   GL176309   1.970  15.990   6.150
 9352POPC   GL276310   2.146  15.970   6.150
 9352POPC   C1A76311   1.978  15.952   6.450
 9352POPC   D2A76312   2.025  15.998   6.750
 9352POPC   C3A76313   1.992  15.942   7.050
 9352POPC   C4A76314   1.963  15.975   7.350
 9352POPC   C1B76315   2.264  15.949   6.450
 9352POPC   C2B76316   2.237  15.906   6.750
 9352POPC   C3B76317   2.241  15.969   7.050
 9352POPC   C4B76318   2.245  15.936   7.350
 9353POPC   NC376319  12.898  23.710   5.550
 9353POPC   PO476320  12.900  23.674   5.850
 9353POPC   GL176321  12.854  23.671   6.150
 9353POPC   GL276322  12.777  23.632   6.150
 9353POPC   C1A76323  12.803  23.709   6.450
 9353POPC   D2A76324  12.812  23.718   6.750
 9353POPC   C3A76325  12.846  23.739   7.050
 9353POPC   C4A76326  12.826  23.719   7.350
 9353POPC   C1B76327  12.795  23.477   6.450
 9353POPC   C2B76328  12.804  23.444   6.750
 9353POPC   C3B76329  12.749  23.493   7.050
 9353POPC   C4B76330  12.787  23.435   7.350
 9354POPC   NC376331  20.590  33.847   5.550
 9354POPC   PO476332  20.599  33.820   5.850
 9354POPC   GL176333  20.595  33.772   6.150
 9354POPC   GL276334  20.549  33.926   6.150
 9354POPC   C1A76335  20.622  33.767   6.450
 9354POPC   D2A76336  20.624  33.826   6.750
 9354POPC   C3A76337  20.617  33.800   7.050
 9354POPC   C4A76338  20.580  33.819   7.350
 9354POPC   C1B76339  20.484  34.041   6.450
 9354POPC   C2B76340  20.453  33.948   6.750
 9354POPC   C3B76341  20.426  33.992   7.050
 9354POPC   C4B76342  20.460  34.020   7.350
 9355POPC   NC376343  17.525  20.642   5.550
 9355POPC   PO476344  17.527  20.658   5.850
 9355POPC   GL176345  17.461  20.629   6.150
 9355POPC   GL276346  17.581  20.538   6.150
 9355POPC   C1A76347  17.529  20.656   6.450
 9355POPC   D2A76348  17.462  20.659   6.750
 9355POPC   C3A76349  17.520  20.660   7.050
 9355POPC   C4A76350  17.467  20.631   7.350
 9355POPC   C1B76351  17.576  20.359   6.450
 9355POPC   C2B76352  17.566  20.342   6.750
 9355POPC   C3B76353  17.575  20.364   7.050
 9355POPC   C4B76354  17.595  20.374   7.350
 9356POPC   NC376355  39.976   8.942   5.550
 9356POPC   PO476356  39.998   8.958   5.850
 9356POPC   GL176357  39.961   8.989   6.150
 9356POPC   GL276358  40.024   8.835   6.150
 9356POPC   C1A76359  39.968   8.964   6.450
 9356POPC   D2A76360  40.012   9.012   6.750
 9356POPC   C3A76361  39.959   8.926   7.050
 9356POPC   C4A76362  39.997   8.969   7.350
 9356POPC   C1B76363  39.985   8.731   6.450
 9356POPC   C2B76364  40.010   8.722   6.750
 9356POPC   C3B76365  40.050   8.675   7.050
 9356POPC   C4B76366  40.067   8.762   7.350
 9357POPC   NC376367  15.928  37.726   5.550
 9357POPC   PO476368  15.975  37.690   5.850
 9357POPC   GL176369  15.999  37.680   6.150
 9357POPC   GL276370  15.986  37.554   6.150
 9357POPC   C1A76371  15.911  37.722   6.450
 9357POPC   D2A76372  15.997  37.702   6.750
 9357POPC   C3A76373  15.912  37.656   7.050
 9357POPC   C4A76374  16.004  37.641   7.350
 9357POPC   C1B76375  15.940  37.460   6.450
 9357POPC   C2B76376  15.993  37.429   6.750
 9357POPC   C3B76377  15.989  37.465   7.050
 9357POPC   C4B76378  16.029  37.431   7.350
 9358POPC   NC376379  36.161   8.240   5.550
 9358POPC   PO476380  36.155   8.239   5.850
 9358POPC   GL176381  36.130   8.237   6.150
 9358POPC   GL276382  36.076   8.141   6.150
 9358POPC   C1A76383  36.137   8.177   6.450
 9358POPC   D2A76384  36.114   8.148   6.750
 9358POPC   C3A76385  36.140   8.213   7.050
 9358POPC   C4A76386  36.083   8.209   7.350
 9358POPC   C1B76387  35.983   8.064   6.450
 9358POPC   C2B76388  35.906   7.992   6.750
 9358POPC   C3B76389  35.990   8.009   7.050
 9358POPC   C4B76390  35.972   7.992   7.350
 9359POPC   NC376391  36.117   8.970   5.550
 9359POPC   PO476392  36.117   9.017   5.850
 9359POPC   GL176393  36.093   8.943   6.150
 9359POPC   GL276394  36.224   8.967   6.150
 9359POPC   C1A76395  36.110   8.974   6.450
 9359POPC   D2A76396  36.102   9.008   6.750
 9359POPC   C3A76397  36.151   9.017   7.050
 9359POPC   C4A76398  36.094   8.952   7.350
 9359POPC   C1B76399  36.307   8.883   6.450
 9359POPC   C2B76400  36.336   8.898   6.750
 9359POPC   C3B76401  36.383   8.895   7.050
 9359POPC   C4B76402  36.323   8.894   7.350
 9360POPC   NC376403   8.171  43.918   5.550
 9360POPC   PO476404   8.171  43.858   5.850
 9360POPC   GL176405   8.224  43.923   6.150
 9360POPC   GL276406   8.297  43.924   6.150
 9360POPC   C1A76407   8.157  43.933   6.450
 9360POPC   D2A76408   8.244  43.884   6.750
 9360POPC   C3A76409   8.228  43.868   7.050
 9360POPC   C4A76410   8.202  43.914   7.350
 9360POPC   C1B76411   8.458  43.882   6.450
 9360POPC   C2B76412   8.428  43.872   6.750
 9360POPC   C3B76413   8.472  43.849   7.050
 9360POPC   C4B76414   8.474  43.907   7.350
 9361POPC   NC376415  22.944  26.826   5.550
 9361POPC   PO476416  22.949  26.791   5.850
 9361POPC   GL176417  22.922  26.822   6.150
 9361POPC   GL276418  22.873  26.658   6.150
 9361POPC   C1A76419  22.932  26.834   6.450
 9361POPC   D2A76420  22.961  26.773   6.750
 9361POPC   C3A76421  22.969  26.860   7.050
 9361POPC   C4A76422  22.931  26.820   7.350
 9361POPC   C1B76423  22.834  26.606   6.450
 9361POPC   C2B76424  22.897  26.542   6.750
 9361POPC   C3B76425  22.912  26.619   7.050
 9361POPC   C4B76426  22.863  26.625   7.350
 9362POPC   NC376427  26.818  33.765   5.550
 9362POPC   PO476428  26.785  33.802   5.850
 9362POPC   GL176429  26.863  33.800   6.150
 9362POPC   GL276430  26.660  33.868   6.150
 9362POPC   C1A76431  26.790  33.830   6.450
 9362POPC   D2A76432  26.775  33.820   6.750
 9362POPC   C3A76433  26.828  33.849   7.050
 9362POPC   C4A76434  26.828  33.771   7.350
 9362POPC   C1B76435  26.628  33.884   6.450
 9362POPC   C2B76436  26.583  33.918   6.750
 9362POPC   C3B76437  26.621  33.916   7.050
 9362POPC   C4B76438  26.587  33.871   7.350
 9363POPC   NC376439  31.487  41.589   5.550
 9363POPC   PO476440  31.472  41.596   5.850
 9363POPC   GL176441  31.439  41.516   6.150
 9363POPC   GL276442  31.436  41.617   6.150
 9363POPC   C1A76443  31.501  41.546   6.450
 9363POPC   D2A76444  31.472  41.555   6.750
 9363POPC   C3A76445  31.446  41.603   7.050
 9363POPC   C4A76446  31.490  41.530   7.350
 9363POPC   C1B76447  31.316  41.800   6.450
 9363POPC   C2B76448  31.307  41.757   6.750
 9363POPC   C3B76449  31.321  41.732   7.050
 9363POPC   C4B76450  31.375  41.783   7.350
 9364POPC   NC376451  29.146  31.501   5.550
 9364POPC   PO476452  29.169  31.471   5.850
 9364POPC   GL176453  29.181  31.481   6.150
 9364POPC   GL276454  29.314  31.478   6.150
 9364POPC   C1A76455  29.135  31.435   6.450
 9364POPC   D2A76456  29.130  31.514   6.750
 9364POPC   C3A76457  29.124  31.450   7.050
 9364POPC   C4A76458  29.130  31.476   7.350
 9364POPC   C1B76459  29.384  31.477   6.450
 9364POPC   C2B76460  29.393  31.447   6.750
 9364POPC   C3B76461  29.409  31.478   7.050
 9364POPC   C4B76462  29.373  31.517   7.350
 9365POPC   NC376463  34.596  13.669   5.550
 9365POPC   PO476464  34.555  13.592   5.850
 9365POPC   GL176465  34.621  13.635   6.150
 9365POPC   GL276466  34.472  13.546   6.150
 9365POPC   C1A76467  34.606  13.637   6.450
 9365POPC   D2A76468  34.568  13.605   6.750
 9365POPC   C3A76469  34.537  13.649   7.050
 9365POPC   C4A76470  34.610  13.654   7.350
 9365POPC   C1B76471  34.392  13.458   6.450
 9365POPC   C2B76472  34.398  13.512   6.750
 9365POPC   C3B76473  34.402  13.466   7.050
 9365POPC   C4B76474  34.351  13.458   7.350
 9366POPC   NC376475  22.119  42.358   5.550
 9366POPC   PO476476  22.191  42.365   5.850
 9366POPC   GL176477  22.212  42.365   6.150
 9366POPC   GL276478  22.068  42.412   6.150
 9366POPC   C1A76479  22.168  42.381   6.450
 9366POPC   D2A76480  22.131  42.308   6.750
 9366POPC   C3A76481  22.175  42.382   7.050
 9366POPC   C4A76482  22.176  42.344   7.350
 9366POPC   C1B76483  21.931  42.517   6.450
 9366POPC   C2B76484  21.916  42.506   6.750
 9366POPC   C3B76485  21.910  42.478   7.050
 9366POPC   C4B76486  21.986  42.444   7.350
 9367POPC   NC376487  23.750   4.352   5.550
 9367POPC   PO476488  23.714   4.367   5.850
 9367POPC   GL176489  23.739   4.289   6.150
 9367POPC   GL276490  23.817   4.357   6.150
 9367POPC   C1A76491  23.722   4.349   6.450
 9367POPC   D2A76492  23.709   4.305   6.750
 9367POPC   C3A76493  23.746   4.331   7.050
 9367POPC   C4A76494  23.673   4.283   7.350
 9367POPC   C1B76495  23.970   4.380   6.450
 9367POPC   C2B76496  23.922   4.354   6.750
 9367POPC   C3B76497  23.930   4.305   7.050
 9367POPC   C4B76498  23.997   4.394   7.350
 9368POPC   NC376499  33.762  26.842   5.550
 9368POPC   PO476500  33.778  26.785   5.850
 9368POPC   GL176501  33.793  26.859   6.150
 9368POPC   GL276502  33.843  26.726   6.150
 9368POPC   C1A76503  33.789  26.821   6.450
 9368POPC   D2A76504  33.838  26.775   6.750
 9368POPC   C3A76505  33.820  26.834   7.050
 9368POPC   C4A76506  33.761  26.802   7.350
 9368POPC   C1B76507  33.819  26.600   6.450
 9368POPC   C2B76508  33.821  26.571   6.750
 9368POPC   C3B76509  33.801  26.534   7.050
 9368POPC   C4B76510  33.789  26.609   7.350
 9369POPC   NC376511  36.165  31.505   5.550
 9369POPC   PO476512  36.139  31.472   5.850
 9369POPC   GL176513  36.130  31.426   6.150
 9369POPC   GL276514  36.283  31.459   6.150
 9369POPC   C1A76515  36.106  31.450   6.450
 9369POPC   D2A76516  36.129  31.473   6.750
 9369POPC   C3A76517  36.087  31.499   7.050
 9369POPC   C4A76518  36.158  31.452   7.350
 9369POPC   C1B76519  36.363  31.562   6.450
 9369POPC   C2B76520  36.369  31.552   6.750
 9369POPC   C3B76521  36.422  31.572   7.050
 9369POPC   C4B76522  36.379  31.526   7.350
 9370POPC   NC376523  21.342   2.807   5.550
 9370POPC   PO476524  21.401   2.763   5.850
 9370POPC   GL176525  21.426   2.778   6.150
 9370POPC   GL276526  21.257   2.796   6.150
 9370POPC   C1A76527  21.353   2.770   6.450
 9370POPC   D2A76528  21.403   2.775   6.750
 9370POPC   C3A76529  21.362   2.808   7.050
 9370POPC   C4A76530  21.363   2.756   7.350
 9370POPC   C1B76531  21.192   2.885   6.450
 9370POPC   C2B76532  21.114   2.839   6.750
 9370POPC   C3B76533  21.117   2.890   7.050
 9370POPC   C4B76534  21.169   2.803   7.350
 9371POPC   NC376535  22.157  44.623   5.550
 9371POPC   PO476536  22.180  44.614   5.850
 9371POPC   GL176537  22.143  44.654   6.150
 9371POPC   GL276538  22.032  44.630   6.150
 9371POPC   C1A76539  22.129  44.654   6.450
 9371POPC   D2A76540  22.121  44.614   6.750
 9371POPC   C3A76541  22.114  44.707   7.050
 9371POPC   C4A76542  22.160  44.658   7.350
 9371POPC   C1B76543  21.962  44.703   6.450
 9371POPC   C2B76544  21.949  44.697   6.750
 9371POPC   C3B76545  21.957  44.706   7.050
 9371POPC   C4B76546  21.883  44.620   7.350
 9372POPC   NC376547  22.971   5.141   5.550
 9372POPC   PO476548  22.962   5.097   5.850
 9372POPC   GL176549  22.934   5.078   6.150
 9372POPC   GL276550  23.036   5.053   6.150
 9372POPC   C1A76551  22.953   5.058   6.450
 9372POPC   D2A76552  22.949   5.081   6.750
 9372POPC   C3A76553  22.954   5.074   7.050
 9372POPC   C4A76554  22.979   5.132   7.350
 9372POPC   C1B76555  23.209   5.031   6.450
 9372POPC   C2B76556  23.212   5.076   6.750
 9372POPC   C3B76557  23.159   5.021   7.050
 9372POPC   C4B76558  23.184   5.112   7.350
 9373POPC   NC376559  40.815  36.158   5.550
 9373POPC   PO476560  40.741  36.147   5.850
 9373POPC   GL176561  40.774  36.093   6.150
 9373POPC   GL276562  40.916  36.189   6.150
 9373POPC   C1A76563  40.733  36.127   6.450
 9373POPC   D2A76564  40.747  36.095   6.750
 9373POPC   C3A76565  40.792  36.146   7.050
 9373POPC   C4A76566  40.778  36.135   7.350
 9373POPC   C1B76567  40.991  36.256   6.450
 9373POPC   C2B76568  40.991  36.206   6.750
 9373POPC   C3B76569  40.983  36.292   7.050
 9373POPC   C4B76570  40.994  36.285   7.350
 9374POPC   NC376571  12.035  38.464   5.550
 9374POPC   PO476572  12.084  38.505   5.850
 9374POPC   GL176573  12.048  38.424   6.150
 9374POPC   GL276574  12.218  38.519   6.150
 9374POPC   C1A76575  12.113  38.418   6.450
 9374POPC   D2A76576  12.043  38.501   6.750
 9374POPC   C3A76577  12.075  38.504   7.050
 9374POPC   C4A76578  12.098  38.469   7.350
 9374POPC   C1B76579  12.273  38.617   6.450
 9374POPC   C2B76580  12.242  38.583   6.750
 9374POPC   C3B76581  12.297  38.614   7.050
 9374POPC   C4B76582  12.270  38.550   7.350
 9375POPC   NC376583  40.811  33.028   5.550
 9375POPC   PO476584  40.791  33.019   5.850
 9375POPC   GL176585  40.776  33.049   6.150
 9375POPC   GL276586  40.846  33.101   6.150
 9375POPC   C1A76587  40.814  33.036   6.450
 9375POPC   D2A76588  40.814  33.063   6.750
 9375POPC   C3A76589  40.799  33.046   7.050
 9375POPC   C4A76590  40.787  33.041   7.350
 9375POPC   C1B76591  41.024  33.191   6.450
 9375POPC   C2B76592  41.009  33.175   6.750
 9375POPC   C3B76593  40.975  33.156   7.050
 9375POPC   C4B76594  41.009  33.166   7.350
 9376POPC   NC376595  15.164  26.019   5.550
 9376POPC   PO476596  15.215  26.065   5.850
 9376POPC   GL176597  15.184  26.064   6.150
 9376POPC   GL276598  15.035  26.045   6.150
 9376POPC   C1A76599  15.201  26.012   6.450
 9376POPC   D2A76600  15.204  26.089   6.750
 9376POPC   C3A76601  15.178  25.993   7.050
 9376POPC   C4A76602  15.183  26.071   7.350
 9376POPC   C1B76603  14.924  26.084   6.450
 9376POPC   C2B76604  14.951  26.025   6.750
 9376POPC   C3B76605  14.901  26.006   7.050
 9376POPC   C4B76606  14.925  26.083   7.350
 9377POPC   NC376607   0.455  33.036   5.550
 9377POPC   PO476608   0.462  33.029   5.850
 9377POPC   GL176609   0.450  33.030   6.150
 9377POPC   GL276610   0.346  32.929   6.150
 9377POPC   C1A76611   0.464  33.027   6.450
 9377POPC   D2A76612   0.457  33.044   6.750
 9377POPC   C3A76613   0.472  32.984   7.050
 9377POPC   C4A76614   0.488  32.996   7.350
 9377POPC   C1B76615   0.282  32.925   6.450
 9377POPC   C2B76616   0.263  32.877   6.750
 9377POPC   C3B76617   0.201  32.904   7.050
 9377POPC   C4B76618   0.242  32.837   7.350
 9378POPC   NC376619  13.625  27.598   5.550
 9378POPC   PO476620  13.599  27.622   5.850
 9378POPC   GL176621  13.632  27.633   6.150
 9378POPC   GL276622  13.632  27.685   6.150
 9378POPC   C1A76623  13.625  27.553   6.450
 9378POPC   D2A76624  13.591  27.582   6.750
 9378POPC   C3A76625  13.581  27.627   7.050
 9378POPC   C4A76626  13.655  27.629   7.350
 9378POPC   C1B76627  13.635  27.888   6.450
 9378POPC   C2B76628  13.689  27.878   6.750
 9378POPC   C3B76629  13.657  27.873   7.050
 9378POPC   C4B76630  13.637  27.814   7.350
 9379POPC   NC376631  22.899  15.955   5.550
 9379POPC   PO476632  22.963  15.964   5.850
 9379POPC   GL176633  22.930  15.938   6.150
 9379POPC   GL276634  22.974  15.843   6.150
 9379POPC   C1A76635  22.966  15.981   6.450
 9379POPC   D2A76636  22.943  15.998   6.750
 9379POPC   C3A76637  22.979  15.917   7.050
 9379POPC   C4A76638  22.937  15.946   7.350
 9379POPC   C1B76639  22.915  15.728   6.450
 9379POPC   C2B76640  22.982  15.709   6.750
 9379POPC   C3B76641  22.960  15.699   7.050
 9379POPC   C4B76642  22.898  15.725   7.350
 9380POPC   NC376643  38.434  23.666   5.550
 9380POPC   PO476644  38.487  23.734   5.850
 9380POPC   GL176645  38.467  23.729   6.150
 9380POPC   GL276646  38.493  23.573   6.150
 9380POPC   C1A76647  38.499  23.713   6.450
 9380POPC   D2A76648  38.427  23.723   6.750
 9380POPC   C3A76649  38.451  23.727   7.050
 9380POPC   C4A76650  38.504  23.740   7.350
 9380POPC   C1B76651  38.388  23.514   6.450
 9380POPC   C2B76652  38.422  23.454   6.750
 9380POPC   C3B76653  38.433  23.435   7.050
 9380POPC   C4B76654  38.452  23.493   7.350
 9381POPC   NC376655  29.918  35.363   5.550
 9381POPC   PO476656  29.934  35.367   5.850
 9381POPC   GL176657  29.871  35.342   6.150
 9381POPC   GL276658  29.851  35.282   6.150
 9381POPC   C1A76659  29.901  35.335   6.450
 9381POPC   D2A76660  29.896  35.358   6.750
 9381POPC   C3A76661  29.908  35.387   7.050
 9381POPC   C4A76662  29.909  35.307   7.350
 9381POPC   C1B76663  29.873  35.139   6.450
 9381POPC   C2B76664  29.809  35.122   6.750
 9381POPC   C3B76665  29.821  35.164   7.050
 9381POPC   C4B76666  29.800  35.112   7.350
 9382POPC   NC376667   7.468   8.194   5.550
 9382POPC   PO476668   7.411   8.170   5.850
 9382POPC   GL176669   7.373   8.172   6.150
 9382POPC   GL276670   7.533   8.274   6.150
 9382POPC   C1A76671   7.422   8.164   6.450
 9382POPC   D2A76672   7.447   8.183   6.750
 9382POPC   C3A76673   7.433   8.214   7.050
 9382POPC   C4A76674   7.429   8.202   7.350
 9382POPC   C1B76675   7.640   8.265   6.450
 9382POPC   C2B76676   7.616   8.319   6.750
 9382POPC   C3B76677   7.702   8.252   7.050
 9382POPC   C4B76678   7.654   8.276   7.350
 9383POPC   NC376679  43.156  28.408   5.550
 9383POPC   PO476680  43.134  28.359   5.850
 9383POPC   GL176681  43.068  28.360   6.150
 9383POPC   GL276682  43.268  28.406   6.150
 9383POPC   C1A76683  43.081  28.358   6.450
 9383POPC   D2A76684  43.092  28.413   6.750
 9383POPC   C3A76685  43.112  28.328   7.050
 9383POPC   C4A76686  43.160  28.377   7.350
 9383POPC   C1B76687  43.367  28.449   6.450
 9383POPC   C2B76688  43.370  28.464   6.750
 9383POPC   C3B76689  43.368  28.452   7.050
 9383POPC   C4B76690  43.325  28.457   7.350
 9384POPC   NC376691  24.503  33.038   5.550
 9384POPC   PO476692  24.525  33.003   5.850
 9384POPC   GL176693  24.534  33.052   6.150
 9384POPC   GL276694  24.587  33.137   6.150
 9384POPC   C1A76695  24.489  33.049   6.450
 9384POPC   D2A76696  24.442  32.980   6.750
 9384POPC   C3A76697  24.494  32.989   7.050
 9384POPC   C4A76698  24.463  33.029   7.350
 9384POPC   C1B76699  24.555  33.253   6.450
 9384POPC   C2B76700  24.626  33.218   6.750
 9384POPC   C3B76701  24.609  33.298   7.050
 9384POPC   C4B76702  24.638  33.284   7.350
 9385POPC   NC376703  43.911  29.165   5.550
 9385POPC   PO476704  43.933  29.117   5.850
 9385POPC   GL176705  43.844  29.134   6.150
 9385POPC   GL276706  43.720  29.071   6.150
 9385POPC   C1A76707  43.927  29.162   6.450
 9385POPC   D2A76708  43.871  29.116   6.750
 9385POPC   C3A76709  43.875  29.152   7.050
 9385POPC   C4A76710  43.917  29.113   7.350
 9385POPC   C1B76711  43.651  29.091   6.450
 9385POPC   C2B76712  43.607  29.051   6.750
 9385POPC   C3B76713  43.679  29.081   7.050
 9385POPC   C4B76714  43.647  29.117   7.350
 9386POPC   NC376715  19.865  31.507   5.550
 9386POPC   PO476716  19.855  31.482   5.850
 9386POPC   GL176717  19.817  31.518   6.150
 9386POPC   GL276718  19.770  31.377   6.150
 9386POPC   C1A76719  19.867  31.487   6.450
 9386POPC   D2A76720  19.791  31.452   6.750
 9386POPC   C3A76721  19.838  31.493   7.050
 9386POPC   C4A76722  19.790  31.428   7.350
 9386POPC   C1B76723  19.606  31.301   6.450
 9386POPC   C2B76724  19.659  31.327   6.750
 9386POPC   C3B76725  19.676  31.297   7.050
 9386POPC   C4B76726  19.664  31.315   7.350
 9387POPC   NC376727  19.088   9.708   5.550
 9387POPC   PO476728  19.087   9.739   5.850
 9387POPC   GL176729  19.086   9.716   6.150
 9387POPC   GL276730  19.138   9.676   6.150
 9387POPC   C1A76731  19.018   9.729   6.450
 9387POPC   D2A76732  19.025   9.773   6.750
 9387POPC   C3A76733  19.096   9.766   7.050
 9387POPC   C4A76734  19.071   9.795   7.350
 9387POPC   C1B76735  19.337   9.679   6.450
 9387POPC   C2B76736  19.331   9.677   6.750
 9387POPC   C3B76737  19.285   9.699   7.050
 9387POPC   C4B76738  19.276   9.619   7.350
 9388POPC   NC376739  32.977  36.906   5.550
 9388POPC   PO476740  33.002  36.897   5.850
 9388POPC   GL176741  33.012  36.895   6.150
 9388POPC   GL276742  32.936  36.969   6.150
 9388POPC   C1A76743  32.974  36.936   6.450
 9388POPC   D2A76744  32.984  36.886   6.750
 9388POPC   C3A76745  33.065  36.911   7.050
 9388POPC   C4A76746  33.035  36.892   7.350
 9388POPC   C1B76747  32.747  36.922   6.450
 9388POPC   C2B76748  32.752  36.915   6.750
 9388POPC   C3B76749  32.756  37.003   7.050
 9388POPC   C4B76750  32.825  36.928   7.350
 9389POPC   NC376751  13.676   1.258   5.550
 9389POPC   PO476752  13.605   1.188   5.850
 9389POPC   GL176753  13.629   1.209   6.150
 9389POPC   GL276754  13.692   1.104   6.150
 9389POPC   C1A76755  13.639   1.203   6.450
 9389POPC   D2A76756  13.674   1.250   6.750
 9389POPC   C3A76757  13.659   1.229   7.050
 9389POPC   C4A76758  13.628   1.198   7.350
 9389POPC   C1B76759  13.623   1.005   6.450
 9389POPC   C2B76760  13.668   0.999   6.750
 9389POPC   C3B76761  13.654   0.999   7.050
 9389POPC   C4B76762  13.708   0.960   7.350
 9390POPC   NC376763  43.870   1.980   5.550
 9390POPC   PO476764  43.928   2.031   5.850
 9390POPC   GL176765  43.917   1.982   6.150
 9390POPC   GL276766  43.847   1.893   6.150
 9390POPC   C1A76767  43.881   1.944   6.450
 9390POPC   D2A76768  43.926   1.964   6.750
 9390POPC   C3A76769  43.846   2.024   7.050
 9390POPC   C4A76770  43.857   2.028   7.350
 9390POPC   C1B76771  43.835   1.722   6.450
 9390POPC   C2B76772  43.896   1.779   6.750
 9390POPC   C3B76773  43.877   1.729   7.050
 9390POPC   C4B76774  43.905   1.761   7.350
 9391POPC   NC376775  14.377  36.953   5.550
 9391POPC   PO476776  14.377  36.874   5.850
 9391POPC   GL176777  14.438  36.856   6.150
 9391POPC   GL276778  14.371  37.006   6.150
 9391POPC   C1A76779  14.381  36.931   6.450
 9391POPC   D2A76780  14.388  36.875   6.750
 9391POPC   C3A76781  14.446  36.863   7.050
 9391POPC   C4A76782  14.364  36.865   7.350
 9391POPC   C1B76783  14.380  37.158   6.450
 9391POPC   C2B76784  14.440  37.167   6.750
 9391POPC   C3B76785  14.425  37.186   7.050
 9391POPC   C4B76786  14.342  37.157   7.350
 9392POPC   NC376787  36.859  18.287   5.550
 9392POPC   PO476788  36.874  18.267   5.850
 9392POPC   GL176789  36.868  18.292   6.150
 9392POPC   GL276790  36.929  18.149   6.150
 9392POPC   C1A76791  36.881  18.329   6.450
 9392POPC   D2A76792  36.860  18.331   6.750
 9392POPC   C3A76793  36.953  18.321   7.050
 9392POPC   C4A76794  36.857  18.291   7.350
 9392POPC   C1B76795  36.850  18.062   6.450
 9392POPC   C2B76796  36.932  18.039   6.750
 9392POPC   C3B76797  36.918  18.079   7.050
 9392POPC   C4B76798  36.896  18.009   7.350
 9393POPC   NC376799  26.768  26.839   5.550
 9393POPC   PO476800  26.795  26.794   5.850
 9393POPC   GL176801  26.848  26.864   6.150
 9393POPC   GL276802  26.726  26.677   6.150
 9393POPC   C1A76803  26.862  26.828   6.450
 9393POPC   D2A76804  26.811  26.771   6.750
 9393POPC   C3A76805  26.797  26.781   7.050
 9393POPC   C4A76806  26.796  26.853   7.350
 9393POPC   C1B76807  26.698  26.574   6.450
 9393POPC   C2B76808  26.682  26.571   6.750
 9393POPC   C3B76809  26.723  26.545   7.050
 9393POPC   C4B76810  26.716  26.559   7.350
 9394POPC   NC376811  33.793  27.583   5.550
 9394POPC   PO476812  33.766  27.560   5.850
 9394POPC   GL176813  33.840  27.634   6.150
 9394POPC   GL276814  33.867  27.645   6.150
 9394POPC   C1A76815  33.847  27.600   6.450
 9394POPC   D2A76816  33.800  27.564   6.750
 9394POPC   C3A76817  33.816  27.594   7.050
 9394POPC   C4A76818  33.785  27.608   7.350
 9394POPC   C1B76819  34.016  27.757   6.450
 9394POPC   C2B76820  33.979  27.772   6.750
 9394POPC   C3B76821  33.951  27.730   7.050
 9394POPC   C4B76822  33.967  27.775   7.350
 9395POPC   NC376823  22.171   1.205   5.550
 9395POPC   PO476824  22.135   1.226   5.850
 9395POPC   GL176825  22.136   1.201   6.150
 9395POPC   GL276826  22.066   1.101   6.150
 9395POPC   C1A76827  22.154   1.170   6.450
 9395POPC   D2A76828  22.161   1.186   6.750
 9395POPC   C3A76829  22.174   1.251   7.050
 9395POPC   C4A76830  22.205   1.182   7.350
 9395POPC   C1B76831  21.996   1.038   6.450
 9395POPC   C2B76832  21.936   1.035   6.750
 9395POPC   C3B76833  22.019   1.076   7.050
 9395POPC   C4B76834  22.005   1.018   7.350
 9396POPC   NC376835  12.102  11.283   5.550
 9396POPC   PO476836  12.065  11.314   5.850
 9396POPC   GL176837  12.066  11.256   6.150
 9396POPC   GL276838  12.096  11.380   6.150
 9396POPC   C1A76839  12.111  11.272   6.450
 9396POPC   D2A76840  12.029  11.330   6.750
 9396POPC   C3A76841  12.107  11.250   7.050
 9396POPC   C4A76842  12.051  11.300   7.350
 9396POPC   C1B76843  12.042  11.597   6.450
 9396POPC   C2B76844  12.037  11.512   6.750
 9396POPC   C3B76845  12.076  11.504   7.050
 9396POPC   C4B76846  12.080  11.551   7.350
 9397POPC   NC376847  14.396  22.962   5.550
 9397POPC   PO476848  14.448  22.917   5.850
 9397POPC   GL176849  14.398  22.907   6.150
 9397POPC   GL276850  14.474  22.997   6.150
 9397POPC   C1A76851  14.396  22.947   6.450
 9397POPC   D2A76852  14.421  22.984   6.750
 9397POPC   C3A76853  14.438  22.945   7.050
 9397POPC   C4A76854  14.425  22.890   7.350
 9397POPC   C1B76855  14.504  23.154   6.450
 9397POPC   C2B76856  14.557  23.093   6.750
 9397POPC   C3B76857  14.536  23.139   7.050
 9397POPC   C4B76858  14.531  23.145   7.350
 9398POPC   NC376859   9.788  10.569   5.550
 9398POPC   PO476860   9.798  10.512   5.850
 9398POPC   GL176861   9.747  10.517   6.150
 9398POPC   GL276862   9.778  10.444   6.150
 9398POPC   C1A76863   9.701  10.561   6.450
 9398POPC   D2A76864   9.789  10.516   6.750
 9398POPC   C3A76865   9.761  10.541   7.050
 9398POPC   C4A76866   9.788  10.535   7.350
 9398POPC   C1B76867   9.880  10.352   6.450
 9398POPC   C2B76868   9.931  10.283   6.750
 9398POPC   C3B76869   9.845  10.353   7.050
 9398POPC   C4B76870   9.864  10.295   7.350
 9399POPC   NC376871  33.045  14.393   5.550
 9399POPC   PO476872  33.055  14.411   5.850
 9399POPC   GL176873  33.061  14.437   6.150
 9399POPC   GL276874  33.134  14.386   6.150
 9399POPC   C1A76875  33.026  14.364   6.450
 9399POPC   D2A76876  33.033  14.452   6.750
 9399POPC   C3A76877  33.001  14.378   7.050
 9399POPC   C4A76878  33.059  14.406   7.350
 9399POPC   C1B76879  33.309  14.434   6.450
 9399POPC   C2B76880  33.313  14.391   6.750
 9399POPC   C3B76881  33.321  14.379   7.050
 9399POPC   C4B76882  33.279  14.353   7.350
 9400POPC   NC376883  12.836  28.383   5.550
 9400POPC   PO476884  12.828  28.354   5.850
 9400POPC   GL176885  12.885  28.327   6.150
 9400POPC   GL276886  12.964  28.449   6.150
 9400POPC   C1A76887  12.849  28.356   6.450
 9400POPC   D2A76888  12.830  28.352   6.750
 9400POPC   C3A76889  12.834  28.325   7.050
 9400POPC   C4A76890  12.811  28.362   7.350
 9400POPC   C1B76891  13.042  28.474   6.450
 9400POPC   C2B76892  13.065  28.498   6.750
 9400POPC   C3B76893  13.075  28.408   7.050
 9400POPC   C4B76894  13.045  28.465   7.350
 9401POPC   NC376895   2.755   7.384   5.550
 9401POPC   PO476896   2.722   7.378   5.850
 9401POPC   GL176897   2.783   7.420   6.150
 9401POPC   GL276898   2.730   7.510   6.150
 9401POPC   C1A76899   2.805   7.393   6.450
 9401POPC   D2A76900   2.786   7.455   6.750
 9401POPC   C3A76901   2.807   7.373   7.050
 9401POPC   C4A76902   2.765   7.449   7.350
 9401POPC   C1B76903   2.816   7.628   6.450
 9401POPC   C2B76904   2.782   7.662   6.750
 9401POPC   C3B76905   2.786   7.688   7.050
 9401POPC   C4B76906   2.730   7.694   7.350
 9402POPC   NC376907  13.578  35.371   5.550
 9402POPC   PO476908  13.598  35.398   5.850
 9402POPC   GL176909  13.641  35.332   6.150
 9402POPC   GL276910  13.634  35.499   6.150
 9402POPC   C1A76911  13.654  35.334   6.450
 9402POPC   D2A76912  13.627  35.310   6.750
 9402POPC   C3A76913  13.581  35.384   7.050
 9402POPC   C4A76914  13.622  35.309   7.350
 9402POPC   C1B76915  13.649  35.609   6.450
 9402POPC   C2B76916  13.680  35.580   6.750
 9402POPC   C3B76917  13.626  35.604   7.050
 9402POPC   C4B76918  13.677  35.593   7.350
 9403POPC   NC376919  18.260   5.835   5.550
 9403POPC   PO476920  18.243   5.841   5.850
 9403POPC   GL176921  18.318   5.830   6.150
 9403POPC   GL276922  18.400   5.835   6.150
 9403POPC   C1A76923  18.325   5.838   6.450
 9403POPC   D2A76924  18.306   5.910   6.750
 9403POPC   C3A76925  18.331   5.919   7.050
 9403POPC   C4A76926  18.313   5.834   7.350
 9403POPC   C1B76927  18.550   5.838   6.450
 9403POPC   C2B76928  18.554   5.780   6.750
 9403POPC   C3B76929  18.506   5.866   7.050
 9403POPC   C4B76930  18.502   5.799   7.350
 9404POPC   NC376931  10.551  27.599   5.550
 9404POPC   PO476932  10.476  27.543   5.850
 9404POPC   GL176933  10.570  27.587   6.150
 9404POPC   GL276934  10.505  27.454   6.150
 9404POPC   C1A76935  10.488  27.634   6.450
 9404POPC   D2A76936  10.552  27.600   6.750
 9404POPC   C3A76937  10.478  27.545   7.050
 9404POPC   C4A76938  10.502  27.554   7.350
 9404POPC   C1B76939  10.515  27.323   6.450
 9404POPC   C2B76940  10.437  27.341   6.750
 9404POPC   C3B76941  10.489  27.318   7.050
 9404POPC   C4B76942  10.456  27.340   7.350
 9405POPC   NC376943  24.491  43.123   5.550
 9405POPC   PO476944  24.453  43.121   5.850
 9405POPC   GL176945  24.464  43.132   6.150
 9405POPC   GL276946  24.421  43.054   6.150
 9405POPC   C1A76947  24.528  43.080   6.450
 9405POPC   D2A76948  24.506  43.152   6.750
 9405POPC   C3A76949  24.457  43.066   7.050
 9405POPC   C4A76950  24.527  43.063   7.350
 9405POPC   C1B76951  24.251  42.982   6.450
 9405POPC   C2B76952  24.221  42.972   6.750
 9405POPC   C3B76953  24.293  43.047   7.050
 9405POPC   C4B76954  24.272  43.050   7.350
 9406POPC   NC376955  37.657   7.467   5.550
 9406POPC   PO476956  37.668   7.437   5.850
 9406POPC   GL176957  37.653   7.434   6.150
 9406POPC   GL276958  37.805   7.360   6.150
 9406POPC   C1A76959  37.663   7.448   6.450
 9406POPC   D2A76960  37.725   7.419   6.750
 9406POPC   C3A76961  37.681   7.437   7.050
 9406POPC   C4A76962  37.683   7.423   7.350
 9406POPC   C1B76963  37.823   7.236   6.450
 9406POPC   C2B76964  37.827   7.271   6.750
 9406POPC   C3B76965  37.865   7.280   7.050
 9406POPC   C4B76966  37.841   7.191   7.350
 9407POPC   NC376967  34.615  23.723   5.550
 9407POPC   PO476968  34.532  23.725   5.850
 9407POPC   GL176969  34.542  23.683   6.150
 9407POPC   GL276970  34.539  23.828   6.150
 9407POPC   C1A76971  34.598  23.738   6.450
 9407POPC   D2A76972  34.566  23.739   6.750
 9407POPC   C3A76973  34.533  23.710   7.050
 9407POPC   C4A76974  34.529  23.694   7.350
 9407POPC   C1B76975  34.474  23.971   6.450
 9407POPC   C2B76976  34.459  23.924   6.750
 9407POPC   C3B76977  34.487  23.919   7.050
 9407POPC   C4B76978  34.509  23.944   7.350
 9408POPC   NC376979  13.665   0.458   5.550
 9408POPC   PO476980  13.674   0.471   5.850
 9408POPC   GL176981  13.580   0.427   6.150
 9408POPC   GL276982  13.517   0.489   6.150
 9408POPC   C1A76983  13.583   0.403   6.450
 9408POPC   D2A76984  13.607   0.416   6.750
 9408POPC   C3A76985  13.650   0.441   7.050
 9408POPC   C4A76986  13.618   0.458   7.350
 9408POPC   C1B76987  13.456   0.637   6.450
 9408POPC   C2B76988  13.452   0.631   6.750
 9408POPC   C3B76989  13.459   0.604   7.050
 9408POPC   C4B76990  13.447   0.630   7.350
 9409POPC   NC376991  34.623  17.554   5.550
 9409POPC   PO476992  34.593  17.554   5.850
 9409POPC   GL176993  34.575  17.522   6.150
 9409POPC   GL276994  34.660  17.381   6.150
 9409POPC   C1A76995  34.573  17.461   6.450
 9409POPC   D2A76996  34.610  17.527   6.750
 9409POPC   C3A76997  34.575  17.531   7.050
 9409POPC   C4A76998  34.582  17.539   7.350
 9409POPC   C1B76999  34.722  17.299   6.450
 9409POPC   C2B77000  34.715  17.260   6.750
 9409POPC   C3B77001  34.656  17.267   7.050
 9409POPC   C4B77002  34.683  17.339   7.350
 9410POPC   NC377003  42.312  19.830   5.550
 9410POPC   PO477004  42.357  19.870   5.850
 9410POPC   GL177005  42.309  19.805   6.150
 9410POPC   GL277006  42.236  19.695   6.150
 9410POPC   C1A77007  42.348  19.852   6.450
 9410POPC   D2A77008  42.313  19.840   6.750
 9410POPC   C3A77009  42.297  19.825   7.050
 9410POPC   C4A77010  42.318  19.849   7.350
 9410POPC   C1B77011  42.274  19.614   6.450
 9410POPC   C2B77012  42.184  19.656   6.750
 9410POPC   C3B77013  42.179  19.575   7.050
 9410POPC   C4B77014  42.253  19.628   7.350
 9411POPC   NC377015  12.068  22.950   5.550
 9411POPC   PO477016  12.033  22.951   5.850
 9411POPC   GL177017  12.029  22.905   6.150
 9411POPC   GL277018  11.985  22.812   6.150
 9411POPC   C1A77019  12.098  22.914   6.450
 9411POPC   D2A77020  12.122  22.925   6.750
 9411POPC   C3A77021  12.040  22.983   7.050
 9411POPC   C4A77022  12.086  22.898   7.350
 9411POPC   C1B77023  11.963  22.711   6.450
 9411POPC   C2B77024  11.945  22.715   6.750
 9411POPC   C3B77025  11.910  22.740   7.050
 9411POPC   C4B77026  11.957  22.763   7.350
 9412POPC   NC377027  22.161  32.975   5.550
 9412POPC   PO477028  22.139  33.003   5.850
 9412POPC   GL177029  22.174  33.069   6.150
 9412POPC   GL277030  22.251  33.012   6.150
 9412POPC   C1A77031  22.154  33.047   6.450
 9412POPC   D2A77032  22.210  33.000   6.750
 9412POPC   C3A77033  22.133  32.985   7.050
 9412POPC   C4A77034  22.116  33.064   7.350
 9412POPC   C1B77035  22.344  32.888   6.450
 9412POPC   C2B77036  22.390  32.952   6.750
 9412POPC   C3B77037  22.424  32.936   7.050
 9412POPC   C4B77038  22.348  32.909   7.350
 9413POPC   NC377039  18.268  36.871   5.550
 9413POPC   PO477040  18.268  36.883   5.850
 9413POPC   GL177041  18.286  36.873   6.150
 9413POPC   GL277042  18.129  36.891   6.150
 9413POPC   C1A77043  18.265  36.949   6.450
 9413POPC   D2A77044  18.314  36.933   6.750
 9413POPC   C3A77045  18.276  36.903   7.050
 9413POPC   C4A77046  18.271  36.874   7.350
 9413POPC   C1B77047  18.063  36.937   6.450
 9413POPC   C2B77048  18.078  36.935   6.750
 9413POPC   C3B77049  18.032  36.850   7.050
 9413POPC   C4B77050  18.031  36.862   7.350
 9414POPC   NC377051  37.657   8.951   5.550
 9414POPC   PO477052  37.638   8.970   5.850
 9414POPC   GL177053  37.638   8.997   6.150
 9414POPC   GL277054  37.558   9.034   6.150
 9414POPC   C1A77055  37.695   8.960   6.450
 9414POPC   D2A77056  37.680   8.964   6.750
 9414POPC   C3A77057  37.706   9.020   7.050
 9414POPC   C4A77058  37.695   8.961   7.350
 9414POPC   C1B77059  37.498   9.048   6.450
 9414POPC   C2B77060  37.488   9.112   6.750
 9414POPC   C3B77061  37.440   9.113   7.050
 9414POPC   C4B77062  37.433   9.057   7.350
 9415POPC   NC377063  39.254   8.174   5.550
 9415POPC   PO477064  39.237   8.221   5.850
 9415POPC   GL177065  39.203   8.180   6.150
 9415POPC   GL277066  39.203   8.057   6.150
 9415POPC   C1A77067  39.243   8.147   6.450
 9415POPC   D2A77068  39.236   8.149   6.750
 9415POPC   C3A77069  39.242   8.236   7.050
 9415POPC   C4A77070  39.240   8.239   7.350
 9415POPC   C1B77071  39.142   7.945   6.450
 9415POPC   C2B77072  39.174   7.958   6.750
 9415POPC   C3B77073  39.214   7.939   7.050
 9415POPC   C4B77074  39.178   7.913   7.350
 9416POPC   NC377075   9.748  26.827   5.550
 9416POPC   PO477076   9.733  26.850   5.850
 9416POPC   GL177077   9.763  26.846   6.150
 9416POPC   GL277078   9.672  26.911   6.150
 9416POPC   C1A77079   9.701  26.818   6.450
 9416POPC   D2A77080   9.744  26.843   6.750
 9416POPC   C3A77081   9.745  26.809   7.050
 9416POPC   C4A77082   9.722  26.834   7.350
 9416POPC   C1B77083   9.565  26.901   6.450
 9416POPC   C2B77084   9.534  26.871   6.750
 9416POPC   C3B77085   9.474  26.870   7.050
 9416POPC   C4B77086   9.561  26.878   7.350
 9417POPC   NC377087  19.010  29.878   5.550
 9417POPC   PO477088  19.088  29.917   5.850
 9417POPC   GL177089  19.108  29.903   6.150
 9417POPC   GL277090  19.009  29.816   6.150
 9417POPC   C1A77091  19.067  29.964   6.450
 9417POPC   D2A77092  19.074  29.891   6.750
 9417POPC   C3A77093  19.097  29.951   7.050
 9417POPC   C4A77094  19.104  29.901   7.350
 9417POPC   C1B77095  19.005  29.716   6.450
 9417POPC   C2B77096  18.961  29.687   6.750
 9417POPC   C3B77097  18.985  29.716   7.050
 9417POPC   C4B77098  18.969  29.722   7.350
 9418POPC   NC377099  36.100   2.001   5.550
 9418POPC   PO477100  36.102   1.943   5.850
 9418POPC   GL177101  36.135   2.039   6.150
 9418POPC   GL277102  36.216   2.085   6.150
 9418POPC   C1A77103  36.120   2.020   6.450
 9418POPC   D2A77104  36.167   2.016   6.750
 9418POPC   C3A77105  36.122   2.034   7.050
 9418POPC   C4A77106  36.154   1.944   7.350
 9418POPC   C1B77107  36.333   2.114   6.450
 9418POPC   C2B77108  36.356   2.104   6.750
 9418POPC   C3B77109  36.290   2.132   7.050
 9418POPC   C4B77110  36.330   2.093   7.350
 9419POPC   NC377111  43.869  32.202   5.550
 9419POPC   PO477112  43.922  32.242   5.850
 9419POPC   GL177113  43.916  32.248   6.150
 9419POPC   GL277114  44.054  32.194   6.150
 9419POPC   C1A77115  43.892  32.204   6.450
 9419POPC   D2A77116  43.851  32.221   6.750
 9419POPC   C3A77117  43.910  32.292   7.050
 9419POPC   C4A77118  43.843  32.217   7.350
 9419POPC   C1B77119  44.097  32.158   6.450
 9419POPC   C2B77120  44.172  32.184   6.750
 9419POPC   C3B77121  44.154  32.204   7.050
 9419POPC   C4B77122  44.105  32.168   7.350
 9420POPC   NC377123  26.809  17.480   5.550
 9420POPC   PO477124  26.806  17.471   5.850
 9420POPC   GL177125  26.848  17.498   6.150
 9420POPC   GL277126  26.927  17.623   6.150
 9420POPC   C1A77127  26.780  17.544   6.450
 9420POPC   D2A77128  26.822  17.500   6.750
 9420POPC   C3A77129  26.786  17.488   7.050
 9420POPC   C4A77130  26.852  17.488   7.350
 9420POPC   C1B77131  26.994  17.693   6.450
 9420POPC   C2B77132  26.982  17.700   6.750
 9420POPC   C3B77133  26.990  17.688   7.050
 9420POPC   C4B77134  27.022  17.646   7.350
 9421POPC   NC377135  16.745  28.414   5.550
 9421POPC   PO477136  16.688  28.321   5.850
 9421POPC   GL177137  16.748  28.353   6.150
 9421POPC   GL277138  16.657  28.419   6.150
 9421POPC   C1A77139  16.721  28.415   6.450
 9421POPC   D2A77140  16.775  28.347   6.750
 9421POPC   C3A77141  16.684  28.414   7.050
 9421POPC   C4A77142  16.740  28.412   7.350
 9421POPC   C1B77143  16.537  28.539   6.450
 9421POPC   C2B77144  16.520  28.517   6.750
 9421POPC   C3B77145  16.562  28.560   7.050
 9421POPC   C4B77146  16.546  28.530   7.350
 9422POPC   NC377147   2.749  43.932   5.550
 9422POPC   PO477148   2.784  43.855   5.850
 9422POPC   GL177149   2.750  43.901   6.150
 9422POPC   GL277150   2.696  43.971   6.150
 9422POPC   C1A77151   2.747  43.911   6.450
 9422POPC   D2A77152   2.804  43.932   6.750
 9422POPC   C3A77153   2.769  43.863   7.050
 9422POPC   C4A77154   2.759  43.881   7.350
 9422POPC   C1B77155   2.566  43.941   6.450
 9422POPC   C2B77156   2.562  44.008   6.750
 9422POPC   C3B77157   2.543  43.956   7.050
 9422POPC   C4B77158   2.553  44.010   7.350
 9423POPC   NC377159  18.267  18.285   5.550
 9423POPC   PO477160  18.307  18.238   5.850
 9423POPC   GL177161  18.298  18.296   6.150
 9423POPC   GL277162  18.199  18.225   6.150
 9423POPC   C1A77163  18.254  18.308   6.450
 9423POPC   D2A77164  18.322  18.264   6.750
 9423POPC   C3A77165  18.283  18.307   7.050
 9423POPC   C4A77166  18.312  18.236   7.350
 9423POPC   C1B77167  18.023  18.171   6.450
 9423POPC   C2B77168  18.048  18.148   6.750
 9423POPC   C3B77169  18.059  18.130   7.050
 9423POPC   C4B77170  18.051  18.211   7.350
 9424POPC   NC377171   3.501  36.923   5.550
 9424POPC   PO477172   3.578  36.922   5.850
 9424POPC   GL177173   3.590  36.855   6.150
 9424POPC   GL277174   3.446  36.938   6.150
 9424POPC   C1A77175   3.507  36.912   6.450
 9424POPC   D2A77176   3.547  36.902   6.750
 9424POPC   C3A77177   3.503  36.892   7.050
 9424POPC   C4A77178   3.505  36.884   7.350
 9424POPC   C1B77179   3.271  36.909   6.450
 9424POPC   C2B77180   3.341  36.889   6.750
 9424POPC   C3B77181   3.283  36.899   7.050
 9424POPC   C4B77182   3.285  36.907   7.350
 9425POPC   NC377183  19.824  43.877   5.550
 9425POPC   PO477184  19.804  43.875   5.850
 9425POPC   GL177185  19.839  43.870   6.150
 9425POPC   GL277186  19.930  43.861   6.150
 9425POPC   C1A77187  19.792  43.928   6.450
 9425POPC   D2A77188  19.827  43.847   6.750
 9425POPC   C3A77189  19.850  43.875   7.050
 9425POPC   C4A77190  19.831  43.873   7.350
 9425POPC   C1B77191  20.079  43.931   6.450
 9425POPC   C2B77192  20.103  43.933   6.750
 9425POPC   C3B77193  20.036  43.917   7.050
 9425POPC   C4B77194  20.042  43.960   7.350
 9426POPC   NC377195   2.789   5.127   5.550
 9426POPC   PO477196   2.739   5.137   5.850
 9426POPC   GL177197   2.740   5.126   6.150
 9426POPC   GL277198   2.627   5.103   6.150
 9426POPC   C1A77199   2.803   5.071   6.450
 9426POPC   D2A77200   2.719   5.105   6.750
 9426POPC   C3A77201   2.754   5.121   7.050
 9426POPC   C4A77202   2.809   5.093   7.350
 9426POPC   C1B77203   2.477   5.062   6.450
 9426POPC   C2B77204   2.546   5.081   6.750
 9426POPC   C3B77205   2.503   5.046   7.050
 9426POPC   C4B77206   2.507   5.035   7.350
 9427POPC   NC377207   5.123  34.617   5.550
 9427POPC   PO477208   5.053  34.593   5.850
 9427POPC   GL177209   5.048  34.587   6.150
 9427POPC   GL277210   5.130  34.693   6.150
 9427POPC   C1A77211   5.109  34.602   6.450
 9427POPC   D2A77212   5.135  34.530   6.750
 9427POPC   C3A77213   5.084  34.536   7.050
 9427POPC   C4A77214   5.056  34.549   7.350
 9427POPC   C1B77215   5.111  34.858   6.450
 9427POPC   C2B77216   5.100  34.777   6.750
 9427POPC   C3B77217   5.098  34.801   7.050
 9427POPC   C4B77218   5.094  34.778   7.350
 9428POPC   NC377219   7.401  15.969   5.550
 9428POPC   PO477220   7.393  15.987   5.850
 9428POPC   GL177221   7.383  15.958   6.150
 9428POPC   GL277222   7.269  15.936   6.150
 9428POPC   C1A77223   7.464  16.001   6.450
 9428POPC   D2A77224   7.441  15.964   6.750
 9428POPC   C3A77225   7.417  15.908   7.050
 9428POPC   C4A77226   7.394  15.938   7.350
 9428POPC   C1B77227   7.213  15.883   6.450
 9428POPC   C2B77228   7.172  15.834   6.750
 9428POPC   C3B77229   7.174  15.866   7.050
 9428POPC   C4B77230   7.167  15.869   7.350
 9429POPC   NC377231  31.507   3.518   5.550
 9429POPC   PO477232  31.513   3.555   5.850
 9429POPC   GL177233  31.475   3.539   6.150
 9429POPC   GL277234  31.534   3.633   6.150
 9429POPC   C1A77235  31.509   3.570   6.450
 9429POPC   D2A77236  31.501   3.532   6.750
 9429POPC   C3A77237  31.440   3.540   7.050
 9429POPC   C4A77238  31.445   3.507   7.350
 9429POPC   C1B77239  31.636   3.725   6.450
 9429POPC   C2B77240  31.635   3.728   6.750
 9429POPC   C3B77241  31.652   3.721   7.050
 9429POPC   C4B77242  31.580   3.786   7.350
 9430POPC   NC377243  32.291  39.270   5.550
 9430POPC   PO477244  32.222  39.190   5.850
 9430POPC   GL177245  32.232  39.196   6.150
 9430POPC   GL277246  32.158  39.254   6.150
 9430POPC   C1A77247  32.255  39.271   6.450
 9430POPC   D2A77248  32.233  39.183   6.750
 9430POPC   C3A77249  32.245  39.190   7.050
 9430POPC   C4A77250  32.211  39.263   7.350
 9430POPC   C1B77251  32.025  39.247   6.450
 9430POPC   C2B77252  31.989  39.232   6.750
 9430POPC   C3B77253  32.021  39.254   7.050
 9430POPC   C4B77254  31.966  39.186   7.350
 9431POPC   NC377255  10.517  30.667   5.550
 9431POPC   PO477256  10.554  30.702   5.850
 9431POPC   GL177257  10.565  30.710   6.150
 9431POPC   GL277258  10.612  30.641   6.150
 9431POPC   C1A77259  10.482  30.677   6.450
 9431POPC   D2A77260  10.545  30.715   6.750
 9431POPC   C3A77261  10.534  30.737   7.050
 9431POPC   C4A77262  10.474  30.658   7.350
 9431POPC   C1B77263  10.760  30.560   6.450
 9431POPC   C2B77264  10.681  30.564   6.750
 9431POPC   C3B77265  10.715  30.523   7.050
 9431POPC   C4B77266  10.712  30.489   7.350
 9432POPC   NC377267  19.077   8.171   5.550
 9432POPC   PO477268  19.106   8.163   5.850
 9432POPC   GL177269  19.103   8.222   6.150
 9432POPC   GL277270  19.000   8.266   6.150
 9432POPC   C1A77271  19.088   8.194   6.450
 9432POPC   D2A77272  19.101   8.240   6.750
 9432POPC   C3A77273  19.025   8.178   7.050
 9432POPC   C4A77274  19.038   8.215   7.350
 9432POPC   C1B77275  18.858   8.373   6.450
 9432POPC   C2B77276  18.907   8.394   6.750
 9432POPC   C3B77277  18.941   8.418   7.050
 9432POPC   C4B77278  18.911   8.384   7.350
 9433POPC   NC377279  44.651  26.835   5.550
 9433POPC   PO477280  44.712  26.785   5.850
 9433POPC   GL177281  44.614  26.847   6.150
 9433POPC   GL277282  44.698  26.666   6.150
 9433POPC   C1A77283  44.622  26.807   6.450
 9433POPC   D2A77284  44.677  26.816   6.750
 9433POPC   C3A77285  44.625  26.772   7.050
 9433POPC   C4A77286  44.620  26.824   7.350
 9433POPC   C1B77287  44.713  26.603   6.450
 9433POPC   C2B77288  44.663  26.578   6.750
 9433POPC   C3B77289  44.703  26.564   7.050
 9433POPC   C4B77290  44.644  26.590   7.350
 9434POPC   NC377291  15.983  13.585   5.550
 9434POPC   PO477292  15.995  13.599   5.850
 9434POPC   GL177293  16.001  13.633   6.150
 9434POPC   GL277294  16.106  13.617   6.150
 9434POPC   C1A77295  15.976  13.592   6.450
 9434POPC   D2A77296  15.989  13.630   6.750
 9434POPC   C3A77297  15.948  13.618   7.050
 9434POPC   C4A77298  15.980  13.600   7.350
 9434POPC   C1B77299  16.176  13.667   6.450
 9434POPC   C2B77300  16.185  13.614   6.750
 9434POPC   C3B77301  16.166  13.608   7.050
 9434POPC   C4B77302  16.253  13.667   7.350
 9435POPC   NC377303  15.976   3.553   5.550
 9435POPC   PO477304  15.960   3.585   5.850
 9435POPC   GL177305  15.933   3.560   6.150
 9435POPC   GL277306  15.808   3.514   6.150
 9435POPC   C1A77307  15.906   3.557   6.450
 9435POPC   D2A77308  15.917   3.501   6.750
 9435POPC   C3A77309  15.915   3.591   7.050
 9435POPC   C4A77310  15.917   3.507   7.350
 9435POPC   C1B77311  15.726   3.463   6.450
 9435POPC   C2B77312  15.688   3.445   6.750
 9435POPC   C3B77313  15.773   3.465   7.050
 9435POPC   C4B77314  15.783   3.448   7.350
 9436POPC   NC377315  24.480  12.824   5.550
 9436POPC   PO477316  24.538  12.891   5.850
 9436POPC   GL177317  24.493  12.864   6.150
 9436POPC   GL277318  24.409  12.886   6.150
 9436POPC   C1A77319  24.489  12.810   6.450
 9436POPC   D2A77320  24.530  12.804   6.750
 9436POPC   C3A77321  24.482  12.835   7.050
 9436POPC   C4A77322  24.468  12.837   7.350
 9436POPC   C1B77323  24.244  13.031   6.450
 9436POPC   C2B77324  24.300  12.973   6.750
 9436POPC   C3B77325  24.302  13.001   7.050
 9436POPC   C4B77326  24.266  12.962   7.350
 9437POPC   NC377327   9.019  32.271   5.550
 9437POPC   PO477328   8.977  32.271   5.850
 9437POPC   GL177329   8.941  32.220   6.150
 9437POPC   GL277330   9.108  32.324   6.150
 9437POPC   C1A77331   8.932  32.294   6.450
 9437POPC   D2A77332   8.971  32.223   6.750
 9437POPC   C3A77333   8.992  32.213   7.050
 9437POPC   C4A77334   8.955  32.249   7.350
 9437POPC   C1B77335   9.153  32.373   6.450
 9437POPC   C2B77336   9.154  32.442   6.750
 9437POPC   C3B77337   9.154  32.392   7.050
 9437POPC   C4B77338   9.199  32.454   7.350
 9438POPC   NC377339  19.857   6.664   5.550
 9438POPC   PO477340  19.809   6.694   5.850
 9438POPC   GL177341  19.788   6.651   6.150
 9438POPC   GL277342  19.890   6.494   6.150
 9438POPC   C1A77343  19.819   6.611   6.450
 9438POPC   D2A77344  19.864   6.672   6.750
 9438POPC   C3A77345  19.877   6.649   7.050
 9438POPC   C4A77346  19.845   6.629   7.350
 9438POPC   C1B77347  19.969   6.450   6.450
 9438POPC   C2B77348  19.873   6.445   6.750
 9438POPC   C3B77349  19.943   6.436   7.050
 9438POPC   C4B77350  19.930   6.434   7.350
 9439POPC   NC377351  10.541  26.076   5.550
 9439POPC   PO477352  10.476  26.071   5.850
 9439POPC   GL177353  10.514  26.081   6.150
 9439POPC   GL277354  10.359  25.994   6.150
 9439POPC   C1A77355  10.550  26.074   6.450
 9439POPC   D2A77356  10.574  26.044   6.750
 9439POPC   C3A77357  10.508  25.997   7.050
 9439POPC   C4A77358  10.558  26.021   7.350
 9439POPC   C1B77359  10.330  25.895   6.450
 9439POPC   C2B77360  10.301  25.975   6.750
 9439POPC   C3B77361  10.300  25.900   7.050
 9439POPC   C4B77362  10.259  25.962   7.350
 9440POPC   NC377363  28.338  19.037   5.550
 9440POPC   PO477364  28.331  19.086   5.850
 9440POPC   GL177365  28.394  19.086   6.150
 9440POPC   GL277366  28.308  19.164   6.150
 9440POPC   C1A77367  28.385  19.093   6.450
 9440POPC   D2A77368  28.378  19.063   6.750
 9440POPC   C3A77369  28.414  19.052   7.050
 9440POPC   C4A77370  28.326  19.025   7.350
 9440POPC   C1B77371  28.300  19.319   6.450
 9440POPC   C2B77372  28.279  19.311   6.750
 9440POPC   C3B77373  28.299  19.323   7.050
 9440POPC   C4B77374  28.270  19.348   7.350
 9441POPC   NC377375  26.810  38.447   5.550
 9441POPC   PO477376  26.831  38.487   5.850
 9441POPC   GL177377  26.833  38.488   6.150
 9441POPC   GL277378  26.797  38.574   6.150
 9441POPC   C1A77379  26.808  38.495   6.450
 9441POPC   D2A77380  26.801  38.430   6.750
 9441POPC   C3A77381  26.779  38.481   7.050
 9441POPC   C4A77382  26.791  38.465   7.350
 9441POPC   C1B77383  26.721  38.649   6.450
 9441POPC   C2B77384  26.770  38.717   6.750
 9441POPC   C3B77385  26.736  38.731   7.050
 9441POPC   C4B77386  26.790  38.691   7.350
 9442POPC   NC377387   8.938  13.598   5.550
 9442POPC   PO477388   8.923  13.665   5.850
 9442POPC   GL177389   8.967  13.584   6.150
 9442POPC   GL277390   9.032  13.655   6.150
 9442POPC   C1A77391   8.927  13.631   6.450
 9442POPC   D2A77392   8.953  13.633   6.750
 9442POPC   C3A77393   8.927  13.580   7.050
 9442POPC   C4A77394   9.001  13.616   7.350
 9442POPC   C1B77395   9.193  13.789   6.450
 9442POPC   C2B77396   9.200  13.789   6.750
 9442POPC   C3B77397   9.177  13.714   7.050
 9442POPC   C4B77398   9.181  13.796   7.350
 9443POPC   NC377399  37.681   3.506   5.550
 9443POPC   PO477400  37.670   3.569   5.850
 9443POPC   GL177401  37.694   3.557   6.150
 9443POPC   GL277402  37.517   3.493   6.150
 9443POPC   C1A77403  37.657   3.523   6.450
 9443POPC   D2A77404  37.670   3.541   6.750
 9443POPC   C3A77405  37.664   3.511   7.050
 9443POPC   C4A77406  37.661   3.572   7.350
 9443POPC   C1B77407  37.387   3.538   6.450
 9443POPC   C2B77408  37.412   3.531   6.750
 9443POPC   C3B77409  37.436   3.502   7.050
 9443POPC   C4B77410  37.457   3.498   7.350
 9444POPC   NC377411  40.830   7.457   5.550
 9444POPC   PO477412  40.737   7.431   5.850
 9444POPC   GL177413  40.740   7.447   6.150
 9444POPC   GL277414  40.722   7.411   6.150
 9444POPC   C1A77415  40.755   7.372   6.450
 9444POPC   D2A77416  40.802   7.374   6.750
 9444POPC   C3A77417  40.757   7.406   7.050
 9444POPC   C4A77418  40.775   7.375   7.350
 9444POPC   C1B77419  40.546   7.332   6.450
 9444POPC   C2B77420  40.545   7.322   6.750
 9444POPC   C3B77421  40.513   7.290   7.050
 9444POPC   C4B77422  40.540   7.282   7.350
 9445POPC   NC377423  37.699  22.151   5.550
 9445POPC   PO477424  37.705  22.138   5.850
 9445POPC   GL177425  37.642  22.129   6.150
 9445POPC   GL277426  37.743  22.215   6.150
 9445POPC   C1A77427  37.704  22.182   6.450
 9445POPC   D2A77428  37.675  22.128   6.750
 9445POPC   C3A77429  37.631  22.173   7.050
 9445POPC   C4A77430  37.643  22.181   7.350
 9445POPC   C1B77431  37.786  22.394   6.450
 9445POPC   C2B77432  37.870  22.326   6.750
 9445POPC   C3B77433  37.813  22.384   7.050
 9445POPC   C4B77434  37.842  22.351   7.350
 9446POPC   NC377435  11.292  29.171   5.550
 9446POPC   PO477436  11.275  29.153   5.850
 9446POPC   GL177437  11.348  29.106   6.150
 9446POPC   GL277438  11.209  29.254   6.150
 9446POPC   C1A77439  11.279  29.136   6.450
 9446POPC   D2A77440  11.284  29.167   6.750
 9446POPC   C3A77441  11.279  29.158   7.050
 9446POPC   C4A77442  11.337  29.183   7.350
 9446POPC   C1B77443  11.147  29.269   6.450
 9446POPC   C2B77444  11.165  29.340   6.750
 9446POPC   C3B77445  11.112  29.290   7.050
 9446POPC   C4B77446  11.100  29.338   7.350
 9447POPC   NC377447  12.049  12.882   5.550
 9447POPC   PO477448  12.063  12.823   5.850
 9447POPC   GL177449  12.049  12.826   6.150
 9447POPC   GL277450  12.021  12.954   6.150
 9447POPC   C1A77451  12.116  12.817   6.450
 9447POPC   D2A77452  12.125  12.823   6.750
 9447POPC   C3A77453  12.052  12.887   7.050
 9447POPC   C4A77454  12.050  12.844   7.350
 9447POPC   C1B77455  11.965  13.085   6.450
 9447POPC   C2B77456  12.004  13.104   6.750
 9447POPC   C3B77457  12.005  13.120   7.050
 9447POPC   C4B77458  12.052  13.086   7.350
 9448POPC   NC377459  18.273  26.078   5.550
 9448POPC   PO477460  18.265  26.087   5.850
 9448POPC   GL177461  18.315  26.088   6.150
 9448POPC   GL277462  18.190  26.086   6.150
 9448POPC   C1A77463  18.307  26.022   6.450
 9448POPC   D2A77464  18.259  26.069   6.750
 9448POPC   C3A77465  18.319  26.000   7.050
 9448POPC   C4A77466  18.297  26.003   7.350
 9448POPC   C1B77467  18.104  26.175   6.450
 9448POPC   C2B77468  18.035  26.180   6.750
 9448POPC   C3B77469  18.064  26.202   7.050
 9448POPC   C4B77470  18.023  26.179   7.350
 9449POPC   NC377471  12.107  19.061   5.550
 9449POPC   PO477472  12.039  19.023   5.850
 9449POPC   GL177473  12.103  19.030   6.150
 9449POPC   GL277474  12.053  18.893   6.150
 9449POPC   C1A77475  12.046  19.108   6.450
 9449POPC   D2A77476  12.102  19.057   6.750
 9449POPC   C3A77477  12.102  19.020   7.050
 9449POPC   C4A77478  12.072  19.017   7.350
 9449POPC   C1B77479  12.078  18.825   6.450
 9449POPC   C2B77480  12.021  18.842   6.750
 9449POPC   C3B77481  12.043  18.828   7.050
 9449POPC   C4B77482  12.007  18.787   7.350
 9450POPC   NC377483  31.501   1.171   5.550
 9450POPC   PO477484  31.500   1.224   5.850
 9450POPC   GL177485  31.437   1.224   6.150
 9450POPC   GL277486  31.491   1.294   6.150
 9450POPC   C1A77487  31.435   1.190   6.450
 9450POPC   D2A77488  31.501   1.234   6.750
 9450POPC   C3A77489  31.428   1.258   7.050
 9450POPC   C4A77490  31.499   1.208   7.350
 9450POPC   C1B77491  31.611   1.417   6.450
 9450POPC   C2B77492  31.577   1.460   6.750
 9450POPC   C3B77493  31.612   1.428   7.050
 9450POPC   C4B77494  31.605   1.410   7.350
 9451POPC   NC377495  15.194  29.152   5.550
 9451POPC   PO477496  15.159  29.129   5.850
 9451POPC   GL177497  15.151  29.185   6.150
 9451POPC   GL277498  15.047  29.237   6.150
 9451POPC   C1A77499  15.147  29.157   6.450
 9451POPC   D2A77500  15.199  29.113   6.750
 9451POPC   C3A77501  15.213  29.114   7.050
 9451POPC   C4A77502  15.214  29.126   7.350
 9451POPC   C1B77503  15.010  29.339   6.450
 9451POPC   C2B77504  14.959  29.356   6.750
 9451POPC   C3B77505  14.952  29.290   7.050
 9451POPC   C4B77506  15.032  29.355   7.350
 9452POPC   NC377507  12.817  43.153   5.550
 9452POPC   PO477508  12.848  43.062   5.850
 9452POPC   GL177509  12.894  43.091   6.150
 9452POPC   GL277510  12.931  43.043   6.150
 9452POPC   C1A77511  12.863  43.092   6.450
 9452POPC   D2A77512  12.898  43.133   6.750
 9452POPC   C3A77513  12.826  43.109   7.050
 9452POPC   C4A77514  12.814  43.152   7.350
 9452POPC   C1B77515  13.057  42.961   6.450
 9452POPC   C2B77516  13.026  43.032   6.750
 9452POPC   C3B77517  13.053  43.034   7.050
 9452POPC   C4B77518  13.072  42.988   7.350
 9453POPC   NC377519   0.478  17.523   5.550
 9453POPC   PO477520   0.395  17.480   5.850
 9453POPC   GL177521   0.461  17.497   6.150
 9453POPC   GL277522   0.402  17.676   6.150
 9453POPC   C1A77523   0.399  17.490   6.450
 9453POPC   D2A77524   0.439  17.540   6.750
 9453POPC   C3A77525   0.487  17.471   7.050
 9453POPC   C4A77526   0.451  17.536   7.350
 9453POPC   C1B77527   0.360  17.723   6.450
 9453POPC   C2B77528   0.355  17.779   6.750
 9453POPC   C3B77529   0.412  17.786   7.050
 9453POPC   C4B77530   0.337  17.793   7.350
 9454POPC   NC377531  23.692  42.367   5.550
 9454POPC   PO477532  23.730  42.362   5.850
 9454POPC   GL177533  23.711  42.359   6.150
 9454POPC   GL277534  23.544  42.270   6.150
 9454POPC   C1A77535  23.743  42.360   6.450
 9454POPC   D2A77536  23.732  42.321   6.750
 9454POPC   C3A77537  23.702  42.326   7.050
 9454POPC   C4A77538  23.704  42.337   7.350
 9454POPC   C1B77539  23.432  42.331   6.450
 9454POPC   C2B77540  23.481  42.296   6.750
 9454POPC   C3B77541  23.445  42.265   7.050
 9454POPC   C4B77542  23.464  42.301   7.350
 9455POPC   NC377543  22.958  23.675   5.550
 9455POPC   PO477544  22.980  23.705   5.850
 9455POPC   GL177545  22.901  23.712   6.150
 9455POPC   GL277546  22.918  23.805   6.150
 9455POPC   C1A77547  22.937  23.730   6.450
 9455POPC   D2A77548  22.954  23.715   6.750
 9455POPC   C3A77549  22.933  23.686   7.050
 9455POPC   C4A77550  22.979  23.737   7.350
 9455POPC   C1B77551  22.793  23.941   6.450
 9455POPC   C2B77552  22.777  23.954   6.750
 9455POPC   C3B77553  22.832  23.983   7.050
 9455POPC   C4B77554  22.863  23.966   7.350
 9456POPC   NC377555   8.961  26.836   5.550
 9456POPC   PO477556   9.019  26.779   5.850
 9456POPC   GL177557   8.959  26.814   6.150
 9456POPC   GL277558   9.011  26.990   6.150
 9456POPC   C1A77559   8.927  26.840   6.450
 9456POPC   D2A77560   8.927  26.769   6.750
 9456POPC   C3A77561   9.008  26.854   7.050
 9456POPC   C4A77562   8.932  26.856   7.350
 9456POPC   C1B77563   8.951  27.053   6.450
 9456POPC   C2B77564   8.920  27.112   6.750
 9456POPC   C3B77565   8.921  27.083   7.050
 9456POPC   C4B77566   8.941  27.072   7.350
 9457POPC   NC377567  36.894  40.801   5.550
 9457POPC   PO477568  36.863  40.764   5.850
 9457POPC   GL177569  36.944  40.826   6.150
 9457POPC   GL277570  36.833  40.854   6.150
 9457POPC   C1A77571  36.939  40.782   6.450
 9457POPC   D2A77572  36.859  40.770   6.750
 9457POPC   C3A77573  36.859  40.754   7.050
 9457POPC   C4A77574  36.903  40.800   7.350
 9457POPC   C1B77575  36.744  41.001   6.450
 9457POPC   C2B77576  36.768  40.948   6.750
 9457POPC   C3B77577  36.742  41.034   7.050
 9457POPC   C4B77578  36.802  40.992   7.350
 9458POPC   NC377579   4.310   9.763   5.550
 9458POPC   PO477580   4.289   9.790   5.850
 9458POPC   GL177581   4.286   9.737   6.150
 9458POPC   GL277582   4.245   9.835   6.150
 9458POPC   C1A77583   4.350   9.749   6.450
 9458POPC   D2A77584   4.316   9.706   6.750
 9458POPC   C3A77585   4.336   9.732   7.050
 9458POPC   C4A77586   4.367   9.781   7.350
 9458POPC   C1B77587   4.168   9.885   6.450
 9458POPC   C2B77588   4.164   9.905   6.750
 9458POPC   C3B77589   4.104   9.932   7.050
 9458POPC   C4B77590   4.126   9.948   7.350
 9459POPC   NC377591  42.376   6.633   5.550
 9459POPC   PO477592  42.367   6.602   5.850
 9459POPC   GL177593  42.289   6.672   6.150
 9459POPC   GL277594  42.162   6.617   6.150
 9459POPC   C1A77595  42.380   6.639   6.450
 9459POPC   D2A77596  42.339   6.689   6.750
 9459POPC   C3A77597  42.354   6.680   7.050
 9459POPC   C4A77598  42.341   6.645   7.350
 9459POPC   C1B77599  42.118   6.611   6.450
 9459POPC   C2B77600  42.126   6.633   6.750
 9459POPC   C3B77601  42.039   6.607   7.050
 9459POPC   C4B77602  42.040   6.607   7.350
 9460POPC   NC377603  11.330  26.836   5.550
 9460POPC   PO477604  11.260  26.844   5.850
 9460POPC   GL177605  11.268  26.839   6.150
 9460POPC   GL277606  11.312  26.982   6.150
 9460POPC   C1A77607  11.347  26.846   6.450
 9460POPC   D2A77608  11.333  26.823   6.750
 9460POPC   C3A77609  11.257  26.839   7.050
 9460POPC   C4A77610  11.346  26.854   7.350
 9460POPC   C1B77611  11.367  27.073   6.450
 9460POPC   C2B77612  11.411  27.003   6.750
 9460POPC   C3B77613  11.363  27.056   7.050
 9460POPC   C4B77614  11.384  27.051   7.350
 9461POPC   NC377615  22.915  36.155   5.550
 9461POPC   PO477616  22.964  36.131   5.850
 9461POPC   GL177617  22.987  36.160   6.150
 9461POPC   GL277618  22.862  36.112   6.150
 9461POPC   C1A77619  22.929  36.090   6.450
 9461POPC   D2A77620  22.928  36.110   6.750
 9461POPC   C3A77621  22.894  36.105   7.050
 9461POPC   C4A77622  22.966  36.121   7.350
 9461POPC   C1B77623  22.711  36.027   6.450
 9461POPC   C2B77624  22.734  36.014   6.750
 9461POPC   C3B77625  22.695  35.988   7.050
 9461POPC   C4B77626  22.688  36.048   7.350
 9462POPC   NC377627  44.702  17.469   5.550
 9462POPC   PO477628  44.699  17.554   5.850
 9462POPC   GL177629  44.691  17.513   6.150
 9462POPC   GL277630  44.564  17.606   6.150
 9462POPC   C1A77631  44.700  17.498   6.450
 9462POPC   D2A77632  44.662  17.506   6.750
 9462POPC   C3A77633  44.676  17.506   7.050
 9462POPC   C4A77634  44.672  17.457   7.350
 9462POPC   C1B77635  44.411  17.662   6.450
 9462POPC   C2B77636  44.402  17.631   6.750
 9462POPC   C3B77637  44.440  17.585   7.050
 9462POPC   C4B77638  44.412  17.625   7.350
 9463POPC   NC377639  17.533  37.636   5.550
 9463POPC   PO477640  17.474  37.710   5.850
 9463POPC   GL177641  17.479  37.697   6.150
 9463POPC   GL277642  17.589  37.625   6.150
 9463POPC   C1A77643  17.500  37.716   6.450
 9463POPC   D2A77644  17.503  37.641   6.750
 9463POPC   C3A77645  17.474  37.635   7.050
 9463POPC   C4A77646  17.506  37.650   7.350
 9463POPC   C1B77647  17.754  37.538   6.450
 9463POPC   C2B77648  17.768  37.579   6.750
 9463POPC   C3B77649  17.723  37.538   7.050
 9463POPC   C4B77650  17.677  37.577   7.350
 9464POPC   NC377651  22.949   3.559   5.550
 9464POPC   PO477652  22.898   3.529   5.850
 9464POPC   GL177653  22.974   3.585   6.150
 9464POPC   GL277654  23.014   3.455   6.150
 9464POPC   C1A77655  22.899   3.541   6.450
 9464POPC   D2A77656  22.938   3.498   6.750
 9464POPC   C3A77657  22.933   3.533   7.050
 9464POPC   C4A77658  22.931   3.566   7.350
 9464POPC   C1B77659  23.052   3.295   6.450
 9464POPC   C2B77660  23.037   3.353   6.750
 9464POPC   C3B77661  23.061   3.350   7.050
 9464POPC   C4B77662  23.016   3.343   7.350
 9465POPC   NC377663  33.029  22.196   5.550
 9465POPC   PO477664  33.072  22.164   5.850
 9465POPC   GL177665  32.984  22.147   6.150
 9465POPC   GL277666  33.082  22.102   6.150
 9465POPC   C1A77667  32.998  22.142   6.450
 9465POPC   D2A77668  33.066  22.156   6.750
 9465POPC   C3A77669  33.068  22.123   7.050
 9465POPC   C4A77670  32.982  22.121   7.350
 9465POPC   C1B77671  33.245  21.952   6.450
 9465POPC   C2B77672  33.233  21.974   6.750
 9465POPC   C3B77673  33.164  21.967   7.050
 9465POPC   C4B77674  33.158  22.005   7.350
 9466POPC   NC377675  15.157  25.264   5.550
 9466POPC   PO477676  15.181  25.292   5.850
 9466POPC   GL177677  15.224  25.283   6.150
 9466POPC   GL277678  15.145  25.096   6.150
 9466POPC   C1A77679  15.138  25.267   6.450
 9466POPC   D2A77680  15.213  25.223   6.750
 9466POPC   C3A77681  15.143  25.251   7.050
 9466POPC   C4A77682  15.215  25.255   7.350
 9466POPC   C1B77683  15.175  25.018   6.450
 9466POPC   C2B77684  15.157  24.981   6.750
 9466POPC   C3B77685  15.200  25.000   7.050
 9466POPC   C4B77686  15.142  25.060   7.350
 9467POPC   NC377687  22.893   4.304   5.550
 9467POPC   PO477688  22.979   4.330   5.850
 9467POPC   GL177689  22.911   4.362   6.150
 9467POPC   GL277690  22.958   4.485   6.150
 9467POPC   C1A77691  22.971   4.335   6.450
 9467POPC   D2A77692  22.908   4.345   6.750
 9467POPC   C3A77693  22.918   4.321   7.050
 9467POPC   C4A77694  22.930   4.306   7.350
 9467POPC   C1B77695  22.968   4.614   6.450
 9467POPC   C2B77696  22.976   4.602   6.750
 9467POPC   C3B77697  22.962   4.542   7.050
 9467POPC   C4B77698  22.969   4.612   7.350
 9468POPC   NC377699   9.774   2.724   5.550
 9468POPC   PO477700   9.722   2.787   5.850
 9468POPC   GL177701   9.708   2.719   6.150
 9468POPC   GL277702   9.810   2.921   6.150
 9468POPC   C1A77703   9.717   2.743   6.450
 9468POPC   D2A77704   9.786   2.800   6.750
 9468POPC   C3A77705   9.769   2.809   7.050
 9468POPC   C4A77706   9.797   2.793   7.350
 9468POPC   C1B77707   9.804   3.004   6.450
 9468POPC   C2B77708   9.775   2.999   6.750
 9468POPC   C3B77709   9.749   3.005   7.050
 9468POPC   C4B77710   9.747   2.996   7.350
 9469POPC   NC377711   5.828   5.905   5.550
 9469POPC   PO477712   5.895   5.864   5.850
 9469POPC   GL177713   5.829   5.905   6.150
 9469POPC   GL277714   5.958   5.843   6.150
 9469POPC   C1A77715   5.902   5.867   6.450
 9469POPC   D2A77716   5.821   5.879   6.750
 9469POPC   C3A77717   5.853   5.857   7.050
 9469POPC   C4A77718   5.868   5.915   7.350
 9469POPC   C1B77719   6.090   5.801   6.450
 9469POPC   C2B77720   6.119   5.806   6.750
 9469POPC   C3B77721   6.111   5.729   7.050
 9469POPC   C4B77722   6.126   5.794   7.350
 9470POPC   NC377723   0.391  36.121   5.550
 9470POPC   PO477724   0.393  36.172   5.850
 9470POPC   GL177725   0.418  36.173   6.150
 9470POPC   GL277726   0.510  36.254   6.150
 9470POPC   C1A77727   0.412  36.172   6.450
 9470POPC   D2A77728   0.454  36.130   6.750
 9470POPC   C3A77729   0.464  36.132   7.050
 9470POPC   C4A77730   0.394  36.143   7.350
 9470POPC   C1B77731   0.605  36.360   6.450
 9470POPC   C2B77732   0.623  36.355   6.750
 9470POPC   C3B77733   0.629  36.277   7.050
 9470POPC   C4B77734   0.585  36.290   7.350
 9471POPC   NC377735  14.425  41.547   5.550
 9471POPC   PO477736  14.447  41.553   5.850
 9471POPC   GL177737  14.373  41.512   6.150
 9471POPC   GL277738  14.244  41.471   6.150
 9471POPC   C1A77739  14.355  41.528   6.450
 9471POPC   D2A77740  14.405  41.583   6.750
 9471POPC   C3A77741  14.438  41.530   7.050
 9471POPC   C4A77742  14.367  41.568   7.350
 9471POPC   C1B77743  14.221  41.429   6.450
 9471POPC   C2B77744  14.176  41.446   6.750
 9471POPC   C3B77745  14.194  41.439   7.050
 9471POPC   C4B77746  14.132  41.410   7.350
 9472POPC   NC377747  25.223  14.412   5.550
 9472POPC   PO477748  25.298  14.412   5.850
 9472POPC   GL177749  25.273  14.403   6.150
 9472POPC   GL277750  25.226  14.472   6.150
 9472POPC   C1A77751  25.256  14.375   6.450
 9472POPC   D2A77752  25.254  14.393   6.750
 9472POPC   C3A77753  25.311  14.439   7.050
 9472POPC   C4A77754  25.295  14.378   7.350
 9472POPC   C1B77755  25.175  14.653   6.450
 9472POPC   C2B77756  25.189  14.578   6.750
 9472POPC   C3B77757  25.117  14.660   7.050
 9472POPC   C4B77758  25.150  14.579   7.350
 9473POPC   NC377759  23.746  24.483   5.550
 9473POPC   PO477760  23.675  24.464   5.850
 9473POPC   GL177761  23.720  24.478   6.150
 9473POPC   GL277762  23.641  24.609   6.150
 9473POPC   C1A77763  23.710  24.476   6.450
 9473POPC   D2A77764  23.668  24.472   6.750
 9473POPC   C3A77765  23.722  24.451   7.050
 9473POPC   C4A77766  23.701  24.460   7.350
 9473POPC   C1B77767  23.591  24.680   6.450
 9473POPC   C2B77768  23.586  24.666   6.750
 9473POPC   C3B77769  23.541  24.670   7.050
 9473POPC   C4B77770  23.504  24.684   7.350
 9474POPC   NC377771  12.118   4.331   5.550
 9474POPC   PO477772  12.035   4.349   5.850
 9474POPC   GL177773  12.125   4.358   6.150
 9474POPC   GL277774  12.143   4.445   6.150
 9474POPC   C1A77775  12.073   4.297   6.450
 9474POPC   D2A77776  12.090   4.325   6.750
 9474POPC   C3A77777  12.045   4.296   7.050
 9474POPC   C4A77778  12.095   4.348   7.350
 9474POPC   C1B77779  12.149   4.533   6.450
 9474POPC   C2B77780  12.142   4.586   6.750
 9474POPC   C3B77781  12.154   4.505   7.050
 9474POPC   C4B77782  12.150   4.563   7.350
 9475POPC   NC377783  37.633  20.616   5.550
 9475POPC   PO477784  37.709  20.624   5.850
 9475POPC   GL177785  37.682  20.564   6.150
 9475POPC   GL277786  37.687  20.442   6.150
 9475POPC   C1A77787  37.635  20.602   6.450
 9475POPC   D2A77788  37.636  20.660   6.750
 9475POPC   C3A77789  37.631  20.608   7.050
 9475POPC   C4A77790  37.713  20.621   7.350
 9475POPC   C1B77791  37.704  20.378   6.450
 9475POPC   C2B77792  37.689  20.335   6.750
 9475POPC   C3B77793  37.680  20.370   7.050
 9475POPC   C4B77794  37.698  20.383   7.350
 9476POPC   NC377795   4.296  41.519   5.550
 9476POPC   PO477796   4.314  41.512   5.850
 9476POPC   GL177797   4.313  41.554   6.150
 9476POPC   GL277798   4.178  41.511   6.150
 9476POPC   C1A77799   4.351  41.520   6.450
 9476POPC   D2A77800   4.342  41.544   6.750
 9476POPC   C3A77801   4.290  41.594   7.050
 9476POPC   C4A77802   4.276  41.570   7.350
 9476POPC   C1B77803   4.132  41.388   6.450
 9476POPC   C2B77804   4.148  41.413   6.750
 9476POPC   C3B77805   4.117  41.387   7.050
 9476POPC   C4B77806   4.151  41.374   7.350
 9477POPC   NC377807  27.562  17.541   5.550
 9477POPC   PO477808  27.557  17.508   5.850
 9477POPC   GL177809  27.590  17.476   6.150
 9477POPC   GL277810  27.534  17.407   6.150
 9477POPC   C1A77811  27.578  17.480   6.450
 9477POPC   D2A77812  27.580  17.501   6.750
 9477POPC   C3A77813  27.610  17.479   7.050
 9477POPC   C4A77814  27.547  17.544   7.350
 9477POPC   C1B77815  27.362  17.404   6.450
 9477POPC   C2B77816  27.353  17.387   6.750
 9477POPC   C3B77817  27.344  17.345   7.050
 9477POPC   C4B77818  27.360  17.405   7.350
 9478POPC   NC377819  33.068  31.438   5.550
 9478POPC   PO477820  33.063  31.510   5.850
 9478POPC   GL177821  33.025  31.509   6.150
 9478POPC   GL277822  33.022  31.343   6.150
 9478POPC   C1A77823  32.994  31.463   6.450
 9478POPC   D2A77824  32.999  31.508   6.750
 9478POPC   C3A77825  33.019  31.475   7.050
 9478POPC   C4A77826  33.030  31.451   7.350
 9478POPC   C1B77827  32.927  31.246   6.450
 9478POPC   C2B77828  32.909  31.235   6.750
 9478POPC   C3B77829  32.980  31.250   7.050
 9478POPC   C4B77830  32.950  31.216   7.350
 9479POPC   NC377831  10.534  35.309   5.550
 9479POPC   PO477832  10.552  35.364   5.850
 9479POPC   GL177833  10.503  35.387   6.150
 9479POPC   GL277834  10.450  35.283   6.150
 9479POPC   C1A77835  10.484  35.345   6.450
 9479POPC   D2A77836  10.528  35.333   6.750
 9479POPC   C3A77837  10.482  35.315   7.050
 9479POPC   C4A77838  10.566  35.331   7.350
 9479POPC   C1B77839  10.385  35.093   6.450
 9479POPC   C2B77840  10.431  35.183   6.750
 9479POPC   C3B77841  10.402  35.186   7.050
 9479POPC   C4B77842  10.447  35.125   7.350
 9480POPC   NC377843  35.315  31.443   5.550
 9480POPC   PO477844  35.319  31.503   5.850
 9480POPC   GL177845  35.310  31.480   6.150
 9480POPC   GL277846  35.399  31.629   6.150
 9480POPC   C1A77847  35.398  31.509   6.450
 9480POPC   D2A77848  35.374  31.437   6.750
 9480POPC   C3A77849  35.323  31.489   7.050
 9480POPC   C4A77850  35.381  31.425   7.350
 9480POPC   C1B77851  35.479  31.725   6.450
 9480POPC   C2B77852  35.486  31.667   6.750
 9480POPC   C3B77853  35.439  31.715   7.050
 9480POPC   C4B77854  35.458  31.731   7.350
 9481POPC   NC377855   0.409   5.069   5.550
 9481POPC   PO477856   0.427   5.128   5.850
 9481POPC   GL177857   0.411   5.135   6.150
 9481POPC   GL277858   0.322   5.175   6.150
 9481POPC   C1A77859   0.389   5.097   6.450
 9481POPC   D2A77860   0.457   5.107   6.750
 9481POPC   C3A77861   0.473   5.111   7.050
 9481POPC   C4A77862   0.474   5.115   7.350
 9481POPC   C1B77863   0.290   5.273   6.450
 9481POPC   C2B77864   0.297   5.214   6.750
 9481POPC   C3B77865   0.281   5.227   7.050
 9481POPC   C4B77866   0.267   5.294   7.350
 9482POPC   NC377867  12.890  18.263   5.550
 9482POPC   PO477868  12.878  18.285   5.850
 9482POPC   GL177869  12.807  18.315   6.150
 9482POPC   GL277870  12.703  18.258   6.150
 9482POPC   C1A77871  12.876  18.252   6.450
 9482POPC   D2A77872  12.872  18.236   6.750
 9482POPC   C3A77873  12.866  18.288   7.050
 9482POPC   C4A77874  12.894  18.300   7.350
 9482POPC   C1B77875  12.570  18.259   6.450
 9482POPC   C2B77876  12.574  18.285   6.750
 9482POPC   C3B77877  12.606  18.310   7.050
 9482POPC   C4B77878  12.599  18.303   7.350
 9483POPC   NC377879  42.340  37.643   5.550
 9483POPC   PO477880  42.381  37.727   5.850
 9483POPC   GL177881  42.317  37.677   6.150
 9483POPC   GL277882  42.331  37.520   6.150
 9483POPC   C1A77883  42.366  37.674   6.450
 9483POPC   D2A77884  42.292  37.656   6.750
 9483POPC   C3A77885  42.311  37.665   7.050
 9483POPC   C4A77886  42.295  37.696   7.350
 9483POPC   C1B77887  42.239  37.484   6.450
 9483POPC   C2B77888  42.206  37.485   6.750
 9483POPC   C3B77889  42.291  37.466   7.050
 9483POPC   C4B77890  42.252  37.416   7.350
 9484POPC   NC377891  40.790  19.852   5.550
 9484POPC   PO477892  40.792  19.845   5.850
 9484POPC   GL177893  40.804  19.824   6.150
 9484POPC   GL277894  40.763  19.968   6.150
 9484POPC   C1A77895  40.764  19.873   6.450
 9484POPC   D2A77896  40.818  19.844   6.750
 9484POPC   C3A77897  40.777  19.857   7.050
 9484POPC   C4A77898  40.799  19.875   7.350
 9484POPC   C1B77899  40.879  20.045   6.450
 9484POPC   C2B77900  40.830  20.060   6.750
 9484POPC   C3B77901  40.789  20.081   7.050
 9484POPC   C4B77902  40.812  20.090   7.350
 9485W        W77903  35.987  43.407  12.018
 9486W        W77904  29.435  32.021  12.015
 9487W        W77905  20.546  43.380   1.781
 9488W        W77906   7.390  25.990  14.995
 9489W        W77907  32.938  31.581   4.834
 9490W        W77908  39.328  39.855   1.230
 9491W        W77909  21.212  35.561  14.913
 9492W        W77910  31.589   9.800  12.339
 9493W        W77911  36.485   1.387   0.289
 9494W        W77912  27.058  40.525  13.357
 9495W        W77913  29.585  26.549   0.748
 9496W        W77914   8.230   1.933  10.492
 9497W        W77915  43.883  38.410  13.324
 9498W        W77916   9.164  25.036   0.771
 9499W        W77917  15.195  33.937   3.683
 9500W        W77918  31.595  30.100  14.511
 9501W        W77919  28.111   7.835  12.563
 9502W        W77920  37.851  24.004  11.058
 9503W        W77921  29.035  17.614   0.774
 9504W        W77922  15.250  32.392   4.209
 9505W        W77923  24.595  14.204   3.323
 9506W        W77924  27.449   8.314  13.467
 9507W        W77925  32.969   5.877  11.082
 9508W        W77926  25.603  31.063   4.138
 9509W        W77927  15.322  23.714  10.589
 9510W        W77928  26.549  17.154  10.414
 9511W        W77929  21.056  37.424   4.729
 9512W        W77930   4.410  40.309   3.809
 9513W        W77931   2.834  22.053  14.515
 9514W        W77932  25.083  29.063  12.986
 9515W        W77933   9.189   6.883   3.358
 9516W        W77934   2.747  34.096  11.054
 9517W        W77935  16.233  13.826  13.044
 9518W        W77936  15.711  25.555  11.560
 9519W        W77937   1.931  36.946   1.901
 9520W        W77938  41.375   3.873   0.918
 9521W        W77939  26.587   8.339  14.408
 9522W        W77940  40.399  21.034  12.492
 9523W        W77941  12.823  10.860  12.483
 9524W        W77942  35.874  10.820   0.851
 9525W        W77943  15.661  24.022  10.615
 9526W        W77944  27.074  38.944   4.347
 9527W        W77945  30.059  33.076   0.397
 9528W        W77946  18.669  14.630  14.282
 9529W        W77947  32.635  30.082   4.199
 9530W        W77948  32.066   6.193   0.339
 9531W        W77949  13.695   8.812  10.976
 9532W        W77950  25.046  39.973  12.475
 9533W        W77951   6.754  11.712   1.264
 9534W        W77952   6.691  33.516  12.412
 9535W        W77953  27.620  20.251  10.981
 9536W        W77954  16.175  40.403   3.675
 9537W        W77955  15.643  39.947   3.210
 9538W        W77956   8.312  14.284  14.799
 9539W        W77957  24.992  36.063   1.343
 9540W        W77958  30.430   9.341   2.417
 9541W        W77959   5.713  25.217   2.731
 9542W        W77960  40.830   2.455   2.419
 9543W        W77961  32.956  41.456  10.454
 9544W        W77962  41.860  19.098  12.867
 9545W        W77963  18.241  13.238  14.995
 9546W        W77964   3.444  19.677   2.809
 9547W        W77965   6.262  22.612   4.220
 9548W        W77966  19.170  13.661  14.464
 9549W        W77967  18.181  36.071   1.883
 9550W        W77968  22.142  23.113   1.759
 9551W        W77969  38.492   3.949  10.603
 9552W        W77970   0.267   1.746   0.921
 9553W        W77971  42.883  23.665  14.358
 9554W        W77972  31.068  22.706   4.820
 9555W        W77973  18.136   5.268  14.970
 9556W        W77974  43.270  24.586   4.224
 9557W        W77975  13.733   8.752   0.802
 9558W        W77976   9.228   6.322  10.026
 9559W        W77977   6.375  28.970   4.599
 9560W        W77978   4.366  33.885   2.786
 9561W        W77979  17.207  22.130  14.359
 9562W        W77980  28.042   3.868  14.935
 9563W        W77981  13.695  14.311   4.267
 9564W        W77982  37.548  23.681   1.882
 9565W        W77983  10.285  39.911  12.434
 9566W        W77984  37.376  14.319   4.763
 9567W        W77985   6.395  27.633   1.871
 9568W        W77986   6.227   4.223   4.322
 9569W        W77987   3.391  42.486   3.852
 9570W        W77988  24.663  13.746   2.184
 9571W        W77989  11.668  22.577  14.381
 9572W        W77990  16.585   7.234  13.941
 9573W        W77991  24.511  17.161   1.291
 9574W        W77992  42.310   6.912   0.248
 9575W        W77993   0.965  26.673   1.426
 9576W        W77994  16.128  29.148   0.320
 9577W        W77995  31.474  38.570   3.358
 9578W        W77996  18.674  43.796  12.033
 9579W        W77997  43.945  32.933   3.657
 9580W        W77998  27.544  34.529  13.835
 9581W        W77999  10.175  25.110  10.552
 9582W        W78000  25.003  11.766  10.552
 9583W        W78001  24.028  27.527   4.742
 9584W        W78002  27.686  32.551  10.912
 9585W        W78003  29.061   1.272   3.832
 9586W        W78004   3.393   6.183  10.551
 9587W        W78005  39.004  32.068   3.665
 9588W        W78006  20.196  38.438  14.758
 9589W        W78007   2.319   6.316  14.954
 9590W        W78008  18.235  14.239  13.367
 9591W        W78009  16.799  13.726  12.882
 9592W        W78010  43.934  34.560   2.742
 9593W        W78011  14.221  14.651   2.777
 9594W        W78012  43.771  31.441  11.026
 9595W        W78013   7.905  42.943  10.528
 9596W        W78014  26.082   1.292  13.871
 9597W        W78015   1.969  18.103   0.862
 9598W        W78016  12.627  13.290  12.984
 9599W        W78017   4.814  41.875  10.425
 9600W        W78018  21.693  38.873  12.824
 9601W        W78019  43.782  32.509  11.565
 9602W        W78020   4.801  19.631   4.179
 9603W        W78021  39.878   5.272   1.738
 9604W        W78022  31.151  44.473  11.084
 9605W        W78023  38.047   7.198  10.632
 9606W        W78024   6.767  20.160  12.434
 9607W        W78025   8.368  30.034   2.276
 9608W        W78026  42.833  13.245   5.175
 9609W        W78027  26.993  31.496   0.318
 9610W        W78028  44.775  11.641  13.819
 9611W        W78029  41.938  41.506   3.651
 9612W        W78030  25.668  18.161  14.942
 9613W        W78031  21.029  43.280  14.472
 9614W        W78032   3.239   5.877  13.896
 9615W        W78033   7.693  13.201   5.204
 9616W        W78034  33.409   3.398   9.926
 9617W        W78035  29.001  17.785  11.931
 9618W        W78036   3.711  30.035  12.823
 9619W        W78037  42.811   4.268  13.368
 9620W        W78038  27.103  21.628  10.974
 9621W        W78039  15.256  38.055  10.543
 9622W        W78040  34.459  11.767   3.202
 9623W        W78041  14.826  27.980  14.388
 9624W        W78042   0.453  31.028   1.265
 9625W        W78043  41.387  27.479   3.718
 9626W        W78044  37.353   6.744   2.321
 9627W        W78045  27.038  43.764   1.336
 9628W        W78046  34.397  40.908   3.352
 9629W        W78047  26.620   7.334   1.319
 9630W        W78048  21.546  27.499   4.149
 9631W        W78049   2.363  16.294  11.052
 9632W        W78050  44.298   3.819   4.692
 9633W        W78051  16.125  26.692  14.805
 9634W        W78052  14.144  33.919   1.269
 9635W        W78053  25.542   1.861   1.286
 9636W        W78054  29.153  43.817   2.355
 9637W        W78055  30.591   6.420  14.970
 9638W        W78056  38.033   0.281  10.537
 9639W        W78057  37.944  20.738  12.478
 9640W        W78058  23.006   8.287   0.341
 9641W        W78059  38.446   4.426   0.339
 9642W        W78060  40.490  29.920  10.493
 9643W        W78061  21.592  38.934   5.233
 9644W        W78062   1.738   2.760  10.892
 9645W        W78063  28.539  31.632   2.303
 9646W        W78064  23.608  24.138  12.477
 9647W        W78065  16.792   9.832  14.389
 9648W        W78066  20.551  31.086   1.831
 9649W        W78067  32.633  17.751  11.599
 9650W        W78068   2.895  17.288   0.477
 9651W        W78069  34.880  25.998   3.250
 9652W        W78070  35.031  22.157   4.608
 9653W        W78071  23.611   4.761   0.261
 9654W        W78072   1.855  44.904  11.443
 9655W        W78073  17.301   9.275   3.204
 9656W        W78074  22.636  35.538  11.101
 9657W        W78075  28.137  44.329   5.303
 9658W        W78076   4.340  24.540  13.040
 9659W        W78077  11.252  18.647   2.222
 9660W        W78078   8.202  34.919  14.296
 9661W        W78079   6.375  20.187  14.888
 9662W        W78080  33.578   9.315  14.321
 9663W        W78081  27.008   7.316  14.437
 9664W        W78082   5.282  11.630  10.104
 9665W        W78083  25.215  43.300  12.939
 9666W        W78084  18.276   8.190   3.319
 9667W        W78085   5.405  17.646  11.413
 9668W        W78086  25.633  28.623   3.727
 9669W        W78087  34.976   1.868  14.992
 9670W        W78088  35.956  17.150  10.907
 9671W        W78089  43.921  21.073   5.618
 9672W        W78090  38.874  17.136   0.360
 9673W        W78091  28.475  33.509   0.795
 9674W        W78092  18.104  29.434  11.879
 9675W        W78093  30.536  22.193   3.168
 9676W        W78094  11.282  16.280   0.445
 9677W        W78095  31.420   9.750  11.038
 9678W        W78096  35.037  13.820   1.919
 9679W        W78097   2.921  39.017   0.422
 9680W        W78098   4.711  29.983   2.662
 9681W        W78099  40.360  13.135  12.946
 9682W        W78100  22.676  13.686   4.694
 9683W        W78101  16.738  23.174   1.331
 9684W        W78102  14.748  16.664  14.289
 9685W        W78103  44.428  43.980   3.325
 9686W        W78104  40.348  22.127   3.703
 9687W        W78105  32.055  26.017   1.803
 9688W        W78106  43.963  37.021  14.996
 9689W        W78107  33.468  33.513  13.929
 9690W        W78108   2.818   6.718  14.284
 9691W        W78109  37.573  20.720   4.234
 9692W        W78110  28.980  19.134  12.858
 9693W        W78111  23.501  38.948   5.110
 9694W        W78112  36.886  41.518  11.563
 9695W        W78113  29.556  33.458   3.275
 9696W        W78114  15.317   8.325   4.629
 9697W        W78115  41.408  32.043   3.804
 9698W        W78116  41.794  33.908   1.324
 9699W        W78117  25.680   8.817   3.367
 9700W        W78118   2.831  13.671   0.432
 9701W        W78119  23.216   9.261   4.837
 9702W        W78120  17.178  11.781  10.071
 9703W        W78121  38.963  33.594  11.609
 9704W        W78122  24.669  25.035  13.461
 9705W        W78123   7.686  29.026  10.939
 9706W        W78124   0.886  11.304   4.127
 9707W        W78125  37.359  40.950   4.224
 9708W        W78126  42.893   5.405  11.505
 9709W        W78127  23.092  13.705   2.358
 9710W        W78128  33.969  31.540  13.981
 9711W        W78129  22.107  38.825  12.484
 9712W        W78130  38.929  25.616  13.924
 9713W        W78131   3.841   0.815   2.809
 9714W        W78132  39.883   3.782   3.811
 9715W        W78133  14.166  32.075   4.739
 9716W        W78134  36.459  44.778   3.229
 9717W        W78135  44.364  28.630  14.910
 9718W        W78136  12.830  36.019   4.159
 9719W        W78137  13.312   1.455  14.516
 9720W        W78138   9.187  38.947  14.494
 9721W        W78139   7.842  41.954  11.574
 9722W        W78140  26.460  10.150  12.918
 9723W        W78141  40.033  43.928   4.721
 9724W        W78142  25.681  40.816  13.808
 9725W        W78143   6.294  28.445  10.908
 9726W        W78144   4.403  44.971  11.022
 9727W        W78145  31.466  28.043  12.519
 9728W        W78146  19.673  11.221  14.501
 9729W        W78147  10.206  39.868   4.196
 9730W        W78148  10.148  37.033  13.905
 9731W        W78149  36.423  18.265   3.728
 9732W        W78150   2.227  40.814   4.136
 9733W        W78151  35.095  41.512   1.723
 9734W        W78152  10.301   8.689  13.529
 9735W        W78153  24.228   5.918  10.082
 9736W        W78154  37.025   5.911  11.048
 9737W        W78155   2.290  38.557  11.937
 9738W        W78156  15.313  38.552   3.683
 9739W        W78157   9.743  38.327   1.314
 9740W        W78158   5.417  21.207   3.216
 9741W        W78159   2.837  33.918  14.998
 9742W        W78160  31.644  28.118   3.169
 9743W        W78161   7.286   2.421  12.847
 9744W        W78162  16.719  15.234   0.933
 9745W        W78163  11.727   6.905  13.939
 9746W        W78164  12.167   5.213  11.470
 9747W        W78165   4.372  41.886   1.421
 9748W        W78166  10.370  16.072   0.949
 9749W        W78167  12.360  41.376   3.654
 9750W        W78168  13.317  26.042  10.559
 9751W        W78169  31.122  42.979  12.879
 9752W        W78170  32.486  44.877  13.004
 9753W        W78171   5.830  19.675  11.567
 9754W        W78172  27.600  20.031   3.662
 9755W        W78173  30.157  18.110   1.744
 9756W        W78174  28.541  38.410  14.030
 9757W        W78175  20.741  23.146   3.350
 9758W        W78176  35.927   3.859  14.318
 9759W        W78177  43.800  11.373  10.619
 9760W        W78178  29.571  38.508   0.377
 9761W        W78179   5.244  21.024  10.634
 9762W        W78180  35.948  33.492   2.668
 9763W        W78181  22.089  20.707  10.483
 9764W        W78182  32.616  14.791   4.272
 9765W        W78183   1.817  14.161   3.154
 9766W        W78184  43.844  15.579  11.997
 9767W        W78185   1.328  15.240  12.944
 9768W        W78186  12.637  20.527   1.887
 9769W        W78187  12.849  11.628   4.754
 9770W        W78188  23.178  18.628  10.963
 9771W        W78189  14.336  26.990   2.822
 9772W        W78190  44.897   4.870  11.995
 9773W        W78191   7.688  14.225   1.850
 9774W        W78192  34.032  17.267  13.858
 9775W        W78193  28.056  11.336  10.892
 9776W        W78194   7.731  38.337  12.904
 9777W        W78195  30.067  24.674  10.485
 9778W        W78196  30.650  43.500   0.353
 9779W        W78197   8.332   1.756  13.468
 9780W        W78198   2.760  28.080  10.570
 9781W        W78199  44.463  10.360   1.244
 9782W        W78200   9.194  32.123  14.020
 9783W        W78201  11.332  15.314   0.319
 9784W        W78202  31.989  19.631   3.698
 9785W        W78203   9.650   3.393  10.569
 9786W        W78204   7.363  32.059   4.156
 9787W        W78205  12.620  10.294  10.518
 9788W        W78206  31.572  12.124  14.863
 9789W        W78207  27.106  17.253  13.318
 9790W        W78208  27.161  24.527  14.418
 9791W        W78209  39.533  25.131   2.835
 9792W        W78210  33.398  10.828   3.764
 9793W        W78211  34.449  35.586   3.851
 9794W        W78212   8.774  38.028  12.062
 9795W        W78213  10.836  22.610  10.118
 9796W        W78214   1.348  44.419  14.914
 9797W        W78215  12.780  15.234   3.652
 9798W        W78216  40.318  26.590   2.887
 9799W        W78217  38.052  24.686  12.004
 9800W        W78218  32.416  29.937  13.356
 9801W        W78219  22.197  36.887   0.320
 9802W        W78220   7.724   0.356  10.580
 9803W        W78221  20.216  26.063  12.932
 9804W        W78222  44.903  30.969  14.869
 9805W        W78223  34.395   4.794  14.785
 9806W        W78224  28.511  42.889  12.511
 9807W        W78225  38.829  34.032  13.453
 9808W        W78226  25.478   7.183   4.756
 9809W        W78227  16.185  31.028  10.608
 9810W        W78228  10.813  18.082  10.410
 9811W        W78229   7.209   0.383   4.268
 9812W        W78230   7.298  37.407   2.670
 9813W        W78231  10.752  11.304  14.989
 9814W        W78232  26.531  13.254   1.326
 9815W        W78233   1.884  25.472   2.394
 9816W        W78234  35.986  31.024  14.802
 9817W        W78235  29.158  44.408   1.747
 9818W        W78236   0.745  42.787   2.180
 9819W        W78237  31.637  19.075   2.343
 9820W        W78238  40.974  37.062   2.282
 9821W        W78239   9.373   6.684  12.089
 9822W        W78240  31.515  16.710   4.141
 9823W        W78241  16.168   4.922   1.306
 9824W        W78242  15.270  22.582   3.353
 9825W        W78243  31.984  18.210  14.847
 9826W        W78244   9.695   6.690   1.716
 9827W        W78245  15.146   4.912  13.799
 9828W        W78246  30.440  34.904  14.854
 9829W        W78247  13.776  19.143  12.528
 9830W        W78248  32.596   3.438  12.065
 9831W        W78249   0.858  22.513  14.767
 9832W        W78250  42.443  27.611   0.853
 9833W        W78251  14.703   5.344   5.088
 9834W        W78252   9.752  28.069  10.948
 9835W        W78253  31.530  12.667  11.878
 9836W        W78254   2.725  23.224   0.427
 9837W        W78255   8.293  30.012  11.123
 9838W        W78256  15.161  44.760  11.531
 9839W        W78257  21.030  14.171   4.716
 9840W        W78258   2.822   6.897  12.350
 9841W        W78259  21.647  16.138  14.822
 9842W        W78260  32.507   5.331   1.875
 9843W        W78261  34.405  23.051   1.359
 9844W        W78262  40.815  33.047  11.106
 9845W        W78263  33.071  37.498   4.750
 9846W        W78264  25.661  20.719  11.570
 9847W        W78265  33.079  43.931   0.901
 9848W        W78266  37.910  30.990   1.724
 9849W        W78267  44.360  25.053  12.405
 9850W        W78268  43.769   1.301  10.910
 9851W        W78269  20.051   4.867   3.710
 9852W        W78270  24.091  29.547   4.343
 9853W        W78271  12.327   3.914  13.449
 9854W        W78272  43.277  23.126  11.952
 9855W        W78273   9.346  23.240  10.476
 9856W        W78274  13.215   4.704  10.582
 9857W        W78275  27.543   3.882  12.921
 9858W        W78276  41.798  11.702  11.071
 9859W        W78277  16.275  28.005   4.338
 9860W        W78278  27.984  14.218  10.952
 9861W        W78279  15.615  24.675  11.590
 9862W        W78280  18.136   2.959  12.483
 9863W        W78281  17.714  23.563  11.389
 9864W        W78282  25.712  42.348   0.298
 9865W        W78283  42.424  40.542  10.905
 9866W        W78284  15.124  43.410  13.865
 9867W        W78285   7.369  12.851   0.840
 9868W        W78286  37.577  40.965  13.836
 9869W        W78287  29.101  21.062   4.199
 9870W        W78288   7.698  32.923   0.859
 9871W        W78289   6.715  19.137   1.762
 9872W        W78290  35.571  13.192  12.435
 9873W        W78291  32.116   0.393  14.357
 9874W        W78292   8.280  20.102   3.377
 9875W        W78293  38.972  20.603  11.590
 9876W        W78294  31.132  19.162   0.369
 9877W        W78295  40.478   7.834   2.876
 9878W        W78296  43.932  16.699  11.001
 9879W        W78297  40.891  25.697  14.497
 9880W        W78298  22.055  14.807  11.594
 9881W        W78299  27.945  12.214  11.424
 9882W        W78300   1.369  30.124  13.415
 9883W        W78301  23.036  17.288   0.321
 9884W        W78302  34.468  12.816  11.373
 9885W        W78303  21.611   5.814  10.572
 9886W        W78304   4.936  20.167   0.327
 9887W        W78305   5.790   8.776   3.353
 9888W        W78306  32.130   2.917   2.392
 9889W        W78307  25.534  11.313  12.564
 9890W        W78308  42.865  17.753  13.059
 9891W        W78309  12.150  25.533  14.319
 9892W        W78310   9.738  16.659   2.184
 9893W        W78311   7.368  29.577  14.873
 9894W        W78312  18.176  38.935   3.380
 9895W        W78313   3.846  41.361  14.332
 9896W        W78314  26.668  24.010  14.786
 9897W        W78315  28.138   7.389   1.382
 9898W        W78316  43.791  18.564  14.916
 9899W        W78317  25.219  43.339   1.832
 9900W        W78318  34.943  12.781   1.264
 9901W        W78319  41.881  15.681  10.915
 9902W        W78320   2.774   7.294  14.807
 9903W        W78321  18.765  33.926  13.889
 9904W        W78322  28.979   3.773   4.756
 9905W        W78323   3.250  18.759  14.004
 9906W        W78324  44.320   6.427   3.717
 9907W        W78325   7.873   7.358  13.912
 9908W        W78326  13.719  44.389   1.413
 9909W        W78327  20.232  34.932   1.705
 9910W        W78328  15.171   3.446   3.652
 9911W        W78329  20.694  21.617   0.851
 9912W        W78330  28.661  21.724  13.373
 9913W        W78331  10.876  36.393  10.628
 9914W        W78332  44.778  27.041   0.469
 9915W        W78333  44.906  13.166   4.338
 9916W        W78334   4.374  30.131   3.295
 9917W        W78335  21.687  41.829  14.320
 9918W        W78336  12.837   0.284  10.940
 9919W        W78337   8.307  14.764  11.522
 9920W        W78338  36.862  42.018  12.932
 9921W        W78339  17.618  43.393  14.974
 9922W        W78340  13.632   0.746  13.311
 9923W        W78341  28.481  26.177   3.353
 9924W        W78342  24.152   2.340  12.073
 9925W        W78343  28.615  26.590   1.777
 9926W        W78344   1.426  29.036  14.013
 9927W        W78345   7.673   7.747   0.844
 9928W        W78346  21.246  12.735  10.477
 9929W        W78347  36.384  20.734   3.804
 9930W        W78348  38.568  31.954  12.058
 9931W        W78349  17.278  44.439   5.271
 9932W        W78350   3.929  25.154   4.186
 9933W        W78351  20.623  16.213   3.755
 9934W        W78352  35.407  31.105   1.778
 9935W        W78353  10.329  43.950  12.369
 9936W        W78354  22.179   8.684   0.879
 9937W        W78355  36.865   6.237   0.901
 9938W        W78356  29.957   1.370  10.918
 9939W        W78357  28.945  11.726  14.988
 9940W        W78358  21.525   0.918   1.250
 9941W        W78359  30.087  18.770  11.543
 9942W        W78360  11.163  20.176  13.861
 9943W        W78361  25.481  35.996   3.229
 9944W        W78362  10.320  29.498   2.848
 9945W        W78363   8.733   0.391   4.739
 9946W        W78364   3.362  35.083  13.431
 9947W        W78365  35.915  41.337  12.498
 9948W        W78366   4.760  10.161   4.674
 9949W        W78367  20.675   3.810   1.766
 9950W        W78368   5.235  30.119   2.372
 9951W        W78369  20.139  30.447  14.945
 9952W        W78370   4.338  41.389   2.373
 9953W        W78371  36.092  19.161  14.920
 9954W        W78372  38.451  19.094   0.843
 9955W        W78373  35.538  29.550  13.996
 9956W        W78374   7.198  27.129  14.311
 9957W        W78375  30.088  14.282  13.814
 9958W        W78376  31.525   1.427   1.325
 9959W        W78377  14.333  41.873  14.784
 9960W        W78378  22.520  14.264  11.103
 9961W        W78379  31.040  20.713  11.049
 9962W        W78380   0.426   4.214  13.314
 9963W        W78381  11.740  38.497  14.966
 9964W        W78382  19.239  37.992  12.893
 9965W        W78383  34.083  22.621   3.262
 9966W        W78384   8.891  29.503   2.840
 9967W        W78385  32.393  38.405   0.834
 9968W        W78386  38.532  35.492  10.472
 9969W        W78387   4.796  39.504  11.576
 9970W        W78388  30.072  26.534  10.967
 9971W        W78389  23.074  21.143  13.967
 9972W        W78390  34.444  43.861   4.705
 9973W        W78391   2.748  13.299   1.911
 9974W        W78392  15.743  41.326  13.339
 9975W        W78393  37.548   7.869   2.360
 9976W        W78394  36.963  37.978  14.982
 9977W        W78395  20.594   1.319   4.288
 9978W        W78396  11.159  24.159   0.905
 9979W        W78397  22.704   5.370  12.073
 9980W        W78398  42.990   5.881  13.337
 9981W        W78399  35.958  29.976   3.150
 9982W        W78400   2.917   9.357  14.379
 9983W        W78401  15.747  16.287  11.862
 9984W        W78402  20.656  27.047  10.986
 9985W        W78403  26.962   7.885   3.186
 9986W        W78404  34.949  14.337  12.391
 9987W        W78405  33.442  29.158   0.827
 9988W        W78406  21.197  12.121   0.469
 9989W        W78407  34.016  31.923  13.852
 9990W        W78408  28.113  42.430  14.806
 9991W        W78409  17.565  12.265  10.602
 9992W        W78410   1.908  42.904  12.947
 9993W        W78411  13.146  19.617  14.497
 9994W        W78412  40.432  29.592   0.373
 9995W        W78413  24.041   6.712   0.289
 9996W        W78414   1.387  31.552   0.459
 9997W        W78415  37.419  43.813   0.376
 9998W        W78416  28.990  22.129   2.379
 9999W        W78417  32.129   9.191   1.327
10000W        W78418  42.300  35.859   4.330
10001W        W78419  16.569  23.514  11.489
10002W        W78420  23.049  38.968  11.021
10003W        W78421   9.225   1.283  13.390
10004W        W78422  11.162  30.651  12.057
10005W        W78423  43.305  21.686  13.846
10006W        W78424   0.287  44.791   4.614
10007W        W78425  18.691  25.668   3.782
10008W        W78426  27.981   2.242   3.695
10009W        W78427  25.488  24.113  14.476
10010W        W78428  20.608  42.304  11.466
10011W        W78429  12.768  32.946   4.135
10012W        W78430   7.178  16.675   2.879
10013W        W78431  37.881  31.566   3.760
10014W        W78432  30.939  37.041   1.428
10015W        W78433  15.130  34.509  12.091
10016W        W78434  20.586  16.685   2.302
10017W        W78435  23.235  18.685  13.961
10018W        W78436  42.819   0.864  14.339
10019W        W78437   7.247  35.473  13.948
10020W        W78438  12.297  30.586   2.782
10021W        W78439  23.079  29.584   2.255
10022W        W78440  44.470  11.757   4.673
10023W        W78441  43.989  24.191  10.913
10024W        W78442  44.826   1.239  12.861
10025W        W78443  17.658  44.002  10.629
10026W        W78444  19.612  33.050   1.451
10027W        W78445  13.785   9.248   1.266
10028W        W78446  44.334  42.333   9.922
10029W        W78447  16.579  17.704   4.123
10030W        W78448  23.524  11.366   3.854
10031W        W78449  43.339  40.447   3.823
10032W        W78450  30.935  43.004   4.832
10033W        W78451  27.972  42.421  11.961
10034W        W78452  11.239  43.418  11.590
10035W        W78453  23.700  17.206   2.184
10036W        W78454   2.871  17.648   2.727
10037W        W78455   9.262  21.688  10.487
10038W        W78456  17.682  42.412   3.334
10039W        W78457  26.164  30.641  10.945
10040W        W78458  13.213   6.359   1.860
10041W        W78459   1.878   4.250   3.745
10042W        W78460   0.892   9.171   3.281
10043W        W78461  14.670  10.696  11.012
10044W        W78462  19.228  13.780   0.905
10045W        W78463  20.678  40.303   4.831
10046W        W78464   3.808  44.817   4.769
10047W        W78465  11.305  20.710  11.526
10048W        W78466  21.572  14.132  11.447
10049W        W78467   9.149  26.625   2.186
10050W        W78468  12.764  19.118  14.336
10051W        W78469  33.396  27.081   2.672
10052W        W78470  21.104  34.417   4.782
10053W        W78471   5.297  15.808   0.277
10054W        W78472   5.335   2.942  14.377
10055W        W78473  29.613  23.515  12.462
10056W        W78474  38.875  20.191  13.926
10057W        W78475   6.248  26.497  12.959
10058W        W78476  10.292  17.598  11.908
10059W        W78477   3.827   1.847   2.667
10060W        W78478  32.105  25.096   4.350
10061W        W78479  28.535  26.181   2.219
10062W        W78480  26.500  11.854  12.925
10063W        W78481  24.052  34.592   1.873
10064W        W78482  15.814  34.481  14.925
10065W        W78483  43.331  31.067  11.587
10066W        W78484  15.251  23.207  13.310
10067W        W78485  18.652  29.530  11.399
10068W        W78486  36.382  21.559  12.904
10069W        W78487  22.066  41.906   3.330
10070W        W78488  30.066   4.396   2.791
10071W        W78489   4.744  19.050  12.088
10072W        W78490  20.247  43.867   0.826
10073W        W78491   4.366  14.185  12.462
10074W        W78492   0.394  20.709   2.377
10075W        W78493  21.207  27.136   3.736
10076W        W78494  26.485  18.198  10.470
10077W        W78495  12.668  22.136  13.320
10078W        W78496   4.745   3.779  11.430
10079W        W78497  37.504  26.021   0.444
10080W        W78498  29.479  13.195   2.711
10081W        W78499  16.233  37.908  14.439
10082W        W78500   5.247  29.622   4.739
10083W        W78501  31.557  22.733  14.341
10084W        W78502  12.210  11.791  13.426
10085W        W78503   1.475  44.945  10.940
10086W        W78504  41.443   1.407  13.019
10087W        W78505  39.019  10.632  14.282
10088W        W78506  28.048  25.043   2.824
10089W        W78507  17.107  20.657  13.952
10090W        W78508  28.164  24.590   0.907
10091W        W78509  26.999   9.886  13.389
10092W        W78510  39.450  42.324   4.827
10093W        W78511  31.439   5.259   2.390
10094W        W78512   5.233   7.792  11.115
10095W        W78513  25.547   4.898  12.514
10096W        W78514  33.560  18.083   4.258
10097W        W78515  27.036  14.202   4.619
10098W        W78516  41.823  43.925   2.665
10099W        W78517  40.823  22.587   4.730
10100W        W78518  31.561  25.004  11.581
10101W        W78519  17.712  18.586  10.449
10102W        W78520   6.296  30.950   3.180
10103W        W78521  29.448  32.978   4.180
10104W        W78522  11.628  11.332   3.181
10105W        W78523  40.506  30.603   3.313
10106W        W78524  28.666  37.490   1.291
10107W        W78525  34.423  11.706  12.869
10108W        W78526  10.197  20.584   0.466
10109W        W78527  19.725  15.219  10.497
10110W        W78528  32.592  28.547   3.148
10111W        W78529  21.638  24.622   4.330
10112W        W78530  43.463  41.473  10.622
10113W        W78531  40.929  17.606  10.546
10114W        W78532  13.737  17.290  11.009
10115W        W78533  36.878  20.631  14.914
10116W        W78534  26.487  10.316   0.325
10117W        W78535  35.087   3.242  10.054
10118W        W78536  42.826   6.827  14.332
10119W        W78537  13.768  37.995  13.416
10120W        W78538  19.047  12.304  11.114
10121W        W78539  32.453  44.284   0.374
10122W        W78540  26.114  40.470   4.228
10123W        W78541  35.034  42.335   2.880
10124W        W78542  18.646  26.646   0.413
10125W        W78543  22.502  25.593  13.854
10126W        W78544  32.467  21.594  12.345
10127W        W78545  32.938   4.934  11.910
10128W        W78546  16.711  11.277  10.999
10129W        W78547  34.092   5.720  11.469
10130W        W78548  32.584   2.801  12.902
10131W        W78549   2.467  39.520  13.825
10132W        W78550  22.164  31.578   2.827
10133W        W78551  31.401  16.577  13.444
10134W        W78552   2.265  21.067   2.203
10135W        W78553  27.977   0.792   4.311
10136W        W78554  43.916  41.449   4.801
10137W        W78555  40.956  21.649  13.544
10138W        W78556  26.601  38.481   3.234
10139W        W78557   9.390  17.200  13.970
10140W        W78558  21.666   1.737   4.324
10141W        W78559  26.667  32.987   2.735
10142W        W78560  28.185  43.294   4.134
10143W        W78561  41.300  24.134  11.567
10144W        W78562   6.684  23.706  12.035
10145W        W78563   4.936  25.111   1.867
10146W        W78564   9.877  10.148   1.821
10147W        W78565   3.353  34.532  14.467
10148W        W78566  36.851  16.689   0.349
10149W        W78567  36.417   9.786  10.568
10150W        W78568   5.832  17.748   3.789
10151W        W78569  29.590  32.955   2.744
10152W        W78570  21.065   9.162   2.714
10153W        W78571  41.848  22.182   0.939
10154W        W78572  16.085  35.029  10.917
10155W        W78573   5.923  29.646   0.294
10156W        W78574  38.435  42.281   0.894
10157W        W78575   9.344  28.158  12.390
10158W        W78576  44.832  18.707   4.334
10159W        W78577   5.353  36.560  12.932
10160W        W78578  18.681  13.732  11.965
10161W        W78579  44.419   1.260   0.826
10162W        W78580  21.605   5.733  13.502
10163W        W78581  27.125  25.468   2.280
10164W        W78582  24.539  30.022   1.213
10165W        W78583  40.025  13.782  13.848
10166W        W78584  14.594  38.496  14.912
10167W        W78585  29.574  10.718  14.291
10168W        W78586  32.563  15.667  12.937
10169W        W78587  38.388  11.356   0.749
10170W        W78588   3.441   9.783  12.028
10171W        W78589   3.243  41.381   1.696
10172W        W78590  44.366  21.022   3.148
10173W        W78591   8.664  22.103   4.787
10174W        W78592  33.614  11.644   3.646
10175W        W78593  20.168  16.643   0.315
10176W        W78594  17.202  35.522   0.283
10177W        W78595  38.414  15.820  12.401
10178W        W78596  25.680  23.597   0.749
10179W        W78597  26.101   2.789   3.193
10180W        W78598  42.293   1.863  14.484
10181W        W78599  37.966  35.484  10.582
10182W        W78600  32.575  11.764  13.832
10183W        W78601  19.754  21.077   1.428
10184W        W78602  14.614  18.772  12.468
10185W        W78603  16.276  24.565  11.066
10186W        W78604  16.256  29.614   3.733
10187W        W78605  34.873  27.659  13.323
10188W        W78606   7.797  16.785  13.044
10189W        W78607  34.953  15.664  11.968
10190W        W78608  18.584  23.039  11.440
10191W        W78609  14.740  10.241   0.786
10192W        W78610  32.413  43.865   1.856
10193W        W78611  38.027  13.240   4.758
10194W        W78612  42.481  41.858  12.559
10195W        W78613   9.151  37.398   4.302
10196W        W78614  36.399  44.004  13.932
10197W        W78615  31.935   0.960   4.354
10198W        W78616  25.072   6.782  14.325
10199W        W78617  23.189  23.234  10.581
10200W        W78618   6.892   7.257  10.510
10201W        W78619  29.447  44.490   0.791
10202W        W78620  36.373  26.559  14.974
10203W        W78621  40.446   1.874  10.543
10204W        W78622  34.502  44.427  10.984
10205W        W78623   3.951  20.660   9.948
10206W        W78624  36.934  14.183  11.443
10207W        W78625  37.495  15.627  14.885
10208W        W78626   1.374  18.139   3.202
10209W        W78627  32.612  42.847   9.946
10210W        W78628   2.438  25.627  11.379
10211W        W78629  28.010  24.711   4.147
10212W        W78630  44.434  17.238   5.310
10213W        W78631   0.329  25.030   1.293
10214W        W78632  20.034  44.350  12.384
10215W        W78633  12.834  16.184  10.482
10216W        W78634   3.927  28.481  12.834
10217W        W78635  33.925  13.200   0.825
10218W        W78636  18.262  40.998   1.726
10219W        W78637  38.894   7.175   2.834
10220W        W78638   7.707  26.206  12.925
10221W        W78639  37.365  42.396  11.933
10222W        W78640   5.760  43.793  12.445
10223W        W78641   8.709  19.182   2.397
10224W        W78642  29.670   6.735  13.961
10225W        W78643  30.024  42.939   4.330
10226W        W78644  39.048  30.473   3.857
10227W        W78645  16.622  38.419  14.904
10228W        W78646   1.914  20.084   1.260
10229W        W78647  41.458  31.547  13.380
10230W        W78648  44.875  15.667  12.858
10231W        W78649  12.832  26.648  10.419
10232W        W78650   0.916  26.025  12.954
10233W        W78651  43.485  35.000  13.056
10234W        W78652  30.128   1.804  14.309
10235W        W78653  11.287  30.544   3.822
10236W        W78654  19.664  26.011   4.309
10237W        W78655  18.763  44.778  11.118
10238W        W78656  40.374  39.970   2.788
10239W        W78657  11.208  44.824   3.667
10240W        W78658  23.601   5.384   4.642
10241W        W78659  26.032  15.292  14.323
10242W        W78660  11.661  42.372  13.042
10243W        W78661  29.003  24.599  12.936
10244W        W78662  43.888  42.798   1.837
10245W        W78663  20.688  27.173   0.262
10246W        W78664  37.874  32.904  11.972
10247W        W78665  24.672  14.726  12.433
10248W        W78666  41.446  29.160  13.366
10249W        W78667   1.272   0.933   2.736
10250W        W78668  40.887  16.712  13.374
10251W        W78669  37.480  17.676   0.876
10252W        W78670  19.610  44.332  12.576
10253W        W78671  44.002  34.486   4.650
10254W        W78672   8.674  38.460   1.252
10255W        W78673  36.498  37.343   2.209
10256W        W78674  30.623  26.952  11.536
10257W        W78675   0.489  29.957  13.887
10258W        W78676  20.050  25.478   4.706
10259W        W78677  35.010  17.750  14.961
10260W        W78678   8.852  34.865   0.875
10261W        W78679  26.133  13.190   4.130
10262W        W78680  40.830  12.639  11.553
10263W        W78681  36.080  43.367   2.372
10264W        W78682  26.546   4.812  11.028
10265W        W78683  44.439  31.450   1.286
10266W        W78684  41.326  28.090  10.610
10267W        W78685   6.398   1.332   0.787
10268W        W78686  34.429   5.353   1.451
10269W        W78687  26.596   1.966  11.946
10270W        W78688  21.572  16.704  10.495
10271W        W78689   5.207   0.926   0.782
10272W        W78690  17.578  35.593  11.593
10273W        W78691  26.676  14.289   0.266
10274W        W78692   6.750  18.574   4.774
10275W        W78693   3.870  18.115  12.027
10276W        W78694  26.165  16.746  12.897
10277W        W78695  32.027   9.753   3.301
10278W        W78696  20.157   5.721  10.531
10279W        W78697  33.068  17.203  14.001
10280W        W78698  38.011  39.025  13.812
10281W        W78699  11.141  13.267   1.301
10282W        W78700  21.575  27.131   4.128
10283W        W78701  19.652  16.591   0.897
10284W        W78702  35.005  34.447   0.816
10285W        W78703   1.798   9.694   0.249
10286W        W78704  33.108  12.208   4.271
10287W        W78705  28.140  14.665   0.394
10288W        W78706  37.573  44.970  11.453
10289W        W78707   0.921  38.893   2.215
10290W        W78708  17.079   4.323  11.031
10291W        W78709  34.890  14.095  11.493
10292W        W78710  14.671   7.241  13.030
10293W        W78711  10.203   4.795  11.470
10294W        W78712  42.340  18.674  12.002
10295W        W78713  24.619  34.583  12.366
10296W        W78714  38.832  24.018   0.964
10297W        W78715  38.065   0.473   4.600
10298W        W78716  14.768   2.376  13.021
10299W        W78717  27.161  13.803  14.415
10300W        W78718  27.649  32.912  12.851
10301W        W78719  43.861  14.160  13.029
10302W        W78720  33.015  11.295   0.861
10303W        W78721  20.537  28.488  10.560
10304W        W78722  29.140  21.102  10.605
10305W        W78723  40.437   6.366  10.889
10306W        W78724  44.901  31.533  11.943
10307W        W78725  20.255   9.724   1.443
10308W        W78726  15.114  28.535  10.897
10309W        W78727  34.028   7.700   4.263
10310W        W78728  15.633   4.244  12.935
10311W        W78729   3.265  11.729   4.659
10312W        W78730  24.034  16.242   3.629
10313W        W78731  31.466   5.915   3.710
10314W        W78732  42.316  41.377   0.914
10315W        W78733  31.105  22.509   0.745
10316W        W78734  35.448  18.623  12.579
10317W        W78735  19.615   3.786  11.924
10318W        W78736  38.538  13.271  14.921
10319W        W78737   8.758  27.046  14.989
10320W        W78738  40.515  43.786  11.915
10321W        W78739  43.298  38.916   1.425
10322W        W78740  25.485  42.397   2.404
10323W        W78741  37.393   2.851  11.991
10324W        W78742  15.142   2.434   1.912
10325W        W78743  36.925  10.723   0.862
10326W        W78744   2.414  35.395  14.340
10327W        W78745  32.928  13.652   2.306
10328W        W78746  38.435  44.459   0.357
10329W        W78747  16.707  26.122   3.278
10330W        W78748  16.630  37.948  13.915
10331W        W78749   9.831   6.387   1.284
10332W        W78750  36.854  36.046  10.463
10333W        W78751  32.932   9.829   4.648
10334W        W78752   6.802  41.482   1.290
10335W        W78753  30.029  38.994   0.733
10336W        W78754   5.817  21.110   3.255
10337W        W78755  22.646  22.232   1.254
10338W        W78756   6.378  40.418  10.104
10339W        W78757  39.891  24.154  12.956
10340W        W78758   6.736  14.604  11.012
10341W        W78759  15.198   9.775  13.033
10342W        W78760  35.463   2.951   4.665
10343W        W78761  28.068   4.920  12.949
10344W        W78762   3.432  27.981  14.439
10345W        W78763  40.841  42.012   4.312
10346W        W78764  40.016  38.488   4.624
10347W        W78765   4.922  15.749  12.876
10348W        W78766  29.103  35.947  13.394
10349W        W78767  13.783  15.189  10.433
10350W        W78768   2.248  10.713   2.294
10351W        W78769  42.325  39.887  14.021
10352W        W78770   1.826  35.492   3.277
10353W        W78771  12.258  36.537  13.926
10354W        W78772   8.827  41.843   3.236
10355W        W78773  18.596  40.445  12.906
10356W        W78774  13.269  18.680  14.767
10357W        W78775  27.135  10.799  13.841
10358W        W78776  40.840   6.364   2.675
10359W        W78777  21.165  30.997  11.549
10360W        W78778  33.594   5.760  10.062
10361W        W78779   9.750  32.060   4.290
10362W        W78780  29.952  35.887   1.844
10363W        W78781  23.656  23.535   1.365
10364W        W78782   0.770   1.819  10.145
10365W        W78783  32.051   4.443   4.301
10366W        W78784  42.347  19.198   2.896
10367W        W78785  41.843   9.680   3.640
10368W        W78786  43.851  42.913   0.450
10369W        W78787  26.625   7.701  11.973
10370W        W78788  13.138   3.765   3.659
10371W        W78789   9.678   7.806  14.289
10372W        W78790  20.694  20.041   4.644
10373W        W78791  14.125  26.140   4.801
10374W        W78792   7.806  11.366  14.927
10375W        W78793  28.619   5.826  14.410
10376W        W78794  13.686   6.884   1.314
10377W        W78795   1.807  22.251  10.576
10378W        W78796   9.259  13.208  14.471
10379W        W78797  22.727  28.446  14.844
10380W        W78798  27.530   9.875  10.480
10381W        W78799  40.469  19.187  10.451
10382W        W78800  39.548  29.068   4.149
10383W        W78801  20.673  34.497  12.973
10384W        W78802  23.081   2.233  13.478
10385W        W78803   3.245  43.002   4.292
10386W        W78804   0.966  41.526  14.850
10387W        W78805  43.419  21.669   5.266
10388W        W78806   0.925  39.479   2.414
10389W        W78807  21.630   4.240  12.519
10390W        W78808  28.929  13.836   3.385
10391W        W78809   6.316  27.450  11.997
10392W        W78810  25.499  36.993  12.432
10393W        W78811  17.273  37.417  12.563
10394W        W78812  11.719  36.883   3.318
10395W        W78813   0.756  12.337   5.102
10396W        W78814  19.163  22.190  14.961
10397W        W78815  12.132  10.252  10.624
10398W        W78816   1.919   9.673  11.413
10399W        W78817  38.071  34.461  10.906
10400W        W78818  31.138  13.141   3.270
10401W        W78819  13.822  17.145   2.859
10402W        W78820  12.687  38.073  14.385
10403W        W78821  43.990  42.898  12.564
10404W        W78822   5.747  21.189  14.438
10405W        W78823  16.795   3.792  12.528
10406W        W78824  36.057   7.843  12.516
10407W        W78825  27.561  39.538   0.243
10408W        W78826  15.133  29.576  11.554
10409W        W78827  34.492  41.896  14.394
10410W        W78828  15.213  14.264   5.141
10411W        W78829  24.091  24.718   2.750
10412W        W78830  22.226  17.106  11.584
10413W        W78831  26.577  22.158   1.896
10414W        W78832  23.524  39.464  13.842
10415W        W78833  18.208  32.436  11.887
10416W        W78834  36.012  41.518   0.925
10417W        W78835   1.462   1.793  12.091
10418W        W78836  33.587  24.163  10.456
10419W        W78837   2.385  17.090  14.370
10420W        W78838  18.238   8.677  10.453
10421W        W78839  39.543   6.224  13.041
10422W        W78840  26.981   8.338   1.852
10423W        W78841  38.547  26.034   4.808
10424W        W78842  18.608  34.039  12.868
10425W        W78843   7.181   2.861   0.441
10426W        W78844  14.322  23.149  12.555
10427W        W78845  39.477  38.837  12.436
10428W        W78846  33.903   4.205   4.799
10429W        W78847  17.776  40.452  11.451
10430W        W78848  26.556  35.573  11.879
10431W        W78849  36.952  43.500   1.890
10432W        W78850  23.058  31.918  12.946
10433W        W78851  16.106  21.545  11.868
10434W        W78852  10.301   1.745   3.862
10435W        W78853   1.466  37.939   1.414
10436W        W78854  26.536  25.662   2.363
10437W        W78855   5.799  21.651   2.670
10438W        W78856  39.972   3.340   4.706
10439W        W78857  18.060  37.375  14.510
10440W        W78858  30.022  36.531   1.299
10441W        W78859   0.436   4.830  14.845
10442W        W78860   7.196  24.612  11.000
10443W        W78861  44.762  25.509  11.967
10444W        W78862  40.866   2.333  11.018
10445W        W78863  42.428  25.083  10.415
10446W        W78864  42.794  24.553  12.937
10447W        W78865  19.633  15.645  13.422
10448W        W78866  27.066  29.614  10.056
10449W        W78867   0.492   4.410   1.853
10450W        W78868  39.316  34.433  13.397
10451W        W78869  18.602  39.978   2.882
10452W        W78870  29.653  16.754   3.667
10453W        W78871  24.486  10.741  14.328
10454W        W78872  20.670  26.611  14.802
10455W        W78873  36.405  14.685  14.875
10456W        W78874   8.261  12.772  12.955
10457W        W78875  11.147  26.609   0.944
10458W        W78876  23.131  12.191   1.325
10459W        W78877  39.334  39.854   3.690
10460W        W78878  36.510  22.028  14.393
10461W        W78879  33.899  32.907  14.759
10462W        W78880  42.969  16.188   1.264
10463W        W78881  17.258  33.576   5.112
10464W        W78882  10.373  32.886  12.927
10465W        W78883   1.267  25.191  11.999
10466W        W78884  35.569  28.476   1.755
10467W        W78885  14.184   6.392  10.495
10468W        W78886  10.651  19.210   0.868
10469W        W78887  40.895  13.733  14.891
10470W        W78888  28.115  19.276   1.299
10471W        W78889  33.067  36.510  13.354
10472W        W78890  25.156  11.865  14.758
10473W        W78891   1.306  14.117   0.394
10474W        W78892   3.336  16.667   0.474
10475W        W78893  17.562  16.219  12.976
10476W        W78894  43.314  37.380  10.612
10477W        W78895  23.171  21.515  11.455
10478W        W78896   3.774   1.796   4.823
10479W        W78897  24.594  35.019  11.015
10480W        W78898   9.273  28.934   3.652
10481W        W78899  11.804  42.793  12.563
10482W        W78900  27.586   2.795   4.790
10483W        W78901  20.532  10.291   3.678
10484W        W78902  11.775  26.982  13.993
10485W        W78903  39.819  35.889  11.516
10486W        W78904  12.308   7.291  10.564
10487W        W78905  20.041  26.570  11.612
10488W        W78906  35.983  19.745  13.969
10489W        W78907  15.086  31.543  12.561
10490W        W78908   2.915   4.315  10.414
10491W        W78909   5.912  17.272  13.830
10492W        W78910  40.029  17.088   0.913
10493W        W78911  38.055  21.118  11.399
10494W        W78912  22.665   3.417  12.926
10495W        W78913  31.926  29.090  12.856
10496W        W78914  16.717   7.885   1.410
10497W        W78915  35.472  35.067   0.266
10498W        W78916   1.371  23.526  13.464
10499W        W78917   5.332  13.213  12.460
10500W        W78918   4.229   7.182   3.197
10501W        W78919   7.741  12.251  14.940
10502W        W78920  38.980  43.840  12.372
10503W        W78921   4.926  31.468   1.218
10504W        W78922   2.275  40.507  11.603
10505W        W78923  15.785   5.294   3.211
10506W        W78924  44.343  41.461   2.707
10507W        W78925  28.083   6.367  11.006
10508W        W78926  34.419  18.128   4.788
10509W        W78927  36.376  11.729   1.307
10510W        W78928  17.631  19.223  11.508
10511W        W78929  12.189  16.723   0.438
10512W        W78930  23.714   8.369   1.740
10513W        W78931  23.562  39.479  11.551
10514W        W78932   2.428  15.605   2.838
10515W        W78933  18.634  35.545   2.218
10516W        W78934  40.422  22.512  10.499
10517W        W78935  11.796  11.372  11.521
10518W        W78936  25.073  17.578  10.529
10519W        W78937  33.004  16.704   0.274
10520W        W78938   5.400   5.912   4.660
10521W        W78939   6.289   6.684  10.578
10522W        W78940  35.421  26.698   3.320
10523W        W78941  32.077  17.128  13.485
10524W        W78942  12.678  28.993  13.018
10525W        W78943   2.911   7.886  10.408
10526W        W78944   6.309  12.763  13.529
10527W        W78945  44.277   3.857   1.858
10528W        W78946   1.333  38.423   0.940
10529W        W78947  38.569  18.594  14.798
10530W        W78948  11.159   5.374  10.523
10531W        W78949  28.013  44.879   4.786
10532W        W78950   9.887  35.062  12.064
10533W        W78951  29.091  20.206  11.001
10534W        W78952  24.053  14.309   3.162
10535W        W78953   9.300  32.047   1.305
10536W        W78954  26.123  10.723  10.893
10537W        W78955  15.299  20.109  12.464
10538W        W78956  15.172   8.708  12.491
10539W        W78957  34.010   8.182  10.463
10540W        W78958  24.534   0.458   3.342
10541W        W78959  34.919  36.988   4.287
10542W        W78960  29.641   5.435   3.741
10543W        W78961   5.731  25.098  10.603
10544W        W78962  30.563   6.798  14.897
10545W        W78963   1.389  44.394  12.989
10546W        W78964   8.870  30.547   4.752
10547W        W78965  17.178  33.436  13.849
10548W        W78966  29.462  37.956  14.884
10549W        W78967  28.148  13.261   1.737
10550W        W78968   9.387  14.691   2.891
10551W        W78969  21.102   5.692  11.609
10552W        W78970  19.567  37.955  11.981
10553W        W78971  27.958  16.274  11.490
10554W        W78972  24.719   3.429   3.805
10555W        W78973  21.032   9.736  10.495
10556W        W78974  44.487  15.710  12.409
10557W        W78975  16.690  31.071  11.580
10558W        W78976   8.668   4.741  11.419
10559W        W78977  11.208  42.349  10.889
10560W        W78978   5.738   5.275  13.968
10561W        W78979  43.377  30.611   2.189
10562W        W78980   7.230  30.070   2.736
10563W        W78981  44.329  23.087  11.393
10564W        W78982  31.132   4.440   3.795
10565W        W78983  16.624   8.834   3.660
10566W        W78984  41.996   9.711   1.818
10567W        W78985  24.993  23.686   1.837
10568W        W78986  26.977  39.345  12.383
10569W        W78987  32.128  44.443  11.477
10570W        W78988   3.385  41.427  12.507
10571W        W78989   5.267  24.127   3.782
10572W        W78990  23.498  16.777  10.996
10573W        W78991  39.347   3.342  11.030
10574W        W78992  41.966  35.426   3.700
10575W        W78993  40.335  31.437  13.362
10576W        W78994  41.834  24.671  14.506
10577W        W78995  32.602  10.170   1.718
10578W        W78996   7.411  28.114   4.759
10579W        W78997   6.728  23.151  13.510
10580W        W78998  20.261  29.053   0.961
10581W        W78999  31.517   0.977   0.295
10582W        W79000  34.953  27.639  14.349
10583W        W79001   6.774  36.503  14.286
10584W        W79002   4.231  17.565   3.651
10585W        W79003  43.930  40.038   4.234
10586W        W79004  18.723  10.341   3.847
10587W        W79005  27.553  18.133  11.070
10588W        W79006   5.198  26.463   2.407
10589W        W79007  36.922  30.647   3.287
10590W        W79008  22.610  11.780  13.949
10591W        W79009  42.944  40.016   3.715
10592W        W79010  20.188   8.375   4.700
10593W        W79011  28.182   9.779   4.637
10594W        W79012  20.237  19.140  11.527
10595W        W79013  19.583  33.493   1.303
10596W        W79014  34.947  13.218   1.817
10597W        W79015  30.439  28.096   2.741
10598W        W79016  36.065  38.950   5.313
10599W        W79017  24.094  42.856   1.310
10600W        W79018   0.366  25.560   1.837
10601W        W79019  21.593  10.774   4.310
10602W        W79020   9.293  37.546   0.908
10603W        W79021  20.066  36.095  10.535
10604W        W79022  10.670  21.161   0.332
10605W        W79023  32.065  25.627   1.734
10606W        W79024  28.441  34.417  12.554
10607W        W79025   2.281  34.562   3.195
10608W        W79026   7.850  25.685  13.384
10609W        W79027  28.437  38.938  11.084
10610W        W79028  17.235  21.149  13.461
10611W        W79029  15.270  31.949   3.733
10612W        W79030  13.726  41.512  14.388
10613W        W79031  13.634   4.386  10.531
10614W        W79032  21.072  36.402  13.042
10615W        W79033  40.343  14.200  14.850
10616W        W79034  25.111  27.185   1.859
10617W        W79035  44.852  21.142  10.543
10618W        W79036  22.077  38.892  11.908
10619W        W79037  44.307  43.269   1.773
10620W        W79038  10.311   3.458  14.923
10621W        W79039  41.015  32.059   1.369
10622W        W79040  14.642   4.437   1.344
10623W        W79041   9.153  12.736  12.450
10624W        W79042  24.485  34.049  11.573
10625W        W79043  26.460   9.176   0.850
10626W        W79044  17.096  15.765   2.838
10627W        W79045  36.925  32.975   0.845
10628W        W79046   7.704  27.020   3.682
10629W        W79047  24.631  38.468   5.675
10630W        W79048  17.070   3.394   4.700
10631W        W79049  20.138  42.830   1.724
10632W        W79050  15.230  13.775   2.805
10633W        W79051  30.142   0.324  12.934
10634W        W79052   4.262  10.309  14.321
10635W        W79053  32.943  14.789   1.706
10636W        W79054   0.407  27.967   2.685
10637W        W79055  39.488  33.009   3.286
10638W        W79056  33.416  15.298   1.342
10639W        W79057   5.774  33.110  11.908
10640W        W79058  12.637  34.004   1.935
10641W        W79059   0.416  35.418   0.785
10642W        W79060  39.816  32.552  10.955
10643W        W79061  11.640  10.657   3.843
10644W        W79062  25.618  19.777  10.948
10645W        W79063  39.970  24.482  14.469
10646W        W79064  19.162  35.422  14.492
10647W        W79065   9.354  22.509  13.806
10648W        W79066  29.561   5.719  10.147
10649W        W79067  34.436  28.660  11.575
10650W        W79068  38.384  10.332  11.094
10651W        W79069  12.302   2.892  11.583
10652W        W79070   1.906   4.208  12.824
10653W        W79071   3.333  12.799   4.265
10654W        W79072  27.045  12.265  14.481
10655W        W79073  26.035  25.008  10.538
10656W        W79074  19.562   4.893   0.382
10657W        W79075  34.453  34.096  11.085
10658W        W79076   6.272   7.704   0.279
10659W        W79077  27.971  29.099   2.809
10660W        W79078  29.043  32.113   0.797
10661W        W79079  34.102  41.421  12.574
10662W        W79080  41.475  10.350  13.051
10663W        W79081   4.402   0.410   0.954
10664W        W79082   3.948  22.541  12.064
10665W        W79083   2.323  39.872   9.961
10666W        W79084  41.301  42.986   0.747
10667W        W79085  31.565  43.904   0.902
10668W        W79086  12.738  41.358   3.747
10669W        W79087  34.493  17.092  14.929
10670W        W79088  40.418  42.835  12.380
10671W        W79089  24.103  30.624  13.329
10672W        W79090  26.480  30.630  12.911
10673W        W79091  14.604  21.715   1.237
10674W        W79092  25.982  19.164  11.605
10675W        W79093  11.284  21.194  11.056
10676W        W79094  34.990  37.854   4.792
10677W        W79095   6.902  14.120   1.373
10678W        W79096  19.129  30.479  14.506
10679W        W79097  33.113  18.611  14.030
10680W        W79098  23.140  13.265  13.875
10681W        W79099   2.282  27.488  13.012
10682W        W79100  41.926  29.590  12.990
10683W        W79101  14.138  32.463   4.613
10684W        W79102  11.729  44.363  11.967
10685W        W79103   9.767  31.463   4.645
10686W        W79104  44.261   0.948  14.015
10687W        W79105   4.866  38.030  10.468
10688W        W79106   8.359   1.334   4.287
10689W        W79107  23.193  11.630  10.934
10690W        W79108  24.517  29.104   0.790
10691W        W79109  41.464  38.013   0.849
10692W        W79110  24.027  12.757   1.832
10693W        W79111  17.589   5.752  12.027
10694W        W79112  23.687  28.995   0.806
10695W        W79113  32.473  23.654   0.444
10696W        W79114   6.428  42.457  10.526
10697W        W79115   3.388  22.145  12.427
10698W        W79116  20.715  25.500   2.213
10699W        W79117  39.408  17.738  10.989
10700W        W79118   6.850  32.571   4.345
10701W        W79119  38.918  41.028  10.423
10702W        W79120  31.080  14.251  12.460
10703W        W79121  25.698  16.248  12.406
10704W        W79122  37.991  41.357  12.463
10705W        W79123  11.824  13.833  12.504
10706W        W79124  31.076  12.760  12.446
10707W        W79125  38.823   3.725   1.843
10708W        W79126  11.142   7.347   4.291
10709W        W79127  31.407  33.541  13.791
10710W        W79128   4.737  23.119   0.400
10711W        W79129  13.289  27.954   3.632
10712W        W79130  30.122  27.946  12.483
10713W        W79131   4.373  19.546   0.267
10714W        W79132  41.368  22.627  12.395
10715W        W79133  16.608  21.639   0.763
10716W        W79134  19.276  39.445  13.014
10717W        W79135  24.151  30.060  14.359
10718W        W79136  37.546  38.541   0.324
10719W        W79137  43.308  44.967   2.342
10720W        W79138  43.306  42.869  14.789
10721W        W79139  12.801  37.374  14.786
10722W        W79140   1.773  23.554   1.824
10723W        W79141  21.059  39.845   0.797
10724W        W79142  25.618   4.436   3.313
10725W        W79143  22.609  35.866   4.187
10726W        W79144   4.257  33.979  10.913
10727W        W79145  37.995  19.657   3.265
10728W        W79146  13.607   6.919   4.115
10729W        W79147  13.137  11.831   1.919
10730W        W79148  14.600  11.156  10.525
10731W        W79149  31.949  36.921   2.671
10732W        W79150  29.621  11.659   4.695
10733W        W79151   7.703   2.374  12.554
10734W        W79152  16.233  16.654  13.003
10735W        W79153   6.289  11.273   2.741
10736W        W79154  34.883   4.271  12.918
10737W        W79155  30.100  23.539   1.880
10738W        W79156   7.326  14.340  13.410
10739W        W79157  12.722   5.820  12.036
10740W        W79158  14.322   1.832   3.191
10741W        W79159  29.144  20.664  12.013
10742W        W79160  28.180   2.383   4.759
10743W        W79161  31.956  31.049  12.574
10744W        W79162   2.836  37.339  14.937
10745W        W79163  16.314   4.245  11.403
10746W        W79164  18.616  26.985  11.034
10747W        W79165   8.784   8.324   1.307
10748W        W79166  14.271   4.436   0.865
10749W        W79167  12.684   6.387  12.364
10750W        W79168  41.463  38.850   4.236
10751W        W79169   9.828  26.990   4.710
10752W        W79170  25.119  17.218  14.986
10753W        W79171  35.492  37.413   2.737
10754W        W79172  27.457   4.757   2.377
10755W        W79173  44.286  33.592   0.877
10756W        W79174  20.586  21.548  11.394
10757W        W79175  19.554  37.445   2.412
10758W        W79176  28.169  42.878  13.434
10759W        W79177  10.796  32.491  14.419
10760W        W79178  19.588  29.663   3.316
10761W        W79179  24.636  21.530  14.946
10762W        W79180  10.214  36.410  12.386
10763W        W79181  29.930  26.192   4.787
10764W        W79182  39.517  24.519  14.322
10765W        W79183   6.750  25.547   1.929
10766W        W79184  20.671  37.344  10.153
10767W        W79185  19.723  36.474   3.731
10768W        W79186  31.522   9.832   0.430
10769W        W79187  36.064  40.464  12.094
10770W        W79188  21.623  40.045  13.987
10771W        W79189  23.992  35.861  10.519
10772W        W79190   9.745  13.833   4.190
10773W        W79191  33.025  17.653  14.760
10774W        W79192  16.101  11.231  13.443
10775W        W79193  37.365  28.115  12.018
10776W        W79194   4.938   6.229   3.846
10777W        W79195  44.284  18.637  10.598
10778W        W79196  38.413   3.934  12.016
10779W        W79197  24.193  41.915  12.409
10780W        W79198  42.329  36.591  14.869
10781W        W79199  42.886  16.652  13.036
10782W        W79200  21.203  16.696  11.588
10783W        W79201   9.347  15.678   4.626
10784W        W79202  27.194  35.865   5.254
10785W        W79203   3.306  37.398   3.817
10786W        W79204  12.129  21.257  12.956
10787W        W79205  35.984  15.606   1.833
10788W        W79206  43.006  33.533  13.956
10789W        W79207   5.899   3.356  14.940
10790W        W79208  26.491   6.767   3.155
10791W        W79209  26.060  44.352  10.598
10792W        W79210   1.736  27.467  14.907
10793W        W79211   4.419  40.954   2.304
10794W        W79212   3.374  21.695  13.497
10795W        W79213  10.768  15.701  13.340
10796W        W79214  32.503  29.575  12.832
10797W        W79215  44.852  43.887  13.449
10798W        W79216  43.345  40.405   1.322
10799W        W79217   2.406  29.124  10.051
10800W        W79218   5.900  36.579  12.526
10801W        W79219  27.668  36.868  12.910
10802W        W79220   6.342  22.183   4.693
10803W        W79221  26.081   6.679   2.391
10804W        W79222  38.414   6.850   0.902
10805W        W79223  41.507   4.729  12.857
10806W        W79224  33.024   9.867  11.999
10807W        W79225  18.290  36.444  11.540
10808W        W79226  41.528  39.964   3.749
10809W        W79227   0.844  32.062  11.984
10810W        W79228  39.885  17.648   2.771
10811W        W79229  40.430   4.916  10.964
10812W        W79230  38.941  17.783  11.931
10813W        W79231  36.369  27.052   2.775
10814W        W79232  26.503  35.895   4.612
10815W        W79233  30.059  12.191  11.611
10816W        W79234  29.646  29.143  13.919
10817W        W79235   9.802   1.957  11.378
10818W        W79236  23.661  22.667  11.097
10819W        W79237  14.278   4.765   2.410
10820W        W79238  31.532  13.208  10.428
10821W        W79239   9.382  26.571   1.933
10822W        W79240  29.979  16.082   4.623
10823W        W79241  29.998   3.290  12.385
10824W        W79242  15.663   9.693  11.411
10825W        W79243   0.885  22.510  13.032
10826W        W79244   9.287  10.232   2.725
10827W        W79245   0.975  18.059  14.765
10828W        W79246  15.712  29.592   0.383
10829W        W79247  21.031  22.707   3.223
10830W        W79248  18.243  44.996   4.236
10831W        W79249   3.827  33.106   1.928
10832W        W79250  23.604  30.103   1.871
10833W        W79251  27.479  35.944   1.284
10834W        W79252  23.519  39.984  14.824
10835W        W79253   5.336  16.611   0.424
10836W        W79254  22.008  32.979   3.667
10837W        W79255  36.590  18.106  13.335
10838W        W79256   9.268  36.514   1.370
10839W        W79257  13.175  34.108   0.307
10840W        W79258  18.087  36.587  14.456
10841W        W79259   3.715  42.028   3.868
10842W        W79260  19.163  21.071  12.449
10843W        W79261  19.640  39.424  11.936
10844W        W79262  21.678  11.203   0.910
10845W        W79263  33.991  25.161  11.872
10846W        W79264   9.385   0.786   4.234
10847W        W79265  18.166  40.467   1.885
10848W        W79266  24.620   4.846   1.734
10849W        W79267  15.311  26.462   4.656
10850W        W79268  16.310  33.121  14.339
10851W        W79269   3.730  10.697   1.292
10852W        W79270  15.685  34.957  10.640
10853W        W79271   3.227   6.753  11.424
10854W        W79272  16.743  25.566  13.307
10855W        W79273  31.130  31.407  13.893
10856W        W79274  27.516  39.948   0.772
10857W        W79275   2.806   1.970   2.745
10858W        W79276  26.122   3.258  12.513
10859W        W79277  12.317  11.255  13.959
10860W        W79278  18.261  43.903   4.725
10861W        W79279   5.302   9.287  14.449
10862W        W79280  33.481  37.379  14.760
10863W        W79281  25.582  38.494  14.276
10864W        W79282   0.783   0.375   4.167
10865W        W79283  14.234  33.432  10.616
10866W        W79284  19.574  33.577  10.916
10867W        W79285  23.160  10.362   1.893
10868W        W79286  30.117   7.896  14.402
10869W        W79287   4.902  29.508   1.707
10870W        W79288  23.181  35.059   2.746
10871W        W79289  35.973  27.625   1.865
10872W        W79290   9.294  17.063   2.830
10873W        W79291  38.057  20.583  13.889
10874W        W79292  43.341   7.811  14.930
10875W        W79293  36.548  37.469   4.333
10876W        W79294  43.434  37.421  13.975
10877W        W79295   5.749  39.018  10.613
10878W        W79296  38.354  38.506   4.806
10879W        W79297  25.070  18.283  12.843
10880W        W79298   1.952  21.040  11.488
10881W        W79299  29.614  17.184  10.600
10882W        W79300  29.058  35.588  13.868
10883W        W79301   0.905   2.859   2.344
10884W        W79302  23.203  40.012   0.292
10885W        W79303   9.646  27.955   4.271
10886W        W79304  11.180  27.553  13.031
10887W        W79305  20.221  23.490   3.781
10888W        W79306  15.105  12.180   3.240
10889W        W79307  31.623  11.350  12.536
10890W        W79308   5.810  16.319   4.321
10891W        W79309  39.897   1.794   1.426
10892W        W79310  24.213  23.672  11.431
10893W        W79311  39.050  14.188  14.867
10894W        W79312  13.278  41.419   0.360
10895W        W79313  30.612  21.663   3.713
10896W        W79314  25.576  29.924  13.467
10897W        W79315   4.731  21.529  13.794
10898W        W79316   0.267  29.131  14.320
10899W        W79317  32.039  17.738   0.299
10900W        W79318   6.823  42.970  10.995
10901W        W79319  32.413  36.463  11.580
10902W        W79320  32.903   4.790  10.609
10903W        W79321   2.763  16.570   2.744
10904W        W79322  36.531  15.251   1.291
10905W        W79323  21.246  16.650  10.598
10906W        W79324  17.130   6.329   5.702
10907W        W79325  13.124  28.519   3.808
10908W        W79326  21.038   0.446  14.778
10909W        W79327  20.085  38.907   0.348
10910W        W79328  20.073  19.540   1.820
10911W        W79329  27.125  41.927   1.416
10912W        W79330   2.229  38.985   1.844
10913W        W79331  38.052  39.909   4.116
10914W        W79332  33.453  42.794   3.780
10915W        W79333  32.102  17.606  14.384
10916W        W79334  43.896  25.472   1.223
10917W        W79335   1.405  39.962  11.573
10918W        W79336  21.053   2.462  11.521
10919W        W79337  14.138  19.559   0.415
10920W        W79338   2.813  41.907   0.804
10921W        W79339  34.528  38.504   5.144
10922W        W79340   5.732  16.247   3.149
10923W        W79341   8.893  18.162  10.915
10924W        W79342  35.559   3.460  13.327
10925W        W79343  32.453   6.747   0.897
10926W        W79344  11.762  40.947  14.962
10927W        W79345  29.449  14.644   3.691
10928W        W79346  43.505   3.945   2.406
10929W        W79347   5.425  11.673   2.835
10930W        W79348  41.359   6.374  13.990
10931W        W79349  28.575   5.918  11.053
10932W        W79350  24.620  15.304  11.442
10933W        W79351  34.877  18.171   4.314
10934W        W79352  25.989  37.464   3.816
10935W        W79353   9.683  14.256  12.507
10936W        W79354  12.745  12.319  13.473
10937W        W79355  41.347  30.431   1.401
10938W        W79356  36.354  44.765  12.453
10939W        W79357  28.555   0.336  13.877
10940W        W79358  11.139  14.310  12.999
10941W        W79359   4.830  27.152   4.662
10942W        W79360  15.126  43.453  12.471
10943W        W79361  39.954  19.713   0.773
10944W        W79362  35.410  37.866   4.630
10945W        W79363  28.006  22.039  10.426
10946W        W79364  31.103   5.344   3.649
10947W        W79365  25.605  43.447  12.054
10948W        W79366  19.584   2.432  11.593
10949W        W79367  29.055  30.518   1.727
10950W        W79368   0.808  44.834   2.214
10951W        W79369  27.503  28.090   0.309
10952W        W79370  27.678  18.103   3.727
10953W        W79371  18.054  11.663   1.772
10954W        W79372  31.898   8.369  14.990
10955W        W79373  21.720   8.402  14.890
10956W        W79374  15.582  30.417   2.765
10957W        W79375  36.027  29.457  11.491
10958W        W79376  31.495  10.841   2.773
10959W        W79377  23.596   6.253  12.399
10960W        W79378   2.740  38.556  10.500
10961W        W79379   3.714  38.478  10.922
10962W        W79380  35.955  41.403  10.912
10963W        W79381  19.039  19.087   1.432
10964W        W79382  20.691  34.573   3.823
10965W        W79383  35.379   4.247   1.849
10966W        W79384   8.277   7.414  11.869
10967W        W79385  10.828  33.532   3.206
10968W        W79386  42.779  27.127  11.042
10969W        W79387  24.523  38.850   3.319
10970W        W79388  31.928  35.878   1.932
10971W        W79389   5.725  17.639   1.332
10972W        W79390  30.547   7.862   1.360
10973W        W79391  31.547  26.657   1.305
10974W        W79392  21.604  39.343  10.643
10975W        W79393  33.987  16.598   3.375
10976W        W79394  19.769   0.770  14.939
10977W        W79395  27.618  13.342   3.859
10978W        W79396  22.128  35.974  10.498
10979W        W79397  22.744   5.865  12.989
10980W        W79398  43.014  43.461   4.264
10981W        W79399  22.744  39.316  10.977
10982W        W79400  40.322  34.096  13.323
10983W        W79401  44.381  39.917  10.068
10984W        W79402  39.315  15.116   2.872
10985W        W79403  38.531  41.516   0.886
10986W        W79404  18.086  11.343   5.263
10987W        W79405  44.925  40.848  12.067
10988W        W79406   1.253  43.922   3.726
10989W        W79407  31.990  17.646   3.165
10990W        W79408  17.267  31.070   0.455
10991W        W79409  18.123  42.511   3.375
10992W        W79410  23.994   3.900   4.167
10993W        W79411  40.927  42.350  12.002
10994W        W79412  27.149   3.834   2.885
10995W        W79413  33.543  15.613  12.846
10996W        W79414  42.023  22.702   0.419
10997W        W79415   3.433  24.602  11.574
10998W        W79416  36.000  11.324   0.946
10999W        W79417   9.386  36.403  11.484
11000W        W79418  25.005  16.157  11.428
11001W        W79419  28.948  16.226  14.880
11002W        W79420  33.544   6.421  11.611
11003W        W79421  31.415  39.884  11.898
11004W        W79422  23.997  14.640   2.716
11005W        W79423  17.272  26.188  10.435
11006W        W79424   5.386  41.022   3.667
11007W        W79425   1.958   3.850  14.495
11008W        W79426  13.816  11.145   4.225
11009W        W79427  24.040  17.141   0.267
11010W        W79428  44.859  22.102   3.766
11011W        W79429  41.983  13.740  10.457
11012W        W79430  34.431  15.316  10.976
11013W        W79431  27.136  24.642   3.781
11014W        W79432   5.211  26.132  13.520
11015W        W79433  24.977  39.957   0.833
11016W        W79434  23.514   3.250   2.329
11017W        W79435  27.624  16.221  11.051
11018W        W79436  39.895  27.551   2.273
11019W        W79437  33.914  25.216  11.128
11020W        W79438  27.593  21.169  12.944
11021W        W79439  30.592  14.173   1.785
11022W        W79440  44.913  32.929   0.945
11023W        W79441  25.535  15.113  14.782
11024W        W79442  37.082  34.097  10.599
11025W        W79443  24.036   1.960   5.166
11026W        W79444  32.100  19.242   0.285
11027W        W79445  27.493  16.594  10.569
11028W        W79446  31.406  13.115   2.821
11029W        W79447  41.040   4.411   1.703
11030W        W79448  25.632   2.355  14.775
11031W        W79449  31.413  10.639   1.316
11032W        W79450  20.545  12.808   3.682
11033W        W79451  21.059  35.982   3.312
11034W        W79452  32.451  26.194   1.400
11035W        W79453  14.664  31.957   3.351
11036W        W79454  32.107  19.778  11.490
11037W        W79455  26.068   8.224   2.877
11038W        W79456  25.702  18.215  13.352
11039W        W79457   6.328  21.539   4.625
11040W        W79458  18.101   0.891  14.319
11041W        W79459  20.667  33.124  11.021
11042W        W79460   0.364  38.892  11.874
11043W        W79461  42.860  14.623  11.891
11044W        W79462  42.009  14.243   2.775
11045W        W79463  19.694  11.135  12.037
11046W        W79464  24.176  26.990   4.127
11047W        W79465  37.851  36.424   2.860
11048W        W79466  14.740  28.177  13.503
11049W        W79467   8.727   6.859  13.439
11050W        W79468  23.655   5.231   0.878
11051W        W79469  37.956  42.313   4.725
11052W        W79470   4.776  28.470   2.830
11053W        W79471  30.014  10.326  11.028
11054W        W79472  18.291  30.604  14.859
11055W        W79473   6.366   3.810  13.359
11056W        W79474  42.495   0.935  11.498
11057W        W79475   8.724  35.573  12.884
11058W        W79476  38.064  26.649   3.309
11059W        W79477  15.714   6.802  13.340
11060W        W79478   0.864  35.554   4.806
11061W        W79479  11.751  27.595  12.527
11062W        W79480   9.665  42.300  14.965
11063W        W79481  34.877  44.878   4.172
11064W        W79482  32.108  39.915   2.244
11065W        W79483   9.887  32.135  13.378
11066W        W79484  43.849   3.758   3.784
11067W        W79485  38.414  12.172  12.915
11068W        W79486   4.348  43.943  10.456
11069W        W79487  28.106  44.826  14.506
11070W        W79488  43.381  15.136  12.932
11071W        W79489  39.469  25.551   2.296
11072W        W79490   2.380  11.322  13.801
11073W        W79491   6.693  25.108  12.014
11074W        W79492  41.829  18.606   4.629
11075W        W79493   3.860  25.501  13.519
11076W        W79494  22.186   9.220  11.463
11077W        W79495  40.874   1.278   4.810
11078W        W79496   2.250  40.543  14.348
11079W        W79497  17.772  20.244  13.393
11080W        W79498  27.036  36.474   2.343
11081W        W79499  12.716  44.005   1.329
11082W        W79500  19.070  24.699  11.478
11083W        W79501  30.060   0.481   2.187
11084W        W79502   8.711  32.036   5.280
11085W        W79503   9.180  36.591   3.680
11086W        W79504   6.820  34.525  11.116
11087W        W79505   0.490  22.567  12.392
11088W        W79506   5.928   2.793  12.917
11089W        W79507  24.568  22.745  10.893
11090W        W79508  21.581   8.678   3.658
11091W        W79509  36.475  14.775  14.452
11092W        W79510  24.085  40.978  14.390
11093W        W79511  11.646  12.345  11.860
11094W        W79512  37.959  13.812  13.544
11095W        W79513  22.725   6.845   1.853
11096W        W79514  36.487  33.964   4.283
11097W        W79515  18.202  26.467  12.067
11098W        W79516  11.688  10.304  13.534
11099W        W79517  38.072  38.061   1.884
11100W        W79518   9.745  25.994  11.458
11101W        W79519   1.305  19.215  10.024
11102W        W79520  13.815  26.044  13.937
11103W        W79521  11.168  23.038   0.854
11104W        W79522  11.820  31.486   4.807
11105W        W79523  14.232   7.717   2.338
11106W        W79524  24.113  31.969  13.924
11107W        W79525  18.222  13.348   3.835
11108W        W79526  44.989  17.128  12.876
11109W        W79527  17.169  32.442  12.403
11110W        W79528  14.784  44.305  12.402
11111W        W79529  25.009  31.617   3.345
11112W        W79530  22.164  36.067   3.808
11113W        W79531  20.644   6.739  14.282
11114W        W79532  38.504  31.059  12.095
11115W        W79533  18.282  15.326   4.815
11116W        W79534  33.519   9.237  13.532
11117W        W79535  23.735  40.917   5.796
11118W        W79536  31.493  36.971  11.899
11119W        W79537   9.245   2.336   4.269
11120W        W79538  43.857  12.293   3.230
11121W        W79539  28.614  37.022  11.096
11122W        W79540   5.710  25.702  11.433
11123W        W79541   5.293  43.769  11.914
11124W        W79542   7.891  23.656  14.368
11125W        W79543   3.877  39.908  13.320
11126W        W79544  21.036  39.496  10.456
11127W        W79545   4.316  38.068  14.892
11128W        W79546   6.882   2.339  10.901
11129W        W79547  41.966   8.736  10.004
11130W        W79548   2.409  19.770  12.055
11131W        W79549   0.850  17.716  12.499
11132W        W79550  42.864  19.731   2.372
11133W        W79551   7.309  43.483  11.050
11134W        W79552  17.154   1.317   4.808
11135W        W79553  35.594   5.836   1.219
11136W        W79554   7.213  22.027   4.294
11137W        W79555   0.860  44.397  13.048
11138W        W79556  31.436  12.259   1.378
11139W        W79557  40.934  29.550   3.832
11140W        W79558   9.878   0.344  11.865
11141W        W79559  27.196  33.111   4.695
11142W        W79560  12.327   0.315   2.351
11143W        W79561  43.426  41.427   0.734
11144W        W79562   2.721  21.661   2.385
11145W        W79563  42.520  26.675   1.859
11146W        W79564   7.894  34.010  13.884
11147W        W79565   6.263  38.473  12.030
11148W        W79566  16.700  27.552  11.602
11149W        W79567  12.294  15.165   0.802
11150W        W79568  26.963  39.891   3.206
11151W        W79569   9.355  12.249   2.203
11152W        W79570   1.774  41.515  13.017
11153W        W79571  40.862  15.183  10.436
11154W        W79572   4.782  10.311  11.602
11155W        W79573   4.307  17.671  13.883
11156W        W79574  11.754  22.096   2.294
11157W        W79575  17.619  16.610  12.475
11158W        W79576  23.032   5.398   1.279
11159W        W79577  12.675  39.964   0.361
11160W        W79578   1.741  41.333  14.813
11161W        W79579  12.283   4.744   1.858
11162W        W79580  22.103  19.156   1.428
11163W        W79581  24.023  40.918  10.146
11164W        W79582   7.204  32.938   0.470
11165W        W79583  24.493  41.317  12.826
11166W        W79584  41.827   5.375   2.762
11167W        W79585   8.256  18.227  12.521
11168W        W79586   2.377  29.659   1.444
11169W        W79587   0.939   5.880  10.597
11170W        W79588   8.209  17.760  12.535
11171W        W79589  26.970   6.331  11.459
11172W        W79590  14.781  26.461   0.365
11173W        W79591  25.081  44.334  14.511
11174W        W79592  41.934  43.013  12.469
11175W        W79593  36.546  21.699   2.860
11176W        W79594  29.020  24.974  11.542
11177W        W79595  11.279  30.603  13.911
11178W        W79596  28.515   1.297   4.823
11179W        W79597   5.335   4.297   0.403
11180W        W79598  13.830  42.003  12.418
11181W        W79599  34.500  42.830  10.571
11182W        W79600  15.189  12.794   0.904
11183W        W79601  40.839  11.849  13.975
11184W        W79602   3.273  20.258  11.456
11185W        W79603  23.717  10.338   4.192
11186W        W79604   6.330  30.424  10.492
11187W        W79605   1.832   1.298   3.290
11188W        W79606  36.579  23.065   2.885
11189W        W79607  23.200  19.768   2.833
11190W        W79608  33.017  12.711  13.543
11191W        W79609  15.745  11.221   0.450
11192W        W79610  24.131  16.664  12.562
11193W        W79611  27.966  12.354  14.011
11194W        W79612   6.824  37.928  10.595
11195W        W79613  28.082  22.741   0.778
11196W        W79614  10.788  25.169  13.424
11197W        W79615  40.393  38.372  10.511
11198W        W79616   9.708  35.511  12.896
11199W        W79617  15.134  30.960  13.409
11200W        W79618   6.189  35.864   0.381
11201W        W79619  17.660  37.849   2.217
11202W        W79620  39.412  40.384  10.635
11203W        W79621  24.176   7.197   1.362
11204W        W79622  38.564  37.996   4.617
11205W        W79623  35.097  28.140  11.991
11206W        W79624  40.998  29.062   4.822
11207W        W79625  24.154  21.076  11.892
11208W        W79626  31.988  15.809  14.909
11209W        W79627  13.339  37.419  12.951
11210W        W79628   2.362  32.636  14.415
11211W        W79629   8.339  30.620  10.997
11212W        W79630  18.131  44.885   0.945
11213W        W79631  21.636  16.167  13.531
11214W        W79632  20.620   3.778   2.788
11215W        W79633  24.016  44.337   0.834
11216W        W79634  15.168  34.479  11.459
11217W        W79635  16.102  32.461  10.621
11218W        W79636  39.971  21.577  14.331
11219W        W79637  29.434   6.228   1.269
11220W        W79638  34.408  29.480  13.992
11221W        W79639   6.684  31.061   3.843
11222W        W79640  41.372  34.473   0.808
11223W        W79641  32.045   2.888  14.773
11224W        W79642   3.445  17.657   0.313
11225W        W79643  16.661  33.438   1.697
11226W        W79644  11.622  11.306   1.256
11227W        W79645   3.709  13.662   4.782
11228W        W79646  14.707  18.721  12.013
11229W        W79647  18.086  12.770  10.494
11230W        W79648  12.646  36.034   1.929
11231W        W79649  27.056  11.805   2.822
11232W        W79650  33.908   5.224  12.047
11233W        W79651  44.352  34.069  12.390
11234W        W79652   5.294  24.979   5.294
11235W        W79653  40.995  10.797   1.444
11236W        W79654  27.956  42.286   4.281
11237W        W79655  14.259  39.517   2.688
11238W        W79656  40.362  12.760  14.871
11239W        W79657  12.339  29.607   4.683
11240W        W79658  13.725  11.782   3.702
11241W        W79659   8.304  41.355  12.558
11242W        W79660  20.764   9.796   4.811
11243W        W79661  14.706  28.038   2.407
11244W        W79662  34.556   9.779  14.813
11245W        W79663  15.584   7.905   9.572
11246W        W79664   7.318  42.488   1.912
11247W        W79665  33.129  35.917  14.936
11248W        W79666  38.883  32.132  11.520
11249W        W79667  27.677  30.057  11.086
11250W        W79668  21.019  23.101  14.966
11251W        W79669  29.994  21.133  11.448
11252W        W79670  17.164  42.409   3.344
11253W        W79671  36.441  31.472   2.405
11254W        W79672  42.000  28.116   4.272
11255W        W79673   5.212   4.293  12.857
11256W        W79674  42.943  24.664   0.892
11257W        W79675  31.533  44.819   3.840
11258W        W79676   1.780  24.655   4.194
11259W        W79677  12.237   1.336  13.470
11260W        W79678   6.845   0.802   0.782
11261W        W79679  41.480  23.667   3.196
11262W        W79680  25.560  15.816   2.227
11263W        W79681  11.130  32.447   4.294
11264W        W79682  38.454  29.622  10.905
11265W        W79683  27.020  14.789  11.948
11266W        W79684  34.017   6.808   3.293
11267W        W79685  44.355  33.879   1.708
11268W        W79686  42.994  25.535   2.833
11269W        W79687  11.243  42.905   3.711
11270W        W79688  41.494   9.878   0.340
11271W        W79689  29.936  21.696   0.801
11272W        W79690  44.886  17.630   0.917
11273W        W79691  22.082  23.087   2.377
11274W        W79692  41.520  19.712  11.395
11275W        W79693  19.738   4.822  13.821
11276W        W79694  14.317  38.057   3.310
11277W        W79695  43.459  21.235   4.738
11278W        W79696  35.412  13.802  11.548
11279W        W79697  26.470  31.636  11.886
11280W        W79698   1.354  22.656  14.767
11281W        W79699   2.947   4.722  13.028
11282W        W79700  11.253   1.336   3.317
11283W        W79701  21.217  10.832  11.122
11284W        W79702  17.671   6.304  14.937
11285W        W79703  31.618   6.856   0.472
11286W        W79704  20.645  44.010  12.446
11287W        W79705   5.363  44.959   0.833
11288W        W79706   0.289  19.227   3.819
11289W        W79707   6.879  17.793  10.604
11290W        W79708  41.936  30.620   3.858
11291W        W79709  44.879  23.134   1.348
11292W        W79710  12.671  41.930   1.701
11293W        W79711  42.898  10.242   3.304
11294W        W79712  11.253   9.842  13.326
11295W        W79713  25.142  28.590  11.128
11296W        W79714   4.763   9.317  10.533
11297W        W79715  15.690   6.754  11.447
11298W        W79716  37.858   8.172  13.020
11299W        W79717  28.453  36.845   3.665
11300W        W79718  40.394  40.468   2.847
11301W        W79719  22.661  38.423   5.703
11302W        W79720   3.395  22.220   1.211
11303W        W79721  22.730  22.239  11.012
11304W        W79722  26.076  16.779   4.720
11305W        W79723  14.128  15.315   4.210
11306W        W79724  37.995  35.502   0.749
11307W        W79725   2.250  42.836  14.489
11308W        W79726  22.036  39.480  12.899
11309W        W79727   5.853  19.739   0.415
11310W        W79728  18.608  34.373  12.095
11311W        W79729  19.259  25.587   0.925
11312W        W79730  39.060  40.360  13.319
11313W        W79731  29.971  35.591   0.384
11314W        W79732   0.857  42.025   3.163
11315W        W79733   0.778  10.765   1.896
11316W        W79734  37.995  40.839   4.203
11317W        W79735  41.347  34.609  10.484
11318W        W79736   7.871  22.656  13.831
11319W        W79737  27.974  40.387   4.805
11320W        W79738  36.488  37.955   2.763
11321W        W79739  21.624  16.267   1.233
11322W        W79740  16.073  27.456   4.666
11323W        W79741  44.778  37.902   3.367
11324W        W79742   7.311  12.116   3.656
11325W        W79743  18.722  19.270   3.295
11326W        W79744  16.756  18.634  14.328
11327W        W79745  24.043  25.568   1.839
11328W        W79746  35.045  44.492   0.805
11329W        W79747   8.206  17.295   2.816
11330W        W79748  21.724   5.897  12.349
11331W        W79749  15.212  36.841  11.457
11332W        W79750   3.814  28.590   3.643
11333W        W79751  31.078  25.615   0.426
11334W        W79752   5.427  43.415  13.948
11335W        W79753  11.313  19.585   4.222
11336W        W79754   7.740  35.456  14.285
11337W        W79755   0.807  27.497   2.700
11338W        W79756  21.734  13.767  13.884
11339W        W79757   8.202   8.705  12.081
11340W        W79758  35.540   3.378   5.188
11341W        W79759  33.083  36.940   4.678
11342W        W79760  15.262  32.038   0.422
11343W        W79761   1.867  24.508  13.040
11344W        W79762  33.920   3.351  12.919
11345W        W79763  12.787  11.300   3.296
11346W        W79764  23.633  20.244   1.411
11347W        W79765  18.630  14.304   5.305
11348W        W79766   6.920  10.301   2.373
11349W        W79767  13.182  38.934   0.831
11350W        W79768  24.170  30.148   2.809
11351W        W79769   6.773   6.873   0.962
11352W        W79770   2.966  44.331   0.924
11353W        W79771  37.474   7.384   2.850
11354W        W79772  29.502  11.340  12.046
11355W        W79773  33.613  14.150  14.841
11356W        W79774  12.690  28.599   4.793
11357W        W79775  34.909  21.748  12.340
11358W        W79776  10.861  36.365   0.857
11359W        W79777  17.134  27.581  13.835
11360W        W79778  32.943  40.872  12.980
11361W        W79779  35.476  34.526  12.399
11362W        W79780   7.867  23.024  12.938
11363W        W79781  32.993  15.622   2.219
11364W        W79782  14.652  33.892  12.062
11365W        W79783   2.337  16.222  10.405
11366W        W79784  23.706   9.341  12.539
11367W        W79785  17.169  17.230   4.640
11368W        W79786   7.750  41.520  12.942
11369W        W79787  30.049  20.733   2.370
11370W        W79788  26.680  34.077   1.221
11371W        W79789  12.832  34.554   1.307
11372W        W79790   6.738  12.849   3.837
11373W        W79791  27.968  22.011   3.757
11374W        W79792   3.449   7.289  11.594
11375W        W79793  44.794   2.257  14.386
11376W        W79794  36.945  11.764  11.377
11377W        W79795  12.813  29.158  10.462
11378W        W79796  24.503   7.673   2.839
11379W        W79797  11.714  33.923  12.046
11380W        W79798   9.739  35.933  14.981
11381W        W79799  24.973  40.867   3.357
11382W        W79800  15.151   7.206  14.459
11383W        W79801  19.746   2.417  14.471
11384W        W79802  18.658  17.144  14.327
11385W        W79803   9.797  22.087   2.778
11386W        W79804  23.186  33.537   2.284
11387W        W79805  30.104   7.263   3.703
11388W        W79806  20.551  43.506   4.836
11389W        W79807  13.723  24.150  11.572
11390W        W79808   6.297  36.552   0.416
11391W        W79809  32.627  29.516  13.515
11392W        W79810  38.452   5.268  11.038
11393W        W79811  13.661  36.996  13.844
11394W        W79812  41.925  11.182  13.380
11395W        W79813  24.025  27.029   1.332
11396W        W79814   6.229  25.548   4.665
11397W        W79815  27.690  38.022  11.981
11398W        W79816  37.872   2.759   0.745
11399W        W79817  37.079  12.196  11.047
11400W        W79818  10.681  22.658   2.374
11401W        W79819  35.500  13.675  13.410
11402W        W79820  22.146  36.886   2.789
11403W        W79821  26.602  40.335   4.316
11404W        W79822  24.668  22.552   2.748
11405W        W79823  28.967  44.861   2.291
11406W        W79824   8.813  17.254   1.214
11407W        W79825   8.315   9.283   4.190
11408W        W79826  12.616   4.942   1.359
11409W        W79827  39.938  42.291  11.127
11410W        W79828  16.180  39.855  14.914
11411W        W79829  43.989  20.615  11.509
11412W        W79830   9.709  16.269   2.385
11413W        W79831  11.308   9.767   2.786
11414W        W79832   7.195   9.658   4.269
11415W        W79833  18.199  19.164  11.375
11416W        W79834  30.985  12.169  10.609
11417W        W79835   1.777   0.447   1.841
11418W        W79836  10.730   3.904   4.118
11419W        W79837  28.165  33.560   4.790
11420W        W79838  33.946  30.053  12.484
11421W        W79839  44.365  22.036  14.878
11422W        W79840  31.464  38.563  14.915
11423W        W79841  11.730  13.715  14.391
11424W        W79842   8.401  43.849   4.726
11425W        W79843  19.044  23.553   0.278
11426W        W79844  14.821  44.306   2.767
11427W        W79845  22.085  10.182   0.467
11428W        W79846  38.367  34.037  10.508
11429W        W79847  24.575  30.588   4.234
11430W        W79848  10.189  20.236   4.235
11431W        W79849   9.393  31.452  10.506
11432W        W79850  24.661  36.918   4.180
11433W        W79851  19.050  42.925  13.370
11434W        W79852  39.396  10.220   1.435
11435W        W79853  27.585  13.784  14.344
11436W        W79854  34.981  41.880  13.526
11437W        W79855   8.312   4.222   2.690
11438W        W79856  43.411  21.744  12.055
11439W        W79857  42.886   6.374  13.869
11440W        W79858  38.346   5.696  12.371
11441W        W79859  18.726  19.548   3.233
11442W        W79860  18.554  20.703   0.936
11443W        W79861  32.131  43.509   1.745
11444W        W79862  14.282  20.524   0.422
11445W        W79863  24.520  40.332  14.404
11446W        W79864  41.865  35.561  12.014
11447W        W79865   3.461  31.900   9.943
11448W        W79866  35.361  39.531   2.346
11449W        W79867  18.257  14.700   4.337
11450W        W79868  41.531  20.113   4.121
11451W        W79869  25.537  38.997   3.637
11452W        W79870   7.878   2.768   3.690
11453W        W79871  42.962  22.150  12.049
11454W        W79872  39.406   2.734  13.355
11455W        W79873   7.217   3.720  11.402
11456W        W79874   2.966  28.116   0.877
11457W        W79875   0.898   6.405   1.831
11458W        W79876  31.023  34.970   1.737
11459W        W79877  24.555  22.606  11.479
11460W        W79878  34.503   9.676   2.281
11461W        W79879  19.062  39.951   1.868
11462W        W79880  42.814  40.307  12.501
11463W        W79881  24.996   8.801   3.187
11464W        W79882  39.528  18.665   1.882
11465W        W79883  10.175  30.523   0.316
11466W        W79884  19.149  28.470   1.428
11467W        W79885  12.260  21.085  11.564
11468W        W79886  37.361   1.431  11.563
11469W        W79887  36.446   5.356  13.796
11470W        W79888  29.053  17.103   0.280
11471W        W79889  15.209  23.053   3.740
11472W        W79890  13.648  26.010  10.907
11473W        W79891  24.996  23.138   4.679
11474W        W79892  32.608  26.188   3.350
11475W        W79893  12.620  10.696   0.767
11476W        W79894   0.464  10.338   3.202
11477W        W79895  18.735  35.460  10.995
11478W        W79896  23.075  36.592   1.836
11479W        W79897   1.406  17.114   0.965
11480W        W79898  43.402  18.287   1.447
11481W        W79899  34.523   8.807  10.464
11482W        W79900  11.704  17.189   2.664
11483W        W79901  27.996  25.624   1.874
11484W        W79902  17.103  10.668  11.507
11485W        W79903  44.422  39.391  10.909
11486W        W79904  26.687  41.959  12.829
11487W        W79905  35.510  35.863   3.869
11488W        W79906  26.994   2.833  12.552
11489W        W79907  11.729   4.919   0.347
11490W        W79908   3.747   1.877  13.425
11491W        W79909   6.305  12.278   2.709
11492W        W79910  24.081  44.851  13.333
11493W        W79911  16.149  25.105  13.987
11494W        W79912  26.032  34.476  12.984
11495W        W79913   2.468  37.538  14.864
11496W        W79914   5.285   0.828   3.164
11497W        W79915  39.018  15.680   3.815
11498W        W79916   1.753  44.759   2.411
11499W        W79917  24.514  29.638   3.267
11500W        W79918   3.784   8.839  12.359
11501W        W79919  42.985  37.984  12.955
11502W        W79920  18.774   8.242   3.188
11503W        W79921  17.675  41.975   2.249
11504W        W79922  15.783  42.813   0.286
11505W        W79923  39.816   6.680  13.471
11506W        W79924  42.302   1.275  12.091
11507W        W79925   4.728  18.078  10.003
11508W        W79926   0.255   4.723  10.576
11509W        W79927  33.972  30.099  13.997
11510W        W79928  22.029  18.653  11.897
11511W        W79929  12.799  20.648   4.775
11512W        W79930  34.943   8.371  12.487
11513W        W79931  24.518  29.029  12.506
11514W        W79932  28.626  22.088  12.458
11515W        W79933  28.011  33.086  13.340
11516W        W79934  42.003  19.617  10.989
11517W        W79935  18.652  24.481   3.784
11518W        W79936   6.282  23.580   3.772
11519W        W79937  37.439   0.262  12.469
11520W        W79938  35.025   7.725   0.753
11521W        W79939  27.506  10.690  12.041
11522W        W79940  22.064  15.196  12.423
11523W        W79941  39.976  41.515   2.380
11524W        W79942   5.891  40.031  14.901
11525W        W79943  19.050   0.407   0.828
11526W        W79944  16.269  13.741   2.180
11527W        W79945  13.718  15.313   2.767
11528W        W79946  22.654  32.100   2.316
11529W        W79947  31.584  22.068  12.468
11530W        W79948  33.086  18.626   4.261
11531W        W79949   7.324  24.113  14.883
11532W        W79950  33.903  39.997  14.829
11533W        W79951   4.708  24.711  10.406
11534W        W79952  26.649  41.477  13.313
11535W        W79953  32.127  43.512   2.340
11536W        W79954  16.127  27.457  10.526
11537W        W79955   8.766  27.508  10.536
11538W        W79956  25.186  29.052  14.444
11539W        W79957  11.346  13.753  14.353
11540W        W79958  42.978  15.824  14.834
11541W        W79959   9.698  12.143  13.915
11542W        W79960  26.166  30.043   0.266
11543W        W79961  39.863  29.960   4.212
11544W        W79962  22.686  22.600  13.970
11545W        W79963  22.746  12.812   2.249
11546W        W79964  29.445   4.299  10.419
11547W        W79965  13.778  22.637   0.456
11548W        W79966  25.071  40.955   4.764
11549W        W79967  39.887  11.152   2.866
11550W        W79968  41.808   5.415  14.904
11551W        W79969  34.548  26.064  10.521
11552W        W79970  23.196  44.770   4.682
11553W        W79971  35.578  28.589  11.526
11554W        W79972  35.410   0.294  12.895
11555W        W79973  37.072   5.825  14.355
11556W        W79974  40.848  22.719   2.700
11557W        W79975  24.651  40.460  13.035
11558W        W79976  40.359  40.981   0.310
11559W        W79977   7.766  20.758  11.469
11560W        W79978  27.059  10.211   5.255
11561W        W79979  10.769  11.734   2.794
11562W        W79980  26.476  23.565   5.146
11563W        W79981  10.825  17.557   1.239
11564W        W79982  12.665  33.621   2.790
11565W        W79983   0.902  33.415  10.489
11566W        W79984  38.908  35.551  14.516
11567W        W79985  40.392  44.457  11.484
11568W        W79986  27.457   6.923  14.336
11569W        W79987  41.303  31.515  14.457
11570W        W79988  41.332  24.991   1.265
11571W        W79989  14.610   5.803  13.530
11572W        W79990  43.018   2.234   4.708
11573W        W79991  12.179  29.579   4.142
11574W        W79992   0.977   0.327   2.807
11575W        W79993  16.246  30.554  10.944
11576W        W79994  37.052  44.478  13.335
11577W        W79995  19.080  34.398  14.504
11578W        W79996  24.543  38.960  11.378
11579W        W79997  34.515   4.284   4.114
11580W        W79998  34.413  40.485   2.362
11581W        W79999  16.583  41.927  14.019
11582W        W80000   8.353  15.679   2.783
11583W        W80001  29.663   1.329  13.959
11584W        W80002  26.642  11.796   0.832
11585W        W80003  25.151   7.377  13.920
11586W        W80004  24.037  18.100  14.414
11587W        W80005   7.832  38.498  14.403
11588W        W80006  43.889  41.938   1.826
11589W        W80007   1.342  15.641   1.318
11590W        W80008  29.469   9.264  10.642
11591W        W80009  32.425  37.950  13.961
11592W        W80010  34.039  38.833  13.422
11593W        W80011  21.538   9.688   4.304
11594W        W80012  14.285   3.880   1.810
11595W        W80013  34.935  44.981   4.619
11596W        W80014   6.832  33.946   1.776
11597W        W80015   0.269  13.114  11.610
11598W        W80016  32.628  14.125  13.960
11599W        W80017  19.778   4.346  13.307
11600W        W80018  14.310   5.405   4.758
11601W        W80019  27.674  42.824  11.475
11602W        W80020  18.080  41.493  13.858
11603W        W80021  35.437   0.325  12.059
11604W        W80022  23.197   6.727   1.278
11605W        W80023  22.587   2.888   1.731
11606W        W80024  36.869  26.993   3.181
11607W        W80025  42.322  42.461  10.527
11608W        W80026  16.731  39.458   3.675
11609W        W80027   9.722  38.015   2.258
11610W        W80028  14.253  37.894   2.683
11611W        W80029  24.652  14.829   2.379
11612W        W80030  38.501  31.976  11.094
11613W        W80031  24.081  10.238  14.305
11614W        W80032  40.321  15.665   4.816
11615W        W80033   9.871  32.103   2.264
11616W        W80034  40.826  31.645   1.223
11617W        W80035  11.327  30.909  14.508
11618W        W80036  35.524  31.426  11.938
11619W        W80037   9.214  39.890   2.317
11620W        W80038  39.465  24.647  14.961
11621W        W80039  31.532  29.540   1.809
11622W        W80040  38.467   2.386  13.382
11623W        W80041  21.660  34.399  14.946
11624W        W80042  27.174   5.909   2.223
11625W        W80043  33.126  36.852   4.270
11626W        W80044  22.217   6.290  11.392
11627W        W80045  29.651  42.285  13.491
11628W        W80046  28.929  26.607  14.487
11629W        W80047  17.770  43.889   2.290
11630W        W80048  18.552  43.950  10.517
11631W        W80049  17.179  38.976  13.002
11632W        W80050  40.428  13.178  11.090
11633W        W80051   6.309  28.063  12.498
11634W        W80052  10.142   9.291  11.005
11635W        W80053  41.927  31.476  12.475
11636W        W80054  40.459  34.539   5.229
11637W        W80055   0.857  19.068   2.206
11638W        W80056   2.816  29.453  14.432
11639W        W80057  14.722  26.123   4.668
11640W        W80058  38.422   8.671  10.534
11641W        W80059   5.292  31.928   1.232
11642W        W80060   6.799  27.649   4.635
11643W        W80061  25.991   0.804   3.833
11644W        W80062  10.687   4.742  14.509
11645W        W80063  40.986  40.816   9.654
11646W        W80064   1.294  24.209  11.987
11647W        W80065  44.854  32.935  10.590
11648W        W80066   7.323  36.471   2.348
11649W        W80067  40.318  43.990   0.871
11650W        W80068  44.965  31.416  10.443
11651W        W80069  11.785  37.408   1.779
11652W        W80070  31.085  27.987   0.917
11653W        W80071  18.255  33.971   4.343
11654W        W80072  14.697   2.336   1.840
11655W        W80073  21.126   9.877   2.370
11656W        W80074  21.194   3.282  10.430
11657W        W80075  36.424  28.081  12.439
11658W        W80076  31.468  23.696   2.313
11659W        W80077  15.657  12.803  14.961
11660W        W80078  34.883  12.349   2.279
11661W        W80079  21.531   1.963   3.375
11662W        W80080   0.455  23.211  10.627
11663W        W80081  16.673  36.436   0.340
11664W        W80082  37.048  39.530  12.375
11665W        W80083  25.635   3.769  11.571
11666W        W80084  14.178  43.324   1.316
11667W        W80085  39.996  39.511  11.425
11668W        W80086  29.482  16.071  14.482
11669W        W80087  26.013  38.385   4.326
11670W        W80088  29.056   2.927  11.074
11671W        W80089  30.097  39.059   3.718
11672W        W80090  24.034  25.700  14.963
11673W        W80091  21.040  28.032  11.857
11674W        W80092  37.835  20.579  10.425
11675W        W80093  27.552  35.425   2.669
11676W        W80094  11.622  35.975  10.074
11677W        W80095  13.140   5.263   0.888
11678W        W80096   3.825  26.466  11.062
11679W        W80097  43.286  37.349   4.283
11680W        W80098  16.571   6.398   5.275
11681W        W80099   7.833  28.484   0.750
11682W        W80100   7.890  13.834  10.423
11683W        W80101   1.351  19.722   9.980
11684W        W80102   4.907  11.285  12.937
11685W        W80103  20.109  24.532   2.382
11686W        W80104  13.628  11.629   4.610
11687W        W80105  38.488   5.803   0.462
11688W        W80106  37.419  16.217   0.822
11689W        W80107  44.989  36.465   3.242
11690W        W80108  14.214   8.254  10.899
11691W        W80109   2.869  42.362  10.412
11692W        W80110  39.864  35.469   3.664
11693W        W80111  26.146  25.520   4.130
11694W        W80112  32.500  26.632   4.634
11695W        W80113  15.316   5.309  11.968
11696W        W80114  12.147   0.442   1.708
11697W        W80115  40.459  23.730  14.776
11698W        W80116  25.139  41.413   2.214
11699W        W80117  22.699  15.773  12.355
11700W        W80118  31.440  10.286   2.756
11701W        W80119  39.868   4.278   1.801
11702W        W80120   1.918  42.298  12.500
11703W        W80121  19.541  33.439   2.276
11704W        W80122  17.120  40.442   4.774
11705W        W80123  28.014  30.431   9.920
11706W        W80124   4.401  40.399   3.178
11707W        W80125  32.558  21.531   0.281
11708W        W80126  42.830   9.684   1.415
11709W        W80127  35.001  32.623  13.523
11710W        W80128  27.145   8.387   2.664
11711W        W80129  17.660  16.773  11.575
11712W        W80130  40.985  14.129  13.892
11713W        W80131  23.610  24.609  11.516
11714W        W80132  15.763  22.059  14.914
11715W        W80133  20.247   1.900   2.278
11716W        W80134  19.068  11.215   3.259
11717W        W80135  42.821  39.930  12.467
11718W        W80136  14.726   6.860  11.529
11719W        W80137  31.581  34.575   4.621
11720W        W80138  33.495  34.426  14.805
11721W        W80139  36.405  12.699   4.177
11722W        W80140  28.511  25.164  10.592
11723W        W80141   4.259  37.390   2.802
11724W        W80142  37.988  31.921   4.261
11725W        W80143   6.362   9.262   2.776
11726W        W80144   4.867  22.163   1.291
11727W        W80145   0.901  40.479   4.120
11728W        W80146  12.163   2.885  13.839
11729W        W80147   4.886  20.736   4.792
11730W        W80148  32.609  41.971  13.042
11731W        W80149  18.224  22.064  11.391
11732W        W80150   8.318   1.898   1.784
11733W        W80151  36.482  29.042   2.344
11734W        W80152  17.697   5.855   9.605
11735W        W80153  37.498   9.678  11.566
11736W        W80154  43.449  17.672  13.968
11737W        W80155  42.017  38.894   2.694
11738W        W80156   9.866  13.290  13.846
11739W        W80157  37.926  43.931  12.068
11740W        W80158  41.008   8.407  12.892
11741W        W80159   9.257  26.132  13.845
11742W        W80160  15.275   6.324  13.846
11743W        W80161  10.359  26.644  13.943
11744W        W80162   5.249  26.492   4.803
11745W        W80163  19.072  38.554  11.002
11746W        W80164  10.145  38.831   4.748
11747W        W80165  21.661   6.862  10.951
11748W        W80166  40.854  26.464  14.450
11749W        W80167  18.565  30.919   4.630
11750W        W80168  12.627  24.052   3.209
11751W        W80169  28.079  35.084  10.543
11752W        W80170   4.377   5.273   3.175
11753W        W80171  15.212  23.102   2.792
11754W        W80172  36.095  29.011   2.740
11755W        W80173   7.745  22.675  12.543
11756W        W80174   4.809   6.327  10.897
11757W        W80175   4.792  22.695   2.200
11758W        W80176  10.698  30.618   2.202
11759W        W80177   8.278   1.958   1.428
11760W        W80178  15.202  24.617   0.820
11761W        W80179  28.437  13.317   2.797
11762W        W80180   8.234  16.144  13.359
11763W        W80181  28.452  17.571   2.694
11764W        W80182  32.961  17.662   0.925
11765W        W80183   6.720  33.041   1.355
11766W        W80184  13.299  26.138  13.041
11767W        W80185  24.151  15.150  12.882
11768W        W80186  10.708  42.830  14.918
11769W        W80187  33.884   2.251  12.939
11770W        W80188  37.046  38.015   2.350
11771W        W80189   8.390  40.343   0.884
11772W        W80190  24.028  41.455   4.737
11773W        W80191  19.771  34.894  11.581
11774W        W80192  32.132  16.610  12.469
11775W        W80193  21.109  10.748  14.451
11776W        W80194  11.783   1.290   4.625
11777W        W80195   1.300  32.041   1.893
11778W        W80196  37.484  21.124  13.928
11779W        W80197   6.687  42.500   0.340
11780W        W80198  15.669   3.744  12.953
11781W        W80199  18.105  17.114   0.324
11782W        W80200  19.251   2.379  12.877
11783W        W80201  31.547  19.715  13.803
11784W        W80202  37.060  30.649  11.485
11785W        W80203   7.174  18.655  13.539
11786W        W80204  25.632   2.288  10.500
11787W        W80205  17.655  26.188  14.954
11788W        W80206  42.283  43.957  14.311
11789W        W80207  18.162   0.269   4.641
11790W        W80208  35.029  34.371   1.236
11791W        W80209  10.839  36.969  14.337
11792W        W80210  19.155   7.834   0.361
11793W        W80211  34.962  33.550   5.182
11794W        W80212  32.480  42.890  14.844
11795W        W80213  27.097   0.900  10.494
11796W        W80214  20.044  35.502   1.867
11797W        W80215  17.144  12.787  11.112
11798W        W80216  26.192   6.315   4.734
11799W        W80217  29.646  15.157   4.333
11800W        W80218  19.128  24.219   0.375
11801W        W80219  44.404  30.589   1.299
11802W        W80220  39.557  34.495   2.693
11803W        W80221   7.802  43.345  14.314
11804W        W80222  29.460   6.394  13.860
11805W        W80223  32.417  16.226  11.960
11806W        W80224  35.550  18.766  13.902
11807W        W80225   7.721  11.810  11.494
11808W        W80226  19.065  35.881   0.904
11809W        W80227  15.204   4.423   0.793
11810W        W80228  44.780  37.017  10.424
11811W        W80229   6.844   8.196  13.457
11812W        W80230  12.746  36.474   2.869
11813W        W80231  29.514  14.116   4.302
11814W        W80232   1.830  23.698   4.352
11815W        W80233  25.117   7.174   1.922
11816W        W80234   5.872   6.728   2.680
11817W        W80235  38.904  30.488  14.844
11818W        W80236  19.655   0.936  14.007
11819W        W80237  44.802  22.706   0.280
11820W        W80238  42.521  33.928   4.298
11821W        W80239  17.303  29.587   3.147
11822W        W80240  35.857   4.287   3.796
11823W        W80241  30.504   3.454   4.715
11824W        W80242  16.721   5.750   5.121
11825W        W80243  23.501  43.406   0.267
11826W        W80244  19.719  44.281  13.510
11827W        W80245  12.323   3.239  13.517
11828W        W80246  34.522   8.840   3.260
11829W        W80247  41.843  12.816  12.077
11830W        W80248  21.116  26.597  10.550
11831W        W80249  24.686  13.234   4.245
11832W        W80250   1.848  44.931  10.891
11833W        W80251   8.221  17.781  10.945
11834W        W80252  35.424  19.734  12.497
11835W        W80253  31.077   6.681  11.515
11836W        W80254  17.662  11.360  14.442
11837W        W80255   5.321   6.324  12.579
11838W        W80256  34.587  24.223  10.959
11839W        W80257  37.401  18.070   2.210
11840W        W80258  28.555  31.642  12.974
11841W        W80259  31.465  18.558   1.259
11842W        W80260  24.621  13.206  13.912
11843W        W80261  15.295   5.265  10.896
11844W        W80262  26.171  22.202   0.296
11845W        W80263  19.617   5.409  10.408
11846W        W80264  26.510  21.594   4.133
11847W        W80265  41.449  41.366   9.955
11848W        W80266  15.191  25.075  14.450
11849W        W80267  37.855  37.464   5.211
11850W        W80268   2.802  24.026  11.891
11851W        W80269  21.672  37.069   3.768
11852W        W80270   1.780  30.591  11.867
11853W        W80271  42.931   3.928   3.358
11854W        W80272  43.453  17.741  11.395
11855W        W80273  43.383  32.473  11.007
11856W        W80274  36.411  18.083   9.938
11857W        W80275  19.186  38.544  14.809
11858W        W80276  40.925  31.408   0.805
11859W        W80277   2.377  31.448  12.553
11860W        W80278  35.915   8.237   2.686
11861W        W80279  33.061   7.284  13.993
11862W        W80280  31.143  24.999   3.639
11863W        W80281  22.042   6.753  13.541
11864W        W80282  10.149  43.408  11.407
11865W        W80283  42.895  16.617   3.153
11866W        W80284  28.131   4.776   2.833
11867W        W80285  30.545  29.969  12.497
11868W        W80286   5.761   4.375   1.796
11869W        W80287  15.090  32.571   1.871
11870W        W80288  27.087   8.871  11.006
11871W        W80289  24.484   2.821   2.217
11872W        W80290   4.384   2.944   1.736
11873W        W80291  20.263  34.550  12.858
11874W        W80292  30.019  42.459  11.957
11875W        W80293   1.963  21.141   5.136
11876W        W80294  16.151   1.971   1.928
11877W        W80295  26.201  37.506  10.424
11878W        W80296  21.536  24.044  14.471
11879W        W80297  15.730  28.654   4.812
11880W        W80298  11.189  41.354   2.224
11881W        W80299  25.637   9.346   0.293
11882W        W80300  29.666   4.753  10.639
11883W        W80301  35.516  14.298  12.523
11884W        W80302  20.087   0.883   3.652
11885W        W80303  10.857  24.207  12.902
11886W        W80304   5.745  24.150  13.905
11887W        W80305  27.119  40.836  12.973
11888W        W80306   0.934  22.574   0.401
11889W        W80307  24.700  26.986  10.442
11890W        W80308  41.994  20.138   4.141
11891W        W80309  43.487  23.531  13.004
11892W        W80310  43.948  23.518  13.828
11893W        W80311  27.025   7.343   2.359
11894W        W80312  31.468   4.374   1.434
11895W        W80313  14.659  20.242  13.922
11896W        W80314   1.815   9.249   2.199
11897W        W80315  28.081  32.114  14.383
11898W        W80316  34.603  32.014  12.389
11899W        W80317  26.196  43.493  11.504
11900W        W80318   4.891   9.319   2.381
11901W        W80319  34.506  31.490   0.765
11902W        W80320  15.657   4.244   4.746
11903W        W80321   0.899   4.931  13.869
11904W        W80322  19.227  16.108  10.455
11905W        W80323  42.808  22.050  10.644
11906W        W80324  39.982  16.710  11.113
11907W        W80325  37.959  14.794  13.531
11908W        W80326  20.757  42.817  10.618
11909W        W80327  18.642   9.236  14.806
11910W        W80328  22.701  31.605   4.205
11911W        W80329  14.778  12.703  10.512
11912W        W80330  17.124  44.284  13.835
11913W        W80331  40.998  44.983   0.404
11914W        W80332  40.542  21.227   5.284
11915W        W80333  26.134  41.312  10.487
11916W        W80334  42.025   6.885   0.750
11917W        W80335   5.354  32.555   1.441
11918W        W80336  17.752  39.019   3.753
11919W        W80337  11.143  16.292  12.399
11920W        W80338   0.444  43.857   2.418
11921W        W80339  12.237  35.451   0.862
11922W        W80340  10.318   7.349  14.355
11923W        W80341  20.604  33.436   3.762
11924W        W80342  22.190  40.533   9.486
11925W        W80343  19.571  20.119  10.928
11926W        W80344  26.604  18.179  12.382
11927W        W80345  37.572   8.747  11.513
11928W        W80346  12.767  11.818   4.330
11929W        W80347  16.163   7.213   0.825
11930W        W80348  25.091  15.151   0.860
11931W        W80349  41.791   2.914   4.748
11932W        W80350  22.024  44.836   1.279
11933W        W80351  42.485  20.605  13.831
11934W        W80352   1.344  42.438   4.798
11935W        W80353  34.118  37.366   3.281
11936W        W80354  44.442   6.347   0.804
11937W        W80355  34.980  37.386  12.995
11938W        W80356   7.852  11.721   1.921
11939W        W80357  35.557  27.604   1.884
11940W        W80358  38.928   1.815   3.648
11941W        W80359  43.292  25.678   3.202
11942W        W80360  31.564  24.223  12.563
11943W        W80361   5.317  41.822   1.381
11944W        W80362  19.142  43.803  14.934
11945W        W80363   1.412   5.848  14.415
11946W        W80364  15.767  29.045   1.409
11947W        W80365  30.584   4.251   1.448
11948W        W80366  29.455  30.981   1.704
11949W        W80367  36.526  11.300   3.226
11950W        W80368   4.855  19.210   3.817
11951W        W80369  37.036   2.472   2.772
11952W        W80370   0.263  13.814   3.783
11953W        W80371  14.699  15.591  14.339
11954W        W80372  44.475  23.007  13.003
11955W        W80373  41.838  19.641   3.319
11956W        W80374  39.364  17.686  10.409
11957W        W80375  34.917  21.721  11.973
11958W        W80376  28.440  27.448   0.418
11959W        W80377  42.926  30.145  13.839
11960W        W80378  15.733  41.030  12.862
11961W        W80379   3.384  42.030  14.475
11962W        W80380  14.118  18.667  13.058
11963W        W80381  23.985  24.559  13.894
11964W        W80382   1.306  26.613   0.877
11965W        W80383  40.934  13.623  10.468
11966W        W80384  12.769  11.156   3.794
11967W        W80385   7.770  40.949  12.062
11968W        W80386  23.002  42.305   4.608
11969W        W80387  23.050  44.853   0.355
11970W        W80388  21.647   1.449  12.490
11971W        W80389  10.380  18.276   0.815
11972W        W80390   2.877   5.921  10.537
11973W        W80391  37.489  41.375  13.947
11974W        W80392  23.585  35.064   0.398
11975W        W80393  20.750  17.567   1.849
11976W        W80394   8.275  35.550   2.666
11977W        W80395  31.082  34.422   1.303
11978W        W80396  10.222  30.615  10.469
11979W        W80397  18.723  19.689  13.429
11980W        W80398  32.537  21.531  10.583
11981W        W80399  40.355  31.537   3.688
11982W        W80400  17.725  16.122  12.534
11983W        W80401  43.485  27.686  14.775
11984W        W80402   3.822  11.188  14.785
11985W        W80403  16.743  14.777  11.043
11986W        W80404  28.947  24.989   2.307
11987W        W80405  34.518  31.557  11.569
11988W        W80406   3.937  21.149  10.141
11989W        W80407   8.887   3.817  13.396
11990W        W80408  27.460   9.273   9.539
11991W        W80409   2.893  24.115   0.922
11992W        W80410  39.491  19.108  13.426
11993W        W80411  14.302  41.360  13.362
11994W        W80412  25.528  33.522  10.475
11995W        W80413  25.128  10.296   3.306
11996W        W80414  40.518   2.914  10.583
11997W        W80415  25.678   4.734  12.898
11998W        W80416  28.178  34.372   4.350
11999W        W80417  29.652  15.591  10.989
12000W        W80418  10.806  26.077  12.825
12001W        W80419  43.477   7.270  13.868
12002W        W80420   3.260  40.545   3.632
12003W        W80421  35.434  13.626   4.712
12004W        W80422   8.866  29.483   2.278
12005W        W80423  32.402  25.654   1.771
12006W        W80424   1.824  23.681   4.776
12007W        W80425  16.231   1.821   3.832
12008W        W80426  39.961  40.797  14.447
12009W        W80427  13.754   2.952   2.743
12010W        W80428  12.331  40.519  13.863
12011W        W80429   2.843   9.681  13.994
12012W        W80430  30.489  32.065  14.926
12013W        W80431  13.648  25.055   0.451
12014W        W80432  40.372   8.850  14.766
12015W        W80433  24.060   6.689   0.859
12016W        W80434  16.609  18.764   3.256
12017W        W80435  11.638   0.929  13.395
12018W        W80436  44.262  30.034  13.962
12019W        W80437  42.355  40.370   4.707
12020W        W80438  29.572   4.274  14.859
12021W        W80439  27.657  42.912   0.743
12022W        W80440   5.208  43.509   0.482
12023W        W80441   6.379   1.474  10.644
12024W        W80442  16.734  30.986   3.307
12025W        W80443  29.457  23.151  10.470
12026W        W80444  12.802  15.617   0.757
12027W        W80445  15.763   8.725  13.841
12028W        W80446  20.151  28.016   2.396
12029W        W80447  16.144  31.509   0.255
12030W        W80448   2.897  32.973   0.305
12031W        W80449   5.343  29.990   4.280
12032W        W80450  26.586  12.294  12.908
12033W        W80451  36.543  13.758   0.406
12034W        W80452  12.117  31.059   1.803
12035W        W80453  41.866   1.785   1.925
12036W        W80454  25.097  34.892  14.440
12037W        W80455  40.004   6.245  13.388
12038W        W80456  14.729   0.383   1.247
12039W        W80457  20.599  17.686  13.944
12040W        W80458   4.216  11.756   3.235
12041W        W80459  40.355  21.084   2.755
12042W        W80460  26.076  14.276   2.763
12043W        W80461   8.324  43.434   4.343
12044W        W80462  22.674  30.040   4.250
12045W        W80463   8.846  12.626  13.461
12046W        W80464  41.981  13.246  14.456
12047W        W80465  30.573  14.669  14.841
12048W        W80466   3.217  24.210  14.515
12049W        W80467  35.413   9.837   0.966
12050W        W80468  43.919  29.954   1.449
12051W        W80469  21.170  12.621  14.806
12052W        W80470  28.179  41.879  13.428
12053W        W80471   4.423  23.103   0.432
12054W        W80472  15.604   1.327   4.630
12055W        W80473  20.263   4.248  12.503
12056W        W80474   6.359   5.409   1.298
12057W        W80475  35.389  43.442  13.801
12058W        W80476  23.010  11.791  13.000
12059W        W80477  40.031  22.515   4.250
12060W        W80478   6.799   9.302  12.004
12061W        W80479   6.705   7.844  14.932
12062W        W80480  28.005  23.621   0.358
12063W        W80481  17.230   5.431  10.449
12064W        W80482  24.715  17.630   0.410
12065W        W80483  19.542  14.258   1.213
12066W        W80484   9.369  12.116   2.874
12067W        W80485  42.374  37.987   4.292
12068W        W80486  20.762  22.153  12.938
12069W        W80487  34.085   0.340  11.472
12070W        W80488  43.901  35.395  12.861
12071W        W80489  31.590   6.791   3.368
12072W        W80490   3.797  17.230  13.023
12073W        W80491  27.506   3.251  13.382
12074W        W80492  21.621   5.250  11.874
12075W        W80493  39.350  21.576  12.090
12076W        W80494  34.982   0.427  14.784
12077W        W80495  10.307  40.465   3.371
12078W        W80496  42.925   3.334  11.912
12079W        W80497  37.889  24.519   0.266
12080W        W80498  16.243   3.790   1.907
12081W        W80499  42.435  12.305   2.753
12082W        W80500  27.112  41.858  10.507
12083W        W80501  24.706  29.466  13.003
12084W        W80502  15.208  18.553  11.999
12085W        W80503  10.212  42.791   0.852
12086W        W80504  13.304  41.388   0.788
12087W        W80505  25.534   2.742  13.988
12088W        W80506  31.093  39.846  13.341
12089W        W80507  42.842  38.353   9.631
12090W        W80508  24.490  22.196  13.538
12091W        W80509  27.677  12.801  12.072
12092W        W80510  10.270  37.476   3.164
12093W        W80511   8.321  25.176   3.689
12094W        W80512  41.837  11.212   1.808
12095W        W80513   4.425   8.658  14.994
12096W        W80514  17.556  32.009   3.828
12097W        W80515  25.482  39.361  12.096
12098W        W80516  41.874   1.736  13.848
12099W        W80517  26.513   0.949   4.754
12100W        W80518   2.229  23.236   1.367
12101W        W80519   7.377  22.115  13.435
12102W        W80520   3.255  14.303   4.651
12103W        W80521  33.123   1.330  13.936
12104W        W80522   5.385  42.433  12.851
12105W        W80523  19.039  15.684   2.887
12106W        W80524   6.345  38.409   4.261
12107W        W80525  40.346  19.157  14.890
12108W        W80526  43.382  25.637   4.156
12109W        W80527  22.651  31.439   3.259
12110W        W80528  12.792  12.732   3.762
12111W        W80529   6.876  41.365   1.788
12112W        W80530  15.178  12.144  13.942
12113W        W80531  25.537  10.636  13.439
12114W        W80532  26.079  21.080   4.732
12115W        W80533   9.724  31.566   0.837
12116W        W80534  34.532   5.702   2.791
12117W        W80535  20.129  16.263  13.902
12118W        W80536  22.674  29.499   1.893
12119W        W80537  22.738  43.800  10.570
12120W        W80538  35.563  38.328   1.399
12121W        W80539  43.398  33.996  10.919
12122W        W80540  20.605  39.427  10.560
12123W        W80541   7.267   8.741   1.271
12124W        W80542  28.669   5.288  13.008
12125W        W80543  39.040  37.486  11.070
12126W        W80544  31.581   7.910   2.885
12127W        W80545  27.944  11.237   9.969
12128W        W80546  23.201  19.264  14.914
12129W        W80547   8.684  18.102  12.953
12130W        W80548  11.712   8.194   3.159
12131W        W80549  21.698  38.534  12.917
12132W        W80550  15.127  22.066  13.822
12133W        W80551  12.154  29.147  14.840
12134W        W80552  41.295  26.140  12.966
12135W        W80553  20.703  25.080   3.202
12136W        W80554  18.190  16.095   2.725
12137W        W80555  23.141  35.100  11.514
12138W        W80556  43.891  38.001  12.370
12139W        W80557  32.000   2.388   5.135
12140W        W80558   7.668   3.229   1.815
12141W        W80559  22.138  34.080   0.942
12142W        W80560   8.235  20.068  12.992
12143W        W80561  33.007   4.355  12.367
12144W        W80562  26.488   9.361  11.045
12145W        W80563   1.769  36.543   4.191
12146W        W80564   5.382  37.572  10.983
12147W        W80565   3.940  42.022  13.891
12148W        W80566   4.912  33.951  12.044
12149W        W80567  39.883  29.105  13.315
12150W        W80568  40.987  14.181   3.363
12151W        W80569  10.373   7.878  11.579
12152W        W80570  42.322  28.628  12.359
12153W        W80571  11.269  13.750  12.402
12154W        W80572   0.940  20.224  11.505
12155W        W80573  43.451  40.392   4.229
12156W        W80574  20.264  21.191  14.470
12157W        W80575   4.269  35.014  12.376
12158W        W80576  41.880  13.263  12.968
12159W        W80577   0.439   9.213  14.436
12160W        W80578   4.791   4.239  13.376
12161W        W80579  10.176  36.454  13.894
12162W        W80580  19.183  33.385  10.604
12163W        W80581  23.530  20.759   0.247
12164W        W80582  22.009  41.335  14.324
12165W        W80583  43.888   7.299   2.412
12166W        W80584  17.773  39.013  10.616
12167W        W80585   7.679  22.523   4.682
12168W        W80586   3.361   7.782  13.010
12169W        W80587  10.194  25.091  13.372
12170W        W80588   0.420  10.713  12.519
12171W        W80589  30.160   7.668  11.372
12172W        W80590  24.156  44.856   1.929
12173W        W80591   0.334  24.573  12.893
12174W        W80592  24.523  35.472  13.838
12175W        W80593  30.154   8.767  14.312
12176W        W80594  26.122  16.131  14.278
12177W        W80595  36.386  24.547  13.010
12178W        W80596  22.085   2.764  12.851
12179W        W80597  26.176  34.971  11.986
12180W        W80598  31.538  35.488  14.968
12181W        W80599  21.652  35.004   2.900
12182W        W80600  27.053  13.319   4.734
12183W        W80601  31.112  21.592   0.368
12184W        W80602   1.369  35.587  12.850
12185W        W80603  13.769  33.384   2.799
12186W        W80604  23.616  32.553   4.692
12187W        W80605  10.352  26.517  12.562
12188W        W80606  16.739  28.486  10.598
12189W        W80607  10.149   9.790   0.834
12190W        W80608  10.819  44.305  14.808
12191W        W80609  10.812  34.392   3.776
12192W        W80610  10.200  22.639   0.748
12193W        W80611  37.384  41.848  11.373
12194W        W80612  25.624  24.655   3.334
12195W        W80613   6.685  25.519  13.384
12196W        W80614  43.013  37.543   0.852
12197W        W80615  12.853  14.825  14.949
12198W        W80616  32.040  43.362  14.813
12199W        W80617  18.180  37.377  10.943
12200W        W80618  27.658  21.166  14.837
12201W        W80619  20.236   4.824  12.844
12202W        W80620  35.578  34.115   3.689
12203W        W80621  26.549  35.457   0.784
12204W        W80622  26.017  20.725   4.198
12205W        W80623  14.222   3.890  11.595
12206W        W80624   2.811  20.042   4.671
12207W        W80625  39.945  12.212   3.747
12208W        W80626  35.923  30.513  11.407
12209W        W80627  26.466   0.937   4.323
12210W        W80628  34.921  42.941  13.871
12211W        W80629  27.995  41.019  14.366
12212W        W80630  38.525  11.833   2.869
12213W        W80631  19.693  42.980   4.309
12214W        W80632   0.473  38.979   0.862
12215W        W80633   9.666   3.833  13.480
12216W        W80634  37.470  25.525   4.618
12217W        W80635  27.972  15.817  14.881
12218W        W80636  44.866  38.487  13.310
12219W        W80637  15.157   3.219   5.174
12220W        W80638  27.098  22.226  10.543
12221W        W80639  13.695  39.933   1.915
12222W        W80640  22.131  10.665  11.496
12223W        W80641  31.902  33.057   3.282
12224W        W80642   2.774   9.381   0.387
12225W        W80643  33.558  43.802  12.497
12226W        W80644  30.122  25.681   0.407
12227W        W80645  20.058   4.907  14.866
12228W        W80646  20.244   4.393   2.343
12229W        W80647  13.682  19.119  14.365
12230W        W80648   1.406   2.397   0.381
12231W        W80649  27.192  16.268  10.572
12232W        W80650  22.217  24.681   3.332
12233W        W80651  35.945  11.779   1.861
12234W        W80652  35.910  21.577   3.323
12235W        W80653  34.433  33.558   2.416
12236W        W80654  23.559   3.904  10.472
12237W        W80655  21.261  34.954   4.671
12238W        W80656   6.326  20.038   3.755
12239W        W80657   3.882  17.281   3.234
12240W        W80658   7.876  41.477   0.893
12241W        W80659   4.802  34.971  13.314
12242W        W80660  44.445  14.285   0.951
12243W        W80661  20.052   0.925   1.415
12244W        W80662   4.359  38.866   1.438
12245W        W80663  24.078  22.151   3.718
12246W        W80664  34.505   7.270  12.545
12247W        W80665   7.416  22.166  10.446
12248W        W80666   5.806   7.293  10.598
12249W        W80667   2.405   5.397   1.332
12250W        W80668   7.899   5.384   2.786
12251W        W80669  40.956  19.694  11.383
12252W        W80670  16.123  33.423  11.556
12253W        W80671  40.822   7.385  11.525
12254W        W80672  39.371  36.967  13.526
12255W        W80673  32.431  12.761   4.152
12256W        W80674  30.014  20.703  14.499
12257W        W80675  16.132  28.068  11.949
12258W        W80676  32.476  36.970   0.310
12259W        W80677  31.451  35.498  12.039
12260W        W80678  18.284   0.479   2.703
12261W        W80679  38.466  13.325   1.232
12262W        W80680  18.067   0.986   1.738
12263W        W80681  28.483  12.271  11.053
12264W        W80682  14.823  37.382  12.518
12265W        W80683  42.894  13.667  13.415
12266W        W80684  37.066  21.637   4.269
12267W        W80685  29.629  33.474   4.749
12268W        W80686  26.508  13.688   1.277
12269W        W80687   6.391   0.447   3.689
12270W        W80688  39.966  12.214   2.893
12271W        W80689  24.986  21.655  13.376
12272W        W80690  27.545   6.789   4.301
12273W        W80691   9.186  21.037   2.326
12274W        W80692  27.983  24.107   2.316
12275W        W80693  39.543  17.061   0.835
12276W        W80694  20.076  24.695   2.717
12277W        W80695   0.857  17.575   0.462
12278W        W80696  16.578   8.771   4.189
12279W        W80697  35.020  11.199  14.809
12280W        W80698  30.957   2.833   3.725
12281W        W80699  16.246  15.748  13.425
12282W        W80700  13.236  10.813   2.880
12283W        W80701   3.887  42.463  10.926
12284W        W80702  20.201  19.586  14.421
12285W        W80703   6.817   0.756   4.743
12286W        W80704  27.526  15.116   0.908
12287W        W80705   5.335  43.822   2.691
12288W        W80706  17.202  38.334  14.334
12289W        W80707  12.749   3.252  13.484
12290W        W80708  42.915  16.271  14.870
12291W        W80709  29.489   0.420  11.490
12292W        W80710  40.460  40.978  14.862
12293W        W80711  34.084  27.474   4.164
12294W        W80712  10.770  27.113   3.189
12295W        W80713  33.066   7.278  13.469
12296W        W80714  43.332   3.810  14.024
12297W        W80715  41.369  32.014   0.452
12298W        W80716  35.580   3.726  11.070
12299W        W80717  24.093  16.145   4.616
12300W        W80718  27.986   5.888  13.022
12301W        W80719  22.596  32.438  11.006
12302W        W80720  14.096  13.673   3.217
12303W        W80721   1.284   1.386  11.095
12304W        W80722   1.824   3.274  13.523
12305W        W80723  35.375  37.078  12.833
12306W        W80724  44.965  12.717   9.964
12307W        W80725  32.420  12.672   0.737
12308W        W80726   1.769  16.663   0.896
12309W        W80727   2.770  28.015   4.247
12310W        W80728  32.448   7.911   4.717
12311W        W80729  24.087  22.239   4.129
12312W        W80730  29.136  22.641   0.335
12313W        W80731  24.124  11.248   0.828
12314W        W80732   4.884  27.005   3.650
12315W        W80733  37.013  22.059  12.886
12316W        W80734  16.752  16.205   1.334
12317W        W80735   1.767   1.338  10.547
12318W        W80736   2.428  15.797  11.483
12319W        W80737  19.555   0.452   0.837
12320W        W80738  33.080  36.365  11.913
12321W        W80739  16.609  41.038   2.210
12322W        W80740  22.035  24.104   0.478
12323W        W80741   2.812   6.212   4.796
12324W        W80742   4.829  20.542   1.740
12325W        W80743  19.555   7.867  12.410
12326W        W80744  17.275  33.100   3.728
12327W        W80745  32.011  20.685   2.183
12328W        W80746   3.345  29.961   2.766
12329W        W80747  33.474   0.914   4.723
12330W        W80748  27.548  16.712   3.238
12331W        W80749  29.972  11.820   2.216
12332W        W80750  18.143  14.669  14.466
12333W        W80751  22.183  20.664  13.933
12334W        W80752  34.411  39.492  14.862
12335W        W80753  21.218  28.103  12.866
12336W        W80754  32.990   3.328   3.631
12337W        W80755  22.220  43.832   2.324
12338W        W80756   3.747  20.743   0.814
12339W        W80757  23.221  36.488  13.431
12340W        W80758   6.372   4.220  12.987
12341W        W80759  26.063  13.313   2.210
12342W        W80760  13.191  25.040   1.891
12343W        W80761  22.070   0.270   1.384
12344W        W80762  35.946  21.638  14.396
12345W        W80763  21.567   1.479  10.446
12346W        W80764  44.902  10.151  14.441
12347W        W80765  11.303  17.165  13.053
12348W        W80766  35.994  19.728   1.800
12349W        W80767  36.059  10.368   2.744
12350W        W80768  17.180   8.197   4.207
12351W        W80769  17.657  29.035   3.861
12352W        W80770  40.860  21.735   0.439
12353W        W80771  14.741  14.739   2.712
12354W        W80772  29.463  14.735  12.948
12355W        W80773  24.707  28.634   0.368
12356W        W80774  32.606  43.295  13.053
12357W        W80775  38.067  26.510  12.391
12358W        W80776  24.654  30.413  10.902
12359W        W80777  19.670  30.623  13.418
12360W        W80778  31.082   1.810   3.763
12361W        W80779   2.902  24.489   1.307
12362W        W80780  27.657  25.697   2.398
12363W        W80781  35.095  40.916   1.273
12364W        W80782   3.280  37.399  11.544
12365W        W80783  17.586  43.825   2.867
12366W        W80784  14.664  26.045   3.732
12367W        W80785   3.221  17.753   3.175
12368W        W80786   9.842  34.516  10.559
12369W        W80787   8.187  41.877   4.702
12370W        W80788  33.958  30.538  13.387
12371W        W80789   9.692   6.693   2.870
12372W        W80790  22.688  39.889   0.284
12373W        W80791  41.515   6.234  11.100
12374W        W80792   1.851   5.820   4.301
12375W        W80793  36.464  20.194  14.506
12376W        W80794   6.862  37.385   4.263
12377W        W80795  13.601  34.545   4.780
12378W        W80796  36.533  31.153   3.153
12379W        W80797   8.693  38.916   1.710
12380W        W80798  28.473   4.362   3.717
12381W        W80799  11.139  22.171  10.440
12382W        W80800  36.036  42.485   2.221
12383W        W80801  40.948   6.902   2.884
12384W        W80802   1.405  22.663   3.221
12385W        W80803  10.754  27.022   0.339
12386W        W80804   6.424  25.695  12.472
12387W        W80805   5.765  16.693  10.421
12388W        W80806  10.634  35.483  12.074
12389W        W80807  42.422  44.482   4.675
12390W        W80808  28.029   9.291  13.013
12391W        W80809  36.561  32.455  11.883
12392W        W80810  14.258   3.857   4.700
12393W        W80811  26.700  21.542   2.205
12394W        W80812  27.645  33.913   4.317
12395W        W80813  36.401   1.811  12.859
12396W        W80814   8.188  30.926   3.801
12397W        W80815  30.525  34.933  10.576
12398W        W80816  16.663   1.787   2.771
12399W        W80817  10.757   3.789   1.282
12400W        W80818  33.585  41.364  14.825
12401W        W80819  33.619  41.291  13.458
12402W        W80820  28.614   5.861   1.297
12403W        W80821  29.601  10.307  14.330
12404W        W80822   7.703  10.665  12.911
12405W        W80823   7.775  31.558   0.848
12406W        W80824  42.779  39.379  12.576
12407W        W80825  23.668  30.020  12.498
12408W        W80826   3.451   3.424   3.211
12409W        W80827  39.057   4.346   3.815
12410W        W80828   1.318   1.292  11.549
12411W        W80829   4.876  11.858  14.279
12412W        W80830  36.057  11.140   2.329
12413W        W80831   0.824  36.857  12.887
12414W        W80832  36.510  22.597  14.778
12415W        W80833  17.570   2.832  12.540
12416W        W80834  44.475   2.726  14.325
12417W        W80835  38.893  14.695   4.681
12418W        W80836  19.219  43.470  11.431
12419W        W80837   0.329  27.141  12.002
12420W        W80838  28.464  44.940   3.657
12421W        W80839  16.267  35.981  12.052
12422W        W80840   9.170  33.593   2.366
12423W        W80841  32.622  41.330   1.348
12424W        W80842  10.339  28.486  10.976
12425W        W80843  26.962  36.385  13.531
12426W        W80844  32.982   3.280  14.759
12427W        W80845  24.112  44.925   3.360
12428W        W80846  39.529   9.308  11.469
12429W        W80847  29.578  35.533   1.277
12430W        W80848  41.410  38.991  12.556
12431W        W80849   6.291  10.825  13.013
12432W        W80850  30.555  40.503   2.817
12433W        W80851   0.299  32.085   3.671
12434W        W80852  19.175  34.440  11.031
12435W        W80853  13.154   5.379  12.424
12436W        W80854  18.759  14.600   2.229
12437W        W80855   2.879  19.671   3.228
12438W        W80856  19.225  24.119  12.865
12439W        W80857  21.211  24.576   3.301
12440W        W80858   3.904  32.135  11.894
12441W        W80859  31.959   7.207  12.507
12442W        W80860   4.449  41.302  14.824
12443W        W80861  22.625   9.751   4.732
12444W        W80862   6.738   1.481   0.371
12445W        W80863  35.098  15.113   0.455
12446W        W80864  31.005  33.041  13.930
12447W        W80865   6.921  21.176   1.919
12448W        W80866  25.215  26.071  13.317
12449W        W80867  39.460  26.174  11.977
12450W        W80868  21.155  42.306  10.487
12451W        W80869  22.029  30.539  14.426
12452W        W80870  38.393   0.820  12.937
12453W        W80871  37.446  37.472   5.744
12454W        W80872  17.075   6.245   4.131
12455W        W80873  30.530  36.390  10.563
12456W        W80874  25.999   8.787   5.280
12457W        W80875  13.836  39.884  10.412
12458W        W80876  39.926  44.810   2.841
12459W        W80877   0.306   5.729   4.759
12460W        W80878  40.499  21.553   1.296
12461W        W80879  26.020  21.741  11.439
12462W        W80880  18.649   3.291  13.312
12463W        W80881  42.887  40.002   2.672
12464W        W80882  33.899  42.522  11.961
12465W        W80883  11.187   4.370   4.187
12466W        W80884  28.932  41.393   2.850
12467W        W80885  23.684  37.937  11.444
12468W        W80886  19.743   6.278  13.028
12469W        W80887  17.610  10.227   4.599
12470W        W80888  11.146  22.571  13.013
12471W        W80889  31.539   3.309  12.010
12472W        W80890  16.636  31.954  13.809
12473W        W80891  40.874   1.354  12.004
12474W        W80892  21.236   9.789   3.369
12475W        W80893  16.702  29.035   2.395
12476W        W80894   1.815  30.060   3.739
12477W        W80895   2.257  23.608   4.614
12478W        W80896  34.888  26.624   3.215
12479W        W80897  39.049  26.140  14.453
12480W        W80898  35.931  28.608  12.020
12481W        W80899  30.141  25.138   4.187
12482W        W80900  43.988   1.409   4.263
12483W        W80901  17.098  34.983   0.750
12484W        W80902   5.820  10.712  14.448
12485W        W80903  14.702  10.322   2.244
12486W        W80904  24.106  10.832   4.722
12487W        W80905  31.471  37.933  11.550
12488W        W80906  22.695  19.185   3.287
12489W        W80907  43.978  44.465  11.965
12490W        W80908   9.255   7.308   5.213
12491W        W80909  14.711  37.413   3.704
12492W        W80910  38.941  34.375  13.876
12493W        W80911   4.825  33.581  12.341
12494W        W80912  25.165  37.427   3.342
12495W        W80913  23.719  26.525   4.771
12496W        W80914  14.282  27.467  12.574
12497W        W80915   4.879  29.010  14.884
12498W        W80916  15.089  41.812  12.359
12499W        W80917  24.982  15.578  14.920
12500W        W80918  33.534   1.830   5.109
12501W        W80919   0.432   6.347   2.846
12502W        W80920  39.421  15.627  13.442
12503W        W80921  29.646  20.074  13.999
12504W        W80922  13.750   4.779  11.392
12505W        W80923  35.070  22.669   4.279
12506W        W80924  19.766  31.139   3.229
12507W        W80925  13.230  26.086   2.223
12508W        W80926  26.590  21.166   2.841
12509W        W80927   1.371  37.913   0.785
12510W        W80928   4.359  38.895   4.777
12511W        W80929  40.385  25.219  13.383
12512W        W80930  20.615   1.388   3.770
12513W        W80931  41.840  23.009   1.848
12514W        W80932   7.819  31.073   4.156
12515W        W80933   4.758  27.657  13.799
12516W        W80934   2.947  42.464   4.698
12517W        W80935  23.115  35.538   0.328
12518W        W80936  10.806  37.557   4.725
12519W        W80937  31.133  18.651   3.824
12520W        W80938  33.051  35.577  11.423
12521W        W80939  43.887  29.100  13.525
12522W        W80940  39.873  41.921   0.769
12523W        W80941   2.292  21.187  10.929
12524W        W80942  10.813  12.656   2.191
12525W        W80943  43.365   5.897   0.385
12526W        W80944   2.429  34.483  13.895
12527W        W80945  39.518  17.110   1.905
12528W        W80946  28.025  15.643  14.463
12529W        W80947  12.311   2.313  13.426
12530W        W80948   5.927   2.959  11.975
12531W        W80949  39.340  12.832  10.540
12532W        W80950  22.624  25.663   2.790
12533W        W80951   7.897   4.434  13.312
12534W        W80952  31.048  13.666  13.393
12535W        W80953   3.217  33.062  13.939
12536W        W80954  25.671  22.070   2.364
12537W        W80955  10.726   9.261  12.998
12538W        W80956  25.642   8.375  14.784
12539W        W80957   1.902  40.305   0.447
12540W        W80958  16.646  23.203  13.482
12541W        W80959   8.238  41.316   1.405
12542W        W80960  21.178   6.788  13.045
12543W        W80961  20.156   8.893  12.556
12544W        W80962  32.559  41.861  14.325
12545W        W80963  40.830  20.555   3.341
12546W        W80964  17.735  42.408   0.325
12547W        W80965  23.103   6.427   1.329
12548W        W80966  29.974  29.656  14.378
12549W        W80967   1.765  19.670   3.640
12550W        W80968  42.014  15.594  14.508
12551W        W80969  15.766  13.180   4.739
12552W        W80970  29.006   6.868  12.972
12553W        W80971  11.338   3.744   2.847
12554W        W80972  42.843  23.527  13.822
12555W        W80973   4.868  44.342   0.401
12556W        W80974  37.067   7.703   2.662
12557W        W80975  13.785  12.783   1.787
12558W        W80976  32.432  32.619  11.521
12559W        W80977  31.441  27.502  11.476
12560W        W80978   0.859  21.592  14.298
12561W        W80979   1.761   6.687   0.747
12562W        W80980   3.457  44.763   2.856
12563W        W80981  14.099  44.794  13.540
12564W        W80982  13.219   0.869  12.038
12565W        W80983  16.751  21.595   3.366
12566W        W80984  33.894  22.737  10.923
12567W        W80985  38.924  31.931  13.502
12568W        W80986  43.441   3.336   9.939
12569W        W80987  25.707   1.242  12.530
12570W        W80988  38.483   0.971   3.778
12571W        W80989  12.676  33.406   3.251
12572W        W80990  28.941  42.400  14.988
12573W        W80991  35.065   7.287  11.394
12574W        W80992  12.331   1.383  14.366
12575W        W80993   2.854  15.689   0.873
12576W        W80994  35.924   8.655   3.308
12577W        W80995  42.901   9.365   3.827
12578W        W80996  37.352  18.106   3.313
12579W        W80997  32.570  17.150  13.329
12580W        W80998   2.730  24.709  10.606
12581W        W80999   7.680   2.943  12.899
12582W        W81000  12.739  43.308   1.800
12583W        W81001  26.044  18.161   0.780
12584W        W81002  24.176  31.533   2.793
12585W        W81003  39.015   2.445   0.333
12586W        W81004  21.130  24.563  10.460
12587W        W81005   0.770  31.594   0.423
12588W        W81006  12.793   9.345  12.435
12589W        W81007  14.183  12.214  13.848
12590W        W81008  23.167  37.446   2.731
12591W        W81009  24.678  35.892   3.248
12592W        W81010   1.406  14.686  11.609
12593W        W81011  17.562  33.506  14.365
12594W        W81012  16.150  22.502  14.765
12595W        W81013  39.928  29.003   1.934
12596W        W81014  43.902  40.535   4.673
12597W        W81015  24.127  34.481   0.268
12598W        W81016   3.220  44.442   5.181
12599W        W81017  44.903  18.549   0.731
12600W        W81018  15.593  28.509  14.493
12601W        W81019   4.844  24.000  11.383
12602W        W81020   3.293  41.403  11.959
12603W        W81021  35.968  21.528  11.552
12604W        W81022   8.396  13.762  10.931
12605W        W81023  15.117  41.492   0.890
12606W        W81024  22.223  25.681  11.592
12607W        W81025   2.833  30.632  13.321
12608W        W81026   3.825  31.000  10.605
12609W        W81027  37.851   5.367  14.928
12610W        W81028  14.290  21.548  10.975
12611W        W81029   2.415  11.199   4.709
12612W        W81030  12.211  21.244   0.957
12613W        W81031  13.836  26.153   3.292
12614W        W81032  39.387  22.714  14.321
12615W        W81033   2.732  10.696  10.504
12616W        W81034  18.200  33.429  13.945
12617W        W81035  33.017  32.460   0.466
12618W        W81036  36.573  15.168   2.757
12619W        W81037  29.550   8.795  13.479
12620W        W81038  35.900  32.088  12.895
12621W        W81039  19.623  24.201  10.589
12622W        W81040  31.060  21.084  12.855
12623W        W81041  28.612   7.235  12.908
12624W        W81042  41.362  43.405   5.197
12625W        W81043  16.192  39.480  14.426
12626W        W81044  14.714  28.026  12.073
12627W        W81045  10.727   4.872  12.854
12628W        W81046   0.420   2.332  14.492
12629W        W81047  25.678  11.257  11.011
12630W        W81048  14.297  18.074   1.788
12631W        W81049  32.568  34.102  11.501
12632W        W81050  43.894  27.978   4.135
12633W        W81051   4.234   2.937  14.861
12634W        W81052  16.575  37.036   1.706
12635W        W81053   6.686  14.329  12.353
12636W        W81054  42.353  26.534  12.823
12637W        W81055  19.234   5.887   3.327
12638W        W81056   2.460  20.085  12.015
12639W        W81057  34.577  31.599  14.904
12640W        W81058  32.906  11.366  10.929
12641W        W81059  39.884   7.365  11.391
12642W        W81060  10.681   5.871   0.901
12643W        W81061  38.358  13.610   3.784
12644W        W81062  33.396  22.123   0.959
12645W        W81063  12.154  35.459  11.919
12646W        W81064  17.559  31.108   4.263
12647W        W81065   1.380   7.687  13.321
12648W        W81066  34.447  15.168   1.806
12649W        W81067   5.806   8.869   4.771
12650W        W81068  29.032  44.295  12.012
12651W        W81069   4.801  13.613  12.509
12652W        W81070  19.256  19.684   4.616
12653W        W81071  14.176  16.773  11.454
12654W        W81072  17.127  43.013  13.059
12655W        W81073  14.738  32.625  13.958
12656W        W81074   9.812  16.123  12.028
12657W        W81075  23.600   0.479   1.408
12658W        W81076  20.031   7.308   3.303
12659W        W81077  27.004  25.163   4.751
12660W        W81078  12.147  29.617   1.834
12661W        W81079   5.850   8.673  13.958
12662W        W81080  25.621  36.057   1.297
12663W        W81081   4.299  39.905  14.028
12664W        W81082  13.269   2.902   4.233
12665W        W81083  42.947  11.182  10.437
12666W        W81084   2.361  33.511   2.413
12667W        W81085  14.650   1.833   4.599
12668W        W81086  38.481  14.109   0.386
12669W        W81087  17.079   5.283  11.376
12670W        W81088  28.448  28.991   1.441
12671W        W81089  27.673  42.501  11.012
12672W        W81090  24.694  17.649   1.902
12673W        W81091  19.603  23.241   5.200
12674W        W81092  31.143  20.203  14.293
12675W        W81093   7.362  23.127  11.417
12676W        W81094   6.332  20.543  14.363
12677W        W81095   6.315  18.725   1.276
12678W        W81096  25.700   5.746  13.331
12679W        W81097   5.432  41.849   1.830
12680W        W81098  10.175   6.313   0.339
12681W        W81099  23.721  31.993  11.557
12682W        W81100   2.888  13.326  12.460
12683W        W81101  43.481  31.980  14.327
12684W        W81102  26.200   8.750  11.439
12685W        W81103   2.801  23.697   0.263
12686W        W81104  13.156   5.270  13.988
12687W        W81105  40.490  22.200  14.369
12688W        W81106  38.054  40.023  13.963
12689W        W81107  18.574  35.077  12.849
12690W        W81108  27.118  27.473  10.546
12691W        W81109  41.887  38.421  11.414
12692W        W81110  26.516   2.282  12.371
12693W        W81111  18.152  35.497  10.594
12694W        W81112   5.746   2.328   4.188
12695W        W81113  39.507  44.969   0.861
12696W        W81114   0.437  11.165   3.312
12697W        W81115   1.786  44.463  11.539
12698W        W81116  38.338  41.347   1.434
12699W        W81117  23.713  21.099   4.722
12700W        W81118  40.952   4.888  12.927
12701W        W81119  19.661   5.376   0.951
12702W        W81120  39.501   8.727   1.451
12703W        W81121  29.562  42.969  12.928
12704W        W81122  28.593  10.823  12.563
12705W        W81123   0.423  18.638   1.393
12706W        W81124  38.926  44.871  11.916
12707W        W81125  18.089   5.402  13.028
12708W        W81126   5.761  16.690  12.050
12709W        W81127  35.379  42.869   2.258
12710W        W81128  40.522   1.914  14.763
12711W        W81129   7.870   7.911   4.620
12712W        W81130  16.162  23.494  12.071
12713W        W81131  35.104  34.045   0.785
12714W        W81132   9.247  24.575   3.216
12715W        W81133  33.044  23.010  14.832
12716W        W81134  34.474  26.159   1.335
12717W        W81135  25.533   1.381  12.835
12718W        W81136   8.856  16.643   0.354
12719W        W81137  31.993   9.187  12.563
12720W        W81138   8.406   4.295  12.861
12721W        W81139  11.815  37.003   4.705
12722W        W81140  18.139  42.428  13.383
12723W        W81141  33.985   0.846   3.762
12724W        W81142  40.981  37.484   2.786
12725W        W81143  26.473  23.657  12.878
12726W        W81144  39.058  23.689  13.457
12727W        W81145  22.155  39.538   1.426
12728W        W81146   3.269   7.907  10.581
12729W        W81147   9.355  13.209  13.035
12730W        W81148   2.422   3.354   4.654
12731W        W81149  33.059  39.459  11.474
12732W        W81150  20.029   0.349   1.219
12733W        W81151  16.102  37.959  13.833
12734W        W81152  20.551  24.160  14.816
12735W        W81153  38.468  13.682   2.893
12736W        W81154  31.135  23.165   3.659
12737W        W81155  19.726  14.782   1.885
12738W        W81156   9.201  14.602  14.893
12739W        W81157  23.080  41.970  12.888
12740W        W81158  24.539  18.066  11.415
12741W        W81159   4.204  16.754  12.055
12742W        W81160   0.872  42.856  10.616
12743W        W81161  34.441   8.358  13.036
12744W        W81162  33.917  38.383  10.459
12745W        W81163  19.048  25.522   3.148
12746W        W81164  20.711  36.542  14.825
12747W        W81165  20.708  28.500  11.961
12748W        W81166  29.536   7.269   4.647
12749W        W81167   7.818  35.399  14.779
12750W        W81168   9.243   3.884  10.922
12751W        W81169  17.741  43.839  12.090
12752W        W81170  21.209  35.945   0.456
12753W        W81171  15.602  43.929  14.315
12754W        W81172  40.332  13.291   0.874
12755W        W81173  33.432  33.478   1.760
12756W        W81174  22.557  18.067   0.476
12757W        W81175  25.503   9.723   4.208
12758W        W81176  35.506  12.688   2.234
12759W        W81177  44.978  29.465   4.340
12760W        W81178   6.254  17.205   5.207
12761W        W81179  16.291  18.166  11.053
12762W        W81180  17.137  24.070  12.981
12763W        W81181  31.570  28.461   0.912
12764W        W81182  20.040   8.233   1.418
12765W        W81183  15.202   6.705  12.388
12766W        W81184  37.440  18.176  11.410
12767W        W81185  43.493  30.124   4.212
12768W        W81186  33.615   4.311   0.437
12769W        W81187  25.695  18.053   4.116
12770W        W81188   5.863  37.070   4.665
12771W        W81189  33.941  15.202   3.312
12772W        W81190  10.852   5.419  14.994
12773W        W81191  29.622  36.370   0.401
12774W        W81192   8.277   6.398   2.217
12775W        W81193  41.315  37.987  14.328
12776W        W81194  29.526  43.408   3.236
12777W        W81195  17.288  31.101  13.017
12778W        W81196  32.930  41.830  10.973
12779W        W81197   8.866   0.822   4.198
12780W        W81198   2.382  17.646  14.784
12781W        W81199  19.735  19.539  14.913
12782W        W81200  17.165  40.896  14.993
12783W        W81201  11.128  33.531   1.450
12784W        W81202  12.149  18.095  13.504
12785W        W81203   8.194  39.519  12.067
12786W        W81204   0.436  37.063  14.408
12787W        W81205  34.090  39.808   1.224
12788W        W81206  20.722   5.785  10.570
12789W        W81207  40.828  25.698   1.282
12790W        W81208   8.363  25.042   4.193
12791W        W81209   0.393   1.374  11.106
12792W        W81210  23.043  36.048  14.774
12793W        W81211  28.498  42.926   5.304
12794W        W81212  37.475  37.531   3.225
12795W        W81213  12.299  31.576   2.717
12796W        W81214  24.153  42.890   3.247
12797W        W81215  38.012   4.443  10.564
12798W        W81216  30.944   3.414  10.595
12799W        W81217  14.108  28.580   1.379
12800W        W81218   0.836   7.908  12.507
12801W        W81219  18.249   8.274  14.345
12802W        W81220  14.157  10.336   3.744
12803W        W81221   0.481  32.027   2.878
12804W        W81222  31.977  27.173   2.277
12805W        W81223  19.093  39.037  10.055
12806W        W81224  32.515   4.910  12.344
12807W        W81225   4.335   9.335   1.353
12808W        W81226   6.754  27.030   3.849
12809W        W81227  30.658   3.863   2.769
12810W        W81228  15.667  32.394   3.824
12811W        W81229  17.243  29.431   1.382
12812W        W81230   3.853   3.904  11.568
12813W        W81231  42.810  12.848  14.394
12814W        W81232   0.866  18.633  10.492
12815W        W81233  10.744   4.784   2.876
12816W        W81234  29.449  36.848  11.869
12817W        W81235  15.103  10.695  10.452
12818W        W81236  23.037   1.732  13.968
12819W        W81237   1.375  31.567  12.447
12820W        W81238  39.353  21.091   2.293
12821W        W81239   3.428  17.272  14.027
12822W        W81240   8.869  33.089  14.863
12823W        W81241   2.848  28.507   1.245
12824W        W81242  16.609  22.054   4.234
12825W        W81243  12.203  25.165   2.370
12826W        W81244  27.473  20.578   1.905
12827W        W81245  19.566  44.811  11.046
12828W        W81246  30.923  41.798  11.075
12829W        W81247   4.864  21.730  12.453
12830W        W81248   4.827   7.413  11.397
12831W        W81249  10.757  30.065   4.315
12832W        W81250   2.954  12.643   4.349
12833W        W81251  38.976   1.748   1.892
12834W        W81252  25.191  25.029  12.888
12835W        W81253   6.352  19.128   3.343
12836W        W81254  26.069  19.754  12.094
12837W        W81255  36.065   3.884   0.274
12838W        W81256  19.047   7.869   3.805
12839W        W81257  11.333  37.981  14.842
12840W        W81258   8.657  27.552  11.539
12841W        W81259   4.209   7.231   4.300
12842W        W81260  28.619  17.251  13.395
12843W        W81261  20.226  31.479   4.179
12844W        W81262   3.856  32.516   4.244
12845W        W81263  18.190  27.520   3.268
12846W        W81264  21.625  22.012  10.981
12847W        W81265  17.751  21.738  11.998
12848W        W81266  21.525   7.898   0.343
12849W        W81267  43.489  34.426  13.404
12850W        W81268  33.576  28.946  14.768
12851W        W81269  43.358  25.502  11.044
12852W        W81270  12.721  32.131  11.442
12853W        W81271  16.748  23.120  11.544
12854W        W81272  35.100  13.284   4.728
12855W        W81273   7.301  38.401   2.359
12856W        W81274  16.631  26.626   2.229
12857W        W81275  32.940   0.473   2.877
12858W        W81276  13.288  17.775   2.402
12859W        W81277  25.621  21.588  10.633
12860W        W81278  41.420  28.604   2.362
12861W        W81279  42.819  31.950   2.336
12862W        W81280   9.818  40.850   2.686
12863W        W81281   6.801  36.553   1.886
12864W        W81282   0.774   7.852  11.998
12865W        W81283  33.966  12.741  12.400
12866W        W81284  40.987  23.141  11.857
12867W        W81285   9.758   8.175  14.505
12868W        W81286  22.088  41.332  13.394
12869W        W81287  34.489  37.398   2.312
12870W        W81288  29.515  23.156  11.904
12871W        W81289  16.653  38.016   2.265
12872W        W81290  23.697  18.285  11.607
12873W        W81291  26.589   8.273  11.975
12874W        W81292   3.276  15.787  14.855
12875W        W81293  22.540   2.865   1.289
12876W        W81294  22.567   3.414   5.310
12877W        W81295  41.788   2.868  10.638
12878W        W81296   7.829  38.405   3.264
12879W        W81297   5.270  20.147  12.031
12880W        W81298  31.009  37.996   0.434
12881W        W81299  34.896   6.376   1.269
12882W        W81300  24.489  44.408  13.401
12883W        W81301  44.271  14.127   2.734
12884W        W81302  44.803  27.179   1.825
12885W        W81303  25.216  42.327  13.016
12886W        W81304   6.741  11.248  13.365
12887W        W81305   6.287  25.018  12.529
12888W        W81306  11.360  20.628  11.931
12889W        W81307  18.112  43.015  12.574
12890W        W81308  31.927  41.338  11.010
12891W        W81309   2.856  18.646   0.796
12892W        W81310  24.621  37.502   0.437
12893W        W81311  19.764  29.518  11.561
12894W        W81312  12.643  17.101   0.328
12895W        W81313  18.086  31.410   1.801
12896W        W81314  40.821  22.036   3.685
12897W        W81315  23.597  14.225  12.554
12898W        W81316  42.393  42.445   1.739
12899W        W81317  14.642  32.911  11.067
12900W        W81318   6.852  38.878   0.888
12901W        W81319  32.538  17.572   1.745
12902W        W81320  42.888  26.617   2.224
12903W        W81321  35.042  20.663   0.476
12904W        W81322  15.210  40.335   0.857
12905W        W81323   5.250  23.649  10.446
12906W        W81324  34.889  28.967  10.974
12907W        W81325  34.882  13.216  14.783
12908W        W81326  29.941   2.818   3.194
12909W        W81327  43.829  10.321   4.339
12910W        W81328  30.006  18.673  10.473
12911W        W81329   3.416   5.908   3.275
12912W        W81330  43.367  28.631   0.345
12913W        W81331  24.602  40.908  10.985
12914W        W81332  43.391  18.282   1.826
12915W        W81333  11.726  38.548   0.830
12916W        W81334  15.802   6.699   3.287
12917W        W81335   9.170  13.626   1.356
12918W        W81336  44.405  37.898  11.448
12919W        W81337  15.137   9.662  12.467
12920W        W81338  15.173  15.170  13.310
12921W        W81339  25.094  38.441   4.750
12922W        W81340  22.064   9.359  10.539
12923W        W81341  18.195   2.830  14.947
12924W        W81342   5.230  26.033   0.752
12925W        W81343  38.865  32.566  10.601
12926W        W81344   8.699  31.433  13.021
12927W        W81345  40.435  29.565  13.028
12928W        W81346  43.952   7.752   2.836
12929W        W81347  16.602   8.776   0.351
12930W        W81348  16.294  22.610  12.443
12931W        W81349  21.024  10.858   2.893
12932W        W81350   4.825  38.499  14.772
12933W        W81351  18.731   7.350  11.597
12934W        W81352  10.791  22.228   4.205
12935W        W81353  36.384  23.164  12.076
12936W        W81354  22.625  38.899  12.042
12937W        W81355   3.856  32.507   4.625
12938W        W81356   3.332  15.286  13.511
12939W        W81357  16.195  10.670   4.815
12940W        W81358  30.955   4.346   1.727
12941W        W81359  11.272  40.439   2.218
12942W        W81360  14.781  10.642  14.285
12943W        W81361  38.051   7.319   4.193
12944W        W81362  36.424  28.630   1.229
12945W        W81363  13.292  14.135   2.692
12946W        W81364  18.780  37.406  11.908
12947W        W81365  44.895  39.994  14.461
12948W        W81366  27.154   0.270   3.788
12949W        W81367   7.817   9.888   3.658
12950W        W81368  42.480   3.348  13.382
12951W        W81369  43.775   8.723  13.838
12952W        W81370  42.933  15.269  10.585
12953W        W81371  35.855  44.413   3.299
12954W        W81372  35.981  42.798  14.913
12955W        W81373  19.772   8.852   2.762
12956W        W81374  41.997  13.323   0.291
12957W        W81375  12.187  38.965  13.882
12958W        W81376  33.103   7.781   2.328
12959W        W81377  32.541  16.732  12.507
12960W        W81378  18.161  15.301   0.847
12961W        W81379  16.257  43.343  14.963
12962W        W81380   3.891  12.640  14.416
12963W        W81381   0.881  38.887   1.231
12964W        W81382  34.045  13.696   3.318
12965W        W81383  32.481  20.204  11.009
12966W        W81384  41.847   9.243  14.510
12967W        W81385  17.795  18.236  11.866
12968W        W81386  10.721  18.083  12.535
12969W        W81387  14.244  26.623  13.001
12970W        W81388  20.162  43.870   0.390
12971W        W81389   3.746  21.644   4.613
12972W        W81390  14.305   1.267  11.059
12973W        W81391  32.419  21.255   4.708
12974W        W81392  38.058   2.820  13.014
12975W        W81393  13.845  12.773  10.929
12976W        W81394  27.586   5.347   3.633
12977W        W81395   3.301  25.707  13.025
12978W        W81396  38.998   5.785   0.905
12979W        W81397  37.404  11.748   1.798
12980W        W81398  22.510   4.323  14.494
12981W        W81399  26.974  12.161  13.344
12982W        W81400  24.640   4.942   3.766
12983W        W81401   2.338  41.414   4.212
12984W        W81402  31.977  35.453   3.315
12985W        W81403  23.165   5.880   3.843
12986W        W81404   7.315  25.602   0.766
12987W        W81405  21.109   4.261  10.407
12988W        W81406  12.846  23.565  13.999
12989W        W81407  11.342  18.582   1.760
12990W        W81408  35.025  37.936  12.048
12991W        W81409  24.641  26.504  14.492
12992W        W81410   2.246  33.958  11.923
12993W        W81411   6.215  44.263  14.355
12994W        W81412   7.207  43.961  13.516
12995W        W81413  43.321  38.507   0.262
12996W        W81414  19.070  42.376   3.312
12997W        W81415  26.070  43.293   1.899
12998W        W81416  28.497  18.730   0.749
12999W        W81417  44.451   3.831  11.084
13000W        W81418  12.116  11.783  13.791
13001W        W81419  38.983  28.621  13.011
13002W        W81420  17.214  41.991  13.997
13003W        W81421  21.170  35.029   2.315
13004W        W81422  26.157  27.003   1.384
13005W        W81423  27.664  12.816  10.515
13006W        W81424  15.608   6.861  10.039
13007W        W81425  33.881  19.651  10.557
13008W        W81426  41.530  31.007   3.733
13009W        W81427   2.279  21.030  14.827
13010W        W81428  13.323  21.646  14.868
13011W        W81429  27.176   9.689   0.789
13012W        W81430  26.983  10.768   3.385
13013W        W81431  34.117  33.935   3.309
13014W        W81432  14.212  42.025  12.073
13015W        W81433  41.979  37.452   0.877
13016W        W81434   2.423  24.066  11.456
13017W        W81435  27.532  20.546  12.956
13018W        W81436  37.028  15.164   4.627
13019W        W81437  43.380  27.075   3.748
13020W        W81438   5.198   3.408   2.689
13021W        W81439   7.722  19.683   5.185
13022W        W81440  13.202  36.416   2.678
13023W        W81441  36.088  36.433   3.256
13024W        W81442  27.168  37.981  12.440
13025W        W81443  19.720  33.025   3.358
13026W        W81444  31.136  43.938  10.440
13027W        W81445  20.185  38.912  11.087
13028W        W81446  20.693  15.099  10.953
13029W        W81447  44.863  10.655  10.986
13030W        W81448  18.216   0.753   3.759
13031W        W81449  30.970  28.492  14.791
13032W        W81450  25.029  40.977  12.529
13033W        W81451  27.657  32.561  12.031
13034W        W81452   1.924   9.254  12.032
13035W        W81453  37.873   3.902   0.878
13036W        W81454  33.543  17.243   4.689
13037W        W81455   9.710   1.876  14.814
13038W        W81456  37.415  38.970   4.345
13039W        W81457  21.187  14.613  11.385
13040W        W81458  14.179  12.329   0.750
13041W        W81459  40.313   5.360  12.903
13042W        W81460   1.738  28.629   3.856
13043W        W81461   7.717  36.505   2.375
13044W        W81462   9.304   0.769  11.957
13045W        W81463  21.033  25.080   1.807
13046W        W81464  32.547  35.366  14.414
13047W        W81465  35.990   7.348  11.905
13048W        W81466  12.292   3.271  10.154
13049W        W81467  44.436  19.608   2.753
13050W        W81468  12.161  27.692   0.389
13051W        W81469  33.036  14.227  13.519
13052W        W81470  10.289  31.497   0.288
13053W        W81471  39.005  28.015  12.933
13054W        W81472  18.192  27.966   4.630
13055W        W81473  17.599  33.131  11.478
13056W        W81474  13.751  23.006  12.864
13057W        W81475  17.607  24.624   0.742
13058W        W81476  13.169  42.499  13.966
13059W        W81477  28.990  21.110  13.991
13060W        W81478  10.817  26.580  12.490
13061W        W81479  25.183   0.745  12.370
13062W        W81480  28.155  41.316  11.995
13063W        W81481  40.854  13.764   3.719
13064W        W81482   8.389   1.263  12.012
13065W        W81483  29.169  16.597   2.749
13066W        W81484  32.137  18.755   1.407
13067W        W81485  32.615  42.428  14.815
13068W        W81486   2.431  35.006  10.553
13069W        W81487   5.819  23.131  12.348
13070W        W81488  37.520  12.772  11.496
13071W        W81489  22.584  13.243   4.338
13072W        W81490   0.336  16.752   3.827
13073W        W81491  29.116   0.349  14.344
13074W        W81492  40.026  16.728   0.964
13075W        W81493   8.362  42.459  11.450
13076W        W81494  10.317  25.589   1.767
13077W        W81495   7.707  20.039   0.839
13078W        W81496  37.055  21.160  13.378
13079W        W81497  32.551  32.501  11.898
13080W        W81498   2.281  33.507   1.795
13081W        W81499  43.933  32.097   2.248
13082W        W81500  19.279  25.093  11.910
13083W        W81501   0.745   0.478   3.381
13084W        W81502  16.676  23.075  13.979
13085W        W81503   5.871  10.787   1.728
13086W        W81504  23.591  34.510   3.838
13087W        W81505  41.988  40.455   0.755
13088W        W81506  11.137  36.512  12.096
13089W        W81507  39.813   1.827  10.496
13090W        W81508  20.734  32.053   0.823
13091W        W81509  19.769  10.292  12.823
13092W        W81510  20.082  14.710  14.980
13093W        W81511  25.560  39.816  11.476
13094W        W81512   0.471  29.066  13.541
13095W        W81513  31.985  15.587  12.342
13096W        W81514  29.529   6.748   5.263
13097W        W81515  23.180  26.990  13.338
13098W        W81516  30.415  40.954  14.768
13099W        W81517  16.256  43.421   4.153
13100W        W81518  12.301  31.115  14.432
13101W        W81519  21.679  37.879   1.856
13102W        W81520  10.755  13.172  10.404
13103W        W81521  27.198  15.268   0.789
13104W        W81522  34.369  13.628  13.884
13105W        W81523  24.171  31.645   3.859
13106W        W81524  32.455  26.122  14.852
13107W        W81525  26.550  27.108   0.936
13108W        W81526  35.045  30.022   1.321
13109W        W81527  36.065  36.350  11.455
13110W        W81528   0.917  26.069  13.533
13111W        W81529  28.616  15.184   0.765
13112W        W81530  18.086   8.673   1.710
13113W        W81531  22.629  17.767   2.392
13114W        W81532  30.136  25.978  11.112
13115W        W81533   0.382  23.236   5.285
13116W        W81534   4.874  33.603   5.161
13117W        W81535  43.907  29.472  12.465
13118W        W81536  29.110  38.477  12.522
13119W        W81537  29.133  20.586   2.707
13120W        W81538  18.119   4.365  11.058
13121W        W81539  10.272   6.728   2.781
13122W        W81540  36.042  24.065  13.017
13123W        W81541  34.102  30.637  11.078
13124W        W81542  10.656  16.129  12.389
13125W        W81543  32.467  40.512  11.896
13126W        W81544  23.006  27.059   2.389
13127W        W81545   0.925   6.254   4.353
13128W        W81546  38.967  33.495  12.562
13129W        W81547  33.461  40.488   0.330
13130W        W81548  28.118  21.604  10.523
13131W        W81549  10.143  26.492  10.641
13132W        W81550  37.997   4.379  13.370
13133W        W81551   3.444  41.477  13.016
13134W        W81552   2.731  21.755  12.029
13135W        W81553   5.778   9.809   4.184
13136W        W81554  24.028  42.018  13.849
13137W        W81555   3.727  43.840  11.451
13138W        W81556  22.116   8.834   4.286
13139W        W81557  44.453  14.131   3.314
13140W        W81558  44.448  19.738   2.326
13141W        W81559  21.740  26.162  13.467
13142W        W81560  44.324  38.325  14.352
13143W        W81561  38.445  11.173   2.347
13144W        W81562  40.945  17.233  11.471
13145W        W81563  29.972  23.614  11.501
13146W        W81564   2.268   1.752  12.855
13147W        W81565  13.260  21.162   3.860
13148W        W81566  36.014  18.774  13.000
13149W        W81567  34.017   8.221  13.032
13150W        W81568  16.703  39.469   2.337
13151W        W81569  19.639  21.743   1.237
13152W        W81570  44.000  29.496  14.453
13153W        W81571  29.551  28.080   3.179
13154W        W81572  14.729   5.198  11.058
13155W        W81573  24.144  27.184  11.952
13156W        W81574  41.948  29.141  13.397
13157W        W81575  14.214  27.194  11.953
13158W        W81576  13.238   6.277   1.426
13159W        W81577  17.625  24.642   4.675
13160W        W81578  40.534   1.458   1.288
13161W        W81579  11.754  38.957  11.507
13162W        W81580   1.246  22.550   9.511
13163W        W81581  23.548   5.273  12.463
13164W        W81582   7.846  27.067   4.321
13165W        W81583  43.891  44.418   0.441
13166W        W81584  22.563  25.156  10.022
13167W        W81585  33.888  25.506   0.797
13168W        W81586  22.686  32.514  14.412
13169W        W81587  13.317  17.658  11.465
13170W        W81588  15.292   5.879  13.835
13171W        W81589  40.844  10.809  13.445
13172W        W81590  35.469  30.950  14.963
13173W        W81591  41.921  17.148   2.243
13174W        W81592  37.352  32.599  12.433
13175W        W81593  24.008  14.309  13.845
13176W        W81594  13.616  23.130  10.992
13177W        W81595  31.629  10.708  13.317
13178W        W81596   6.734  35.536  10.638
13179W        W81597  17.291  27.614   3.249
13180W        W81598  37.986  12.249   2.731
13181W        W81599  20.252  14.780  10.412
13182W        W81600  10.848  40.901   4.207
13183W        W81601  28.496  44.978   0.762
13184W        W81602  23.129  15.204  10.914
13185W        W81603  14.671  41.388  14.504
13186W        W81604  14.805   6.801   4.633
13187W        W81605  16.225  12.335   3.271
13188W        W81606  40.955  10.769   4.723
13189W        W81607  42.776  41.390  14.968
13190W        W81608  21.147  12.711  13.826
13191W        W81609  13.735  44.309  10.960
13192W        W81610  11.812   9.373  10.999
13193W        W81611   7.736  25.587  14.472
13194W        W81612  35.598  15.277  12.406
13195W        W81613  37.344   3.759  14.947
13196W        W81614  43.332  20.571   9.652
13197W        W81615  11.208  25.213   2.191
13198W        W81616  40.881  11.727   2.703
13199W        W81617   5.848   9.689   2.271
13200W        W81618  21.198  31.466  14.438
13201W        W81619  23.640   2.392   0.252
13202W        W81620  13.786  42.311   2.343
13203W        W81621   2.319  12.681  12.828
13204W        W81622  28.567  23.186  14.490
13205W        W81623  22.109  42.896   2.292
13206W        W81624  18.633  16.108  14.323
13207W        W81625  25.981   3.840  13.439
13208W        W81626   6.766  37.880   0.312
13209W        W81627  26.668  10.325  11.035
13210W        W81628  43.878  29.467  13.544
13211W        W81629  23.140  36.539  12.448
13212W        W81630  33.912   0.772   4.790
13213W        W81631  37.457   0.378   1.433
13214W        W81632  28.645  33.473   2.863
13215W        W81633  23.232  25.542  13.834
13216W        W81634   4.743  26.620  13.464
13217W        W81635  23.030  41.008  13.886
13218W        W81636  15.761  37.982  10.587
13219W        W81637   2.344  18.214   2.386
13220W        W81638   0.297  30.111   2.323
13221W        W81639  38.998  14.209   0.755
13222W        W81640  28.529  38.424   4.130
13223W        W81641   6.710  33.549   0.872
13224W        W81642  16.580   9.823  13.327
13225W        W81643  25.481  17.228   1.736
13226W        W81644  44.399   5.798   1.381
13227W        W81645  20.615  28.151   4.624
13228W        W81646   2.274   0.306  14.433
13229W        W81647  22.128  15.693  13.323
13230W        W81648  41.928  27.573   0.760
13231W        W81649  16.721   1.746  12.503
13232W        W81650  15.720  38.370  11.384
13233W        W81651  40.907  10.795  12.079
13234W        W81652  17.139  22.020  11.500
13235W        W81653  29.474  40.505  10.404
13236W        W81654  21.145  37.573  12.034
13237W        W81655  16.276  19.191  12.019
13238W        W81656  38.984  32.900   9.965
13239W        W81657  26.173  19.077  14.879
13240W        W81658  38.849  10.815   1.800
13241W        W81659  21.116  40.945  13.483
13242W        W81660  36.362  15.653  13.998
13243W        W81661  40.313  35.584   4.314
13244W        W81662  19.049  42.820  12.907
13245W        W81663   8.795  27.634  14.904
13246W        W81664   1.876  14.675   4.646
13247W        W81665  30.983  26.971   2.388
13248W        W81666  30.474  22.198  13.025
13249W        W81667   4.269  17.253   4.752
13250W        W81668  34.512  17.183   3.867
13251W        W81669  33.443  16.224  13.010
13252W        W81670   7.248   3.908   2.827
13253W        W81671  13.812  37.342   0.907
13254W        W81672   3.717  28.110  13.932
13255W        W81673  18.634  23.042   3.709
13256W        W81674  15.180   0.857   0.298
13257W        W81675  35.999  43.921   1.898
13258W        W81676   9.685   5.438   2.181
13259W        W81677  34.454  14.232  13.064
13260W        W81678   1.939  20.107  13.527
13261W        W81679  44.352  27.643  12.559
13262W        W81680  40.853  33.076   0.737
13263W        W81681   4.282   8.239   0.875
13264W        W81682  43.324  11.858  10.896
13265W        W81683  39.987  18.566   3.721
13266W        W81684  27.106  24.608  13.431
13267W        W81685  19.170  44.422  12.384
13268W        W81686  39.867  36.864   2.358
13269W        W81687  21.261  27.941   4.323
13270W        W81688  40.520  13.344  13.792
13271W        W81689  41.312   9.393  11.522
13272W        W81690  29.627  25.652   0.730
13273W        W81691  33.406   2.438   3.386
13274W        W81692  18.686  40.012  14.495
13275W        W81693  23.675  42.010   0.458
13276W        W81694   8.893  13.270   1.833
13277W        W81695   7.752  20.099  11.083
13278W        W81696  44.322  26.460   3.173
13279W        W81697  24.108  23.556  12.380
13280W        W81698  30.642  29.452  13.012
13281W        W81699   5.213  11.660   3.650
13282W        W81700  19.573  14.203  11.576
13283W        W81701   0.792  15.304  12.863
13284W        W81702   8.298  11.230   4.795
13285W        W81703  25.650  32.968   4.739
13286W        W81704  19.145  37.943  12.469
13287W        W81705  38.385   6.328   2.702
13288W        W81706  20.171   6.340   2.727
13289W        W81707  38.435  21.602  12.447
13290W        W81708  11.280  30.015  13.015
13291W        W81709  14.334  31.934  12.390
13292W        W81710   7.713  38.455   2.216
13293W        W81711   4.885   2.424  13.856
13294W        W81712  12.241  28.100   2.419
13295W        W81713  35.469   7.243   3.643
13296W        W81714  17.602  39.414   0.359
13297W        W81715   8.843  21.554   2.394
13298W        W81716  33.124  29.493  13.357
13299W        W81717  21.170  37.350   0.824
13300W        W81718  39.349  35.366   0.808
13301W        W81719   2.239  34.960   5.117
13302W        W81720  23.155  22.507   4.306
13303W        W81721  14.737   3.358  11.440
13304W        W81722  10.690   3.729  13.410
13305W        W81723  21.030  12.356   2.189
13306W        W81724  33.444   8.229   3.382
13307W        W81725   9.330  23.682  12.341
13308W        W81726  37.558  35.964   1.911
13309W        W81727  11.673  37.498   4.285
13310W        W81728   2.954   3.779  13.532
13311W        W81729  43.369  15.596   3.858
13312W        W81730  14.116  29.556   3.632
13313W        W81731   3.453  29.082   0.812
13314W        W81732  24.055  38.509   2.685
13315W        W81733  32.632  41.982   1.246
13316W        W81734   2.352  33.561  10.476
13317W        W81735  27.509  41.465  12.517
13318W        W81736  44.262  33.451  11.934
13319W        W81737   7.717  32.010   2.712
13320W        W81738  24.201  19.604  11.085
13321W        W81739  11.176  20.530   4.303
13322W        W81740  15.206  25.611   0.856
13323W        W81741  15.580  23.071  14.479
13324W        W81742  19.069  18.292  10.963
13325W        W81743  28.177  38.379  10.596
13326W        W81744  32.967  28.958  11.462
13327W        W81745  34.380   1.849  10.962
13328W        W81746   3.431  12.252   2.688
13329W        W81747  12.791   3.882  12.025
13330W        W81748  11.145  26.096  13.889
13331W        W81749  44.847  30.974  13.858
13332W        W81750   1.753   8.758  11.098
13333W        W81751  15.762  28.096  11.035
13334W        W81752  16.268  41.317  12.502
13335W        W81753  17.659  10.145  12.986
13336W        W81754   1.914  30.470  14.409
13337W        W81755  43.475  41.438  13.488
13338W        W81756  26.174  18.717  10.909
13339W        W81757  21.512   8.695  12.519
13340W        W81758  35.373  43.346  10.414
13341W        W81759  23.707  42.424   1.695
13342W        W81760   2.775   2.235  11.490
13343W        W81761   0.959  39.924   3.253
13344W        W81762  36.085   5.748  14.407
13345W        W81763  37.835  11.797   2.668
13346W        W81764  27.692  11.807   1.721
13347W        W81765   0.387  30.961  13.514
13348W        W81766  11.778   1.383  10.531
13349W        W81767   3.277  30.592  11.075
13350W        W81768  42.832  28.148   3.683
13351W        W81769  40.462  40.928   3.277
13352W        W81770   6.293  10.815  14.772
13353W        W81771  18.247  38.440   4.728
13354W        W81772  36.565   1.841  10.430
13355W        W81773  10.328  23.678  10.927
13356W        W81774  13.300  17.074   1.396
13357W        W81775  21.081  17.715   1.389
13358W        W81776  19.715   7.830   3.158
13359W        W81777  33.496  24.220   3.259
13360W        W81778   9.267  17.676  10.427
13361W        W81779  44.311  11.212  14.958
13362W        W81780  41.315  21.629   5.239
13363W        W81781  38.541  24.539  14.922
13364W        W81782   7.703  10.836   2.397
13365W        W81783  10.227  40.548  11.591
13366W        W81784   2.302  19.129   1.353
13367W        W81785   8.402   0.280   3.642
13368W        W81786   6.238  22.055  12.020
13369W        W81787  36.438  13.196  13.420
13370W        W81788  12.695   7.193   4.169
13371W        W81789  30.134  40.521  12.854
13372W        W81790  16.640   5.380  12.477
13373W        W81791  19.219  13.191  12.009
13374W        W81792  41.821   6.201  14.846
13375W        W81793  23.713  12.734  12.881
13376W        W81794  43.308  22.126   3.189
13377W        W81795  23.521  41.485  14.341
13378W        W81796  42.896   2.237  11.127
13379W        W81797  24.677  42.358   1.920
13380W        W81798  17.275  18.668   0.827
13381W        W81799  43.993  39.925   5.165
13382W        W81800  21.603   4.784   4.689
13383W        W81801   5.726  38.515  11.100
13384W        W81802  32.506  33.108  13.809
13385W        W81803  27.123  43.422   3.863
13386W        W81804  21.229  10.834   1.787
13387W        W81805  12.768  22.048  11.561
13388W        W81806   5.821  44.939   0.788
13389W        W81807  29.589  35.869   3.153
13390W        W81808  39.042  22.737   4.766
13391W        W81809  28.547   6.270  14.275
13392W        W81810  15.705  11.838  14.313
13393W        W81811  17.636   7.288   0.828
13394W        W81812  31.052   2.398   0.400
13395W        W81813   7.180  12.155   0.359
13396W        W81814  10.354  41.443  14.393
13397W        W81815   2.827  38.498  14.285
13398W        W81816  16.141  25.641   0.898
13399W        W81817  18.648   8.723  13.324
13400W        W81818  11.649  36.510  11.533
13401W        W81819  34.591  37.360   4.235
13402W        W81820   1.275  28.584  11.415
13403W        W81821  16.716   9.208   2.854
13404W        W81822  30.101  22.646   3.339
13405W        W81823  17.167  23.519  12.963
13406W        W81824  40.315  42.922  11.391
13407W        W81825  12.749  26.580   3.824
13408W        W81826  36.566  27.669   4.747
13409W        W81827  34.460  34.091  12.851
13410W        W81828  23.149  13.750  11.887
13411W        W81829  37.045   5.821  13.003
13412W        W81830   7.744  28.046  11.465
13413W        W81831  35.542  28.646   4.741
13414W        W81832   6.718  32.125  11.060
13415W        W81833  28.516   3.281   3.850
13416W        W81834  33.957  18.559   0.391
13417W        W81835   1.449   4.389   0.263
13418W        W81836  12.279  13.174   3.761
13419W        W81837  44.307  34.918   4.822
13420W        W81838  23.607  29.507  11.399
13421W        W81839   2.316   2.898  14.374
13422W        W81840   5.264  21.624  13.405
13423W        W81841  22.706  14.787   2.281
13424W        W81842  39.968  10.836   4.607
13425W        W81843   9.680  28.993   4.766
13426W        W81844  29.426   5.901  10.508
13427W        W81845   5.912   4.255  13.871
13428W        W81846  24.673  22.241   4.187
13429W        W81847  17.582  33.384   3.699
13430W        W81848  26.646  16.236   0.883
13431W        W81849  39.869  12.724  12.091
13432W        W81850   4.389  29.583   0.437
13433W        W81851  39.037  27.941  10.578
13434W        W81852  28.535  29.618   3.221
13435W        W81853  23.697   1.446   3.148
13436W        W81854   4.357   1.276   2.373
13437W        W81855   4.328  44.446   1.402
13438W        W81856  21.634   4.909   1.341
13439W        W81857  12.197  10.805  11.979
13440W        W81858  19.775   6.775   2.365
13441W        W81859  43.385   7.743  11.518
13442W        W81860   6.906  10.669   0.416
13443W        W81861  22.052  34.393   3.704
13444W        W81862   7.697  30.455  12.843
13445W        W81863   0.260  17.559  11.880
13446W        W81864  22.155  31.052  14.970
13447W        W81865  29.531  44.495  14.884
13448W        W81866  29.075  16.689   0.409
13449W        W81867  44.891   3.782  12.464
13450W        W81868  17.663  35.959  13.536
13451W        W81869   3.775  22.039  11.580
13452W        W81870  21.743  19.569   4.190
13453W        W81871  14.693   1.967  11.902
13454W        W81872   3.846  37.976   1.398
13455W        W81873  25.545  40.825   0.270
13456W        W81874  26.040  41.861   3.298
13457W        W81875   2.788  38.331  14.964
13458W        W81876  31.454  18.701  13.356
13459W        W81877  35.107   8.659  13.335
13460W        W81878  30.966   1.735  12.395
13461W        W81879  29.067   4.304   1.319
13462W        W81880  42.482   4.933  14.447
13463W        W81881  40.541  23.092  10.995
13464W        W81882  35.593  41.836  14.955
13465W        W81883  39.918   6.378   2.289
13466W        W81884  14.727  30.566  13.958
13467W        W81885  40.306  10.737   1.437
13468W        W81886  16.678  42.830  12.408
13469W        W81887   5.372  11.698  13.504
13470W        W81888  26.546  18.657  13.840
13471W        W81889   4.927  11.317  10.062
13472W        W81890  21.556   1.443   0.764
13473W        W81891  29.570  30.043  12.357
13474W        W81892   7.350  20.248  11.977
13475W        W81893  32.060   0.842  10.483
13476W        W81894  30.546  17.224  10.493
13477W        W81895  27.945   9.197   1.811
13478W        W81896  36.974  40.407   4.624
13479W        W81897   1.448   1.339   2.822
13480W        W81898  43.455  25.161   2.242
13481W        W81899  37.904   8.373   3.377
13482W        W81900  30.469  17.793  14.817
13483W        W81901  35.037  30.114   0.300
13484W        W81902  30.083  44.455   2.223
13485W        W81903  39.888  21.253   4.292
13486W        W81904   5.419   2.752   1.705
13487W        W81905  28.955  20.045   3.251
13488W        W81906  40.374  40.032  10.619
13489W        W81907   0.855  13.792  11.005
13490W        W81908  33.030  25.484  12.050
13491W        W81909  19.624  35.391  12.995
13492W        W81910  19.723  31.565  10.452
13493W        W81911  35.591  38.407   4.785
13494W        W81912  30.079  29.487  13.827
13495W        W81913  15.317   8.679  13.988
13496W        W81914  38.837  27.018   2.238
13497W        W81915  41.480  13.293   5.213
13498W        W81916   4.806  41.421   0.440
13499W        W81917   2.810  15.653  14.984
13500W        W81918  16.286  43.347  11.562
13501W        W81919   8.340   4.887   2.695
13502W        W81920  30.643  10.260   1.315
13503W        W81921  44.363  43.998  11.557
13504W        W81922  13.836  28.155   3.170
13505W        W81923  26.491  36.894   1.921
13506W        W81924   9.163  30.989  10.420
13507W        W81925   4.851  27.566  12.536
13508W        W81926  22.019  10.823  13.035
13509W        W81927  11.370  43.872  14.853
13510W        W81928  14.250  25.484   5.174
13511W        W81929  34.575  19.738  14.321
13512W        W81930  40.306   2.391  13.505
13513W        W81931  13.640   0.750  11.403
13514W        W81932  19.122   4.316  11.104
13515W        W81933  33.896  16.591  12.534
13516W        W81934  24.206  23.127   0.298
13517W        W81935  41.022  27.462  12.039
13518W        W81936   7.898  39.925   0.803
13519W        W81937  31.576   6.385  11.127
13520W        W81938   9.658  12.679   0.460
13521W        W81939  37.383   5.331  12.090
13522W        W81940  38.441  41.860  14.777
13523W        W81941   3.275  23.112  13.849
13524W        W81942  30.972   6.351   4.217
13525W        W81943   6.358  37.073   0.291
13526W        W81944  17.800  15.108  10.896
13527W        W81945  19.718  38.540  11.443
13528W        W81946  26.492  31.498   4.821
13529W        W81947  12.799   5.692   1.345
13530W        W81948  38.571   6.206   0.955
13531W        W81949  43.939  18.244   4.838
13532W        W81950   0.885  26.057   4.767
13533W        W81951  19.201   3.728   3.199
13534W        W81952  24.068  38.025   0.910
13535W        W81953  23.530  39.486  11.957
13536W        W81954   9.879  35.017   2.840
13537W        W81955  13.116  38.336   1.298
13538W        W81956  33.553  11.710   3.224
13539W        W81957  32.136  30.101  14.308
13540W        W81958  17.666  42.939  13.841
13541W        W81959  41.375  41.899   1.752
13542W        W81960  12.259   8.383   2.771
13543W        W81961   5.805  37.989  10.995
13544W        W81962  33.887  38.433   2.266
13545W        W81963  29.636  27.101  14.981
13546W        W81964  22.513  40.942  13.937
13547W        W81965  39.921  13.134   2.353
13548W        W81966   7.416  26.666   0.430
13549W        W81967  33.022  37.911  10.455
13550W        W81968  26.053   6.398  12.367
13551W        W81969   8.761  34.439  14.313
13552W        W81970  41.920  27.141  10.454
13553W        W81971  29.520  37.364   4.734
13554W        W81972  19.662  34.497   3.331
13555W        W81973   0.465  17.301  14.392
13556W        W81974  40.477  35.509   1.752
13557W        W81975  26.635   2.354   0.828
13558W        W81976   0.302  26.508  12.450
13559W        W81977  37.893   3.426   1.377
13560W        W81978  29.468   1.395   2.845
13561W        W81979  14.101  43.946   1.788
13562W        W81980   6.808  43.373  12.888
13563W        W81981  23.094  37.849  11.533
13564W        W81982   1.430  17.598   0.324
13565W        W81983  43.432  19.187   1.336
13566W        W81984  19.284  36.991   0.299
13567W        W81985   8.165  20.626   4.220
13568W        W81986  24.514  21.087   2.663
13569W        W81987  43.443  42.860   3.157
13570W        W81988   5.304  10.267  14.308
13571W        W81989   5.343   8.234   3.685
13572W        W81990  18.694  32.530  11.926
13573W        W81991  17.244  35.092   1.248
13574W        W81992   1.857  33.125  13.997
13575W        W81993  12.653   3.309   2.254
13576W        W81994  36.868  19.132  10.543
13577W        W81995  43.469   9.260  10.923
13578W        W81996  19.704  11.702   3.371
13579W        W81997  35.549   0.286  11.608
13580W        W81998   8.331  27.121  12.465
13581W        W81999  40.969  10.728  11.378
13582W        W82000  30.611  29.170  12.958
13583W        W82001  18.275  24.507  13.795
13584W        W82002  17.643  40.907   2.184
13585W        W82003  18.139  29.996  11.542
13586W        W82004  35.410  17.649   2.216
13587W        W82005  16.798   2.468   3.842
13588W        W82006  29.096  16.736  12.441
13589W        W82007   3.328   6.257   2.729
13590W        W82008  41.512  40.407   4.255
13591W        W82009   5.315  31.076   0.773
13592W        W82010  29.025  11.773   4.126
13593W        W82011  13.293  15.819  14.832
13594W        W82012  41.970  26.107  11.572
13595W        W82013   1.404   7.800  12.894
13596W        W82014   2.844  38.565  11.594
13597W        W82015  22.186  30.457   0.302
13598W        W82016  30.628  22.731  13.412
13599W        W82017   0.469  44.291   0.276
13600W        W82018   1.357  39.414   4.666
13601W        W82019  24.620  16.167   4.152
13602W        W82020  31.057  39.416  11.526
13603W        W82021  14.096  33.589  14.807
13604W        W82022  18.077  36.018  14.960
13605W        W82023  13.214  23.721  14.916
13606W        W82024  33.445  26.541   4.669
13607W        W82025  31.981  25.070  12.016
13608W        W82026  21.755   9.675  11.606
13609W        W82027  13.293   5.331   3.866
13610W        W82028  18.056  43.327  11.882
13611W        W82029   3.386   8.742   0.296
13612W        W82030   9.689   9.730   3.733
13613W        W82031  15.708  10.690  14.281
13614W        W82032   1.346  23.207  10.604
13615W        W82033  32.923  34.865  11.080
13616W        W82034  23.597   3.410  10.480
13617W        W82035   6.901   9.761   4.163
13618W        W82036  21.109   4.269   3.664
13619W        W82037  19.640   0.259  12.362
13620W        W82038  15.247  21.246   1.428
13621W        W82039   7.194   6.285  12.465
13622W        W82040  36.929  25.597  10.450
13623W        W82041  29.082  19.743  14.021
13624W        W82042  31.905  38.381  10.928
13625W        W82043  14.284  21.517  12.898
13626W        W82044  41.921   8.766  10.605
13627W        W82045  13.640  38.495   1.789
13628W        W82046  17.187  23.985  14.421
13629W        W82047   7.254   8.693   2.767
13630W        W82048  26.591  34.379  12.839
13631W        W82049  19.552   5.271  11.929
13632W        W82050  17.761  14.103   2.307
13633W        W82051   0.310  36.048  12.085
13634W        W82052   2.415  39.899   0.924
13635W        W82053  41.321  15.117   3.173
13636W        W82054  32.057  23.601  14.830
13637W        W82055  11.219  18.781   1.243
13638W        W82056   1.741  32.437  11.506
13639W        W82057  15.695   2.856   1.343
13640W        W82058  21.082  11.680   4.652
13641W        W82059   4.338  27.507   4.125
13642W        W82060  24.125  25.641  14.356
13643W        W82061  21.578  42.418   0.312
13644W        W82062   7.827  17.220   3.719
13645W        W82063  16.798   1.803  10.938
13646W        W82064   5.813  24.152  12.467
13647W        W82065  20.579  18.266   3.653
13648W        W82066  15.091  42.311  10.408
13649W        W82067  24.522   3.254   2.824
13650W        W82068  17.183  11.151  10.962
13651W        W82069  11.747  14.721  12.875
13652W        W82070  21.586  39.888   1.744
13653W        W82071  25.517  36.933  14.018
13654W        W82072  26.495  12.294  14.834
13655W        W82073  27.196  18.209  12.452
13656W        W82074  25.711  15.126  13.966
13657W        W82075   3.717  23.119   3.287
13658W        W82076   8.767  44.419  13.357
13659W        W82077  26.702  27.480  13.346
13660W        W82078  32.636  31.493   2.369
13661W        W82079  17.121  11.843  11.976
13662W        W82080   2.814   2.907  13.803
13663W        W82081  18.253  22.008   1.213
13664W        W82082  44.304   9.823   1.926
13665W        W82083   3.792  11.323   2.853
13666W        W82084   7.829  32.019   0.288
13667W        W82085  17.616  13.153   5.311
13668W        W82086  12.804  18.708  12.574
13669W        W82087  16.196   4.722   0.769
13670W        W82088  43.969  28.156  11.050
13671W        W82089   6.919  20.608  13.927
13672W        W82090  14.609   7.269   3.339
13673W        W82091  11.262   6.222  12.051
13674W        W82092  32.493  21.753  12.983
13675W        W82093  23.587  20.070  14.003
13676W        W82094   1.277  14.198   3.868
13677W        W82095  43.280  36.363  12.543
13678W        W82096  42.990  33.424  11.989
13679W        W82097   9.741  39.828   4.678
13680W        W82098   3.416  29.471   0.450
13681W        W82099  42.303  37.552   1.438
13682W        W82100  31.589   3.262   0.275
13683W        W82101   9.263  18.637  13.431
13684W        W82102  32.601  34.537  12.484
13685W        W82103  27.057   8.208  11.002
13686W        W82104  26.545  33.052  12.864
13687W        W82105   6.689   1.865  12.446
13688W        W82106  30.119  24.074   4.725
13689W        W82107  36.505  22.144   2.348
13690W        W82108  21.238  24.089  12.021
13691W        W82109  19.135  11.679   0.805
13692W        W82110  37.505  32.136   0.368
13693W        W82111  18.656   1.799  11.094
13694W        W82112  27.511   0.783   3.271
13695W        W82113  44.267  17.186  11.054
13696W        W82114  15.171  29.666   0.374
13697W        W82115  39.018  34.595  10.569
13698W        W82116  16.094  42.462   2.244
13699W        W82117  18.673  21.149  10.418
13700W        W82118  21.124  25.496   3.352
13701W        W82119   7.182  28.080   1.840
13702W        W82120  14.140  34.375  12.016
13703W        W82121  13.233  16.727   1.237
13704W        W82122  23.653  26.105   3.367
13705W        W82123  33.473  26.685  10.981
13706W        W82124  24.490  25.688   1.289
13707W        W82125  17.200  29.638  11.544
13708W        W82126  18.715  19.654   5.197
13709W        W82127   4.857  23.181  11.967
13710W        W82128  38.021  18.764  12.892
13711W        W82129  30.946  14.776   1.769
13712W        W82130  28.147  37.524   1.260
13713W        W82131  12.646  36.424  11.601
13714W        W82132   6.749  15.086  14.454
13715W        W82133  30.915  30.610   1.814
13716W        W82134  43.809   6.251  11.993
13717W        W82135  15.113   8.710   3.837
13718W        W82136  33.613  14.759   0.854
13719W        W82137  43.006   1.773   1.912
13720W        W82138   4.237   6.289   3.166
13721W        W82139   4.839  44.308   2.397
13722W        W82140  18.212  39.052  11.567
13723W        W82141  30.560   3.728  13.457
13724W        W82142  23.136  44.896  11.559
13725W        W82143   8.320  18.143   1.335
13726W        W82144  15.715  27.048   0.782
13727W        W82145  22.723  22.161  11.938
13728W        W82146  21.196  18.760  13.360
13729W        W82147  22.231  44.420   3.686
13730W        W82148  18.204   1.791   1.243
13731W        W82149  29.122  16.597  11.085
13732W        W82150  40.363  20.721  12.367
13733W        W82151   1.859  19.146   5.129
13734W        W82152  20.204  26.066  12.419
13735W        W82153  11.245  41.853  14.910
13736W        W82154   2.818  41.796  13.390
13737W        W82155  13.265  38.361   3.378
13738W        W82156  30.027  28.544   1.393
13739W        W82157  36.032  37.985   5.141
13740W        W82158  14.304  26.587  14.837
13741W        W82159  40.539  21.619   4.648
13742W        W82160  23.574  40.005  10.120
13743W        W82161  39.383  10.747  12.987
13744W        W82162  37.831   4.754  12.903
13745W        W82163   9.352  10.167   3.235
13746W        W82164  19.207  24.164   2.341
13747W        W82165  21.162  21.588  14.874
13748W        W82166  11.335  28.534   0.918
13749W        W82167  11.183  28.635  10.413
13750W        W82168  13.769   2.444   0.876
13751W        W82169   2.947  21.261   2.357
13752W        W82170  11.769  29.570  14.882
13753W        W82171  34.098  11.369  13.064
13754W        W82172  12.620  16.582  13.018
13755W        W82173  19.586   6.183   4.795
13756W        W82174  14.592  12.780   1.440
13757W        W82175   0.320  27.457  10.903
13758W        W82176  24.512   0.871   3.185
13759W        W82177  33.584  29.126   1.223
13760W        W82178  26.549   4.415   0.959
13761W        W82179  42.997   7.820  12.942
13762W        W82180  13.251   6.820  12.895
13763W        W82181   8.271  13.801   2.840
13764W        W82182  41.911  22.616   5.193
13765W        W82183  34.539  27.551  12.855
13766W        W82184  42.521  19.044  10.995
13767W        W82185   0.963  41.903  13.363
13768W        W82186   1.359  32.963  10.449
13769W        W82187  37.572   3.826   0.892
13770W        W82188  41.381   1.413  13.437
13771W        W82189   8.363  38.049  11.437
13772W        W82190  10.260  25.060  13.010
13773W        W82191  16.295  21.235  14.356
13774W        W82192   2.893   4.733   0.761
13775W        W82193  42.510  25.001   3.335
13776W        W82194  30.571  22.048   0.851
13777W        W82195   8.386  10.720   0.250
13778W        W82196  17.668  25.705  12.961
13779W        W82197  21.747  21.650  10.518
13780W        W82198  25.525  30.560   4.600
13781W        W82199  11.802   6.232  12.974
13782W        W82200   8.373  33.456  12.952
13783W        W82201   9.800  26.108  10.947
13784W        W82202   7.840  29.108  10.583
13785W        W82203   8.323   3.754   3.290
13786W        W82204  12.697   6.366  13.418
13787W        W82205   9.388  43.837  10.630
13788W        W82206  13.195   5.873   0.385
13789W        W82207   9.838  28.452  11.084
13790W        W82208  15.706  26.582  10.501
13791W        W82209   3.450  23.496   1.231
13792W        W82210   8.274  26.618   4.175
13793W        W82211  39.534  23.592  14.874
13794W        W82212  41.836  10.636   2.843
13795W        W82213  29.580  39.905  13.464
13796W        W82214  41.810  10.702   3.227
13797W        W82215  18.067  19.584  10.591
13798W        W82216  14.723   4.389   0.788
13799W        W82217   8.249  33.551   1.907
13800W        W82218  16.190  41.816  13.952
13801W        W82219  22.057  20.732  12.371
13802W        W82220  17.671   6.265  11.965
13803W        W82221  41.795  40.337  14.504
13804W        W82222   2.380  32.043   3.248
13805W        W82223  38.841  36.553  13.003
13806W        W82224   7.679  22.175   3.694
13807W        W82225  17.273  13.768  13.435
13808W        W82226  33.122  33.505   4.682
13809W        W82227  22.508   0.445   2.254
13810W        W82228  34.426  30.136   3.194
13811W        W82229  38.400  44.308   3.200
13812W        W82230  42.450  21.066  10.556
13813W        W82231  32.470  10.246  12.482
13814W        W82232  16.151  28.637  14.376
13815W        W82233   4.297  12.739   2.874
13816W        W82234   8.745  10.361   0.314
13817W        W82235  26.064  22.022  11.598
13818W        W82236  43.976  17.686   3.350
13819W        W82237  36.487  22.047  12.926
13820W        W82238  17.717  38.892  11.037
13821W        W82239   0.358  41.346   1.225
13822W        W82240  31.899   6.363   4.232
13823W        W82241  14.623  38.819  13.943
13824W        W82242   7.825  28.138   4.280
13825W        W82243  44.295  23.685   4.330
13826W        W82244   3.894   7.299   4.801
13827W        W82245  33.491  21.211  14.929
13828W        W82246  30.653  21.659  13.340
13829W        W82247  40.535  18.739   3.362
13830W        W82248   4.803  23.126   3.176
13831W        W82249  38.975   7.828  12.873
13832W        W82250  25.079   7.372   0.757
13833W        W82251  25.028  19.129   1.748
13834W        W82252  27.548  14.696  14.398
13835W        W82253   1.862  21.054   1.387
13836W        W82254  26.168  31.571  10.944
13837W        W82255  23.655  35.477  14.792
13838W        W82256  14.606  10.162   3.343
13839W        W82257  20.683  21.081  12.823
13840W        W82258  20.099  34.417  12.514
13841W        W82259  34.590  18.604   2.693
13842W        W82260  34.585  26.080  11.515
13843W        W82261  18.217   8.843  12.092
13844W        W82262  12.659  26.128  11.023
13845W        W82263   6.269   3.847   0.899
13846W        W82264  39.864   8.672   0.811
13847W        W82265  26.543  22.231   3.167
13848W        W82266   1.915   6.396   1.349
13849W        W82267  17.204  38.484  11.386
13850W        W82268   8.226   1.813  14.997
13851W        W82269   5.868   8.190   0.732
13852W        W82270  17.093  20.038  13.823
13853W        W82271  36.504   6.302  12.341
13854W        W82272  21.152  15.694   0.438
13855W        W82273  14.772  25.065   0.960
13856W        W82274  44.866  33.512   4.779
13857W        W82275   3.843  43.334   1.320
13858W        W82276  26.982   3.943   1.304
13859W        W82277  38.416  40.385  13.955
13860W        W82278  23.694  28.543  14.400
13861W        W82279  32.948  27.990   3.199
13862W        W82280  17.623   4.256  12.378
13863W        W82281  26.064   7.791   3.333
13864W        W82282   0.774  12.704   2.747
13865W        W82283  35.091  23.147   4.212
13866W        W82284  11.644  31.016  11.999
13867W        W82285  18.713  40.477   4.333
13868W        W82286   6.280  21.093  11.888
13869W        W82287   4.874   1.834   1.844
13870W        W82288   2.824  25.704  14.844
13871W        W82289   8.724  11.164   3.310
13872W        W82290  21.697  26.033   0.373
13873W        W82291  27.123  25.177  11.029
13874W        W82292   5.851  19.533  12.914
13875W        W82293  36.989  16.582   4.157
13876W        W82294  25.485  30.107  12.483
13877W        W82295  41.425  43.842   2.341
13878W        W82296  21.592  39.860   0.371
13879W        W82297  13.205  17.576  10.429
13880W        W82298  19.619  15.209  14.313
13881W        W82299  34.940  16.124  10.521
13882W        W82300  40.846  13.652   3.257
13883W        W82301  19.578  20.549   3.162
13884W        W82302  15.652  26.178  12.917
13885W        W82303  30.462  12.833   2.202
13886W        W82304  27.674   6.401  13.864
13887W        W82305  26.678  19.722   3.235
13888W        W82306  25.651  24.070  12.364
13889W        W82307  27.449  34.016  11.104
13890W        W82308  42.303  22.069   2.241
13891W        W82309  37.944  29.996  12.352
13892W        W82310  22.519  14.198  13.363
13893W        W82311   0.467  27.582   3.856
13894W        W82312  19.134  39.435   3.860
13895W        W82313  19.668  29.998   2.364
13896W        W82314  35.410  39.052   2.825
13897W        W82315  21.188  39.981  10.052
13898W        W82316   7.712   0.383   4.143
13899W        W82317  12.743  27.601   4.225
13900W        W82318  12.228  21.223   1.348
13901W        W82319  44.319  26.102  11.608
13902W        W82320  22.739   3.898   1.830
13903W        W82321   3.324  43.893   1.318
13904W        W82322   9.221  35.567  11.011
13905W        W82323  36.079  41.793   0.893
13906W        W82324  13.752   6.799   3.352
13907W        W82325   3.934   6.186   0.851
13908W        W82326  19.653  24.169  13.852
13909W        W82327  36.459  11.673  12.020
13910W        W82328  15.793  39.041  13.846
13911W        W82329   4.428  32.063  11.546
13912W        W82330  11.244  17.763  14.996
13913W        W82331   3.801  37.864  13.974
13914W        W82332  34.589  11.242   0.262
13915W        W82333   6.310   6.733   4.764
13916W        W82334   5.429  27.042   0.291
13917W        W82335  38.512  22.173   1.339
13918W        W82336  26.103  24.173   2.777
13919W        W82337  13.329  38.465  10.594
13920W        W82338   4.294  16.259  13.475
13921W        W82339  40.373   6.264  12.068
13922W        W82340  17.140  42.943   2.407
13923W        W82341  38.066   3.365  13.922
13924W        W82342  37.525  15.726  13.312
13925W        W82343  33.465   7.233  13.898
13926W        W82344  44.370  23.187   2.389
13927W        W82345  22.629   5.915   0.912
13928W        W82346  43.863  35.107  14.295
13929W        W82347  11.149  23.041   0.387
13930W        W82348  19.728   3.871  11.548
13931W        W82349  27.112   2.738   3.320
13932W        W82350  18.175  17.655   3.697
13933W        W82351  38.958  13.305   1.885
13934W        W82352  21.540   0.328  14.454
13935W        W82353  23.631   1.452  13.424
13936W        W82354   2.373  23.177   0.274
13937W        W82355  43.811  26.687  13.984
13938W        W82356  37.873  10.219  14.435
13939W        W82357  26.515  39.453  12.027
13940W        W82358  44.331   5.388  12.966
13941W        W82359  44.306  40.425  13.318
13942W        W82360  19.070  43.512   1.366
13943W        W82361  13.351  44.314  13.481
13944W        W82362   8.343   7.843  11.560
13945W        W82363  14.197   5.324  14.490
13946W        W82364  36.523  10.147   2.886
13947W        W82365  17.172   6.919   3.370
13948W        W82366  41.788  33.918  12.985
13949W        W82367  34.392  20.702   1.320
13950W        W82368  15.804   4.864   5.259
13951W        W82369  15.194   1.897  14.308
13952W        W82370  18.731   9.695  14.494
13953W        W82371  32.397  31.411  13.503
13954W        W82372   4.823   7.715  11.022
13955W        W82373  20.694  19.657   0.272
13956W        W82374  31.123  44.858   2.345
13957W        W82375  41.401  41.377   1.848
13958W        W82376  20.703  28.616  12.971
13959W        W82377   0.756  22.577   0.781
13960W        W82378   7.749   1.250   1.391
13961W        W82379  36.565  15.218   0.824
13962W        W82380  10.706  21.739  13.523
13963W        W82381  41.306  43.406   3.653
13964W        W82382  26.993  37.537   1.312
13965W        W82383  13.212  24.040  13.899
13966W        W82384  15.117  11.368  12.933
13967W        W82385  41.338  28.649  13.032
13968W        W82386  24.710  16.300  11.513
13969W        W82387  24.126  11.792  13.813
13970W        W82388  31.629  24.509  12.462
13971W        W82389  38.856  31.469  12.944
13972W        W82390  18.094   6.201   3.190
13973W        W82391  44.428  25.542  13.905
13974W        W82392  32.061  36.420   5.146
13975W        W82393   8.683  32.418  14.904
13976W        W82394  33.570   7.283  14.471
13977W        W82395  23.210   7.378  14.500
13978W        W82396  22.636   5.892   2.189
13979W        W82397  29.061  22.502   3.281
13980W        W82398  11.175  27.955  11.460
13981W        W82399  16.284  42.825  10.999
13982W        W82400  28.121  39.037   3.224
13983W        W82401  22.117   7.733  13.378
13984W        W82402   7.228   9.683   0.842
13985W        W82403  42.288  26.185  14.425
13986W        W82404  40.344  32.394   1.913
13987W        W82405  35.574  40.969   4.783
13988W        W82406   4.916  38.390  11.045
13989W        W82407  33.111  37.369  14.830
13990W        W82408  17.206   1.879  10.610
13991W        W82409  33.875  37.901  13.376
13992W        W82410  12.762  33.624  11.409
13993W        W82411  32.450  26.971  10.585
13994W        W82412  39.811  20.044  11.922
13995W        W82413  23.055  40.415  11.594
13996W        W82414   2.738  16.784   3.182
13997W        W82415  14.169  16.205   1.218
13998W        W82416  33.392   0.319  12.019
13999W        W82417  42.787  38.500   0.847
14000W        W82418   7.308   2.899  12.404
14001W        W82419  42.509  27.011  10.978
14002W        W82420  25.177  23.107   3.783
14003W        W82421  29.633  28.547  10.434
14004W        W82422  33.500   6.864   0.347
14005W        W82423  33.929  19.761  13.967
14006W        W82424  29.440   0.430   2.682
14007W        W82425  10.194   1.389   2.308
14008W        W82426   1.960   1.255  11.903
14009W        W82427   1.328  20.137  13.898
14010W        W82428  15.121   4.731  11.445
14011W        W82429  40.506  33.590  12.003
14012W        W82430  23.590  37.866  14.913
14013W        W82431  31.004  22.085  11.518
14014W        W82432  29.088  24.066   1.826
14015W        W82433   6.198  18.139  11.920
14016W        W82434  22.619  43.432   4.353
14017W        W82435  42.876  19.043  12.958
14018W        W82436  16.081  31.049   3.841
14019W        W82437  39.931  43.932  12.419
14020W        W82438  36.936  30.045  14.341
14021W        W82439   2.366   8.350  13.515
14022W        W82440  22.617  30.147   1.234
14023W        W82441  27.662  22.198  11.591
14024W        W82442  42.800  41.998   5.709
14025W        W82443  29.983  44.753   4.231
14026W        W82444  29.591  18.065   4.241
14027W        W82445  16.270  12.732   4.130
14028W        W82446  11.141  13.125  13.488
14029W        W82447  18.219  10.246  13.955
14030W        W82448  23.110   7.831   2.878
14031W        W82449  27.099  38.327   4.238
14032W        W82450  15.329  11.640  13.923
14033W        W82451  31.091   7.770   2.668
14034W        W82452  30.492  23.995   3.650
14035W        W82453  10.851  34.870   4.290
14036W        W82454  35.378  32.461  13.998
14037W        W82455   5.786  14.303   0.813
14038W        W82456  21.162   0.936   2.388
14039W        W82457   2.748  21.136  11.080
14040W        W82458  11.173   5.419  13.500
14041W        W82459  41.803  19.138  13.858
14042W        W82460  37.441  10.380  14.422
14043W        W82461  26.683   9.806   1.926
14044W        W82462  14.759  12.786   4.304
14045W        W82463  32.506  23.648   3.806
14046W        W82464  25.087  25.663  11.472
14047W        W82465  11.316   0.453  11.889
14048W        W82466   5.699  33.097  13.505
14049W        W82467  10.177  39.009  10.496
14050W        W82468  44.476   8.828   0.887
14051W        W82469  17.205  38.388  13.902
14052W        W82470  17.069  21.221   2.832
14053W        W82471  16.109   9.153  11.552
14054W        W82472   0.260  12.258   5.261
14055W        W82473  32.608  12.674  13.323
14056W        W82474   9.676  34.387  11.086
14057W        W82475  34.383  11.749  14.490
14058W        W82476   2.293  10.708   4.169
14059W        W82477  36.498  38.969  14.922
14060W        W82478  12.781  25.063  11.906
14061W        W82479  40.020   4.698  14.766
14062W        W82480   2.356   9.383  14.802
14063W        W82481  32.948  42.374   4.736
14064W        W82482  43.777  43.425   3.758
14065W        W82483  41.862  20.150  11.872
14066W        W82484  24.616  12.249   0.374
14067W        W82485   8.216  43.462  14.852
14068W        W82486  41.041  20.639  11.896
14069W        W82487  36.374  41.029  13.506
14070W        W82488   8.725  14.150  13.488
14071W        W82489  29.477  44.774   0.840
14072W        W82490  25.481   5.791  11.933
14073W        W82491  31.444   3.785  11.026
14074W        W82492  19.062  36.870   1.239
14075W        W82493  19.085   7.836  13.469
14076W        W82494  12.284  12.188  13.326
14077W        W82495  25.468  24.103   3.369
14078W        W82496  33.925  27.159  13.029
14079W        W82497  10.297  21.051   2.253
14080W        W82498  16.799  43.940  11.552
14081W        W82499  41.435  14.268  12.568
14082W        W82500   0.311  15.812   2.416
14083W        W82501  25.526  11.635   3.790
14084W        W82502   1.318  27.015  10.618
14085W        W82503  29.443  32.636   1.864
14086W        W82504  34.605   6.885  13.939
14087W        W82505  37.861  30.916  12.445
14088W        W82506  38.480  20.086   1.925
14089W        W82507  43.383   9.391   4.196
14090W        W82508  22.561  32.625   0.735
14091W        W82509  21.696  11.852   0.794
14092W        W82510  32.914  22.536   1.315
14093W        W82511  34.884   2.734  11.863
14094W        W82512   1.423  39.968   4.288
14095W        W82513   0.914  20.630  14.419
14096W        W82514  11.248  27.633   1.889
14097W        W82515   9.803  27.512  14.005
14098W        W82516  41.494  26.626  11.908
14099W        W82517  18.272  11.320   0.915
14100W        W82518  12.631  18.188   1.820
14101W        W82519  20.270  24.637   4.722
14102W        W82520  31.548  32.993   1.825
14103W        W82521  10.830  35.939  14.762
14104W        W82522  15.193  44.846   2.673
14105W        W82523  10.869  20.702  11.115
14106W        W82524  21.687  18.056  14.827
14107W        W82525  19.222   8.273  13.004
14108W        W82526  26.054  40.888  12.400
14109W        W82527  13.164  16.570   1.741
14110W        W82528  30.989  24.518   1.864
14111W        W82529  22.598  41.927  11.097
14112W        W82530  23.581  31.458   2.405
14113W        W82531  21.090  30.475   0.873
14114W        W82532  33.014  13.738   0.770
14115W        W82533  44.439  12.719   5.114
14116W        W82534  14.133  31.546  12.402
14117W        W82535  20.274  19.641  10.642
14118W        W82536   9.349   4.840   2.902
14119W        W82537  22.566  22.738   9.979
14120W        W82538   5.218  25.061   4.712
14121W        W82539  40.314  25.212   0.949
14122W        W82540  40.043  44.505  10.540
14123W        W82541  22.654  31.126  11.111
14124W        W82542  14.693  29.081   9.926
14125W        W82543  17.659   0.379  14.903
14126W        W82544  28.566  12.328  12.916
14127W        W82545   3.360  23.726   4.305
14128W        W82546  41.977  14.302  10.463
14129W        W82547   6.732  44.366  12.029
14130W        W82548  34.909  24.601  14.446
14131W        W82549   7.290  12.287  10.919
14132W        W82550  13.624  12.155   1.229
14133W        W82551  14.195  22.578   1.409
14134W        W82552   4.204  14.224   0.735
14135W        W82553  25.486   1.947  11.411
14136W        W82554  35.881  13.119   1.855
14137W        W82555   4.858   7.293   0.781
14138W        W82556  26.134  43.995   2.255
14139W        W82557  13.275  13.291   1.916
14140W        W82558  24.025  33.031  14.509
14141W        W82559   2.434  42.840  13.487
14142W        W82560  36.586  26.105  12.566
14143W        W82561  29.923  12.789  11.426
14144W        W82562  30.968   5.201   3.273
14145W        W82563  18.546  24.651   5.744
14146W        W82564  30.964  31.612   4.805
14147W        W82565  30.641  18.548   1.232
14148W        W82566  15.145   2.797  13.339
14149W        W82567   6.757  32.893  11.412
14150W        W82568  18.263  27.097   1.729
14151W        W82569  25.995   8.761   4.313
14152W        W82570  37.889  27.669   3.208
14153W        W82571  14.688  43.985  11.534
14154W        W82572  18.751  22.209   1.267
14155W        W82573  26.578  12.728  11.471
14156W        W82574   8.313  30.505   4.794
14157W        W82575  15.681  40.419   3.237
14158W        W82576  25.102  11.161  11.411
14159W        W82577  35.050   7.789   0.356
14160W        W82578  28.153  27.143   1.377
14161W        W82579   9.302   1.787  11.531
14162W        W82580  30.914  32.925   2.896
14163W        W82581  29.984   9.886  11.052
14164W        W82582  37.942  41.518  14.317
14165W        W82583  40.817  13.756  14.433
14166W        W82584  29.638  15.297  11.062
14167W        W82585  37.073  25.577   2.274
14168W        W82586  25.140  39.013   4.764
14169W        W82587  14.306  27.512   2.688
14170W        W82588  29.169   2.379  11.414
14171W        W82589  17.596  38.470  12.825
14172W        W82590  33.426  41.301   5.307
14173W        W82591  42.959  23.077   2.316
14174W        W82592  35.575   0.841  14.312
14175W        W82593  43.009  44.379   4.200
14176W        W82594  19.744  14.189   1.892
14177W        W82595  23.048  37.399   1.732
14178W        W82596  12.301  28.089   1.820
14179W        W82597  17.653  19.533  11.113
14180W        W82598  22.203  37.920  14.417
14181W        W82599  18.242   2.936   4.607
14182W        W82600  38.031  36.509  14.319
14183W        W82601   5.322  26.178  13.875
14184W        W82602  39.878  26.488   4.763
14185W        W82603   9.763  30.464   1.398
14186W        W82604  20.075  32.485  12.086
14187W        W82605  39.533  29.143  10.982
14188W        W82606  15.097  35.384   4.173
14189W        W82607   5.335  13.699  12.848
14190W        W82608  26.125  16.221  13.792
14191W        W82609  38.894  21.223  14.291
14192W        W82610  41.798  37.544  13.023
14193W        W82611  16.134   1.761   4.348
14194W        W82612  25.694  10.231  12.346
14195W        W82613   0.886  38.053   1.746
14196W        W82614  35.597  30.539   3.158
14197W        W82615  20.061  22.099  14.768
14198W        W82616   3.787  16.662  10.599
14199W        W82617  26.623  20.661  11.093
14200W        W82618  44.445   9.889  14.409
14201W        W82619  24.032  26.614  11.432
14202W        W82620   3.898  15.137   2.365
14203W        W82621   3.734  39.394   0.374
14204W        W82622  15.114  22.661  13.820
14205W        W82623  24.041  23.644   1.723
14206W        W82624  40.955  43.920   0.463
14207W        W82625  30.915  24.060   0.816
14208W        W82626   1.441   6.355  12.368
14209W        W82627   5.372  22.602  11.908
14210W        W82628  42.365   2.865   0.300
14211W        W82629  16.073   3.897  11.580
14212W        W82630  32.974  35.395  11.064
14213W        W82631  23.702  14.833  13.498
14214W        W82632  10.779  17.781   4.674
14215W        W82633   9.759  31.491   1.808
14216W        W82634  34.960  24.512  14.939
14217W        W82635  41.043  16.766   4.298
14218W        W82636  20.221   1.890   2.897
14219W        W82637   6.190  39.373  10.448
14220W        W82638  39.525  30.028  14.284
14221W        W82639   2.838  44.980  14.430
14222W        W82640  27.996   0.980  12.850
14223W        W82641  34.867  20.649   4.735
14224W        W82642  38.502  31.030   4.619
14225W        W82643  35.468   1.291   1.746
14226W        W82644  13.233  30.535   5.091
14227W        W82645  31.501  44.872   4.784
14228W        W82646  22.101  13.191   1.340
14229W        W82647   6.785  14.635   3.814
14230W        W82648  35.515  17.176   2.777
14231W        W82649  22.039  34.101  13.039
14232W        W82650  44.489  42.439  14.507
14233W        W82651  11.673  22.575  12.849
14234W        W82652   5.370  23.570   2.817
14235W        W82653  44.307  13.337   4.175
14236W        W82654   3.741   7.348  11.059
14237W        W82655  11.297  31.016   3.842
14238W        W82656   2.771  10.138  12.412
14239W        W82657   8.320  22.685   2.265
14240W        W82658   0.947  34.504   1.350
14241W        W82659  42.822  27.014   4.156
14242W        W82660  15.797   7.337  13.890
14243W        W82661  16.173  23.235   1.413
14244W        W82662  17.793   8.821  12.433
14245W        W82663  11.664   7.871   2.691
14246W        W82664   3.775  16.245  12.470
14247W        W82665  22.024  37.000  10.413
14248W        W82666  44.844  33.914   3.800
14249W        W82667  17.715  27.560   1.867
14250W        W82668   8.305  21.695  10.600
14251W        W82669  29.488  35.421   1.898
14252W        W82670   3.385  31.569  13.390
14253W        W82671  20.723  38.968   1.428
14254W        W82672  41.893  30.000  14.503
14255W        W82673  17.685  29.487   4.240
14256W        W82674  20.766   6.229   3.704
14257W        W82675  33.103  16.313  13.809
14258W        W82676   8.693   3.763   4.307
14259W        W82677  28.031  10.817   1.295
14260W        W82678  29.099  27.492  11.456
14261W        W82679   2.334  41.023  10.583
14262W        W82680  29.636  39.948   3.710
14263W        W82681  20.638  36.989   4.716
14264W        W82682  22.510  25.168  10.486
14265W        W82683   2.818  32.899   1.244
14266W        W82684  25.084  30.919  12.558
14267W        W82685  41.434   1.439  11.017
14268W        W82686  12.175  10.353   4.797
14269W        W82687  36.904  22.621  12.547
14270W        W82688  37.075   2.913  14.372
14271W        W82689  20.543   1.821  13.540
14272W        W82690   4.307   0.308   4.258
14273W        W82691  28.037  42.972  10.614
14274W        W82692  15.086   1.923  13.048
14275W        W82693  44.846  12.687  14.353
14276W        W82694  21.551   7.289   0.751
14277W        W82695   6.689  12.275  11.374
14278W        W82696   4.899   3.226  13.913
14279W        W82697  36.098  27.025  14.411
14280W        W82698  32.940  39.036  12.067
14281W        W82699  44.498   0.414   9.977
14282W        W82700  35.922  41.343  13.909
14283W        W82701  43.773   2.951   2.672
14284W        W82702  13.630  10.267   0.256
14285W        W82703   4.318  38.567  11.527
14286W        W82704   6.850  23.009   1.881
14287W        W82705  33.393  15.123   2.747
14288W        W82706  20.125  30.032  12.548
14289W        W82707  15.141  37.998   0.874
14290W        W82708   7.869  40.837   3.764
14291W        W82709  33.453  27.060  12.520
14292W        W82710   1.385   2.231   1.392
14293W        W82711  37.008  18.237   1.818
14294W        W82712  40.378  43.348  12.415
14295W        W82713   1.836  30.114  14.307
14296W        W82714  14.138  32.567   0.788
14297W        W82715   6.713  34.935   1.417
14298W        W82716  21.234  29.008   0.431
14299W        W82717  37.900   7.305  10.027
14300W        W82718   7.180   8.278  13.906
14301W        W82719  38.919  29.174   1.428
14302W        W82720  19.170  27.605   3.376
14303W        W82721   8.224  35.086  11.392
14304W        W82722  26.659  37.979  13.950
14305W        W82723  27.043  27.989  10.500
14306W        W82724   7.900  44.294   4.229
14307W        W82725  18.201  40.882  12.859
14308W        W82726  37.922   8.815  11.401
14309W        W82727  21.202   8.395   0.923
14310W        W82728  38.347  40.545  11.100
14311W        W82729  22.742  29.919  12.831
14312W        W82730  34.926   4.765  11.421
14313W        W82731   6.353  27.493   1.306
14314W        W82732  44.756  15.207   2.808
14315W        W82733  23.701  31.045  13.350
14316W        W82734  13.147  38.018   3.182
14317W        W82735  34.399   8.673  10.888
14318W        W82736   4.804   0.269   1.772
14319W        W82737  30.607  29.438  10.900
14320W        W82738  44.302  25.512   0.245
14321W        W82739   9.699  11.353  12.364
14322W        W82740  38.896  18.594  11.865
14323W        W82741  15.643  21.221  10.430
14324W        W82742  16.231  10.232  14.791
14325W        W82743  35.471  10.356  13.374
14326W        W82744  33.576   5.418  14.805
14327W        W82745   7.768  32.968   4.797
14328W        W82746  11.821  20.732  12.509
14329W        W82747   8.717  36.552   4.599
14330W        W82748   1.281   5.904   2.337
14331W        W82749  28.098   2.283   1.347
14332W        W82750  35.535  35.878  11.588
14333W        W82751  15.805  17.299  13.434
14334W        W82752   5.260  23.141   0.268
14335W        W82753  41.879  13.732   3.386
14336W        W82754   7.844  42.864  14.823
14337W        W82755  33.438   2.942   0.483
14338W        W82756  32.039  10.348  11.405
14339W        W82757   7.910  13.207   4.650
14340W        W82758  33.436   0.743   1.821
14341W        W82759  17.763   6.412   1.802
14342W        W82760  35.431  28.979  12.945
14343W        W82761  16.603  40.457   1.263
14344W        W82762  33.554   8.813  11.482
14345W        W82763   5.249   2.403   2.676
14346W        W82764  16.567  12.657   4.311
14347W        W82765  12.691  40.904   1.395
14348W        W82766   8.257  20.195  14.759
14349W        W82767  19.689  38.524  10.456
14350W        W82768  35.454  35.984  12.350
14351W        W82769  15.616  25.186   5.142
14352W        W82770   8.234  33.960   4.264
14353W        W82771  27.660  37.478   1.873
14354W        W82772  25.975  23.576  12.562
14355W        W82773  11.696  30.062  12.826
14356W        W82774   4.915  36.524   3.662
14357W        W82775   5.284  44.503  14.440
14358W        W82776  31.402  11.701   3.849
14359W        W82777  29.140  19.098   2.231
14360W        W82778  12.168  26.628  14.460
14361W        W82779  28.149  41.827  11.937
14362W        W82780  38.517  16.570  13.992
14363W        W82781   9.264  43.315  14.971
14364W        W82782  13.846  43.945  11.998
14365W        W82783  18.582  38.923   5.271
14366W        W82784  42.398  21.684  10.529
14367W        W82785  31.150  11.353  14.511
14368W        W82786   4.444  27.458  14.954
14369W        W82787  40.315   7.705   4.333
14370W        W82788  28.502  35.442   1.734
14371W        W82789  24.112  23.998   3.164
14372W        W82790   5.816  28.079  11.115
14373W        W82791  42.928  17.289  10.530
14374W        W82792  29.532   3.733  13.414
14375W        W82793  32.464  11.705  12.930
14376W        W82794   6.750  26.073  13.859
14377W        W82795  44.814  42.400  10.472
14378W        W82796  10.346  29.145  11.429
14379W        W82797   4.865  43.902   1.841
14380W        W82798  17.230   6.903  13.986
14381W        W82799  10.637   7.674   4.313
14382W        W82800  22.513  37.480  11.466
14383W        W82801  17.204  11.770  14.894
14384W        W82802  38.431  10.299   3.325
14385W        W82803  17.184  28.580   2.875
14386W        W82804  42.807  26.142  12.966
14387W        W82805  12.658  15.328   3.227
14388W        W82806  11.226  23.038  13.535
14389W        W82807   3.272  18.295   3.356
14390W        W82808  44.369  38.430  11.118
14391W        W82809  34.989  23.537  12.949
14392W        W82810  26.102  11.657  14.378
14393W        W82811  41.363  37.580   1.714
14394W        W82812  17.614  35.877   4.798
14395W        W82813  16.700   0.808   0.326
14396W        W82814  43.785  28.171   1.258
14397W        W82815  38.944  41.010  11.580
14398W        W82816  28.609  37.578   3.774
14399W        W82817  44.938  38.431  11.478
14400W        W82818  41.323  41.294   2.782
14401W        W82819  23.622  29.447  13.510
14402W        W82820   6.712  43.410  11.515
14403W        W82821  38.435   0.478   4.686
14404W        W82822  40.478  40.048   3.840
14405W        W82823  17.709  14.721  10.981
14406W        W82824  31.051  12.252   3.338
14407W        W82825  38.376   3.355  12.931
14408W        W82826  22.049  20.619  14.825
14409W        W82827   5.798  38.466  12.568
14410W        W82828  44.407  41.913  12.903
14411W        W82829  13.822  27.107  13.892
14412W        W82830  12.250  41.981   4.337
14413W        W82831  40.497  41.494  11.397
14414W        W82832  12.320  37.408   0.865
14415W        W82833   5.877  41.502  13.797
14416W        W82834  15.226   8.168  12.950
14417W        W82835  24.973  30.071   2.239
14418W        W82836  37.415  39.359  14.816
14419W        W82837   4.723  34.903  14.985
14420W        W82838  12.140  33.437  11.603
14421W        W82839  42.002  10.269   3.329
14422W        W82840   3.861  37.051  13.818
14423W        W82841  23.570  24.715   4.130
14424W        W82842   4.372  10.263   3.172
14425W        W82843   9.253   3.909  13.040
14426W        W82844  17.220  44.872  11.474
14427W        W82845   2.258  21.513  11.456
14428W        W82846   7.287  39.873  13.348
14429W        W82847  16.209  31.121   0.748
14430W        W82848  35.067  39.853  12.843
14431W        W82849  35.860   1.361  12.055
14432W        W82850   9.245  36.857   3.324
14433W        W82851  12.361   7.693   2.893
14434W        W82852  37.985  16.179  12.504
14435W        W82853   9.172  42.032   0.360
14436W        W82854   8.197  12.728  13.845
14437W        W82855   4.874  31.144  12.067
14438W        W82856  39.547  26.517  13.870
14439W        W82857  23.680  40.017  12.895
14440W        W82858  15.309  30.537   1.926
14441W        W82859  18.762  10.202   3.381
14442W        W82860  29.631  21.154   2.899
14443W        W82861  18.073  19.664   2.901
14444W        W82862   2.469  15.741   4.350
14445W        W82863  33.010  24.629  10.895
14446W        W82864  21.575  23.986   1.273
14447W        W82865  40.415   2.466  12.359
14448W        W82866  37.506  31.640  14.774
14449W        W82867  16.280  25.612   4.633
14450W        W82868   5.195   1.836   0.813
14451W        W82869  31.129  16.596  14.018
14452W        W82870  42.423  10.168   3.342
14453W        W82871  31.995  29.168  14.917
14454W        W82872   4.876  12.266   1.839
14455W        W82873  28.671  27.988  14.293
14456W        W82874  13.242  27.550  11.579
14457W        W82875   8.700  40.435  12.384
14458W        W82876  29.434  42.493  10.936
14459W        W82877  14.300  21.209  14.275
14460W        W82878  44.472  32.976   1.365
14461W        W82879  42.901   1.899   0.892
14462W        W82880  31.460  12.825   3.815
14463W        W82881   1.964  19.652   2.811
14464W        W82882   1.741  14.710   0.796
14465W        W82883  40.388  11.285   4.685
14466W        W82884   1.281  13.158   4.305
14467W        W82885  34.590   3.793  14.011
14468W        W82886  31.909   9.176   5.136
14469W        W82887  24.574  41.298  13.848
14470W        W82888   7.177   1.763   2.197
14471W        W82889  38.352   7.280  10.550
14472W        W82890   6.893   4.762   2.822
14473W        W82891  37.835   6.395  13.443
14474W        W82892   0.976  14.827   4.274
14475W        W82893  10.723  30.114   1.821
14476W        W82894  29.946  29.621   2.825
14477W        W82895   7.306  24.593  14.906
14478W        W82896  13.778  23.682   4.322
14479W        W82897  16.751  41.971   0.760
14480W        W82898  28.182   4.376  12.360
14481W        W82899   2.255   2.463  13.454
14482W        W82900   7.700   8.782   1.767
14483W        W82901  14.163   1.873  10.898
14484W        W82902  28.100   1.326  14.825
14485W        W82903   6.303  26.701  13.950
14486W        W82904  21.103  39.453   3.318
14487W        W82905  37.853  32.944  13.974
14488W        W82906  23.145  33.997   1.773
14489W        W82907  12.644   8.178   2.385
14490W        W82908  27.451  40.863   0.311
14491W        W82909   2.904  27.958  14.390
14492W        W82910  43.340  11.721  14.840
14493W        W82911  22.594  22.233   0.887
14494W        W82912   4.731  36.427  10.441
14495W        W82913  28.099   4.231  14.995
14496W        W82914   9.259  19.045  14.308
14497W        W82915   4.865   9.841  11.990
14498W        W82916  14.114  34.001  13.856
14499W        W82917  24.061   4.329   2.404
14500W        W82918  31.550  32.108   0.380
14501W        W82919  21.608  21.728   2.858
14502W        W82920  20.603  34.872  11.944
14503W        W82921  21.182  25.644  13.950
14504W        W82922  12.302   1.390  11.915
14505W        W82923  37.975  26.511  10.420
14506W        W82924   7.778  38.827  13.010
14507W        W82925  34.978  27.521   0.319
14508W        W82926  44.797  26.472  11.509
14509W        W82927   4.413   7.188   4.743
14510W        W82928  15.296  24.643  11.050
14511W        W82929  27.656  22.528   3.716
14512W        W82930  28.986   2.384   1.739
14513W        W82931  11.195  10.865   4.621
14514W        W82932   1.312  34.069   1.246
14515W        W82933  17.659  29.067  13.049
14516W        W82934  37.032   3.310  11.611
14517W        W82935   5.747  28.659  13.881
14518W        W82936  26.029  30.925  12.980
14519W        W82937  42.800  38.894   2.774
14520W        W82938  32.530  29.971  14.926
14521W        W82939   1.240  17.753   4.749
14522W        W82940   7.880  31.434   4.759
14523W        W82941  35.915  40.991   0.256
14524W        W82942  26.472  28.482   0.451
14525W        W82943  42.324  19.181  12.398
14526W        W82944  25.489  25.161   5.106
14527W        W82945  34.548  24.591   1.242
14528W        W82946   6.759  40.513   3.764
14529W        W82947  14.595   9.868  10.529
14530W        W82948   1.414  17.064  10.499
14531W        W82949   9.316  31.588   2.414
14532W        W82950   4.252  37.541   1.283
14533W        W82951  25.168   7.846  13.352
14534W        W82952  20.274  22.680  11.496
14535W        W82953  18.642  42.842  14.515
14536W        W82954  38.538   7.700  12.066
14537W        W82955   5.747   2.837   1.335
14538W        W82956   5.204  10.654   2.766
14539W        W82957  43.880  33.944   3.860
14540W        W82958  19.565   1.826   4.184
14541W        W82959   3.373  33.026  13.452
14542W        W82960  20.259  20.205  10.499
14543W        W82961  31.051  38.074  13.926
14544W        W82962  37.538  35.362  11.474
14545W        W82963  28.472  18.158   2.780
14546W        W82964  10.228  36.533   3.282
14547W        W82965   8.306   6.696   4.726
14548W        W82966  33.430  19.127  14.416
14549W        W82967   8.859  39.528  11.086
14550W        W82968  26.609  14.657  10.997
14551W        W82969  15.742  27.514   4.672
14552W        W82970  36.391  30.576  13.508
14553W        W82971  42.948  11.200  12.042
14554W        W82972  27.590  20.237  11.584
14555W        W82973  42.795  20.124   0.860
14556W        W82974  12.187   8.856   3.667
14557W        W82975  33.500  38.826  11.535
14558W        W82976  43.483  34.962  11.454
14559W        W82977  43.359  22.630   1.332
14560W        W82978  43.482   1.257   3.329
14561W        W82979  37.486  36.379   3.686
14562W        W82980  39.970  17.149  13.380
14563W        W82981  38.076  42.927  14.786
14564W        W82982  40.326   5.240  12.448
14565W        W82983  29.646  43.880   2.861
14566W        W82984  43.321  22.144   4.149
14567W        W82985  39.551  13.656   2.730
14568W        W82986  42.028  43.288  13.350
14569W        W82987  19.050  29.949  13.050
14570W        W82988  20.612  33.506   1.395
14571W        W82989  30.427  38.351  14.493
14572W        W82990  29.174  29.921  11.906
14573W        W82991  29.949   0.977  14.826
14574W        W82992  38.549  43.988  11.046
14575W        W82993  24.059  28.081  13.471
14576W        W82994  24.588  22.611  13.906
14577W        W82995   2.772  13.333  13.363
14578W        W82996  34.945  31.587  11.875
14579W        W82997  28.041  24.140   0.374
14580W        W82998  18.589  22.161   0.345
14581W        W82999  29.573  10.292   5.151
14582W        W83000  41.808   4.352   0.417
14583W        W83001  30.636  20.254  12.954
14584W        W83002   3.768   2.902   2.201
14585W        W83003  31.046   6.703  14.306
14586W        W83004  11.791   4.841  13.510
14587W        W83005  14.158  32.953   4.659
14588W        W83006  41.535  30.092   2.314
14589W        W83007  14.136  27.530  10.492
14590W        W83008   7.248  13.738  14.822
14591W        W83009  24.079  11.220  10.591
14592W        W83010  15.146  22.537  14.324
14593W        W83011   2.873   2.229   2.771
14594W        W83012  16.734  44.932  12.030
14595W        W83013  12.306  19.248  12.411
14596W        W83014   9.283  36.915   2.770
14597W        W83015  28.596  24.671  11.003
14598W        W83016  36.983  21.545   3.305
14599W        W83017  28.536  39.030   2.852
14600W        W83018  26.469  13.126  13.930
14601W        W83019  26.067   4.819  11.070
14602W        W83020  30.441  18.242  11.504
14603W        W83021  36.365  11.823  10.635
14604W        W83022  33.076  37.464   3.227
14605W        W83023  32.008  35.603  11.545
14606W        W83024  23.577  43.297   4.775
14607W        W83025  39.471  42.822  13.320
14608W        W83026  17.219  32.981   3.174
14609W        W83027  26.682   4.715  13.431
14610W        W83028   3.736  41.417   4.727
14611W        W83029  11.713   8.294   4.155
14612W        W83030   1.285   7.405   0.250
14613W        W83031  41.786  44.461   0.924
14614W        W83032  39.936  29.534  14.281
14615W        W83033  27.975  27.631  14.004
14616W        W83034   5.930  10.657   1.239
14617W        W83035  40.454   1.467  14.343
14618W        W83036  17.595   4.310   1.812
14619W        W83037  42.404  25.685  13.451
14620W        W83038   7.693  13.658   3.204
14621W        W83039  28.540   3.899  10.896
14622W        W83040  20.148  21.042   3.345
14623W        W83041  24.169   5.900   2.782
14624W        W83042  42.497  40.359   1.834
14625W        W83043  39.512  15.729  11.918
14626W        W83044   3.804  38.509   3.160
14627W        W83045  33.557   3.346  11.012
14628W        W83046  18.090  39.982  11.057
14629W        W83047  12.791  20.585  10.952
14630W        W83048  34.454  25.155  12.340
14631W        W83049   4.722   8.315  12.429
14632W        W83050  22.110   8.656  12.003
14633W        W83051   5.369  41.459  10.570
14634W        W83052  18.123  21.751  12.829
14635W        W83053  22.068  38.918   4.784
14636W        W83054  38.390  43.494  14.305
14637W        W83055  38.411  40.321   3.630
14638W        W83056  17.268  40.825  13.419
14639W        W83057  35.971  20.031   2.851
14640W        W83058  32.480   9.814   4.204
14641W        W83059  29.554   2.825   3.322
14642W        W83060  10.281  22.532  13.471
14643W        W83061  40.402  31.584  14.431
14644W        W83062  42.476  27.575   1.336
14645W        W83063  43.300  30.970   1.896
14646W        W83064  40.375  43.978  10.563
14647W        W83065   4.844  26.458   1.843
14648W        W83066   8.898  24.014   0.341
14649W        W83067   3.460  22.678   1.354
14650W        W83068   6.381   0.354  11.601
14651W        W83069   6.290  35.880   2.805
14652W        W83070  25.648   8.365  12.867
14653W        W83071  18.566  43.007   5.097
14654W        W83072   7.392  11.268   2.738
14655W        W83073   0.270  18.170  14.770
14656W        W83074  10.832   1.370   4.237
14657W        W83075   0.340  20.200  13.508
14658W        W83076   5.841   2.726   1.820
14659W        W83077  43.765  44.891  11.876
14660W        W83078  42.973  35.060  14.842
14661W        W83079   7.384   5.750   1.924
14662W        W83080   1.777  17.676  13.499
14663W        W83081  44.915  17.135  11.120
14664W        W83082  12.354  21.605   3.664
14665W        W83083  25.665  20.713   0.439
14666W        W83084   5.833  13.176   2.880
14667W        W83085  21.682  43.391   1.423
14668W        W83086   2.927  33.529  11.522
14669W        W83087  14.722  37.865  11.048
14670W        W83088   4.754  15.192  10.023
14671W        W83089  27.099   9.215  13.400
14672W        W83090   9.850   7.704  14.784
14673W        W83091   9.745  14.225   0.391
14674W        W83092  15.168   6.791   5.603
14675W        W83093  41.947   8.286  11.107
14676W        W83094  38.477   6.331  12.984
14677W        W83095  16.695  32.000  11.472
14678W        W83096  23.560   0.809   0.851
14679W        W83097   4.895  25.033  12.079
14680W        W83098  23.618   7.206  11.925
14681W        W83099  21.671  44.760   1.246
14682W        W83100   8.169  38.547  11.528
14683W        W83101  23.121  36.365   2.902
14684W        W83102  16.604  31.482   4.838
14685W        W83103  38.987  37.384   4.760
14686W        W83104  13.830  30.064  14.362
14687W        W83105   2.240  14.616  13.432
14688W        W83106   9.390  33.971   0.932
14689W        W83107  17.703  10.268  14.977
14690W        W83108  17.628  11.299  14.900
14691W        W83109  19.191  26.019  13.458
14692W        W83110  39.496  28.504   3.280
14693W        W83111  27.652  39.823   1.926
14694W        W83112  23.988  37.505  13.382
14695W        W83113  38.510  20.236   4.348
14696W        W83114   0.342   5.436   3.205
14697W        W83115  21.747  26.115  14.951
14698W        W83116  20.029  44.265  10.415
14699W        W83117   1.785  33.028  12.899
14700W        W83118   4.384  26.070  11.603
14701W        W83119  36.446  18.134  11.507
14702W        W83120   9.159  29.051  10.937
14703W        W83121  39.350  22.137  12.397
14704W        W83122   2.403  25.151   0.767
14705W        W83123  18.662   0.465   0.878
14706W        W83124  31.981  15.580   0.963
14707W        W83125  36.077   5.760  14.794
14708W        W83126  26.617   9.765   1.286
14709W        W83127  17.088  20.047  10.895
14710W        W83128  29.955  11.367  13.450
14711W        W83129   0.810  16.195   2.199
14712W        W83130  23.055  16.763  13.837
14713W        W83131  33.419  15.621  14.390
14714W        W83132   6.751  25.655   2.215
14715W        W83133  13.200   7.182  13.488
14716W        W83134  42.831   4.746  14.397
14717W        W83135   3.914   9.795   0.793
14718W        W83136  41.812  15.259   3.798
14719W        W83137  22.731  20.201   0.419
14720W        W83138  22.220  14.733  10.578
14721W        W83139  28.930  13.663   2.306
14722W        W83140  20.196  20.043   3.172
14723W        W83141  36.978   8.267  11.962
14724W        W83142  43.971  28.582  14.388
14725W        W83143   1.831  32.622  13.839
14726W        W83144  17.661  18.182  13.832
14727W        W83145  26.064  21.023   1.232
14728W        W83146  18.618  20.740   4.621
14729W        W83147  16.239   7.722   3.183
14730W        W83148   2.941  25.531  12.388
14731W        W83149  23.190  43.481   1.767
14732W        W83150   6.321  26.580  14.774
14733W        W83151  19.688  29.031  10.510
14734W        W83152  37.912  40.009   0.806
14735W        W83153  11.856  26.066   2.702
14736W        W83154  33.098  37.344   1.442
14737W        W83155   1.780  20.750  14.422
14738W        W83156  15.627  41.863   0.896
14739W        W83157  29.011  12.253   1.398
14740W        W83158  32.138  30.915   0.274
14741W        W83159  16.155  23.085   4.703
14742W        W83160   8.207   7.821  14.765
14743W        W83161  42.822  38.963  10.895
14744W        W83162   8.883  10.341   2.837
14745W        W83163  11.727   2.379   0.859
14746W        W83164  21.682  12.809   0.285
14747W        W83165  11.279  12.835   1.287
14748W        W83166  31.999  10.214   2.343
14749W        W83167  26.118  29.089   3.154
14750W        W83168  28.663  17.644   0.455
14751W        W83169  20.645   3.452  14.405
14752W        W83170  38.877  21.726   3.274
14753W        W83171  37.444   5.429   3.773
14754W        W83172  17.183  39.944   2.390
14755W        W83173  10.842  41.424  13.964
14756W        W83174  19.560  25.577   0.786
14757W        W83175  32.968  28.071   2.357
14758W        W83176  20.041  15.324  10.591
14759W        W83177  11.223  37.896  12.550
14760W        W83178  20.144  23.713  14.838
14761W        W83179  31.464  43.927  11.128
14762W        W83180   5.716  15.580  14.904
14763W        W83181  18.713   4.250  14.842
14764W        W83182  42.297  42.330   3.208
14765W        W83183   4.746   5.430   3.804
14766W        W83184   2.417  30.965   3.242
14767W        W83185  40.955   4.445   3.284
14768W        W83186  41.968  17.217   2.752
14769W        W83187  31.439  35.441   3.341
14770W        W83188  28.526  19.678   5.269
14771W        W83189  27.453  28.982  13.339
14772W        W83190  43.922  37.018  13.539
14773W        W83191  44.302  42.976   3.710
14774W        W83192  20.758  22.510  10.979
14775W        W83193   2.827  26.140  11.860
14776W        W83194  10.274  30.037  14.881
14777W        W83195  24.217   8.678  10.949
14778W        W83196   4.328  29.592  10.450
14779W        W83197  38.367  16.117  12.456
14780W        W83198   2.415  24.021   0.770
14781W        W83199  29.985  24.493   3.373
14782W        W83200  14.303  17.202  11.028
14783W        W83201   7.257  28.512  10.976
14784W        W83202  43.015   3.919   1.714
14785W        W83203   9.677   3.333   2.271
14786W        W83204  43.340  38.909  11.036
14787W        W83205   0.833  38.897  14.824
14788W        W83206   0.867  28.488  14.464
14789W        W83207  42.907  23.693   3.326
14790W        W83208  40.009  16.627  10.523
14791W        W83209   8.832  42.330  11.998
14792W        W83210  24.530  19.240   2.777
14793W        W83211  19.226  38.015   2.300
14794W        W83212  29.136  35.490  11.992
14795W        W83213  14.118  38.067  12.943
14796W        W83214  39.823  41.383  11.935
14797W        W83215  11.266   8.737   1.226
14798W        W83216  14.677  34.373  13.491
14799W        W83217   2.405  24.540  14.919
14800W        W83218  42.496   6.719   2.729
14801W        W83219  12.667  22.723   3.186
14802W        W83220   7.183   1.811   0.886
14803W        W83221  37.413  38.350   4.131
14804W        W83222  27.576  41.800   1.888
14805W        W83223  31.949  35.513  12.906
14806W        W83224  31.432  27.066   2.374
14807W        W83225  21.142  25.014   0.949
14808W        W83226  12.707  10.801  10.425
14809W        W83227   7.289  28.997   2.780
14810W        W83228   9.869  11.176   4.733
14811W        W83229   2.913  38.399   2.215
14812W        W83230  42.456  11.756  14.304
14813W        W83231  24.011  24.719   1.244
14814W        W83232  12.808  30.064  11.596
14815W        W83233   7.689  34.921   0.475
14816W        W83234  32.131  39.916  14.986
14817W        W83235  38.346  34.420  11.439
14818W        W83236  22.142   1.279   1.706
14819W        W83237  25.963  15.090   0.269
14820W        W83238  34.023  29.155  14.480
14821W        W83239   2.240   4.405   1.265
14822W        W83240  14.723   1.300   3.331
14823W        W83241  44.316  25.016  11.965
14824W        W83242  25.164   4.390   2.795
14825W        W83243   8.845   2.258   1.293
14826W        W83244  33.895  10.665  13.313
14827W        W83245  39.518  10.851   0.943
14828W        W83246  20.035  23.582   3.243
14829W        W83247  19.074  23.599  12.884
14830W        W83248  11.809  16.298  14.958
14831W        W83249  20.548  40.983   0.911
14832W        W83250  42.878  14.679  13.928
14833W        W83251   5.228  19.639   2.202
14834W        W83252   8.889  31.471  14.956
14835W        W83253  14.811  13.803  14.358
14836W        W83254   9.298  44.346  11.005
14837W        W83255  17.109  27.992   1.805
14838W        W83256   9.841  31.631  11.058
14839W        W83257  37.558   4.290   4.345
14840W        W83258  28.112  26.573  10.979
14841W        W83259  16.608  27.692  12.523
14842W        W83260   9.849  44.397  10.517
14843W        W83261  39.025  24.071  10.967
14844W        W83262  24.524  36.067   3.852
14845W        W83263  32.539  37.049  12.946
14846W        W83264  41.003  17.152   2.712
14847W        W83265  38.973   2.398  11.007
14848W        W83266  12.624   8.831  14.414
14849W        W83267  43.317  32.539   3.740
14850W        W83268  29.428  34.953   3.699
14851W        W83269  43.784   2.273   4.806
14852W        W83270  18.572  35.064  11.883
14853W        W83271  30.492  22.195  13.865
14854W        W83272  26.531  34.950   1.822
14855W        W83273  22.093  16.096  13.471
14856W        W83274  28.026   7.415   4.155
14857W        W83275  30.415  23.494   2.334
14858W        W83276  34.503  20.599   1.862
14859W        W83277  43.819  20.273   3.716
14860W        W83278  34.924   9.699  11.517
14861W        W83279  24.568  27.151  12.431
14862W        W83280  31.055   6.233   2.235
14863W        W83281  41.461  38.484   4.748
14864W        W83282  34.495  31.932   3.723
14865W        W83283   3.349  10.284   0.920
14866W        W83284  36.850  14.668   1.872
14867W        W83285  10.171  25.477  12.523
14868W        W83286  39.889  15.732  10.075
14869W        W83287  11.321  38.443   1.441
14870W        W83288   6.787  27.185  13.023
14871W        W83289  27.985  31.446   0.761
14872W        W83290  17.629  13.723   9.673
14873W        W83291   3.810  20.597  12.876
14874W        W83292  36.943  22.578  12.984
14875W        W83293  12.815  20.572  14.367
14876W        W83294   4.337  33.381   1.789
14877W        W83295  29.112  34.058   1.248
14878W        W83296  29.103   5.270  12.436
14879W        W83297  15.149  23.645  13.802
14880W        W83298  27.974  39.349   1.279
14881W        W83299   3.914   5.376  11.866
14882W        W83300  12.730  29.947   4.798
14883W        W83301  13.769  30.008  13.835
14884W        W83302   0.299  32.920  12.851
14885W        W83303   9.155  31.122   2.247
14886W        W83304  44.405  31.088   4.710
14887W        W83305  28.086  42.482  13.029
14888W        W83306  14.142  41.021  14.479
14889W        W83307  22.114   5.893  11.986
14890W        W83308  18.551  23.505   2.364
14891W        W83309  14.623   7.776  10.471
14892W        W83310   4.251  44.851   2.823
14893W        W83311  29.048  32.971  12.854
14894W        W83312  40.313  35.392   2.359
14895W        W83313  18.184  14.131  13.898
14896W        W83314  38.035  38.905  14.380
14897W        W83315  15.711   3.355  13.806
14898W        W83316  14.153  14.332   4.670
14899W        W83317   9.330   2.927   4.155
14900W        W83318  28.950  41.932  14.393
14901W        W83319   9.734   2.738   4.667
14902W        W83320  14.281  38.826   4.133
14903W        W83321   9.326   9.808   0.944
14904W        W83322  33.384   8.356   0.428
14905W        W83323  34.981  13.197   3.156
14906W        W83324   6.390  18.648   0.933
14907W        W83325  10.243  21.721  12.481
14908W        W83326  44.492   5.693  10.947
14909W        W83327   7.894  12.845  11.031
14910W        W83328  40.372  35.971   4.818
14911W        W83329  21.071  41.472   3.723
14912W        W83330  18.729  30.456  11.487
14913W        W83331  24.488  42.777   2.845
14914W        W83332   6.775  16.088   3.708
14915W        W83333  17.577  41.831   0.790
14916W        W83334  44.002  36.098  13.411
14917W        W83335  40.373  22.019   2.703
14918W        W83336  15.251  42.425   3.697
14919W        W83337  23.670  24.559  12.459
14920W        W83338  36.420   1.920   0.792
14921W        W83339  38.413  37.968   4.141
14922W        W83340  15.187  31.954  14.016
14923W        W83341  40.003  37.377  12.869
14924W        W83342   9.701  42.796   4.298
14925W        W83343  43.878   6.732   1.857
14926W        W83344  22.651  14.798   4.673
14927W        W83345  22.052  32.417  13.395
14928W        W83346  28.975  35.861  14.298
14929W        W83347  21.695  39.377  11.003
14930W        W83348  26.962  35.405   0.292
14931W        W83349  40.987  37.454   4.131
14932W        W83350  13.190  10.330  10.953
14933W        W83351  43.494  27.459  11.076
14934W        W83352  41.425  17.784   1.731
14935W        W83353  38.510  29.492   4.812
14936W        W83354   2.928  20.679  12.873
14937W        W83355  37.499  32.901  12.443
14938W        W83356  14.784  44.930   3.743
14939W        W83357  25.672  15.291  10.981
14940W        W83358  38.461   2.806   0.301
14941W        W83359   3.303   2.233   1.836
14942W        W83360  41.977  37.915   2.189
14943W        W83361  24.690  33.621  14.826
14944W        W83362  28.656   2.397  10.422
14945W        W83363  41.033  10.738  10.443
14946W        W83364  28.003  26.206   4.832
14947W        W83365  24.160  14.128   5.263
14948W        W83366  23.124   4.353  12.576
14949W        W83367   9.242  28.076   4.176
14950W        W83368  26.967   9.778  11.897
14951W        W83369  21.600  40.449   4.255
14952W        W83370  39.933   3.434  12.986
14953W        W83371  32.626  21.580   4.792
14954W        W83372  22.530  21.716   1.316
14955W        W83373   3.736  20.602   2.781
14956W        W83374  33.408  16.247   3.270
14957W        W83375  39.964  18.288   1.359
14958W        W83376  41.895  14.727  14.902
14959W        W83377  35.495  22.245   3.300
14960W        W83378  39.912   1.238   2.380
14961W        W83379   4.427   4.291  14.986
14962W        W83380   9.310  42.509  14.830
14963W        W83381  33.000   8.803  12.909
14964W        W83382  33.937   3.943  14.765
14965W        W83383  37.034   8.330   2.237
14966W        W83384   0.886  40.376  12.404
14967W        W83385  24.190  14.217  10.900
14968W        W83386  43.375  22.590   1.800
14969W        W83387   2.384  35.043  13.020
14970W        W83388  35.075  38.030   1.331
14971W        W83389  37.431  31.479   2.302
14972W        W83390   5.789   7.401   3.822
14973W        W83391  13.299  12.830  10.097
14974W        W83392   4.711  40.416   0.815
14975W        W83393  37.486   4.844  11.900
14976W        W83394  33.966  10.670  12.461
14977W        W83395  38.866   3.768  11.073
14978W        W83396   5.343   2.750   4.157
14979W        W83397  22.231  28.499  11.377
14980W        W83398   2.444  27.982  14.457
14981W        W83399  18.295  15.748  13.329
14982W        W83400  22.066  39.936  11.008
14983W        W83401  32.598  23.586  12.928
14984W        W83402  19.689  34.434  11.938
14985W        W83403  28.171  27.195  11.874
14986W        W83404  34.097  32.446   1.899
14987W        W83405   2.865  12.784   1.277
14988W        W83406  13.151  34.912  14.910
14989W        W83407  30.128  20.724  10.412
14990W        W83408  15.750  18.184   4.816
14991W        W83409  21.242   2.771   3.366
14992W        W83410  44.386   1.875   3.380
14993W        W83411  22.103   7.338  12.980
14994W        W83412  42.905   5.820  14.032
14995W        W83413  18.570  26.977  13.398
14996W        W83414   8.887  27.641   0.859
14997W        W83415  15.579  27.689  14.346
14998W        W83416  25.102  41.325   1.413
14999W        W83417  12.301  44.828   0.889
15000W        W83418  21.643  17.704  12.435
15001W        W83419  26.528  18.707  14.857
15002W        W83420  40.798  12.708   0.955
15003W        W83421  24.147  13.128   1.387
15004W        W83422  11.168   9.383   0.944
15005W        W83423   9.728  38.547   4.159
15006W        W83424  27.177  12.340  10.954
15007W        W83425  35.864  38.371  12.393
15008W        W83426  18.241  42.511   2.768
15009W        W83427   9.240  19.182  12.459
15010W        W83428  41.378  33.022  13.930
15011W        W83429  44.899  12.623  13.455
15012W        W83430   4.394  10.873  13.313
15013W        W83431  22.603   6.211   1.428
15014W        W83432  18.243   7.214  13.310
15015W        W83433  39.501  32.564   4.731
15016W        W83434  31.408  13.137  12.489
15017W        W83435  22.536  29.109  13.439
15018W        W83436  33.000  23.141   4.819
15019W        W83437   6.206  31.960   0.291
15020W        W83438  42.009  31.496   1.695
15021W        W83439  28.944  35.410   1.913
15022W        W83440  30.421  31.568   1.931
15023W        W83441  31.967  26.578  13.317
15024W        W83442   2.443  30.057   3.677
15025W        W83443  24.072  28.108  11.905
15026W        W83444  13.281  24.603  14.828
15027W        W83445  13.686   4.817   2.339
15028W        W83446  24.154  32.509   3.723
15029W        W83447   3.814  40.541   2.808
15030W        W83448  22.042  19.127   3.708
15031W        W83449  33.499  40.895  13.458
15032W        W83450   7.417  23.239   1.449
15033W        W83451   8.354  21.533  13.459
15034W        W83452  21.192  41.924  13.794
15035W        W83453  34.427  15.706   3.359
15036W        W83454   9.825  40.545   0.463
15037W        W83455  18.584  10.661   2.280
15038W        W83456  22.144  11.199   0.800
15039W        W83457   5.347  30.156  12.563
15040W        W83458  17.586  15.648  12.389
15041W        W83459   5.722   9.340   1.274
15042W        W83460  31.599  14.249   1.218
15043W        W83461  19.178  33.066  12.932
15044W        W83462   2.888  28.593  12.916
15045W        W83463  25.691   5.388  10.553
15046W        W83464  40.408  39.826   4.776
15047W        W83465  41.002  36.952   2.833
15048W        W83466   3.307  36.880  11.385
15049W        W83467  25.541  41.988  10.496
15050W        W83468  11.778   0.872   3.697
15051W        W83469  33.541  44.008   3.232
15052W        W83470   6.770  41.948  14.438
15053W        W83471  20.631  33.029   2.865
15054W        W83472  12.830  27.667   1.813
15055W        W83473  42.969  21.641  12.909
15056W        W83474  17.268  23.145   1.846
15057W        W83475  17.660  17.653   4.136
15058W        W83476  35.483   3.436   1.451
15059W        W83477   8.758  19.539   2.820
15060W        W83478   4.420  16.148   0.796
15061W        W83479   1.283   9.782  12.086
15062W        W83480   7.255  32.589   3.871
15063W        W83481   3.740  23.991  14.492
15064W        W83482  44.275  16.737   4.333
15065W        W83483  36.361  40.952  11.950
15066W        W83484  30.924  29.452  12.465
15067W        W83485  38.329   8.829   4.732
15068W        W83486  27.598   5.780  12.437
15069W        W83487  44.840  24.626  11.434
15070W        W83488  37.012   3.854  12.408
15071W        W83489  19.655  14.148   4.136
15072W        W83490  23.063  25.500  13.062
15073W        W83491   2.785  38.500  13.925
15074W        W83492  26.530  17.119   3.383
15075W        W83493  14.818  22.580  14.802
15076W        W83494   3.921  40.909   2.311
15077W        W83495  44.342  40.906   1.264
15078W        W83496  44.003  20.036  12.853
15079W        W83497  25.594  19.648   2.314
15080W        W83498   5.723  40.322  14.843
15081W        W83499  39.367  14.769   4.209
15082W        W83500  42.451   9.282   2.258
15083W        W83501   1.436  29.976  13.951
15084W        W83502  36.486  10.745  11.015
15085W        W83503  24.053   8.288   3.341
15086W        W83504   1.445   6.788   4.647
15087W        W83505  31.578   9.284   4.785
15088W        W83506  26.643  24.623  12.561
15089W        W83507   9.231  23.535  14.776
15090W        W83508  42.878   6.787  14.855
15091W        W83509  33.924  29.127  12.884
15092W        W83510  10.376  30.067   4.266
15093W        W83511  32.138  12.627   4.347
15094W        W83512  23.060  29.499   0.731
15095W        W83513  21.664   0.883  13.956
15096W        W83514  26.123   3.374  10.540
15097W        W83515  27.126  28.610   0.305
15098W        W83516  35.431  36.933   0.851
15099W        W83517   7.837  11.755   4.639
15100W        W83518  29.455   8.212   1.901
15101W        W83519   1.471  28.659  12.568
15102W        W83520  27.110   5.816  11.437
15103W        W83521  25.035  26.994  12.390
15104W        W83522  17.190  34.553  11.602
15105W        W83523   8.284  22.737  11.899
15106W        W83524  40.923  38.832   3.803
15107W        W83525  13.731  28.556  14.336
15108W        W83526  39.438  35.588   0.436
15109W        W83527  16.131   6.799  11.994
15110W        W83528  20.213   1.466   0.911
15111W        W83529  21.154  28.457   4.136
15112W        W83530  12.232  12.769   0.411
15113W        W83531  27.555  44.387   0.940
15114W        W83532   5.847  19.658   3.205
15115W        W83533  37.488  13.774  13.341
15116W        W83534  40.965  25.503   1.720
15117W        W83535   8.305  27.518   2.385
15118W        W83536   9.650  33.038  10.560
15119W        W83537  21.242  33.487  13.481
15120W        W83538  32.448  28.169   3.384
15121W        W83539  36.979  31.442   0.730
15122W        W83540  12.652   7.335  11.896
15123W        W83541   3.713  42.967   9.943
15124W        W83542  15.685  25.602   4.804
15125W        W83543  33.941  42.482  12.573
15126W        W83544  25.588  30.994   3.641
15127W        W83545   1.460   8.370   0.417
15128W        W83546  39.939  37.844  12.993
15129W        W83547  39.809  42.854   2.247
15130W        W83548  21.216   2.314  13.952
15131W        W83549  12.661  10.199   1.887
15132W        W83550   5.729  14.639  14.014
15133W        W83551  25.638  10.792  12.411
15134W        W83552  42.424  22.053  13.473
15135W        W83553  18.064  22.527   2.300
15136W        W83554  31.029  16.682   2.311
15137W        W83555  26.049  34.554  11.401
15138W        W83556   0.913  20.064  14.328
15139W        W83557  20.546  11.857  12.439
15140W        W83558  12.715   3.397  12.074
15141W        W83559   1.400  20.239   1.926
15142W        W83560  33.458  27.124   3.297
15143W        W83561  27.184  32.924   1.889
15144W        W83562   3.300  35.403  11.431
15145W        W83563  44.824  28.066  14.931
15146W        W83564  29.546  42.303  10.588
15147W        W83565  25.578  28.599  14.032
15148W        W83566  31.023   1.748   2.854
15149W        W83567  33.063  37.083  14.324
15150W        W83568  31.092  36.985   4.697
15151W        W83569  27.656  25.468  11.550
15152W        W83570   3.838   4.207   2.348
15153W        W83571  38.848  21.260   3.259
15154W        W83572  29.587  18.722   2.897
15155W        W83573  31.068  13.299   2.333
15156W        W83574  12.695   9.355  12.896
15157W        W83575  34.010  40.904   0.483
15158W        W83576   6.883  44.840  13.357
15159W        W83577  32.121  26.468   1.440
15160W        W83578  10.683  10.151  13.516
15161W        W83579  32.458  23.731  11.045
15162W        W83580  37.546  23.153  13.015
15163W        W83581  16.087  40.426  13.405
15164W        W83582  27.644  40.960   4.287
15165W        W83583  16.107   0.439   0.760
15166W        W83584  18.663  41.829  10.550
15167W        W83585  35.032  33.105  14.920
15168W        W83586  34.408  30.052   2.197
15169W        W83587  17.672   4.837   4.320
15170W        W83588  31.064  31.608   3.387
15171W        W83589  35.032  20.621  12.912
15172W        W83590  32.625  14.327   4.169
15173W        W83591  25.690  21.515  10.963
15174W        W83592  41.324  37.945  12.955
15175W        W83593  18.720  35.059   2.841
15176W        W83594  23.686  18.711   2.350
15177W        W83595  23.185  35.529  12.439
15178W        W83596   8.367  30.537   3.308
15179W        W83597   1.293  29.049  10.536
15180W        W83598  24.685  27.497   4.633
15181W        W83599  19.209  38.408  13.010
15182W        W83600  23.101   4.297   0.859
15183W        W83601   3.953   4.890  10.073
15184W        W83602  28.047  29.923  12.890
15185W        W83603  29.930   0.488   1.307
15186W        W83604  28.522  32.143  12.413
15187W        W83605  29.150   4.233   1.734
15188W        W83606  30.091  28.557   0.420
15189W        W83607  16.107  36.576  14.923
15190W        W83608  35.037  25.217  11.905
15191W        W83609   0.494  14.787  11.044
15192W        W83610  34.953   3.317  13.880
15193W        W83611  33.491  39.421   3.781
15194W        W83612  15.797  44.397   4.159
15195W        W83613  10.251  27.609   1.803
15196W        W83614   1.817  31.440   3.781
15197W        W83615  28.677   6.813   5.202
15198W        W83616  15.212  21.640  11.042
15199W        W83617  24.137   9.374   0.483
15200W        W83618  27.639  21.129   3.795
15201W        W83619  37.893  27.117   1.353
15202W        W83620  17.800   7.829   0.384
15203W        W83621  13.623  34.081  14.801
15204W        W83622  18.552   5.706  14.856
15205W        W83623  10.349  36.415  12.876
15206W        W83624  34.120  44.278   0.332
15207W        W83625  29.110  34.500  12.434
15208W        W83626  12.295   9.177   2.216
15209W        W83627  21.182   4.736   5.094
15210W        W83628  22.679   7.724   4.668
15211W        W83629  38.386   3.864  13.419
15212W        W83630  16.137   2.908  11.103
15213W        W83631  33.080  30.143  11.400
15214W        W83632  30.472  40.899  12.503
15215W        W83633   9.755  28.106   1.724
15216W        W83634   6.714  20.737   1.383
15217W        W83635  39.334  19.601   0.932
15218W        W83636   8.678  44.329   3.266
15219W        W83637  10.346  12.760   2.283
15220W        W83638  13.714  38.890   3.274
15221W        W83639  42.513  44.500  12.913
15222W        W83640  35.919  27.689  13.526
15223W        W83641  25.507  33.414  12.501
15224W        W83642  23.178  39.877   2.195
15225W        W83643  15.716  37.932  10.942
15226W        W83644  41.410  33.091   3.736
15227W        W83645  37.068  16.572   3.379
15228W        W83646  37.038  33.950  13.472
15229W        W83647  33.939   9.827  10.492
15230W        W83648  13.172  16.248   4.741
15231W        W83649   0.954  20.609  14.888
15232W        W83650  23.208  34.984   0.475
15233W        W83651  11.250  13.209   0.894
15234W        W83652  15.107  33.081   3.672
15235W        W83653   7.706  27.942   0.924
15236W        W83654  22.236  25.092   1.273
15237W        W83655  39.550  31.947  14.784
15238W        W83656  37.879  19.675  10.629
15239W        W83657  28.630  25.705   2.248
15240W        W83658  31.480   5.917  12.935
15241W        W83659  40.346  24.197  11.461
15242W        W83660  21.600  31.062   0.944
15243W        W83661   8.709  14.254   3.226
15244W        W83662   7.740  21.718   4.645
15245W        W83663  34.472  36.916  13.901
15246W        W83664  33.388  41.460  14.458
15247W        W83665   8.372  35.932  14.905
15248W        W83666  14.672  15.671   1.402
15249W        W83667  25.632  44.409   3.354
15250W        W83668  16.620  20.562  11.909
15251W        W83669   3.738   3.891   1.449
15252W        W83670  15.640  39.555   4.714
15253W        W83671  36.476  20.129  11.888
15254W        W83672  18.143  11.261   4.756
15255W        W83673  34.919  25.640  13.983
15256W        W83674  11.239  37.881  14.344
15257W        W83675  13.628  21.672   4.730
15258W        W83676  32.978  24.650   2.279
15259W        W83677  37.527  13.604   4.831
15260W        W83678   2.270  30.026  12.425
15261W        W83679  34.537  29.103   3.256
15262W        W83680  15.187  24.549  14.901
15263W        W83681  35.962  20.745   4.827
15264W        W83682  21.123   0.479   3.167
15265W        W83683  39.559  30.131   2.739
15266W        W83684  23.067   5.785   4.237
15267W        W83685  24.143  40.041   5.101
15268W        W83686  23.054  44.859   3.674
15269W        W83687  15.815  35.069   0.417
15270W        W83688  24.663   7.675   4.670
15271W        W83689  17.717  34.904   2.730
15272W        W83690  29.669  18.595   4.811
15273W        W83691  17.147  16.154  11.939
15274W        W83692   7.254   1.442  13.456
15275W        W83693  21.223   0.339   2.324
15276W        W83694  42.317  22.640   0.792
15277W        W83695  22.071  16.797   1.700
15278W        W83696  17.576  21.227  13.792
15279W        W83697  33.990  14.155   3.799
15280W        W83698  14.615  26.170  14.847
15281W        W83699  25.184  41.354  11.939
15282W        W83700  13.683   9.669   1.923
15283W        W83701  29.529  18.694   3.701
15284W        W83702  36.023  29.455  12.362
15285W        W83703   7.220  10.373   2.670
15286W        W83704  24.544  40.466   3.806
15287W        W83705   6.352   8.704  13.326
15288W        W83706   7.684  10.818   1.867
15289W        W83707   3.858   8.287   2.286
15290W        W83708  43.994  23.639   0.407
15291W        W83709  33.604   5.774   0.884
15292W        W83710   0.847  10.219  12.444
15293W        W83711  16.611  10.273  11.090
15294W        W83712  42.776   1.388   1.800
15295W        W83713  20.107   1.338   0.401
15296W        W83714  38.981  32.015  14.863
15297W        W83715   7.686  29.119   0.428
15298W        W83716  29.097  33.915  10.580
15299W        W83717  10.251  34.418   1.254
15300W        W83718  19.229  20.597   4.129
15301W        W83719  16.314   9.692   2.358
15302W        W83720  24.090  42.394  11.085
15303W        W83721  42.890   6.366  12.560
15304W        W83722  30.942  44.809  10.916
15305W        W83723  29.975  41.364  11.959
15306W        W83724  13.285  30.472  14.982
15307W        W83725  42.362  42.287   2.203
15308W        W83726   0.338  42.933   0.857
15309W        W83727  38.072  28.942  14.023
15310W        W83728  10.232   4.920  12.432
15311W        W83729  14.715  39.864  10.461
15312W        W83730  31.624  44.341  10.138
15313W        W83731  36.928   9.871   4.190
15314W        W83732  28.616   2.884   4.625
15315W        W83733  25.539  29.929   1.227
15316W        W83734  10.644  39.054  11.571
15317W        W83735  24.548  26.618   3.237
15318W        W83736  30.462   1.872  13.400
15319W        W83737  24.502  43.772   0.863
15320W        W83738  11.809  25.479  11.926
15321W        W83739   8.367  30.955   1.835
15322W        W83740  39.935  43.905   4.246
15323W        W83741  41.958  16.139   1.409
15324W        W83742   0.301   9.313  12.854
15325W        W83743  27.592  25.654   3.251
15326W        W83744  30.462   8.783   1.809
15327W        W83745  26.096  13.643   1.808
15328W        W83746  36.562  19.756   9.989
15329W        W83747  32.438  18.545   1.374
15330W        W83748  39.395  28.066   1.301
15331W        W83749  44.970  25.117  11.610
15332W        W83750   8.319  12.806  12.434
15333W        W83751  33.909   3.792   0.791
15334W        W83752  40.959  12.620  13.426
15335W        W83753  17.783  32.999  13.418
15336W        W83754  25.665  22.643  13.916
15337W        W83755  16.274   6.306   4.143
15338W        W83756  32.039   3.933   2.775
15339W        W83757   9.696   8.309  12.020
15340W        W83758  24.004   9.361  14.283
15341W        W83759   4.409  38.495  14.349
15342W        W83760  38.900   2.916   3.739
15343W        W83761  19.248  12.229  12.828
15344W        W83762   1.422  36.397   3.281
15345W        W83763  39.347  38.528  14.281
15346W        W83764  16.688  10.665   1.257
15347W        W83765  16.160  37.487  12.895
15348W        W83766  16.221  25.615   2.668
15349W        W83767  29.096   2.383  12.561
15350W        W83768   2.740  12.152   3.230
15351W        W83769  18.218  31.635  14.982
15352W        W83770  35.076  35.500  11.603
15353W        W83771  23.176  22.684   2.873
15354W        W83772  14.181  14.744  10.513
15355W        W83773  30.929  13.711  11.476
15356W        W83774  34.461  37.510  10.582
15357W        W83775   5.888  27.450   3.259
15358W        W83776  27.064   7.331   0.245
15359W        W83777  37.038  28.956   0.799
15360W        W83778   2.405   4.929   2.345
15361W        W83779  13.773  29.046  11.982
15362W        W83780  18.661   8.192   3.688
15363W        W83781  43.906  37.875   0.346
15364W        W83782  40.904   9.300  14.938
15365W        W83783  24.077  37.436   4.671
15366W        W83784  33.964  20.148  10.456
15367W        W83785  27.480  36.463   4.727
15368W        W83786  37.915  24.578  13.433
15369W        W83787   2.784  30.145  13.413
15370W        W83788  16.145  32.958  14.775
15371W        W83789  39.909   7.315   1.331
15372W        W83790  28.183   6.337   1.229
15373W        W83791   1.794  15.734  12.485
15374W        W83792  25.597  17.701   2.185
15375W        W83793  41.334  43.809  11.486
15376W        W83794  38.502  39.487   0.303
15377W        W83795  22.744   8.305  11.112
15378W        W83796  32.599  19.126   2.367
15379W        W83797  25.486  26.543  13.481
15380W        W83798  20.707   5.275  13.008
15381W        W83799  41.902  44.795  14.020
15382W        W83800   6.210  21.534  11.026
15383W        W83801   5.203   7.802   3.217
15384W        W83802  17.226  22.211   2.725
15385W        W83803  38.501  34.110   3.785
15386W        W83804   2.471   4.797   5.130
15387W        W83805  19.612  23.006   1.329
15388W        W83806  12.712  19.648   4.298
15389W        W83807  44.988  23.046   4.611
15390W        W83808  32.612   1.968   2.408
15391W        W83809   9.344   6.918  12.345
15392W        W83810  41.514   5.804   1.251
15393W        W83811  25.482  20.225   3.256
15394W        W83812   8.312  23.214  13.971
15395W        W83813  31.567  29.918   0.329
15396W        W83814  37.914  40.013  10.645
15397W        W83815  32.582  32.972  14.765
15398W        W83816  42.820  26.088  11.990
15399W        W83817   1.832  38.423   0.793
15400W        W83818   4.406  28.939   4.693
15401W        W83819   1.749   3.374  10.485
15402W        W83820  35.556  33.881   4.820
15403W        W83821   9.655  18.085   1.407
15404W        W83822  37.983  31.524  11.978
15405W        W83823  36.414   0.318   2.748
15406W        W83824  23.543  18.113  14.783
15407W        W83825  38.022   5.382  13.542
15408W        W83826   4.754  24.003   1.721
15409W        W83827  27.109   5.796   4.309
15410W        W83828   9.238  35.037  13.887
15411W        W83829  40.465   5.849  14.946
15412W        W83830  10.338  34.989  12.445
15413W        W83831  36.081   9.202  11.937
15414W        W83832  16.163  20.079   0.847
15415W        W83833  20.644  16.274  13.399
15416W        W83834   6.803   8.708  12.380
15417W        W83835   4.291   9.278  14.855
15418W        W83836  18.617  34.075   2.248
15419W        W83837  35.901  18.588   2.774
15420W        W83838  10.822  25.147   0.878
15421W        W83839   4.218   6.839  13.338
15422W        W83840  36.050   1.392  13.844
15423W        W83841  29.964  22.073  14.777
15424W        W83842  18.632  11.840  14.482
15425W        W83843  26.975   7.280   4.723
15426W        W83844  22.653  34.538  14.298
15427W        W83845  26.502   7.887   4.782
15428W        W83846  42.002   7.668   5.205
15429W        W83847  29.661  31.086  12.406
15430W        W83848  24.631  13.153   0.426
15431W        W83849  37.053  38.492  10.058
15432W        W83850  26.972  15.617  14.007
15433W        W83851   1.440  21.564  14.344
15434W        W83852   4.333  40.025   2.197
15435W        W83853   0.339  29.122  12.958
15436W        W83854   1.919  38.938  14.794
15437W        W83855  36.062  42.991  11.913
15438W        W83856  18.768   8.758   3.752
15439W        W83857  15.123   9.189   0.736
15440W        W83858  12.158  40.433  11.945
15441W        W83859  13.336  33.583   3.815
15442W        W83860   8.665  42.939  11.549
15443W        W83861   6.374  19.274  10.522
15444W        W83862  19.776  37.978   2.342
15445W        W83863  44.299  12.194  14.386
15446W        W83864  10.190  16.777  10.963
15447W        W83865  30.548  18.671  12.412
15448W        W83866  23.611  38.428  10.062
15449W        W83867  17.242  37.399  14.368
15450W        W83868  34.439  20.127   4.133
15451W        W83869   5.887  42.410   3.745
15452W        W83870  31.970  38.438  11.526
15453W        W83871  31.501  10.769  12.085
15454W        W83872  36.416  40.990   0.796
15455W        W83873  21.143   1.398  10.634
15456W        W83874  44.855  35.898   1.897
15457W        W83875  33.975  38.828  14.472
15458W        W83876  16.156  25.643   1.838
15459W        W83877  43.868  29.934   0.761
15460W        W83878   5.852  32.594  10.938
15461W        W83879  43.862  18.197  12.857
15462W        W83880  30.106  25.598   2.226
15463W        W83881  10.175  12.610  14.032
15464W        W83882  21.228  13.657  11.439
15465W        W83883   2.886  36.366  10.590
15466W        W83884   4.795  36.030   4.227
15467W        W83885   3.408  21.516   0.758
15468W        W83886  36.570  30.029  11.602
15469W        W83887  29.965  22.053  10.992
15470W        W83888  26.141  30.995   1.778
15471W        W83889  36.978  20.177   3.222
15472W        W83890  44.346   9.174   4.141
15473W        W83891  44.268  28.454  10.963
15474W        W83892  10.803   8.353   1.699
15475W        W83893  19.708  12.157  10.904
15476W        W83894  12.328   2.299   0.887
15477W        W83895  33.571  16.288  14.844
15478W        W83896  42.890  24.539  12.551
15479W        W83897  26.137  25.537   0.436
15480W        W83898   9.752  11.334   0.403
15481W        W83899  27.459  16.196  12.012
15482W        W83900  36.463   3.770  13.487
15483W        W83901   7.820  35.956  13.881
15484W        W83902   6.425  31.557   1.250
15485W        W83903  31.571  24.158   4.615
15486W        W83904   7.333  38.492  12.010
15487W        W83905  14.328  17.563   1.840
15488W        W83906   3.305   6.764  13.491
15489W        W83907  22.698  24.537  12.393
15490W        W83908  33.442  26.560  12.867
15491W        W83909  19.220  10.372  11.407
15492W        W83910  21.754   7.245  12.008
15493W        W83911  10.320  42.817   1.847
15494W        W83912  22.082  35.443   3.237
15495W        W83913  32.597  16.238  10.917
15496W        W83914  38.466  40.042   1.825
15497W        W83915   5.204  23.205   2.671
15498W        W83916  26.662   2.782  14.451
15499W        W83917  15.103  23.229   4.752
15500W        W83918  39.970  40.537   3.704
15501W        W83919  19.204  19.074  10.975
15502W        W83920  29.949  30.488   3.788
15503W        W83921  29.444  11.788  11.102
15504W        W83922  24.229  21.694   1.715
15505W        W83923  40.031  22.998   3.684
15506W        W83924  32.981  20.124  14.849
15507W        W83925   5.395  30.489   0.409
15508W        W83926  20.204  12.214   4.193
15509W        W83927  41.945  36.936  10.408
15510W        W83928  36.576  25.611  10.437
15511W        W83929  33.573  44.861   0.756
15512W        W83930  23.993  31.569   2.305
15513W        W83931  31.051  10.254   3.381
15514W        W83932  30.648  41.330  13.381
15515W        W83933  20.681   4.227   2.189
15516W        W83934  39.368  20.564  14.355
15517W        W83935   5.360  13.753   1.294
15518W        W83936   4.706  21.048  14.470
15519W        W83937  31.935  24.560   1.792
15520W        W83938  36.402  38.976  13.413
15521W        W83939  32.104  20.218  12.478
15522W        W83940  12.157  29.040  14.387
15523W        W83941  15.631   8.362  11.005
15524W        W83942  35.020   7.803   4.285
15525W        W83943  11.201  41.406  11.438
15526W        W83944  16.282  16.592  10.554
15527W        W83945   7.735  43.931   4.122
15528W        W83946  26.156  19.217   4.641
15529W        W83947  33.130   7.320   2.665
15530W        W83948  12.190  43.780   1.854
15531W        W83949   1.395   4.939  14.834
15532W        W83950   0.400  10.664   2.355
15533W        W83951  38.046  17.155   1.759
15534W        W83952   9.311  17.737   2.252
15535W        W83953  28.166  44.918   1.341
15536W        W83954  26.602   7.725   3.377
15537W        W83955  24.037  44.874  13.839
15538W        W83956  25.183  31.460  11.127
15539W        W83957  30.982  31.614   3.720
15540W        W83958  12.838   0.379   3.646
15541W        W83959  24.691  36.872  14.415
15542W        W83960  21.058  23.193   2.763
15543W        W83961   7.784   6.700  14.882
15544W        W83962  41.465  27.144   5.115
15545W        W83963  25.655  16.786  12.492
15546W        W83964  28.642  32.095   4.686
15547W        W83965  12.778  19.700   3.266
15548W        W83966  30.069  42.882  13.010
15549W        W83967  10.827  28.014   1.327
15550W        W83968  15.615  12.721  14.346
15551W        W83969   6.317  29.952   0.933
15552W        W83970  44.485   6.819   0.763
15553W        W83971  10.311  10.842   3.198
15554W        W83972  28.472  23.127  11.933
15555W        W83973  40.507  44.938   3.255
15556W        W83974  35.039  14.739  11.003
15557W        W83975  29.430  32.395  11.438
15558W        W83976   1.787  11.317   1.857
15559W        W83977  12.358  36.931   4.184
15560W        W83978  15.222   9.770   2.864
15561W        W83979  34.532  22.180   3.192
15562W        W83980  33.093  24.136  13.398
15563W        W83981  32.590  14.696  13.840
15564W        W83982  27.183  43.886  10.560
15565W        W83983  39.994  27.074   4.696
15566W        W83984   5.703   4.945  10.643
15567W        W83985  42.369  21.032  11.013
15568W        W83986  36.923   0.971  13.995
15569W        W83987  24.175  23.590   2.374
15570W        W83988  29.654  15.163  11.967
15571W        W83989   3.446  44.926  11.384
15572W        W83990  13.611  18.250   2.663
15573W        W83991  35.858  44.004   0.750
15574W        W83992  24.993  34.048   2.312
15575W        W83993  26.108  12.121  12.553
15576W        W83994   2.816  39.855  12.377
15577W        W83995  18.227  29.153  11.405
15578W        W83996  29.550   4.857  13.425
15579W        W83997   1.786   0.356   1.253
15580W        W83998  21.132  33.490   3.373
15581W        W83999  26.613  15.134  11.009
15582W        W84000   6.215   8.869  10.082
15583W        W84001   9.157  28.549  12.044
15584W        W84002  37.062   7.691   1.828
15585W        W84003  10.725  16.627  12.046
15586W        W84004  42.832  26.146  11.603
15587W        W84005  13.703  13.211   0.929
15588W        W84006   8.738   4.725   1.930
15589W        W84007  40.895  24.073  12.423
15590W        W84008  16.090  23.993   3.220
15591W        W84009  31.060   0.485  12.399
15592W        W84010   1.736  13.211   4.277
15593W        W84011   2.923  33.572  12.348
15594W        W84012   9.190  33.414   4.344
15595W        W84013  11.349   2.367   3.759
15596W        W84014   3.252  35.360   3.306
15597W        W84015  10.179  23.028  14.495
15598W        W84016  40.357  20.255  13.503
15599W        W84017  18.692  31.423   2.365
15600W        W84018  18.683  21.557   4.119
15601W        W84019  17.586   1.732  13.357
15602W        W84020  20.551  18.179   0.735
15603W        W84021  15.683  37.521   2.342
15604W        W84022  23.190   7.207   3.324
15605W        W84023   2.437  26.108   1.317
15606W        W84024  27.011  16.751  10.407
15607W        W84025  21.182  27.589   2.784
15608W        W84026   6.900  19.189  12.858
15609W        W84027  43.922   1.249   3.851
15610W        W84028  26.612  34.535   0.854
15611W        W84029   1.790  27.093   4.690
15612W        W84030  28.972  23.225   1.805
15613W        W84031  42.977   5.428  14.853
15614W        W84032  23.513  28.125   2.325
15615W        W84033  39.850  12.800  13.844
15616W        W84034  34.483  43.307  13.423
15617W        W84035  26.173  43.300  12.922
15618W        W84036   9.712  31.936  14.419
15619W        W84037  27.618  36.035  11.938
15620W        W84038  14.175   1.466   4.217
15621W        W84039  12.200  23.733   1.883
15622W        W84040  22.510  39.031   1.814
15623W        W84041  16.673  20.251   3.866
15624W        W84042  18.755  12.644  10.405
15625W        W84043  34.429  16.132   2.883
15626W        W84044  31.139  14.211  14.338
15627W        W84045  23.031  39.850  11.901
15628W        W84046  19.258  32.911   0.357
15629W        W84047  29.963   9.363  14.827
15630W        W84048  27.990   0.413   0.940
15631W        W84049  33.579   2.329  10.605
15632W        W84050  23.123   5.248  12.007
15633W        W84051   2.318  13.642  10.989
15634W        W84052  34.584  15.595  11.997
15635W        W84053  30.008  10.364  12.031
15636W        W84054  30.998  18.177   3.698
15637W        W84055  29.455  40.439   2.308
15638W        W84056  34.012  31.576   1.243
15639W        W84057  18.285  42.827  14.972
15640W        W84058  19.241  16.201   1.748
15641W        W84059  17.074  14.600  11.577
15642W        W84060  10.677  37.576   2.865
15643W        W84061  15.799   7.214  11.026
15644W        W84062   0.793  14.214   4.279
15645W        W84063   1.878  22.710  12.978
15646W        W84064  37.911   0.331   2.207
15647W        W84065   6.718  31.976  11.465
15648W        W84066  34.447   7.716   4.655
15649W        W84067  33.428  21.744   2.734
15650W        W84068  29.115  44.426   1.369
15651W        W84069  18.225  39.349   3.705
15652W        W84070  44.769  18.773  12.413
15653W        W84071   6.335  20.071   0.339
15654W        W84072  26.681  10.644   4.189
15655W        W84073   8.853   5.306  15.000
15656W        W84074  43.462  27.031   4.790
15657W        W84075  11.663  34.588   4.676
15658W        W84076  29.430  19.074   3.167
15659W        W84077  23.088  35.061   0.736
15660W        W84078  36.877  17.696  14.478
15661W        W84079  29.633   1.296  11.558
15662W        W84080  10.798  11.739  14.912
15663W        W84081  39.031  28.550   3.740
15664W        W84082  42.825  22.199   1.336
15665W        W84083  37.949   7.783   0.346
15666W        W84084   0.430  39.889  12.073
15667W        W84085  19.736  40.022   2.335
15668W        W84086  23.561  36.518   3.803
15669W        W84087  32.472  17.656   3.315
15670W        W84088  20.131  33.604   0.837
15671W        W84089  32.896  12.120   4.761
15672W        W84090  18.697  36.042   1.847
15673W        W84091   6.887  36.044   3.762
15674W        W84092  26.026  15.658  10.554
15675W        W84093   0.905   3.858  12.875
15676W        W84094  36.592   3.415   5.322
15677W        W84095   2.965  37.462   1.847
15678W        W84096  15.246   5.242   1.358
15679W        W84097  41.955  11.843  12.424
15680W        W84098  16.109  31.012  12.010
15681W        W84099  13.115  19.071  13.062
15682W        W84100   0.759  25.978   1.881
15683W        W84101   4.751  12.828   1.450
15684W        W84102  15.117  34.468  10.441
15685W        W84103   4.744  28.020   1.214
15686W        W84104  32.521  39.542   4.815
15687W        W84105  22.149  26.957  12.867
15688W        W84106   2.272  34.512   2.778
15689W        W84107  19.562  43.411  13.911
15690W        W84108  28.044   3.890  12.953
15691W        W84109   2.426  16.189   4.767
15692W        W84110  35.038   9.245   4.150
15693W        W84111  17.614   9.171   3.690
15694W        W84112  37.886  39.840  13.330
15695W        W84113   5.879  25.130  14.015
15696W        W84114  34.517  12.798  14.815
15697W        W84115  26.012  23.587   1.356
15698W        W84116  27.070  10.261  12.913
15699W        W84117  41.962  44.914  13.533
15700W        W84118  25.119  33.526   9.997
15701W        W84119  41.823  13.734   4.121
15702W        W84120   2.767  42.823  12.440
15703W        W84121  28.973  41.822   4.124
15704W        W84122   0.264  31.513  13.014
15705W        W84123  41.840  10.343  14.347
15706W        W84124  25.489  14.707   2.201
15707W        W84125  11.223   9.846   0.792
15708W        W84126  21.557  42.860  11.886
15709W        W84127  36.504  23.681  12.893
15710W        W84128  20.528  29.563   1.429
15711W        W84129  34.615  24.580   3.353
15712W        W84130  39.485  33.921  13.501
15713W        W84131   7.204  39.525   1.724
15714W        W84132  25.595  41.995   1.378
15715W        W84133  14.202  39.015  12.494
15716W        W84134  23.164  20.622   0.819
15717W        W84135  31.078  35.540   1.720
15718W        W84136  29.967  13.784  13.004
15719W        W84137  19.262  36.930  13.422
15720W        W84138  22.252  14.709  14.458
15721W        W84139  13.204   4.276  12.435
15722W        W84140  33.966  44.402  12.420
15723W        W84141  27.561  42.865  11.129
15724W        W84142   2.411  18.564   4.775
15725W        W84143  29.039  41.966  10.963
15726W        W84144  33.125  30.460   3.726
15727W        W84145  32.495  26.139  10.583
15728W        W84146  28.028   1.402  12.869
15729W        W84147  39.379  41.321   1.224
15730W        W84148  41.438  39.809  10.136
15731W        W84149   2.807   2.720   0.348
15732W        W84150  20.693  20.646  12.401
15733W        W84151  28.630  29.107   0.333
15734W        W84152   0.957   5.370   4.649
15735W        W84153  32.068   6.709   4.634
15736W        W84154  34.863  31.117  12.898
15737W        W84155  14.162  41.875  14.305
15738W        W84156  13.125  23.556   3.748
15739W        W84157  31.986  42.018   2.842
15740W        W84158  28.136  28.495   2.668
15741W        W84159  43.882  43.411   2.230
15742W        W84160  25.159   2.856  10.498
15743W        W84161  23.584  16.569  14.849
15744W        W84162  24.560   3.379  14.509
15745W        W84163   1.835   5.931  13.441
15746W        W84164  11.294   4.248  11.522
15747W        W84165  14.191   1.452   0.843
15748W        W84166  27.464   6.900  14.764
15749W        W84167  28.131  18.580  11.074
15750W        W84168  21.521  15.101  10.455
15751W        W84169   4.884  11.678  11.606
15752W        W84170  19.610  16.215   1.927
15753W        W84171  39.395  10.240  11.862
15754W        W84172  25.009  25.683  13.345
15755W        W84173  38.509  20.565   3.704
15756W        W84174  31.025   4.903  14.794
15757W        W84175  36.459  33.475  11.429
15758W        W84176  24.098  20.141  11.972
15759W        W84177  26.189  34.520   0.254
15760W        W84178  32.462  30.076  11.863
15761W        W84179   6.265  23.501   4.758
15762W        W84180  19.748  35.512   0.345
15763W        W84181  40.866  39.839  10.548
15764W        W84182  27.999  12.628  14.844
15765W        W84183  37.963  40.036  14.497
15766W        W84184  41.509  12.194  12.477
15767W        W84185  12.804  13.822   1.928
15768W        W84186  36.926  29.425   3.210
15769W        W84187   8.293  14.203   2.240
15770W        W84188  36.960  37.961   0.822
15771W        W84189  32.054  44.772   1.891
15772W        W84190  42.356  36.538   3.716
15773W        W84191  21.676  30.043  13.840
15774W        W84192  27.128  36.014   2.381
15775W        W84193  21.047  34.013  13.980
15776W        W84194  41.934  21.756   3.253
15777W        W84195  27.985  11.185  13.016
15778W        W84196  15.736  14.120  14.336
15779W        W84197   2.958   3.753  13.848
15780W        W84198  26.162  20.037  11.561
15781W        W84199  36.561  25.577  12.393
15782W        W84200  16.288  23.119  10.418
15783W        W84201  34.933  13.791   3.797
15784W        W84202  38.407  37.074  12.947
15785W        W84203  40.357   2.343  13.944
15786W        W84204  37.000  40.953  14.421
15787W        W84205  28.093   6.262  14.904
15788W        W84206  21.624  18.630   1.773
15789W        W84207  37.348   5.311   0.443
15790W        W84208  32.601  43.815   3.820
15791W        W84209  19.113  11.154  12.900
15792W        W84210   6.226   5.363   0.949
15793W        W84211   6.390   6.316  14.496
15794W        W84212  10.280  18.548  12.946
15795W        W84213  44.842  23.207   2.829
15796W        W84214  44.909  15.242   1.928
15797W        W84215   0.830  19.536   3.870
15798W        W84216   8.278  23.716  13.521
15799W        W84217  22.032   2.265  10.406
15800W        W84218  40.856  16.259   4.714
15801W        W84219  14.124  33.015   3.241
15802W        W84220  14.216  24.051   1.754
15803W        W84221  39.860  41.510   2.826
15804W        W84222  32.465   8.260  10.554
15805W        W84223  23.197  26.084  12.856
15806W        W84224   6.277   2.253   3.242
15807W        W84225  13.340   7.248   2.892
15808W        W84226  33.580  23.113  10.895
15809W        W84227  22.227  16.148   4.786
15810W        W84228  32.016  30.124  13.876
15811W        W84229  38.536  40.439  12.506
15812W        W84230  19.204  13.833   3.657
15813W        W84231  15.207  12.128   2.189
15814W        W84232  16.177  22.102  10.575
15815W        W84233  25.532   7.338  13.895
15816W        W84234  35.438  14.631   0.358
15817W        W84235  26.613  24.511   4.327
15818W        W84236  26.096  28.111  12.521
15819W        W84237  42.009  20.616  10.492
15820W        W84238  42.469   8.849  13.510
15821W        W84239  27.185  36.070   4.709
15822W        W84240  17.091  13.736  12.431
15823W        W84241   0.264   9.735   2.788
15824W        W84242  43.773  31.021   1.789
15825W        W84243  26.016  28.950   4.198
15826W        W84244   3.840   5.902  13.534
15827W        W84245  32.920  12.650   3.729
15828W        W84246   0.345  11.313   0.346
15829W        W84247  39.050  41.868  11.456
15830W        W84248  31.934  25.993   0.373
15831W        W84249  38.889  11.868  14.305
15832W        W84250  36.436  36.022   0.406
15833W        W84251  27.081   9.254   9.931
15834W        W84252   9.166  33.553  11.469
15835W        W84253  41.365  36.945   4.808
15836W        W84254  15.189  36.361   3.212
15837W        W84255  13.235   2.767  13.413
15838W        W84256  12.765  42.396  12.937
15839W        W84257  31.995  14.595   3.337
15840W        W84258  18.130  43.776   3.656
15841W        W84259  23.226   0.453  11.476
15842W        W84260  13.238  34.986  13.052
15843W        W84261   5.832   1.380   2.879
15844W        W84262  20.033  40.021   2.703
15845W        W84263  15.133  19.280   4.755
15846W        W84264  26.616  40.052  11.964
15847W        W84265  30.561   3.326  12.461
15848W        W84266   9.798   0.953   1.222
15849W        W84267   5.410   6.700  12.546
15850W        W84268  43.382   0.877   2.228
15851W        W84269  26.651  40.532  14.322
15852W        W84270  39.491   1.296  11.548
15853W        W84271   8.382  39.827   0.251
15854W        W84272   8.714  11.198  12.368
15855W        W84273  44.416  43.504   1.435
15856W        W84274  43.893  16.317   2.813
15857W        W84275  23.604  34.868   1.876
15858W        W84276   3.800   0.481  11.488
15859W        W84277  41.803  39.018   3.179
15860W        W84278  32.599  13.179   2.830
15861W        W84279   5.689  33.119   1.408
15862W        W84280  12.639  12.348  11.895
15863W        W84281  20.237  18.745   0.390
15864W        W84282  13.753  38.460  12.379
15865W        W84283  30.653  43.470   0.956
15866W        W84284  22.189  35.603  11.473
15867W        W84285   4.828  33.397  13.497
15868W        W84286  36.367  39.893   4.688
15869W        W84287  24.007  34.445  11.563
15870W        W84288  35.532  31.574  13.923
15871W        W84289  19.734  24.581   1.292
15872W        W84290  20.597  18.150  14.439
15873W        W84291  34.012  26.684   0.378
15874W        W84292  21.590  28.648   3.372
15875W        W84293  18.720  32.988   4.659
15876W        W84294   6.691  37.896   2.198
15877W        W84295  35.368   8.832   1.846
15878W        W84296  35.949   6.292   0.459
15879W        W84297  15.698  30.608   3.363
15880W        W84298  33.981  19.568  11.517
15881W        W84299   8.219  40.050  14.779
15882W        W84300  26.125  22.599   2.244
15883W        W84301  22.103  37.833   5.584
15884W        W84302  23.010  24.056   0.454
15885W        W84303  20.217   4.315  11.115
15886W        W84304  34.443  12.244   0.298
15887W        W84305  11.346  38.407  12.466
15888W        W84306  34.389  23.129   0.387
15889W        W84307   5.928  10.173  10.612
15890W        W84308   3.783  11.784   0.424
15891W        W84309  41.344   8.674   5.260
15892W        W84310  27.690  26.511  13.396
15893W        W84311  13.602  27.184   0.405
15894W        W84312  44.494  17.798  11.592
15895W        W84313   5.782  36.869  11.892
15896W        W84314  44.818  16.812   0.964
15897W        W84315  18.206  18.073  12.861
15898W        W84316  28.930  21.182  11.903
15899W        W84317  35.394  34.536   3.780
15900W        W84318  39.451  16.738  14.841
15901W        W84319  14.790  31.524   0.253
15902W        W84320   3.387  30.605  11.491
15903W        W84321   8.325  33.473   3.630
15904W        W84322  18.051  40.862   2.705
15905W        W84323  10.297  18.732  11.056
15906W        W84324   4.758  42.332   1.927
15907W        W84325  15.808  15.191   0.962
15908W        W84326  23.683  20.606  14.769
15909W        W84327  31.436   3.424   1.321
15910W        W84328  17.063  35.367   3.630
15911W        W84329  31.461  32.955  10.639
15912W        W84330  15.093  25.149   2.730
15913W        W84331  14.748  11.704  11.056
15914W        W84332  26.129  17.709   1.218
15915W        W84333  41.459  33.445   0.455
15916W        W84334  43.841  38.008  14.388
15917W        W84335   5.386   0.354  14.440
15918W        W84336   9.689   8.886   0.404
15919W        W84337   8.329  44.290   2.404
15920W        W84338  40.329  41.334   0.419
15921W        W84339  37.414  22.075  10.466
15922W        W84340  19.709   3.458  12.467
15923W        W84341   2.355  14.223   3.343
15924W        W84342  21.531  32.528  10.489
15925W        W84343  36.937  31.623  12.037
15926W        W84344  32.136  43.788   3.638
15927W        W84345  36.490  12.309  11.566
15928W        W84346  30.602  38.861  12.506
15929W        W84347  32.418  37.461   1.357
15930W        W84348   6.725  39.382  10.488
15931W        W84349  30.652  15.694   2.775
15932W        W84350  39.526  29.543   1.450
15933W        W84351  27.570  25.152  12.876
15934W        W84352  26.985  33.957  13.029
15935W        W84353  11.673   8.833  10.499
15936W        W84354   5.850  29.038   3.665
15937W        W84355  41.503   5.820  11.942
15938W        W84356  37.078  16.227   3.220
15939W        W84357   6.797  33.032   4.261
15940W        W84358  17.127  15.157   3.650
15941W        W84359  27.523  21.734  14.298
15942W        W84360  10.653  40.858  13.966
15943W        W84361  14.773  43.389  11.573
15944W        W84362   9.245  36.528  10.575
15945W        W84363  14.730   2.731  13.394
15946W        W84364  39.455  32.447   0.878
15947W        W84365   3.791  30.588  12.388
15948W        W84366  15.128   7.788   0.297
15949W        W84367  40.392   1.924   4.801
15950W        W84368  44.260   4.283   2.367
15951W        W84369   0.797   6.901   1.826
15952W        W84370  17.152  32.023  11.461
15953W        W84371   0.903  12.612   3.681
15954W        W84372   8.193  44.927   1.725
15955W        W84373  36.958   9.799  11.976
15956W        W84374   1.951  27.140  14.509
15957W        W84375  19.102  18.768   1.863
15958W        W84376  42.421   7.781   1.350
15959W        W84377  44.279  32.426   0.337
15960W        W84378  20.122  24.661  10.611
15961W        W84379  26.982  12.119  13.919
15962W        W84380  38.075   0.975  11.418
15963W        W84381  43.988  15.658   3.281
15964W        W84382   3.856  22.111   4.702
15965W        W84383   3.772  41.361   3.643
15966W        W84384  44.988  20.248  12.412
15967W        W84385  20.594  40.958  11.440
15968W        W84386   3.349  34.369  13.829
15969W        W84387  17.275  43.957  13.018
15970W        W84388  41.364  32.488   3.293
15971W        W84389   9.873  24.555  13.879
15972W        W84390   8.183  20.737  12.905
15973W        W84391  29.961  26.043   2.781
15974W        W84392  22.230  22.125   2.863
15975W        W84393  39.021  15.203  11.514
15976W        W84394  41.300  22.182  11.977
15977W        W84395  28.464  14.715  12.974
15978W        W84396  34.864   9.744  11.908
15979W        W84397  26.638  13.226  13.507
15980W        W84398  16.203  33.487   1.930
15981W        W84399  39.941  28.656   1.423
15982W        W84400  32.522  34.926   2.816
15983W        W84401   0.828   3.397   4.731
15984W        W84402   6.243  25.158  10.131
15985W        W84403   3.834  38.417   2.741
15986W        W84404  33.602  38.044   3.827
15987W        W84405  43.440  19.222  13.845
15988W        W84406  41.874  41.794  11.528
15989W        W84407  18.267  17.662  12.404
15990W        W84408  16.096  20.234   3.182
15991W        W84409  42.369  36.055  11.483
15992W        W84410  44.360   7.697   2.243
15993W        W84411  17.797  15.199  12.386
15994W        W84412   5.377  38.535  11.105
15995W        W84413  26.028  20.220   3.236
15996W        W84414  36.587  26.636  13.482
15997W        W84415   1.840   1.469  14.453
15998W        W84416  38.926  39.820   1.334
15999W        W84417  20.656  30.006   3.740
16000W        W84418  22.134   7.332  11.128
16001W        W84419  41.999   9.647  13.341
16002W        W84420  31.463  24.055  10.555
16003W        W84421   5.269  28.649  12.396
16004W        W84422  18.273   2.297   4.296
16005W        W84423  34.899   7.876  14.859
16006W        W84424  20.665  12.272   5.279
16007W        W84425   8.289   1.445  14.892
16008W        W84426  18.586  19.540   0.465
16009W        W84427  32.484  44.304   4.647
16010W        W84428  18.282  20.219   3.729
16011W        W84429  17.118   1.457  10.992
16012W        W84430   4.806  20.694  14.447
16013W        W84431  36.464  22.547  12.028
16014W        W84432  20.138  16.602  12.514
16015W        W84433  43.994  40.362   1.222
16016W        W84434  28.973   8.266  14.437
16017W        W84435  36.970  28.663   2.777
16018W        W84436  25.092  14.137  11.440
16019W        W84437  21.733  44.942   0.845
16020W        W84438  29.427  18.633  10.508
16021W        W84439  44.891   3.750  12.997
16022W        W84440   6.373  43.001  12.394
16023W        W84441  21.079  27.155  11.398
16024W        W84442  27.458  23.103   1.371
16025W        W84443  19.748  22.621  12.492
16026W        W84444  23.158  35.091  11.901
16027W        W84445  30.624  22.163  10.408
16028W        W84446   2.287   0.766  12.893
16029W        W84447  23.559  36.890  13.538
16030W        W84448  11.299  40.545   4.712
16031W        W84449  16.789  34.991  13.475
16032W        W84450  12.709  31.407   0.768
16033W        W84451  12.797  29.009   0.819
16034W        W84452  14.154  26.649  13.351
16035W        W84453  19.197  14.127  12.510
16036W        W84454   9.186  13.281   2.671
16037W        W84455  27.110   8.734   2.815
16038W        W84456  16.724  33.901  14.478
16039W        W84457  12.723  29.582   2.375
16040W        W84458  14.215   6.725   3.157
16041W        W84459   0.821  35.374  14.385
16042W        W84460  41.443  41.515   0.962
16043W        W84461  12.156   6.317  10.445
16044W        W84462   2.434   5.298  11.531
16045W        W84463   3.909   6.410  14.942
16046W        W84464   9.664  24.709  12.986
16047W        W84465  25.553  31.992   0.918
16048W        W84466  38.932  33.083   0.361
16049W        W84467  22.518  36.888   4.336
16050W        W84468  19.088  39.484  14.320
16051W        W84469  16.618   2.417   4.786
16052W        W84470  43.003  27.091   1.344
16053W        W84471  11.790  42.842   0.379
16054W        W84472   2.808  24.193   4.695
16055W        W84473  33.605  17.078  12.867
16056W        W84474  11.291  11.133  11.538
16057W        W84475  11.782   0.389   2.729
16058W        W84476  44.932   5.364   0.403
16059W        W84477  26.533  43.932  12.502
16060W        W84478   3.226   6.313  11.063
16061W        W84479  25.689  39.355  14.920
16062W        W84480   6.902  43.889   4.666
16063W        W84481   5.431  15.805  14.422
16064W        W84482   1.787   2.420   3.181
16065W        W84483  19.753  31.993   4.629
16066W        W84484   6.366  21.565  14.814
16067W        W84485   6.334   6.361  14.932
16068W        W84486  21.554   5.284  14.432
16069W        W84487  44.335  41.440  14.922
16070W        W84488   7.404  26.679   4.347
16071W        W84489   7.836  16.122  13.849
16072W        W84490  30.979  35.535   3.195
16073W        W84491   6.777  26.091  11.470
16074W        W84492  38.431  16.603  14.973
16075W        W84493  29.043  14.661   4.739
16076W        W84494  31.072  38.879  14.406
16077W        W84495  35.400  21.090   0.784
16078W        W84496   7.678  20.032  14.855
16079W        W84497   3.224  27.657  12.912
16080W        W84498  41.448  39.019  12.038
16081W        W84499  20.670   2.382  14.011
16082W        W84500  16.746  15.810   1.791
16083W        W84501  39.364  17.704  11.435
16084W        W84502  10.286   1.449   1.935
16085W        W84503   8.744  30.462   3.652
16086W        W84504  20.642   5.841  10.954
16087W        W84505   5.250   5.400   2.298
16088W        W84506  25.141  18.261  10.476
16089W        W84507   1.483  30.563  13.956
16090W        W84508  16.625  30.485   4.805
16091W        W84509  33.533  37.993   0.965
16092W        W84510  37.000  32.099   2.350
16093W        W84511   7.276  19.760  11.519
16094W        W84512  31.510  29.669  14.770
16095W        W84513   3.776  38.000   2.690
16096W        W84514  42.319  35.448  12.862
16097W        W84515  19.592  12.771   1.403
16098W        W84516   7.338  10.865   4.774
16099W        W84517   9.183  28.007  12.909
16100W        W84518  36.568  24.011  14.798
16101W        W84519   9.792  40.941   3.356
16102W        W84520  33.128  34.582  14.828
16103W        W84521  36.419  17.610  11.496
16104W        W84522  10.664  39.412   2.412
16105W        W84523  40.388  12.351   2.696
16106W        W84524   0.777  32.965   0.367
16107W        W84525  16.123  22.654   4.702
16108W        W84526  26.089  38.849  14.326
16109W        W84527  19.603   7.223  14.960
16110W        W84528  21.114  34.373  10.143
16111W        W84529  19.115  41.809   0.326
16112W        W84530  19.152  23.175   1.307
16113W        W84531  27.976   5.864  10.416
16114W        W84532  42.883  37.344  11.070
16115W        W84533   0.357   4.298   0.793
16116W        W84534  16.587  44.813  11.437
16117W        W84535  23.116   5.800   1.804
16118W        W84536   7.213   0.479   0.733
16119W        W84537   0.973  42.900   1.450
16120W        W84538  32.511  22.076  12.570
16121W        W84539   0.798  41.796   0.788
16122W        W84540  21.102  13.723   4.116
16123W        W84541  18.238  20.649   3.736
16124W        W84542  20.583  17.115   2.406
16125W        W84543  16.164  19.536  14.955
16126W        W84544  35.403   3.870   3.253
16127W        W84545  33.479  29.524   2.319
16128W        W84546  37.535  17.103  13.051
16129W        W84547  11.686  28.465   1.858
16130W        W84548   3.277   5.352  12.978
16131W        W84549  41.903   7.311   1.359
16132W        W84550  20.661  28.166   1.844
16133W        W84551  13.327   3.369   1.404
16134W        W84552  20.255  20.029   0.451
16135W        W84553  21.584  44.367   1.713
16136W        W84554  22.232  23.564   3.859
16137W        W84555  19.170  24.034   9.666
16138W        W84556  34.977  21.126   3.234
16139W        W84557  16.619  25.028  14.446
16140W        W84558  20.561  25.054  10.428
16141W        W84559  18.618  25.695   5.573
16142W        W84560  28.994  19.570   3.231
16143W        W84561  32.527  25.549  11.098
16144W        W84562  20.562  18.777  12.923
16145W        W84563   8.309  23.584  13.056
16146W        W84564  24.217   0.829  14.435
16147W        W84565  32.410   4.741   4.693
16148W        W84566  37.006  25.674   0.905
16149W        W84567  11.315  23.710   3.785
16150W        W84568  22.017  24.064  13.794
16151W        W84569   7.400  41.492  13.907
16152W        W84570   3.887   9.330  11.505
16153W        W84571  44.769   4.304  13.395
16154W        W84572  14.708   5.350   2.854
16155W        W84573   1.333  12.762  13.057
16156W        W84574  43.309   4.860   4.652
16157W        W84575   7.404  14.203   2.403
16158W        W84576  37.081  34.531   2.790
16159W        W84577  29.519  27.610  13.882
16160W        W84578  36.497  10.210   3.683
16161W        W84579  15.135   4.205   2.225
16162W        W84580  13.298   3.237  11.513
16163W        W84581  19.249  17.797  13.878
16164W        W84582  43.284  34.974   4.711
16165W        W84583   3.304   9.343   0.388
16166W        W84584  27.043   8.890  10.589
16167W        W84585  16.741  23.571  14.801
16168W        W84586   5.801  14.702   3.352
16169W        W84587  35.071  26.046  13.831
16170W        W84588  29.966  13.779   2.880
16171W        W84589  16.664   7.738  13.928
16172W        W84590  27.978  34.529   4.613
16173W        W84591  28.525  34.582   1.255
16174W        W84592  43.926  22.180   1.715
16175W        W84593  15.820  33.507  12.084
16176W        W84594  32.563  28.621  11.048
16177W        W84595  33.096  31.488   4.248
16178W        W84596   7.384   1.751  12.968
16179W        W84597  11.842  36.383  10.954
16180W        W84598  19.275  18.624  14.504
16181W        W84599  44.328  16.706  10.141
16182W        W84600  31.009   8.695   0.941
16183W        W84601  11.285   6.224  14.335
16184W        W84602  16.724   5.738  12.007
16185W        W84603  31.471  42.810  10.900
16186W        W84604  29.638   7.881   1.884
16187W        W84605   3.357  36.517   3.316
16188W        W84606  12.758  28.030   3.376
16189W        W84607  37.999  13.329  13.038
16190W        W84608   1.244  16.300  12.417
16191W        W84609  22.158  21.089   4.759
16192W        W84610  25.201  40.499   4.749
16193W        W84611  14.712  32.894   4.742
16194W        W84612  29.157  37.961  10.452
16195W        W84613  42.004  40.797  14.798
16196W        W84614  39.848  29.441   4.836
16197W        W84615   3.328  10.661   4.657
16198W        W84616   3.349   8.726   3.843
16199W        W84617  18.187  41.927   4.652
16200W        W84618  43.977  33.417  12.976
16201W        W84619   4.723  18.110   4.742
16202W        W84620  43.490   6.916  14.416
16203W        W84621  22.031  38.055   4.215
16204W        W84622   2.360  34.538   1.719
16205W        W84623  21.592   1.797  10.425
16206W        W84624  18.058   4.818  10.639
16207W        W84625  42.910  10.269  10.496
16208W        W84626  19.762   7.737  14.842
16209W        W84627  44.420  16.309  11.376
16210W        W84628  39.379  13.261  14.861
16211W        W84629  22.032  41.972  13.467
16212W        W84630  41.832  18.133   1.264
16213W        W84631  31.098  10.324   5.140
16214W        W84632  30.070   9.748  13.437
16215W        W84633  31.517  33.381   0.754
16216W        W84634   7.799  11.281  13.356
16217W        W84635  25.087  23.571  12.575
16218W        W84636  28.678  21.206  12.541
16219W        W84637   2.427  28.457  11.066
16220W        W84638   5.229  15.821   2.287
16221W        W84639   5.427  13.163  11.420
16222W        W84640  39.841  16.244  10.928
16223W        W84641  43.843   8.257  13.405
16224W        W84642   5.846  22.558   3.355
16225W        W84643   7.771   4.223   2.244
16226W        W84644  43.777  21.082  10.446
16227W        W84645  29.092   9.213   1.856
16228W        W84646  43.951  40.420   5.212
16229W        W84647  18.640  13.670   1.806
16230W        W84648  22.723  18.720  10.032
16231W        W84649   8.822  13.123   2.865
16232W        W84650  38.013  29.143  12.081
16233W        W84651  26.489  42.348   1.771
16234W        W84652   6.366  10.700   3.289
16235W        W84653  29.431   1.302   4.330
16236W        W84654  38.429   9.741   1.370
16237W        W84655  26.585  16.169  11.074
16238W        W84656  36.411   4.858   2.732
16239W        W84657  28.178  38.933   1.276
16240W        W84658  40.969  11.774   1.822
16241W        W84659  28.107  36.066   4.295
16242W        W84660  12.211  39.996  12.042
16243W        W84661  32.921   8.249   2.216
16244W        W84662  21.229  38.565  10.501
16245W        W84663  31.043  34.882   4.786
16246W        W84664   8.400   8.306  11.495
16247W        W84665  38.917  26.069   1.427
16248W        W84666  39.033   8.667  11.856
16249W        W84667  20.605   7.691   4.123
16250W        W84668  18.601  35.031  10.934
16251W        W84669  21.206  43.807  14.310
16252W        W84670  34.550  21.741  14.801
16253W        W84671  44.859  42.482   1.880
16254W        W84672   9.667  32.464  14.873
16255W        W84673   0.869   9.850   2.406
16256W        W84674  22.125   3.221  11.884
16257W        W84675  15.598  18.238  12.045
16258W        W84676  35.473  36.030   0.954
16259W        W84677  24.578   6.894   2.255
16260W        W84678  28.543  38.485   3.678
16261W        W84679  31.968  37.524   4.344
16262W        W84680  28.624  19.071  13.802
16263W        W84681  37.354  13.315  11.548
16264W        W84682  41.490  15.714   4.195
16265W        W84683  23.492  22.691  12.886
16266W        W84684  33.007  27.988  13.478
16267W        W84685  29.058  16.105  11.473
16268W        W84686  15.152  30.038   0.299
16269W        W84687  31.030  15.238   1.831
16270W        W84688  17.299  29.091   2.669
16271W        W84689  11.247  37.027  12.990
16272W        W84690   2.295   0.310   1.766
16273W        W84691  15.156  12.850  11.109
16274W        W84692  43.906  16.569   0.307
16275W        W84693   0.328  11.366  13.330
16276W        W84694  27.679  13.160   4.713
16277W        W84695   8.405   3.295   1.344
16278W        W84696  23.132  15.600   3.260
16279W        W84697  13.223   6.823  12.086
16280W        W84698  17.290  40.390  14.383
16281W        W84699  14.801  11.774  13.941
16282W        W84700  35.403  22.201  13.534
16283W        W84701   1.478  27.491   3.162
16284W        W84702  36.940  34.486   0.952
16285W        W84703  23.531  29.458   2.731
16286W        W84704  30.068  29.510   0.460
16287W        W84705  37.927  27.628   2.742
16288W        W84706  12.218   6.878   1.785
16289W        W84707  30.987   9.679   0.374
16290W        W84708  37.858  19.202  10.448
16291W        W84709  25.028  19.601   3.845
16292W        W84710   9.716  15.233  13.437
16293W        W84711  14.251  32.563   0.312
16294W        W84712  35.378  21.687   1.856
16295W        W84713  36.383  19.171  14.402
16296W        W84714   3.446   4.718   2.318
16297W        W84715  32.000  28.487   1.343
16298W        W84716  12.851  38.559  12.463
16299W        W84717  17.173   6.700   5.227
16300W        W84718  21.566   2.894  14.828
16301W        W84719  38.935  31.124  13.464
16302W        W84720  12.147  21.088  11.998
16303W        W84721  18.160  31.932  14.448
16304W        W84722  42.809  23.498   2.340
16305W        W84723   4.742  15.178   2.369
16306W        W84724  10.847   9.815   4.321
16307W        W84725  22.550  32.593  12.009
16308W        W84726  31.452  42.955   2.897
16309W        W84727   9.286  30.069   1.932
16310W        W84728  39.538  13.158  10.582
16311W        W84729  30.426  42.425   1.336
16312W        W84730   5.339  18.739  10.618
16313W        W84731  28.521  13.773   4.683
16314W        W84732   3.890  16.648  14.306
16315W        W84733  28.662  26.552  11.032
16316W        W84734  22.016   6.339  10.953
16317W        W84735   4.220  23.561   3.234
16318W        W84736   7.338  41.533  11.110
16319W        W84737  13.225   0.907   0.869
16320W        W84738  34.066  23.038  13.516
16321W        W84739  15.810  37.046   1.381
16322W        W84740   1.428  15.308   3.234
16323W        W84741  25.090  15.281  12.365
16324W        W84742   3.924  38.063   0.921
16325W        W84743  24.515  29.947  14.375
16326W        W84744   1.284  35.939   3.661
16327W        W84745   6.842  31.511   3.851
16328W        W84746  23.534  24.621  11.985
16329W        W84747  10.711  40.808   1.803
16330W        W84748  31.151   2.775  14.802
16331W        W84749  33.414  39.934   1.736
16332W        W84750  33.077  38.012  14.437
16333W        W84751  21.136  39.963   0.298
16334W        W84752  12.665  38.542   3.268
16335W        W84753  23.091  38.353   0.735
16336W        W84754  30.089  22.150   0.448
16337W        W84755  16.312  22.557  13.365
16338W        W84756   0.945  17.731  14.436
16339W        W84757  37.007  35.926  12.558
16340W        W84758  16.167  21.621   2.700
16341W        W84759  37.914   5.849   4.811
16342W        W84760  23.570   3.809   1.897
16343W        W84761  15.674  27.653  10.418
16344W        W84762  22.094  38.356   0.340
16345W        W84763  28.666  10.336   5.226
16346W        W84764   6.341   8.344  14.331
16347W        W84765  30.421  32.924  11.485
16348W        W84766  34.502  18.573   3.647
16349W        W84767   7.325  40.500   2.829
16350W        W84768   6.775  20.585   4.785
16351W        W84769  34.449  21.053   2.379
16352W        W84770  36.416   4.364   0.424
16353W        W84771  13.223  43.984  13.945
16354W        W84772  40.321  24.060  13.474
16355W        W84773  22.724   7.874  11.934
16356W        W84774  32.914  27.196   3.839
16357W        W84775  29.593   9.311   2.272
16358W        W84776  21.175  35.867  11.029
16359W        W84777  21.670  35.956   3.763
16360W        W84778  11.767  30.975   3.824
16361W        W84779  15.740  11.367   1.324
16362W        W84780   3.238  25.035  10.605
16363W        W84781  28.037   9.256   0.769
16364W        W84782  33.103   1.339  12.471
16365W        W84783  18.702  18.113   0.402
16366W        W84784  32.542  36.087   5.104
16367W        W84785  40.412   2.727   3.858
16368W        W84786  36.873  32.074   3.661
16369W        W84787  27.993  14.808  12.079
16370W        W84788  17.149  42.330   0.936
16371W        W84789  22.124  33.030  11.511
16372W        W84790  32.004   4.756   1.307
16373W        W84791  24.665   3.870  14.321
16374W        W84792   5.418  42.823   0.788
16375W        W84793  23.202  18.588  13.323
16376W        W84794  14.814  43.862  12.965
16377W        W84795  33.068   2.868   4.800
16378W        W84796  40.423  29.488   3.201
16379W        W84797  13.271  43.516   2.375
16380W        W84798  33.598  36.045   2.728
16381W        W84799  36.481  15.313  11.884
16382W        W84800  13.768  43.779   4.284
16383W        W84801  21.073  33.015  13.407
16384W        W84802   0.837  14.099   3.150
16385W        W84803  41.381   1.779   3.811
16386W        W84804   5.795  39.412  11.929
16387W        W84805  36.458   9.874  14.965
16388W        W84806  13.188  30.944   4.157
16389W        W84807  23.149  29.507   4.133
16390W        W84808  26.984  21.230   3.339
16391W        W84809  37.537  13.137   0.469
16392W        W84810   6.333  23.558   0.403
16393W        W84811  30.063  32.559   3.237
16394W        W84812  17.631  27.990   1.444
16395W        W84813  22.640  37.952   1.885
16396W        W84814  30.037  12.264  14.938
16397W        W84815  27.587   5.710  11.876
16398W        W84816  41.297  39.023   2.887
16399W        W84817  31.416  20.093   4.248
16400W        W84818  43.493   0.330   4.624
16401W        W84819  12.734  42.998  14.389
16402W        W84820  19.612   6.369  11.554
16403W        W84821  38.956  44.422   0.826
16404W        W84822  32.125  21.211  11.927
16405W        W84823  42.029   5.760  12.534
16406W        W84824  39.912  22.156  12.859
16407W        W84825  21.251  16.183  12.946
16408W        W84826  22.183  16.617   1.303
16409W        W84827  20.198  21.620  14.398
16410W        W84828  13.665  16.663  14.335
16411W        W84829   5.245   5.901  10.438
16412W        W84830  24.687  44.944  14.928
16413W        W84831   6.186  17.580   1.767
16414W        W84832  21.113  16.166  13.397
16415W        W84833  18.725  38.452   0.944
16416W        W84834  36.097  10.224   3.267
16417W        W84835  35.047  28.527  14.337
16418W        W84836  31.530   7.376   3.748
16419W        W84837  29.594  44.936   3.308
16420W        W84838   3.358  30.619   4.731
16421W        W84839  16.795  37.071  13.058
16422W        W84840   0.346  36.848   4.760
16423W        W84841  20.676  12.611  10.957
16424W        W84842  10.773   3.236  13.967
16425W        W84843  13.650   7.401   2.311
16426W        W84844  27.079  15.616  10.415
16427W        W84845  26.494  32.512  12.468
16428W        W84846  26.120  14.210   1.850
16429W        W84847   8.873   3.930   3.293
16430W        W84848  26.100  42.943  14.470
16431W        W84849   0.783  17.250   1.875
16432W        W84850  43.996  23.728  14.897
16433W        W84851  36.474   7.265  10.019
16434W        W84852  39.467  26.481  12.938
16435W        W84853  34.987  43.314  13.472
16436W        W84854   2.306   3.332   1.759
16437W        W84855   8.654   6.271   1.922
16438W        W84856   1.812   6.302   0.823
16439W        W84857  39.332   6.785  13.887
16440W        W84858  14.327  18.633  12.015
16441W        W84859  35.935  39.484   0.252
16442W        W84860  29.146  43.285  10.532
16443W        W84861  26.599  22.165  14.348
16444W        W84862  25.496   7.303   5.270
16445W        W84863   6.368  42.460   0.928
16446W        W84864  20.713  38.833  11.918
16447W        W84865  19.736   6.709  12.094
16448W        W84866   7.371  15.237  11.590
16449W        W84867  22.026   5.820   4.818
16450W        W84868  34.116  23.511  12.411
16451W        W84869  15.102   2.457  14.378
16452W        W84870  38.484  26.619  12.575
16453W        W84871  32.424  30.420   1.266
16454W        W84872  15.219  43.402   3.315
16455W        W84873  24.664  37.006  12.443
16456W        W84874  12.284   5.394  11.073
16457W        W84875  36.866   4.738   2.257
16458W        W84876  39.999  41.945   2.332
16459W        W84877  40.906  25.125  13.835
16460W        W84878  31.127  26.083  13.524
16461W        W84879  37.085   4.846   3.668
16462W        W84880  40.384   8.892  13.398
16463W        W84881   2.929  31.587  10.491
16464W        W84882  26.697  14.609  14.497
16465W        W84883   7.893  22.634  11.865
16466W        W84884  41.447   4.733  12.480
16467W        W84885   5.348  38.935  11.967
16468W        W84886  41.895   8.865   0.463
16469W        W84887  31.120  35.886   2.839
16470W        W84888  23.501  29.656  11.997
16471W        W84889  13.138  33.895   2.795
16472W        W84890  10.241  24.586  13.941
16473W        W84891  14.295  42.942   2.388
16474W        W84892  10.204   6.317   5.293
16475W        W84893  36.959  15.209   2.357
16476W        W84894  37.903  20.752   2.413
16477W        W84895  31.511   7.183  10.986
16478W        W84896  31.149  41.371  12.080
16479W        W84897   6.187   4.924   2.314
16480W        W84898  29.552  33.396   1.340
16481W        W84899   7.296  25.111   1.778
16482W        W84900  35.092  25.663  13.509
16483W        W84901  12.649  14.828   2.233
16484W        W84902  16.135  17.189  13.339
16485W        W84903  34.922  27.591   4.686
16486W        W84904  34.545  27.133  13.440
16487W        W84905  22.733  25.679   9.992
16488W        W84906  13.839   8.204   1.879
16489W        W84907  35.434  16.143   1.268
16490W        W84908  44.313  11.255   3.290
16491W        W84909   7.865  40.472   3.342
16492W        W84910  44.329   0.371   2.868
16493W        W84911  32.079  34.504  12.825
16494W        W84912   3.885  15.127  13.908
16495W        W84913  40.816  35.979   3.219
16496W        W84914  39.463  37.538  10.581
16497W        W84915   4.288  44.386  14.845
16498W        W84916  39.847  20.732   1.230
16499W        W84917  15.122  29.629  10.889
16500W        W84918  14.176   6.789  11.036
16501W        W84919  14.238  36.018   0.435
16502W        W84920   8.265   7.848   2.705
16503W        W84921   6.715  37.573  10.971
16504W        W84922   6.250  37.558   3.351
16505W        W84923  25.137   8.274  10.498
16506W        W84924   3.419  28.180   3.692
16507W        W84925   2.831   7.667   1.357
16508W        W84926  22.615   8.707   0.249
16509W        W84927  15.083  14.297  10.561
16510W        W84928  21.567  34.079  12.882
16511W        W84929  31.447  33.061   2.818
16512W        W84930  32.897  35.006  11.932
16513W        W84931  29.668  12.646  10.946
16514W        W84932  36.007  16.593  11.025
16515W        W84933  33.985   4.308   3.859
16516W        W84934  32.962   8.340   0.425
16517W        W84935  41.497  34.921   0.933
16518W        W84936  31.154  16.734  11.013
16519W        W84937  37.833  10.194   4.773
16520W        W84938  30.989  13.721   2.902
16521W        W84939  37.492  20.229  12.021
16522W        W84940   9.175   9.312   0.461
16523W        W84941  18.572  23.117   0.299
16524W        W84942  35.401  13.732   2.316
16525W        W84943  19.234  18.253   2.745
16526W        W84944  21.656  29.624   4.202
16527W        W84945  44.813  14.627   9.496
16528W        W84946  22.149  24.092   3.833
16529W        W84947   4.220   8.222  13.791
16530W        W84948   1.439  25.203  10.571
16531W        W84949  32.449  13.838  14.349
16532W        W84950  12.685  21.588  13.463
16533W        W84951  19.186  15.639  14.406
16534W        W84952  11.338   3.337  14.002
16535W        W84953  27.070  13.325  14.324
16536W        W84954  11.333  29.628  13.341
16537W        W84955   2.849  16.625   3.776
16538W        W84956  29.165  25.554  14.368
16539W        W84957  16.171  41.922   2.883
16540W        W84958  41.351  10.187  10.451
16541W        W84959  33.540  26.206  14.382
16542W        W84960  19.710  40.466   2.389
16543W        W84961   1.750   6.725  14.332
16544W        W84962   3.855  13.801  10.444
16545W        W84963  18.156   0.278  13.922
16546W        W84964   0.924  43.332   3.174
16547W        W84965  28.480  40.003  13.539
16548W        W84966   4.923  43.384  14.401
16549W        W84967  31.459  42.443   4.188
16550W        W84968  38.452  32.422   2.374
16551W        W84969   8.302   7.360  11.020
16552W        W84970  38.914   7.670   3.779
16553W        W84971  17.739   4.794   2.390
16554W        W84972   4.926  35.392   3.853
16555W        W84973   1.903  31.899  11.890
16556W        W84974  23.626  25.654  11.069
16557W        W84975  21.710  15.782   4.308
16558W        W84976  27.970  16.269   4.250
16559W        W84977  18.242  37.565  14.792
16560W        W84978  24.588   2.363   4.598
16561W        W84979  40.505   1.396   0.339
16562W        W84980  14.253  12.313  14.873
16563W        W84981  27.561  11.141  13.333
16564W        W84982   5.412  37.530   1.866
16565W        W84983   0.944   0.828  12.867
16566W        W84984  29.475  42.954   0.851
16567W        W84985  21.230   3.433  11.996
16568W        W84986  17.181   7.774   3.163
16569W        W84987   6.760   0.401   0.885
16570W        W84988  42.304  14.276  10.992
16571W        W84989  41.471  40.522   2.721
16572W        W84990  39.510  36.852  12.412
16573W        W84991  27.530  15.622  10.538
16574W        W84992   8.712  10.267  13.384
16575W        W84993  22.210  35.550   1.889
16576W        W84994  16.760  33.030   1.804
16577W        W84995  28.951  40.918   3.737
16578W        W84996  15.233  13.107   2.689
16579W        W84997  25.052  19.244  13.361
16580W        W84998  43.963  30.115  12.420
16581W        W84999  16.101   6.904  14.925
16582W        W85000  34.434  27.561  10.516
16583W        W85001  27.689  43.899  10.890
16584W        W85002  26.690  40.919   1.265
16585W        W85003  30.614  13.739  11.515
16586W        W85004   9.724  33.090   3.784
16587W        W85005  42.512   3.241  11.518
16588W        W85006  43.008   8.766   1.898
16589W        W85007  44.897  14.263  13.474
16590W        W85008  28.592  25.637  11.472
16591W        W85009  22.153  32.888   1.375
16592W        W85010  15.603  24.182  11.917
16593W        W85011  11.145  44.458   1.392
16594W        W85012   1.319  22.622  13.543
16595W        W85013  14.336   0.382   1.934
16596W        W85014  31.410  42.430   0.751
16597W        W85015  25.628  40.404   3.352
16598W        W85016  20.105  38.360  13.995
16599W        W85017  30.092  40.968   2.407
16600W        W85018   8.269  12.327   3.741
16601W        W85019   3.804  10.241   4.266
16602W        W85020  23.648  13.184  13.420
16603W        W85021   8.838  21.158   2.288
16604W        W85022   4.312  15.687   0.430
16605W        W85023   6.736  20.032   2.725
16606W        W85024  35.394  40.504  11.427
16607W        W85025  37.014  33.079   4.157
16608W        W85026   8.347   5.347  12.963
16609W        W85027   9.875   4.273  12.436
16610W        W85028  42.791  40.304  14.282
16611W        W85029   7.792  16.588   3.290
16612W        W85030  43.876  33.591   0.794
16613W        W85031  28.642  12.617  10.617
16614W        W85032  17.200  13.213   0.773
16615W        W85033   9.159  41.450  11.486
16616W        W85034  16.633  16.204   0.383
16617W        W85035  18.289  27.678  14.960
16618W        W85036  35.102   5.890  14.801
16619W        W85037  34.021  38.971   3.263
16620W        W85038  43.500  35.481   0.889
16621W        W85039  31.937   8.270   0.738
16622W        W85040   1.446   6.266   1.215
16623W        W85041   2.385   8.777   1.411
16624W        W85042   7.733   7.857   3.644
16625W        W85043  18.638   8.246   0.334
16626W        W85044  28.603  18.787  11.478
16627W        W85045   8.360  38.481  12.046
16628W        W85046  38.063   0.885  10.970
16629W        W85047   6.687   8.177  14.843
16630W        W85048  31.944  35.557   4.320
16631W        W85049  42.313  36.947   1.931
16632W        W85050  41.887  23.090   0.380
16633W        W85051  18.663  29.161   2.378
16634W        W85052  36.348  32.619  14.402
16635W        W85053  32.432   3.722  12.447
16636W        W85054  11.212  30.932  11.505
16637W        W85055  24.082  25.087   2.862
16638W        W85056  42.466  42.985  10.975
16639W        W85057   8.166  17.603   3.198
16640W        W85058  15.135  14.728  13.386
16641W        W85059  35.913  24.634   3.362
16642W        W85060  14.792  44.967  10.891
16643W        W85061  13.781  10.766  13.530
16644W        W85062  31.029  17.625  13.477
16645W        W85063  18.614  20.584   1.234
16646W        W85064  15.745  26.207  12.043
16647W        W85065  36.979  23.091   3.292
16648W        W85066   3.313  31.963  10.542
16649W        W85067  37.956  10.768   3.282
16650W        W85068  32.084  36.081   4.726
16651W        W85069  21.626  24.141   0.282
16652W        W85070  40.919  24.706   1.238
16653W        W85071  22.142  44.828  10.561
16654W        W85072   8.257   3.764   0.424
16655W        W85073  41.312  43.450   1.853
16656W        W85074  44.825   7.279  12.577
16657W        W85075  44.836  42.943  11.563
16658W        W85076  17.238   3.231   9.984
16659W        W85077   8.817  41.040   1.434
16660W        W85078  17.776  20.765  13.830
16661W        W85079  28.448  15.604  12.567
16662W        W85080  28.144  23.681   3.294
16663W        W85081   6.709   3.342   3.825
16664W        W85082  22.659  16.577   9.980
16665W        W85083  38.885   5.257  12.929
16666W        W85084  24.054   7.275   5.155
16667W        W85085   0.412  35.424  14.006
16668W        W85086  11.349   8.772  10.631
16669W        W85087  38.413  12.332  13.943
16670W        W85088  20.642   0.434  14.391
16671W        W85089  35.570  31.928   4.662
16672W        W85090  28.041  17.645  13.908
16673W        W85091  30.160  34.043   1.389
16674W        W85092  38.553  10.206   4.805
16675W        W85093  44.387  44.399   1.279
16676W        W85094  42.508   2.259  13.534
16677W        W85095  30.436   6.804   1.328
16678W        W85096  38.044  24.179   2.338
16679W        W85097   3.776  25.208   3.799
16680W        W85098  37.495   0.481   3.303
16681W        W85099  33.899   9.207   2.688
16682W        W85100   0.896  35.941   5.302
16683W        W85101  10.141  18.639   1.821
16684W        W85102  25.971   9.375   5.689
16685W        W85103  10.714  24.216   2.393
16686W        W85104  20.255  13.786  12.027
16687W        W85105  13.215  40.483  10.579
16688W        W85106  15.259  41.440   1.329
16689W        W85107  42.796  38.829   1.286
16690W        W85108  11.222  16.281   3.372
16691W        W85109   1.456   7.407   3.764
16692W        W85110  26.126   5.929   2.680
16693W        W85111   9.864  13.236   4.718
16694W        W85112   6.230  21.588   1.326
16695W        W85113  36.463  12.713  12.988
16696W        W85114  36.517  15.320   3.294
16697W        W85115  26.680   3.340   2.192
16698W        W85116  23.229  44.932   1.814
16699W        W85117  27.548   9.180   1.334
16700W        W85118  32.943  31.486  13.507
16701W        W85119   0.414  25.710  12.933
16702W        W85120  10.695  12.206   3.711
16703W        W85121  15.581   4.873   4.295
16704W        W85122   6.427  17.145   1.761
16705W        W85123   0.974  19.233   3.870
16706W        W85124  30.100  21.055  12.521
16707W        W85125   6.901   3.361  10.470
16708W        W85126   9.262  19.721   3.163
16709W        W85127  35.546  17.681   2.761
16710W        W85128  25.474   1.821  13.504
16711W        W85129  42.407  44.846   2.199
16712W        W85130  25.115   2.754   4.669
16713W        W85131  20.744  17.078  10.456
16714W        W85132  36.897  34.409   4.272
16715W        W85133  25.643  27.688  13.434
16716W        W85134  23.162  14.144   0.290
16717W        W85135  29.971  35.089  12.989
16718W        W85136  32.597   9.199   1.387
16719W        W85137   7.281   4.261   4.225
16720W        W85138  33.879  26.075   3.305
16721W        W85139  31.558  31.593  11.464
16722W        W85140   0.866   6.401   2.368
16723W        W85141  16.084  39.997   2.761
16724W        W85142  16.152  18.753   0.393
16725W        W85143   7.212   6.373   0.476
16726W        W85144   5.736   9.312   0.265
16727W        W85145  13.725   9.814   3.297
16728W        W85146  13.256  20.215  14.922
16729W        W85147   9.380  33.380   0.787
16730W        W85148  30.924  20.261  10.934
16731W        W85149  31.011  36.441  12.388
16732W        W85150   2.303  34.392  11.565
16733W        W85151   3.779  19.178  12.982
16734W        W85152  21.712  28.163  10.000
16735W        W85153  12.200  20.647   4.750
16736W        W85154  44.928  32.422  11.892
16737W        W85155  22.691  27.513   1.772
16738W        W85156  38.928  27.673   0.310
16739W        W85157  44.896  12.237   3.709
16740W        W85158   2.789   2.319  13.503
16741W        W85159  26.028  21.650  13.967
16742W        W85160  12.655  26.009   4.732
16743W        W85161   6.366  38.849   2.855
16744W        W85162  36.995  38.938  14.404
16745W        W85163  38.438  37.447   1.765
16746W        W85164  44.996  24.682   4.685
16747W        W85165  38.329  34.554  14.512
16748W        W85166  29.028  23.549   1.918
16749W        W85167   1.465  44.810   1.806
16750W        W85168   3.893  33.936  13.540
16751W        W85169  21.582  25.569   4.719
16752W        W85170  29.034  20.572  12.987
16753W        W85171  10.872  14.143   3.746
16754W        W85172  35.508  18.614  14.485
16755W        W85173  21.514  19.143   4.351
16756W        W85174  16.772  23.182  10.965
16757W        W85175  40.332  36.581  11.858
16758W        W85176  33.008   8.670   4.685
16759W        W85177  38.937  17.277  11.925
16760W        W85178  19.597  33.917  14.325
16761W        W85179  36.090  38.440  10.115
16762W        W85180  21.131  25.102  13.497
16763W        W85181  37.484  38.390   1.288
16764W        W85182  23.498  12.713   0.889
16765W        W85183   5.832  26.515   1.277
16766W        W85184  29.546  26.037  11.871
16767W        W85185  15.268  36.490   2.799
16768W        W85186  31.486  36.889   3.778
16769W        W85187  16.225  38.388  10.990
16770W        W85188  24.511  36.094  14.322
16771W        W85189  30.517  32.925   1.846
16772W        W85190  18.545  35.559  11.536
16773W        W85191  26.166  41.405   2.825
16774W        W85192  42.318  29.427   2.841
16775W        W85193  41.025  39.386  10.520
16776W        W85194   9.202   5.412   3.190
16777W        W85195  33.998  34.877  12.380
16778W        W85196   1.880  31.981   3.303
16779W        W85197   9.268  36.511  14.826
16780W        W85198  20.075  41.529   0.822
16781W        W85199  29.166  16.209   4.636
16782W        W85200  17.227  15.579   0.325
16783W        W85201   6.376  35.069  13.307
16784W        W85202  39.466  43.863   2.727
16785W        W85203  22.177  39.551   1.811
16786W        W85204  39.898  31.492  12.028
16787W        W85205  27.658   3.784  14.917
16788W        W85206  32.978  38.360  10.977
16789W        W85207   6.900   0.299  11.404
16790W        W85208  27.068  27.601   4.148
16791W        W85209  35.041  32.109  14.368
16792W        W85210  39.483  25.156  13.829
16793W        W85211  23.003  40.923   5.619
16794W        W85212  10.321  36.479  13.382
16795W        W85213  25.513  24.681   0.248
16796W        W85214  18.650  12.698   0.857
16797W        W85215  23.159  23.606  14.275
16798W        W85216  19.136  29.045   0.420
16799W        W85217  25.140   6.818  10.567
16800W        W85218  39.003  32.073   0.469
16801W        W85219  40.032   9.311  13.940
16802W        W85220  23.235  24.535   4.832
16803W        W85221  22.085  30.946   4.270
16804W        W85222   6.294  39.490  13.915
16805W        W85223  35.952  19.185   2.717
16806W        W85224   4.929  33.401  14.773
16807W        W85225  18.557  32.508   4.769
16808W        W85226  27.052  13.611  12.505
16809W        W85227   8.853   0.456  10.888
16810W        W85228   7.686  15.148   4.672
16811W        W85229   7.798  10.651  14.791
16812W        W85230  12.720  18.784   2.815
16813W        W85231   9.312   0.395  14.923
16814W        W85232   1.352  16.262   1.317
16815W        W85233  33.607  12.215   0.863
16816W        W85234  14.833  10.857   0.450
16817W        W85235  35.505  36.422   4.633
16818W        W85236  19.687  18.244  10.972
16819W        W85237  20.111  33.464  10.898
16820W        W85238  28.540  28.458   2.358
16821W        W85239  20.244  20.725   3.633
16822W        W85240   2.372  41.322  14.007
16823W        W85241  11.831   6.781   4.234
16824W        W85242  40.902   5.224   2.268
16825W        W85243  25.704  29.073  14.990
16826W        W85244  23.065  26.661  12.910
16827W        W85245  36.482  13.313  14.899
16828W        W85246  32.139  32.042  13.007
16829W        W85247   9.177  25.624   4.322
16830W        W85248  23.047  21.110   2.706
16831W        W85249  30.602  35.369   3.786
16832W        W85250  39.391  24.641   2.791
16833W        W85251  11.829  16.124   4.337
16834W        W85252  38.907  19.570  14.348
16835W        W85253   8.298  22.632   1.266
16836W        W85254  21.170  41.535   0.456
16837W        W85255  32.556   2.318   2.273
16838W        W85256  43.837  28.621   4.294
16839W        W85257  12.254  13.179  12.580
16840W        W85258  21.738  10.251  11.872
16841W        W85259  16.307  31.027   1.746
16842W        W85260  39.926  17.578   3.183
16843W        W85261  17.268  18.561  13.975
16844W        W85262  40.968  33.464   1.343
16845W        W85263  26.115  32.518   1.316
16846W        W85264   4.736  19.776  11.016
16847W        W85265  31.117   0.904   0.895
16848W        W85266   6.413  29.947   1.418
16849W        W85267  27.182   3.931  10.453
16850W        W85268  17.561  10.377  10.930
16851W        W85269  31.519  41.989  14.789
16852W        W85270  27.969  31.029   2.714
16853W        W85271  18.190   2.303  10.515
16854W        W85272  37.937   1.459  11.091
16855W        W85273   6.386  23.144   3.651
16856W        W85274  10.270  22.586   1.409
16857W        W85275  24.118  30.135  12.967
16858W        W85276  16.311  40.534   0.330
16859W        W85277  17.151  29.651   2.193
16860W        W85278  25.544  21.019   0.349
16861W        W85279  15.752  29.920   3.863
16862W        W85280  23.043  10.719   4.189
16863W        W85281  20.234  41.473  10.623
16864W        W85282  44.908   3.405   2.257
16865W        W85283  19.771   6.194  13.520
16866W        W85284  32.087  39.428  12.420
16867W        W85285  32.595  38.011   2.842
16868W        W85286  37.868  35.995   3.212
16869W        W85287   0.442  16.210  14.340
16870W        W85288  36.508  42.390  14.888
16871W        W85289  26.044  34.614  14.794
16872W        W85290   9.878   4.208   1.864
16873W        W85291   9.181  15.596  11.481
16874W        W85292  30.601  27.112   0.787
16875W        W85293  12.674  11.707  13.371
16876W        W85294   0.290  23.169  11.002
16877W        W85295   8.404  31.566   4.644
16878W        W85296  12.225   8.702   2.769
16879W        W85297  16.290  11.277  10.443
16880W        W85298  31.445  30.131  14.825
16881W        W85299  26.094   9.751   4.304
16882W        W85300  16.210  41.535   3.660
16883W        W85301  43.396  17.071   2.800
16884W        W85302  19.716  33.050  11.055
16885W        W85303   1.791  21.056   3.850
16886W        W85304  10.206   7.297   0.350
16887W        W85305  25.479  30.571  10.576
16888W        W85306  17.261  13.228  11.595
16889W        W85307  16.172  30.486   3.148
16890W        W85308  12.168  17.674   2.346
16891W        W85309  34.380  36.567  14.899
16892W        W85310  10.224  28.044   1.696
16893W        W85311   8.323  17.163  14.494
16894W        W85312  32.100  33.452   5.229
16895W        W85313  38.547   6.192   1.432
16896W        W85314  12.811  41.802  11.084
16897W        W85315   1.841   6.773  10.624
16898W        W85316  14.691   0.910   4.753
16899W        W85317  21.164  30.498   1.761
16900W        W85318   5.809   0.961  11.013
16901W        W85319  31.983  27.090  10.500
16902W        W85320  41.986  14.715   4.723
16903W        W85321  19.275   8.835  12.063
16904W        W85322  31.908  15.719   1.250
16905W        W85323  38.025  42.358  11.501
16906W        W85324  43.475  27.528   3.280
16907W        W85325  41.303  43.947   3.177
16908W        W85326  20.548  25.217  12.383
16909W        W85327  20.672  38.445  11.004
16910W        W85328  22.650  19.644  11.561
16911W        W85329   3.461  32.971   2.864
16912W        W85330  20.716  30.507  12.560
16913W        W85331  31.951   1.394  11.522
16914W        W85332   0.816  37.988  14.448
16915W        W85333  16.218  23.661   4.114
16916W        W85334   2.931   7.908  12.049
16917W        W85335   4.765  12.620  10.161
16918W        W85336  24.550  29.083  13.002
16919W        W85337  43.446  34.500   3.681
16920W        W85338  28.174  40.996  12.030
16921W        W85339  42.967  36.485   0.294
16922W        W85340   2.426  33.621   0.792
16923W        W85341  15.762   0.314   1.370
16924W        W85342  33.992  42.802  11.003
16925W        W85343   2.860  31.479  12.869
16926W        W85344  28.145  35.484   4.199
16927W        W85345  24.598  15.699  10.518
16928W        W85346  19.195  25.645  12.826
16929W        W85347  35.878  21.578   3.839
16930W        W85348  32.136  40.844  12.524
16931W        W85349   2.796  36.093  10.578
16932W        W85350  26.961  42.295  13.382
16933W        W85351  26.954  20.274  14.005
16934W        W85352  21.229  27.989  14.463
16935W        W85353  31.437   6.337   0.878
16936W        W85354  14.134   8.160  12.526
16937W        W85355   4.223  30.641   4.810
16938W        W85356  16.139  43.384   3.165
16939W        W85357  38.568  43.949  14.277
16940W        W85358  33.598  42.784   1.857
16941W        W85359  15.651  25.549  14.787
16942W        W85360  40.888  43.811  10.987
16943W        W85361  10.182  35.987   3.655
16944W        W85362  28.046   5.812  13.984
16945W        W85363   4.379  35.954  12.006
16946W        W85364  39.821  29.108   0.257
16947W        W85365  33.108  25.164  14.481
16948W        W85366   3.302  27.084  13.493
16949W        W85367  36.357  10.202  11.088
16950W        W85368  23.627  30.926  12.825
16951W        W85369  41.520  22.201   1.740
16952W        W85370  42.479  11.824  13.476
16953W        W85371  22.551  29.121   1.274
16954W        W85372  41.305   2.321   2.803
16955W        W85373  30.920  36.991  12.018
16956W        W85374  36.570  10.358   0.849
16957W        W85375  20.761  44.879   3.666
16958W        W85376  32.518  24.557  12.539
16959W        W85377  21.101   8.373   3.299
16960W        W85378  33.944  34.526   4.788
16961W        W85379  15.151  11.766  13.516
16962W        W85380  32.996  38.050  14.776
16963W        W85381  23.207   0.365  13.952
16964W        W85382  10.709  43.269   2.304
16965W        W85383  12.237  43.895  12.899
16966W        W85384  11.299  16.576  13.353
16967W        W85385   0.358  22.063   1.349
16968W        W85386  10.177  34.897  13.060
16969W        W85387  36.480  28.628   2.861
16970W        W85388  14.235  37.837  12.017
16971W        W85389  44.444  42.954   5.281
16972W        W85390  24.113   3.435   9.990
16973W        W85391  19.774  21.551  11.449
16974W        W85392  18.680  23.138   4.768
16975W        W85393   5.842  39.414   0.958
16976W        W85394  25.566  38.882   1.385
16977W        W85395  29.105  35.862   2.732
16978W        W85396  34.032   2.243  14.478
16979W        W85397  33.064  30.651   4.618
16980W        W85398   8.722  30.160   3.359
16981W        W85399   9.196  24.142   1.330
16982W        W85400  41.349   5.878  13.866
16983W        W85401  37.426   7.777  11.000
16984W        W85402  40.966   9.667  14.972
16985W        W85403  40.955  30.152   1.211
16986W        W85404   1.825  33.393  13.511
16987W        W85405  17.729  17.165  11.492
16988W        W85406  28.579  10.295   2.252
16989W        W85407   0.301  29.618  13.047
16990W        W85408  42.921  18.235  12.537
16991W        W85409  16.163  17.140   0.383
16992W        W85410  13.190   9.303  12.485
16993W        W85411  13.271  25.070   3.207
16994W        W85412  44.436  32.461   5.221
16995W        W85413  20.664  38.058  13.362
16996W        W85414  11.158   9.358   1.731
16997W        W85415   3.326  13.311   1.212
16998W        W85416  13.719  31.516  13.871
16999W        W85417   9.794  13.777   2.771
17000W        W85418   6.775   9.165  11.402
17001W        W85419  32.622  44.985   1.743
17002W        W85420  37.986  42.381   1.328
17003W        W85421   1.760  25.067   0.804
17004W        W85422  12.750  29.545  11.922
17005W        W85423  39.012  17.128  10.951
17006W        W85424  44.391   6.266  11.033
17007W        W85425  34.987  31.083   0.353
17008W        W85426  18.245  11.182  13.834
17009W        W85427  36.051  23.986   1.353
17010W        W85428  27.080  26.672   1.721
17011W        W85429   6.879   1.283  12.397
17012W        W85430  27.054  10.384   1.824
17013W        W85431  16.694  19.050   1.337
17014W        W85432  28.101  14.335  13.362
17015W        W85433  25.568   0.493  11.476
17016W        W85434  23.007  42.483  12.932
17017W        W85435  31.482   1.438  14.485
17018W        W85436  17.648  34.536   2.859
17019W        W85437  29.532   2.739  12.526
17020W        W85438   1.318   7.900  11.116
17021W        W85439  43.909  40.326   3.712
17022W        W85440  25.108  43.335   3.685
17023W        W85441  36.891   9.155   2.378
17024W        W85442  35.853  26.458   4.345
17025W        W85443  29.426  42.882   1.244
17026W        W85444  29.658  30.047   1.756
17027W        W85445  23.660  22.231   3.352
17028W        W85446   6.761  38.861   4.282
17029W        W85447  35.375  31.613  13.037
17030W        W85448  38.956  28.643  14.862
17031W        W85449  18.139  30.926   4.252
17032W        W85450   6.698  21.212   4.820
17033W        W85451  27.060  22.739   4.597
17034W        W85452   0.915  44.867   0.414
17035W        W85453  19.566   1.893   0.919
17036W        W85454  42.900  40.025   3.307
17037W        W85455  11.853  32.124  12.857
17038W        W85456  25.582  13.279   0.781
17039W        W85457  13.173   9.181   4.350
17040W        W85458  21.647  31.911  13.875
17041W        W85459  20.041  14.602   0.471
17042W        W85460   7.222  32.977  14.859
17043W        W85461  14.599  36.962   4.711
17044W        W85462   4.304  18.184  11.044
17045W        W85463  39.345  18.555  11.025
17046W        W85464  27.947  30.164  12.515
17047W        W85465  24.001  23.498  13.448
17048W        W85466  12.361   1.745  11.866
17049W        W85467   0.745  40.003  13.969
17050W        W85468  34.116  29.928  11.119
17051W        W85469  28.571  44.000  13.022
17052W        W85470  16.631  17.561  11.554
17053W        W85471  39.894  30.998  13.423
17054W        W85472  24.527  24.640  11.574
17055W        W85473  20.742  36.986  13.960
17056W        W85474  13.183  22.636  11.007
17057W        W85475  39.943  32.395  12.955
17058W        W85476  10.177  40.050  13.034
17059W        W85477  30.524  12.138  10.560
17060W        W85478  43.930  22.206   4.780
17061W        W85479  43.914  40.819   1.790
17062W        W85480  40.400  37.990   3.374
17063W        W85481  39.497  39.999   0.303
17064W        W85482  38.421  10.238  12.997
17065W        W85483   7.275  11.731   4.741
17066W        W85484  44.492  22.734  12.551
17067W        W85485  36.912   1.851   4.133
17068W        W85486  31.496  18.220  12.453
17069W        W85487  22.674  31.503   3.854
17070W        W85488  15.653  23.191  11.922
17071W        W85489  15.606  33.982  13.898
17072W        W85490  29.162  41.831   0.862
17073W        W85491  41.898  36.063  14.312
17074W        W85492   1.470   2.735  14.412
17075W        W85493  12.169   0.894  14.983
17076W        W85494  27.991   8.212   2.279
17077W        W85495   5.787  29.483   1.722
17078W        W85496  42.348  27.462  11.587
17079W        W85497  10.716  15.250   2.768
17080W        W85498  38.540  27.485  10.521
17081W        W85499   8.246  21.186   0.433
17082W        W85500  44.432   4.926  14.282
17083W        W85501   3.864  27.560   3.757
17084W        W85502  43.900  32.551  10.559
17085W        W85503  36.563  12.836  11.558
17086W        W85504  37.438  13.174   1.383
17087W        W85505   1.832  22.175  10.152
17088W        W85506  11.781  32.494  12.988
17089W        W85507  17.717  12.855  10.953
17090W        W85508  10.874  29.053   4.239
17091W        W85509  17.201  36.074  13.006
17092W        W85510  43.813  28.040  13.828
17093W        W85511  37.434  10.314   5.210
17094W        W85512  20.606  12.310  11.457
17095W        W85513  19.213   1.843   1.769
17096W        W85514  42.016  14.787  12.383
17097W        W85515  23.705  11.709  13.391
17098W        W85516  15.585  35.946  10.905
17099W        W85517   3.807  32.060  10.059
17100W        W85518  33.071  39.333   3.706
17101W        W85519  10.206  34.911  13.826
17102W        W85520  40.365   7.203   3.204
17103W        W85521  32.412  10.720   4.651
17104W        W85522  42.421   8.355   2.818
17105W        W85523   4.721   6.423  14.411
17106W        W85524   3.905  11.334  10.489
17107W        W85525  32.129  11.358   4.670
17108W        W85526  41.835  21.063  14.900
17109W        W85527  39.411  25.985   3.646
17110W        W85528  36.001  39.996   0.813
17111W        W85529   1.828  15.251   1.443
17112W        W85530  20.641   4.855  10.591
17113W        W85531   5.725  10.695   4.644
17114W        W85532  29.577  44.969  13.507
17115W        W85533  36.873  17.556   1.441
17116W        W85534   4.846   2.360  11.496
17117W        W85535  31.045   7.902  10.645
17118W        W85536  43.499  11.695  12.462
17119W        W85537  10.349  38.917   3.360
17120W        W85538  44.360  43.781  12.405
17121W        W85539  30.925  24.978  12.000
17122W        W85540  21.698  33.415   3.178
17123W        W85541  25.110  30.501   4.127
17124W        W85542   4.260   3.369  11.894
17125W        W85543   1.374   4.449  13.037
17126W        W85544  25.605  23.151   3.666
17127W        W85545  32.020  14.321  13.454
17128W        W85546  18.154  12.361  13.791
17129W        W85547  11.284  20.707   0.751
17130W        W85548  26.550  17.622   2.880
17131W        W85549  19.072  35.547   4.180
17132W        W85550   5.923  22.038   4.707
17133W        W85551  40.039  32.426   4.630
17134W        W85552  15.647  16.597  13.977
17135W        W85553   5.250  18.142  13.944
17136W        W85554  17.671  22.170  12.060
17137W        W85555  44.858  26.675  14.997
17138W        W85556  37.369  18.567   2.399
17139W        W85557  41.392  42.281   0.253
17140W        W85558  28.068  36.941   0.484
17141W        W85559  38.844   0.425   1.249
17142W        W85560  31.597  10.675  14.480
17143W        W85561  19.185  27.073   1.739
17144W        W85562   9.198  33.060  12.358
17145W        W85563  44.767  22.533   1.287
17146W        W85564   5.395   6.681   4.210
17147W        W85565  27.981   3.845  11.419
17148W        W85566  25.602   3.266   1.430
17149W        W85567  12.670  32.000   0.300
17150W        W85568  24.633  23.617  14.419
17151W        W85569  26.108  38.441  13.803
17152W        W85570  12.185  32.046   5.143
17153W        W85571  41.894  32.498   1.718
17154W        W85572  29.175  16.571   1.836
17155W        W85573   5.271  44.969   1.229
17156W        W85574  29.016  32.612  12.406
17157W        W85575  37.575  36.946   1.371
17158W        W85576   4.235   8.798   3.719
17159W        W85577  36.524  23.241  12.824
17160W        W85578  40.941  39.864   1.746
17161W        W85579   1.785  19.695  13.904
17162W        W85580  42.510  38.480   2.695
17163W        W85581   8.805   1.407   1.880
17164W        W85582  22.726  18.597  14.883
17165W        W85583  11.830  32.053   2.846
17166W        W85584   6.351   9.155  11.069
17167W        W85585  14.203  43.791   4.282
17168W        W85586  35.949  26.553  13.497
17169W        W85587  31.153   2.264   4.797
17170W        W85588  35.933  17.092   3.259
17171W        W85589  27.032  38.846  13.437
17172W        W85590  37.427   6.883  12.989
17173W        W85591  39.018  16.758  13.835
17174W        W85592  41.854  43.853   0.363
17175W        W85593   9.157   5.920  13.844
17176W        W85594   2.409  41.849  14.828
17177W        W85595  20.069  38.423   0.302
17178W        W85596  14.156  27.141  11.560
17179W        W85597   6.793  22.593   3.337
17180W        W85598  13.603  42.496   4.706
17181W        W85599  34.372  20.210  10.494
17182W        W85600  35.917  12.686   2.333
17183W        W85601   3.760  27.091  13.845
17184W        W85602  11.315  31.494  12.832
17185W        W85603   4.291  35.874   3.265
17186W        W85604  26.524   9.189   4.161
17187W        W85605  36.577  37.445   1.905
17188W        W85606  23.224  42.340  13.918
17189W        W85607   4.316  19.061   0.893
17190W        W85608  17.228  38.012  14.288
17191W        W85609  33.547   9.840   0.877
17192W        W85610  17.098  17.687  10.493
17193W        W85611  41.455  12.726   4.312
17194W        W85612  16.310  27.496   2.221
17195W        W85613  35.853   4.368   3.342
17196W        W85614  27.479  37.912   3.210
17197W        W85615  33.497   6.746  13.346
17198W        W85616  32.096  41.305  13.516
17199W        W85617  25.018  16.314  14.343
17200W        W85618  17.143  14.652  12.007
17201W        W85619  25.994  32.911  13.920
17202W        W85620   8.192  41.984   3.746
17203W        W85621  27.562  36.543  11.091
17204W        W85622  36.559  29.960  11.126
17205W        W85623  26.588  31.149   0.843
17206W        W85624  42.352  25.050   0.445
17207W        W85625   9.784  14.697  11.523
17208W        W85626  14.138  30.144  12.431
17209W        W85627  19.090   7.279  10.641
17210W        W85628  26.517   2.744   2.345
17211W        W85629  17.168  44.334   0.347
17212W        W85630  23.017  41.929  13.824
17213W        W85631  25.602  44.842  12.882
17214W        W85632  41.497  33.597   1.331
17215W        W85633  39.989  25.064  10.990
17216W        W85634  32.976  17.766  10.551
17217W        W85635  24.212  36.876  11.878
17218W        W85636  26.698  10.805  10.944
17219W        W85637   3.216  44.366  10.559
17220W        W85638  25.053  42.507  13.873
17221W        W85639   7.706  16.686   4.707
17222W        W85640   0.370  24.067   4.716
17223W        W85641  26.527  30.581  13.375
17224W        W85642  23.124  33.509  13.816
17225W        W85643  16.658  18.666  10.508
17226W        W85644  41.903  41.001  13.870
17227W        W85645  39.016  15.721   4.772
17228W        W85646  43.914   8.662   3.234
17229W        W85647  16.711  38.915  10.560
17230W        W85648   0.801  26.543   0.303
17231W        W85649   2.275  36.502  12.389
17232W        W85650  13.828   6.850  11.890
17233W        W85651   8.859  37.569   4.663
17234W        W85652  37.924  23.201  13.811
17235W        W85653  38.486  11.757  12.834
17236W        W85654  32.475   6.869   4.348
17237W        W85655   1.399  39.554   2.696
17238W        W85656   3.754  38.881  14.345
17239W        W85657  32.095  42.810  13.964
17240W        W85658  13.620  29.008   3.715
17241W        W85659   8.670  40.040   0.914
17242W        W85660   9.362   7.273  12.043
17243W        W85661  41.455  36.010  13.348
17244W        W85662   1.293  24.119   0.898
17245W        W85663  23.190  26.699  10.511
17246W        W85664  23.675  38.844   2.696
17247W        W85665  26.021  24.528  14.812
17248W        W85666   8.764  40.864   0.294
17249W        W85667  27.552  41.998  14.322
17250W        W85668  10.775  38.425   1.324
17251W        W85669  18.570  26.207   3.826
17252W        W85670  43.433  30.642   0.734
17253W        W85671  17.796  10.817   4.651
17254W        W85672  34.874  29.425  14.961
17255W        W85673  24.647  24.709  12.967
17256W        W85674   0.833  42.492   3.731
17257W        W85675  27.575  34.027  11.976
17258W        W85676  25.620  16.785   4.608
17259W        W85677  14.099  30.577   0.961
17260W        W85678  13.800  20.087   4.726
17261W        W85679  37.400  43.924  14.309
17262W        W85680  42.944  25.529   4.134
17263W        W85681  29.491  34.992   3.153
17264W        W85682  21.248  32.609   3.826
17265W        W85683  10.726  42.519  12.979
17266W        W85684   5.308  19.582  12.837
17267W        W85685  20.690   8.351   3.634
17268W        W85686  24.982  31.055   4.155
17269W        W85687  18.736   7.786   4.745
17270W        W85688  18.242  35.591  13.506
17271W        W85689  11.628  37.384  10.990
17272W        W85690  16.682  20.188   1.747
17273W        W85691   8.835  19.073  14.344
17274W        W85692  16.791  18.558  11.124
17275W        W85693   1.340  27.475  11.926
17276W        W85694  26.464  27.513   0.887
17277W        W85695  42.360   1.976   0.468
17278W        W85696  36.575  39.402  13.915
17279W        W85697   6.756  21.587  10.438
17280W        W85698  13.700  31.903  10.923
17281W        W85699   0.803  41.409  10.577
17282W        W85700   6.205  31.991  10.104
17283W        W85701  41.315  22.207  10.474
17284W        W85702  38.545  12.193  10.477
17285W        W85703  17.589  41.293  11.387
17286W        W85704  28.931  23.231   3.713
17287W        W85705  44.379  32.969   3.298
17288W        W85706   3.762  32.073   1.290
17289W        W85707  26.586  39.471  12.390
17290W        W85708   2.788  24.577   2.838
17291W        W85709  31.075  36.419  13.051
17292W        W85710   2.866  21.208  10.551
17293W        W85711  12.727   8.236  12.861
17294W        W85712  34.031  28.557  12.946
17295W        W85713  29.569   0.828   1.814
17296W        W85714  21.097   0.428  11.942
17297W        W85715  10.149  14.297   1.900
17298W        W85716  39.379  44.407  11.973
17299W        W85717  35.435  24.025   4.321
17300W        W85718  36.421   3.441   4.790
17301W        W85719  40.513   7.207  14.294
17302W        W85720  34.537  44.947  10.449
17303W        W85721  12.768  31.050   4.140
17304W        W85722  12.682  26.977   4.649
17305W        W85723  29.649  17.646   2.820
17306W        W85724   7.335  29.526  12.358
17307W        W85725   0.371  22.642   1.215
17308W        W85726  24.552  22.612   3.353
17309W        W85727  35.464  28.049  14.328
17310W        W85728  15.209   9.653  14.980
17311W        W85729  12.210  42.485   4.268
17312W        W85730   2.373  18.069   4.836
17313W        W85731  12.667   4.283   0.842
17314W        W85732  13.335  18.146  13.041
17315W        W85733  14.155  41.815  13.446
17316W        W85734  27.519  44.930  14.446
17317W        W85735  10.704  27.636  13.057
17318W        W85736  27.978  10.856   2.835
17319W        W85737  33.562  11.204  14.512
17320W        W85738   5.276  14.237  14.981
17321W        W85739  23.129   3.290  13.545
17322W        W85740   6.802   3.841   0.466
17323W        W85741  41.812  21.168  11.400
17324W        W85742   7.852  26.039  14.940
17325W        W85743  32.550  16.259  14.382
17326W        W85744  12.846  37.506   0.837
17327W        W85745  16.135   0.971  11.032
17328W        W85746  43.327  13.744  13.307
17329W        W85747  23.215  40.036   4.773
17330W        W85748  32.571  25.125   3.833
17331W        W85749  34.049   6.769   3.852
17332W        W85750  24.025   3.218  13.467
17333W        W85751  27.617  34.899  12.952
17334W        W85752  21.640  16.649   4.315
17335W        W85753  25.014  26.479  10.417
17336W        W85754  36.891  26.179   1.260
17337W        W85755   2.932  21.686  10.923
17338W        W85756  41.959  26.962  12.093
17339W        W85757  43.949  25.183  13.054
17340W        W85758   5.343  23.730   3.209
17341W        W85759   3.737  42.427  11.425
17342W        W85760  42.410  40.811   0.466
17343W        W85761  42.993  34.015  12.006
17344W        W85762  22.591  30.576   0.843
17345W        W85763  29.154  32.973  10.914
17346W        W85764  16.663  22.617  13.458
17347W        W85765  41.837  15.321   0.360
17348W        W85766  41.021  30.019   4.276
17349W        W85767  10.842  14.659  10.444
17350W        W85768  35.972  26.663  12.824
17351W        W85769  34.404  33.455  12.078
17352W        W85770  18.221  28.675  14.894
17353W        W85771  24.021  24.093   2.881
17354W        W85772   5.251  17.299   0.256
17355W        W85773  17.220  42.297  11.520
17356W        W85774  23.155  18.175  10.412
17357W        W85775   5.919   4.933  13.360
17358W        W85776   6.734  14.227   3.866
17359W        W85777  25.993  29.167   0.348
17360W        W85778   9.189  23.502   1.787
17361W        W85779  40.861   2.867  10.997
17362W        W85780   9.744  40.527  12.339
17363W        W85781  24.123  38.466  11.881
17364W        W85782   2.965   4.445   0.946
17365W        W85783  28.466  40.485   3.771
17366W        W85784   3.811  22.137   0.270
17367W        W85785   8.167  41.845  13.422
17368W        W85786  43.403  44.895   3.679
17369W        W85787   3.802  14.779  13.811
17370W        W85788  16.111  37.038   1.905
17371W        W85789  30.552  22.143   2.361
17372W        W85790   3.330  18.629   4.296
17373W        W85791  41.333  38.829  10.956
17374W        W85792  42.320  13.830  12.365
17375W        W85793  24.980  44.294   5.299
17376W        W85794  30.035  39.858  11.982
17377W        W85795   8.860  17.085  13.453
17378W        W85796  11.193  10.877  14.351
17379W        W85797   4.237  15.235  13.951
17380W        W85798  14.209   2.451  14.368
17381W        W85799  32.409   9.370   2.262
17382W        W85800   4.255  34.505   3.333
17383W        W85801  39.891   3.367  13.900
17384W        W85802  44.838  34.379  13.377
17385W        W85803  30.104  36.976  12.423
17386W        W85804  38.352  38.030  14.481
17387W        W85805  11.668   4.322   4.810
17388W        W85806  40.996  28.146  12.904
17389W        W85807   2.779   9.299   4.644
17390W        W85808  43.849  15.799  14.925
17391W        W85809  33.085  42.007   1.900
17392W        W85810  43.953  26.653   2.804
17393W        W85811  16.267  12.850   3.656
17394W        W85812  35.386   6.201   1.289
17395W        W85813  31.946  38.968   1.330
17396W        W85814  44.501  44.924   4.660
17397W        W85815  29.169  40.945   1.776
17398W        W85816  32.521  17.769  13.017
17399W        W85817  43.813  38.924  13.367
17400W        W85818  40.506  22.520  13.379
17401W        W85819  42.822  36.965   1.787
17402W        W85820  38.427  40.499   4.234
17403W        W85821  43.835  32.941   3.248
17404W        W85822  42.360  16.244   0.288
17405W        W85823  20.704  26.953  13.354
17406W        W85824   5.288  44.855   4.206
17407W        W85825  26.134   6.428   0.354
17408W        W85826  18.069   2.789  14.386
17409W        W85827  24.528  34.607  10.433
17410W        W85828  15.250  24.054   0.424
17411W        W85829  43.767  10.659   1.426
17412W        W85830   3.292  44.368   0.907
17413W        W85831   8.285  15.815  13.793
17414W        W85832   8.371   0.418  13.489
17415W        W85833  31.120   9.242  14.457
17416W        W85834  21.051   6.747   0.743
17417W        W85835  24.221   3.768  12.402
17418W        W85836  15.307  35.526  13.029
17419W        W85837  22.606  30.603   3.346
17420W        W85838  26.652  38.019  13.053
17421W        W85839  31.624   8.228   0.363
17422W        W85840  19.277  42.472  12.841
17423W        W85841  34.902  32.530   1.212
17424W        W85842  26.647  35.954  13.408
17425W        W85843  23.075  26.461   0.467
17426W        W85844  15.268  34.487  14.021
17427W        W85845  28.675   6.361  14.943
17428W        W85846  24.998  15.194   1.782
17429W        W85847  11.654  32.525   0.899
17430W        W85848  36.004  33.534  14.367
17431W        W85849  15.666   9.839  10.134
17432W        W85850  34.403  26.669   4.692
17433W        W85851  28.485  12.657  11.977
17434W        W85852  44.896  29.115  13.314
17435W        W85853   6.357   0.392  14.831
17436W        W85854   2.817  34.433  14.871
17437W        W85855  44.344  12.673   1.210
17438W        W85856  18.617  16.129   1.400
17439W        W85857  39.540  11.313  13.975
17440W        W85858  13.296  39.871  11.042
17441W        W85859  24.678   6.718  14.282
17442W        W85860  10.194  29.977   3.749
17443W        W85861  17.185  39.920  13.049
17444W        W85862  18.278  37.076  13.023
17445W        W85863  30.530  28.986  10.910
17446W        W85864  44.412  15.785  10.104
17447W        W85865  16.627   0.819   3.653
17448W        W85866   3.237  38.947  10.458
17449W        W85867  18.573  24.507  12.068
17450W        W85868  33.416  16.723   3.211
17451W        W85869  22.036  40.994   9.523
17452W        W85870  17.119   1.382   3.655
17453W        W85871   8.309  22.176  12.393
17454W        W85872   2.735  23.062  14.328
17455W        W85873  11.243   2.800   3.682
17456W        W85874   6.808  22.653   3.823
17457W        W85875   4.723   3.289  11.951
17458W        W85876  13.241  18.238   4.325
17459W        W85877  39.999  33.897   1.769
17460W        W85878  25.688  38.326  12.039
17461W        W85879  21.055  25.082  13.920
17462W        W85880   8.656  29.133   2.286
17463W        W85881   5.267  29.074   2.777
17464W        W85882  23.213  24.096  14.354
17465W        W85883  36.036  42.820  10.531
17466W        W85884  26.197   8.177   4.303
17467W        W85885   6.400  13.170   2.261
17468W        W85886  32.935   0.297   1.865
17469W        W85887   3.289  37.375   2.372
17470W        W85888  43.300  44.888  10.417
17471W        W85889   7.679  19.667  11.016
17472W        W85890  10.145  20.599   2.890
17473W        W85891   2.772  41.885  14.380
17474W        W85892  19.241   7.789   1.395
17475W        W85893  29.555  29.031   1.210
17476W        W85894  15.690  33.591   1.406
17477W        W85895   0.321   1.395  12.496
17478W        W85896  42.372  38.027  12.988
17479W        W85897  32.001   3.894   4.641
17480W        W85898  16.638  19.162  12.891
17481W        W85899  40.369  14.634  10.923
17482W        W85900   4.746  29.461   4.703
17483W        W85901   3.415  44.281   4.244
17484W        W85902  17.266   1.750  11.518
17485W        W85903   4.256   1.430   0.288
17486W        W85904  33.090  37.361   2.838
17487W        W85905  38.881  17.707   4.355
17488W        W85906  30.053  23.110  14.938
17489W        W85907  34.082  31.132   1.853
17490W        W85908  26.522   6.310   4.636
17491W        W85909  34.931  25.976  11.120
17492W        W85910  36.890  20.143   4.321
17493W        W85911  29.654  15.811   2.853
17494W        W85912  24.664  15.755   3.377
17495W        W85913  39.994  17.301  14.015
17496W        W85914  14.761  13.233   0.928
17497W        W85915  39.343  32.562  13.816
17498W        W85916  35.035  13.828  13.437
17499W        W85917   3.320  34.893   3.794
17500W        W85918  27.172   1.443   2.377
17501W        W85919  25.639  10.685  14.961
17502W        W85920  18.265   4.838  13.988
17503W        W85921  17.653  36.002   3.307
17504W        W85922  20.064   0.787  10.946
17505W        W85923  30.434  22.550  11.434
17506W        W85924  31.988  22.119   3.668
17507W        W85925  43.301   5.688   1.847
17508W        W85926   8.751  29.569   0.327
17509W        W85927   4.268  10.267   2.808
17510W        W85928  20.705   4.281  13.465
17511W        W85929  24.991  22.562  14.450
17512W        W85930  23.652  23.495   2.193
17513W        W85931  23.507  29.664   3.266
17514W        W85932   1.365  32.947   4.740
17515W        W85933  27.014  10.858  14.945
17516W        W85934   8.363  39.346   4.222
17517W        W85935  28.965  44.790   2.779
17518W        W85936  40.443  16.583  12.859
17519W        W85937   2.927  29.670   3.294
17520W        W85938  12.254  30.606  14.313
17521W        W85939  27.469  21.160   2.893
17522W        W85940  42.500  11.212   2.299
17523W        W85941  18.696  30.997  14.006
17524W        W85942  38.906   3.417  10.076
17525W        W85943  31.576  13.741  14.421
17526W        W85944  39.552   1.840   1.727
17527W        W85945  10.690  31.069  13.330
17528W        W85946   8.234  37.854   0.313
17529W        W85947  17.305  12.648  10.109
17530W        W85948  43.453   1.910   3.160
17531W        W85949  10.767  26.519   9.954
17532W        W85950  37.856  23.735  13.933
17533W        W85951  37.920  39.965   2.821
17534W        W85952  30.438  43.823   3.765
17535W        W85953  37.377  25.578   5.084
17536W        W85954  17.083   5.329   5.771
17537W        W85955  28.067   0.253  13.325
17538W        W85956   3.391  38.502   3.321
17539W        W85957  15.822  33.005  13.431
17540W        W85958  16.576  19.247   1.714
17541W        W85959  15.746  38.927  10.583
17542W        W85960  37.918   7.342  12.994
17543W        W85961  28.561   7.408   0.270
17544W        W85962  34.948  39.992  12.509
17545W        W85963  33.512  29.939   2.870
17546W        W85964  38.337  43.005   3.775
17547W        W85965  35.401   2.814   1.873
17548W        W85966  22.234  33.123   2.730
17549W        W85967  30.585  33.116   3.305
17550W        W85968  18.582  18.292   5.096
17551W        W85969   2.964  35.975   0.926
17552W        W85970  23.503  24.035  11.569
17553W        W85971  12.771  13.720  10.613
17554W        W85972  36.567   7.675  13.477
17555W        W85973  41.452  42.850   1.346
17556W        W85974  16.120  22.045   0.944
17557W        W85975  33.115   8.328   1.340
17558W        W85976   0.409  40.041   3.290
17559W        W85977  14.160  12.158   1.240
17560W        W85978  39.319  14.110   2.670
17561W        W85979  26.005  11.691  11.555
17562W        W85980  36.368  41.962  12.950
17563W        W85981  24.035  28.100   1.869
17564W        W85982   8.769  22.522   0.952
17565W        W85983  26.989  13.144  10.642
17566W        W85984  31.992  17.685   3.762
17567W        W85985  13.766  12.181  12.496
17568W        W85986  28.556   9.336  14.339
17569W        W85987  26.129  40.519  11.885
17570W        W85988   1.956  31.525   2.728
17571W        W85989  21.086  32.095   0.841
17572W        W85990  26.171  35.500  13.917
17573W        W85991   6.757  30.487  14.960
17574W        W85992   9.836  40.864  13.794
17575W        W85993   7.878  39.407   2.350
17576W        W85994  11.808  23.125  11.438
17577W        W85995  40.336   5.398   2.325
17578W        W85996  38.480  23.050   0.932
17579W        W85997   2.277  38.475  14.893
17580W        W85998  32.406  32.067   0.923
17581W        W85999  12.166  13.792  10.576
17582W        W86000  27.129  30.059   1.347
17583W        W86001  31.640  14.711  12.424
17584W        W86002  39.416   1.396   3.375
17585W        W86003   4.332  26.113   4.777
17586W        W86004  20.697  33.437   4.201
17587W        W86005  21.049  23.099  13.956
17588W        W86006   3.424   3.930  13.432
17589W        W86007   7.902   8.719   5.156
17590W        W86008  41.842  31.567   3.196
17591W        W86009  43.814  30.117  14.990
17592W        W86010  28.952  38.018  11.061
17593W        W86011  36.886  36.408   3.344
17594W        W86012  13.642  36.584  10.982
17595W        W86013   1.265   3.956  11.934
17596W        W86014  30.128  24.590   4.723
17597W        W86015   9.657  34.097   1.802
17598W        W86016  19.204   0.962   1.367
17599W        W86017  12.239  20.611  14.768
17600W        W86018   2.933  23.723  11.025
17601W        W86019  16.217  32.970  11.952
17602W        W86020  34.497   6.240   1.812
17603W        W86021   0.964  11.845  13.902
17604W        W86022  30.520  28.142  12.919
17605W        W86023  14.152  14.178   2.881
17606W        W86024  28.087  35.452  13.927
17607W        W86025  41.837   2.819   2.716
17608W        W86026  29.436  44.766  12.914
17609W        W86027  32.885   3.812  12.451
17610W        W86028  22.083  30.575  11.041
17611W        W86029   7.672  42.902   4.165
17612W        W86030  38.061  14.814   2.881
17613W        W86031  43.436  27.471   2.200
17614W        W86032  37.882  22.556   0.758
17615W        W86033  21.209  24.154  10.438
17616W        W86034  19.731  22.512   0.774
17617W        W86035  37.915  19.062  13.826
17618W        W86036  34.509  18.138  12.390
17619W        W86037  39.033  36.028  12.543
17620W        W86038   7.736   6.200   2.264
17621W        W86039   6.405   0.907   4.176
17622W        W86040  12.737  40.311  12.368
17623W        W86041  24.191  24.675  13.450
17624W        W86042  37.429  39.342   4.227
17625W        W86043  17.235  39.477   0.759
17626W        W86044  44.453  20.151   3.193
17627W        W86045  43.511   7.357   5.191
17628W        W86046   3.936   6.872   2.762
17629W        W86047  29.987  12.323   3.734
17630W        W86048  32.135  23.153   1.450
17631W        W86049  39.359  30.535   0.266
17632W        W86050   4.391  41.813   4.278
17633W        W86051  18.052   1.470  12.984
17634W        W86052  27.070  36.368   3.654
17635W        W86053  41.982  20.175   0.797
17636W        W86054  30.159  29.479   1.753
17637W        W86055  26.589  22.517  12.947
17638W        W86056  18.783  31.073  11.106
17639W        W86057  29.977  22.527  11.910
17640W        W86058  33.918  12.682   2.291
17641W        W86059  23.013  39.315   0.768
17642W        W86060  37.360   0.838  12.929
17643W        W86061  42.348   2.830  11.073
17644W        W86062   4.254  15.224   0.422
17645W        W86063  10.713   7.816  14.425
17646W        W86064  13.228  40.513   4.244
17647W        W86065  40.035  10.216  12.919
17648W        W86066  30.500  33.429  10.896
17649W        W86067  42.791   0.250   3.163
17650W        W86068  33.626  23.986  11.394
17651W        W86069  23.016   2.451   2.827
17652W        W86070  30.522  41.883  11.097
17653W        W86071  23.497  20.616  10.906
17654W        W86072  37.897  14.802  10.410
17655W        W86073  17.077   6.848  10.572
17656W        W86074  34.414  32.463   1.210
17657W        W86075   9.675  16.663   4.167
17658W        W86076  32.549  17.697  14.289
17659W        W86077  36.060  17.596   3.282
17660W        W86078  27.027  15.623  11.992
17661W        W86079  23.101  14.670  11.019
17662W        W86080  16.673  30.995   2.395
17663W        W86081   1.820  32.580  10.448
17664W        W86082  11.354  25.217  13.945
17665W        W86083   1.798  41.978  14.425
17666W        W86084   2.357  14.761   2.870
17667W        W86085  10.150  16.805  11.508
17668W        W86086   5.369  15.132   4.800
17669W        W86087   3.354  27.507   2.735
17670W        W86088   6.728  10.188   3.709
17671W        W86089  12.334  38.011  10.972
17672W        W86090  34.012   8.280   1.817
17673W        W86091  14.750   8.368   2.226
17674W        W86092  28.557   0.308  10.990
17675W        W86093   2.865  24.511  14.423
17676W        W86094  21.140  17.649   2.693
17677W        W86095  24.699  44.431  10.608
17678W        W86096  27.170  11.661   1.415
17679W        W86097  29.536   1.858   4.233
17680W        W86098  28.501   6.898   1.738
17681W        W86099  39.816  15.607  11.526
17682W        W86100  42.889  27.101   2.877
17683W        W86101  28.083  29.518   0.847
17684W        W86102  19.695  15.749  12.376
17685W        W86103  15.619  31.001   4.638
17686W        W86104  34.542  15.245  13.871
17687W        W86105  11.742  22.686   4.662
17688W        W86106  19.779   9.219  10.442
17689W        W86107  14.295   4.222   1.210
17690W        W86108   6.719  24.209   2.188
17691W        W86109  14.727  20.735  14.502
17692W        W86110  12.342  31.613   0.422
17693W        W86111  35.549  27.675   0.443
17694W        W86112   9.809  40.914   0.389
17695W        W86113  35.869  36.587   4.169
17696W        W86114   6.861  29.648  10.907
17697W        W86115   4.261  25.686   3.296
17698W        W86116  32.910  39.999   3.693
17699W        W86117  41.861  42.391   1.779
17700W        W86118  23.169  43.454   2.245
17701W        W86119  35.986  34.571   3.692
17702W        W86120   3.909   2.413  12.354
17703W        W86121  36.353   1.945  11.910
17704W        W86122  27.961  21.107  12.360
17705W        W86123  14.601  28.141   0.747
17706W        W86124  41.465  13.243   4.315
17707W        W86125  42.285  18.091  10.456
17708W        W86126   7.799  30.512  11.965
17709W        W86127  20.237  14.338  10.605
17710W        W86128  23.222  21.132   4.775
17711W        W86129   3.762  10.196  14.343
17712W        W86130  21.585   8.196  12.450
17713W        W86131  21.522  14.134   5.105
17714W        W86132   7.279  36.002   4.238
17715W        W86133   5.352  17.194  11.947
17716W        W86134  42.799  30.412   0.770
17717W        W86135  18.050   5.860  14.810
17718W        W86136  16.769  10.214  14.924
17719W        W86137   0.460  11.217  12.542
17720W        W86138  44.461  11.824   3.157
17721W        W86139  18.597  17.660  13.940
17722W        W86140  15.623  32.985   4.723
17723W        W86141  18.632  30.111   2.742
17724W        W86142  36.362  23.063  11.432
17725W        W86143  44.412  20.100   5.258
17726W        W86144  19.703  32.912   0.787
17727W        W86145  42.861  31.119  10.906
17728W        W86146  42.801  12.678   0.838
17729W        W86147   9.882  20.757   1.410
17730W        W86148  13.827   6.786  12.468
17731W        W86149  39.403  26.460   0.421
17732W        W86150  30.614   7.788  12.028
17733W        W86151   3.862  39.442   3.183
17734W        W86152  33.119   0.961  12.548
17735W        W86153   0.302  23.025   2.394
17736W        W86154  29.627  13.260   1.437
17737W        W86155  16.784  35.505   3.314
17738W        W86156  42.023  41.307   4.262
17739W        W86157  32.895  10.686   2.681
17740W        W86158  12.281   1.243   1.740
17741W        W86159   5.264  33.891  14.934
17742W        W86160  18.705  38.408  14.853
17743W        W86161  16.714  21.078   1.315
17744W        W86162  42.842  37.480  11.500
17745W        W86163  16.283  43.880   0.950
17746W        W86164  21.582  36.095  11.929
17747W        W86165  25.182  11.313  13.353
17748W        W86166  28.493  17.698  12.537
17749W        W86167  31.008   8.292  14.856
17750W        W86168  18.224   0.474   3.212
17751W        W86169  24.585  42.349  11.406
17752W        W86170  25.158  11.261   1.221
17753W        W86171  33.062  34.529  14.336
17754W        W86172  31.902  18.683   4.350
17755W        W86173  44.894   9.307  14.314
17756W        W86174   7.254   0.427  13.952
17757W        W86175  41.940  30.513   1.868
17758W        W86176  43.798  12.806   2.294
17759W        W86177  41.930  24.571   0.264
17760W        W86178  15.656  28.032   3.360
17761W        W86179  28.440  28.081   1.711
17762W        W86180  31.928  22.640  13.509
17763W        W86181   2.435  15.755  11.102
17764W        W86182   9.745  28.043   0.773
17765W        W86183   5.207   0.763   9.993
17766W        W86184  14.147  22.642   4.121
17767W        W86185  22.252  36.413   0.320
17768W        W86186  38.829  24.666   3.264
17769W        W86187  17.171  20.611  12.417
17770W        W86188  38.352  19.717   2.825
17771W        W86189  32.909   9.828   2.282
17772W        W86190  11.848   4.831   1.865
17773W        W86191  17.082  41.369   4.194
17774W        W86192  15.277  34.534   0.809
17775W        W86193  12.616  17.196  14.801
17776W        W86194  23.576  25.971  14.934
17777W        W86195  22.164   4.826  12.552
17778W        W86196   2.720  15.287  11.083
17779W        W86197  26.637   8.240   3.831
17780W        W86198  38.569  35.886   3.695
17781W        W86199  12.344  35.441  10.572
17782W        W86200   9.681  41.529   1.739
17783W        W86201  39.887  22.191  12.021
17784W        W86202  25.170  35.446   4.135
17785W        W86203  23.501   0.948   0.431
17786W        W86204  19.157   2.774  11.573
17787W        W86205  15.103  26.075   0.281
17788W        W86206   6.812   7.218  10.905
17789W        W86207  39.973  10.766  13.420
17790W        W86208  18.164  41.452  11.543
17791W        W86209  41.368  19.738   2.849
17792W        W86210  15.093  20.531  11.062
17793W        W86211  20.631  31.998  10.599
17794W        W86212  19.643  10.856   4.193
17795W        W86213  44.305  13.243   0.781
17796W        W86214   6.827  35.853   2.273
17797W        W86215  20.127  40.308   1.233
17798W        W86216   5.410  18.748   0.729
17799W        W86217  25.564  16.219  13.355
17800W        W86218  33.912  37.976   3.170
17801W        W86219  30.506   8.168   4.649
17802W        W86220  14.721   0.903  11.541
17803W        W86221  21.163  16.801   0.952
17804W        W86222  39.921  29.081   4.826
17805W        W86223   9.343  20.587   2.186
17806W        W86224  15.186  12.664  12.512
17807W        W86225  43.767  26.987   3.218
17808W        W86226   6.254  36.878   2.353
17809W        W86227  40.996  19.252  13.028
17810W        W86228   9.352  11.778   0.919
17811W        W86229   5.236   5.232  12.443
17812W        W86230  42.495   6.895  12.430
17813W        W86231  21.144   1.385   1.785
17814W        W86232   7.388  27.120  11.602
17815W        W86233  14.636  37.071  13.866
17816W        W86234  28.167  36.548   0.384
17817W        W86235  25.574  35.874  10.457
17818W        W86236   8.386   8.235   0.344
17819W        W86237  35.074   4.848  13.322
17820W        W86238  35.420  34.056  13.478
17821W        W86239  38.880  35.067  11.521
17822W        W86240   0.988  30.943   4.272
17823W        W86241   1.875   3.949  13.495
17824W        W86242  41.909  10.243  11.473
17825W        W86243  13.171   4.868  10.161
17826W        W86244  17.266  38.882   1.399
17827W        W86245  34.449  43.987  14.958
17828W        W86246  27.154  22.661   0.733
17829W        W86247  33.012  43.806   1.298
17830W        W86248  25.648  41.488   0.898
17831W        W86249  22.037  32.004   3.792
17832W        W86250  12.277  15.704  13.330
17833W        W86251  14.119  38.821   2.288
17834W        W86252  36.974  39.971   4.833
17835W        W86253  20.040  12.245  11.985
17836W        W86254   1.852  23.606  14.502
17837W        W86255  28.078  20.674  13.417
17838W        W86256  40.345  39.512  12.383
17839W        W86257  33.988  12.272   4.831
17840W        W86258  21.020  23.514  14.505
17841W        W86259  38.569  26.676  14.932
17842W        W86260  19.041  11.349   3.679
17843W        W86261  25.475  33.073  12.987
17844W        W86262  33.997  42.516   0.478
17845W        W86263  11.139  10.637   0.287
17846W        W86264   7.802  32.921  13.545
17847W        W86265  15.184   2.755   3.378
17848W        W86266  44.890  21.724   4.646
17849W        W86267   2.883  16.097  13.802
17850W        W86268  32.437  36.351   1.819
17851W        W86269  24.661  19.221  14.365
17852W        W86270   3.798  15.771  11.956
17853W        W86271  38.967  27.632  13.013
17854W        W86272  22.608  11.695  14.858
17855W        W86273  36.924  24.151   3.200
17856W        W86274  41.434  18.155   4.145
17857W        W86275  27.083   9.188   0.335
17858W        W86276  37.432  44.980   3.290
17859W        W86277  25.179  32.000   2.725
17860W        W86278  30.533  13.245   3.209
17861W        W86279  16.665  30.465   2.860
17862W        W86280   2.725  22.725  11.898
17863W        W86281  13.263  33.619  13.050
17864W        W86282  37.897   3.713   3.225
17865W        W86283  39.809  23.998  13.517
17866W        W86284  22.743  32.602   2.215
17867W        W86285  13.135  29.091   0.411
17868W        W86286  25.155   3.845   1.699
17869W        W86287  37.493  12.152  12.830
17870W        W86288   1.415   3.731  14.857
17871W        W86289  43.376  15.793   3.342
17872W        W86290   3.317   3.819  11.925
17873W        W86291  32.976  10.666  14.378
17874W        W86292  44.975  19.536  11.939
17875W        W86293  10.659  27.497  11.451
17876W        W86294  41.019   9.215  12.933
17877W        W86295  39.415  41.022   0.753
17878W        W86296   8.762   9.708   2.179
17879W        W86297  17.672  18.248   3.258
17880W        W86298  37.433  32.092  12.033
17881W        W86299   3.368  42.795   9.964
17882W        W86300  10.668  30.584   3.332
17883W        W86301  14.809  11.291  13.897
17884W        W86302  41.814  27.143   2.409
17885W        W86303  29.562  25.050   4.728
17886W        W86304   1.468  29.012  12.415
17887W        W86305  10.313  10.311  13.818
17888W        W86306  12.767  23.708   1.433
17889W        W86307   8.228  23.084  11.010
17890W        W86308  10.800  21.543  13.933
17891W        W86309  31.535  29.425  13.836
17892W        W86310  20.182  43.466  11.924
17893W        W86311  13.204  28.503   2.796
17894W        W86312  44.822  11.657  10.950
17895W        W86313  18.248  22.161   4.211
17896W        W86314  23.101   8.309  12.339
17897W        W86315   2.448   6.823  12.496
17898W        W86316  20.723  24.559  10.531
17899W        W86317   5.708  25.124   1.806
17900W        W86318  44.292  30.071   1.388
17901W        W86319  17.576  29.431  11.478
17902W        W86320   2.445  29.426   0.879
17903W        W86321  15.735  13.732  10.614
17904W        W86322  26.126  11.245  14.872
17905W        W86323  21.549  19.243  12.517
17906W        W86324  23.225   0.323   1.871
17907W        W86325  12.116  14.747  11.904
17908W        W86326  26.132  29.059  13.410
17909W        W86327  32.092  43.908  13.971
17910W        W86328  23.018  40.962   5.203
17911W        W86329  18.271  31.130   0.352
17912W        W86330  29.950  41.327   4.822
17913W        W86331  38.028  37.947  10.589
17914W        W86332   1.800   2.802  13.866
17915W        W86333   6.732  19.565  12.062
17916W        W86334   9.353  41.359   2.893
17917W        W86335  15.719  22.627  11.402
17918W        W86336  15.676  37.455  11.865
17919W        W86337  31.148  16.610  11.561
17920W        W86338  43.994  20.173   0.260
17921W        W86339  18.657  15.589  13.383
17922W        W86340   7.773  26.020   3.823
17923W        W86341  25.214  41.873   1.924
17924W        W86342  42.804  43.351   3.190
17925W        W86343  11.363  37.858   3.301
17926W        W86344   2.797  27.572  10.547
17927W        W86345  35.996  16.205   2.819
17928W        W86346  32.403  39.528  14.942
17929W        W86347  24.658  23.169   4.234
17930W        W86348  23.613   9.801   1.221
17931W        W86349  38.511  42.022  13.419
17932W        W86350   6.323  34.907   3.772
17933W        W86351  16.104  13.633   1.315
17934W        W86352   0.345   6.909  13.052
17935W        W86353  26.580  43.410  14.332
17936W        W86354  40.977  18.147   1.345
17937W        W86355  24.990   0.379   0.934
17938W        W86356  24.703  24.078  12.424
17939W        W86357   2.837   9.793   4.248
17940W        W86358   6.867   0.838   2.413
17941W        W86359  17.152  13.806   0.430
17942W        W86360  41.014  43.424  11.406
17943W        W86361   0.339   5.255   1.413
17944W        W86362  12.288  25.492   4.614
17945W        W86363  35.064  24.981   3.635
17946W        W86364   4.374  26.992  13.421
17947W        W86365   3.881  22.034   4.231
17948W        W86366  39.355   1.249   2.361
17949W        W86367  37.864  31.022   1.368
17950W        W86368  29.016  35.922  12.577
17951W        W86369  33.392  11.810   1.276
17952W        W86370  15.254  27.031  14.855
17953W        W86371  41.797  30.076  14.998
17954W        W86372  17.589  41.839   1.311
17955W        W86373  18.070  11.841  14.024
17956W        W86374   5.417  17.743   3.382
17957W        W86375  27.094  32.939  10.521
17958W        W86376  21.223  22.579  11.397
17959W        W86377  26.474   9.260  12.862
17960W        W86378  41.433  25.968   1.276
17961W        W86379  28.077  38.547   1.448
17962W        W86380   3.901   4.432  11.565
17963W        W86381  43.387   2.851  11.989
17964W        W86382   1.262  21.515   3.156
17965W        W86383  32.962  41.024   0.405
17966W        W86384  17.236  42.523   3.816
17967W        W86385   5.391  31.899   0.758
17968W        W86386  10.373  40.441  12.346
17969W        W86387  36.378  35.477  11.607
17970W        W86388  26.514  17.213   2.192
17971W        W86389   4.206  37.884  11.057
17972W        W86390  22.089  31.462  11.471
17973W        W86391  18.704  38.842  10.609
17974W        W86392  36.984  41.905   3.703
17975W        W86393  22.705   0.293  10.584
17976W        W86394  32.603  34.048   3.642
17977W        W86395  10.346   2.950  12.061
17978W        W86396  27.940  41.475  13.397
17979W        W86397   0.481  35.972  11.520
17980W        W86398  11.239  14.174   1.257
17981W        W86399   5.922  43.419  11.071
17982W        W86400  37.830   9.177  11.924
17983W        W86401   0.352  19.202  14.369
17984W        W86402  30.619  29.169  11.861
17985W        W86403  10.734   8.841  14.299
17986W        W86404  27.010  14.204  11.499
17987W        W86405  36.064  39.960  14.776
17988W        W86406  35.489   9.651  12.014
17989W        W86407   0.454  19.157   0.351
17990W        W86408   0.805  23.597  12.836
17991W        W86409  16.148  12.292  11.446
17992W        W86410  12.229  23.496   2.327
17993W        W86411  36.397  33.904  11.434
17994W        W86412  29.503  18.260   0.948
17995W        W86413  16.736  43.292  11.490
17996W        W86414  17.591  33.565  11.034
17997W        W86415   9.359  39.356  12.968
17998W        W86416  31.432  37.394  10.589
17999W        W86417  32.478  37.835   0.738
18000W        W86418  34.430  25.522   1.764
18001W        W86419  12.308  16.175   0.830
18002W        W86420  36.078  16.763   1.896
18003W        W86421  30.453  32.416   3.840
18004W        W86422  31.149   9.850   0.740
18005W        W86423  31.060  15.173   4.800
18006W        W86424  40.419  39.924   0.965
18007W        W86425   9.191  19.186   4.597
18008W        W86426  31.984  19.260  12.826
18009W        W86427  11.227  10.253  10.520
18010W        W86428  28.675  36.358   0.375
18011W        W86429  26.612  27.073  10.492
18012W        W86430  33.445  33.933   4.272
18013W        W86431  32.993  30.105   1.878
18014W        W86432   2.336  23.659  11.416
18015W        W86433  21.071  43.396   1.403
18016W        W86434  13.133   5.345  12.995
18017W        W86435  35.906  21.557   1.854
18018W        W86436   5.420  18.231  12.503
18019W        W86437  19.559   1.278  13.307
18020W        W86438  42.341  36.488   2.665
18021W        W86439   0.330  12.747  10.443
18022W        W86440   3.731   5.392   4.337
18023W        W86441  16.679   3.833   0.308
18024W        W86442   8.698  20.757   3.700
18025W        W86443   8.880  30.088  12.458
18026W        W86444  15.099   4.435   1.251
18027W        W86445  37.999  20.608  13.489
18028W        W86446  25.026  30.607   4.720
18029W        W86447  27.178  10.658  12.502
18030W        W86448  41.432  33.027  14.992
18031W        W86449  41.021   9.293   1.911
18032W        W86450  25.093  19.556   0.829
18033W        W86451  12.318  30.027   1.909
18034W        W86452  22.630  22.128   4.606
18035W        W86453  34.912   0.398   4.706
18036W        W86454  43.448  37.872   0.813
18037W        W86455  26.570  19.096  13.359
18038W        W86456  39.855   0.406  14.936
18039W        W86457  12.173   2.314   2.243
18040W        W86458   4.818   9.313   1.210
18041W        W86459  40.373   2.796  11.445
18042W        W86460  44.772  15.671  14.826
18043W        W86461  29.438  13.123   4.194
18044W        W86462   3.290  26.968   3.252
18045W        W86463  43.416  36.011   3.638
18046W        W86464  20.658   5.914  13.821
18047W        W86465  38.525   5.411  12.476
18048W        W86466  35.900  24.147  14.789
18049W        W86467  43.274  40.367  13.355
18050W        W86468   7.712   6.839  12.056
18051W        W86469  39.435   3.919  12.955
18052W        W86470   6.255  24.594  12.510
18053W        W86471  43.384  23.040   4.136
18054W        W86472   7.205  11.158   1.264
18055W        W86473  39.010   6.379   4.768
18056W        W86474  40.982  15.736   2.201
18057W        W86475  24.982   6.194   2.679
18058W        W86476   5.864   9.360   2.900
18059W        W86477  16.669  44.985   3.723
18060W        W86478  42.407   7.744   4.177
18061W        W86479   1.828  21.022  12.004
18062W        W86480  34.587   8.388  14.507
18063W        W86481   5.404  27.946  14.975
18064W        W86482  33.465  37.575  13.823
18065W        W86483  33.897   1.929  14.921
18066W        W86484  44.878  40.904  12.498
18067W        W86485  24.703  34.411  10.919
18068W        W86486   7.880  27.519  13.316
18069W        W86487  25.662   1.858   0.912
18070W        W86488  20.576   3.843   3.674
18071W        W86489  37.492  28.061   4.284
18072W        W86490   8.217  33.129   4.149
18073W        W86491   8.731  38.912  12.975
18074W        W86492  12.798  26.577   0.242
18075W        W86493  36.526  36.098  14.016
18076W        W86494  17.239  35.905   2.771
18077W        W86495  30.499  26.101   4.274
18078W        W86496  13.696  11.217   2.732
18079W        W86497  33.420  43.376   1.262
18080W        W86498  23.508  37.354   0.761
18081W        W86499  13.109  34.075   3.822
18082W        W86500  33.034  23.192  10.488
18083W        W86501  26.586   1.819  12.551
18084W        W86502  11.193  25.995   4.263
18085W        W86503  29.064  11.158  13.510
18086W        W86504  41.339  15.670   5.231
18087W        W86505  15.224  43.997   2.288
18088W        W86506  29.619  22.727   2.876
18089W        W86507  43.003  10.326   5.098
18090W        W86508  17.268  30.008  14.493
18091W        W86509  39.355   1.766   4.665
18092W        W86510  10.315  18.062   3.737
18093W        W86511   3.871  14.798   3.692
18094W        W86512  16.750  33.450  14.872
18095W        W86513  38.351   1.240   1.901
18096W        W86514  11.167  29.931  14.928
18097W        W86515  23.557   3.855   1.349
18098W        W86516   7.721  29.108  14.909
18099W        W86517  41.838   9.841   4.171
18100W        W86518  31.044  36.482  14.810
18101W        W86519  38.951  36.954   3.729
18102W        W86520  22.545  29.645   0.243
18103W        W86521   0.424  36.963  10.597
18104W        W86522  13.644  27.985  14.017
18105W        W86523  28.594  15.140  13.391
18106W        W86524  22.225  10.343  11.592
18107W        W86525   2.265  38.352   2.843
18108W        W86526  40.499  34.561  11.112
18109W        W86527  10.803  30.609   4.612
18110W        W86528  10.642   3.786  10.440
18111W        W86529  19.126  32.984   2.324
18112W        W86530  20.218  24.593   3.203
18113W        W86531  43.803  11.717   1.240
18114W        W86532   5.196  14.231   3.648
18115W        W86533  25.138  15.737  11.977
18116W        W86534  42.413  29.120  12.971
18117W        W86535   1.783  28.091  14.462
18118W        W86536   7.400   5.256  10.603
18119W        W86537   1.962  28.621  10.407
18120W        W86538  18.107  26.622  13.528
18121W        W86539  22.161  30.036  11.889
18122W        W86540   8.692  28.548   0.942
18123W        W86541  18.635  28.132   9.999
18124W        W86542   6.383  11.671  12.885
18125W        W86543  23.125   6.825  12.566
18126W        W86544  18.097  35.911   3.342
18127W        W86545  44.006  34.606  14.946
18128W        W86546   1.299   4.341  10.904
18129W        W86547  25.492  14.263   5.312
18130W        W86548  39.354  21.060  12.490
18131W        W86549   0.334  35.592  11.950
18132W        W86550   7.234  41.432   3.325
18133W        W86551  13.609  35.448   2.669
18134W        W86552  39.057  25.612  13.430
18135W        W86553  23.048  42.323  10.427
18136W        W86554  30.588  41.958   0.341
18137W        W86555  18.738  32.092  10.158
18138W        W86556  22.041  29.077  14.775
18139W        W86557  22.071  18.744   4.818
18140W        W86558  23.038  35.506   2.220
18141W        W86559  35.359  25.170   2.852
18142W        W86560  11.866  17.639   1.819
18143W        W86561  17.648  23.232  13.528
18144W        W86562  41.879  31.420  13.510
18145W        W86563   6.805  18.118  12.831
18146W        W86564   3.834  39.912  14.911
18147W        W86565  30.641  23.108   0.317
18148W        W86566  33.022  30.070  13.800
18149W        W86567  13.644  37.387  12.036
18150W        W86568  15.590  23.688  14.828
18151W        W86569  35.882  40.889   3.855
18152W        W86570  25.622  29.597   2.323
18153W        W86571  11.359   6.356  12.902
18154W        W86572  22.542   0.816   2.695
18155W        W86573  19.143  15.265   0.749
18156W        W86574   2.845  17.211   4.826
18157W        W86575   6.876  37.462  11.863
18158W        W86576  13.806  17.177   0.409
18159W        W86577   3.237   8.401   4.237
18160W        W86578  41.042  37.019  10.643
18161W        W86579  10.363  33.108   2.195
18162W        W86580  12.250   8.736   4.643
18163W        W86581  13.603  23.034   3.268
18164W        W86582  31.112  22.687   2.316
18165W        W86583  29.531   3.818  12.511
18166W        W86584   2.448   3.781   4.195
18167W        W86585  27.180  36.586   0.847
18168W        W86586  36.377  29.165   2.861
18169W        W86587  32.140  38.393   4.355
18170W        W86588   7.709  43.874  13.020
18171W        W86589  44.338  28.094   1.307
18172W        W86590  28.108  41.420   0.243
18173W        W86591   2.401   8.840   4.607
18174W        W86592  21.634  24.653  11.448
18175W        W86593  40.435  38.058  10.416
18176W        W86594  18.162  20.586   4.342
18177W        W86595   6.687  11.284   2.746
18178W        W86596  16.566  31.543   1.386
18179W        W86597  43.276  44.882  14.909
18180W        W86598  30.609  19.736   4.754
18181W        W86599  24.560  20.767   0.812
18182W        W86600  35.433   1.970   0.355
18183W        W86601  42.982  10.302  11.393
18184W        W86602  10.643   9.844   0.369
18185W        W86603   6.773  20.684   3.377
18186W        W86604  16.186  37.456   4.710
18187W        W86605  17.670   9.718  12.979
18188W        W86606   0.389  43.935   1.903
18189W        W86607  24.596  18.275  13.055
18190W        W86608  18.156  33.032  14.926
18191W        W86609  37.983  14.817   3.226
18192W        W86610  44.318  35.909   1.795
18193W        W86611  26.103   8.329   3.333
18194W        W86612  25.061  27.990  12.091
18195W        W86613  40.825  24.680   4.279
18196W        W86614   5.724  26.053  14.289
18197W        W86615  17.174  22.246  12.839
18198W        W86616  34.412  39.903   1.218
18199W        W86617   5.377  12.803  11.426
18200W        W86618  10.211  20.099  11.384
18201W        W86619  39.382  32.443   1.876
18202W        W86620  40.844  15.325   0.454
18203W        W86621  11.830  24.114   0.758
18204W        W86622  29.947   3.372   4.803
18205W        W86623  40.822  39.517   0.326
18206W        W86624  27.678  14.095  12.489
18207W        W86625  23.691  31.488   0.256
18208W        W86626  35.877  28.551   2.241
18209W        W86627  13.809  19.536   2.820
18210W        W86628   3.222  33.460   3.331
18211W        W86629   0.976  20.099   5.232
18212W        W86630  11.358  30.428   0.907
18213W        W86631  22.137  35.508   0.917
18214W        W86632  37.437   8.191   3.826
18215W        W86633   7.820  31.489  14.859
18216W        W86634  37.000  12.689  11.984
18217W        W86635  34.572   1.872   4.137
18218W        W86636  18.644  42.883   2.683
18219W        W86637  35.597   3.356   0.248
18220W        W86638   2.744  43.922   2.297
18221W        W86639   8.888  42.524   0.887
18222W        W86640  36.874  40.444   2.886
18223W        W86641  23.629   2.287  11.530
18224W        W86642  23.196  29.492   4.634
18225W        W86643  32.097  22.096   2.335
18226W        W86644   7.307  44.960   4.186
18227W        W86645   3.393   6.739  12.860
18228W        W86646  37.483  18.638  14.407
18229W        W86647  27.619  18.235   1.340
18230W        W86648   3.310   9.181  10.608
18231W        W86649  35.437   1.880  14.838
18232W        W86650  21.611  32.414  14.353
18233W        W86651  28.512  31.044   4.252
18234W        W86652  20.695  43.509   0.465
18235W        W86653  36.504  16.088  12.917
18236W        W86654  18.681  18.165  12.539
18237W        W86655  14.796   9.229   0.469
18238W        W86656  28.559   6.316   0.451
18239W        W86657  22.724   9.763  11.517
18240W        W86658  24.499  43.408   2.882
18241W        W86659   6.826   9.274  13.986
18242W        W86660   0.841  30.607  12.841
18243W        W86661   8.739   7.685  11.866
18244W        W86662  30.025  17.297   1.408
18245W        W86663   0.784  40.929   2.275
18246W        W86664  33.421   2.723  10.960
18247W        W86665   1.901  14.700  12.865
18248W        W86666  31.080  37.571   0.297
18249W        W86667  32.886  22.095   4.246
18250W        W86668  14.823  15.605   1.917
18251W        W86669  17.292  13.700  11.384
18252W        W86670   0.889  25.169   2.746
18253W        W86671  16.621  17.254   4.131
18254W        W86672  18.189   3.431  13.050
18255W        W86673   8.682  19.583  13.499
18256W        W86674   3.930  14.247   1.853
18257W        W86675  16.105  36.513  13.944
18258W        W86676   8.684   3.803  12.439
18259W        W86677  19.125  20.233  14.827
18260W        W86678  25.108  36.446   3.235
18261W        W86679   6.240  37.568  14.276
18262W        W86680  32.995  29.507   2.719
18263W        W86681  13.845  41.483  12.829
18264W        W86682   7.391  17.189   4.205
18265W        W86683   8.730  10.354   1.433
18266W        W86684   4.303  14.197   1.311
18267W        W86685  35.870   0.920   0.462
18268W        W86686  42.834  18.631   1.739
18269W        W86687   6.210  17.145  11.374
18270W        W86688   6.262  19.541  11.493
18271W        W86689  32.443  23.147   1.245
18272W        W86690  33.125  38.928   2.900
18273W        W86691   4.805  22.192  10.458
18274W        W86692  30.127  29.622  12.850
18275W        W86693   7.290  33.978   0.750
18276W        W86694  14.207   7.371  11.935
18277W        W86695  39.033  42.833  13.010
18278W        W86696   7.786  37.049  11.511
18279W        W86697   5.813  13.843  13.956
18280W        W86698  11.174   9.271  13.858
18281W        W86699  14.612  39.928   2.406
18282W        W86700  30.587  41.397  14.869
18283W        W86701  29.123  43.341   4.178
18284W        W86702  13.749   1.327   0.766
18285W        W86703   2.442   2.888  13.468
18286W        W86704  41.528   5.266  11.922
18287W        W86705  36.489   5.307  10.914
18288W        W86706  30.938  24.682  13.921
18289W        W86707  43.488  13.704  10.573
18290W        W86708  37.514  16.710  14.902
18291W        W86709   1.878  38.961   1.259
18292W        W86710  30.440   7.729  12.509
18293W        W86711   6.234  15.134   0.890
18294W        W86712  20.584  30.628   1.751
18295W        W86713   6.375  36.862  12.423
18296W        W86714  44.396   5.798  13.436
18297W        W86715  33.466   3.297   3.747
18298W        W86716  42.953  21.141   2.326
18299W        W86717  40.474  24.175   4.285
18300W        W86718  17.207  27.077  12.437
18301W        W86719   6.735  36.869   1.920
18302W        W86720  41.946  10.738   1.871
18303W        W86721  32.586  35.034   0.844
18304W        W86722  27.024   2.842  14.885
18305W        W86723  35.509  39.391   0.912
18306W        W86724  26.518  24.523  14.809
18307W        W86725  24.666  10.646  12.871
18308W        W86726  34.875   2.914  14.497
18309W        W86727  28.440  26.168   2.849
18310W        W86728  43.317  27.591   2.714
18311W        W86729  14.737  42.342  14.319
18312W        W86730  29.482   7.791  12.057
18313W        W86731  10.270  32.888   2.668
18314W        W86732  37.491   8.692  12.397
18315W        W86733  29.082  33.443  14.286
18316W        W86734  40.990  39.358  13.810
18317W        W86735  11.146  35.972  10.537
18318W        W86736  26.650   6.799   1.349
18319W        W86737   6.419  25.691   1.811
18320W        W86738  12.168  18.719   0.257
18321W        W86739  24.222  25.691  11.036
18322W        W86740  25.052  28.671   4.243
18323W        W86741  23.604  18.227   0.455
18324W        W86742  11.704  44.414  11.098
18325W        W86743  34.983  28.995   0.877
18326W        W86744  20.068  15.187  12.513
18327W        W86745  21.743  29.429   2.190
18328W        W86746  26.475   7.235   1.719
18329W        W86747  10.817  33.012   1.927
18330W        W86748   7.742  16.174   0.732
18331W        W86749   2.456  25.183   5.135
18332W        W86750  32.050  21.019   4.352
18333W        W86751   0.820  33.421   3.816
18334W        W86752   9.339  13.686  12.894
18335W        W86753  38.019  16.612   4.675
18336W        W86754   6.328  37.363   3.732
18337W        W86755  23.202  17.738  13.052
18338W        W86756  18.566  24.999  13.005
18339W        W86757  32.580  17.755   2.197
18340W        W86758   2.759  26.980   1.878
18341W        W86759   9.827   2.824  13.922
18342W        W86760  11.822  35.010  11.531
18343W        W86761  29.608  10.764  13.490
18344W        W86762  27.119  25.506  14.857
18345W        W86763  18.583  38.545   2.703
18346W        W86764  30.041  16.803   1.385
18347W        W86765  26.985  24.094  14.296
18348W        W86766  33.903  15.292  11.494
18349W        W86767  22.104  39.541  10.957
18350W        W86768  15.171  39.504  14.497
18351W        W86769  13.329  35.969  12.902
18352W        W86770   6.307  31.571  13.346
18353W        W86771   1.766   8.186   0.792
18354W        W86772  10.261  42.785  11.913
18355W        W86773  38.424   9.750  12.858
18356W        W86774   8.317  41.413   3.289
18357W        W86775  34.492  39.414  10.011
18358W        W86776  24.586  44.427  13.953
18359W        W86777  11.317  32.634   4.753
18360W        W86778  36.516  23.234  14.957
18361W        W86779  25.200   8.881  13.055
18362W        W86780  31.926  35.389  13.519
18363W        W86781  16.096  11.332   0.785
18364W        W86782   0.449  13.256  10.447
18365W        W86783  37.561  27.586   9.927
18366W        W86784  14.663  35.043   3.289
18367W        W86785   9.335   5.823  12.393
18368W        W86786  15.223  37.578   2.864
18369W        W86787  28.097  13.729   2.179
18370W        W86788  23.560  40.920   9.462
18371W        W86789  35.425  28.508  10.582
18372W        W86790   4.389  25.609   2.893
18373W        W86791  38.423   6.772   1.284
18374W        W86792  30.532  20.128   3.333
18375W        W86793  28.133  18.077   3.802
18376W        W86794   2.870   2.263   4.744
18377W        W86795  38.519  16.286   1.876
18378W        W86796  39.971  10.144  14.291
18379W        W86797  16.801  15.706  10.028
18380W        W86798  28.997  25.667   2.698
18381W        W86799  20.266  30.575  11.456
18382W        W86800  40.307  22.064  11.079
18383W        W86801   6.391  16.140  14.870
18384W        W86802  14.707  24.163   0.758
18385W        W86803  37.493  27.487  12.900
18386W        W86804  29.531  21.057   1.848
18387W        W86805  31.628  41.899  14.027
18388W        W86806  16.299  44.968  11.613
18389W        W86807  41.841  25.206   1.307
18390W        W86808  13.832  20.737  12.439
18391W        W86809   7.838  10.324   4.783
18392W        W86810   3.251  38.327  14.995
18393W        W86811  37.070  40.041  14.436
18394W        W86812   8.833   8.792  12.041
18395W        W86813   2.840  13.663   2.179
18396W        W86814   0.746  26.956  13.026
18397W        W86815   2.407  23.618  12.528
18398W        W86816   0.288  24.696   4.288
18399W        W86817  25.663  35.545   0.814
18400W        W86818  34.121   1.419  14.383
18401W        W86819   8.235  32.929   2.199
18402W        W86820  23.659   4.868  10.486
18403W        W86821   1.753  15.623  12.927
18404W        W86822  10.341  37.429   2.351
18405W        W86823  36.506  29.603   2.201
18406W        W86824  39.512   6.387  12.430
18407W        W86825   9.218  40.990  10.601
18408W        W86826  23.690  36.929   4.262
18409W        W86827   8.207  12.314  12.963
18410W        W86828  40.362  16.078  14.457
18411W        W86829  16.683   2.406   1.721
18412W        W86830  30.973  42.422   0.395
18413W        W86831  43.010  22.128   1.802
18414W        W86832   1.468  16.111  13.424
18415W        W86833  40.835  20.236  10.443
18416W        W86834  33.132  17.085   2.302
18417W        W86835  40.898  32.048   2.890
18418W        W86836  18.139   4.792  11.464
18419W        W86837  11.224   5.276   1.712
18420W        W86838  34.585   2.335  10.550
18421W        W86839  12.231  32.566  11.491
18422W        W86840  21.610   3.881  12.923
18423W        W86841   8.316  32.528  13.920
18424W        W86842   1.311  23.201  11.912
18425W        W86843  29.170  39.885  11.930
18426W        W86844  19.166   3.739   2.870
18427W        W86845  41.409  28.965  10.988
18428W        W86846  37.493   1.835   1.367
18429W        W86847  27.455  40.053   0.288
18430W        W86848  13.326  40.506  14.457
18431W        W86849  36.386  36.423   2.221
18432W        W86850  27.072  37.868  10.926
18433W        W86851  37.340   3.801   5.300
18434W        W86852  41.022  31.900   3.867
18435W        W86853  13.199  34.479   4.798
18436W        W86854  44.006   5.758   4.302
18437W        W86855  27.612  42.330   2.872
18438W        W86856  41.844  32.459  14.324
18439W        W86857  16.252   4.760  11.478
18440W        W86858   4.794  44.992  14.880
18441W        W86859  20.705  23.987   1.424
18442W        W86860  31.128  39.416   4.253
18443W        W86861  38.505   7.385  11.869
18444W        W86862   8.734  30.992   4.736
18445W        W86863  30.598  29.025   4.607
18446W        W86864  41.485   9.836   2.848
18447W        W86865  12.736   7.280  10.511
18448W        W86866   5.345  25.038   0.351
18449W        W86867  32.571  12.174   0.895
18450W        W86868  15.614  18.568   3.380
18451W        W86869   7.248  33.964   4.223
18452W        W86870  22.562  33.019   1.851
18453W        W86871   5.933  13.632  12.497
18454W        W86872   3.308  44.356  13.393
18455W        W86873  39.403   3.951   4.245
18456W        W86874   3.304  32.401   4.781
18457W        W86875   3.869   2.885  10.471
18458W        W86876  15.797  31.914   3.348
18459W        W86877   9.851  30.505  11.967
18460W        W86878   0.260  15.690   2.695
18461W        W86879  25.631  40.522  13.533
18462W        W86880   3.811   8.813   4.279
18463W        W86881  16.767  26.461   4.210
18464W        W86882  17.203   8.825  13.815
18465W        W86883  14.264   5.211   2.196
18466W        W86884   4.731  20.580  14.790
18467W        W86885   7.714  17.088   0.842
18468W        W86886  27.114  16.109   4.113
18469W        W86887   0.272  41.377  14.424
18470W        W86888  37.347  15.165  12.576
18471W        W86889  27.455  37.444  11.995
18472W        W86890  34.422  39.420  11.612
18473W        W86891  29.644  30.102  10.911
18474W        W86892  42.973   3.881  11.464
18475W        W86893   8.230  42.445   0.432
18476W        W86894  26.675  22.099  14.767
18477W        W86895  28.159  29.997   2.743
18478W        W86896  11.351  17.670   3.763
18479W        W86897  38.873  21.153   5.238
18480W        W86898  21.517  41.303   0.342
18481W        W86899   7.748  43.880   3.154
18482W        W86900  16.674  16.205   3.145
18483W        W86901   3.866  41.007  11.088
18484W        W86902  15.787  11.764   2.354
18485W        W86903  28.969  14.139   3.670
18486W        W86904  14.643   5.785  13.966
18487W        W86905  28.061   9.242   5.245
18488W        W86906   0.955   0.818   4.293
18489W        W86907  25.541   6.349   2.833
18490W        W86908  26.640  26.116  12.866
18491W        W86909  29.458   2.244  11.017
18492W        W86910  42.795  37.545  11.883
18493W        W86911  33.449  12.802   2.343
18494W        W86912  20.189  29.451  13.429
18495W        W86913  20.140  39.539  14.798
18496W        W86914  29.083  11.355   3.828
18497W        W86915  15.579  34.049   4.619
18498W        W86916  11.748  30.546  14.948
18499W        W86917   1.734   4.850   4.128
18500W        W86918   5.370  40.913  10.900
18501W        W86919  39.399  16.581   2.230
18502W        W86920  34.444  36.490  14.485
18503W        W86921  36.549  23.029  10.924
18504W        W86922  28.988  35.029  13.504
18505W        W86923  29.516  34.020   1.242
18506W        W86924  22.681  21.658   4.774
18507W        W86925   3.740  24.122   4.258
18508W        W86926  12.135   7.798  11.877
18509W        W86927  33.007  20.675  12.078
18510W        W86928  28.027   8.894  11.950
18511W        W86929  40.475  34.551  11.515
18512W        W86930  34.020  37.336   1.890
18513W        W86931   7.410   2.229   3.839
18514W        W86932  28.493  40.414   3.317
18515W        W86933  29.000   3.388   3.145
18516W        W86934  29.011  22.638  11.516
18517W        W86935  38.538  28.561  10.961
18518W        W86936   0.749  22.611  12.415
18519W        W86937  39.877  43.409  13.420
18520W        W86938  32.003  10.295   4.601
18521W        W86939  31.414  23.691   3.226
18522W        W86940  28.152   1.747  11.563
18523W        W86941   0.781  18.203  12.915
18524W        W86942  31.520  27.509  12.864
18525W        W86943  12.844  41.306  11.498
18526W        W86944   6.827   4.868   3.843
18527W        W86945  20.600  10.312  14.301
18528W        W86946  11.135  26.510   4.699
18529W        W86947  36.488  14.126  13.369
18530W        W86948  24.191  31.924   3.164
18531W        W86949  27.950  25.705   4.787
18532W        W86950  33.037   5.714   0.432
18533W        W86951  38.425  17.280   1.282
18534W        W86952  19.175  19.634   3.240
18535W        W86953  16.598  28.112   2.862
18536W        W86954  36.935  12.666  10.912
18537W        W86955  21.024   9.376  11.120
18538W        W86956  10.859  32.431   2.724
18539W        W86957  24.088  28.461  13.406
18540W        W86958   8.299   1.467  14.501
18541W        W86959  30.619  34.080  12.987
18542W        W86960   0.380  39.961  14.976
18543W        W86961   7.895  17.604  14.309
18544W        W86962  18.126  23.705   1.346
18545W        W86963  19.191  30.461   0.424
18546W        W86964   5.350   3.821  12.063
18547W        W86965  41.359  35.044   3.740
18548W        W86966   8.372  24.147  13.016
18549W        W86967  43.489  33.624   3.654
18550W        W86968  12.312  39.553  14.982
18551W        W86969  38.064  29.642  13.802
18552W        W86970  20.585  10.768   0.821
18553W        W86971  37.379  33.920  10.929
18554W        W86972   9.198   6.201  13.355
18555W        W86973   2.389  26.159  12.547
18556W        W86974   1.357  21.668   0.287
18557W        W86975   6.733  42.784   0.963
18558W        W86976  32.404   2.395   4.678
18559W        W86977  20.666  23.695   1.730
18560W        W86978  40.967  27.515   3.699
18561W        W86979  36.887   0.955  12.873
18562W        W86980  38.899  24.058   5.114
18563W        W86981  37.015  13.143   3.694
18564W        W86982  40.923  10.288  10.888
18565W        W86983  40.939  16.122  13.390
18566W        W86984   3.764  33.973   2.200
18567W        W86985  11.805   1.283  14.445
18568W        W86986  37.372  40.957  11.125
18569W        W86987  40.375  36.580   4.609
18570W        W86988  25.212  28.033  12.881
18571W        W86989   9.353   4.340  12.933
18572W        W86990  24.618   6.789  13.377
18573W        W86991  29.117  30.597   4.334
18574W        W86992  37.977  25.580   2.722
18575W        W86993  20.145   0.365   4.825
18576W        W86994  22.126  25.506   1.780
18577W        W86995  14.674  19.656  12.041
18578W        W86996  15.582  17.728  11.021
18579W        W86997  29.098  29.147  10.933
18580W        W86998   6.368  22.730  13.958
18581W        W86999  39.492   2.765  11.380
18582W        W87000  11.230  32.071   2.820
18583W        W87001   3.274   4.405   3.837
18584W        W87002  10.743  10.762   4.795
18585W        W87003  43.434   8.383   4.792
18586W        W87004  32.004  41.371  12.879
18587W        W87005   9.332  10.675   1.431
18588W        W87006   7.290  42.483   4.201
18589W        W87007  30.921   7.395  12.057
18590W        W87008  39.022  27.998   3.746
18591W        W87009  22.598  12.667  14.929
18592W        W87010  28.671  18.175  14.411
18593W        W87011   0.249  30.990   0.439
18594W        W87012  27.646   5.203  10.578
18595W        W87013   4.349   3.458  13.321
18596W        W87014  34.484  39.394   5.288
18597W        W87015  21.545  40.502  11.075
18598W        W87016  18.789  35.926  10.939
18599W        W87017  14.770   0.949   3.754
18600W        W87018  30.594  33.599  14.497
18601W        W87019  16.075  40.338  10.109
18602W        W87020  35.982   5.719  12.900
18603W        W87021  35.962   5.213   1.336
18604W        W87022  39.340  18.560  11.570
18605W        W87023  17.726  40.505  13.367
18606W        W87024   4.927  30.629   0.782
18607W        W87025  39.062  15.203   1.441
18608W        W87026   1.447  24.204  14.863
18609W        W87027  31.029  24.188   4.721
18610W        W87028  11.193  31.415   0.270
18611W        W87029  24.505  44.807  13.532
18612W        W87030  39.813  33.114   4.347
18613W        W87031  16.782   5.350   4.314
18614W        W87032  41.367  19.223  12.500
18615W        W87033   1.261  40.362   2.746
18616W        W87034  43.356  17.678   1.287
18617W        W87035  33.126  38.861   4.211
18618W        W87036  25.540  35.448   0.254
18619W        W87037  40.808  40.515   0.262
18620W        W87038  14.739  14.779  14.761
18621W        W87039  34.579  20.678  14.386
18622W        W87040  19.141  17.571   1.704
18623W        W87041  43.368  31.970  11.969
18624W        W87042   5.792  31.084   1.402
18625W        W87043  40.853  27.563  13.443
18626W        W87044   2.456  41.497  12.835
18627W        W87045  30.556  36.565   1.238
18628W        W87046  33.584  29.434  10.427
18629W        W87047  26.067  30.985  12.365
18630W        W87048  22.021  25.081   4.788
18631W        W87049  38.523  24.508   2.677
18632W        W87050  28.584  40.463   4.794
18633W        W87051   9.340  19.657   4.155
18634W        W87052  28.616  30.103  11.430
18635W        W87053  27.074   7.735  11.552
18636W        W87054  15.105   1.886   4.721
18637W        W87055  37.919  35.050  11.915
18638W        W87056  24.648   9.290   3.700
18639W        W87057  14.726  24.570   3.311
18640W        W87058  15.669   5.346  12.391
18641W        W87059  11.362  15.675   1.890
18642W        W87060  12.831  44.824  13.009
18643W        W87061  29.449  44.487   4.606
18644W        W87062  17.679  14.334  13.395
18645W        W87063  24.578  10.828  13.902
18646W        W87064  36.850  15.665   3.215
18647W        W87065   8.865   4.401   0.885
18648W        W87066  25.500   3.421   4.727
18649W        W87067  41.831   3.919  12.491
18650W        W87068  40.852   6.269  11.579
18651W        W87069  20.246  28.636  14.468
18652W        W87070  23.720  22.706  14.812
18653W        W87071  30.639   6.365   4.137
18654W        W87072  32.005  44.924  13.478
18655W        W87073  22.174  30.984  11.027
18656W        W87074  40.526   2.955   1.431
18657W        W87075   8.873  23.131  10.925
18658W        W87076  38.881  18.190   0.348
18659W        W87077  36.892   2.800   4.198
18660W        W87078  20.167  10.381  10.478
18661W        W87079  29.165  42.781  13.910
18662W        W87080  17.673   3.276   4.199
18663W        W87081   1.808  14.641   2.888
18664W        W87082  23.491  37.956   4.273
18665W        W87083   6.728  30.139   3.692
18666W        W87084  35.971  38.900  12.025
18667W        W87085  25.692  28.517  14.765
18668W        W87086  17.203  25.675   4.681
18669W        W87087  36.548  44.435   3.158
18670W        W87088  30.647  23.155  12.468
18671W        W87089  13.171  43.446   3.756
18672W        W87090  32.988   9.149  13.339
18673W        W87091  41.472  32.428  10.993
18674W        W87092  38.389  39.405  10.454
18675W        W87093  22.024  39.350   2.180
18676W        W87094  21.682  17.559   1.450
18677W        W87095   5.752  10.808   0.860
18678W        W87096   6.378  27.036  14.288
18679W        W87097   9.799  36.450  14.785
18680W        W87098  24.013  38.033  14.468
18681W        W87099   1.273   1.346   1.798
18682W        W87100   4.400  10.272  14.777
18683W        W87101   4.768  10.269  13.893
18684W        W87102  10.206   7.327   3.233
18685W        W87103  18.209  21.059  13.408
18686W        W87104  12.840  36.579   0.298
18687W        W87105   3.850  40.379   0.290
18688W        W87106   6.707  14.156   3.322
18689W        W87107  13.284   6.823   4.783
18690W        W87108  24.126  30.447   4.655
18691W        W87109  39.332  22.692  10.952
18692W        W87110  18.118  22.056   2.871
18693W        W87111  36.462  11.181  14.966
18694W        W87112  14.161   1.840  13.846
18695W        W87113   9.799  37.858  11.110
18696W        W87114  26.507  18.711   4.795
18697W        W87115   3.421  31.996   3.262
18698W        W87116  35.483  38.983  14.319
18699W        W87117  33.968   0.794   1.807
18700W        W87118  31.041  18.220   2.310
18701W        W87119  21.131   1.872  10.939
18702W        W87120  14.622  19.603   2.245
18703W        W87121   1.359  43.019   9.979
18704W        W87122  38.383   1.952   0.302
18705W        W87123  22.562   0.927   1.815
18706W        W87124  25.582  35.856   0.842
18707W        W87125  10.812  36.433   0.432
18708W        W87126  36.973  22.235   3.838
18709W        W87127  15.185  43.279   2.269
18710W        W87128  17.176  11.818   0.453
18711W        W87129  14.622  37.977  12.437
18712W        W87130  26.495  18.592   3.737
18713W        W87131  29.144   9.688   2.232
18714W        W87132   0.314  42.376   3.719
18715W        W87133   8.811   8.210  12.846
18716W        W87134   7.884  29.636  11.932
18717W        W87135  18.736  40.840   1.920
18718W        W87136  34.466   4.335  14.842
18719W        W87137   5.290  20.262   4.281
18720W        W87138   4.433  35.422   3.816
18721W        W87139   0.288  19.092  11.520
18722W        W87140  39.511  13.774  14.946
18723W        W87141  22.124  43.932  14.436
18724W        W87142   2.255  19.631   3.327
18725W        W87143   8.404  44.390   1.325
18726W        W87144  30.077  31.989  14.329
18727W        W87145   5.706  21.726  13.377
18728W        W87146  35.018  27.582   3.654
18729W        W87147  16.634  32.391  11.890
18730W        W87148  28.456  10.877  14.763
18731W        W87149  37.381  32.554  14.823
18732W        W87150  35.102  19.714   0.251
18733W        W87151  10.151  24.181  12.463
18734W        W87152  21.571  41.316  14.795
18735W        W87153  39.939  20.038  13.462
18736W        W87154  29.609  16.164   0.854
18737W        W87155  44.261  21.716   5.153
18738W        W87156   7.174  16.587   2.204
18739W        W87157  21.579  26.600   1.224
18740W        W87158  29.046  21.162   3.832
18741W        W87159  42.407  25.157   1.314
18742W        W87160  36.433  18.603   2.189
18743W        W87161  22.646  36.465  13.504
18744W        W87162  19.581  12.628   4.610
18745W        W87163  36.432  32.978   4.749
18746W        W87164  22.627   2.463  12.034
18747W        W87165  21.558   4.220  11.058
18748W        W87166   7.844  36.891  13.347
18749W        W87167  39.905  17.567  13.442
18750W        W87168  18.258  34.602   0.935
18751W        W87169  22.595  21.611   0.450
18752W        W87170   0.898  24.679   1.758
18753W        W87171  34.559  43.882   2.848
18754W        W87172  14.709   7.267   1.239
18755W        W87173  41.334   5.808   3.263
18756W        W87174   7.197  11.155   4.651
18757W        W87175   4.830   9.780  11.078
18758W        W87176  29.542  14.628  14.332
18759W        W87177  18.724  22.140  14.476
18760W        W87178  43.769  13.801   0.279
18761W        W87179  18.092   7.777   3.707
18762W        W87180  21.637  31.947  13.421
18763W        W87181  37.868  21.609   0.425
18764W        W87182  15.635   3.332   2.323
18765W        W87183   0.307  34.958   4.760
18766W        W87184  21.578  33.104   2.765
18767W        W87185   2.257   6.245  12.510
18768W        W87186   8.250   0.849  14.933
18769W        W87187  13.148  23.132  11.458
18770W        W87188  24.652  30.514  12.004
18771W        W87189  25.000   0.413   4.700
18772W        W87190  19.268  36.970   4.826
18773W        W87191  27.005  27.002  11.462
18774W        W87192  33.569  29.468  12.994
18775W        W87193  18.632  19.730   1.432
18776W        W87194  30.473  16.715   4.353
18777W        W87195   3.807  41.321   1.427
18778W        W87196   5.701   2.860  13.929
18779W        W87197  42.894  10.780   0.921
18780W        W87198  13.143  38.046   1.794
18781W        W87199  39.325   1.302   3.687
18782W        W87200  33.032  24.173  11.462
18783W        W87201  26.154  10.224   2.405
18784W        W87202   5.297  25.075   1.236
18785W        W87203  32.436  44.264  13.355
18786W        W87204  18.659  27.042   2.662
18787W        W87205  42.854  17.150   1.872
18788W        W87206  22.006  17.174   4.723
18789W        W87207  20.082  15.128  13.030
18790W        W87208   1.761  30.473  10.613
18791W        W87209  40.341  27.550   1.238
18792W        W87210   5.246  32.939   1.792
18793W        W87211  35.050   1.245  12.503
18794W        W87212   2.444   0.973   3.316
18795W        W87213  31.418  17.073   4.612
18796W        W87214  42.347  20.728   4.162
18797W        W87215  32.942   7.287  11.382
18798W        W87216  31.556   5.846  11.566
18799W        W87217  43.003  15.782   5.297
18800W        W87218  24.567  38.055  12.554
18801W        W87219  40.414  44.504  12.013
18802W        W87220  42.907  37.496   3.794
18803W        W87221  29.667  16.272   2.862
18804W        W87222  19.182  19.185  11.905
18805W        W87223  11.851   8.671  10.002
18806W        W87224  35.947  43.491   1.261
18807W        W87225  32.991  34.960   2.409
18808W        W87226   5.295  23.528   1.280
18809W        W87227  28.047   1.438   4.701
18810W        W87228  36.582   4.304  11.887
18811W        W87229  10.147   2.247   3.202
18812W        W87230  13.618  20.078  11.408
18813W        W87231  32.958  32.400  14.371
18814W        W87232  25.620   1.975   5.223
18815W        W87233  29.075  16.779  11.460
18816W        W87234   2.813  36.012   1.386
18817W        W87235  43.765   1.474   2.244
18818W        W87236  33.579  25.159   5.121
18819W        W87237   6.735  42.949  14.317
18820W        W87238   9.379  29.446  11.526
18821W        W87239  24.573  42.002   3.694
18822W        W87240  25.686   2.763  14.284
18823W        W87241  28.671   5.754   5.271
18824W        W87242  27.969   4.260  11.927
18825W        W87243   0.923  20.030   1.256
18826W        W87244  27.111  22.653   4.213
18827W        W87245  32.026  38.997   0.731
18828W        W87246  41.954  27.564  12.026
18829W        W87247  30.141  15.281   1.695
18830W        W87248  10.650  19.277  13.903
18831W        W87249   2.365  15.306  14.390
18832W        W87250  29.046  14.301  14.927
18833W        W87251  36.940  10.257   0.399
18834W        W87252  31.138   5.913  10.594
18835W        W87253  40.548  41.893   0.476
18836W        W87254  30.049  29.554  11.422
18837W        W87255  16.307  28.171  14.844
18838W        W87256   1.742  36.065   4.761
18839W        W87257  18.628   9.654   4.348
18840W        W87258  11.213  35.944   3.229
18841W        W87259  32.522   4.432   0.351
18842W        W87260   9.710  29.516  11.399
18843W        W87261  32.624  35.073   4.202
18844W        W87262  35.511  17.097  12.439
18845W        W87263  29.144  36.375  13.871
18846W        W87264  27.546  10.295   4.165
18847W        W87265  40.811  17.793   0.914
18848W        W87266  27.568  29.096   4.193
18849W        W87267  35.093  15.822  13.432
18850W        W87268  44.500  19.057  13.342
18851W        W87269  25.105  30.082  10.528
18852W        W87270  14.093   7.750   5.286
18853W        W87271  25.172  39.868   3.846
18854W        W87272  14.608  15.815   2.840
18855W        W87273  11.746  31.569   3.318
18856W        W87274  32.890   7.219   3.161
18857W        W87275  39.834  13.223  14.820
18858W        W87276  27.618  13.158  13.811
18859W        W87277   5.912  31.153  13.323
18860W        W87278  43.775  40.011  12.014
18861W        W87279  11.706  40.339   1.358
18862W        W87280   8.882   3.738   0.279
18863W        W87281  10.721  34.050   4.805
18864W        W87282   0.859  24.549   1.316
18865W        W87283  27.612   7.867   1.794
18866W        W87284  29.928  24.007  12.005
18867W        W87285  40.523  13.684   2.265
18868W        W87286  16.076  35.035  11.440
18869W        W87287  10.870  43.333  12.566
18870W        W87288  33.406  28.645  14.366
18871W        W87289   1.358  41.009   3.630
18872W        W87290  13.322  22.722  11.540
18873W        W87291   1.291  44.401   3.378
18874W        W87292  40.896  42.443  14.858
18875W        W87293  13.740  19.216  14.923
18876W        W87294  14.777  25.180  10.439
18877W        W87295  17.136   6.709   2.876
18878W        W87296  34.027   5.908  14.320
18879W        W87297  11.174  31.560   1.781
18880W        W87298  12.696  44.779   4.254
18881W        W87299  25.550  42.926   1.296
18882W        W87300  37.981   7.679  14.847
18883W        W87301  15.598  40.469   1.747
18884W        W87302  37.525  42.373   3.695
18885W        W87303  27.112   8.248  11.490
18886W        W87304   2.743   9.809   2.354
18887W        W87305  27.578  11.148   1.258
18888W        W87306   6.204  26.458   1.855
18889W        W87307   9.735   6.828  13.405
18890W        W87308  17.108  29.556  13.387
18891W        W87309   7.259  13.240   1.277
18892W        W87310   2.342   1.443  11.416
18893W        W87311  39.545   5.372  14.276
18894W        W87312  16.119  17.186   4.817
18895W        W87313  39.463   8.768  14.356
18896W        W87314   8.676  16.173  13.487
18897W        W87315  20.743  15.302   2.848
18898W        W87316  40.381  43.992  12.478
18899W        W87317  35.000  41.808   2.705
18900W        W87318  23.650  10.229  14.351
18901W        W87319   6.321  39.862   3.729
18902W        W87320   4.776  40.523   0.251
18903W        W87321  19.164  25.043  11.419
18904W        W87322  37.857  23.123   2.314
18905W        W87323  18.573  32.132  13.318
18906W        W87324  27.582  43.811  12.053
18907W        W87325  26.077   8.735  10.940
18908W        W87326  19.607  29.666  12.939
18909W        W87327  14.184   5.793   0.865
18910W        W87328   8.757  32.913  14.295
18911W        W87329  28.983   7.708  10.062
18912W        W87330  10.160   4.258   1.402
18913W        W87331  28.598  35.433  13.451
18914W        W87332  18.236   6.918  12.540
18915W        W87333   3.918   7.732   0.254
18916W        W87334  32.562  21.585   1.934
18917W        W87335  35.898  16.256   0.258
18918W        W87336  38.002  39.055   2.787
18919W        W87337   7.683  42.479  13.872
18920W        W87338  13.233  40.530   2.310
18921W        W87339  40.860  32.921  12.493
18922W        W87340  41.313   2.793  14.830
18923W        W87341   9.686  19.239   1.707
18924W        W87342  35.377  36.454  11.573
18925W        W87343  27.683  33.054  11.590
18926W        W87344  26.158  23.161   3.856
18927W        W87345  32.582  19.201  10.451
18928W        W87346  26.643  44.886  10.942
18929W        W87347  26.552  15.818  14.358
18930W        W87348   9.312   0.846   1.826
18931W        W87349  40.453  15.614  10.889
18932W        W87350  16.782  23.098  12.478
18933W        W87351  24.486  29.125  13.354
18934W        W87352  19.558  44.915  10.409
18935W        W87353  31.125  18.664   2.284
18936W        W87354   3.906   0.398   0.318
18937W        W87355  28.129  29.426   3.250
18938W        W87356  43.368  11.335  11.484
18939W        W87357  44.474   8.189  12.972
18940W        W87358  39.850  12.353   0.832
18941W        W87359  37.970  32.066   1.367
18942W        W87360  36.855  38.865   1.346
18943W        W87361  19.611  35.927   3.853
18944W        W87362   5.261  29.127  11.946
18945W        W87363  24.998  34.530  14.816
18946W        W87364  37.988  14.774  11.487
18947W        W87365   1.819   4.442   1.835
18948W        W87366   4.292   2.267  11.520
18949W        W87367  32.071  44.881   2.307
18950W        W87368  16.077  25.687   3.264
18951W        W87369  13.191  20.101   4.254
18952W        W87370  11.658  19.236   1.817
18953W        W87371  31.070  35.589   4.265
18954W        W87372   8.866  23.617   9.940
18955W        W87373  20.113  22.088  12.404
18956W        W87374   1.395  22.512  13.858
18957W        W87375  37.937  15.223  14.973
18958W        W87376  35.014  30.610  14.767
18959W        W87377  21.234  35.529   3.146
18960W        W87378  21.747  23.555  13.793
18961W        W87379  44.474  16.770   3.273
18962W        W87380   8.339  42.977   2.748
18963W        W87381  20.653   0.842   2.819
18964W        W87382  20.740  11.211   0.843
18965W        W87383   5.771  19.075  11.394
18966W        W87384  42.858  36.411   1.875
18967W        W87385   9.762  38.852  12.840
18968W        W87386  21.205  38.914  13.925
18969W        W87387   8.770   8.758  11.514
18970W        W87388  35.544   4.239  10.586
18971W        W87389   1.241  35.568   2.291
18972W        W87390   3.916  40.319  10.427
18973W        W87391  23.182  40.404  12.060
18974W        W87392  39.423  18.614   4.828
18975W        W87393   8.264  28.165  12.995
18976W        W87394  37.882  37.406  11.452
18977W        W87395  43.358   9.191   1.289
18978W        W87396  35.437   9.350  14.904
18979W        W87397  26.550  25.516  14.932
18980W        W87398   3.817  14.660  13.459
18981W        W87399  26.553  14.718  10.509
18982W        W87400   8.197  22.560  10.575
18983W        W87401  34.982   3.286  10.992
18984W        W87402  41.847  28.656  10.943
18985W        W87403  36.859  44.470   0.318
18986W        W87404   4.440  35.861   3.827
18987W        W87405  41.880  40.346  11.532
18988W        W87406   1.417  36.369   2.839
18989W        W87407  21.757  33.876   0.306
18990W        W87408  22.614  16.164  13.483
18991W        W87409  12.353  34.081  12.853
18992W        W87410  16.743   5.362  10.982
18993W        W87411  10.646  35.384   2.850
18994W        W87412  39.914   3.336   1.812
18995W        W87413   4.797  13.709   3.150
18996W        W87414  18.777   8.235  13.403
18997W        W87415   1.931  22.200   2.782
18998W        W87416  22.638  13.253  10.971
18999W        W87417  12.818  44.881   1.351
19000W        W87418  42.430  19.756   0.469
19001W        W87419  36.370  42.349  12.092
19002W        W87420   6.285  35.594   3.284
19003W        W87421  26.481   8.257   4.291
19004W        W87422  34.406  11.758   2.878
19005W        W87423  27.540  19.280  14.463
19006W        W87424  32.069  27.463  13.045
19007W        W87425  44.858   4.271  10.480
19008W        W87426  39.951  13.651   2.355
19009W        W87427  42.517   6.245  14.331
19010W        W87428  20.037   3.445   4.295
19011W        W87429  25.184  19.690   0.309
19012W        W87430   3.833  15.700  10.542
19013W        W87431  33.989  26.463   1.241
19014W        W87432  22.021  39.338  13.432
19015W        W87433  24.593  24.999  10.915
19016W        W87434  25.666  11.815  12.938
19017W        W87435  15.176  28.041  14.355
19018W        W87436  39.877   1.869   4.264
19019W        W87437  23.689  16.234   0.302
19020W        W87438  44.759  10.849  11.435
19021W        W87439   9.873  16.279   4.227
19022W        W87440  14.115  11.689   4.293
19023W        W87441   7.799  18.552  12.844
19024W        W87442  22.072  33.909  13.997
19025W        W87443  39.944  13.668   4.700
19026W        W87444  25.219  22.118  14.385
19027W        W87445   4.752  34.420  11.881
19028W        W87446   3.431  17.195  10.637
19029W        W87447  33.892  25.623  12.974
19030W        W87448  22.044  32.912   1.914
19031W        W87449   5.419  19.734   3.749
19032W        W87450  29.640  34.043  12.033
19033W        W87451  18.568   2.892   2.312
19034W        W87452   1.810  35.946  13.547
19035W        W87453   3.875  26.543   2.225
19036W        W87454  27.621   2.938  11.386
19037W        W87455  20.594  25.704   3.694
19038W        W87456  36.510   6.379   0.417
19039W        W87457  17.237  19.233  11.440
19040W        W87458   0.340  17.561   1.262
19041W        W87459  29.483  40.941   0.279
19042W        W87460  43.865   3.367   2.832
19043W        W87461  10.841  41.309  13.546
19044W        W87462   4.812  18.241  11.532
19045W        W87463  17.558  38.049  11.044
19046W        W87464  39.408  27.020   0.320
19047W        W87465  17.763  21.064  14.435
19048W        W87466  30.985  32.037  10.096
19049W        W87467  33.528  26.476  12.024
19050W        W87468   8.815  37.557   5.272
19051W        W87469  32.094  39.384  13.873
19052W        W87470  19.157  26.506   2.687
19053W        W87471  37.395  26.481   9.978
19054W        W87472  38.535  25.074  14.765
19055W        W87473  37.549  35.007   1.785
19056W        W87474  38.931  40.351  10.628
19057W        W87475  40.973  18.152   1.924
19058W        W87476   7.269  13.706   4.220
19059W        W87477   1.817   6.716  12.935
19060W        W87478  13.788  14.631  13.414
19061W        W87479   6.200  25.603   2.284
19062W        W87480  12.314  44.422  13.491
19063W        W87481   1.753  19.248  11.566
19064W        W87482  20.533   2.800   4.695
19065W        W87483  21.216  23.087   3.839
19066W        W87484   6.840  41.295  10.958
19067W        W87485  43.859   8.340  13.035
19068W        W87486  22.144  17.136  13.007
19069W        W87487  36.864   5.217   2.849
19070W        W87488  41.533   2.264   3.333
19071W        W87489  10.803   1.389   2.666
19072W        W87490   8.315  21.260  14.329
19073W        W87491  10.371  26.101  13.410
19074W        W87492   7.907  16.088   3.243
19075W        W87493  29.059  13.236  10.524
19076W        W87494   5.292  19.705  11.545
19077W        W87495  39.527   2.947   3.830
19078W        W87496   7.197  15.614   0.282
19079W        W87497  28.184  11.194   2.317
19080W        W87498   0.783  11.219  10.409
19081W        W87499  33.078  21.076  12.518
19082W        W87500   9.831  42.909  14.845
19083W        W87501  40.527  30.981   4.134
19084W        W87502  29.446  26.592  11.985
19085W        W87503   4.917  29.065   4.195
19086W        W87504   6.882  21.535   3.816
19087W        W87505   9.355  38.903   0.265
19088W        W87506   1.458  19.724   2.824
19089W        W87507  38.333  16.566   2.397
19090W        W87508  32.962  25.605  11.571
19091W        W87509   6.821  10.271  12.879
19092W        W87510  35.861  43.990  13.354
19093W        W87511  25.627  18.133   0.765
19094W        W87512  21.580  44.869   3.641
19095W        W87513  28.618  36.873   4.282
19096W        W87514  14.310  36.512  11.103
19097W        W87515  44.761  27.079   2.203
19098W        W87516  20.563  18.196   4.127
19099W        W87517  44.417   9.312  10.907
19100W        W87518  42.304  13.214  10.983
19101W        W87519  25.685  19.243  11.880
19102W        W87520   8.246  44.436  14.948
19103W        W87521  36.573  32.513   2.769
19104W        W87522  19.575  27.595  10.617
19105W        W87523  29.107   0.806  12.470
19106W        W87524  26.591   3.861   4.194
19107W        W87525  30.620  32.125  10.548
19108W        W87526  20.735  38.852  10.568
19109W        W87527  32.633   5.836   1.400
19110W        W87528  11.176  33.597  13.866
19111W        W87529  35.918   7.396  11.608
19112W        W87530  20.182  32.006   0.391
19113W        W87531  16.215  36.582   3.315
19114W        W87532  37.049   5.253   4.196
19115W        W87533  35.925  43.325   1.922
19116W        W87534  22.572  16.129   0.317
19117W        W87535  11.848  16.772   2.787
19118W        W87536   7.354   5.839   3.229
19119W        W87537  30.915  32.554  11.558
19120W        W87538  17.631  18.548   1.752
19121W        W87539  38.360  33.035  13.914
19122W        W87540  19.598  21.703  11.029
19123W        W87541   5.246  10.772  13.385
19124W        W87542  35.515  10.162  12.878
19125W        W87543   4.392  38.362   0.839
19126W        W87544  21.057  36.013   1.773
19127W        W87545   2.323  22.569   4.338
19128W        W87546  23.539  19.143  14.959
19129W        W87547  30.459  37.893  11.380
19130W        W87548  34.590  28.493  11.914
19131W        W87549   0.828  20.241   9.942
19132W        W87550  13.292  36.435   4.643
19133W        W87551  13.601  28.463  12.372
19134W        W87552  21.044   8.292  14.463
19135W        W87553   0.950  12.210  14.931
19136W        W87554  31.449  38.555   1.882
19137W        W87555   1.789   1.468   4.257
19138W        W87556  35.852  23.610  10.415
19139W        W87557  41.804  26.510   3.159
19140W        W87558  31.530  29.496   2.195
19141W        W87559  14.629   8.273  13.527
19142W        W87560  19.282  12.768   4.708
19143W        W87561   8.297  26.070   2.711
19144W        W87562   4.216   0.436   3.701
19145W        W87563  32.480  38.991  12.406
19146W        W87564   3.713   2.799  13.454
19147W        W87565   9.302  30.537   4.333
19148W        W87566  22.622  36.466  12.052
19149W        W87567  24.545  19.093   4.643
19150W        W87568  40.035  32.425  11.518
19151W        W87569  39.558  23.687   3.635
19152W        W87570   9.890  23.128   4.777
19153W        W87571  35.880  34.445   0.296
19154W        W87572  35.477  18.680  13.013
19155W        W87573  26.952  19.161   4.675
19156W        W87574   8.821  18.164  13.950
19157W        W87575  29.505  21.662   3.813
19158W        W87576  15.205  22.667   3.640
19159W        W87577  13.302  17.756   4.815
19160W        W87578  13.676  32.094  13.930
19161W        W87579  18.141  41.901   0.344
19162W        W87580   6.791  25.120  12.371
19163W        W87581   6.910  25.968  13.424
19164W        W87582  43.486  22.204   2.277
19165W        W87583  36.058   4.228   0.480
19166W        W87584   3.264  31.624   2.745
19167W        W87585  21.569  24.973   1.440
19168W        W87586  14.707  35.458  11.505
19169W        W87587   6.821  17.794  12.344
19170W        W87588  16.624  26.581  13.462
19171W        W87589  31.605  24.230  11.590
19172W        W87590  24.611  24.677  10.573
19173W        W87591   1.903   1.276   2.313
19174W        W87592   2.303  40.811  12.414
19175W        W87593  11.742   9.320   1.839
19176W        W87594  40.374   1.784   3.704
19177W        W87595   3.949  29.030   2.756
19178W        W87596  20.567  23.645  13.513
19179W        W87597  17.592  35.566   1.724
19180W        W87598  40.494  13.838  11.899
19181W        W87599  37.567  12.127   3.324
19182W        W87600   8.783  40.384  12.973
19183W        W87601  17.283  22.683  13.998
19184W        W87602  23.002   6.711  12.025
19185W        W87603  38.550  35.010  12.464
19186W        W87604  13.168  20.586  12.414
19187W        W87605  16.088  19.727   5.103
19188W        W87606  30.574  33.055   3.828
19189W        W87607  13.785   6.873  10.525
19190W        W87608  36.078   4.887  11.972
19191W        W87609   9.351  14.646   0.920
19192W        W87610  12.697  13.105  14.848
19193W        W87611  24.684  22.067   1.794
19194W        W87612   0.916  13.608   2.738
19195W        W87613  35.521  18.578  13.397
19196W        W87614   3.225   8.400  14.832
19197W        W87615   6.293  41.411  13.939
19198W        W87616  39.970  22.505   4.651
19199W        W87617  13.199   3.879  13.801
19200W        W87618   0.324  39.483  14.364
19201W        W87619  37.389  39.009   2.745
19202W        W87620  39.059   4.734   1.331
19203W        W87621  43.273  32.978   4.741
19204W        W87622  21.027   7.844  14.452
19205W        W87623  21.690  23.129  11.988
19206W        W87624  13.724  26.658  14.790
19207W        W87625   5.360   1.733  12.555
19208W        W87626   2.963  17.666  11.466
19209W        W87627   9.392  18.777   1.298
19210W        W87628  23.653  40.315  12.949
19211W        W87629  27.483   6.201   5.214
19212W        W87630  43.839   7.189  14.342
19213W        W87631   9.338  32.528   3.221
19214W        W87632  11.187  39.359   3.776
19215W        W87633  13.141  38.980   2.702
19216W        W87634   0.837  35.022   4.631
19217W        W87635  43.313  11.628   9.540
19218W        W87636  36.389  42.970  10.991
19219W        W87637  17.788   7.257   3.314
19220W        W87638   5.364  19.139   4.133
19221W        W87639  25.154   5.809   3.823
19222W        W87640  12.139   3.231  11.451
19223W        W87641   4.294   8.848  12.446
19224W        W87642  34.595   4.238  12.357
19225W        W87643  41.355  16.306  13.892
19226W        W87644  22.194  29.431   0.252
19227W        W87645  30.646  36.886  14.345
19228W        W87646  18.212  19.688   0.278
19229W        W87647  29.456  11.837  14.404
19230W        W87648  19.553   9.787  13.990
19231W        W87649  34.433  11.803  13.928
19232W        W87650  24.978  39.356   1.725
19233W        W87651  38.031   7.807  13.911
19234W        W87652  17.645  16.776   2.901
19235W        W87653   5.851  23.997   1.817
19236W        W87654  34.534  20.173   3.349
19237W        W87655   0.447  38.558   3.168
19238W        W87656  18.224  35.006  12.076
19239W        W87657  12.349  42.800   4.806
19240W        W87658   9.750   0.467   4.245
19241W        W87659  36.964   6.833   1.845
19242W        W87660   4.908  27.070  10.143
19243W        W87661  35.406   8.888  14.420
19244W        W87662   9.707  30.572  14.017
19245W        W87663  15.797  35.482  11.499
19246W        W87664  10.720   9.199   2.413
19247W        W87665   9.233  28.586  10.518
19248W        W87666  44.988  22.154   2.325
19249W        W87667  40.939   3.243   2.270
19250W        W87668   7.892  11.659  14.868
19251W        W87669  24.591   8.699  14.799
19252W        W87670  33.975   8.208   4.199
19253W        W87671  41.508  26.579   0.426
19254W        W87672  21.637  23.010  12.995
19255W        W87673   1.769  33.546  11.440
19256W        W87674  13.697  19.063   2.719
19257W        W87675  15.093   5.900   1.732
19258W        W87676  34.560  11.283   1.916
19259W        W87677  13.264  12.795  11.926
19260W        W87678   0.782  18.565  12.348
19261W        W87679   5.696  31.961  10.558
19262W        W87680  36.003   0.425   1.835
19263W        W87681  21.608  34.041  14.492
19264W        W87682  13.176  22.691  13.935
19265W        W87683  17.779  44.380   2.267
19266W        W87684  32.408  15.181   1.810
19267W        W87685  43.304  39.349  12.482
19268W        W87686  43.004  13.754  10.511
19269W        W87687   1.900  33.906  14.016
19270W        W87688  11.266   8.254   3.283
19271W        W87689  42.902   8.743  11.456
19272W        W87690  43.431  34.475  14.341
19273W        W87691   1.741   5.344  10.612
19274W        W87692  33.027  27.642   3.233
19275W        W87693  38.505  18.729   3.271
19276W        W87694  15.308   3.348   3.296
19277W        W87695  27.143  34.887   4.678
19278W        W87696  31.055  31.130  11.383
19279W        W87697  37.842  35.584  11.581
19280W        W87698  41.877  19.219  11.600
19281W        W87699   0.262  20.070   5.740
19282W        W87700   3.876   6.350  11.931
19283W        W87701  20.117  36.932  12.527
19284W        W87702  44.265  22.578  12.008
19285W        W87703  34.520  29.517   3.153
19286W        W87704  31.557  10.838   3.166
19287W        W87705   2.234  19.158   3.848
19288W        W87706  16.677  41.936  14.500
19289W        W87707  44.321  35.033  10.603
19290W        W87708  35.899  37.516  14.974
19291W        W87709  17.612  26.190  11.462
19292W        W87710  43.326  42.378   3.730
19293W        W87711  10.879  24.594   4.233
19294W        W87712  22.716  13.271  11.493
19295W        W87713   9.345  37.973  14.929
19296W        W87714  27.651  38.882  13.535
19297W        W87715  38.489   9.686   4.176
19298W        W87716  40.519   1.764  11.890
19299W        W87717   7.900  13.725   0.795
19300W        W87718  19.710   0.353  13.351
19301W        W87719  30.084  21.063  14.420
19302W        W87720  44.362  20.556   4.653
19303W        W87721  37.027  24.202  12.419
19304W        W87722  32.499   5.697  12.345
19305W        W87723   1.793   8.232   3.154
19306W        W87724  38.505  23.629  13.545
19307W        W87725  22.590  20.078  13.966
19308W        W87726  14.184  19.225   1.349
19309W        W87727  14.652  24.672  14.360
19310W        W87728  17.660  14.608   4.257
19311W        W87729  15.818   8.770  10.417
19312W        W87730  41.040   3.886  13.321
19313W        W87731  24.199  32.521   3.315
19314W        W87732   5.342  42.855   4.199
19315W        W87733  33.092  17.249  13.432
19316W        W87734  34.453   7.799   1.720
19317W        W87735  23.121  25.648   3.160
19318W        W87736  36.457  44.304  13.004
19319W        W87737   0.748  40.535   3.324
19320W        W87738  32.595  24.564   0.905
19321W        W87739  32.625  18.565   0.891
19322W        W87740   8.664  25.470  12.533
19323W        W87741  43.515   0.256  14.768
19324W        W87742  17.689  15.130   1.254
19325W        W87743  30.971   4.887   4.172
19326W        W87744  24.106  20.236  13.349
19327W        W87745  37.342  32.049  14.423
19328W        W87746  16.795  36.082  13.975
19329W        W87747  21.753  27.612   3.869
19330W        W87748  33.520  17.621   1.242
19331W        W87749  11.865  24.602   0.354
19332W        W87750   6.403  23.592  13.831
19333W        W87751  10.183   4.938  13.414
19334W        W87752  41.398  13.217   0.816
19335W        W87753  30.464  23.146  13.899
19336W        W87754   4.708  26.107   3.244
19337W        W87755  15.660  13.820   3.371
19338W        W87756   5.766  21.035  12.390
19339W        W87757  24.061  18.652  12.824
19340W        W87758   4.443   3.811   4.778
19341W        W87759   1.903   5.231  12.862
19342W        W87760   6.800  13.339  12.463
19343W        W87761  15.320  14.810   3.754
19344W        W87762  21.244  38.942  11.499
19345W        W87763  16.581   5.302  10.550
19346W        W87764  44.438  30.523  10.921
19347W        W87765  16.593  10.164  14.306
19348W        W87766   0.441  26.132  13.899
19349W        W87767  39.475  44.939  10.956
19350W        W87768  13.626  29.607   4.139
19351W        W87769  20.137   4.775   0.422
19352W        W87770  44.399  44.473   2.287
19353W        W87771  21.736  40.327  12.864
19354W        W87772  34.923  36.881   3.659
19355W        W87773  28.452  20.040  12.954
19356W        W87774  21.652  19.284   1.412
19357W        W87775   8.254  43.765  13.972
19358W        W87776  11.365  21.571  10.471
19359W        W87777  39.947  26.495  11.062
19360W        W87778  26.158  42.504   3.643
19361W        W87779  23.142  16.114   1.757
19362W        W87780  14.589  36.490   4.192
19363W        W87781  28.011  10.633  11.430
19364W        W87782  11.693  31.536  12.448
19365W        W87783  25.126  32.946  14.023
19366W        W87784   6.908  10.336   2.800
19367W        W87785   5.234  27.575   4.633
19368W        W87786  40.895  43.396  12.047
19369W        W87787  29.027  11.679  12.966
19370W        W87788  20.600  22.539   1.272
19371W        W87789  34.452   1.853   2.755
19372W        W87790  10.825  13.807   0.333
19373W        W87791  44.354  27.511   2.888
19374W        W87792   1.818  33.073  12.391
19375W        W87793  24.067  31.571  12.440
19376W        W87794  11.298  29.962   3.250
19377W        W87795  16.652   8.196  12.439
19378W        W87796  33.579  17.740   1.751
19379W        W87797   3.914  39.386  10.432
19380W        W87798  22.159  21.619  13.849
19381W        W87799  25.506  13.683   0.784
19382W        W87800  44.757  21.695  12.526
19383W        W87801  16.181  14.659  13.522
19384W        W87802  25.683  12.714  12.890
19385W        W87803  23.021   8.708  13.355
19386W        W87804  26.111  40.812  11.576
19387W        W87805   0.488  12.702   1.353
19388W        W87806  13.108  33.504   2.680
19389W        W87807   5.844  43.851   2.302
19390W        W87808  38.012  29.628   3.316
19391W        W87809  10.141  19.055  11.104
19392W        W87810  11.649  42.323  11.113
19393W        W87811  21.254  16.237  13.893
19394W        W87812  44.800  14.264   0.319
19395W        W87813  16.673  19.768   1.748
19396W        W87814   8.790  13.807   4.346
19397W        W87815   6.837   3.357   0.745
19398W        W87816  10.259  33.979   3.240
19399W        W87817  36.364  18.235   2.396
19400W        W87818  30.948  26.621   1.869
19401W        W87819   6.283   0.957  12.991
19402W        W87820  22.555  11.257   3.820
19403W        W87821  34.033   3.250  14.286
19404W        W87822   9.739  36.074  13.907
19405W        W87823   5.773  16.664  14.357
19406W        W87824   0.354  24.617  13.428
19407W        W87825  27.960   4.392  10.626
19408W        W87826  36.513   2.959  14.866
19409W        W87827  31.468  41.893   2.199
19410W        W87828  38.554  17.251  13.866
19411W        W87829  32.522  28.134   1.750
19412W        W87830  10.830   2.324   4.705
19413W        W87831  23.665  24.166  11.908
19414W        W87832  42.945   6.421   2.350
19415W        W87833  32.561  35.086   1.728
19416W        W87834  25.006  38.020  13.993
19417W        W87835  43.275  14.282   1.725
19418W        W87836  28.183  33.950   4.779
19419W        W87837  44.871   9.796  11.022
19420W        W87838  25.204   7.206   4.720
19421W        W87839   8.245  34.039  14.844
19422W        W87840   7.223  20.186  14.351
19423W        W87841  41.923  40.398   0.364
19424W        W87842   3.291  26.569  14.883
19425W        W87843  19.705  14.807   1.374
19426W        W87844  32.972  39.511  12.456
19427W        W87845  16.696  31.562  11.009
19428W        W87846  21.693   2.233  14.990
19429W        W87847  20.197  14.597  11.561
19430W        W87848  21.212  11.335  11.074
19431W        W87849  44.430  43.861  13.867
19432W        W87850  10.720  37.481  10.559
19433W        W87851  13.628  13.231  11.573
19434W        W87852   0.261  25.142   4.205
19435W        W87853  16.161  30.962  14.921
19436W        W87854  43.341  33.618  14.766
19437W        W87855  26.459  12.737   2.744
19438W        W87856  23.680  35.992  13.801
19439W        W87857  30.561   5.916   2.892
19440W        W87858  19.724  44.940  12.350
19441W        W87859   2.796   9.321   1.396
19442W        W87860   1.369  28.011  11.412
19443W        W87861  37.458  20.623   4.755
19444W        W87862   1.409  35.031  12.860
19445W        W87863  26.551  17.672  11.389
19446W        W87864  35.979  21.074  11.063
19447W        W87865  41.337   7.894  10.952
19448W        W87866  33.573   5.294  11.881
19449W        W87867   6.919  26.471   1.403
19450W        W87868  21.524  23.492   0.780
19451W        W87869   8.377  28.576  11.588
19452W        W87870  34.615  38.969   2.668
19453W        W87871  37.845   9.284   1.256
19454W        W87872  18.786  32.900  12.520
19455W        W87873   0.362   2.453   4.176
19456W        W87874  18.620  26.655  11.927
19457W        W87875  19.058  37.501  10.639
19458W        W87876  40.919  42.018  12.079
19459W        W87877  35.368  41.491   1.894
19460W        W87878  10.270  24.116   1.409
19461W        W87879  36.863  16.159  11.983
19462W        W87880  23.660  26.582   3.629
19463W        W87881  17.714  28.601   1.721
19464W        W87882  35.015   6.863   0.264
19465W        W87883  22.639  11.710  11.992
19466W        W87884  13.264  27.104  10.598
19467W        W87885  10.317   8.323   1.420
19468W        W87886  37.018   6.735  12.406
19469W        W87887  18.769  27.655   4.672
19470W        W87888  33.114   4.827  11.535
19471W        W87889  41.969  32.446   4.784
19472W        W87890   4.834   0.980  12.950
19473W        W87891  32.567  20.037  13.525
19474W        W87892  28.014   1.957   9.974
19475W        W87893  23.100  27.636  12.506
19476W        W87894  41.934  40.426  12.981
19477W        W87895  15.799  21.560  14.471
19478W        W87896   8.203  22.604  14.788
19479W        W87897   5.841  43.431   3.283
19480W        W87898  32.064  29.529  10.455
19481W        W87899  21.652  33.574   1.327
19482W        W87900  22.708  13.274  14.276
19483W        W87901  18.761  41.526   4.711
19484W        W87902  23.527  37.459  10.928
19485W        W87903  29.994  41.313  11.074
19486W        W87904   3.257  44.378  14.916
19487W        W87905  38.057  28.545  10.620
19488W        W87906  42.813   7.819  14.010
19489W        W87907  33.878  12.722   2.834
19490W        W87908  13.319  11.156  10.429
19491W        W87909  31.543  39.946   1.751
19492W        W87910  28.053  16.663   2.897
19493W        W87911  14.116   8.210   2.368
19494W        W87912  23.567  21.544  11.583
19495W        W87913  26.200  16.302   1.901
19496W        W87914  41.313  11.313  14.883
19497W        W87915  31.470   2.229  14.410
19498W        W87916  14.591  39.004   0.342
19499W        W87917  13.270   8.776  10.915
19500W        W87918  12.638  38.911   3.836
19501W        W87919  44.920   6.735  14.338
19502W        W87920  14.652   5.866  11.437
19503W        W87921  21.074   7.878  10.966
19504W        W87922   2.944  14.291   4.802
19505W        W87923  41.454   3.906   3.809
19506W        W87924  20.105  16.100   4.275
19507W        W87925  16.174  26.514   3.235
19508W        W87926  33.989  13.327  12.964
19509W        W87927  19.578  12.354  12.366
19510W        W87928   9.356  22.138  14.782
19511W        W87929  36.930  38.920  13.848
19512W        W87930   0.296  30.037  13.320
19513W        W87931   3.295  10.809   1.771
19514W        W87932  44.843   4.724  13.897
19515W        W87933  19.600  15.148   2.206
19516W        W87934  28.148  16.310   2.780
19517W        W87935   6.822  13.237   2.416
19518W        W87936  43.004  40.471   0.913
19519W        W87937   4.858  13.830  10.502
19520W        W87938  13.191  12.208   0.881
19521W        W87939   2.849  32.059   3.869
19522W        W87940   3.315  38.869   0.477
19523W        W87941  37.897  15.649  12.071
19524W        W87942  30.552  44.480   2.867
19525W        W87943   2.783  26.132   1.348
19526W        W87944  30.072   4.323  14.516
19527W        W87945  12.681  36.540   0.737
19528W        W87946  42.290  30.910  12.544
19529W        W87947  40.462  19.057   2.415
19530W        W87948  30.585  30.988  11.442
19531W        W87949  17.303  23.157   2.333
19532W        W87950   7.901  33.914   0.332
19533W        W87951  32.059  32.543  13.926
19534W        W87952  43.337  20.699   1.445
19535W        W87953  43.276  25.178   1.256
19536W        W87954  36.841  26.196  13.451
19537W        W87955   3.300  42.495  12.060
19538W        W87956   1.750  40.866  10.533
19539W        W87957   5.790  12.671  11.889
19540W        W87958  25.657  32.572   2.240
19541W        W87959  29.012  34.903  11.603
19542W        W87960   4.339  22.528  11.569
19543W        W87961   5.899  32.392  13.400
19544W        W87962  39.462  31.531  11.036
19545W        W87963  35.411  23.241   0.824
19546W        W87964  10.669  40.858   2.715
19547W        W87965  17.084  41.816  14.439
19548W        W87966  27.547  44.433   2.191
19549W        W87967  34.380  33.459  11.472
19550W        W87968  23.549  32.431   2.256
19551W        W87969   7.876  31.516   2.789
19552W        W87970  17.280  29.439   1.723
19553W        W87971  36.061   3.786  11.589
19554W        W87972  15.770  30.913   1.275
19555W        W87973  26.564   2.427  14.360
19556W        W87974   6.334  13.213  13.468
19557W        W87975  18.697  40.357   5.211
19558W        W87976  29.007   7.844  12.060
19559W        W87977  28.454  34.551   0.322
19560W        W87978  24.639  35.012  13.931
19561W        W87979   9.651  10.265   5.265
19562W        W87980  20.211  25.565  13.878
19563W        W87981  14.777  27.954  10.139
19564W        W87982  42.471  29.082   2.236
19565W        W87983   7.221  42.869  12.424
19566W        W87984  20.716   0.815  13.450
19567W        W87985  42.833  27.949  10.892
19568W        W87986  12.147  29.455   0.919
19569W        W87987  25.514  33.536   2.389
19570W        W87988  17.662  38.984   0.804
19571W        W87989  22.563   2.796  10.926
19572W        W87990  22.649  15.639   0.750
19573W        W87991  33.548  44.354  10.551
19574W        W87992  21.706  12.826   1.437
19575W        W87993  16.262  40.951  14.486
19576W        W87994  34.557  20.600  12.478
19577W        W87995  39.960  43.340  12.457
19578W        W87996  32.409  11.184   0.445
19579W        W87997  22.659  24.111  11.083
19580W        W87998  24.048  23.203   0.908
19581W        W87999  20.119  18.770  13.984
19582W        W88000  38.046  16.318  11.427
19583W        W88001  41.927  20.273  11.438
19584W        W88002  11.759  20.742  13.538
19585W        W88003  36.535  22.600  13.546
19586W        W88004  26.611  39.937  11.534
19587W        W88005  22.549  23.702  13.816
19588W        W88006  41.462   3.845  14.911
19589W        W88007  27.455  17.732  11.113
19590W        W88008   6.279  40.347   2.804
19591W        W88009  13.176  20.636  14.488
19592W        W88010  44.758  11.261  12.388
19593W        W88011  28.100   3.811   2.286
19594W        W88012  18.074   7.666  14.431
19595W        W88013  13.842  20.143   3.717
19596W        W88014  12.254  17.253   0.884
19597W        W88015  19.620  18.120  14.006
19598W        W88016   3.274  40.542  11.567
19599W        W88017  28.065  24.175   5.272
19600W        W88018  40.369  40.525   3.687
19601W        W88019  14.762  20.223  10.973
19602W        W88020  23.713  32.973   3.337
19603W        W88021   2.401   3.831   0.879
19604W        W88022  12.248  24.609   0.774
19605W        W88023  24.631   5.344  12.936
19606W        W88024   1.267  31.448   2.216
19607W        W88025  16.679  28.626  13.035
19608W        W88026  31.067  44.869   3.652
19609W        W88027   5.866  22.677   2.738
19610W        W88028   7.861  14.141   0.959
19611W        W88029   0.907  23.616   1.858
19612W        W88030   5.300  44.349  10.908
19613W        W88031  25.987  43.887  13.892
19614W        W88032  25.975  29.924  13.846
19615W        W88033  28.965  39.509  14.900
19616W        W88034  17.682  11.650   4.645
19617W        W88035   7.296   7.676   1.786
19618W        W88036  22.193  42.318   2.739
19619W        W88037  14.612  43.950   0.845
19620W        W88038  30.483  37.430  11.442
19621W        W88039  20.183   4.362  12.876
19622W        W88040   4.808  41.935  14.402
19623W        W88041  23.172  28.958   4.348
19624W        W88042  18.266   6.861   4.776
19625W        W88043  39.421  22.052  13.314
19626W        W88044  43.800  39.874  10.093
19627W        W88045   7.785  21.722   4.125
19628W        W88046  20.707  42.976   3.192
19629W        W88047  25.984  26.591   2.808
19630W        W88048  28.167   2.752   0.754
19631W        W88049  25.548  18.609  13.506
19632W        W88050  19.272  19.211  11.535
19633W        W88051  13.299  10.861   0.882
19634W        W88052  18.578  13.667  11.109
19635W        W88053  36.944  27.627   2.312
19636W        W88054  28.078  20.055  12.389
19637W        W88055  17.748  17.293  10.454
19638W        W88056   8.766  24.682  14.980
19639W        W88057   6.889  19.751  11.552
19640W        W88058  20.580  14.821  10.996
19641W        W88059  43.329  18.672  10.088
19642W        W88060  11.759  26.481   4.735
19643W        W88061  36.407   4.354   4.255
19644W        W88062   4.782  28.082   1.758
19645W        W88063  43.493  14.822  11.910
19646W        W88064  28.994  17.677  12.531
19647W        W88065   1.477  29.568   3.381
19648W        W88066   3.850  28.165  10.435
19649W        W88067  11.208  26.602   1.925
19650W        W88068  13.271  12.215  12.368
19651W        W88069   0.360   3.423   3.318
19652W        W88070  11.248  10.373   4.327
19653W        W88071  42.509   1.455  12.399
19654W        W88072   8.189  21.705   0.915
19655W        W88073  44.947  39.510   0.395
19656W        W88074  34.427  10.287  12.516
19657W        W88075  43.422  17.250   3.752
19658W        W88076   7.694  16.272  11.995
19659W        W88077  40.989  32.969  13.006
19660W        W88078  41.795   5.269   1.890
19661W        W88079   4.294  29.509   0.955
19662W        W88080  21.170   5.418  11.381
19663W        W88081  21.251  12.788   2.217
19664W        W88082  41.447  32.006   3.283
19665W        W88083  28.490  31.506  10.633
19666W        W88084   9.827  22.142   4.196
19667W        W88085  17.661   8.356  14.499
19668W        W88086  28.056  18.767  14.868
19669W        W88087  23.661  13.717   1.287
19670W        W88088  16.724  12.317  12.404
19671W        W88089  38.542   9.683  13.890
19672W        W88090  31.100   8.250  11.981
19673W        W88091  10.878  24.081   3.153
19674W        W88092  27.052  29.538  14.789
19675W        W88093  29.167  11.682  12.028
19676W        W88094   2.381  35.404   1.393
19677W        W88095  34.494   0.811  11.857
19678W        W88096  27.122   1.933   3.746
19679W        W88097  44.940  28.180  10.419
19680W        W88098   3.392  40.372  11.994
19681W        W88099   1.392   3.905   1.704
19682W        W88100  38.549  13.148   1.919
19683W        W88101  42.285  12.646   2.810
19684W        W88102   5.233  30.494  14.970
19685W        W88103  17.260  26.570  12.951
19686W        W88104  19.548  23.581  11.593
19687W        W88105   1.284  25.552   0.933
19688W        W88106  28.597  41.864  11.489
19689W        W88107  11.147  37.484   1.404
19690W        W88108  21.657  35.530   2.409
19691W        W88109  24.528  44.800  11.927
19692W        W88110  34.087  34.052  11.448
19693W        W88111  34.943  10.306  12.412
19694W        W88112  26.601  26.548   0.391
19695W        W88113  27.192  12.770   2.284
19696W        W88114  33.118  11.224   4.683
19697W        W88115  28.119  31.502  11.076
19698W        W88116   4.810   4.333  11.092
19699W        W88117  27.012  44.913  13.915
19700W        W88118  20.614  41.323  13.824
19701W        W88119   7.409  26.660  11.868
19702W        W88120  10.713  25.101   4.149
19703W        W88121  10.144   0.883  12.033
19704W        W88122  35.575  35.087  12.476
19705W        W88123  11.807   4.865  14.488
19706W        W88124   0.450  44.304  10.900
19707W        W88125  39.945  37.987   3.224
19708W        W88126  41.930  26.531  13.839
19709W        W88127   8.224   1.345   4.655
19710W        W88128   5.414  15.606  13.018
19711W        W88129  40.544   9.846  14.828
19712W        W88130  38.953  10.749  13.051
19713W        W88131   0.754  16.582   1.439
19714W        W88132  43.824  11.835  12.922
19715W        W88133  25.481  13.666   4.338
19716W        W88134  18.642  19.648   2.680
19717W        W88135  18.694   5.382  10.513
19718W        W88136  25.088  13.246   1.747
19719W        W88137  33.438  13.821   4.291
19720W        W88138  20.045   9.765  12.537
19721W        W88139  38.903   3.387   3.301
19722W        W88140  32.490   0.421   4.330
19723W        W88141  13.309  23.536  12.355
19724W        W88142  16.594  17.683   1.739
19725W        W88143   1.323  37.965   1.898
19726W        W88144  27.587  40.030   3.186
19727W        W88145  23.674   8.806   2.344
19728W        W88146  21.038  38.060   5.290
19729W        W88147  33.904  26.988   4.680
19730W        W88148  19.112  17.235   3.830
19731W        W88149  14.733   1.952   5.294
19732W        W88150   8.246  38.958  11.992
19733W        W88151   0.865   2.744  13.532
19734W        W88152   1.753  44.378  11.026
19735W        W88153   4.362  13.253   2.876
19736W        W88154  36.083  21.197   3.744
19737W        W88155  38.975  26.620   4.755
19738W        W88156  13.250  27.095  12.849
19739W        W88157  29.029   3.830  13.046
19740W        W88158  10.690  37.373  12.840
19741W        W88159  30.012   5.379  11.543
19742W        W88160  14.280  24.545  11.472
19743W        W88161  25.679  22.658   9.999
19744W        W88162   3.783  26.997   2.282
19745W        W88163  26.064  30.116   4.644
19746W        W88164  32.084  16.259  14.998
19747W        W88165   5.376  17.090  12.971
19748W        W88166  44.932  16.313  13.446
19749W        W88167  10.325  14.676   3.312
19750W        W88168  28.511  35.989  13.000
19751W        W88169  33.879  43.478   1.435
19752W        W88170  41.000  28.177  12.540
19753W        W88171  29.567   4.733  11.442
19754W        W88172  30.505  32.018   4.326
19755W        W88173  22.088  25.529   0.960
19756W        W88174  16.257  13.311   1.265
19757W        W88175   5.697  39.383  11.515
19758W        W88176  11.769  24.201  14.825
19759W        W88177  24.199   5.293   3.257
19760W        W88178  15.326  36.911  14.888
19761W        W88179  33.406  13.794   0.397
19762W        W88180   1.357  22.609   2.209
19763W        W88181  30.537  25.658  11.049
19764W        W88182  22.665  25.654   2.410
19765W        W88183  24.627  18.240  13.873
19766W        W88184  29.435  39.943  14.956
19767W        W88185  24.142   4.822  10.924
19768W        W88186  21.610   9.338  13.039
19769W        W88187  13.108  38.502  12.480
19770W        W88188   2.798  17.297   2.384
19771W        W88189  38.424  32.952  13.517
19772W        W88190  34.064   6.298  12.543
19773W        W88191  38.857  17.598   3.740
19774W        W88192  39.823  31.952  12.345
19775W        W88193  33.393  41.441  10.914
19776W        W88194  18.288  13.629   4.156
19777W        W88195  35.900  41.402  10.583
19778W        W88196  34.908  12.616  11.915
19779W        W88197  33.428  28.533   1.311
19780W        W88198   7.247  38.073  12.070
19781W        W88199  26.551  27.152  13.514
19782W        W88200  35.506  42.381   3.668
19783W        W88201  29.080  41.020   0.326
19784W        W88202  32.577   3.337   2.771
19785W        W88203  35.075  40.311  11.441
19786W        W88204  24.587   2.411   0.932
19787W        W88205  18.286  26.508   0.730
19788W        W88206  20.668  12.641  14.022
19789W        W88207   0.354  43.380   3.870
19790W        W88208  29.128  33.059  12.421
19791W        W88209  31.578   6.198   4.243
19792W        W88210  12.227  22.727   0.930
19793W        W88211  26.656  14.797   0.348
19794W        W88212  39.317  29.172  11.491
19795W        W88213  30.436  11.233   3.207
19796W        W88214  28.104  27.991   4.818
19797W        W88215  31.467  25.655  10.495
19798W        W88216  10.812  20.204   2.695
19799W        W88217  15.202  21.026  14.911
19800W        W88218   7.234   7.328   2.800
19801W        W88219  41.530  19.539  13.998
19802W        W88220  23.083   0.390   4.314
19803W        W88221  26.199   7.856  12.084
19804W        W88222  43.915   9.238   1.847
19805W        W88223   4.448  41.437  11.503
19806W        W88224   3.823  15.715   1.933
19807W        W88225   6.791  16.272   2.779
19808W        W88226  14.703  27.949  11.375
19809W        W88227  40.049   6.825   3.843
19810W        W88228  12.198  18.118  10.574
19811W        W88229   9.219  40.801   1.853
19812W        W88230  25.106  42.992  12.544
19813W        W88231   5.251  21.221   0.838
19814W        W88232  32.557  34.407   2.716
19815W        W88233  11.819  29.644   1.384
19816W        W88234  30.508  32.060   0.843
19817W        W88235  19.049  28.094   1.710
19818W        W88236  21.536  39.910   4.718
19819W        W88237  12.270  39.966   3.297
19820W        W88238  12.126  11.819   3.815
19821W        W88239   9.719  21.251   3.356
19822W        W88240  39.435  21.174   3.206
19823W        W88241   1.363   6.815  12.389
19824W        W88242   0.886   7.671  13.504
19825W        W88243  12.659  33.546  11.909
19826W        W88244  28.580  26.532  13.010
19827W        W88245  13.680  30.474   4.803
19828W        W88246   6.759   0.466   1.727
19829W        W88247  41.883  37.947  13.971
19830W        W88248   5.373  16.619   1.933
19831W        W88249  39.418  12.699  14.778
19832W        W88250  31.604   5.770   1.934
19833W        W88251  17.612  43.885   0.403
19834W        W88252  18.114  30.060  13.809
19835W        W88253  13.671  29.065  13.831
19836W        W88254  13.280  14.306   0.376
19837W        W88255  44.388  27.121  14.967
19838W        W88256  16.578  30.475  10.448
19839W        W88257   0.759  41.790   2.864
19840W        W88258  23.595  40.433   3.703
19841W        W88259  18.196  13.133  10.494
19842W        W88260  20.744  40.417   1.765
19843W        W88261  34.509  42.846   4.271
19844W        W88262  15.783  44.983   1.893
19845W        W88263  30.456  34.533   2.406
19846W        W88264  27.637   1.390   1.301
19847W        W88265  33.509  23.734   0.889
19848W        W88266  36.959  35.874  14.994
19849W        W88267  23.041  17.115  14.489
19850W        W88268  10.682  43.385  11.029
19851W        W88269  38.895  19.713   3.204
19852W        W88270  14.658  17.753   2.291
19853W        W88271  19.148   3.810   1.901
19854W        W88272   8.864  14.592   2.348
19855W        W88273  14.256  31.928  10.547
19856W        W88274  14.592   2.740  14.458
19857W        W88275  27.012  32.041   2.275
19858W        W88276  37.582  11.777   5.183
19859W        W88277  24.508  12.346   1.859
19860W        W88278  41.514   6.392  13.320
19861W        W88279  33.914  38.362  11.108
19862W        W88280  20.090   9.853  10.491
19863W        W88281  38.023  27.095  12.380
19864W        W88282  24.999  43.437  13.346
19865W        W88283  29.043  35.059   3.357
19866W        W88284   2.363  29.475  12.373
19867W        W88285  36.420  35.896   1.216
19868W        W88286  17.213  27.006   4.622
19869W        W88287  35.439  41.375   0.281
19870W        W88288  25.503  16.090  14.492
19871W        W88289  14.640   6.384  12.946
19872W        W88290  28.089  22.054   2.215
19873W        W88291  24.528   4.263   2.798
19874W        W88292  11.734  25.695   0.397
19875W        W88293  20.211  42.870   4.253
19876W        W88294  43.791  19.208  10.531
19877W        W88295  22.035  38.941  10.480
19878W        W88296  26.977  37.421   2.712
19879W        W88297  40.940  13.126  14.484
19880W        W88298  25.189  34.452   2.208
19881W        W88299   9.334   3.335  12.023
19882W        W88300   8.839   7.870  10.947
19883W        W88301  24.148  21.109  14.422
19884W        W88302  38.558  29.613  12.981
19885W        W88303  31.998  41.788  10.465
19886W        W88304  13.237  28.532  14.945
19887W        W88305  22.111  43.893   4.639
19888W        W88306  28.941   0.936   0.330
19889W        W88307  24.218  23.587  14.451
19890W        W88308  41.471  21.576  12.526
19891W        W88309  36.025  19.117   4.781
19892W        W88310  33.044  22.573   2.671
19893W        W88311  39.461   8.771   4.622
19894W        W88312  21.089  37.951  13.883
19895W        W88313   9.881  11.300   1.308
19896W        W88314  28.935  26.959   1.854
19897W        W88315  31.131   9.799   4.133
19898W        W88316  11.357   0.490  10.597
19899W        W88317  35.074  11.267  12.980
19900W        W88318   6.777  24.040   1.278
19901W        W88319  33.875  15.160  13.830
19902W        W88320   1.328  41.788  13.473
19903W        W88321  18.573   9.273  12.045
19904W        W88322  19.058  35.945  13.851
19905W        W88323   0.746  30.491  11.942
19906W        W88324  15.310   2.874   3.678
19907W        W88325  39.817  16.075  11.574
19908W        W88326  37.566  42.964  14.837
19909W        W88327   9.801  20.596   4.788
19910W        W88328  35.087   8.360   0.290
19911W        W88329  43.341  34.432   3.279
19912W        W88330  18.662  43.496   0.734
19913W        W88331   7.796   3.802   3.159
19914W        W88332   5.787   7.316   4.169
19915W        W88333  43.942  19.191  14.336
19916W        W88334  32.433  32.005  13.916
19917W        W88335  20.077  10.784  11.455
19918W        W88336  18.109  38.970   2.307
19919W        W88337   1.483  44.768  12.879
19920W        W88338   1.409  28.131   1.778
19921W        W88339  29.470  29.637  11.889
19922W        W88340  34.492  28.065   0.858
19923W        W88341  16.148  28.948  14.961
19924W        W88342  16.721  28.675  12.404
19925W        W88343  35.986   5.439   4.140
19926W        W88344  12.819   2.780  11.460
19927W        W88345   3.292  31.043   3.832
19928W        W88346  39.380   3.922  12.043
19929W        W88347  44.836  21.022   1.775
19930W        W88348  22.024  26.536   3.235
19931W        W88349  20.643  44.967   1.340
19932W        W88350  34.868  39.324  12.399
19933W        W88351   6.197  10.870   3.835
19934W        W88352   9.661  28.543   4.159
19935W        W88353  15.757  23.670  13.505
19936W        W88354  32.112  29.152   2.249
19937W        W88355   3.432  39.496   2.400
19938W        W88356   8.863  31.018   1.732
19939W        W88357  40.933  17.617   3.727
19940W        W88358  35.933  23.617  14.368
19941W        W88359   8.815   9.752   1.756
19942W        W88360  21.568  31.148  11.375
19943W        W88361  23.714  33.483  12.996
19944W        W88362  34.099  35.032   1.421
19945W        W88363  20.268  35.030   0.867
19946W        W88364  34.037  36.510  14.308
19947W        W88365   2.844   3.223   1.904
19948W        W88366  23.025  43.284  14.508
19949W        W88367  12.815  35.036   0.727
19950W        W88368  23.028   2.889  11.559
19951W        W88369  44.883  21.133   0.769
19952W        W88370  30.987  31.027  14.824
19953W        W88371  17.224  12.730   1.743
19954W        W88372  14.269  30.043   3.326
19955W        W88373   6.805  40.956   3.169
19956W        W88374  19.721  44.926  14.332
19957W        W88375  34.054  28.461  10.506
19958W        W88376  35.514  17.139   1.258
19959W        W88377  23.686  35.568  11.936
19960W        W88378  21.605  36.460   1.377
19961W        W88379  40.010  36.934  11.937
19962W        W88380  10.835  35.034  12.903
19963W        W88381  10.206  18.765  14.950
19964W        W88382  17.213  10.171   3.147
19965W        W88383   1.297  35.535  13.453
19966W        W88384   4.865  35.444   1.322
19967W        W88385  17.761  16.085   1.317
19968W        W88386  42.390   9.309   4.790
19969W        W88387  39.048  22.586  13.056
19970W        W88388  10.669  30.544  11.609
19971W        W88389  31.904  16.267   2.667
19972W        W88390   1.834  11.857   3.171
19973W        W88391  28.934  28.129   2.749
19974W        W88392  11.724  34.942   0.437
19975W        W88393  29.954  10.147  13.901
19976W        W88394  30.417  10.174  10.575
19977W        W88395   1.822  41.348   3.243
19978W        W88396  39.481  22.010  11.942
19979W        W88397  16.202  35.496  11.590
19980W        W88398  40.983  34.482   3.773
19981W        W88399  42.814  42.518  14.445
19982W        W88400   9.748  25.596   0.469
19983W        W88401   7.753  44.284  14.317
19984W        W88402  33.028  23.998  14.440
19985W        W88403   1.451  25.586  13.901
19986W        W88404  10.299  13.253   4.346
19987W        W88405  20.642  22.170  11.570
19988W        W88406  33.618   8.319   2.310
19989W        W88407  39.931   8.184   1.830
19990W        W88408   0.783  11.649   3.154
19991W        W88409  21.641   8.694  11.000
19992W        W88410  15.700   6.877   1.908
19993W        W88411  36.875  33.035  11.000
19994W        W88412  20.063  11.301  13.975
19995W        W88413  32.029  22.562  14.013
19996W        W88414  38.395  26.145   1.392
19997W        W88415  34.875  29.436   0.808
19998W        W88416  15.640  36.358  10.997
19999W        W88417   3.872  12.818  11.932
20000W        W88418   7.756  37.087   1.451
20001W        W88419  29.985  13.804   1.800
20002W        W88420   9.852   1.394  11.887
20003W        W88421   8.891  40.418  10.451
20004W        W88422  11.179   3.390  14.929
20005W        W88423  40.448  14.694   0.410
20006W        W88424  15.292  19.698  14.289
20007W        W88425   5.775  39.869   4.224
20008W        W88426  30.140  18.292  12.560
20009W        W88427  10.785  10.295   0.315
20010W        W88428  17.212  30.601  13.507
20011W        W88429  20.168  41.008   1.306
20012W        W88430  34.955  32.057   3.731
20013W        W88431  20.539  15.273   4.744
20014W        W88432   6.883  17.570  11.452
20015W        W88433  38.448  37.998   1.788
20016W        W88434  38.888  41.796   3.664
20017W        W88435  33.024  11.734   2.889
20018W        W88436  44.925  26.608   1.841
20019W        W88437  43.969   1.345   3.264
20020W        W88438  38.514  27.112  10.630
20021W        W88439   3.904  26.024  14.976
20022W        W88440   9.358   3.268   0.751
20023W        W88441  29.084  32.010   4.693
20024W        W88442   0.410  20.681  10.098
20025W        W88443  29.491  19.742  10.524
20026W        W88444  24.096  11.321  13.994
20027W        W88445  17.683  26.138  10.912
20028W        W88446  38.044  18.154  10.572
20029W        W88447  39.406  36.444   1.904
20030W        W88448  27.149  41.382  14.498
20031W        W88449  20.747  14.608   3.154
20032W        W88450  29.146  17.087   2.222
20033W        W88451  25.134  17.215   1.417
20034W        W88452  22.690   6.404   2.829
20035W        W88453  41.855   4.265   1.899
20036W        W88454  35.491  43.980   0.319
20037W        W88455  43.442  33.477   0.911
20038W        W88456  22.148  40.342  10.431
20039W        W88457  17.560  12.792   3.333
20040W        W88458  29.175  31.919  11.417
20041W        W88459  33.082   9.655  12.483
20042W        W88460  28.023  15.178   4.742
20043W        W88461  25.618  37.514  11.122
20044W        W88462  21.645  31.930   0.740
20045W        W88463  14.621  33.984   2.366
20046W        W88464  23.655  44.801   1.823
20047W        W88465   0.483  31.080   4.354
20048W        W88466   7.899  39.863  14.334
20049W        W88467  29.146   6.904  13.336
20050W        W88468  44.804   2.321   0.284
20051W        W88469  12.738  24.621  13.541
20052W        W88470  44.850  39.527   1.902
20053W        W88471  33.938  44.787  11.980
20054W        W88472  37.507   2.268  10.493
20055W        W88473   0.890  39.054  12.887
20056W        W88474  29.136   1.840   2.688
20057W        W88475  22.641  42.296   2.768
20058W        W88476   3.421  37.577  10.012
20059W        W88477  23.504   4.238   4.601
20060W        W88478  14.626  10.638   3.387
20061W        W88479  15.181   4.394   2.809
20062W        W88480  28.068  44.921  13.531
20063W        W88481   4.943  11.140  13.424
20064W        W88482  39.905   3.870   0.377
20065W        W88483  42.313  39.990  13.536
20066W        W88484  30.909  29.592  13.920
20067W        W88485   2.933  25.619  13.814
20068W        W88486  11.812  13.814   2.266
20069W        W88487  38.459  13.824  13.899
20070W        W88488   5.695  23.088   2.274
20071W        W88489  20.215  41.885  11.918
20072W        W88490   9.717  32.916   0.277
20073W        W88491  18.710  11.164  10.460
20074W        W88492  38.859  33.052  12.025
20075W        W88493  44.404  26.564   4.247
20076W        W88494  21.249  29.919   1.806
20077W        W88495  31.063   0.281  14.797
20078W        W88496  40.935  15.326  11.017
20079W        W88497   6.202  34.589  14.422
20080W        W88498  33.490  36.046  13.026
20081W        W88499   4.347   9.885  10.444
20082W        W88500   5.322  11.850  12.957
20083W        W88501  31.472  31.923  11.010
20084W        W88502  18.110  37.395   3.165
20085W        W88503   6.214  24.514   1.752
20086W        W88504  25.083  33.048   2.863
20087W        W88505  11.679  19.713   1.348
20088W        W88506   7.305  35.023  12.852
20089W        W88507  31.406  12.780  10.639
20090W        W88508  18.116   8.403  12.950
20091W        W88509  16.286   4.725  10.913
20092W        W88510  34.511  34.440   4.114
20093W        W88511  38.001   9.651   0.911
20094W        W88512  16.605  32.532  12.450
20095W        W88513  27.983  34.488  10.505
20096W        W88514   4.397  17.740   4.788
20097W        W88515  15.318   0.829   2.673
20098W        W88516  17.243   7.304  10.967
20099W        W88517  33.922  22.012  11.053
20100W        W88518  27.517  40.389  12.568
20101W        W88519  31.442  36.950   2.765
20102W        W88520  42.325  18.245   2.675
20103W        W88521  31.451  18.545  10.592
20104W        W88522  27.048  42.435   0.850
20105W        W88523  36.978   9.681  14.293
20106W        W88524  42.957  39.871   2.234
20107W        W88525   7.780  25.131  11.081
20108W        W88526  32.090   1.767  11.052
20109W        W88527  26.998  28.084   2.269
20110W        W88528   8.328   7.798  14.483
20111W        W88529  21.035  33.553  11.554
20112W        W88530  25.646  30.597  11.918
20113W        W88531  25.711  23.054  12.995
20114W        W88532  33.997  37.044   4.282
20115W        W88533  35.916   3.917   3.295
20116W        W88534  41.324  15.263   4.639
20117W        W88535  21.514  15.587  12.937
20118W        W88536  42.443  35.996   2.380
20119W        W88537   3.712  20.225   0.442
20120W        W88538  28.017   0.329  12.088
20121W        W88539  13.715  14.174  11.892
20122W        W88540  12.751  36.586  10.900
20123W        W88541  43.885  33.550   3.708
20124W        W88542  32.637  37.342  14.823
20125W        W88543   2.315  10.257  14.402
20126W        W88544  21.666  34.450  14.483
20127W        W88545  11.857   6.281   4.655
20128W        W88546  18.616  25.522   3.380
20129W        W88547   7.782  41.358   1.359
20130W        W88548  44.928  42.978  12.896
20131W        W88549  18.167  43.276   2.794
20132W        W88550  22.609   1.451  13.030
20133W        W88551   4.416  17.718  12.066
20134W        W88552  36.980  32.103  13.516
20135W        W88553  10.808  38.026  13.847
20136W        W88554  23.663   2.833  10.963
20137W        W88555  31.097  28.983   1.758
20138W        W88556  39.867  26.000  13.362
20139W        W88557  29.519  14.281   1.832
20140W        W88558  12.167  38.338  14.282
20141W        W88559   7.204  22.205   4.700
20142W        W88560  30.003   3.856   0.466
20143W        W88561  36.408   2.245  11.907
20144W        W88562   1.366  41.416  13.057
20145W        W88563  39.995  31.067  12.409
20146W        W88564  42.996  17.156  13.882
20147W        W88565   7.819  28.600   2.304
20148W        W88566   9.714  25.676  10.608
20149W        W88567  10.289  21.123   4.325
20150W        W88568  21.053  31.457   3.652
20151W        W88569  33.558  43.285   3.860
20152W        W88570  24.486  11.821   0.904
20153W        W88571  29.522  21.178  12.825
20154W        W88572   8.713   3.260   2.277
20155W        W88573  31.948   6.258  10.506
20156W        W88574  39.477  33.030  12.861
20157W        W88575  32.554   2.833   0.922
20158W        W88576  14.205  32.548   3.836
20159W        W88577  35.053  44.472  10.476
20160W        W88578  26.985  29.162   4.624
20161W        W88579  41.509  13.696  12.528
20162W        W88580  11.783  11.712   1.236
20163W        W88581   1.867   7.820   0.903
20164W        W88582   6.789   3.310   5.094
20165W        W88583  37.541  16.299   4.719
20166W        W88584  35.853  17.133   2.752
20167W        W88585  24.140  13.145   3.257
20168W        W88586  19.557  14.309   4.608
20169W        W88587  22.531  29.463  13.325
20170W        W88588  28.154  40.512   1.318
20171W        W88589   2.466  14.622   0.398
20172W        W88590  41.475  16.100  12.870
20173W        W88591  24.126  15.745   4.317
20174W        W88592   9.817  24.540   0.273
20175W        W88593  24.182  37.891  11.496
20176W        W88594  42.968  14.679  14.382
20177W        W88595  26.082  33.945  12.499
20178W        W88596  19.177   7.875  11.907
20179W        W88597  22.160  21.555  13.322
20180W        W88598   2.912  19.147  14.970
20181W        W88599  33.910  30.566  11.554
20182W        W88600  39.534  13.215   1.781
20183W        W88601  28.640  10.190  11.491
20184W        W88602  24.127  42.442  13.062
20185W        W88603   8.190   9.688  10.511
20186W        W88604   6.422  25.568  11.922
20187W        W88605  17.562   0.949   2.718
20188W        W88606  30.491   4.218   3.230
20189W        W88607  31.914  31.538   3.330
20190W        W88608  30.614   0.946   4.302
20191W        W88609  14.613   4.263   1.931
20192W        W88610  30.610  43.307   4.628
20193W        W88611  27.451   3.367  11.117
20194W        W88612  38.909  39.402  12.011
20195W        W88613  25.090  32.622   3.273
20196W        W88614  29.072  10.876   1.348
20197W        W88615  40.895  12.749  11.867
20198W        W88616  15.277  35.035  11.952
20199W        W88617  37.544   0.443  12.063
20200W        W88618  15.584  18.730   3.828
20201W        W88619  36.012  36.895  14.460
20202W        W88620  10.279  28.574   3.772
20203W        W88621   8.787  14.280  12.440
20204W        W88622   8.807   1.389   2.805
20205W        W88623   7.191  10.305   1.255
20206W        W88624  11.748  36.015   2.704
20207W        W88625   9.742  27.090   2.854
20208W        W88626   6.771  36.878   3.758
20209W        W88627  24.616  35.922  12.863
20210W        W88628  39.043  32.629   3.744
20211W        W88629   8.225  26.007   4.205
20212W        W88630  42.810  15.157   1.723
20213W        W88631  29.455  27.011   4.692
20214W        W88632   3.250  11.826   3.239
20215W        W88633  18.266  38.011   4.649
20216W        W88634  13.182  10.863   4.780
20217W        W88635  10.716  39.952   1.251
20218W        W88636   6.352  42.363   4.282
20219W        W88637  26.095  41.391  12.373
20220W        W88638  44.958  30.629   0.795
20221W        W88639  29.113   2.242  13.537
20222W        W88640  37.036   3.234  10.533
20223W        W88641  32.511   9.353  10.559
20224W        W88642  42.511  35.415   1.314
20225W        W88643  15.217  22.627   0.909
20226W        W88644  28.159  21.745   1.801
20227W        W88645   7.257  33.409   1.325
20228W        W88646  42.018  36.045  10.637
20229W        W88647  23.028  14.758  10.476
20230W        W88648  13.227   1.974  13.319
20231W        W88649  22.193  40.425   2.363
20232W        W88650  37.004   0.293   1.232
20233W        W88651  27.486  13.656   0.281
20234W        W88652  13.725  34.055   2.179
20235W        W88653  12.221  21.594  12.571
20236W        W88654  33.129  34.606   4.838
20237W        W88655   7.848  28.526  11.493
20238W        W88656  13.689  34.581   3.655
20239W        W88657  10.724  44.304  10.011
20240W        W88658  35.452  32.887   1.916
20241W        W88659   6.255  25.120   3.749
20242W        W88660   2.927  44.903   3.159
20243W        W88661   6.844   0.375   2.225
20244W        W88662   4.429  16.314   4.135
20245W        W88663   0.833  10.766   0.792
20246W        W88664  32.041   1.754   3.362
20247W        W88665  33.455  38.848  10.991
20248W        W88666  38.051   0.282   1.354
20249W        W88667   6.908   8.255   1.298
20250W        W88668   8.205  24.990   0.783
20251W        W88669  27.578  24.110  13.342
20252W        W88670  34.914  14.208  13.507
20253W        W88671  30.909  34.486  10.430
20254W        W88672  23.050   6.390   0.272
20255W        W88673   6.213  10.735   4.151
20256W        W88674  28.950  40.450   0.477
20257W        W88675  29.123   0.490   1.835
20258W        W88676  28.079  30.081  13.440
20259W        W88677   9.332  14.259  13.415
20260W        W88678  35.547  21.132  12.875
20261W        W88679  14.607  35.914   2.383
20262W        W88680  41.995  11.706   4.814
20263W        W88681  24.147  30.600   3.823
20264W        W88682  30.632  39.321   3.194
20265W        W88683   9.882   4.371   3.681
20266W        W88684  22.238  41.388  14.950
20267W        W88685  33.539   9.873   2.370
20268W        W88686  39.857  33.980  14.912
20269W        W88687  38.468   0.333   1.381
20270W        W88688  23.993  28.107   5.208
20271W        W88689  43.792   1.908  13.391
20272W        W88690  10.254  26.141   3.807
20273W        W88691   4.834  43.335  12.388
20274W        W88692  27.196  31.553   2.394
20275W        W88693  18.158  43.795  10.589
20276W        W88694  26.082  41.788   4.212
20277W        W88695  30.537  33.427  13.943
20278W        W88696  39.053  15.135   0.309
20279W        W88697  18.663   0.420  14.434
20280W        W88698  30.550  21.066   4.293
20281W        W88699  24.634  32.045   1.409
20282W        W88700  25.011  37.496  10.586
20283W        W88701  25.625  35.379  13.436
20284W        W88702  42.418  11.732   1.901
20285W        W88703  28.538   6.919  10.053
20286W        W88704  29.428  28.945  14.290
20287W        W88705  26.485  35.394  14.021
20288W        W88706  24.719  31.959   3.308
20289W        W88707  36.549  37.554   1.340
20290W        W88708  29.012   1.815  13.857
20291W        W88709   3.880  39.555   4.203
20292W        W88710  33.387   7.906  13.434
20293W        W88711   6.830  19.160  11.560
20294W        W88712  39.832   1.464   4.823
20295W        W88713  19.684  17.211  11.942
20296W        W88714  32.534   1.855  11.937
20297W        W88715  21.168  23.627   0.802
20298W        W88716  31.017  27.178  10.598
20299W        W88717  31.066  18.291  12.426
20300W        W88718  14.619  25.163  11.111
20301W        W88719   6.205  26.530   0.871
20302W        W88720  27.944  30.933   3.281
20303W        W88721  36.402  27.100   0.948
20304W        W88722   7.898  39.362  12.353
20305W        W88723  42.473  11.150   3.161
20306W        W88724  18.073   9.283   4.178
20307W        W88725  21.036  36.865  14.983
20308W        W88726  19.189  38.375   0.353
20309W        W88727  17.649  27.678  11.968
20310W        W88728  29.540  31.025  14.367
20311W        W88729  43.813  39.535   4.609
20312W        W88730  19.634  15.322   1.848
20313W        W88731  42.342  18.767   1.216
20314W        W88732   7.905  43.508  13.880
20315W        W88733   2.430   4.346   0.296
20316W        W88734  43.301   0.329   3.652
20317W        W88735  23.086  26.522   2.833
20318W        W88736  39.393  41.832   1.367
20319W        W88737  37.392  31.149  13.532
20320W        W88738  18.745   0.781   3.811
20321W        W88739  24.194  10.239   1.448
20322W        W88740   9.686  33.046   1.360
20323W        W88741   8.678   4.914  14.860
20324W        W88742  31.499  34.511   2.896
20325W        W88743  25.114  25.997  13.972
20326W        W88744   7.276  30.960   1.923
20327W        W88745  36.907  10.378  12.557
20328W        W88746   5.373   7.813  10.504
20329W        W88747  32.452   6.297   1.875
20330W        W88748  23.056  41.297  11.423
20331W        W88749   9.742  12.122   2.756
20332W        W88750   2.839  28.651  14.969
20333W        W88751   3.236  20.032   0.424
20334W        W88752  38.979   4.799  13.933
20335W        W88753   0.804  13.846   0.391
20336W        W88754  14.595   7.756   3.639
20337W        W88755  10.782  28.544  13.487
20338W        W88756  23.579  32.449   1.860
20339W        W88757   4.283  37.470   4.134
20340W        W88758  40.345  22.192  11.569
20341W        W88759  24.484  43.485  11.102
20342W        W88760  14.314   0.417   2.200
20343W        W88761  12.842  17.273   4.263
20344W        W88762  11.669   1.248   3.186
20345W        W88763  44.946  21.203   1.339
20346W        W88764   8.751  24.108   1.878
20347W        W88765  36.368  25.141   2.395
20348W        W88766   0.270  43.456  14.340
20349W        W88767  33.395  44.394   4.222
20350W        W88768  10.261  33.610  14.404
20351W        W88769   8.733  20.032  12.414
20352W        W88770  14.204  36.377   5.205
20353W        W88771  11.862  24.995  14.026
20354W        W88772  24.518  37.899  11.399
20355W        W88773  42.879  22.605  13.979
20356W        W88774  35.500  10.653   4.766
20357W        W88775  28.534  18.570  13.940
20358W        W88776  35.593  17.254  10.910
20359W        W88777  31.974   6.308  12.904
20360W        W88778  44.424  29.174  14.329
20361W        W88779  17.171   9.726  13.992
20362W        W88780  17.225  22.536  13.510
20363W        W88781  27.458  23.563  10.614
20364W        W88782  32.016  12.166   2.369
20365W        W88783  41.333  38.526  13.978
20366W        W88784  40.861  18.105   4.244
20367W        W88785  32.412  30.035   0.367
20368W        W88786  33.432   3.926  12.982
20369W        W88787  13.144  31.918  11.118
20370W        W88788  25.132  42.435  14.858
20371W        W88789   4.721  18.648  10.525
20372W        W88790   6.232   9.342   3.332
20373W        W88791   0.926   5.724   1.235
20374W        W88792   3.325  24.016  11.436
20375W        W88793   0.987  31.039   1.420
20376W        W88794   6.755  27.638  12.900
20377W        W88795  39.976  17.675  10.557
20378W        W88796   8.748   7.297  12.557
20379W        W88797  18.162  37.380  10.482
20380W        W88798  10.161  26.185   2.795
20381W        W88799  17.591  39.985  13.446
20382W        W88800  40.538  18.053  12.017
20383W        W88801  11.857  28.642   4.197
20384W        W88802  17.234  34.006  13.007
20385W        W88803   2.406  24.143  13.364
20386W        W88804  25.659  28.169   0.946
20387W        W88805  38.022  20.112   0.299
20388W        W88806  22.604   7.847  11.023
20389W        W88807  16.280   3.872   0.923
20390W        W88808  17.759  19.550   1.923
20391W        W88809  25.029  23.107   3.295
20392W        W88810  34.420  15.588  14.342
20393W        W88811  38.521  35.899   4.214
20394W        W88812  40.975  27.148  10.911
20395W        W88813  22.050  37.500   1.870
20396W        W88814  41.361  37.058  11.968
20397W        W88815  28.169  29.540  11.861
20398W        W88816  27.986  27.570  11.875
20399W        W88817   5.410  14.779  13.315
20400W        W88818  20.611  37.438  14.966
20401W        W88819  10.843  35.070  12.043
20402W        W88820  13.713   3.722   1.297
20403W        W88821  23.578  44.484  11.008
20404W        W88822   4.884   1.939  11.609
20405W        W88823   2.313  37.400   2.413
20406W        W88824  16.073   8.359   1.893
20407W        W88825   7.298  14.744  13.428
20408W        W88826  41.004  10.801   1.836
20409W        W88827   4.795  30.071   3.349
20410W        W88828  21.118  15.788  12.540
20411W        W88829  27.652   9.739   0.356
20412W        W88830  27.171  12.324   4.675
20413W        W88831   1.752  42.824   4.742
20414W        W88832  38.426   2.760   2.325
20415W        W88833   3.787   8.189  14.411
20416W        W88834  28.097  12.118   3.688
20417W        W88835  27.662  38.445   0.301
20418W        W88836  39.472  25.114  13.052
20419W        W88837  17.179  22.502   1.740
20420W        W88838   6.263  40.450  14.389
20421W        W88839   8.250  17.217   4.763
20422W        W88840  34.414  44.404   3.203
20423W        W88841  19.108  35.022   0.396
20424W        W88842  31.456  36.995   0.933
20425W        W88843  13.272  43.448  14.964
20426W        W88844   3.756  43.867   0.293
20427W        W88845   9.744   4.823  11.959
20428W        W88846  10.326  36.848   5.176
20429W        W88847  22.632  21.240   1.929
20430W        W88848  25.553  43.476  14.015
20431W        W88849  23.525  26.177  13.354
20432W        W88850  22.041  22.691  14.971
20433W        W88851  28.462  41.301   4.651
20434W        W88852  32.077   6.686   2.383
20435W        W88853  37.919  10.352  14.772
20436W        W88854  21.745  23.542  10.159
20437W        W88855  34.074   7.717   4.736
20438W        W88856  40.422  22.034  12.004
20439W        W88857  33.596   7.184  11.598
20440W        W88858  30.616  16.136   0.374
20441W        W88859  37.920   5.215  12.541
20442W        W88860  17.159   5.280  14.916
20443W        W88861  27.088  17.584   1.749
20444W        W88862  12.346   4.836   0.384
20445W        W88863  29.045  44.759   1.709
20446W        W88864  34.593  25.473  14.851
20447W        W88865  22.064  13.732  13.810
20448W        W88866  31.581  22.119  10.457
20449W        W88867   5.730  21.607  10.427
20450W        W88868  24.691  42.776  12.899
20451W        W88869  24.654  25.019   2.774
20452W        W88870  24.682   6.189   1.709
20453W        W88871  26.962  24.007   1.886
20454W        W88872  15.099  25.015   4.211
20455W        W88873   5.901   4.846  12.877
20456W        W88874  44.421  28.107  10.626
20457W        W88875  21.091  42.854  14.817
20458W        W88876  42.332   0.787   1.450
20459W        W88877   6.376  31.971   1.704
20460W        W88878  11.312  26.482   2.670
20461W        W88879  41.523  16.792  12.380
20462W        W88880   1.817  18.630   3.260
20463W        W88881  12.211  16.218  13.446
20464W        W88882  19.133   8.659   0.729
20465W        W88883  16.267  11.622  12.051
20466W        W88884  43.989  12.269   3.812
20467W        W88885  27.968  35.479   0.933
20468W        W88886  18.588  23.132  13.937
20469W        W88887  36.578   5.317  13.347
20470W        W88888  37.348  34.464  12.976
20471W        W88889   8.734  10.147  10.555
20472W        W88890   6.796  29.480   1.366
20473W        W88891  22.737   1.918  11.505
20474W        W88892   3.222  35.450  11.080
20475W        W88893  19.566   0.782  11.927
20476W        W88894  40.328  16.252   4.198
20477W        W88895  32.406  13.263  10.894
20478W        W88896   8.755   1.764  10.971
20479W        W88897  27.003  36.949   2.766
20480W        W88898  38.352  44.886   0.813
20481W        W88899   9.188  35.975   4.125
20482W        W88900  19.774  18.286  14.452
20483W        W88901   8.357   3.405   4.703
20484W        W88902  20.056   9.884  12.933
20485W        W88903  33.884  35.983  11.037
20486W        W88904  29.508  15.319   2.357
20487W        W88905  32.102   6.731  14.018
20488W        W88906  23.211   6.373   2.695
20489W        W88907  29.097  34.441   4.158
20490W        W88908  33.384  19.534   9.967
20491W        W88909   0.267  20.047   3.222
20492W        W88910  10.185  22.098  11.980
20493W        W88911  40.453  31.411   0.876
20494W        W88912  33.999  25.161   4.208
20495W        W88913  39.862  42.399  13.838
20496W        W88914   9.667   6.890  12.937
20497W        W88915  24.669  27.049  11.606
20498W        W88916  26.059   9.379   4.781
20499W        W88917  36.858  33.911  12.565
20500W        W88918  31.046  43.434   3.279
20501W        W88919  16.213   5.320  10.573
20502W        W88920  18.159  14.231  13.051
20503W        W88921  25.502   3.776   0.967
20504W        W88922  16.273   1.286  14.895
20505W        W88923  38.961  25.189  14.800
20506W        W88924  11.316   1.426  13.998
20507W        W88925  40.427   8.401   2.302
20508W        W88926  26.661   7.225   3.817
20509W        W88927  21.651   4.429   2.861
20510W        W88928   9.681  11.136   1.896
20511W        W88929  21.043  30.146   1.223
20512W        W88930  18.745  24.084   3.380
20513W        W88931  19.763  24.589   4.142
20514W        W88932  42.377  29.633   1.317
20515W        W88933  21.088  38.384   4.835
20516W        W88934  35.562  43.339   2.406
20517W        W88935  17.794   6.275  13.980
20518W        W88936  25.597  15.790   0.263
20519W        W88937   3.446   7.340   2.310
20520W        W88938  14.824   5.920  12.017
20521W        W88939  13.676   8.823  12.975
20522W        W88940  37.517  42.935  11.965
20523W        W88941  36.476  43.417  14.919
20524W        W88942   3.790  43.306  13.891
20525W        W88943   0.977  21.684   4.759
20526W        W88944  31.582   3.840  13.462
20527W        W88945  17.778   6.880  11.467
20528W        W88946  22.675  43.368  10.572
20529W        W88947   2.811  35.433  13.935
20530W        W88948  11.822   3.307   3.174
20531W        W88949   2.863  34.901   3.225
20532W        W88950  28.666  27.496  11.468
20533W        W88951   7.711   9.724  11.900
20534W        W88952  12.209  23.613  11.037
20535W        W88953  42.872  43.797   1.925
20536W        W88954  11.653  37.976   0.435
20537W        W88955  21.140  29.153  13.029
20538W        W88956  19.693   5.929  11.859
20539W        W88957  18.771  11.372   4.598
20540W        W88958  37.945  28.949   3.640
20541W        W88959   6.389  22.052  10.926
20542W        W88960  23.069  28.157  11.428
20543W        W88961  31.941   8.393   4.662
20544W        W88962  17.095   6.784  11.374
20545W        W88963  41.001  42.819   4.696
20546W        W88964  16.708  16.657  10.927
20547W        W88965  43.346  19.146   4.332
20548W        W88966  27.038  10.366   0.248
20549W        W88967   5.259  28.454  12.984
20550W        W88968  29.014   5.416  12.036
20551W        W88969  42.285  31.483  13.027
20552W        W88970  28.493  10.258  10.123
20553W        W88971  30.653   0.957  14.306
20554W        W88972  25.616   9.793  11.404
20555W        W88973  40.325  30.043   2.681
20556W        W88974  17.800  26.060  10.444
20557W        W88975  43.011  18.287   0.939
20558W        W88976   6.259   9.689  13.980
20559W        W88977  23.122  42.022  13.450
20560W        W88978   9.690  27.546  14.440
20561W        W88979  16.267  21.715   2.335
20562W        W88980  16.308  23.005  12.046
20563W        W88981   9.726   7.220  11.110
20564W        W88982   2.825   0.271  14.512
20565W        W88983  30.015  42.020   0.949
20566W        W88984  34.400  36.491   2.248
20567W        W88985  14.320  33.088   3.811
20568W        W88986   5.292   1.324  11.942
20569W        W88987  18.072  43.486  10.583
20570W        W88988  35.601   1.750  11.446
20571W        W88989  14.831  26.144  13.313
20572W        W88990   4.421  32.101  12.907
20573W        W88991  16.314  18.601   2.234
20574W        W88992  35.107  28.944  13.055
20575W        W88993  18.194  30.949  10.539
20576W        W88994  42.321  24.121  13.318
20577W        W88995  32.612  24.548  13.002
20578W        W88996  21.571  28.549  11.433
20579W        W88997   5.255  16.136  14.890
20580W        W88998  39.368  42.322   2.891
20581W        W88999  32.464   8.737  11.101
20582W        W89000  18.657  44.385   2.312
20583W        W89001   8.196  32.968   3.213
20584W        W89002  10.331  38.472  13.516
20585W        W89003  11.309  39.848  11.872
20586W        W89004  27.532  39.994   4.741
20587W        W89005  42.973  34.420   3.299
20588W        W89006  43.937  24.141  14.867
20589W        W89007  38.506  34.393   1.263
20590W        W89008   9.241  35.429  11.440
20591W        W89009  33.413  27.604   4.651
20592W        W89010  16.774  13.325   1.237
20593W        W89011   4.225   8.198  14.456
20594W        W89012  15.206  43.836   2.743
20595W        W89013  19.100  27.038  14.516
20596W        W89014  26.025   4.328  13.327
20597W        W89015  12.635  25.491  13.320
20598W        W89016   0.252  33.393  12.550
20599W        W89017  18.570   2.333   3.170
20600W        W89018  36.050  25.563  10.942
20601W        W89019  18.570  31.925   3.651
20602W        W89020  33.415   5.387   4.804
20603W        W89021  23.208   7.769   0.812
20604W        W89022  34.508   7.255  10.602
20605W        W89023   7.278  35.050  11.037
20606W        W89024  43.970  19.656  10.611
20607W        W89025  20.222   8.246   0.450
20608W        W89026  29.160  24.605   2.870
20609W        W89027  39.014   9.748  12.839
20610W        W89028  36.979  20.668   4.195
20611W        W89029  18.285  35.437   2.861
20612W        W89030  38.911  42.421  10.108
20613W        W89031  41.899  26.116   1.876
20614W        W89032  24.639  21.731  11.416
20615W        W89033   5.783  27.576  14.022
20616W        W89034  34.594  39.902   3.804
20617W        W89035   3.281   2.456  12.528
20618W        W89036  38.558  13.808   2.303
20619W        W89037  20.223  13.768   1.718
20620W        W89038  18.251  19.673   2.395
20621W        W89039  15.273   4.251  11.960
20622W        W89040  43.894   1.236   0.337
20623W        W89041  21.213   1.955  10.029
20624W        W89042  11.784  24.154   3.725
20625W        W89043  36.988   7.873  11.863
20626W        W89044  30.523  27.150  11.952
20627W        W89045  39.997  29.515  12.046
20628W        W89046  18.154   7.755  11.027
20629W        W89047  33.509  38.966   3.791
20630W        W89048  27.103  31.079  11.903
20631W        W89049  38.960  14.732  11.572
20632W        W89050  29.451  42.307  12.349
20633W        W89051  18.689  38.044   4.775
20634W        W89052  24.560  29.060   4.690
20635W        W89053  41.362  29.947  12.942
20636W        W89054   8.173  41.328   1.749
20637W        W89055   1.453  26.535   2.325
20638W        W89056  21.664  23.216   1.844
20639W        W89057  38.430  41.369   3.347
20640W        W89058  18.161  11.201  14.424
20641W        W89059  35.086  29.530   5.272
20642W        W89060  42.821  41.326  10.436
20643W        W89061   9.311   9.203   4.626
20644W        W89062   2.394  26.529   3.385
20645W        W89063  39.394  33.009   4.256
20646W        W89064   3.442  12.622  11.406
20647W        W89065  32.570   4.807   9.970
20648W        W89066  19.051   0.885  11.570
20649W        W89067   1.330  34.057   4.348
20650W        W89068  22.547   2.749  14.969
20651W        W89069  16.732  28.959  13.882
20652W        W89070  15.317  29.665  10.438
20653W        W89071  35.967  22.550  14.951
20654W        W89072  21.709  29.171  12.829
20655W        W89073  35.015  14.305   1.317
20656W        W89074  29.168  41.472  10.600
20657W        W89075  36.849  31.923  12.546
20658W        W89076   5.397  34.402  13.425
20659W        W89077  13.319  24.596   1.795
20660W        W89078  14.205  41.878   5.143
20661W        W89079  19.591  28.590  14.906
20662W        W89080   5.921  40.463  14.305
20663W        W89081  15.649   3.846  12.514
20664W        W89082  11.149  44.971   3.145
20665W        W89083  36.957  43.816   2.184
20666W        W89084  24.098   4.246   1.824
20667W        W89085  20.246  36.522   0.287
20668W        W89086  21.203  19.116  11.099
20669W        W89087  12.282  24.523  10.412
20670W        W89088  12.783   4.745   3.296
20671W        W89089  35.518  17.784  14.829
20672W        W89090   9.194  33.031  14.873
20673W        W89091  24.645  44.316   1.705
20674W        W89092  14.599  29.062  12.472
20675W        W89093  21.103  10.719  11.963
20676W        W89094  42.924  37.493  13.434
20677W        W89095  32.967  44.353   4.141
20678W        W89096  35.393   2.753   3.704
20679W        W89097  32.435  27.616  14.463
20680W        W89098  24.659  24.166  10.991
20681W        W89099   2.370  15.192  11.879
20682W        W89100   4.877  41.881   3.237
20683W        W89101  12.309   8.385  12.050
20684W        W89102  42.339   3.950   0.320
20685W        W89103  32.505  44.955  12.427
20686W        W89104   6.365   9.361  11.915
20687W        W89105  17.105   8.809   1.375
20688W        W89106  31.897  27.583  12.070
20689W        W89107  26.663  19.111   4.763
20690W        W89108  15.291   4.416   5.276
20691W        W89109  19.625   8.834  12.386
20692W        W89110  16.179  16.568   3.733
20693W        W89111  25.150  24.063   3.181
20694W        W89112  10.755   6.242  11.538
20695W        W89113  44.904  24.191  10.623
20696W        W89114   8.665  25.129   1.383
20697W        W89115  32.142  36.379  10.509
20698W        W89116  17.235  17.143   5.179
20699W        W89117  30.604   5.295  12.366
20700W        W89118   1.364  27.669   0.266
20701W        W89119  25.632  42.945   2.667
20702W        W89120  42.366  16.634  11.930
20703W        W89121  38.364  28.598  12.355
20704W        W89122  13.219  12.645  11.549
20705W        W89123   7.248  20.051   0.908
20706W        W89124   6.373  40.380   3.714
20707W        W89125   1.474  40.542  14.442
20708W        W89126   1.900   0.457  11.495
20709W        W89127  14.280  34.460   1.792
20710W        W89128  15.597  19.176  11.593
20711W        W89129  14.208  22.728  14.418
20712W        W89130  26.481  34.021  11.037
20713W        W89131  31.930  37.391  11.377
20714W        W89132   6.227  44.358   2.229
20715W        W89133  27.469  10.324  13.355
20716W        W89134   7.827   7.771   2.408
20717W        W89135  39.505   9.225   2.305
20718W        W89136  17.561  16.571  13.481
20719W        W89137  24.097   0.917   0.744
20720W        W89138  21.565  29.146   2.221
20721W        W89139  42.027  43.985   4.664
20722W        W89140   3.895  25.670   1.434
20723W        W89141  14.142  27.457  11.049
20724W        W89142   6.338  41.494   0.758
20725W        W89143  13.166  18.762  12.430
20726W        W89144  38.570  34.605   4.244
20727W        W89145  26.994  17.246  11.461
20728W        W89146  24.084  13.346   4.336
20729W        W89147   2.438  21.128   3.692
20730W        W89148  37.443  29.055   4.747
20731W        W89149  31.926  17.222   3.208
20732W        W89150   4.807  44.959   0.456
20733W        W89151  37.939  21.177  13.970
20734W        W89152   8.847   2.856   0.864
20735W        W89153  17.664  28.507   0.455
20736W        W89154  29.593  42.792  11.965
20737W        W89155   8.219  14.689   0.404
20738W        W89156   5.841  36.372  14.284
20739W        W89157  27.074   3.318  10.150
20740W        W89158  20.699  32.586   4.646
20741W        W89159  25.704  36.899   3.330
20742W        W89160   4.832  21.201   1.380
20743W        W89161   1.902  22.616  13.476
20744W        W89162   1.482  15.791   3.187
20745W        W89163  35.035  32.129   2.348
20746W        W89164  44.313  15.201  14.299
20747W        W89165  20.079  31.020   0.945
20748W        W89166   1.820  40.466   2.308
20749W        W89167  13.347  37.564  13.834
20750W        W89168  12.233  33.958   2.345
20751W        W89169  37.442  30.045  14.357
20752W        W89170   4.936   2.787  10.492
20753W        W89171  30.457  37.447  12.482
20754W        W89172   7.780  22.191   1.435
20755W        W89173  13.617  26.631   1.882
20756W        W89174  28.579  20.082  13.514
20757W        W89175  34.118   0.459   1.753
20758W        W89176  28.679  16.177   1.328
20759W        W89177  32.049  10.254   1.419
20760W        W89178  22.717  35.083  10.961
20761W        W89179  35.986  15.814  11.530
20762W        W89180  10.245  43.318   4.210
20763W        W89181  42.795  30.129   4.298
20764W        W89182   8.808  44.463   5.276
20765W        W89183  27.084  38.956   9.989
20766W        W89184   6.919  16.147   3.365
20767W        W89185  26.587  42.840   2.298
20768W        W89186  16.277  30.926   1.287
20769W        W89187  31.405  25.156  13.548
20770W        W89188  17.287  32.612   3.798
20771W        W89189  39.938  43.300  13.846
20772W        W89190  20.085  18.271   3.773
20773W        W89191  39.393  14.120  14.928
20774W        W89192  15.152  23.095  10.949
20775W        W89193  23.628  39.548   3.164
20776W        W89194  36.396   7.368   0.430
20777W        W89195   0.336  30.127   4.224
20778W        W89196  33.106  12.263  13.340
20779W        W89197  25.061  23.984  10.918
20780W        W89198  35.020  15.821   0.889
20781W        W89199  27.184  12.754   5.317
20782W        W89200  22.670  27.645   3.176
20783W        W89201  30.484  31.572  12.560
20784W        W89202  34.556   9.742   3.799
20785W        W89203  27.004  40.801  12.480
20786W        W89204   9.799  14.173  11.606
20787W        W89205   6.899  39.435  13.965
20788W        W89206  42.969  22.618  14.458
20789W        W89207  29.578   9.690  12.919
20790W        W89208  39.559  39.947  11.430
20791W        W89209  37.889  18.205   1.325
20792W        W89210   9.772  19.204  14.022
20793W        W89211  42.463   9.815   4.598
20794W        W89212  40.522  10.199   2.337
20795W        W89213  22.626  43.305   2.882
20796W        W89214  16.729  38.041   4.597
20797W        W89215  24.703  36.434  10.908
20798W        W89216  42.395  16.670  14.277
20799W        W89217  29.430  33.017  12.470
20800W        W89218  13.128  13.300  13.900
20801W        W89219  35.540  35.010   2.367
20802W        W89220  38.506  12.258  10.999
20803W        W89221   2.408  36.488   2.819
20804W        W89222  36.018  17.221  11.509
20805W        W89223  35.898  43.300  10.490
20806W        W89224  34.897  39.509  11.495
20807W        W89225  14.678   9.379  12.366
20808W        W89226  12.341  32.038  12.570
20809W        W89227   3.446  16.312   0.475
20810W        W89228   8.817  42.452  12.540
20811W        W89229   9.246  17.684   1.260
20812W        W89230  38.005  12.119   1.272
20813W        W89231  22.662  38.875   4.218
20814W        W89232  14.719  14.800   3.648
20815W        W89233   9.250  25.033  11.107
20816W        W89234  26.473  40.356   1.709
20817W        W89235  25.122   1.747  13.918
20818W        W89236  20.171  35.026  11.432
20819W        W89237  43.988  33.880  13.387
20820W        W89238  37.523  36.463  14.960
20821W        W89239  16.143  28.680   4.663
20822W        W89240  33.058  15.276   4.823
20823W        W89241  35.866   0.791  14.994
20824W        W89242  37.963   3.384   0.458
20825W        W89243  17.579  10.165   1.260
20826W        W89244  30.949  33.074   0.348
20827W        W89245  22.099  14.141   1.396
20828W        W89246  10.732  13.740   1.831
20829W        W89247  11.838  19.121   3.190
20830W        W89248   7.671  29.122   2.246
20831W        W89249  34.002  28.471   1.286
20832W        W89250   8.219   4.378   4.210
20833W        W89251  30.049   9.839   3.322
20834W        W89252  32.002  23.157  10.527
20835W        W89253  24.134  15.599  12.424
20836W        W89254  36.354   6.812   3.678
20837W        W89255  38.840  29.498   3.825
20838W        W89256   1.938  27.688  12.882
20839W        W89257  10.848  40.314   1.349
20840W        W89258  26.172  37.971   2.724
20841W        W89259  29.073   1.284   2.749
20842W        W89260  40.434  26.182  10.984
20843W        W89261  19.676  43.385   2.234
20844W        W89262  15.813  37.888   3.701
20845W        W89263  14.680   8.247   2.846
20846W        W89264  16.801  26.020   2.183
20847W        W89265   3.901  41.897   0.410
20848W        W89266  32.401  35.983  11.969
20849W        W89267  21.566  25.519   2.869
20850W        W89268   8.310  38.525  14.462
20851W        W89269  32.014  17.271   0.453
20852W        W89270  37.932  14.752   4.330
20853W        W89271  16.783  17.777  12.004
20854W        W89272  35.564   0.451  12.416
20855W        W89273  29.464  16.227  11.011
20856W        W89274  21.632  34.885  14.792
20857W        W89275  33.567  18.574   1.913
20858W        W89276  17.072  25.978  11.121
20859W        W89277   3.352  25.986  11.929
20860W        W89278  29.618  35.948  13.338
20861W        W89279  44.897  34.491  11.527
20862W        W89280  33.487  23.568  13.012
20863W        W89281  37.950  39.323  14.305
20864W        W89282  12.131  23.512   3.834
20865W        W89283  37.087  13.658   4.634
20866W        W89284  32.972  35.524  12.340
20867W        W89285  37.021  32.545   2.849
20868W        W89286   0.754  22.105   0.249
20869W        W89287  24.059   4.878  10.547
20870W        W89288  21.724  39.341   5.316
20871W        W89289  10.240  37.990  10.929
20872W        W89290  36.887  24.982   4.344
20873W        W89291  17.773  40.302   4.805
20874W        W89292  44.362  28.454   0.841
20875W        W89293   8.323  15.646  14.902
20876W        W89294   4.849  33.517   0.296
20877W        W89295  36.370  15.654   3.630
20878W        W89296  11.253  39.010   4.656
20879W        W89297  16.574   0.346  14.461
20880W        W89298  12.144  15.110   4.673
20881W        W89299  35.507  36.948  13.980
20882W        W89300  22.708   2.318  10.619
20883W        W89301   5.288  17.226  11.077
20884W        W89302  12.197  10.774  12.345
20885W        W89303  11.181  26.098   1.838
20886W        W89304  16.087   6.288  12.469
20887W        W89305  39.036  37.422   1.219
20888W        W89306  30.645  27.612  14.413
20889W        W89307  41.980  41.476  11.584
20890W        W89308  33.613  17.650  13.838
20891W        W89309   3.353  28.024   2.746
20892W        W89310  21.104  12.762   1.825
20893W        W89311  43.872  19.268   0.839
20894W        W89312  37.921   6.219   4.838
20895W        W89313  34.495  13.332  14.838
20896W        W89314  25.651  23.232  10.950
20897W        W89315  16.569   2.373   0.321
20898W        W89316  37.511  22.159   3.183
20899W        W89317  20.616  30.064  11.941
20900W        W89318   4.397  19.106   3.701
20901W        W89319   2.754  25.167   3.633
20902W        W89320   9.694  40.851  10.940
20903W        W89321  44.949   0.949  12.056
20904W        W89322  31.903  21.690   0.753
20905W        W89323  30.033   7.355   1.925
20906W        W89324  25.673  29.173   1.762
20907W        W89325  11.134  17.173  12.478
20908W        W89326  26.978  36.068  14.943
20909W        W89327   8.655  29.591   5.282
20910W        W89328  22.210  43.792   0.848
20911W        W89329  27.674   2.362  11.040
20912W        W89330  30.087  11.695   1.751
20913W        W89331  16.100  11.204  14.380
20914W        W89332  15.191   0.392  11.590
20915W        W89333  42.838  23.594  14.760
20916W        W89334  31.117   0.266  13.506
20917W        W89335  41.375  15.753   0.925
20918W        W89336  20.741  15.095   1.299
20919W        W89337  26.204  24.145  11.576
20920W        W89338  26.615  18.584   0.740
20921W        W89339  20.058  13.148  12.577
20922W        W89340   7.840  26.533   3.198
20923W        W89341  37.000   9.242  11.465
20924W        W89342  33.470  34.483  13.037
20925W        W89343  44.380  14.774   1.742
20926W        W89344  18.185  37.465   1.312
20927W        W89345   8.190  33.425  10.528
20928W        W89346  25.624  41.429  13.376
20929W        W89347  22.087  18.209   3.289
20930W        W89348   2.963  21.224  14.824
20931W        W89349  14.832  41.829   4.838
20932W        W89350  39.035  30.525   0.964
20933W        W89351  29.515  14.733   1.870
20934W        W89352  43.475  44.828  13.500
20935W        W89353  28.141  26.155   3.207
20936W        W89354  24.517  30.458   3.192
20937W        W89355   3.423  20.734  13.445
20938W        W89356  31.630  10.210   4.794
20939W        W89357  29.526  25.159  14.767
20940W        W89358  12.663  17.185  12.923
20941W        W89359  36.006  38.997   9.507
20942W        W89360   2.825   1.828   4.603
20943W        W89361  18.555  10.726   0.962
20944W        W89362   3.430   7.711  11.999
20945W        W89363  10.756  43.916   2.350
20946W        W89364  41.887  30.930   0.272
20947W        W89365  20.671  40.494  13.845
20948W        W89366   2.861   2.230   4.185
20949W        W89367  31.530  35.939  14.820
20950W        W89368  13.259  28.473  12.520
20951W        W89369   6.221  15.152   0.427
20952W        W89370  30.582  42.336  13.542
20953W        W89371  36.921   9.377   0.460
20954W        W89372  22.640  20.168   1.261
20955W        W89373  31.097  42.816  10.019
20956W        W89374  12.248  17.569   4.249
20957W        W89375  37.967   2.739  10.459
20958W        W89376   0.289  40.921  10.440
20959W        W89377  16.305   4.313   4.246
20960W        W89378  20.072   1.303  14.935
20961W        W89379  17.080   8.684  11.377
20962W        W89380  33.484  19.608  12.073
20963W        W89381  20.264  26.691   4.817
20964W        W89382  37.839  13.754   2.777
20965W        W89383  11.862  23.032   4.734
20966W        W89384  13.250   0.784  10.506
20967W        W89385  21.026  21.121   2.337
20968W        W89386  22.033  29.074   4.224
20969W        W89387  34.010  36.462   0.473
20970W        W89388  14.695   2.737   2.720
20971W        W89389  42.410  29.940  14.809
20972W        W89390  19.170  11.743   2.676
20973W        W89391  31.402  42.514   2.783
20974W        W89392  30.123  23.033   3.193
20975W        W89393  12.815   7.842  14.330
20976W        W89394  35.474  32.570   3.249
20977W        W89395  24.050  17.794   2.729
20978W        W89396  37.058  15.768  14.983
20979W        W89397  38.007  13.210  13.991
20980W        W89398  27.083  38.415  13.528
20981W        W89399  18.153  19.648  12.575
20982W        W89400  34.000   9.212   4.345
20983W        W89401  23.658  29.025   2.365
20984W        W89402   2.814  30.467  11.126
20985W        W89403  10.319   6.340  12.357
20986W        W89404  35.974  22.006   1.834
20987W        W89405  23.560  18.182   1.749
20988W        W89406  15.760   9.843   1.320
20989W        W89407  10.179  39.823   4.635
20990W        W89408  44.795  10.154   3.315
20991W        W89409   6.421  12.152   3.634
20992W        W89410  26.024  16.261  12.922
20993W        W89411   6.252  33.480   1.866
20994W        W89412   2.904  43.401   3.205
20995W        W89413  11.179  28.661   0.426
20996W        W89414  14.234  18.571   0.742
20997W        W89415  14.268   2.347  10.485
20998W        W89416   5.710  40.867   3.161
20999W        W89417  16.730   9.312   1.749
21000W        W89418  23.235  27.194   3.177
21001W        W89419  31.105  20.675   0.735
21002W        W89420   3.229  43.295   3.174
21003W        W89421   4.295  22.613  13.355
21004W        W89422  20.135  17.210  13.021
21005W        W89423  10.746   9.803  14.823
21006W        W89424  34.389  33.480   3.365
21007W        W89425  33.938   3.819  13.516
21008W        W89426  27.139   5.909  12.516
21009W        W89427   4.721  25.476  10.461
21010W        W89428  43.834  33.584   0.290
21011W        W89429  35.594  22.678  13.492
21012W        W89430  13.751  40.874  11.863
21013W        W89431  41.874  34.886   0.393
21014W        W89432  11.180   6.232  13.404
21015W        W89433  19.058   3.333   1.729
21016W        W89434  38.945   2.834  14.856
21017W        W89435  16.285  12.856  11.545
21018W        W89436  38.433  28.987  11.576
21019W        W89437  43.365   6.697  11.084
21020W        W89438  20.536   5.377   4.797
21021W        W89439  14.262  22.645  10.494
21022W        W89440   3.727  31.072   3.774
21023W        W89441  26.093  42.983   3.187
21024W        W89442   9.767  36.541   3.757
21025W        W89443   9.784   1.761  11.055
21026W        W89444  10.261  21.713  10.934
21027W        W89445  32.128  40.454   2.316
21028W        W89446  19.216  14.137  11.572
21029W        W89447   7.202  19.690   1.754
21030W        W89448  29.613  15.597  13.055
21031W        W89449  41.947   9.679   0.786
21032W        W89450  29.631  36.011   1.294
21033W        W89451  27.646  27.484   0.786
21034W        W89452  31.540  31.013   2.334
21035W        W89453  17.153  42.798   4.182
21036W        W89454  27.581  21.597   4.723
21037W        W89455  33.044   2.815   0.465
21038W        W89456  25.629  17.784  12.075
21039W        W89457  13.785   0.324   2.318
21040W        W89458   5.728   9.885   3.202
21041W        W89459  36.506   9.704  13.323
21042W        W89460  27.154   9.693   3.315
21043W        W89461  41.346  32.048  11.410
21044W        W89462  23.592  22.747  14.319
21045W        W89463  14.762  40.871  11.372
21046W        W89464   1.820  23.193   4.742
21047W        W89465  17.652  25.056  14.968
21048W        W89466  37.086   4.330  10.492
21049W        W89467  25.472   5.914  13.907
21050W        W89468  23.710  42.899  12.981
21051W        W89469  31.922  26.121  14.462
21052W        W89470  37.393   2.911  12.834
21053W        W89471  27.067  28.963  10.635
21054W        W89472  38.334  34.907   0.768
21055W        W89473  34.581  33.060   1.893
21056W        W89474  30.970  18.782   4.150
21057W        W89475  44.771  34.945  11.122
21058W        W89476   6.337  41.797  12.447
21059W        W89477   2.458  36.971   4.225
21060W        W89478  19.155  10.721  13.849
21061W        W89479  41.414  39.440   9.614
21062W        W89480  30.109  10.276  13.477
21063W        W89481  41.494  44.821   1.833
21064W        W89482  20.268  40.485   0.740
21065W        W89483  42.451  24.148   2.779
21066W        W89484   5.748  30.908  12.544
21067W        W89485  20.097  19.656   1.330
21068W        W89486   4.317  23.126   1.440
21069W        W89487  22.182  33.476  11.569
21070W        W89488  20.153  43.837  12.471
21071W        W89489  23.006  42.861  11.082
21072W        W89490  11.668  36.988  13.467
21073W        W89491  15.821  15.594  11.857
21074W        W89492  38.856  19.742   2.211
21075W        W89493   4.874  13.227   0.758
21076W        W89494  28.639  29.586  11.562
21077W        W89495  28.588   8.732   1.410
21078W        W89496  36.079   2.336   1.399
21079W        W89497  12.281  33.941   4.633
21080W        W89498  28.077  20.769  10.464
21081W        W89499   3.345  25.609  11.930
21082W        W89500  44.370  11.795   4.151
21083W        W89501  15.155  11.725  11.878
21084W        W89502  10.232  32.464  11.918
21085W        W89503   7.280  19.608   4.641
21086W        W89504  40.838  12.646   2.733
21087W        W89505  34.098  19.070  12.543
21088W        W89506  20.193  36.499  13.026
21089W        W89507  12.694  37.057   4.666
21090W        W89508  19.694  26.005  13.455
21091W        W89509  11.635  11.725   4.696
21092W        W89510  27.940  13.623  13.518
21093W        W89511  40.461   9.167  11.917
21094W        W89512  39.956  19.557   5.109
21095W        W89513  32.112  19.045   3.671
21096W        W89514  11.636  12.821  10.642
21097W        W89515  32.574  21.040   3.835
21098W        W89516  16.313  32.045   2.728
21099W        W89517  19.222   4.275  14.299
21100W        W89518  32.065  13.755   0.759
21101W        W89519  21.727   6.686   2.738
21102W        W89520  41.017  30.934  13.976
21103W        W89521   8.360  16.812  12.894
21104W        W89522  37.576  21.177  11.574
21105W        W89523  11.803   0.840  10.066
21106W        W89524   4.428  15.730  11.512
21107W        W89525  30.102  35.545   1.240
21108W        W89526  15.773   9.809   0.785
21109W        W89527  31.408  40.966   0.366
21110W        W89528  38.344   8.197   3.774
21111W        W89529  22.625  29.986   3.870
21112W        W89530   8.364  37.438   1.416
21113W        W89531  33.053  28.140  13.906
21114W        W89532  15.121  19.681   0.892
21115W        W89533  18.770  14.746  12.369
21116W        W89534  28.475  30.081  13.042
21117W        W89535  22.545  17.796   4.155
21118W        W89536  31.488  15.114   1.929
21119W        W89537  12.700  42.959   3.293
21120W        W89538  38.861  16.658   4.823
21121W        W89539  12.350  16.747   1.747
21122W        W89540  35.508  39.978  10.923
21123W        W89541  33.016  36.490  11.566
21124W        W89542  15.610  37.832  12.543
21125W        W89543  11.211   5.294   1.306
21126W        W89544  25.643  13.728   2.205
21127W        W89545  27.539  15.285   1.708
21128W        W89546  34.598  42.312  11.373
21129W        W89547   7.766  39.520   3.838
21130W        W89548  41.896  33.400   1.370
21131W        W89549   4.432  38.552   1.400
21132W        W89550  22.528  24.061  14.893
21133W        W89551  14.198  13.325  13.870
21134W        W89552   7.323  29.432   2.787
21135W        W89553   1.434   4.224   0.862
21136W        W89554   5.357  10.228   1.716
21137W        W89555  37.573  27.048   3.863
21138W        W89556  37.395  38.465  10.036
21139W        W89557  33.005  37.543   1.746
21140W        W89558  43.901  12.317  10.498
21141W        W89559  22.598  30.995  12.465
21142W        W89560  33.954  37.563  14.911
21143W        W89561  40.890  20.682  13.796
21144W        W89562  41.502  22.076   2.820
21145W        W89563  40.453  18.170   3.751
21146W        W89564  41.043  30.074  12.898
21147W        W89565  26.041  16.776   0.809
21148W        W89566   5.905  18.184   3.775
21149W        W89567   8.724   6.679  14.835
21150W        W89568  23.216  27.067   0.889
21151W        W89569  27.602   1.247   0.832
21152W        W89570   4.796   9.325  13.051
21153W        W89571  32.041  44.914  12.865
21154W        W89572   5.435  27.606   2.688
21155W        W89573  19.692  23.713   2.772
21156W        W89574  35.510  29.158   0.463
21157W        W89575   8.328   6.309  12.472
21158W        W89576   7.301  18.071  13.051
21159W        W89577  13.824   5.393   5.281
21160W        W89578  39.463   8.173  13.894
21161W        W89579  39.860  23.662  10.580
21162W        W89580  39.369  21.677   1.410
21163W        W89581  32.040  14.304   3.809
21164W        W89582  43.982   5.777  13.341
21165W        W89583  29.959  10.373   4.757
21166W        W89584   3.280  23.509  11.954
21167W        W89585  32.890  43.274   2.678
21168W        W89586  39.457  33.102  12.432
21169W        W89587   6.896  13.651   1.913
21170W        W89588  39.488   7.343  11.971
21171W        W89589  26.129  10.155  10.543
21172W        W89590  36.021  30.430  13.041
21173W        W89591  32.063  41.904   3.320
21174W        W89592  32.106  35.498   4.612
21175W        W89593   0.402  12.256  14.934
21176W        W89594   1.339  25.702   4.660
21177W        W89595  34.521   1.425   2.388
21178W        W89596  42.360  31.963  12.394
21179W        W89597  10.143  27.031  13.836
21180W        W89598  15.129   0.431   1.245
21181W        W89599  41.332  35.986  14.760
21182W        W89600   1.442  41.837  11.967
21183W        W89601  14.111  30.653  14.868
21184W        W89602  16.648  19.604  10.617
21185W        W89603  15.795   7.736   1.378
21186W        W89604  43.772   1.800   1.875
21187W        W89605   8.272  18.711   1.755
21188W        W89606  20.043  28.596  11.118
21189W        W89607   1.800  37.832  10.632
21190W        W89608   5.195  11.295   0.443
21191W        W89609  30.155  10.653   0.307
21192W        W89610  19.099  42.304   0.892
21193W        W89611  16.711  37.013  14.980
21194W        W89612   6.690   8.778  12.026
21195W        W89613  35.404  30.963   4.788
21196W        W89614  43.385   3.720  12.377
21197W        W89615  17.071  43.326   1.906
21198W        W89616  11.175  41.383  12.954
21199W        W89617  26.953  31.474   3.352
21200W        W89618  17.097  22.132   3.853
21201W        W89619  36.074  18.208   3.744
21202W        W89620   0.854   8.682  11.487
21203W        W89621   9.727  40.904  14.516
21204W        W89622  37.412   4.762  13.336
21205W        W89623  37.416  29.611   3.779
21206W        W89624  30.441  44.839   4.194
21207W        W89625  32.499   0.324  12.471
21208W        W89626  19.148   3.831   4.739
21209W        W89627  22.737  26.190   2.900
21210W        W89628  32.096  23.242   4.708
21211W        W89629  28.485  24.985   2.853
21212W        W89630   4.339  28.108   3.820
21213W        W89631  38.328  23.676   2.887
21214W        W89632  16.648  16.697  14.356
21215W        W89633  21.573  24.559  10.476
21216W        W89634  15.723   9.152   4.319
21217W        W89635   5.766  14.100  13.893
21218W        W89636  42.936   5.217   3.187
21219W        W89637   6.741   5.213   2.702
21220W        W89638   5.735  43.306   2.400
21221W        W89639  19.584  42.945  14.834
21222W        W89640  38.031  17.299   3.630
21223W        W89641  29.570  33.097   1.351
21224W        W89642  40.850   8.300   0.857
21225W        W89643  10.723   2.270  13.056
21226W        W89644  28.509  21.516   0.822
21227W        W89645   0.884   0.855  10.976
21228W        W89646  33.444   9.192  12.416
21229W        W89647  21.696  22.034   3.376
21230W        W89648  36.511  27.989   4.802
21231W        W89649  16.608  16.571  14.862
21232W        W89650  27.660  33.581  14.785
21233W        W89651  38.908  31.128  10.936
21234W        W89652   1.381  18.733  13.532
21235W        W89653  23.097  12.853   1.321
21236W        W89654  10.708  13.603  14.471
21237W        W89655   9.199  39.349   3.694
21238W        W89656   9.164  18.289   2.672
21239W        W89657  13.265  10.712  10.457
21240W        W89658  16.700  37.849   4.317
21241W        W89659  28.633   5.789  10.080
21242W        W89660  36.575  44.890  13.020
21243W        W89661  42.851  40.346  10.072
21244W        W89662   3.266  36.497  10.596
21245W        W89663  35.558  44.892   3.743
21246W        W89664  16.089  23.101  12.396
21247W        W89665   4.706  40.444  13.334
21248W        W89666  20.646  13.273  12.064
21249W        W89667  17.760  36.414   4.332
21250W        W89668   6.877  25.652   1.277
21251W        W89669  22.622   9.271  10.525
21252W        W89670   4.900  40.804   2.802
21253W        W89671  28.619  32.050   0.403
21254W        W89672  21.110   3.910  14.305
21255W        W89673   1.940  37.501  12.978
21256W        W89674  27.989   8.372  12.912
21257W        W89675  24.488   8.368  13.039
21258W        W89676  41.343  33.451   3.302
21259W        W89677  36.388  19.150  11.439
21260W        W89678  32.919  21.691  13.905
21261W        W89679   1.851  37.504   4.263
21262W        W89680  28.665  39.035  10.144
21263W        W89681   5.303  34.384   2.419
21264W        W89682  26.555  22.543   0.854
21265W        W89683   4.877   4.423   3.671
21266W        W89684  41.425  11.676  12.016
21267W        W89685  38.922  11.322   0.476
21268W        W89686  25.043  20.152  10.637
21269W        W89687   8.250   8.405  12.008
21270W        W89688  38.053  32.479   1.892
21271W        W89689  42.936  26.204   3.325
21272W        W89690  28.983   7.405   3.722
21273W        W89691  13.630  42.856  14.763
21274W        W89692  29.063  44.914  13.812
21275W        W89693  37.950  43.399  12.423
21276W        W89694  11.689   7.896  12.524
21277W        W89695  12.151  14.100   0.889
21278W        W89696  26.527  32.972   1.696
21279W        W89697   0.312  21.095   1.321
21280W        W89698  25.529  41.431   4.338
21281W        W89699  34.523  41.363   4.121
21282W        W89700  18.053  36.518   1.283
21283W        W89701  31.534  28.117   0.797
21284W        W89702  38.408  32.886  12.027
21285W        W89703  11.219   5.773   3.173
21286W        W89704  36.040  17.628   3.743
21287W        W89705  20.117  42.489   1.296
21288W        W89706  26.986  39.947  13.044
21289W        W89707  33.405   0.268  13.516
21290W        W89708  17.800  42.870  12.354
21291W        W89709  38.408  21.627   1.398
21292W        W89710   8.898  41.406   0.840
21293W        W89711  11.687  41.386   3.227
21294W        W89712  35.431  42.491   0.389
21295W        W89713   4.753  30.958   1.721
21296W        W89714   3.330  21.586   0.454
21297W        W89715  18.135  23.722  10.639
21298W        W89716  25.198  33.080  12.539
21299W        W89717  16.179   0.916   0.355
21300W        W89718  31.615  14.784   1.822
21301W        W89719  21.251   9.251   0.903
21302W        W89720  32.941  39.489   4.169
21303W        W89721  40.438  44.457   5.256
21304W        W89722   6.212  36.568  10.564
21305W        W89723  17.702  21.614  14.981
21306W        W89724  35.055  19.280  12.931
21307W        W89725  37.088  19.222   3.153
21308W        W89726  10.342  24.714   3.379
21309W        W89727  21.186  33.953  14.793
21310W        W89728  31.487  18.141   3.374
21311W        W89729   5.263  32.091  12.034
21312W        W89730  23.733  10.218   2.743
21313W        W89731   1.480  30.457   4.139
21314W        W89732   1.330   8.796  10.553
21315W        W89733  38.499  40.005  11.540
21316W        W89734  21.259  12.139  12.937
21317W        W89735  34.404   7.370  13.441
21318W        W89736  42.030   6.744  11.912
21319W        W89737  17.237  39.880  13.381
21320W        W89738  27.996   9.738   3.768
21321W        W89739   8.254  14.195   3.724
21322W        W89740   7.268   0.392  12.504
21323W        W89741  10.156  36.508   4.272
21324W        W89742   6.692  36.562  13.001
21325W        W89743   9.161  25.151   1.218
21326W        W89744   3.328   9.290   2.286
21327W        W89745  36.016  42.439   0.284
21328W        W89746   8.788  32.925  13.479
21329W        W89747  28.128  14.163   2.346
21330W        W89748  25.624  27.513  11.978
21331W        W89749   0.873   5.797   1.744
21332W        W89750  23.194  31.501  12.457
21333W        W89751  25.553  19.649  11.989
21334W        W89752  25.172   1.760  14.346
21335W        W89753  17.167  39.507  14.483
21336W        W89754   5.926  36.881  14.282
21337W        W89755  17.085   2.845  12.451
21338W        W89756  29.631  39.546  12.057
21339W        W89757  41.867  15.661   2.213
21340W        W89758  31.574  37.428   4.610
21341W        W89759  41.790  17.566  12.381
21342W        W89760  26.105  31.546   4.151
21343W        W89761  28.653  18.772  13.422
21344W        W89762  31.949  15.169  11.547
21345W        W89763  18.268  17.761  12.973
21346W        W89764  22.736  18.290  13.800
21347W        W89765  38.994   3.350   2.700
21348W        W89766  19.045  17.672  12.972
21349W        W89767  31.997  13.173   2.342
21350W        W89768  32.614  17.211  14.985
21351W        W89769   7.294  26.492  12.495
21352W        W89770  34.445  42.830   2.820
21353W        W89771   8.205   5.314  14.803
21354W        W89772  31.022  24.176  12.373
21355W        W89773  35.004  35.546   2.854
21356W        W89774  37.002  41.823  14.483
21357W        W89775   8.779   0.875   2.710
21358W        W89776  28.037  28.046  13.060
21359W        W89777  24.089   8.279  13.955
21360W        W89778   4.879  14.738  12.358
21361W        W89779  20.207  31.455   3.255
21362W        W89780   1.468   5.846  10.951
21363W        W89781  17.121  16.656  12.062
21364W        W89782   7.173  24.097   3.774
21365W        W89783  19.583  10.749   1.356
21366W        W89784  38.882  37.423  12.831
21367W        W89785  43.964  35.072   4.177
21368W        W89786  12.212  40.506   2.732
21369W        W89787  40.942  31.925  10.942
21370W        W89788  30.593  21.719   4.114
21371W        W89789  37.368  10.226  10.532
21372W        W89790  18.197  25.062   0.249
21373W        W89791   3.379  22.142   3.632
21374W        W89792  18.149  37.898  10.638
21375W        W89793  21.585  44.377  11.041
21376W        W89794  25.982   6.705   3.755
21377W        W89795   7.176  42.921  13.889
21378W        W89796   5.427   9.190   0.477
21379W        W89797  26.037  12.262   3.825
21380W        W89798  41.357  41.892  11.950
21381W        W89799  43.334  22.103  13.878
21382W        W89800  24.010  35.857   4.785
21383W        W89801  41.042  15.164  13.984
21384W        W89802   2.455  25.713  14.790
21385W        W89803  17.262  13.698  12.096
21386W        W89804  41.409   1.404   0.278
21387W        W89805   4.213  15.604   2.414
21388W        W89806  25.074  24.517   3.815
21389W        W89807  20.543  24.986  13.502
21390W        W89808  31.932   7.840  12.885
21391W        W89809  33.998  20.727   4.724
21392W        W89810  17.278  27.124  14.294
21393W        W89811   2.808  24.670  12.825
21394W        W89812  12.794  20.127   3.655
21395W        W89813  34.587  34.532  14.942
21396W        W89814  38.965  32.435   4.713
21397W        W89815  27.079  35.471   3.148
21398W        W89816  24.484  37.049   0.756
21399W        W89817  13.838  14.694  13.059
21400W        W89818   7.686  38.975  14.391
21401W        W89819  32.968   5.833   3.640
21402W        W89820   1.911  20.050  14.950
21403W        W89821   1.901   9.844  14.918
21404W        W89822  20.260  24.513  11.920
21405W        W89823  31.517  37.425  14.805
21406W        W89824   3.276  32.918   3.794
21407W        W89825  41.885  43.391  11.023
21408W        W89826   8.773   0.462   3.357
21409W        W89827   2.382  12.805   3.720
21410W        W89828  38.875  21.149  11.086
21411W        W89829   9.791  30.653  12.370
21412W        W89830  27.467  24.008  14.284
21413W        W89831  37.435  15.116  11.559
21414W        W89832   1.970  21.652   1.219
21415W        W89833  24.619  34.575  14.797
21416W        W89834  37.521  41.483   1.842
21417W        W89835  32.979   4.825   3.251
21418W        W89836  23.513  36.939   0.378
21419W        W89837  36.916  17.707   3.857
21420W        W89838  23.141  12.737   0.958
21421W        W89839   8.740  43.327  14.935
21422W        W89840   5.325  17.601   2.274
21423W        W89841  24.631  23.584   1.734
21424W        W89842  12.794  43.816   0.846
21425W        W89843  13.108   3.355  12.549
21426W        W89844  11.144  38.858  12.852
21427W        W89845   2.845  20.101  14.907
21428W        W89846   7.255  20.692   2.273
21429W        W89847  20.588  25.969   5.652
21430W        W89848  34.453  36.963   1.306
21431W        W89849  33.026  15.759  11.968
21432W        W89850  24.109   7.305  13.939
21433W        W89851  37.839  37.986  13.447
21434W        W89852  19.249  44.421  14.306
21435W        W89853  20.053  18.287  11.535
21436W        W89854  36.381  27.994   0.930
21437W        W89855   5.244  44.956  14.301
21438W        W89856  13.628  38.931   1.444
21439W        W89857  36.917  22.022   1.757
21440W        W89858  38.354  23.089   4.174
21441W        W89859  41.319  41.903   2.255
21442W        W89860   4.852  14.649  14.443
21443W        W89861  24.650  26.600  14.023
21444W        W89862  30.038  30.147  13.465
21445W        W89863  42.026  20.030  12.418
21446W        W89864  44.298  11.650   0.331
21447W        W89865  40.841   5.912   1.697
21448W        W89866  16.726  28.173   3.150
21449W        W89867  17.129   9.666   2.737
21450W        W89868   2.926  19.638   2.863
21451W        W89869  26.642   0.782   3.858
21452W        W89870  37.349  10.683  13.864
21453W        W89871  12.660   4.426   2.857
21454W        W89872  10.713  41.841   3.214
21455W        W89873  34.992  20.178  11.915
21456W        W89874   5.880  38.878   3.287
21457W        W89875  33.025  44.801  14.875
21458W        W89876  39.414  13.612   3.811
21459W        W89877  21.578  35.559   1.415
21460W        W89878  36.438  30.079  12.404
21461W        W89879  11.817  33.923   2.414
21462W        W89880   5.381  31.046   3.798
21463W        W89881  35.924  40.851  14.815
21464W        W89882  31.042  27.952   1.231
21465W        W89883   7.355  32.556  12.919
21466W        W89884  41.321  24.179  11.993
21467W        W89885  22.059   2.932  12.524
21468W        W89886  24.146  22.528   3.787
21469W        W89887   3.263  34.990   4.119
21470W        W89888   8.708  31.999   3.780
21471W        W89889  17.561  32.482   2.214
21472W        W89890  26.208   8.672   9.607
21473W        W89891   7.341  44.429   2.416
21474W        W89892  16.772  24.030   2.793
21475W        W89893  26.966   0.353  12.038
21476W        W89894  25.044  44.328  12.356
21477W        W89895   9.173  43.363   1.440
21478W        W89896  22.738  26.548   2.324
21479W        W89897  41.383  44.391   4.143
21480W        W89898  44.339   2.886  14.874
21481W        W89899   9.240  21.131  10.408
21482W        W89900  44.272  37.530   4.283
21483W        W89901  17.633  30.419   3.747
21484W        W89902  21.036  34.938  11.044
21485W        W89903  13.685  13.112   4.756
21486W        W89904  41.025  34.487  10.605
21487W        W89905  38.047   7.408  14.492
21488W        W89906  35.406   2.922  13.841
21489W        W89907  12.290  39.053   1.776
21490W        W89908  10.271  16.623  13.315
21491W        W89909  28.058   6.711   9.532
21492W        W89910  14.308  20.620   2.364
21493W        W89911  10.788  30.122  10.938
21494W        W89912  42.909  43.843  12.983
21495W        W89913  15.101  24.544  13.458
21496W        W89914  10.268  32.403  11.485
21497W        W89915  17.306  43.779  12.081
21498W        W89916  14.602  39.871   0.790
21499W        W89917  16.747  36.518  12.344
21500W        W89918  30.978  12.743  14.008
21501W        W89919   1.435  22.111   0.835
21502W        W89920  34.441  37.957   0.961
21503W        W89921  32.083  16.252  13.404
21504W        W89922  15.752  38.982   1.414
21505W        W89923  32.939  10.828  12.074
21506W        W89924  20.750   5.826   3.361
21507W        W89925  24.672  38.444  14.026
21508W        W89926  31.083  32.000  13.825
21509W        W89927  22.068  20.209  13.404
21510W        W89928  43.767  27.460   1.212
21511W        W89929  34.386  38.558   2.757
21512W        W89930  23.234  20.096   4.651
21513W        W89931  14.717  13.815   3.321
21514W        W89932  37.531  28.161   5.229
21515W        W89933  38.075  34.453   0.754
21516W        W89934  14.656  32.473   3.687
21517W        W89935  41.407  29.532  12.896
21518W        W89936  11.824  39.554  11.513
21519W        W89937  25.714  10.633   4.125
21520W        W89938  26.696   2.467  13.310
21521W        W89939  41.534  35.880  11.866
21522W        W89940  44.950  14.628   5.795
21523W        W89941  22.525   4.403   0.397
21524W        W89942  10.813  35.507   1.757
21525W        W89943   4.338  33.452  13.536
21526W        W89944   7.416   5.864   0.242
21527W        W89945  14.642  33.039   0.301
21528W        W89946  23.512  17.735   0.956
21529W        W89947  43.509  17.677   2.399
21530W        W89948  29.511  28.514  11.442
21531W        W89949   4.266  36.986   1.733
21532W        W89950  24.716  28.667   1.707
21533W        W89951   1.856  34.429  14.759
21534W        W89952  24.619  33.000  13.342
21535W        W89953  39.363  43.938  13.367
21536W        W89954  42.905  18.058  11.520
21537W        W89955   9.695  13.179   2.202
21538W        W89956   1.953  32.085  13.992
21539W        W89957  26.197  20.592   1.391
21540W        W89958  20.035  39.912  11.115
21541W        W89959  27.614  31.054   2.849
21542W        W89960  26.617  35.952   0.872
21543W        W89961  17.076  43.441   4.641
21544W        W89962   3.416  37.056  14.863
21545W        W89963  11.783  27.595   1.756
21546W        W89964  13.288   7.696  11.545
21547W        W89965  33.978  14.213  11.102
21548W        W89966  30.922  22.626  11.418
21549W        W89967  33.475  22.211  13.448
21550W        W89968   8.796  21.739   4.798
21551W        W89969  10.872  39.043   1.312
21552W        W89970  35.003   0.854  13.051
21553W        W89971  11.721  31.049   2.353
21554W        W89972   2.274   1.972   4.669
21555W        W89973  29.531  42.427   3.218
21556W        W89974  36.505  35.490   4.226
21557W        W89975  36.515  44.293  10.468
21558W        W89976   9.227  43.314  10.565
21559W        W89977  34.590   4.385   1.731
21560W        W89978  20.668  30.512  13.908
21561W        W89979   7.176   4.281  13.859
21562W        W89980  37.884  15.150   0.290
21563W        W89981  14.832  25.517   1.321
21564W        W89982  13.198   8.357  10.999
21565W        W89983  18.107  30.075   0.859
21566W        W89984  19.769  19.266   2.231
21567W        W89985   8.393  42.844  12.856
21568W        W89986  28.939  28.638  10.891
21569W        W89987  42.394  39.998   5.172
21570W        W89988   2.248   7.237  12.992
21571W        W89989  17.151  37.910   0.391
21572W        W89990  12.632  24.660   0.752
21573W        W89991  10.848  33.024  14.433
21574W        W89992  35.894   8.816  11.446
21575W        W89993   3.281  40.041  12.902
21576W        W89994  28.551  40.464  14.437
21577W        W89995  44.259  32.053  11.575
21578W        W89996  13.329   7.380   3.724
21579W        W89997   0.478   6.800   2.359
21580W        W89998  18.223  39.493  12.579
21581W        W89999  16.571  13.778  13.390
21582W        W90000  19.195  41.896  14.447
21583W        W90001  41.367   5.803   0.757
21584W        W90002  31.146  14.612  14.962
21585W        W90003  20.260   3.836   0.466
21586W        W90004  16.212  39.867   4.168
21587W        W90005   9.739   4.820   1.695
21588W        W90006   6.864  10.859  13.907
21589W        W90007  34.924  17.643  14.341
21590W        W90008   7.728  19.066   4.628
21591W        W90009   4.734  34.917  11.077
21592W        W90010  10.774  29.052   1.267
21593W        W90011  31.503  24.064  10.991
21594W        W90012   2.817   2.233  11.030
21595W        W90013   4.936  22.190   4.315
21596W        W90014  19.733  42.281   0.776
21597W        W90015   1.319   0.451  13.425
21598W        W90016  37.488   2.330  14.279
21599W        W90017  14.751  10.855  13.032
21600W        W90018  39.430  21.713  11.013
21601W        W90019   0.889   3.264  11.110
21602W        W90020   0.857  21.058   0.337
21603W        W90021  18.689  14.172   5.609
21604W        W90022  21.541  19.767   5.316
21605W        W90023  43.991  11.749  14.941
21606W        W90024   0.461  10.778   0.953
21607W        W90025  27.592   0.790   4.276
21608W        W90026  37.937  14.138  10.124
21609W        W90027  42.481  44.383  10.974
21610W        W90028  12.741  12.713  13.513
21611W        W90029  41.298  13.689  14.955
21612W        W90030  33.087  14.255  10.598
21613W        W90031  27.466   7.677   3.804
21614W        W90032  25.488  27.618   1.278
21615W        W90033   4.207  26.195   2.222
21616W        W90034  28.156  12.780   1.224
21617W        W90035  15.732   4.321   0.443
21618W        W90036  40.906  25.566  11.045
21619W        W90037   7.174  31.944   0.445
21620W        W90038  13.737  22.593   1.707
21621W        W90039  19.536  25.207   0.746
21622W        W90040   4.813  18.221  14.423
21623W        W90041   5.873   5.421  13.313
21624W        W90042   9.152   7.297   1.318
21625W        W90043   5.816  33.085   3.197
21626W        W90044   1.298   9.377   2.875
21627W        W90045  43.847  21.699   2.321
21628W        W90046  28.037  14.128  11.950
21629W        W90047  27.137  26.012  13.446
21630W        W90048  17.660  32.637  14.803
21631W        W90049   9.168  17.667  14.467
21632W        W90050  44.960  41.895  14.388
21633W        W90051  44.489  34.008  10.406
21634W        W90052   4.722   1.372   1.752
21635W        W90053  37.035   2.739   1.914
21636W        W90054  37.942  37.518   5.697
21637W        W90055  13.758  25.550   2.887
21638W        W90056   0.265  36.585  12.083
21639W        W90057  39.470  43.477  13.996
21640W        W90058   1.934  13.214   3.355
21641W        W90059  42.365  17.578   2.835
21642W        W90060  43.389   1.471   1.265
21643W        W90061  11.263  29.987  12.434
21644W        W90062  16.142  17.220   3.824
21645W        W90063   7.670  42.286  13.472
21646W        W90064  24.697  27.124   4.153
21647W        W90065  24.160  12.798   2.782
21648W        W90066  34.602  19.617   2.703
21649W        W90067   7.246  13.325  12.028
21650W        W90068  22.521  22.240   2.864
21651W        W90069  42.379  41.032   2.282
21652W        W90070   2.729  14.763  13.420
21653W        W90071  30.011  27.478  12.902
21654W        W90072   6.191  37.363   0.913
21655W        W90073  21.107   4.278   2.354
21656W        W90074   6.682   7.210  14.835
21657W        W90075  38.877  20.749   0.895
21658W        W90076  19.672  33.603   4.768
21659W        W90077  20.223   5.255  14.507
21660W        W90078  31.000  21.018  11.087
21661W        W90079  29.597  26.010  11.506
21662W        W90080  36.519  29.036  14.760
21663W        W90081  44.458  38.334  13.430
21664W        W90082  29.456   1.842   1.230
21665W        W90083  25.076  25.135  13.805
21666W        W90084  26.576  24.603   0.376
21667W        W90085  16.182  24.973  13.402
21668W        W90086  40.817  44.766   3.766
21669W        W90087   6.699  14.615   0.827
21670W        W90088  44.883   7.863   1.434
21671W        W90089   8.683   9.718  10.092
21672W        W90090   4.278  25.538  10.643
21673W        W90091  31.024  33.031  13.308
21674W        W90092  28.667  26.085  13.857
21675W        W90093  42.489  15.112   1.408
21676W        W90094  32.918   1.746   0.730
21677W        W90095  40.337  30.657   5.284
21678W        W90096  28.465   2.304   3.224
21679W        W90097  44.970  26.646  12.395
21680W        W90098   6.309   6.324  11.430
21681W        W90099  36.492  35.994   0.904
21682W        W90100   4.386  12.172   4.768
21683W        W90101  34.970   5.412   4.699
21684W        W90102  29.572  29.946  13.463
21685W        W90103  23.550   5.859  14.450
21686W        W90104  16.602  17.689  12.458
21687W        W90105  35.042  39.815  14.012
21688W        W90106   1.822  42.790   2.318
21689W        W90107  10.763  38.862   2.331
21690W        W90108   0.883   6.736  13.480
21691W        W90109  35.974   2.429  13.023
21692W        W90110  28.659  18.699  12.462
21693W        W90111  24.081   5.908   1.705
21694W        W90112  25.013  33.495   0.761
21695W        W90113  10.750  40.501  13.958
21696W        W90114   1.336  16.668   2.276
21697W        W90115  41.802  30.118  12.921
21698W        W90116   3.948  18.644  14.979
21699W        W90117  33.617  18.650  14.328
21700W        W90118  29.941  22.059  10.503
21701W        W90119  21.125  36.905  14.387
21702W        W90120   3.445  34.528   2.880
21703W        W90121  12.121   2.965  10.462
21704W        W90122  32.426  22.505   3.777
21705W        W90123   2.385  19.653   9.541
21706W        W90124  43.840  41.530  13.924
21707W        W90125   2.256  12.298   3.681
21708W        W90126  28.028   4.862  14.458
21709W        W90127  32.407  28.183   9.980
21710W        W90128  18.708  27.007  11.565
21711W        W90129  44.798  13.153  13.822
21712W        W90130  36.968  37.042   0.950
21713W        W90131  31.132  33.493  12.875
21714W        W90132  17.676  44.324  12.903
21715W        W90133   9.856  13.654   0.410
21716W        W90134  11.349  37.887  11.012
21717W        W90135  29.175   7.784  11.558
21718W        W90136  25.572   2.276  12.865
21719W        W90137  43.299  44.406  13.536
21720W        W90138  13.313  34.113   1.783
21721W        W90139  12.766   3.450   4.696
21722W        W90140   4.846  37.049  11.445
21723W        W90141  40.991  24.979   2.811
21724W        W90142  19.728  12.123   0.728
21725W        W90143  17.644  20.690   3.379
21726W        W90144  26.106  18.290   3.682
21727W        W90145  27.991  39.004  12.974
21728W        W90146  36.485  43.941   3.684
21729W        W90147   6.898  40.379   2.402
21730W        W90148  42.329  27.487   3.721
21731W        W90149  22.099   8.358   3.761
21732W        W90150   2.306  44.965  14.834
21733W        W90151  20.572  36.991   3.290
21734W        W90152  29.577  31.592  11.104
21735W        W90153  12.667  28.173  14.958
21736W        W90154  27.545  20.756  10.536
21737W        W90155  41.829  24.165  14.921
21738W        W90156  20.758  41.958  13.453
21739W        W90157  35.431  17.140  13.955
21740W        W90158  25.679  33.614   3.215
21741W        W90159  10.144  33.458  12.493
21742W        W90160  28.533  17.195  10.408
21743W        W90161  23.639   1.819  11.532
21744W        W90162  26.643  36.445  13.042
21745W        W90163  28.550  23.105  12.832
21746W        W90164  24.070  12.758  13.927
21747W        W90165  34.003  39.556  11.505
21748W        W90166  40.384  39.021   3.802
21749W        W90167  32.069  20.238  10.446
21750W        W90168   7.748  18.641   0.786
21751W        W90169  11.777  10.373   3.151
21752W        W90170   9.383   4.884  10.415
21753W        W90171   2.439  42.393  12.028
21754W        W90172  26.191  30.434  13.979
21755W        W90173  27.068  30.075  13.440
21756W        W90174  11.863  39.859   0.838
21757W        W90175  21.680  32.050   4.777
21758W        W90176  31.476   2.427   0.842
21759W        W90177  26.199  18.736   3.220
21760W        W90178  13.137  12.782   1.399
21761W        W90179  11.218  24.641  10.618
21762W        W90180  42.373   2.860   2.836
21763W        W90181   0.374  30.425  12.508
21764W        W90182  24.600  12.257  14.812
21765W        W90183  41.989  27.562   4.621
21766W        W90184  30.548  12.116   1.250
21767W        W90185   4.855  19.059   1.780
21768W        W90186  21.238  23.148  11.034
21769W        W90187  38.550  40.988   0.868
21770W        W90188  17.737  29.071   3.366
21771W        W90189  22.567  38.328   3.820
21772W        W90190  10.222  34.047   0.347
21773W        W90191  43.984  32.481  12.879
21774W        W90192   8.271  11.730   1.271
21775W        W90193   0.949   3.883  11.064
21776W        W90194  28.594  33.007   2.309
21777W        W90195  40.319  42.880  14.826
21778W        W90196  42.522   6.876   1.795
21779W        W90197  30.453  25.532   2.730
21780W        W90198  34.467  32.921   0.394
21781W        W90199  41.379   6.339   1.698
21782W        W90200   9.789  23.149   4.333
21783W        W90201  18.604  18.693   1.367
21784W        W90202  37.053  24.616  11.088
21785W        W90203  15.777  14.269   2.676
21786W        W90204  40.816  25.490  12.960
21787W        W90205   8.181  25.529   1.259
21788W        W90206  18.199  25.085  13.509
21789W        W90207  18.129  12.350  10.449
21790W        W90208  30.137  23.026  11.999
21791W        W90209   0.781  39.319   4.736
21792W        W90210  25.200  43.401   1.298
21793W        W90211  20.702  13.674  12.901
21794W        W90212   6.381  42.788  14.880
21795W        W90213  42.363  28.017  13.032
21796W        W90214   9.164   7.788  11.561
21797W        W90215  42.399   2.340   4.701
21798W        W90216  28.594   8.386   0.792
21799W        W90217  38.926  13.806   2.178
21800W        W90218  10.876   2.865   2.309
21801W        W90219  10.260  21.251   1.723
21802W        W90220  16.156  25.177  11.519
21803W        W90221  44.295  15.643  14.803
21804W        W90222  42.357  23.623  14.377
21805W        W90223  35.000   0.881   3.149
21806W        W90224  33.066  31.076   2.691
21807W        W90225  44.772  23.506   3.806
21808W        W90226  14.204  10.341  14.826
21809W        W90227  11.630  21.121  13.361
21810W        W90228  29.495   0.306   4.275
21811W        W90229  22.174   4.406   2.778
21812W        W90230  10.363  41.426   4.260
21813W        W90231  17.175  44.277  12.824
21814W        W90232  27.609   0.488   1.279
21815W        W90233  12.232  36.569  10.441
21816W        W90234  43.775  27.464   1.801
21817W        W90235   6.907   1.254  11.064
21818W        W90236  31.411  44.341  12.970
21819W        W90237  20.037  24.071   4.116
21820W        W90238   9.692  32.611  14.445
21821W        W90239  31.507  12.291   3.251
21822W        W90240  25.672  33.955  12.576
21823W        W90241  37.975  13.697   2.281
21824W        W90242  29.669  28.971  13.385
21825W        W90243  13.140  15.289   1.210
21826W        W90244  40.803   9.370   2.684
21827W        W90245  38.913  16.737  11.053
21828W        W90246  22.646  30.155  13.446
21829W        W90247   2.827   1.951  10.465
21830W        W90248   6.228  28.950  13.889
21831W        W90249   8.186   1.789  12.972
21832W        W90250  30.497   9.867  14.020
21833W        W90251  30.508  30.640  14.954
21834W        W90252  15.765  17.292  14.923
21835W        W90253  43.393  12.803  13.005
21836W        W90254  24.110  42.390   3.214
21837W        W90255  17.691  24.073   4.235
21838W        W90256  29.066  33.050  14.821
21839W        W90257  22.532  24.520  13.988
21840W        W90258   6.879  20.059   0.273
21841W        W90259  16.687   2.442   4.128
21842W        W90260  29.528  26.631   1.448
21843W        W90261  34.904  23.530  12.488
21844W        W90262  23.103  27.974  13.862
21845W        W90263  26.082  22.571   3.235
21846W        W90264  17.260  30.442   5.261
21847W        W90265  41.503  32.465  11.405
21848W        W90266  21.245  44.260   3.684
21849W        W90267  26.032  19.608   4.834
21850W        W90268  35.950  19.680  12.088
21851W        W90269  27.958   3.823  14.361
21852W        W90270  25.656   2.430   4.297
21853W        W90271   5.798  24.665   1.722
21854W        W90272   8.372  24.578   4.309
21855W        W90273  28.659  17.271  11.057
21856W        W90274  20.594  11.706  11.019
21857W        W90275  19.261   5.376  11.464
21858W        W90276  10.140  33.935   0.818
21859W        W90277  38.545  14.744  12.388
21860W        W90278  37.348  32.534  10.594
21861W        W90279  36.482  38.546   0.272
21862W        W90280  28.443  32.934  10.513
21863W        W90281  37.428  29.954  13.050
21864W        W90282  13.658  18.145   1.791
21865W        W90283   6.303  12.145  11.935
21866W        W90284  36.903  27.183  11.578
21867W        W90285  10.247  23.638   0.409
21868W        W90286  22.575  23.600   0.749
21869W        W90287  29.627  21.183  14.979
21870W        W90288  30.157  11.654   4.728
21871W        W90289  40.811  28.180  11.956
21872W        W90290  42.028  33.070   1.274
21873W        W90291  16.638  39.878   1.421
21874W        W90292   0.941  28.657   2.395
21875W        W90293   3.821  26.142   0.249
21876W        W90294  29.086  20.538  14.481
21877W        W90295  37.983  30.472   5.137
21878W        W90296   1.270  24.148  12.448
21879W        W90297  37.042  28.564  10.542
21880W        W90298   5.242  42.798  12.418
21881W        W90299  44.924  16.739   2.384
21882W        W90300  18.149  14.308  14.392
21883W        W90301   8.201  32.948   3.794
21884W        W90302   0.482  28.181   0.281
21885W        W90303  37.019   6.295  13.966
21886W        W90304  42.978  34.973  12.932
21887W        W90305  33.437  26.138  12.424
21888W        W90306  28.088  21.155   5.091
21889W        W90307  21.607  31.988   1.908
21890W        W90308  44.974  14.193   5.793
21891W        W90309   7.695  19.144  13.352
21892W        W90310  33.559  21.186   0.746
21893W        W90311  12.242   4.844  10.999
21894W        W90312  43.439  22.043   0.332
21895W        W90313  33.933   8.780  13.481
21896W        W90314  32.138  44.839  14.432
21897W        W90315  30.512  38.524   2.292
21898W        W90316   6.771   3.288  10.906
21899W        W90317  25.095  39.343   3.761
21900W        W90318   2.807  43.333   3.812
21901W        W90319   6.228  18.284   3.262
21902W        W90320  14.159  41.022  11.401
21903W        W90321   3.831   4.370  14.345
21904W        W90322  37.949  41.926  12.355
21905W        W90323  16.752  36.975   3.848
21906W        W90324   0.789  41.884   4.264
21907W        W90325  29.638  37.415  12.389
21908W        W90326  30.110  41.426  13.362
21909W        W90327  28.102  25.660  13.518
21910W        W90328  14.826   4.750   5.167
21911W        W90329  15.188  40.819  10.940
21912W        W90330  21.706  37.078   4.644
21913W        W90331  35.531   8.832   2.839
21914W        W90332  37.522   8.235  10.615
21915W        W90333  43.894   4.827   2.386
21916W        W90334  38.494   6.208   3.758
21917W        W90335   0.266  37.866  10.518
21918W        W90336  11.317  25.987   0.460
21919W        W90337  23.623  17.176   4.189
21920W        W90338   0.291  21.220  10.898
21921W        W90339  33.602   4.734   3.238
21922W        W90340  20.649  38.487  14.349
21923W        W90341  37.916   1.468   2.738
21924W        W90342  27.455  27.079  12.500
21925W        W90343  14.738  31.034   3.805
21926W        W90344  33.077  34.535  11.397
21927W        W90345  40.904  29.633   4.685
21928W        W90346  13.611  26.584   4.716
21929W        W90347  19.597  33.544  11.427
21930W        W90348  25.031  15.802   3.163
21931W        W90349  28.559  35.007   0.804
21932W        W90350   9.240  14.241  13.028
21933W        W90351   4.317  23.027   0.773
21934W        W90352  33.928  30.070   2.896
21935W        W90353  42.370  15.637  14.946
21936W        W90354  21.641   9.740   0.271
21937W        W90355  34.929  28.598   3.720
21938W        W90356   5.262   9.803  11.863
21939W        W90357  37.932  42.443   2.760
21940W        W90358   6.245  37.458   4.248
21941W        W90359  16.629  14.122  11.418
21942W        W90360  19.176  13.178   1.846
21943W        W90361  34.926  36.373  11.460
21944W        W90362  20.239  11.240  12.056
21945W        W90363  26.612  36.348  14.895
21946W        W90364   8.674   9.318  11.042
21947W        W90365   7.860  36.913  12.545
21948W        W90366   9.847  11.142  11.605
21949W        W90367   1.309  21.563   0.841
21950W        W90368  40.331  43.437   2.268
21951W        W90369  34.867  23.561  13.852
21952W        W90370  14.747  43.998  13.544
21953W        W90371  24.140   1.413  12.458
21954W        W90372  11.168  25.713  12.921
21955W        W90373   9.364  32.438  13.501
21956W        W90374  24.031  25.479   3.211
21957W        W90375  35.918  27.528  10.428
21958W        W90376  27.085  23.705   1.903
21959W        W90377  41.400  44.011  11.110
21960W        W90378   0.457  25.205  14.289
21961W        W90379   9.222  25.599   3.254
21962W        W90380   4.252  24.513   1.752
21963W        W90381  43.446  12.329  12.551
21964W        W90382  21.738  42.298   1.258
21965W        W90383   2.373   6.195   4.130
21966W        W90384  27.177  43.358   4.802
21967W        W90385  20.558  10.860  13.389
21968W        W90386  19.728  18.173  10.527
21969W        W90387   4.720  20.267   4.800
21970W        W90388   4.765  13.681  13.907
21971W        W90389  43.325  40.449   3.383
21972W        W90390   1.740  34.062  11.976
21973W        W90391  37.056  19.244   0.877
21974W        W90392  33.388   0.421  14.477
21975W        W90393   6.910  15.129  11.920
21976W        W90394  12.617  34.026   2.795
21977W        W90395  14.236  42.019  12.425
21978W        W90396  13.201  18.621  10.508
21979W        W90397  10.307  41.971   0.894
21980W        W90398  20.155  20.650   4.259
21981W        W90399  23.194  32.514   1.780
21982W        W90400  42.323   4.273  12.399
21983W        W90401   3.939  29.438   3.164
21984W        W90402  16.774   9.368   3.749
21985W        W90403  27.620   9.209   2.203
21986W        W90404  44.932  44.760  11.591
21987W        W90405   2.818   9.809   0.460
21988W        W90406  17.639   1.790  14.313
21989W        W90407  25.092  23.156  12.527
21990W        W90408  37.446  26.025  13.408
21991W        W90409   1.860   0.404   3.341
21992W        W90410  14.702   6.411  12.044
21993W        W90411  14.312  30.623   1.412
21994W        W90412  31.513   4.850  13.511
21995W        W90413  34.881   9.682   0.406
21996W        W90414   7.824  28.672  12.054
21997W        W90415  39.410  31.031   4.789
21998W        W90416  15.606  35.980  11.443
21999W        W90417   6.758  21.126  10.917
22000W        W90418  17.719  11.134  12.574
22001W        W90419  14.164  16.663   2.183
22002W        W90420  37.015  24.690   3.727
22003W        W90421  28.677  35.519  12.033
22004W        W90422  16.706  24.593   2.245
22005W        W90423  15.088  28.579   1.770
22006W        W90424  35.100  22.675  13.464
22007W        W90425  27.533  13.306  14.401
22008W        W90426   0.428  38.424  11.861
22009W        W90427  31.618   8.279  11.389
22010W        W90428  41.875  10.336  12.534
22011W        W90429  14.096   6.343   3.221
22012W        W90430  25.159   6.764  14.827
22013W        W90431  27.514  29.998   0.393
22014W        W90432  39.943  10.308   3.842
22015W        W90433   0.939  33.112  11.868
22016W        W90434   3.358  22.121  13.964
22017W        W90435  18.779  39.393  12.393
22018W        W90436  10.865  27.950  13.918
22019W        W90437   8.257  39.938  13.379
22020W        W90438  16.705  11.142  13.428
22021W        W90439  13.649   1.250  13.445
22022W        W90440   8.658  32.608  10.510
22023W        W90441   7.404  28.660   3.318
22024W        W90442   9.839  12.305  11.959
22025W        W90443  27.945   9.260  14.775
22026W        W90444  15.673   0.395   4.806
22027W        W90445   9.685  30.586  14.489
22028W        W90446  21.579  16.135   3.643
22029W        W90447  15.613  33.398   0.942
22030W        W90448  26.973  38.508   4.721
22031W        W90449   0.397  11.287   2.314
22032W        W90450   4.874  10.679  10.024
22033W        W90451  31.502  39.417   0.792
22034W        W90452  44.380   2.929   0.392
22035W        W90453   8.768  35.900  14.937
22036W        W90454  44.908  10.658   1.736
22037W        W90455  14.163   6.730   3.856
22038W        W90456   8.864  13.606   4.808
22039W        W90457   6.323  12.817   1.426
22040W        W90458   3.456  28.100   1.860
22041W        W90459   8.341  41.412   4.718
22042W        W90460   4.762  41.382  11.005
22043W        W90461   3.839   2.937  11.588
22044W        W90462  23.195  21.590   2.243
22045W        W90463  38.826  38.436   2.800
22046W        W90464  40.506  37.572   1.370
22047W        W90465  21.198   6.217  12.431
22048W        W90466   1.349   2.745   1.835
22049W        W90467  20.641   3.955  12.541
22050W        W90468  18.259  31.099   1.869
22051W        W90469  22.677  43.835  13.833
22052W        W90470  40.434  31.579   2.302
22053W        W90471  33.129  39.366  14.289
22054W        W90472  10.246  28.559   3.300
22055W        W90473   3.417  40.457  14.361
22056W        W90474  44.484  21.756  12.427
22057W        W90475  26.089   8.228   0.274
22058W        W90476  16.299  14.778  12.492
22059W        W90477   0.925  37.940  10.990
22060W        W90478  21.588  21.197   3.735
22061W        W90479  29.470   4.915  14.504
22062W        W90480  35.094  22.515  11.575
22063W        W90481   4.215  14.777   3.704
22064W        W90482  41.895  39.401  12.472
22065W        W90483  19.741  32.088   1.416
22066W        W90484  12.765  41.515   4.168
22067W        W90485  42.885  38.417  10.892
22068W        W90486  38.891  39.477  10.496
22069W        W90487   6.327  31.071   1.439
22070W        W90488  43.017  28.962  13.416
22071W        W90489   8.679  42.936  14.888
22072W        W90490   8.749   2.889  12.057
22073W        W90491  28.940  15.725  13.322
22074W        W90492  17.773  30.020   3.146
22075W        W90493   7.276  27.132  11.059
22076W        W90494   7.846  21.719   2.200
22077W        W90495  13.210  33.611   3.222
22078W        W90496   2.293  18.589  11.077
22079W        W90497   9.379  43.348  11.106
22080W        W90498  26.192  24.575   1.911
22081W        W90499  18.663  27.503   2.359
22082W        W90500   0.473  33.069  11.401
22083W        W90501  39.440  44.280  11.433
22084W        W90502   5.363  44.798   2.841
22085W        W90503   9.744   7.306  11.473
22086W        W90504  40.471  29.512  12.096
22087W        W90505  34.008  25.490   1.440
22088W        W90506  32.956  35.933   3.384
22089W        W90507  44.474  22.060   2.314
22090W        W90508  39.355  15.290  14.024
22091W        W90509  39.389  13.342   2.765
22092W        W90510  36.561   8.800   4.341
22093W        W90511   5.326  42.973   5.171
22094W        W90512  30.035   8.799  13.868
22095W        W90513  15.623  40.008   4.609
22096W        W90514  19.061  32.581  12.999
22097W        W90515  31.608   9.737  11.445
22098W        W90516  16.215   5.409   1.342
22099W        W90517  18.598  23.151   1.299
22100W        W90518  26.567  40.827   1.745
22101W        W90519  23.115  18.577  10.563
22102W        W90520  22.519  38.979  13.455
22103W        W90521  32.937  17.568   1.362
22104W        W90522  43.003  31.958   2.811
22105W        W90523  18.688   1.393  10.526
22106W        W90524  12.832   6.679   0.280
22107W        W90525  22.252  16.263   0.894
22108W        W90526   0.895  31.150   3.300
22109W        W90527   8.817  32.093   0.459
22110W        W90528   5.430  14.766  13.055
22111W        W90529  27.989  17.784   1.731
22112W        W90530  14.124  36.542   4.791
22113W        W90531  11.263  36.038   2.214
22114W        W90532  35.544   7.772   0.393
22115W        W90533  31.068  21.754   3.304
22116W        W90534  23.097  16.783   2.725
22117W        W90535  15.147  41.957  13.434
22118W        W90536  22.723  25.149  11.916
22119W        W90537  31.613  17.185   2.356
22120W        W90538   1.785  34.465   3.323
22121W        W90539  25.081  40.835  11.037
22122W        W90540  23.229  25.006   1.387
22123W        W90541  13.229   1.732  14.808
22124W        W90542   5.909  32.451   0.410
22125W        W90543  36.079  42.484  11.385
22126W        W90544  29.919  23.016  11.123
22127W        W90545   9.313  35.950   4.801
22128W        W90546  43.883  22.174   3.811
22129W        W90547  13.138   0.288   3.822
22130W        W90548  31.073  42.901   0.320
22131W        W90549  31.535  12.293   2.266
22132W        W90550  25.590  37.418   1.370
22133W        W90551   4.347   9.793   3.177
22134W        W90552  36.908  34.999  12.940
22135W        W90553  27.038  29.583   1.715
22136W        W90554  20.257  33.523  13.955
22137W        W90555  36.535  19.715  14.001
22138W        W90556  21.176   0.985  10.587
22139W        W90557  16.738  23.985   0.434
22140W        W90558  28.616  24.170  14.440
22141W        W90559  32.428  12.731   1.696
22142W        W90560  43.424  36.460  13.472
22143W        W90561   1.338  26.208  12.451
22144W        W90562  26.997  38.946  12.045
22145W        W90563  40.986  23.005  10.522
22146W        W90564  36.383   8.808  11.964
22147W        W90565  15.261  14.199  12.401
22148W        W90566  15.729  39.460  10.031
22149W        W90567  10.369  36.009   2.744
22150W        W90568  12.208  35.993   0.409
22151W        W90569  24.664  19.627   2.825
22152W        W90570  12.794  42.960   1.798
22153W        W90571  42.898  40.931  14.987
22154W        W90572  34.539  18.136   4.223
22155W        W90573  33.901  14.298   2.183
22156W        W90574   6.187   9.152   1.241
22157W        W90575  27.447  26.204  10.594
22158W        W90576  37.957  41.426  12.946
22159W        W90577  11.712  19.540  14.794
22160W        W90578  17.743  29.523   1.852
22161W        W90579  18.234  20.640  13.999
22162W        W90580  31.496  20.716   2.696
22163W        W90581  17.136  16.242  11.577
22164W        W90582  20.098   6.238  10.932
22165W        W90583   3.457  23.166   0.296
22166W        W90584   4.770   2.920   2.860
22167W        W90585  41.876  20.709   2.695
22168W        W90586  27.585  38.526   4.792
22169W        W90587   3.759   8.698  10.533
22170W        W90588   3.767  33.466   2.678
22171W        W90589  28.679  31.137  10.595
22172W        W90590  27.012   6.709  14.944
22173W        W90591  36.545   0.904   4.682
22174W        W90592  21.701  35.520   2.740
22175W        W90593  14.599  15.094  11.859
22176W        W90594   1.965  39.342   0.754
22177W        W90595   5.728   7.235  12.839
22178W        W90596  17.612  34.944   4.230
22179W        W90597   1.424  17.166  12.537
22180W        W90598  30.939  27.525   3.721
22181W        W90599  15.268  41.033  10.509
22182W        W90600   5.746  33.494   4.302
22183W        W90601   4.833   6.199  14.948
22184W        W90602  12.818  35.897  13.886
22185W        W90603  19.206  30.462  13.954
22186W        W90604  41.448  22.037   3.779
22187W        W90605  33.085  35.468   0.959
22188W        W90606  36.061  17.171   1.822
22189W        W90607  23.083  23.493   3.301
22190W        W90608   8.390  37.892  14.925
22191W        W90609  10.757  15.773  14.006
22192W        W90610   4.355  35.082   3.260
22193W        W90611   0.955  35.002   0.467
22194W        W90612   0.248  11.236  14.856
22195W        W90613  10.259  37.548  14.474
22196W        W90614  10.807  32.456  12.841
22197W        W90615  12.698  17.290   0.921
22198W        W90616  37.439  40.409   1.931
22199W        W90617  22.011  42.872   3.364
22200W        W90618   3.322  42.913   2.257
22201W        W90619  18.195  20.677  11.449
22202W        W90620  32.990  33.911  11.119
22203W        W90621  27.124  23.093   4.684
22204W        W90622  12.623  39.475   3.171
22205W        W90623  36.971  41.454  11.028
22206W        W90624  12.176  26.675  13.402
22207W        W90625  35.417  38.893   2.323
22208W        W90626   6.317  43.801   1.928
22209W        W90627  44.808  15.800  14.502
22210W        W90628  39.006  20.720   1.788
22211W        W90629  32.507  27.520   3.821
22212W        W90630   1.292  44.966   0.314
22213W        W90631  26.491  23.129   3.158
22214W        W90632  16.796  43.867  14.879
22215W        W90633  13.120  18.649   4.786
22216W        W90634  35.884  38.432  12.910
22217W        W90635  19.244  25.012   4.265
22218W        W90636  10.257  23.576   4.709
22219W        W90637  13.247  40.862   4.286
22220W        W90638  20.707  14.641   2.253
22221W        W90639  35.014  23.142   0.468
22222W        W90640   1.813  15.599   1.369
22223W        W90641  10.769  25.071   1.815
22224W        W90642  19.050  17.189  13.434
22225W        W90643  15.711   6.392  12.413
22226W        W90644   0.852  18.089   4.782
22227W        W90645   3.333  20.708   4.141
22228W        W90646   9.261   9.882   0.416
22229W        W90647  24.143   6.883   1.805
22230W        W90648   7.675  37.373  14.459
22231W        W90649  30.967  43.993   2.737
22232W        W90650   0.783   4.416   3.275
22233W        W90651  29.627   2.346   5.098
22234W        W90652  23.069  25.155   1.712
22235W        W90653   1.291   3.363  14.326
22236W        W90654  43.887  11.646   9.525
22237W        W90655  28.969  23.006   4.296
22238W        W90656  22.628  44.280   3.248
22239W        W90657  22.145  43.776  11.579
22240W        W90658   5.861  26.068   2.279
22241W        W90659   1.786  19.156   4.275
22242W        W90660  36.442  40.372   2.805
22243W        W90661  33.496   9.199  12.087
22244W        W90662   3.450   9.659  14.928
22245W        W90663  12.852  18.229  12.361
22246W        W90664  31.522  14.117  11.447
22247W        W90665   0.445   7.407   1.809
22248W        W90666  44.326  44.473   3.784
22249W        W90667  37.448   2.884  10.564
22250W        W90668  35.099  43.435   0.339
22251W        W90669  19.655   7.691   2.206
22252W        W90670   3.452  35.599  13.450
22253W        W90671  27.030   2.430  14.508
22254W        W90672  42.950   4.755  11.921
22255W        W90673  23.026  12.647   2.857
22256W        W90674  19.750  43.014  13.887
22257W        W90675   2.765  14.662  12.999
22258W        W90676   6.816  27.571  14.796
22259W        W90677  11.202  27.982   3.652
22260W        W90678  27.550  16.635   4.283
22261W        W90679   2.858  33.568   4.678
22262W        W90680   3.931  30.050   3.259
22263W        W90681   5.429  11.844  14.480
22264W        W90682  39.003  36.395   1.788
22265W        W90683  13.730  15.304  13.797
22266W        W90684  16.786  31.615  10.476
22267W        W90685  35.995  43.807  14.513
22268W        W90686   5.214  24.161   4.801
22269W        W90687   9.232  38.477   2.405
22270W        W90688   8.266  24.992  13.933
22271W        W90689  20.080  19.263   1.711
22272W        W90690  44.873  42.504  12.086
22273W        W90691   8.390  10.175  13.978
22274W        W90692  42.956  30.563   4.825
22275W        W90693  40.830  43.945   2.388
22276W        W90694  37.405   5.869   1.756
22277W        W90695  22.665  12.726  10.517
22278W        W90696   1.925  21.147   0.422
22279W        W90697   3.815  24.095   0.262
22280W        W90698  21.723  13.687  13.028
22281W        W90699  14.274  34.863   4.799
22282W        W90700  11.309  23.547   1.854
22283W        W90701  31.153  19.141  13.939
22284W        W90702  12.164  32.524   0.466
22285W        W90703  20.569   7.269   2.844
22286W        W90704  17.625   7.820  11.457
22287W        W90705  20.029   1.857   0.730
22288W        W90706  21.662  10.744   0.933
22289W        W90707  29.462  37.845   0.850
22290W        W90708  10.638   0.327   1.800
22291W        W90709  24.161  34.464   2.704
22292W        W90710  35.938  40.546  13.383
22293W        W90711  43.505  35.566   4.639
22294W        W90712   9.224  24.529  11.469
22295W        W90713  42.800  34.989  13.886
22296W        W90714  39.517  23.661  10.894
22297W        W90715  22.008  19.619  14.386
22298W        W90716  32.980  23.150  11.124
22299W        W90717   4.808  13.713  14.442
22300W        W90718  23.536   0.332   3.664
22301W        W90719  42.473  10.727  11.527
22302W        W90720  26.130  17.620   2.883
22303W        W90721  11.146  42.337   0.393
22304W        W90722  44.449  31.040   1.300
22305W        W90723  19.607  15.668   3.751
22306W        W90724   5.711  42.513   4.173
22307W        W90725  16.666   9.179   2.199
22308W        W90726  33.574  35.935  11.543
22309W        W90727  10.350  37.391   1.428
22310W        W90728  12.151  35.414  14.389
22311W        W90729   6.865  23.499   2.687
22312W        W90730  17.785   9.696   2.842
22313W        W90731   0.442  43.488  13.454
22314W        W90732  38.357  34.012  10.939
22315W        W90733  20.125  25.032   3.851
22316W        W90734  15.581   3.942   1.285
22317W        W90735   0.320  17.196  10.633
22318W        W90736  33.596  43.294   4.815
22319W        W90737  24.080  34.455  14.336
22320W        W90738  41.414   3.304   1.696
22321W        W90739  21.153  22.583   1.390
22322W        W90740   1.360  32.923  12.362
22323W        W90741  19.170  25.070   2.789
22324W        W90742  23.688  28.186  12.969
22325W        W90743  41.960  20.122   1.888
22326W        W90744  35.570  26.182   2.817
22327W        W90745  23.533  37.422   4.623
22328W        W90746  26.116   9.386  13.005
22329W        W90747  23.632   9.191  10.435
22330W        W90748  12.758  19.079   0.900
22331W        W90749  28.534  39.047   4.668
22332W        W90750  24.989  18.651  14.853
22333W        W90751  11.828  26.503  12.061
22334W        W90752   0.423   2.442   3.301
22335W        W90753  30.612  18.095   0.905
22336W        W90754  10.368  28.646  11.903
22337W        W90755  35.969  29.492   1.421
22338W        W90756  16.792  40.957  10.642
22339W        W90757  10.809   6.771   1.403
22340W        W90758   7.907  21.155   2.794
22341W        W90759  20.711  10.709   2.288
22342W        W90760  29.455  41.914  13.833
22343W        W90761  24.117  16.717   1.801
22344W        W90762  37.864   6.738  10.587
22345W        W90763  29.551  25.472   3.182
22346W        W90764   2.785  27.508   0.955
22347W        W90765  24.485   8.739  12.414
22348W        W90766  20.080  37.973  14.416
22349W        W90767  37.005   6.218  14.889
22350W        W90768  14.669  19.046  13.362
22351W        W90769  33.388  14.314   3.724
22352W        W90770  26.639  40.542   3.649
22353W        W90771  31.453  17.592  11.587
22354W        W90772  20.630  35.565  10.498
22355W        W90773   4.862  16.766   3.214
22356W        W90774  13.305  30.483  11.538
22357W        W90775  13.279  16.668   0.821
22358W        W90776  21.575  24.986  11.444
22359W        W90777  21.019  17.189   3.809
22360W        W90778  14.161   4.732   2.881
22361W        W90779  26.493  20.058   2.836
22362W        W90780  20.084   6.824   0.811
22363W        W90781  39.839   5.376   4.247
22364W        W90782  26.659  24.147  11.879
22365W        W90783  36.873  40.031   1.797
22366W        W90784  40.533  34.877   4.756
22367W        W90785  33.621  12.786   2.688
22368W        W90786  27.954  39.879  10.636
22369W        W90787  13.279  26.479   2.314
22370W        W90788   9.745  26.573  10.026
22371W        W90789  15.241  15.820   1.754
22372W        W90790  30.488   3.397   4.316
22373W        W90791   6.734  41.424  11.477
22374W        W90792  42.996  15.634  12.003
22375W        W90793  23.210  37.578   9.938
22376W        W90794  21.534  11.864   4.603
22377W        W90795  30.448  17.121   1.240
22378W        W90796  21.596  17.075  12.845
22379W        W90797  41.999  32.058  13.475
22380W        W90798  38.847   7.191  10.022
22381W        W90799  40.469   0.910   0.825
22382W        W90800   8.861   2.857   3.198
22383W        W90801  35.904  30.032   3.794
22384W        W90802  16.177  29.507  11.073
22385W        W90803  17.306   7.294   4.269
22386W        W90804  19.671  36.979  12.507
22387W        W90805  42.476   1.881   3.257
22388W        W90806  35.492   6.747   2.193
22389W        W90807  18.274  36.384  11.987
22390W        W90808  16.237  30.151  14.483
22391W        W90809  11.806  35.434   3.714
22392W        W90810  33.463  38.029   4.659
22393W        W90811   4.284  22.507   3.381
22394W        W90812   6.374   0.335   0.815
22395W        W90813   7.218  30.413  11.956
22396W        W90814  15.605  18.553   4.722
22397W        W90815  14.110  27.618  14.341
22398W        W90816  42.314  24.987   3.825
22399W        W90817   6.408  30.909  13.974
22400W        W90818  19.270  39.515   1.408
22401W        W90819  18.640   6.299   0.771
22402W        W90820  33.381   3.912   2.339
22403W        W90821  19.649  10.277   0.344
22404W        W90822  20.132   5.305   0.957
22405W        W90823  11.633  36.499  12.535
22406W        W90824   6.687  37.028   2.766
22407W        W90825  33.578  26.079  11.375
22408W        W90826  11.345  29.486   2.342
22409W        W90827  21.690  38.410  11.414
22410W        W90828  18.104   8.854  14.020
22411W        W90829  30.657  14.158   1.397
22412W        W90830   9.698  23.102   0.774
22413W        W90831  30.417   6.285   3.313
22414W        W90832  20.693  35.523  11.889
22415W        W90833  18.763  35.039   4.284
22416W        W90834  43.451  39.914  11.532
22417W        W90835  41.843  12.845   1.445
22418W        W90836  31.110   9.233   0.259
22419W        W90837  37.446   5.751  14.509
22420W        W90838  19.685   9.301   4.625
22421W        W90839  16.572  26.684  14.503
22422W        W90840  10.721   2.899   4.124
22423W        W90841  36.484  15.294  10.596
22424W        W90842  41.885   6.296   0.273
22425W        W90843   1.307  20.150   5.310
22426W        W90844  21.706  17.251   0.270
22427W        W90845   2.395  25.509  14.285
22428W        W90846  18.149  20.649  11.956
22429W        W90847  26.591  32.952  10.905
22430W        W90848  19.147  40.383   2.867
22431W        W90849  18.628  12.255   0.296
22432W        W90850  16.159  35.943  13.990
22433W        W90851  44.805  35.450  13.036
22434W        W90852  36.488  30.926  12.872
22435W        W90853  28.011  43.504  12.523
22436W        W90854  19.702  14.819   5.116
22437W        W90855   8.286  31.071   4.708
22438W        W90856   8.167  19.722   3.242
22439W        W90857  23.562  25.064   2.269
22440W        W90858  11.198  43.804  12.386
22441W        W90859  44.304  24.055   2.812
22442W        W90860  35.567   5.816  11.901
22443W        W90861   7.397  32.418  13.321
22444W        W90862   9.190  44.845   4.834
22445W        W90863   0.824  21.725  11.949
22446W        W90864   6.351  15.810   4.316
22447W        W90865  17.195  27.692   3.737
22448W        W90866  39.850  36.996  13.913
22449W        W90867  24.609  19.228  11.963
22450W        W90868   8.696  12.290   1.310
22451W        W90869   2.428  33.958   3.297
22452W        W90870  25.578  34.481  12.052
22453W        W90871  27.984  41.523   2.372
22454W        W90872  12.208  16.719  11.583
22455W        W90873  10.164  16.684  10.075
22456W        W90874  24.196  22.115  14.787
22457W        W90875  24.187  13.143  10.962
22458W        W90876  34.941  15.730  12.430
22459W        W90877  10.354  16.282  12.987
22460W        W90878  24.614  20.147  14.283
22461W        W90879   0.444  12.781   3.678
22462W        W90880  21.641  19.551   3.850
22463W        W90881  17.780  20.162   4.344
22464W        W90882  20.752   1.744  12.866
22465W        W90883   2.441   1.803  13.423
22466W        W90884  43.992  36.941  14.440
22467W        W90885  19.775   8.179   3.734
22468W        W90886  31.551   1.782  14.996
22469W        W90887  32.926  11.665  11.413
22470W        W90888  14.272  44.797   2.392
22471W        W90889  31.578  34.605  12.506
22472W        W90890  40.865   8.307  11.978
22473W        W90891   0.892  20.558   4.792
22474W        W90892  22.597   4.344  11.547
22475W        W90893  23.098  22.523  14.921
22476W        W90894   1.824  41.956  11.498
22477W        W90895  39.913  38.392   1.310
22478W        W90896   8.382  39.901  10.992
22479W        W90897  20.696  44.946  11.120
22480W        W90898  19.751  36.458   1.817
22481W        W90899  37.875   7.195  12.365
22482W        W90900  25.194   5.806  10.931
22483W        W90901  42.972  33.419   0.930
22484W        W90902  27.542  30.526  13.944
22485W        W90903  23.131   9.291   4.174
22486W        W90904   2.440  40.959   0.405
22487W        W90905  41.316  25.031  10.943
22488W        W90906  40.011  18.074   4.281
22489W        W90907  38.342  26.136   3.253
22490W        W90908  18.191  16.291  11.915
22491W        W90909  18.620  42.919   4.223
22492W        W90910  38.908  12.255   4.630
22493W        W90911   6.750  22.058   2.225
22494W        W90912  43.014   5.728  10.469
22495W        W90913  30.097  31.967  11.020
22496W        W90914   8.689  18.261  12.077
22497W        W90915   9.675   4.762   4.244
22498W        W90916  11.350   9.731  13.932
22499W        W90917  10.242  22.008   2.870
22500W        W90918  37.906  16.217  13.322
22501W        W90919   9.202  38.352   2.724
22502W        W90920   0.976  33.559  11.066
22503W        W90921  37.348  36.954   4.834
22504W        W90922  21.122  29.097  12.448
22505W        W90923   2.471   1.466  14.492
22506W        W90924   7.819  37.879  10.572
22507W        W90925  23.654  42.334  11.574
22508W        W90926  44.372  15.617   3.369
22509W        W90927   7.731   9.273  10.631
22510W        W90928  43.960  13.219   4.223
22511W        W90929   9.191  26.478  10.911
22512W        W90930  29.045  34.968  12.455
22513W        W90931  13.818  40.023   3.292
22514W        W90932  15.595  35.951   5.297
22515W        W90933  22.117  18.775  14.967
22516W        W90934  35.011   5.314  13.498
22517W        W90935  13.736  18.084  12.856
22518W        W90936  36.930  13.261   4.639
22519W        W90937  25.497  31.528   0.909
22520W        W90938  24.120  31.610  13.833
22521W        W90939  19.623   4.700   3.738
22522W        W90940  13.827  19.679   3.178
22523W        W90941  25.040  30.120   1.340
22524W        W90942  19.096  23.490   3.681
22525W        W90943  39.395  36.898  10.567
22526W        W90944  23.160  27.606   0.452
22527W        W90945  44.414  42.888  12.419
22528W        W90946  26.086  43.296   0.901
22529W        W90947  20.119   7.796   0.736
22530W        W90948  10.751  30.587   3.720
22531W        W90949   5.694  41.437   2.696
22532W        W90950  30.989  42.386  14.469
22533W        W90951  23.156  25.529   1.857
22534W        W90952   9.702   9.716  10.454
22535W        W90953  37.044  27.113   1.763
22536W        W90954  44.999  11.371  11.983
22537W        W90955  31.971   1.241  10.913
22538W        W90956  30.555  41.314   1.835
22539W        W90957   6.718  10.723  14.912
22540W        W90958  38.483  25.650   3.677
22541W        W90959  21.537   8.236   2.668
22542W        W90960  40.047  23.645   3.857
22543W        W90961   3.846  33.498  12.417
22544W        W90962  44.957  29.080  10.928
22545W        W90963  29.590  20.201  12.537
22546W        W90964  25.963  25.538  13.045
22547W        W90965  19.738  31.500  13.387
22548W        W90966  41.401   3.819   3.166
22549W        W90967   6.361  26.629   5.161
22550W        W90968  21.693   8.816  14.392
22551W        W90969  16.608  29.518  12.020
22552W        W90970  26.463   1.366  12.057
22553W        W90971   9.808  41.425   2.399
22554W        W90972  22.045  36.386   4.765
22555W        W90973  11.678  34.531  14.028
22556W        W90974  30.518  35.910   3.711
22557W        W90975  12.281  13.133  10.444
22558W        W90976  16.567  24.153  13.963
22559W        W90977  26.650  22.065  11.606
22560W        W90978  32.125  38.936   3.777
22561W        W90979  27.025  33.505   2.270
22562W        W90980  17.581  21.559  14.318
22563W        W90981   2.948   6.332  11.410
22564W        W90982  16.087   8.689  10.576
22565W        W90983   6.803   4.211   3.850
22566W        W90984  20.696  40.048  13.408
22567W        W90985  36.970  35.092   1.743
22568W        W90986  27.567   5.931  11.441
22569W        W90987   4.816  16.593   9.933
22570W        W90988  17.278  41.852   1.304
22571W        W90989  44.499  38.512   3.755
22572W        W90990  12.190  38.460  14.852
22573W        W90991  15.101   4.906  12.358
22574W        W90992   0.273  39.837  12.442
22575W        W90993  30.413  24.182   4.801
22576W        W90994  44.006  15.238   4.328
22577W        W90995   9.735  26.645   3.197
22578W        W90996  15.324   8.793  10.594
22579W        W90997  26.005   1.888  10.942
22580W        W90998  28.163   7.211  10.891
22581W        W90999  21.223  12.826  13.532
22582W        W91000   6.701   7.903   3.162
22583W        W91001   3.255  12.128   2.411
22584W        W91002  40.340   7.781   1.735
22585W        W91003  15.251  20.191   0.778
22586W        W91004  14.247  39.906  11.894
22587W        W91005   6.863  16.127  13.935
22588W        W91006  39.854  21.671  13.853
22589W        W91007  27.191  39.316  13.966
22590W        W91008  20.185  44.831   2.899
22591W        W91009  44.387  14.231   0.298
22592W        W91010  34.552  12.632  10.553
22593W        W91011  18.268  29.603  14.425
22594W        W91012   9.194   0.391   4.660
22595W        W91013  35.967  43.294   4.173
22596W        W91014  15.186  31.533   4.139
22597W        W91015  26.493  31.975   4.269
22598W        W91016   1.439   7.252   1.296
22599W        W91017  39.835  23.041  14.489
22600W        W91018  20.053  42.011  13.413
22601W        W91019  24.163  29.608  14.020
22602W        W91020  27.108   7.318  11.882
22603W        W91021  40.931  39.968  12.037
22604W        W91022  36.891  26.981  14.405
22605W        W91023  39.418  21.707  14.393
22606W        W91024   7.391   4.228  12.931
22607W        W91025   8.712  33.990  14.012
22608W        W91026   6.288  19.643  12.546
22609W        W91027  28.042  31.547   1.758
22610W        W91028  36.006  30.644  12.377
22611W        W91029  27.026  22.248   3.651
22612W        W91030  24.587  34.072  10.995
22613W        W91031  13.282  12.717   2.254
22614W        W91032   2.380  34.882   3.842
22615W        W91033  24.648  29.460  13.480
22616W        W91034  27.680  21.671  11.475
22617W        W91035  38.010  27.185  11.103
22618W        W91036  38.387  25.642   2.796
22619W        W91037  26.102  39.896  10.958
22620W        W91038  38.522  40.412  12.018
22621W        W91039  29.950  33.467  12.348
22622W        W91040  38.379   2.241   3.340
22623W        W91041  41.377  31.502   2.711
22624W        W91042   9.725   0.341  11.456
22625W        W91043  34.934  28.122   1.311
22626W        W91044  38.893  42.806  12.016
22627W        W91045  24.154  16.641  12.974
22628W        W91046   2.238  39.927  10.476
22629W        W91047  41.843  42.887  11.055
22630W        W91048  42.295  39.941  11.114
22631W        W91049   7.790  39.960   4.748
22632W        W91050  18.100  36.499   0.743
22633W        W91051   9.755  32.142  13.918
22634W        W91052  37.382  14.595   0.346
22635W        W91053  41.330   2.399   1.268
22636W        W91054  20.135  10.158  13.850
22637W        W91055  35.602  21.043   0.354
22638W        W91056  38.476  25.698  12.018
22639W        W91057   1.760  16.647  12.469
22640W        W91058  11.195  26.982   3.803
22641W        W91059  21.143  24.230  12.902
22642W        W91060  25.524  41.501   2.869
22643W        W91061  27.145  42.980   0.856
22644W        W91062  24.208  13.193  10.485
22645W        W91063   1.904  43.018   2.800
22646W        W91064  33.005  33.938  12.938
22647W        W91065  43.494  14.683  14.411
22648W        W91066  41.425  27.629  10.906
22649W        W91067   8.160  12.843   2.340
22650W        W91068  34.381   8.764   0.331
22651W        W91069  27.057  41.921   3.774
22652W        W91070  16.785   2.418   3.216
22653W        W91071   9.269   4.837  12.866
22654W        W91072  37.378   7.865  14.777
22655W        W91073  20.688  34.423   2.850
22656W        W91074   1.394   0.973   4.714
22657W        W91075  19.687  34.508  10.562
22658W        W91076  13.700  16.698  10.594
22659W        W91077  25.030  32.494  14.906
22660W        W91078  39.516  26.645  12.037
22661W        W91079   6.351   2.720  11.882
22662W        W91080   8.348  25.605   4.668
22663W        W91081   0.441  17.155   3.766
22664W        W91082   9.394   5.398  12.835
22665W        W91083  32.128  34.432  12.351
22666W        W91084   4.342  19.239  13.534
22667W        W91085  13.777  36.547  13.034
22668W        W91086   0.320  36.414  13.811
22669W        W91087  32.608  31.925   3.758
22670W        W91088  37.531  38.958   5.604
22671W        W91089  10.144  29.172  12.858
22672W        W91090   8.205  32.514  11.448
22673W        W91091  37.957  15.726  14.461
22674W        W91092  38.820  30.519  10.097
22675W        W91093  40.433  14.175   2.361
22676W        W91094   5.289  35.374  11.601
22677W        W91095  30.090  39.321   1.912
22678W        W91096  12.669  33.404  14.388
22679W        W91097  13.154  38.990   4.283
22680W        W91098  40.412  25.540   2.871
22681W        W91099  38.440  15.776   5.306
22682W        W91100  23.599   5.242   0.463
22683W        W91101  18.761   1.259   4.763
22684W        W91102  29.005  26.638  13.898
22685W        W91103  13.258  38.362   3.733
22686W        W91104  30.542  43.494   2.217
22687W        W91105  41.484  37.566   4.756
22688W        W91106  25.597  42.429   1.437
22689W        W91107   1.372  13.789  11.072
22690W        W91108  37.879  41.979  11.030
22691W        W91109  41.998  33.475  14.335
22692W        W91110  34.098   3.255   4.836
22693W        W91111   4.733  12.686   4.606
22694W        W91112  40.474   9.165   0.856
22695W        W91113  23.551   6.310   4.320
22696W        W91114   8.800  31.637   1.383
22697W        W91115  39.908  11.827   2.296
22698W        W91116  42.949  18.690  10.621
22699W        W91117  18.610   5.873  13.317
22700W        W91118  11.865  38.847   0.768
22701W        W91119  24.165   7.300  12.082
22702W        W91120  32.918  10.153  11.890
22703W        W91121  35.422  11.854   0.806
22704W        W91122  39.838  24.526  12.898
22705W        W91123  28.562   3.244  10.638
22706W        W91124  44.871  20.736   1.278
22707W        W91125  30.996   2.470  12.451
22708W        W91126  41.948  23.677  14.453
22709W        W91127  28.121  13.235   2.691
22710W        W91128  36.437  29.499   2.664
22711W        W91129  11.250   8.742  10.912
22712W        W91130   0.378  35.582   4.719
22713W        W91131  24.673  36.506   3.381
22714W        W91132   3.243  25.031   4.801
22715W        W91133  44.811   5.228  13.394
22716W        W91134  25.052  29.175  13.312
22717W        W91135  26.059  42.384   4.719
22718W        W91136  42.779  39.428   1.705
22719W        W91137  19.055   8.700   1.844
22720W        W91138  33.885  39.348  10.515
22721W        W91139  23.143  32.478   2.249
22722W        W91140  43.843   7.860  12.414
22723W        W91141  31.075  14.332   1.325
22724W        W91142  40.885  26.590   3.727
22725W        W91143   4.845  15.604   4.731
22726W        W91144   6.803   5.199  10.497
22727W        W91145   7.843  12.282   2.180
22728W        W91146  28.961   8.746  10.409
22729W        W91147  15.765  12.613   2.773
22730W        W91148  38.361  38.948  13.855
22731W        W91149  24.976  21.539  10.407
22732W        W91150  20.091  21.704   3.732
22733W        W91151  31.474  13.267  11.610
22734W        W91152   1.325   8.759  14.968
22735W        W91153  18.692  14.165  11.416
22736W        W91154  38.887  22.170  12.840
22737W        W91155   4.351  27.960  14.006
22738W        W91156  14.690   8.762  10.148
22739W        W91157  43.328  19.671   1.430
22740W        W91158  23.565   3.898  13.945
22741W        W91159  39.520   3.767  11.472
22742W        W91160   7.225   8.699  13.382
22743W        W91161  39.474   8.234   1.924
22744W        W91162   1.904  32.579   0.782
22745W        W91163  29.587  40.855  11.433
22746W        W91164  30.466  10.649  11.476
22747W        W91165  27.564  39.389   4.720
22748W        W91166  37.915  16.723  14.370
22749W        W91167  30.658  16.702   3.707
22750W        W91168  37.900  30.654  10.505
22751W        W91169  10.842  15.802   4.269
22752W        W91170  28.050  43.984  14.289
22753W        W91171  18.239  16.272   0.290
22754W        W91172  37.922   2.284   3.673
22755W        W91173   6.702   0.864  13.062
22756W        W91174   0.265  34.989  13.958
22757W        W91175  36.048  39.044  11.537
22758W        W91176   3.393   2.405   5.098
22759W        W91177  27.955  41.467   1.403
22760W        W91178   2.373  10.682   0.410
22761W        W91179  27.075   2.436   3.823
22762W        W91180   9.700  17.621  13.940
22763W        W91181  34.413  41.931   4.620
22764W        W91182  41.981  41.336  12.073
22765W        W91183  16.174  18.696   3.373
22766W        W91184  18.184  14.178  10.584
22767W        W91185  16.598  40.814   4.812
22768W        W91186  35.054   6.313  10.472
22769W        W91187   8.840  17.069  12.545
22770W        W91188  44.806  25.497   2.365
22771W        W91189  27.518   8.237   3.337
22772W        W91190  21.750  36.567  14.811
22773W        W91191  20.231  18.261   0.947
22774W        W91192  28.011   8.210   0.936
22775W        W91193  42.875   4.304  11.965
22776W        W91194  13.653   3.223   1.335
22777W        W91195  13.347  20.566   1.785
22778W        W91196  21.019   5.353   0.346
22779W        W91197  37.996  33.625   0.351
22780W        W91198  10.243  11.236   3.764
22781W        W91199   7.738   9.843  13.393
22782W        W91200  43.431  11.798   5.201
22783W        W91201  26.180  37.952   1.364
22784W        W91202   7.731  33.943  12.043
22785W        W91203  14.772  23.151   3.209
22786W        W91204  18.270  38.503  13.913
22787W        W91205   3.345   6.282  12.497
22788W        W91206  41.314  24.150  12.524
22789W        W91207  19.767  30.432   9.980
22790W        W91208   4.384   2.345  13.457
22791W        W91209   2.411  21.066   4.805
22792W        W91210  16.297  25.067   1.275
22793W        W91211  42.940  22.207   2.768
22794W        W91212  41.456  28.085   1.885
22795W        W91213  41.531   9.208   3.286
22796W        W91214   8.211  32.067  14.425
22797W        W91215   8.839  43.923   2.805
22798W        W91216  16.733  35.050   0.868
22799W        W91217  32.930   4.421  13.351
22800W        W91218  38.016   1.328  13.547
22801W        W91219  39.923  26.540  12.389
22802W        W91220  31.154  42.913  14.784
22803W        W91221   0.961  40.960   1.815
22804W        W91222  15.763   8.690  10.098
22805W        W91223  34.025  31.903  13.366
22806W        W91224  14.751   4.797   2.415
22807W        W91225   3.917  17.608  11.966
22808W        W91226  33.074   2.418  13.546
22809W        W91227  21.155  33.439   3.817
22810W        W91228  16.207  38.498   3.221
22811W        W91229  14.677  12.754   9.932
22812W        W91230  35.899  30.917   1.848
22813W        W91231   8.677   6.782  12.920
22814W        W91232  12.661  15.246  11.043
22815W        W91233   5.411  18.183   1.850
22816W        W91234  42.906  32.912  11.978
22817W        W91235  40.372   3.869  11.921
22818W        W91236   1.402  35.541  14.989
22819W        W91237  30.070  10.368   1.703
22820W        W91238  19.642  16.263  10.942
22821W        W91239  23.707  33.402  12.524
22822W        W91240   0.304  20.532  11.091
22823W        W91241  29.478  19.679  11.390
22824W        W91242   3.427  37.056   1.771
22825W        W91243  25.192  26.554   4.829
22826W        W91244   3.946  30.989   4.727
22827W        W91245  36.077  25.069   3.302
22828W        W91246  14.675  36.416  11.471
22829W        W91247  35.935  39.545   2.746
22830W        W91248  23.238   7.859  13.359
22831W        W91249   7.415  10.813   2.305
22832W        W91250  26.155  36.087  12.502
22833W        W91251  35.449  15.754   4.798
22834W        W91252  37.405  39.907   1.247
22835W        W91253  19.077   0.251  12.840
22836W        W91254  41.416  35.953   3.183
22837W        W91255  42.827  44.363  12.028
22838W        W91256   1.910  36.987  13.021
22839W        W91257   0.852  26.685  12.540
22840W        W91258   5.746  18.157  12.489
22841W        W91259  25.592  38.335  12.477
22842W        W91260  44.903  29.640   3.647
22843W        W91261   5.351  22.165   0.266
22844W        W91262  13.829  30.506   2.355
22845W        W91263  30.988  26.204   1.302
22846W        W91264  43.469  21.082   0.798
22847W        W91265  12.162  41.945  12.969
22848W        W91266  25.513   1.863  14.900
22849W        W91267   1.842   8.316   0.254
22850W        W91268  44.961  43.930  13.031
22851W        W91269  14.632  17.099   2.213
22852W        W91270   9.676   4.924  12.919
22853W        W91271  21.161  16.574   0.287
22854W        W91272  30.092  20.042  12.377
22855W        W91273   0.984   0.427  10.567
22856W        W91274  33.068  12.700  10.611
22857W        W91275  29.465   6.923  11.519
22858W        W91276   2.796  31.044  10.917
22859W        W91277  42.832  35.538   1.797
22860W        W91278   3.275   3.897  10.982
22861W        W91279   0.260  29.926  10.618
22862W        W91280  41.954   4.321  11.430
22863W        W91281  40.890  34.410   1.314
22864W        W91282  15.203  18.174   2.275
22865W        W91283   2.742  14.694  13.956
22866W        W91284  11.678   7.693   3.201
22867W        W91285  42.397  18.283  10.981
22868W        W91286   3.449  37.478   2.811
22869W        W91287  29.026  34.485   3.182
22870W        W91288  32.402  21.608   0.936
22871W        W91289  38.878  36.360   4.754
22872W        W91290  38.889   4.847   2.879
22873W        W91291  12.656  34.014  11.128
22874W        W91292  14.320  20.215   3.344
22875W        W91293  14.706   5.372   1.895
22876W        W91294  37.925  31.031   3.181
22877W        W91295  42.937  21.091   1.853
22878W        W91296  39.435  10.806   4.725
22879W        W91297  36.854  11.280  11.074
22880W        W91298  44.499   3.731  14.298
22881W        W91299  16.103  35.880   4.162
22882W        W91300  43.419  25.061  12.992
22883W        W91301  38.942  30.034   3.296
22884W        W91302  11.188   1.314  13.331
22885W        W91303  19.590  19.109  13.003
22886W        W91304   2.860  26.986  12.889
22887W        W91305  35.028  29.527  13.339
22888W        W91306  44.285  42.948   0.928
22889W        W91307   1.298  20.036  11.374
22890W        W91308  41.889   0.408  11.047
22891W        W91309  10.638  12.676  10.541
22892W        W91310  44.452  26.532  11.483
22893W        W91311  11.718   3.852   4.244
22894W        W91312  34.949  22.741   2.190
22895W        W91313  29.648  33.476  10.640
22896W        W91314  34.455   7.800  11.383
22897W        W91315  40.329  40.312  14.328
22898W        W91316  13.684  10.655  12.434
22899W        W91317   3.379  21.581   2.836
22900W        W91318  40.324  25.527  11.076
22901W        W91319  28.024  26.090  14.865
22902W        W91320  26.970  29.649  13.405
22903W        W91321  19.213   0.915  10.431
22904W        W91322   8.337  33.941  11.475
22905W        W91323  20.052  21.738  12.376
22906W        W91324  28.622  42.881   4.141
22907W        W91325  24.056  40.330   4.211
22908W        W91326  26.105  18.066   2.306
22909W        W91327  31.544   4.799  11.070
22910W        W91328  28.078  14.592  10.967
22911W        W91329  22.009  36.878   3.832
22912W        W91330  37.345   2.965   2.874
22913W        W91331   7.308   0.270   4.740
22914W        W91332  23.009  24.036  12.835
22915W        W91333   4.212  28.494  14.501
22916W        W91334  39.536  32.054  13.927
22917W        W91335  31.022  14.193   3.378
22918W        W91336  11.318   1.786   4.187
22919W        W91337  34.489  15.247  14.832
22920W        W91338  11.767  40.911   1.218
22921W        W91339  30.004  38.373  10.480
22922W        W91340  42.357  30.582   3.236
22923W        W91341  39.822  24.716  11.881
22924W        W91342  23.037  36.940  10.982
22925W        W91343  41.041  28.475  12.389
22926W        W91344   3.346  21.209  10.113
22927W        W91345   4.374   6.794   2.747
22928W        W91346  13.325  34.968   0.417
22929W        W91347  11.648  10.377  11.904
22930W        W91348  17.663  41.538  12.406
22931W        W91349  38.372  25.071  13.345
22932W        W91350  17.102  25.545   1.379
22933W        W91351   2.229  29.949   4.243
22934W        W91352  19.572   7.910   4.772
22935W        W91353  44.332  19.663  13.019
22936W        W91354   4.368  31.459  11.563
22937W        W91355   0.761  17.629   3.696
22938W        W91356  29.043  24.027   3.301
22939W        W91357  18.156  37.971  12.475
22940W        W91358   6.241   7.228  13.974
22941W        W91359  34.017  42.423   0.764
22942W        W91360   8.722  18.756  10.976
22943W        W91361  40.394  21.220   3.352
22944W        W91362   1.932  42.966  10.456
22945W        W91363  29.937  42.831   3.759
22946W        W91364  17.147  37.889  13.435
22947W        W91365  21.061  26.062  13.391
22948W        W91366  32.490  26.119  12.546
22949W        W91367  12.789  10.268  14.515
22950W        W91368  34.878  40.944  11.072
22951W        W91369  24.527   4.262   4.183
22952W        W91370  40.836  30.601   4.333
22953W        W91371  44.972  39.422  14.346
22954W        W91372  35.553  15.661   1.429
22955W        W91373  38.005  34.920   0.306
22956W        W91374  36.473   8.777  14.300
22957W        W91375   3.754  37.356   0.380
22958W        W91376   1.909   4.294  12.557
22959W        W91377  25.061  43.417  12.090
22960W        W91378   0.493  26.497  13.456
22961W        W91379  35.854   1.374   0.352
22962W        W91380  38.457   0.263  10.907
22963W        W91381   1.358  14.692   2.219
22964W        W91382  32.111  11.269   3.849
22965W        W91383   7.822  44.323   2.831
22966W        W91384   2.379  18.132  12.538
22967W        W91385  41.404  33.029  12.544
22968W        W91386  12.807  29.161   4.669
22969W        W91387  14.231   3.918   0.437
22970W        W91388  40.462  36.366   2.313
22971W        W91389  27.063  26.685   3.256
22972W        W91390  20.554  36.928   3.819
22973W        W91391  21.582  31.940  10.571
22974W        W91392  24.185  42.842   4.668
22975W        W91393  16.304  35.396   3.344
22976W        W91394  13.224  43.484  10.457
22977W        W91395  19.708  38.358   0.889
22978W        W91396  12.744  22.105   4.354
22979W        W91397  38.392  14.173  11.855
22980W        W91398  29.627   5.859  11.404
22981W        W91399  19.650  11.758   5.782
22982W        W91400  20.140  11.787  12.445
22983W        W91401   6.183  12.680   2.364
22984W        W91402  23.604   6.922  11.379
22985W        W91403   3.933  14.676  10.418
22986W        W91404  44.340  34.924   0.265
22987W        W91405   3.343   3.294  11.380
22988W        W91406  28.483  20.093   2.256
22989W        W91407  25.013  28.521  14.765
22990W        W91408  18.238  13.736   1.293
22991W        W91409  22.688  39.933  12.021
22992W        W91410  23.491  12.214   0.349
22993W        W91411  35.392  11.261   1.738
22994W        W91412  37.070  31.516   1.826
22995W        W91413   2.792  42.312  12.865
22996W        W91414  22.711  34.919   0.265
22997W        W91415  28.487  27.505  14.017
22998W        W91416   9.158   8.728  11.004
22999W        W91417  40.518   2.276   3.230
23000W        W91418  39.832  27.168  13.805
23001W        W91419  21.710  32.106   3.853
23002W        W91420  33.880   8.232  14.007
23003W        W91421  11.147  16.144   1.923
23004W        W91422  18.718   1.929   3.211
23005W        W91423  20.583  28.085  14.790
23006W        W91424  11.642   7.713   4.262
23007W        W91425  33.425   0.926  12.412
23008W        W91426  18.284   6.786  10.937
23009W        W91427  26.482  17.715  13.879
23010W        W91428  42.922  42.901   0.965
23011W        W91429  33.607  32.129   4.279
23012W        W91430  26.133  27.545  13.435
23013W        W91431  35.928   1.377  13.537
23014W        W91432  22.135   6.386   0.326
23015W        W91433  32.481  23.499  13.437
23016W        W91434   5.335  11.207   1.879
23017W        W91435   0.946  15.122   1.707
23018W        W91436  27.080  26.023   3.179
23019W        W91437  10.355   4.321   4.669
23020W        W91438   1.287  27.606  13.847
23021W        W91439  31.551   8.856   4.257
23022W        W91440  30.445  30.504  11.522
23023W        W91441  19.766  30.066  10.627
23024W        W91442  18.171  39.355  14.032
23025W        W91443  12.300  15.202  13.458
23026W        W91444  12.640   5.806  12.345
23027W        W91445  44.891  16.741  14.389
23028W        W91446  15.784  42.522  10.990
23029W        W91447  31.620  42.437  10.547
23030W        W91448  26.110  28.584  13.437
23031W        W91449  10.836  28.951  13.324
23032W        W91450  26.483  32.551   1.905
23033W        W91451  39.907  29.162  12.026
23034W        W91452  17.799   5.818   2.194
23035W        W91453  21.189  32.590   3.157
23036W        W91454  24.187  20.535  11.116
23037W        W91455  20.544   1.354   3.350
23038W        W91456  18.680   9.340   0.383
23039W        W91457  27.124  42.453   4.751
23040W        W91458  39.440   2.257  10.563
23041W        W91459   6.411  31.478  14.499
23042W        W91460  34.562   1.314   0.741
23043W        W91461  30.964  43.841   3.276
23044W        W91462   3.897  21.090  10.588
23045W        W91463  41.029  44.437   0.897
23046W        W91464  16.803  42.995   9.937
23047W        W91465  25.037  22.122   4.637
23048W        W91466  31.954  27.084  11.040
23049W        W91467   1.824  27.056  14.985
23050W        W91468   6.746   1.910  13.361
23051W        W91469  42.390   3.788  14.911
23052W        W91470  35.059  33.622   0.416
23053W        W91471  16.185  39.316   3.849
23054W        W91472  43.321  13.315  14.915
23055W        W91473  20.128  37.433   3.654
23056W        W91474  35.929  30.512  14.898
23057W        W91475  35.087  15.096  12.571
23058W        W91476  35.556  27.178   0.759
23059W        W91477   6.900  23.587  14.495
23060W        W91478   4.716   0.884  13.894
23061W        W91479  26.662  32.060   0.326
23062W        W91480  37.432  30.462   2.696
23063W        W91481  33.421  41.001  14.823
23064W        W91482   6.695  31.608  13.919
23065W        W91483   7.756  24.521   2.891
23066W        W91484   7.876  30.999   4.717
23067W        W91485  44.402   2.792   3.835
23068W        W91486  13.776  41.978  13.821
23069W        W91487  32.940  28.083   4.313
23070W        W91488  23.669  10.155  12.460
23071W        W91489  27.190  43.836  14.905
23072W        W91490  20.035   1.766   3.353
23073W        W91491  40.019  29.469   3.276
23074W        W91492  32.088  22.546   2.292
23075W        W91493  34.543  41.789  11.023
23076W        W91494   6.305  18.657  11.904
23077W        W91495  19.155  33.436   4.803
23078W        W91496  35.039  31.000  13.861
23079W        W91497   4.827  43.309   5.183
23080W        W91498  12.753  26.507  13.528
23081W        W91499  33.400  32.571   1.327
23082W        W91500  30.599  28.049   3.330
23083W        W91501  20.054  31.478  11.015
23084W        W91502  12.243  34.868  12.546
23085W        W91503  25.557  40.819  14.923
23086W        W91504  28.538  43.827  11.081
23087W        W91505  37.957  37.987   3.318
23088W        W91506  40.026  41.316   4.208
23089W        W91507  27.971   4.822  10.954
23090W        W91508  32.907  18.694  12.914
23091W        W91509  18.735   8.730   0.788
23092W        W91510  41.415  41.295  10.948
23093W        W91511   2.228  11.238   3.282
23094W        W91512  33.469  31.580   9.985
23095W        W91513  27.574  33.043   3.374
23096W        W91514  15.792  25.041  12.548
23097W        W91515  22.101   7.861  11.498
23098W        W91516   9.649  15.685  10.635
23099W        W91517  24.132   3.748   1.710
23100W        W91518  10.329  23.635  13.310
23101W        W91519  25.585  26.702  12.063
23102W        W91520  14.189  11.349   4.754
23103W        W91521  38.533  42.967   3.338
23104W        W91522  27.064  16.227  12.383
23105W        W91523   7.733  18.103   4.238
23106W        W91524   7.173  23.592   3.383
23107W        W91525  23.511  42.405   2.182
23108W        W91526  39.511   4.414   2.369
23109W        W91527  12.621  18.565   3.731
23110W        W91528   9.796  39.460   0.953
23111W        W91529  32.444  43.992   0.457
23112W        W91530  42.971  32.458   1.353
23113W        W91531  26.593  23.686  11.552
23114W        W91532  22.514   9.153   3.830
23115W        W91533  32.569  21.670  11.871
23116W        W91534  35.473  14.241   4.233
23117W        W91535  26.985  22.079  14.359
23118W        W91536  38.869  14.159  10.924
23119W        W91537  19.208  23.994   1.263
23120W        W91538  38.952  31.023  10.430
23121W        W91539  33.447   7.768   2.836
23122W        W91540  29.432  21.084   3.753
23123W        W91541  11.272   6.880  11.553
23124W        W91542  36.948   1.250  13.918
23125W        W91543  35.043   1.914   2.887
23126W        W91544  10.143  29.562  14.792
23127W        W91545  36.990  11.778   0.758
23128W        W91546  24.481  14.176   4.234
23129W        W91547   6.823  10.775  13.431
23130W        W91548  14.332  26.638  11.103
23131W        W91549  19.590  42.805   0.325
23132W        W91550  16.627  20.175   1.388
23133W        W91551   0.845  24.079  10.489
23134W        W91552  34.872  32.061  11.510
23135W        W91553   3.225  34.968  14.828
23136W        W91554  26.500  39.971  10.924
23137W        W91555  21.242  39.877   2.347
23138W        W91556   3.226  26.579  13.527
23139W        W91557  22.695  14.666  14.978
23140W        W91558  25.546  41.837  14.367
23141W        W91559  30.956  34.085  13.323
23142W        W91560   4.357  33.599  12.436
23143W        W91561  19.545  35.015   3.679
23144W        W91562   3.323   0.342   2.361
23145W        W91563  17.704  26.183   1.839
23146W        W91564   3.221  31.066  14.515
23147W        W91565  25.673  44.426  13.352
23148W        W91566  37.510  10.221   2.741
23149W        W91567  35.379  19.534   1.807
23150W        W91568   9.726  34.412  14.352
23151W        W91569  29.600  44.484   0.462
23152W        W91570  15.730   1.474   2.872
23153W        W91571  43.995  44.807  10.582
23154W        W91572  21.743  16.641   2.346
23155W        W91573  25.698   8.826  11.953
23156W        W91574  21.088  41.922  12.045
23157W        W91575  38.075   7.322  11.402
23158W        W91576  26.681  31.142  14.793
23159W        W91577  12.670  34.415  10.496
23160W        W91578  41.910   0.773  14.412
23161W        W91579  31.904  12.793   3.283
23162W        W91580  10.738  40.015   4.837
23163W        W91581  42.005  35.092  14.841
23164W        W91582  43.466  17.795   1.766
23165W        W91583  37.074  34.067  11.921
23166W        W91584  28.069  20.151   2.790
23167W        W91585  23.618   9.736   2.765
23168W        W91586  28.167  35.978   3.718
23169W        W91587  14.105  31.930  11.084
23170W        W91588  13.105  19.684   0.269
23171W        W91589  27.645   4.808  14.761
23172W        W91590  28.994   9.390  10.949
23173W        W91591  24.547  11.730  11.054
23174W        W91592   4.392  35.412  11.483
23175W        W91593   2.425  30.074  14.883
23176W        W91594  44.782   9.821  13.448
23177W        W91595   6.701  28.514  14.386
23178W        W91596  20.731  27.176   3.844
23179W        W91597  21.669   5.359   4.764
23180W        W91598  32.098  18.749  11.030
23181W        W91599  35.547  10.338   0.248
23182W        W91600   4.826  29.470   5.234
23183W        W91601  14.684  11.667   4.295
23184W        W91602  41.448  33.459  11.062
23185W        W91603  31.029  29.602   1.419
23186W        W91604  34.911  34.550  12.526
23187W        W91605   3.441  24.584   3.175
23188W        W91606  36.505   0.352   4.794
23189W        W91607   8.770   5.748  11.108
23190W        W91608  17.751  32.392   4.290
23191W        W91609   8.192  34.454  14.394
23192W        W91610  44.292  25.596  10.910
23193W        W91611  13.799  27.111   4.343
23194W        W91612  14.335  22.188   4.741
23195W        W91613  16.650  16.662   0.963
23196W        W91614  25.054  35.572   4.598
23197W        W91615  29.641  33.047   0.868
23198W        W91616  19.606  40.386  13.953
23199W        W91617  25.134  44.375  11.557
23200W        W91618  39.314   0.764   4.184
23201W        W91619   1.841  13.737   4.642
23202W        W91620  39.471  26.185   3.159
23203W        W91621   0.943  20.713   0.454
23204W        W91622   2.330  38.543   4.162
23205W        W91623  39.411  39.824  12.916
23206W        W91624  13.252  20.540  13.444
23207W        W91625   8.234  30.581  13.459
23208W        W91626   0.293  15.262  13.317
23209W        W91627   9.730  23.008  11.413
23210W        W91628  29.458   8.807  11.412
23211W        W91629  20.744  42.830   4.270
23212W        W91630  31.077  12.271   3.835
23213W        W91631   3.805  14.697  14.877
23214W        W91632   6.292  43.460   4.773
23215W        W91633  36.039  31.641  13.063
23216W        W91634  13.828  16.588   4.837
23217W        W91635  42.915   4.756  10.615
23218W        W91636  29.946  28.067  13.912
23219W        W91637  12.304   0.404  11.602
23220W        W91638  33.982  18.053   1.369
23221W        W91639  32.068  14.678   2.203
23222W        W91640  28.139  35.923   3.165
23223W        W91641  37.372  27.461   2.330
23224W        W91642  42.297  41.830   0.863
23225W        W91643  16.790   4.738   5.165
23226W        W91644  43.777  25.563   4.800
23227W        W91645  18.147  30.553   1.732
23228W        W91646   2.359  18.256  12.829
23229W        W91647  37.450   1.329  13.919
23230W        W91648   9.726   5.225   3.159
23231W        W91649  30.136  18.150   1.448
23232W        W91650  26.600  11.688   2.732
23233W        W91651  38.047  18.753   9.960
23234W        W91652  38.518  39.835  14.441
23235W        W91653  17.174  11.142  13.425
23236W        W91654  41.444  17.070   2.230
23237W        W91655  11.776  12.184   1.746
23238W        W91656   2.375  33.915   4.295
23239W        W91657  20.244  36.434  13.542
23240W        W91658  31.473  21.168   1.900
23241W        W91659  12.801  44.839   3.193
23242W        W91660  17.306  41.321   3.727
23243W        W91661  13.729  21.554   1.836
23244W        W91662  18.754  37.503   5.103
23245W        W91663   9.246  37.899   4.229
23246W        W91664  21.734  31.938  12.957
23247W        W91665  30.952  24.537  12.435
23248W        W91666   6.706   6.228  14.475
23249W        W91667  15.247  21.681   2.187
23250W        W91668   9.303  27.151  14.907
23251W        W91669  14.170   9.662   1.404
23252W        W91670  39.890  16.120  11.942
23253W        W91671  36.030  16.659   1.404
23254W        W91672  22.045  20.034   3.330
23255W        W91673  13.331  14.786  11.040
23256W        W91674  12.206  31.444  12.031
23257W        W91675   8.762  27.991  13.531
23258W        W91676  13.786  24.081  13.803
23259W        W91677  18.278   6.392  12.356
23260W        W91678  14.233  13.623   1.320
23261W        W91679  17.207  19.163   1.277
23262W        W91680   4.215  34.889   4.185
23263W        W91681  36.052  44.834   3.231
23264W        W91682   4.412  39.885   1.393
23265W        W91683  19.533  32.976   4.216
23266W        W91684  40.345  28.633  11.911
23267W        W91685  42.346   0.921  14.420
23268W        W91686   8.745  28.454   3.802
23269W        W91687  25.035  22.995  13.331
23270W        W91688   8.216  10.283  12.547
23271W        W91689  26.642  23.721   9.984
23272W        W91690  27.075  26.586   3.805
23273W        W91691   2.468  13.132   2.726
23274W        W91692   6.811  29.549  12.508
23275W        W91693  37.556  24.005  13.797
23276W        W91694   7.815   4.801   2.837
23277W        W91695   4.845   2.449  13.033
23278W        W91696  35.104  18.066   4.745
23279W        W91697   6.879  29.154  11.968
23280W        W91698  18.125  21.694  13.810
23281W        W91699  37.936  44.475   4.333
23282W        W91700  27.544  17.185   2.320
23283W        W91701  15.800  27.118   1.801
23284W        W91702  18.679  22.168  11.588
23285W        W91703  40.423  20.695  11.004
23286W        W91704  32.418  23.654  11.856
23287W        W91705  16.769   4.726  12.518
23288W        W91706  25.648  41.930   4.203
23289W        W91707   4.334  15.677  11.124
23290W        W91708  21.039  28.131  10.473
23291W        W91709  31.953  25.076  11.509
23292W        W91710   7.725  40.463  11.515
23293W        W91711  31.493  36.041   3.365
23294W        W91712   0.345   6.270   0.451
23295W        W91713  14.170  36.094   3.631
23296W        W91714   8.779  28.479   0.427
23297W        W91715  22.603  11.231  11.004
23298W        W91716  26.157   9.664   1.920
23299W        W91717  30.428  19.702   4.220
23300W        W91718  38.456  39.881   2.804
23301W        W91719   9.708   0.383  12.529
23302W        W91720  15.292  23.083  11.997
23303W        W91721  14.738  42.899   2.665
23304W        W91722  28.547  44.980  13.497
23305W        W91723   1.480  40.415   1.804
23306W        W91724  22.042  11.734  12.969
23307W        W91725  32.554  18.205  13.021
23308W        W91726  36.453  20.086   1.405
23309W        W91727  38.856  13.699  13.820
23310W        W91728  26.165  13.195  11.095
23311W        W91729  19.744   0.333   2.901
23312W        W91730  33.609  17.621   0.841
23313W        W91731  18.738   7.402  11.090
23314W        W91732  44.492   5.927  14.885
23315W        W91733  10.221  17.766   3.682
23316W        W91734  27.158  12.717  12.375
23317W        W91735   6.341   7.327  11.870
23318W        W91736  21.224  34.083  13.000
23319W        W91737  44.338  14.763   5.145
23320W        W91738  13.258  15.676   3.714
23321W        W91739   4.811   1.935   4.819
23322W        W91740   7.828  21.731  13.056
23323W        W91741  34.388  44.399  13.908
23324W        W91742  14.274  37.460  12.931
23325W        W91743  29.542  37.343   1.446
23326W        W91744   7.172  37.856  13.388
23327W        W91745   2.250   7.829   0.851
23328W        W91746  13.330   9.365   3.667
23329W        W91747  23.735   3.845  11.998
23330W        W91748  25.487  43.384  13.052
23331W        W91749   4.215   0.351   2.828
23332W        W91750  14.732  36.584   0.847
23333W        W91751  22.524   2.326   2.286
23334W        W91752  43.325  18.693  14.508
23335W        W91753  13.327  37.503  14.352
23336W        W91754  11.768  24.012   3.333
23337W        W91755   9.844   7.243   4.819
23338W        W91756  16.131  21.703   4.342
23339W        W91757  38.487  32.047   1.847
23340W        W91758   9.880   1.301  10.899
23341W        W91759  13.223   0.400  11.393
23342W        W91760  12.261   9.834  12.983
23343W        W91761  10.383   7.174   4.258
23344W        W91762  35.854   1.741  13.918
23345W        W91763  34.574  38.835   9.507
23346W        W91764  41.983  27.979   3.843
23347W        W91765  22.196   1.958   3.652
23348W        W91766  14.777   0.322  13.847
23349W        W91767   2.936  35.551  14.477
23350W        W91768  10.366  26.124   4.233
23351W        W91769  26.122  19.655   1.927
23352W        W91770   8.798  43.400  14.499
23353W        W91771  26.643  23.221  13.518
23354W        W91772  42.944  25.627  10.576
23355W        W91773  26.185  42.880  12.552
23356W        W91774  38.012   8.662  11.064
23357W        W91775  40.493  14.266   3.295
23358W        W91776  34.448  25.704  13.988
23359W        W91777  28.539  14.096  11.479
23360W        W91778  38.515  21.050   4.667
23361W        W91779   1.825  10.301   4.283
23362W        W91780  34.425  16.265   1.841
23363W        W91781  19.702  25.111  13.400
23364W        W91782  12.358   2.767   1.922
23365W        W91783  24.085  39.056   1.727
23366W        W91784   7.189  25.667  15.000
23367W        W91785   8.783  36.980  11.898
23368W        W91786  10.667   2.269  11.875
23369W        W91787  18.747   2.768  13.420
23370W        W91788  31.937  29.482   4.624
23371W        W91789  30.530  23.181  13.408
23372W        W91790  22.167   6.318   3.683
23373W        W91791  35.532  20.211   1.360
23374W        W91792   0.332  35.940  14.863
23375W        W91793  32.553  21.166   2.847
23376W        W91794  22.075  10.635  13.831
23377W        W91795  34.106  25.997   1.356
23378W        W91796  37.844  19.719  14.437
23379W        W91797   2.914  22.218   0.306
23380W        W91798  28.130  27.596   3.357
23381W        W91799  22.608  37.422  12.008
23382W        W91800  10.868  32.116   3.720
23383W        W91801  23.158  15.093  12.370
23384W        W91802   2.772  23.238   3.668
23385W        W91803   8.239  32.950  10.589
23386W        W91804  38.940  35.043   1.856
23387W        W91805   2.965   3.239   3.775
23388W        W91806   1.881  15.115  11.382
23389W        W91807   4.800  17.648  10.960
23390W        W91808  43.012  40.048  14.024
23391W        W91809  25.075  41.830  10.428
23392W        W91810  12.642   4.885  14.478
23393W        W91811  30.502  27.004  12.450
23394W        W91812   6.830  31.471  12.363
23395W        W91813  36.923  36.560  12.390
23396W        W91814   8.402  26.000   4.702
23397W        W91815  27.646  40.538   2.681
23398W        W91816  33.490  27.180   4.738
23399W        W91817   9.816  24.545   2.665
23400W        W91818  44.431  15.287  12.484
23401W        W91819  32.575  16.203  12.508
23402W        W91820  28.461   0.444   3.277
23403W        W91821  38.065   6.678  10.936
23404W        W91822  16.738  24.582  11.559
23405W        W91823  39.022  43.903   2.351
23406W        W91824  33.027  14.184  13.840
23407W        W91825  30.602  28.166  11.885
23408W        W91826  22.515  41.361   3.826
23409W        W91827   4.802  22.082  14.418
23410W        W91828  26.501  39.323   0.364
23411W        W91829  16.256  14.778   0.810
23412W        W91830  25.701  25.586  12.078
23413W        W91831   2.823  23.529   1.406
23414W        W91832  33.484   8.762  13.497
23415W        W91833  43.915  33.011  13.365
23416W        W91834  15.100  20.187  13.934
23417W        W91835  27.562  25.476   3.750
23418W        W91836   4.339   0.883  11.117
23419W        W91837  23.059  26.639  11.959
23420W        W91838  28.650   2.892  11.895
23421W        W91839  37.477  29.552  11.100
23422W        W91840  33.625  10.634   3.211
23423W        W91841  20.587  27.153  10.572
23424W        W91842  20.144  10.758   4.806
23425W        W91843  41.930  39.557  13.032
23426W        W91844  36.365  30.445  11.905
23427W        W91845  13.760   2.828  14.817
23428W        W91846   5.777   1.460  12.442
23429W        W91847  31.563  39.879   2.755
23430W        W91848  20.609  25.636   2.851
23431W        W91849   0.311  15.713   1.217
23432W        W91850   8.325  19.746   2.309
23433W        W91851  33.605  12.668  10.484
23434W        W91852   6.312  15.090   4.812
23435W        W91853  31.503  37.902   3.248
23436W        W91854  31.604  18.050  14.002
23437W        W91855  23.001  34.483  12.945
23438W        W91856  41.945  33.046  12.077
23439W        W91857  26.149  22.106  12.940
23440W        W91858   9.781  10.161  13.311
23441W        W91859  44.269  20.587   0.443
23442W        W91860  35.893   4.912   0.459
23443W        W91861  36.994  10.333   3.206
23444W        W91862   4.358   4.252   0.848
23445W        W91863  26.200  25.690   3.680
23446W        W91864  32.617   7.824  13.804
23447W        W91865  40.966   4.447  11.591
23448W        W91866  24.044  38.423  13.393
23449W        W91867  18.767  20.523   2.259
23450W        W91868  12.247   2.761  12.393
23451W        W91869   2.759  35.093   1.929
23452W        W91870  15.814  44.010   4.248
23453W        W91871  23.127   6.779  13.365
23454W        W91872  30.131  44.812   0.257
23455W        W91873   4.319  39.399  14.431
23456W        W91874   5.228  15.214  13.811
23457W        W91875  31.032  23.626  10.487
23458W        W91876   7.305   2.411  10.617
23459W        W91877  37.013  38.904   0.966
23460W        W91878   1.886  21.080  13.903
23461W        W91879  12.307  40.397  13.012
23462W        W91880  24.203  23.522  11.031
23463W        W91881  15.174  38.827  14.339
23464W        W91882  43.478  39.522  14.868
23465W        W91883  28.505  32.545  14.887
23466W        W91884  32.915  26.124  13.451
23467W        W91885  41.043  35.864  11.064
23468W        W91886   0.372  38.851  13.860
23469W        W91887  22.178   5.749  14.872
23470W        W91888  19.576  26.092  11.522
23471W        W91889  22.204   2.860  14.991
23472W        W91890   1.266  12.827  13.812
23473W        W91891   9.348  17.258   4.814
23474W        W91892  27.038  37.343   3.306
23475W        W91893   5.313  23.713  13.342
23476W        W91894  28.976  21.650  11.951
23477W        W91895  13.159  26.665   4.266
23478W        W91896  12.328  21.185  14.342
23479W        W91897  31.907  27.608   0.887
23480W        W91898  12.352  22.700   2.199
23481W        W91899  25.471  11.861  12.560
23482W        W91900   1.882  25.188   2.775
23483W        W91901  39.862   4.890   4.660
23484W        W91902  26.107  39.949  11.959
23485W        W91903  12.132  42.455  13.441
23486W        W91904  27.612   1.430  12.394
23487W        W91905   7.259  30.126  11.085
23488W        W91906  30.978  27.993  12.529
23489W        W91907  31.567  34.568  10.994
23490W        W91908  27.119  10.245  11.866
23491W        W91909   4.859  32.942   4.719
23492W        W91910  21.682  21.585  13.544
23493W        W91911  34.413  31.516  10.953
23494W        W91912  38.467  27.639  14.878
23495W        W91913  37.833  10.362  13.533
23496W        W91914  33.029  37.032   2.213
23497W        W91915   1.949  25.089  14.927
23498W        W91916  19.671  38.532  12.356
23499W        W91917  19.684   6.288  14.918
23500W        W91918  22.100  43.972   3.305
23501W        W91919  10.312  14.316  13.901
23502W        W91920   1.329  13.232  10.583
23503W        W91921  38.509  37.842   2.248
23504W        W91922  26.625  23.125   1.873
23505W        W91923  10.219  23.581   4.117
23506W        W91924  29.611  13.233   3.281
23507W        W91925  12.161  36.925   1.301
23508W        W91926  43.901   5.210  13.348
23509W        W91927  44.907  12.212  10.145
23510W        W91928   2.967  16.122   4.675
23511W        W91929   0.776  25.008   2.282
23512W        W91930  33.122  19.701   0.819
23513W        W91931   4.353  25.070  11.031
23514W        W91932   6.921  37.361   0.955
23515W        W91933  20.756  44.431  10.479
23516W        W91934  33.092   7.818  11.399
23517W        W91935  12.131  11.303  13.321
23518W        W91936   4.908  17.677  10.433
23519W        W91937  33.910  39.010  14.889
23520W        W91938  42.315   4.892   0.785
23521W        W91939  13.675   8.358   3.662
23522W        W91940   6.867  39.833  14.785
23523W        W91941  32.391  12.639   0.293
23524W        W91942  27.520  44.869   1.755
23525W        W91943  20.136  16.087  11.580
23526W        W91944  31.548   4.372   0.856
23527W        W91945  30.068   2.901  11.894
23528W        W91946   1.828   5.750  12.346
23529W        W91947   6.867   4.934  13.347
23530W        W91948  31.402  29.633   0.442
23531W        W91949  36.055  13.784  14.356
23532W        W91950  18.294  16.773   0.750
23533W        W91951   3.714  41.987  12.448
23534W        W91952  41.945  37.566   2.695
23535W        W91953  27.069  20.119   4.115
23536W        W91954   1.448  12.817  14.300
23537W        W91955   8.391  23.721   0.380
23538W        W91956   3.781  36.357  12.345
23539W        W91957  27.603  16.125   4.253
23540W        W91958   5.730   8.843   4.352
23541W        W91959  38.513  30.124   0.309
23542W        W91960  18.788  42.462   1.820
23543W        W91961  17.213  24.995  13.906
23544W        W91962  34.101  23.060   3.286
23545W        W91963  30.600  20.628  10.561
23546W        W91964  27.658   6.361  13.330
23547W        W91965   1.864  38.924  12.535
23548W        W91966  33.571  30.037  11.607
23549W        W91967  43.425  28.031   1.333
23550W        W91968  40.339  10.308   4.326
23551W        W91969  19.135  43.885  10.917
23552W        W91970  12.234   4.794  14.511
23553W        W91971  35.483  30.133  14.346
23554W        W91972  20.570  24.980   2.394
23555W        W91973   9.853   8.180  13.008
23556W        W91974   4.945  44.992  13.936
23557W        W91975  23.677  38.485   2.412
23558W        W91976  23.666  38.973  12.030
23559W        W91977  36.873  32.143  14.498
23560W        W91978  37.054  42.342   1.427
23561W        W91979  40.472  23.241  10.619
23562W        W91980   6.416  16.074   0.439
23563W        W91981  13.689  11.714  14.308
23564W        W91982   8.876  20.202  14.360
23565W        W91983  31.044   6.846   0.389
23566W        W91984  16.313   9.819   1.267
23567W        W91985  17.222  31.614  14.861
23568W        W91986   0.797   2.472  13.441
23569W        W91987  33.495   9.769  13.371
23570W        W91988  22.709  35.076   1.371
23571W        W91989  21.020  12.680   3.351
23572W        W91990  15.776  30.093  11.975
23573W        W91991   9.292  28.998   1.728
23574W        W91992  19.714   4.290  14.322
23575W        W91993   9.663  19.186   3.855
23576W        W91994   6.222  41.819  10.935
23577W        W91995  21.239  12.724   0.843
23578W        W91996  15.204   8.836   0.889
23579W        W91997  23.611  42.940  11.037
23580W        W91998  41.335  43.940   0.920
23581W        W91999   9.653  36.491  13.892
23582W        W92000  18.083  32.913  11.378
23583W        W92001  26.540  24.218   3.697
23584W        W92002   3.230   2.845   4.600
23585W        W92003  26.598   5.865   2.211
23586W        W92004  22.579  24.484   9.969
23587W        W92005  37.405  35.457  14.413
23588W        W92006  27.182  38.041   0.409
23589W        W92007  22.596  33.428   0.923
23590W        W92008  30.436  29.615  13.947
23591W        W92009   7.276  41.481   2.665
23592W        W92010  44.806  11.696   2.811
23593W        W92011  34.564  38.440   0.789
23594W        W92012  43.377   3.803  10.464
23595W        W92013  17.692  38.525  13.985
23596W        W92014  37.043  23.707   4.757
23597W        W92015  42.920   8.277   3.323
23598W        W92016  24.619  43.312   1.826
23599W        W92017  36.584   9.196   0.901
23600W        W92018   7.865  44.800   2.387
23601W        W92019  38.390  43.351   0.308
23602W        W92020  30.504   9.263  13.809
23603W        W92021  20.029  16.290   2.187
23604W        W92022   0.256  23.056   4.620
23605W        W92023  29.969  13.732  14.830
23606W        W92024  43.274   4.823  12.066
23607W        W92025  28.438   7.282  14.356
23608W        W92026  21.042  42.428  11.505
23609W        W92027  12.824  26.125   2.783
23610W        W92028   7.907  22.547   4.316
23611W        W92029   8.179  41.870   1.311
23612W        W92030  32.455  18.223  13.409
23613W        W92031  24.033  22.652  10.904
23614W        W92032  28.607  33.551   1.890
23615W        W92033  37.466  38.900  13.488
23616W        W92034  33.533  41.804   3.779
23617W        W92035  11.630  33.065   3.752
23618W        W92036  36.967  22.063   0.436
23619W        W92037  31.610   1.319  13.845
23620W        W92038   6.208  38.999   1.339
23621W        W92039  22.151  14.629  13.426
23622W        W92040  12.800  29.946  14.471
23623W        W92041   1.823  26.629  13.850
23624W        W92042  21.539  36.021  10.424
23625W        W92043  33.876  34.975  12.968
23626W        W92044  28.154   9.165   2.303
23627W        W92045  38.018  32.916  11.416
23628W        W92046  12.302  14.186  13.345
23629W        W92047  37.374   7.853   2.892
23630W        W92048  39.813   1.888  14.004
23631W        W92049  15.809  40.006  13.990
23632W        W92050  21.111  28.562   3.826
23633W        W92051  14.643  38.886  11.597
23634W        W92052  16.809   7.390  10.566
23635W        W92053  10.240  14.299  14.945
23636W        W92054  40.886  43.766   1.316
23637W        W92055  26.540   3.757   0.319
23638W        W92056   9.685  14.287   2.366
23639W        W92057  41.359   1.288   1.396
23640W        W92058   9.278   0.457  14.374
23641W        W92059   5.212   7.678  11.902
23642W        W92060  25.152  39.480   4.677
23643W        W92061  44.998  18.561   0.399
23644W        W92062  36.902  41.957  12.502
23645W        W92063  41.912  31.582  12.017
23646W        W92064  12.632  26.698   2.667
23647W        W92065   1.816  16.304   1.793
23648W        W92066  43.362  28.590  10.558
23649W        W92067  12.195   8.677  14.804
23650W        W92068  23.157  11.683  12.046
23651W        W92069  12.287  16.086  10.530
23652W        W92070  41.830  42.029   0.288
23653W        W92071   1.746  14.710   5.233
23654W        W92072  34.873  41.861   1.296
23655W        W92073  44.989  28.550  10.908
23656W        W92074  34.495   7.684   2.357
23657W        W92075  38.346   9.273  13.856
23658W        W92076   0.302  40.439  13.501
23659W        W92077  30.945   4.344   2.689
23660W        W92078  20.558  38.989   2.271
23661W        W92079  38.929  34.397   0.873
23662W        W92080   7.312  41.884  14.298
23663W        W92081  11.309  14.219   4.659
23664W        W92082  42.934  39.002  12.070
23665W        W92083   1.916   6.310  13.413
23666W        W92084  30.570   8.297   4.298
23667W        W92085  21.579  24.494   0.958
23668W        W92086  12.264  12.199  10.989
23669W        W92087  25.542  33.905   1.341
23670W        W92088   3.741   0.414   2.811
23671W        W92089  11.828  12.803   3.334
23672W        W92090   1.255  23.984   2.824
23673W        W92091  42.493  33.479   3.238
23674W        W92092   8.769  23.124   1.842
23675W        W92093  32.413   8.796   1.916
23676W        W92094  13.822  34.585   2.234
23677W        W92095  23.719   1.372  11.045
23678W        W92096  15.647   4.855   2.767
23679W        W92097  13.109  18.181  13.511
23680W        W92098  12.644  40.928   0.357
23681W        W92099  43.901  12.289   0.457
23682W        W92100  20.674  23.670   1.334
23683W        W92101  38.855  30.989   3.178
23684W        W92102  42.503  44.803  10.521
23685W        W92103   6.687  28.121  11.466
23686W        W92104  17.562  41.300  10.490
23687W        W92105   3.369  29.656  13.857
23688W        W92106  30.927  10.153   4.769
23689W        W92107  18.767  32.402   2.376
23690W        W92108  25.145  13.797   4.700
23691W        W92109  24.514   6.803  14.932
23692W        W92110  10.155  42.516   2.252
23693W        W92111   4.916  30.608  10.000
23694W        W92112  43.944  10.149  14.818
23695W        W92113  22.556  40.898  13.462
23696W        W92114  23.653  22.211  11.564
23697W        W92115  10.227  30.455  13.313
23698W        W92116  29.448  35.437  13.308
23699W        W92117  30.046  38.492   3.173
23700W        W92118   5.843  37.385   2.327
23701W        W92119   2.870   1.472   2.785
23702W        W92120  13.622  30.927   4.626
23703W        W92121  19.601  33.527  13.822
23704W        W92122  31.066   1.834   2.206
23705W        W92123  44.779  42.843   2.370
23706W        W92124  44.965  26.186   3.165
23707W        W92125   0.404  22.206   3.204
23708W        W92126  37.564  20.755   0.819
23709W        W92127  41.518  23.690  11.023
23710W        W92128   9.282   3.912  13.540
23711W        W92129  44.979   3.820   2.853
23712W        W92130  42.332   5.884  10.514
23713W        W92131   5.838  44.850  10.483
23714W        W92132  29.015   9.279  11.522
23715W        W92133   5.239  21.106   1.364
23716W        W92134  22.203  44.852  14.974
23717W        W92135  26.957  11.682  12.357
23718W        W92136  40.367  14.240  14.363
23719W        W92137  25.962  36.989  12.093
23720W        W92138  22.149  37.935   5.284
23721W        W92139  22.995  43.343  12.918
23722W        W92140   5.407  41.825   3.259
23723W        W92141   0.265  32.611  14.852
23724W        W92142  41.441  18.622   2.405
23725W        W92143  15.783  44.421   3.307
23726W        W92144  23.546   0.831   4.225
23727W        W92145  41.433  29.049  10.588
23728W        W92146  24.033  19.586   1.825
23729W        W92147  16.663  32.479  12.887
23730W        W92148  23.549  30.079   4.705
23731W        W92149  14.690  31.412   4.142
23732W        W92150  25.017  34.604  13.537
23733W        W92151  41.347  43.902   2.844
23734W        W92152  39.866   3.826  11.078
23735W        W92153  28.628  14.254  11.874
23736W        W92154  39.938   7.779   0.288
23737W        W92155  34.004  30.998   2.284
23738W        W92156  19.088  11.225  13.483
23739W        W92157  37.360  33.418   4.228
23740W        W92158  41.002  23.108  11.512
23741W        W92159   7.674   5.764  13.035
23742W        W92160  44.918  33.468   3.338
23743W        W92161  39.986  30.458  11.478
23744W        W92162  34.971  29.966   2.718
23745W        W92163  31.137   9.702  12.365
23746W        W92164  18.563  44.861   3.284
23747W        W92165  36.911   0.984   1.373
23748W        W92166  20.662   3.945  10.524
23749W        W92167  44.887  38.403  12.352
23750W        W92168  38.387  11.331  14.384
23751W        W92169  35.442  13.726   3.212
23752W        W92170  35.037   2.806  13.411
23753W        W92171  18.584  40.861  12.379
23754W        W92172   8.221  38.011  11.111
23755W        W92173  24.124  20.624  10.437
23756W        W92174   0.785  30.483   4.607
23757W        W92175  39.834  38.036   2.750
23758W        W92176   2.340  44.781  12.944
23759W        W92177  28.935  10.146   2.896
23760W        W92178   5.352   3.280   3.180
23761W        W92179  17.147  35.587  10.103
23762W        W92180  32.032  37.336  13.337
23763W        W92181  27.553  23.105  12.028
23764W        W92182  17.678  31.551   3.154
23765W        W92183  35.360  12.640  13.866
23766W        W92184  28.992  11.153   2.351
23767W        W92185  11.318  23.727   0.430
23768W        W92186   7.739  34.052   1.903
23769W        W92187  33.082   7.764   4.789
23770W        W92188  26.558  31.130  11.389
23771W        W92189   6.306   0.261   4.835
23772W        W92190  23.218  42.905   5.295
23773W        W92191  24.485  12.624  10.899
23774W        W92192  13.612  12.196  12.001
23775W        W92193  35.005  14.637  13.856
23776W        W92194  26.139  32.559   3.785
23777W        W92195   2.905   6.242  10.970
23778W        W92196  18.154  12.141   2.276
23779W        W92197  38.892  40.811   4.319
23780W        W92198  22.518   7.879  10.074
23781W        W92199  28.159  11.172  13.979
23782W        W92200  24.038  11.197   3.631
23783W        W92201  36.416  36.402   5.576
23784W        W92202   6.402   7.209  10.090
23785W        W92203  36.993  34.529  14.345
23786W        W92204  26.188  29.512  12.870
23787W        W92205  12.665  26.183   3.797
23788W        W92206  35.900  44.354   0.885
23789W        W92207  27.165   5.893   3.756
23790W        W92208  43.884  19.072  12.027
23791W        W92209  25.598  43.841   4.707
23792W        W92210  29.598   5.798  14.288
23793W        W92211  14.312  29.044  12.431
23794W        W92212  16.584  13.743   4.817
23795W        W92213  41.006  14.097  14.936
23796W        W92214  28.449  39.372   3.678
23797W        W92215  35.469  38.434  11.612
23798W        W92216  20.157  24.090   0.807
23799W        W92217  19.614  33.482   2.848
23800W        W92218  14.279  17.766  10.509
23801W        W92219   8.168  40.481  11.951
23802W        W92220  18.596  39.495  13.314
23803W        W92221   2.322  42.383   4.704
23804W        W92222   5.733  43.403  11.482
23805W        W92223  15.256  22.547  13.467
23806W        W92224  27.531   3.747  13.476
23807W        W92225  34.430   3.758   3.639
23808W        W92226  22.511   3.431   2.698
23809W        W92227  34.110   7.408   4.787
23810W        W92228  43.857   8.821  14.893
23811W        W92229  17.213   1.332  14.814
23812W        W92230  36.525  25.126  12.848
23813W        W92231  11.865   0.383   0.924
23814W        W92232  42.927  18.098   3.801
23815W        W92233   3.416   3.731  12.990
23816W        W92234  38.062  33.115  10.973
23817W        W92235  41.332   4.315  13.400
23818W        W92236  43.279   4.377  14.492
23819W        W92237  18.226  38.512  12.887
23820W        W92238  11.306  41.928  13.793
23821W        W92239  18.591  17.212   5.096
23822W        W92240  36.546  36.551   1.797
23823W        W92241  12.184  11.257  11.027
23824W        W92242  17.243  37.920  11.479
23825W        W92243  27.183  26.095  13.046
23826W        W92244  17.104  29.942  14.768
23827W        W92245  18.775  40.022  11.039
23828W        W92246  21.742  41.307   2.348
23829W        W92247  27.122  30.969  11.106
23830W        W92248  34.048  35.878  13.992
23831W        W92249  44.501  39.547   3.327
23832W        W92250  39.506  29.162  14.425
23833W        W92251   4.319   9.730  11.984
23834W        W92252  24.048  34.046   4.722
23835W        W92253  41.437  26.070   3.720
23836W        W92254  15.157  16.603  14.411
23837W        W92255  36.500  32.512  12.499
23838W        W92256  27.577  26.195   4.122
23839W        W92257  41.857  23.695   4.350
23840W        W92258   1.770   7.408   1.870
23841W        W92259  25.154  15.286   0.413
23842W        W92260  27.982  40.329  10.911
23843W        W92261  21.171   2.254  12.955
23844W        W92262  25.101  38.843  13.326
23845W        W92263  41.799  33.573  14.002
23846W        W92264  19.216  12.804  12.968
23847W        W92265  26.553  32.547   1.407
23848W        W92266  16.645  10.343   1.263
23849W        W92267  38.042  37.945  12.002
23850W        W92268  11.297  27.102  10.502
23851W        W92269  19.653  34.119  13.841
23852W        W92270  26.961  33.407   4.225
23853W        W92271   8.190   3.950  11.579
23854W        W92272   0.783  35.871  14.923
23855W        W92273  41.898   4.314   3.374
23856W        W92274  21.570  13.216   2.714
23857W        W92275  25.111  16.187   1.425
23858W        W92276  29.935  35.046   3.356
23859W        W92277  19.618  29.026   3.157
23860W        W92278  44.359  36.900   4.673
23861W        W92279  13.151  40.474   0.323
23862W        W92280  12.838  33.571   2.326
23863W        W92281   4.733  20.211  10.489
23864W        W92282  25.613   0.434   5.316
23865W        W92283  27.479   9.380  10.455
23866W        W92284  36.997  21.602  13.906
23867W        W92285  18.063   1.780   0.268
23868W        W92286  21.682  11.129   1.419
23869W        W92287  23.207  11.698  11.465
23870W        W92288   5.249  21.720  13.023
23871W        W92289  42.327  33.620  12.527
23872W        W92290   0.374  17.650   2.318
23873W        W92291   9.753  14.276   0.921
23874W        W92292  44.930  42.304  11.564
23875W        W92293  15.161  10.814  14.389
23876W        W92294  28.179  23.098  10.621
23877W        W92295  41.531  32.611  14.409
23878W        W92296  23.095  37.929   1.425
23879W        W92297   5.931   8.200  12.904
23880W        W92298  26.585  38.372  11.984
23881W        W92299   7.218  13.264   0.869
23882W        W92300   8.749  14.712   5.187
23883W        W92301  41.382  10.258  14.951
23884W        W92302  44.923   6.376  11.419
23885W        W92303   1.251  18.625  12.999
23886W        W92304  44.887  12.855   0.337
23887W        W92305  16.681  30.439  11.983
23888W        W92306  44.381  34.490  14.906
23889W        W92307  39.924  17.699  11.074
23890W        W92308  30.653  25.154   3.363
23891W        W92309  12.140  11.825   0.457
23892W        W92310  40.940   5.244  13.371
23893W        W92311   8.674  41.849   0.318
23894W        W92312   1.310  23.720   3.386
23895W        W92313  41.337  33.061   2.847
23896W        W92314  39.837  37.372   3.230
23897W        W92315  43.474  41.506   4.235
23898W        W92316  20.546   4.796  12.439
23899W        W92317   3.431  14.751  14.017
23900W        W92318  26.481   1.385  12.560
23901W        W92319  18.781   2.320  13.881
23902W        W92320  33.572  19.689   1.224
23903W        W92321  12.238  28.143   2.809
23904W        W92322  40.453   2.302  14.476
23905W        W92323   7.723  27.454   3.815
23906W        W92324   8.746   9.726  12.899
23907W        W92325  11.793   3.461   2.688
23908W        W92326  37.471  24.006  12.053
23909W        W92327  25.152  23.060  14.806
23910W        W92328  34.478  11.242  10.468
23911W        W92329  10.243  17.085   4.723
23912W        W92330   8.669  42.008  10.497
23913W        W92331  28.593  23.213   1.892
23914W        W92332  41.986  44.449   0.433
23915W        W92333   3.275  30.642  12.886
23916W        W92334  29.110   4.727   2.316
23917W        W92335  27.015  24.209   4.328
23918W        W92336  10.837  31.901  11.408
23919W        W92337   4.782  37.485   3.179
23920W        W92338  25.125   5.897   3.167
23921W        W92339  30.958  27.619  12.554
23922W        W92340  32.444  40.903   3.345
23923W        W92341   7.691  10.173  14.787
23924W        W92342  22.586   3.792  14.332
23925W        W92343  18.234  31.638   3.247
23926W        W92344  30.081   2.251  12.361
23927W        W92345   7.896  40.492   0.329
23928W        W92346   1.453  32.478  14.421
23929W        W92347  42.355  28.632  11.064
23930W        W92348  11.205  16.807  10.455
23931W        W92349  10.699  22.152   0.443
23932W        W92350  12.231  33.435   0.252
23933W        W92351  16.179  29.655  11.440
23934W        W92352  13.704  11.341   2.212
23935W        W92353   1.374  41.846   1.880
23936W        W92354  31.994  18.101   2.406
23937W        W92355  19.650  35.043   3.351
23938W        W92356  26.018  38.957  14.785
23939W        W92357   5.406  38.376   1.304
23940W        W92358  17.240  35.523   2.214
23941W        W92359  17.748  18.152   4.822
23942W        W92360  40.516  34.890   2.363
23943W        W92361  19.705   3.319   0.436
23944W        W92362  27.487  16.715   2.258
23945W        W92363  33.987  35.028   2.825
23946W        W92364  14.820  44.895   1.817
23947W        W92365  13.818  44.780  13.426
23948W        W92366  27.657  21.718   4.231
23949W        W92367  30.960  16.675   0.470
23950W        W92368  11.815   1.421   3.705
23951W        W92369  28.964  38.425   3.830
23952W        W92370  44.268  16.769   4.702
23953W        W92371  43.487   8.298  11.475
23954W        W92372   1.863  41.492   2.206
23955W        W92373  36.844  31.905  13.800
23956W        W92374  35.023  15.218  14.319
23957W        W92375  21.139   1.929  10.600
23958W        W92376  15.199  42.886   1.745
23959W        W92377  18.086   4.411  12.873
23960W        W92378   6.411  40.377   1.731
23961W        W92379  30.509  13.204  10.593
23962W        W92380  28.174  11.799   3.179
23963W        W92381  17.630  19.722  13.354
23964W        W92382  30.619  13.762  14.871
23965W        W92383   1.931  25.085  11.421
23966W        W92384   7.203  41.888  10.638
23967W        W92385   4.342  38.042   0.367
23968W        W92386  27.452  39.508   2.782
23969W        W92387  14.178  14.157   4.334
23970W        W92388   8.655  13.803   1.733
23971W        W92389  31.029  19.572   3.335
23972W        W92390  38.015  15.809   1.216
23973W        W92391  26.462  38.038  11.118
23974W        W92392  22.072   9.216   2.822
23975W        W92393  31.131  16.640   3.837
23976W        W92394  35.465  28.061   4.755
23977W        W92395   9.280  24.129  14.872
23978W        W92396   4.217   0.761   4.773
23979W        W92397  32.510  15.153  11.912
23980W        W92398  11.628  34.394  11.023
23981W        W92399   9.260  34.539   2.294
23982W        W92400   0.988  26.624  11.523
23983W        W92401  44.992  44.881  12.404
23984W        W92402  41.525  25.695   0.837
23985W        W92403  27.627  25.042  14.432
23986W        W92404  18.631   6.266  10.997
23987W        W92405  39.894  37.050  10.928
23988W        W92406  42.866  37.555   0.335
23989W        W92407   3.375   1.804  10.138
23990W        W92408  10.278  29.102   1.699
23991W        W92409  42.478   7.268   1.414
23992W        W92410   9.333  30.616   3.787
23993W        W92411   7.183  37.417  13.798
23994W        W92412  16.136  16.257   2.179
23995W        W92413   6.806   7.877   3.789
23996W        W92414  11.679  35.100  14.013
23997W        W92415  27.180  26.150  14.896
23998W        W92416  40.020   6.719  14.914
23999W        W92417  15.581  13.658  12.464
24000W        W92418   3.457   5.226   2.824
24001W        W92419  36.067   2.311  13.348
24002W        W92420   4.279  18.656  14.920
24003W        W92421  25.036  21.722   1.749
24004W        W92422  23.731  12.156   4.217
24005W        W92423  15.790  32.965   0.283
24006W        W92424  40.340   8.789  10.972
24007W        W92425  18.232  35.909   2.733
24008W        W92426  44.999  44.456  12.513
24009W        W92427  29.134   9.694   1.775
24010W        W92428   4.412   6.357   1.766
24011W        W92429  22.631   1.915   5.242
24012W        W92430  28.665  14.827   3.718
24013W        W92431  10.755  20.586  13.813
24014W        W92432  12.326  30.542   4.193
24015W        W92433  28.570  44.277  12.374
24016W        W92434  44.286   2.391   1.802
24017W        W92435  17.254  15.291  14.002
24018W        W92436  40.525   6.738  12.994
24019W        W92437  29.982   5.345  13.400
24020W        W92438  28.953  14.243   1.219
24021W        W92439  42.492  38.398   4.737
24022W        W92440  43.929  20.077  12.049
24023W        W92441  35.523  19.665  14.397
24024W        W92442  20.056  15.290   2.862
24025W        W92443  31.909   0.834  13.821
24026W        W92444  29.570  14.671   2.902
24027W        W92445  27.687   8.812   4.656
24028W        W92446  40.501  21.583  10.540
24029W        W92447  15.250  37.408  13.967
24030W        W92448   7.759   5.278   3.643
24031W        W92449  33.044  38.038   1.326
24032W        W92450   2.900  30.650  14.978
24033W        W92451  14.239  39.513   1.778
24034W        W92452  14.660  37.403   2.344
24035W        W92453  20.569   8.706   0.779
24036W        W92454  37.030  18.686  14.373
24037W        W92455   3.926  13.790   3.757
24038W        W92456   7.280  39.412  13.876
24039W        W92457  24.632  36.954   4.824
24040W        W92458   1.437  29.513   2.336
24041W        W92459   0.778  37.869  13.908
24042W        W92460  34.931  41.534  13.969
24043W        W92461  34.024   7.329   3.851
24044W        W92462  39.850  24.116   1.868
24045W        W92463  24.579  24.642   4.219
24046W        W92464  16.152  32.619   1.722
24047W        W92465  40.427  16.205  11.436
24048W        W92466  41.432  17.125  11.405
24049W        W92467   9.776  19.273   2.690
24050W        W92468  36.397  42.958  13.989
24051W        W92469  16.167  43.349  12.579
24052W        W92470  32.941  20.256  11.994
24053W        W92471   5.735  38.470   3.803
24054W        W92472  17.113  44.348  11.387
24055W        W92473  11.139  38.848  13.930
24056W        W92474   7.780   8.765   3.777
24057W        W92475  16.146   2.468  14.323
24058W        W92476  40.971  38.047   4.811
24059W        W92477  19.062  42.863   2.861
24060W        W92478  17.240  11.748   4.269
24061W        W92479  25.688  36.024  13.475
24062W        W92480  22.679  30.590  11.879
24063W        W92481  34.949  11.772  12.846
24064W        W92482   4.937   7.299  10.081
24065W        W92483  38.517  42.524  11.954
24066W        W92484  43.769  21.554  14.776
24067W        W92485  15.788  34.555  13.020
24068W        W92486  19.539  43.510  12.445
24069W        W92487   2.961   7.324  12.896
24070W        W92488   4.918  33.564   4.748
24071W        W92489  25.527   4.264   1.336
24072W        W92490   5.727  30.484  11.126
24073W        W92491  30.465   9.186  11.964
24074W        W92492  19.747  37.474  11.501
24075W        W92493  10.378  44.259   2.325
24076W        W92494  13.303  40.915   1.279
24077W        W92495   3.298  12.360  12.536
24078W        W92496  21.190  23.543   0.460
24079W        W92497   1.977  31.904   1.358
24080W        W92498  16.178  30.554   2.314
24081W        W92499   9.697   2.912  10.405
24082W        W92500  17.083   9.179   3.837
24083W        W92501   6.395  41.443  13.473
24084W        W92502  14.832  32.110  10.479
24085W        W92503  13.783  30.126  10.579
24086W        W92504   4.819  38.003  11.512
24087W        W92505  32.009   8.688  14.839
24088W        W92506  39.860  41.906   3.315
24089W        W92507  33.500  17.122   4.142
24090W        W92508  35.387   1.364   4.241
24091W        W92509  41.448  27.157   3.862
24092W        W92510   7.822   6.373   1.769
24093W        W92511   5.706  19.236   0.841
24094W        W92512  10.718   6.369   3.246
24095W        W92513  21.642   1.386  14.501
24096W        W92514  28.572  41.432   5.305
24097W        W92515   4.880  19.583  12.826
24098W        W92516  20.527  41.534   0.771
24099W        W92517  14.282   1.467  13.812
24100W        W92518   0.344  17.116   2.853
24101W        W92519  36.928   3.712   2.295
24102W        W92520  13.279  43.403   4.805
24103W        W92521  29.625  37.922  13.496
24104W        W92522  33.570  13.645   3.307
24105W        W92523  23.995  19.778   2.784
24106W        W92524  15.166   0.355  12.498
24107W        W92525  38.470  34.375   1.733
24108W        W92526   5.844  42.474  10.627
24109W        W92527  13.731  21.559  11.394
24110W        W92528  16.757  10.182   2.297
24111W        W92529  13.814  42.941  12.393
24112W        W92530  32.963  40.309  12.389
24113W        W92531  29.611  16.147  12.925
24114W        W92532  43.318  24.539  10.074
24115W        W92533   8.695  21.215  12.543
24116W        W92534  36.037  38.526  11.500
24117W        W92535   2.418  14.603   1.380
24118W        W92536  41.504  33.510  10.431
24119W        W92537  30.621  34.416   1.913
24120W        W92538  19.144  20.591   4.645
24121W        W92539  11.658   3.928  12.041
24122W        W92540  23.544   2.894  13.521
24123W        W92541  15.812  31.913  13.017
24124W        W92542  40.509  43.986   3.188
24125W        W92543  33.517   4.837  12.867
24126W        W92544  31.062  21.636   1.358
24127W        W92545  41.908  18.105  14.984
24128W        W92546  27.135   9.859   1.360
24129W        W92547  24.671  10.207   0.452
24130W        W92548  11.274  24.065  10.906
24131W        W92549  43.435  12.645   0.814
24132W        W92550  15.702  32.972   2.881
24133W        W92551  37.901  25.161   0.454
24134W        W92552  26.637  17.675  12.009
24135W        W92553  27.534  30.569  12.473
24136W        W92554  11.697  32.598  14.940
24137W        W92555  26.066  30.563   1.216
24138W        W92556   3.343   0.974  12.903
24139W        W92557  22.193  38.067   4.649
24140W        W92558  35.986   4.794   0.895
24141W        W92559  37.380  26.666  12.431
24142W        W92560   0.412  24.673   2.685
24143W        W92561  31.956  28.177  10.640
24144W        W92562  16.120  21.631   4.768
24145W        W92563  20.696  28.988   4.243
24146W        W92564  37.926  18.272   4.790
24147W        W92565  30.614  38.865  13.327
24148W        W92566  39.510  37.575  14.465
24149W        W92567  18.784  25.564  12.493
24150W        W92568  22.082  34.416   0.248
24151W        W92569   2.734  14.620  10.985
24152W        W92570  24.623  38.348  13.421
24153W        W92571   5.847   5.426  14.392
24154W        W92572  24.718  12.719   3.652
24155W        W92573  10.345  20.619  10.556
24156W        W92574  39.381   5.933   3.162
24157W        W92575  44.258  41.509   4.234
24158W        W92576   0.391   5.792  13.891
24159W        W92577   8.875   4.370   3.677
24160W        W92578   1.472  14.120   3.370
24161W        W92579  34.875   4.216   3.824
24162W        W92580   9.376  29.093   1.359
24163W        W92581  17.797  25.534   1.226
24164W        W92582  31.609  40.519  14.396
24165W        W92583   1.763  11.766   0.402
24166W        W92584  16.303  34.451   2.295
24167W        W92585   9.154   3.952   3.220
24168W        W92586  26.588  16.780   4.729
24169W        W92587   5.851   7.758  10.999
24170W        W92588  38.051  25.078   0.919
24171W        W92589  41.898  13.693   2.289
24172W        W92590  16.709  24.589   3.740
24173W        W92591   2.417  28.949   0.292
24174W        W92592  33.540   6.383  13.935
24175W        W92593  40.346   0.379  11.021
24176W        W92594  18.730  29.120  13.006
24177W        W92595   3.310  12.673   1.373
24178W        W92596  40.304   4.274  12.579
24179W        W92597  27.998   5.440  10.938
24180W        W92598  17.687  26.681  12.397
24181W        W92599  32.969  31.513  10.528
24182W        W92600  38.843  39.864  12.470
24183W        W92601   0.823   3.307   2.248
24184W        W92602  28.614  20.736  14.923
24185W        W92603   7.862  36.368  11.940
24186W        W92604   8.195  43.955   0.244
24187W        W92605  33.574  12.212  11.605
24188W        W92606  22.024  44.488  11.450
24189W        W92607  11.668   5.356   0.324
24190W        W92608  13.634  15.597  10.119
24191W        W92609   8.748  38.510   2.303
24192W        W92610   3.923   3.903  10.908
24193W        W92611  23.189  41.322  12.433
24194W        W92612  33.082  24.699   1.860
24195W        W92613  33.120  19.545  12.504
24196W        W92614  14.805  28.120   2.776
24197W        W92615  44.901  25.095   4.611
24198W        W92616   1.297   5.919  11.973
24199W        W92617  27.039  44.472   3.763
24200W        W92618   9.187  41.863  11.072
24201W        W92619  10.843   6.403   3.695
24202W        W92620  30.456   5.742   0.814
24203W        W92621  30.921  14.299  10.011
24204W        W92622  42.934  14.182   1.729
24205W        W92623   0.861  29.023   1.302
24206W        W92624  20.743  30.471   2.341
24207W        W92625  19.167  36.065   1.778
24208W        W92626  28.678  24.988  10.950
24209W        W92627  40.547  27.098   4.774
24210W        W92628  19.166  31.926  13.793
24211W        W92629  11.855  11.303   3.848
24212W        W92630  36.534  15.223   0.254
24213W        W92631   3.732  32.993  10.411
24214W        W92632  43.946  28.672  14.791
24215W        W92633  38.937  13.260  13.360
24216W        W92634   1.483  20.185  11.995
24217W        W92635  43.967  35.547   1.434
24218W        W92636  26.052  21.515   1.722
24219W        W92637  42.829  38.020   2.728
24220W        W92638   2.408  27.077   4.324
24221W        W92639  16.803  16.186  13.898
24222W        W92640  27.156  32.012   3.228
24223W        W92641  25.522  21.573  14.409
24224W        W92642  31.560  34.373  13.885
24225W        W92643  19.664  27.611  12.572
24226W        W92644  20.240  10.869   1.860
24227W        W92645  14.333  22.506  11.491
24228W        W92646  35.894  17.226   4.744
24229W        W92647  17.199  13.685   2.862
24230W        W92648  25.630   1.282  12.068
24231W        W92649  16.125   4.322   2.731
24232W        W92650  18.190  38.067  13.442
24233W        W92651  17.106  27.125  10.568
24234W        W92652   3.814   5.395  14.285
24235W        W92653   8.293  24.678   4.646
24236W        W92654  25.069  27.166   0.746
24237W        W92655  31.028   0.253   3.387
24238W        W92656  42.375  19.188  14.906
24239W        W92657   0.804   9.735  13.504
24240W        W92658  43.807  34.946  12.433
24241W        W92659  25.541  20.031  10.916
24242W        W92660   5.760  30.459   3.187
24243W        W92661  17.759  26.509  13.343
24244W        W92662  10.740  16.662   4.152
24245W        W92663  31.510  19.133   3.730
24246W        W92664  35.014  33.105  12.057
24247W        W92665  20.233  17.304   3.373
24248W        W92666  35.099  26.188  11.472
24249W        W92667  41.868  35.447  11.031
24250W        W92668   6.789  15.645   0.432
24251W        W92669   0.298  15.685   3.843
24252W        W92670  22.121  34.468  13.370
24253W        W92671  36.505  11.788  11.094
24254W        W92672  25.549  33.605   4.124
24255W        W92673  41.526   7.779   2.328
24256W        W92674  23.130  34.612  13.378
24257W        W92675  23.212  40.002  13.378
24258W        W92676  12.150   0.485  11.966
24259W        W92677  18.697  40.978  13.843
24260W        W92678   5.705  22.035  11.984
24261W        W92679  13.758  31.561   2.832
24262W        W92680   9.644  20.099   1.732
24263W        W92681  34.499  15.820   1.901
24264W        W92682  40.044  32.557   4.346
24265W        W92683   5.790  12.177   4.736
24266W        W92684  14.698  42.987  13.994
24267W        W92685  18.573   0.758   5.164
24268W        W92686   3.285  36.076   3.647
24269W        W92687  43.835  26.569  10.156
24270W        W92688   1.768   8.344  11.101
24271W        W92689  37.431   2.339   3.285
24272W        W92690  19.113   3.890  13.004
24273W        W92691  31.556  20.564   3.280
24274W        W92692  11.656  17.631  12.917
24275W        W92693  41.410  19.174   1.767
24276W        W92694  12.702  34.468  10.902
24277W        W92695  15.288   6.279  11.866
24278W        W92696  36.429   0.906  12.483
24279W        W92697  24.106   9.821  14.801
24280W        W92698  14.780  18.649  13.851
24281W        W92699  15.219  30.594  13.459
24282W        W92700  26.471  33.414  11.020
24283W        W92701  43.002   2.324  12.933
24284W        W92702  42.935  34.602   4.248
24285W        W92703  19.538   3.772   1.793
24286W        W92704  39.884  28.036   2.388
24287W        W92705  38.946  19.686  13.805
24288W        W92706  18.547   9.307   3.819
24289W        W92707   9.807  21.221   3.678
24290W        W92708  33.567  35.523  10.119
24291W        W92709  29.423  13.699   4.623
24292W        W92710   6.814  22.673  14.911
24293W        W92711  41.791  23.110  11.899
24294W        W92712   0.965  21.546   3.298
24295W        W92713  23.126   6.695  13.988
24296W        W92714  37.921   1.898  11.378
24297W        W92715   5.386  40.021  12.053
24298W        W92716  26.640  16.803  14.949
24299W        W92717  37.030   3.940  14.905
24300W        W92718  12.653  18.110   1.210
24301W        W92719  44.966  25.548  10.512
24302W        W92720  17.061   3.731  10.494
24303W        W92721   0.791  19.691  12.477
24304W        W92722  43.800  26.204   0.760
24305W        W92723  25.037  36.973   1.305
24306W        W92724  16.797  31.003   2.675
24307W        W92725  41.974  40.948  11.375
24308W        W92726   7.335  29.529   1.378
24309W        W92727  44.963   4.939  13.013
24310W        W92728  15.616  19.123   2.877
24311W        W92729  26.127  11.244  11.477
24312W        W92730  13.162  43.847   2.315
24313W        W92731  34.580  35.929   4.277
24314W        W92732   1.435  29.605   0.882
24315W        W92733   5.713  25.709  10.525
24316W        W92734   9.713  15.124  10.940
24317W        W92735  38.432   7.785   2.339
24318W        W92736   4.744   4.762   9.975
24319W        W92737  38.433  39.545   4.825
24320W        W92738  35.416  28.987   1.885
24321W        W92739  11.730  19.126  10.419
24322W        W92740  14.797  17.580  11.376
24323W        W92741  26.475  25.498   5.091
24324W        W92742   3.788  15.089  13.049
24325W        W92743   8.352  37.950   2.305
24326W        W92744   9.236  22.997  13.401
24327W        W92745   4.330   0.897  13.408
24328W        W92746  22.525  19.175  11.005
24329W        W92747  31.105  43.457  13.020
24330W        W92748  19.545  28.122  10.950
24331W        W92749  21.725  36.012   2.764
24332W        W92750   1.852   2.234  12.551
24333W        W92751  19.045  26.566  10.072
24334W        W92752  11.236  34.878  13.395
24335W        W92753  11.848  42.496  10.601
24336W        W92754  19.712  19.094   0.388
24337W        W92755  30.079  40.348  14.977
24338W        W92756   7.216   8.259  10.944
24339W        W92757  42.385  42.377  11.600
24340W        W92758  30.148  10.296  11.508
24341W        W92759  26.517  27.173  12.992
24342W        W92760  33.493  20.552  10.463
24343W        W92761  20.241   6.717   4.738
24344W        W92762   5.919   6.371   4.121
24345W        W92763  44.787  38.068  12.374
24346W        W92764  20.268   4.251   4.273
24347W        W92765  24.060  12.757  11.603
24348W        W92766  28.169  22.247   3.229
24349W        W92767  20.580  23.112  13.869
24350W        W92768   2.247   1.740  12.344
24351W        W92769  18.138  39.918   2.337
24352W        W92770  19.043   5.359  10.974
24353W        W92771   2.936  44.933   2.212
24354W        W92772  16.772  39.365   0.887
24355W        W92773  14.219  32.955  10.625
24356W        W92774  13.181  34.949   3.706
24357W        W92775  41.911  29.104  12.461
24358W        W92776   8.723   5.393   0.747
24359W        W92777  42.778  18.063  10.634
24360W        W92778  33.897  38.418  14.847
24361W        W92779  28.035   8.692   1.365
24362W        W92780   7.261  44.365   1.304
24363W        W92781  43.487  26.100   1.821
24364W        W92782  28.929  30.584  14.827
24365W        W92783  21.626   1.955  11.437
24366W        W92784  30.656  25.174   4.338
24367W        W92785  24.066  18.699  10.553
24368W        W92786  30.551  32.451  12.534
24369W        W92787  15.209  43.360  10.447
24370W        W92788  31.622  33.500   1.325
24371W        W92789  17.708   9.292  12.353
24372W        W92790  22.145   3.422   0.385
24373W        W92791  41.519  21.086   2.277
24374W        W92792  28.090  37.870  11.453
24375W        W92793   5.781   0.494  10.947
24376W        W92794  23.520  36.379   1.251
24377W        W92795  13.704  21.513  13.518
24378W        W92796   3.822   1.966  12.546
24379W        W92797  12.218  38.855  11.469
24380W        W92798  14.644  22.628  12.469
24381W        W92799  39.876   2.916   3.727
24382W        W92800  25.574  28.679   0.903
24383W        W92801   4.336   2.420   4.661
24384W        W92802  34.588   7.787  14.445
24385W        W92803  24.059  22.516   4.628
24386W        W92804  30.566  44.408  14.815
24387W        W92805  10.804   5.693  13.952
24388W        W92806  12.322  41.430   3.267
24389W        W92807  38.388   1.782   1.746
24390W        W92808   4.888   4.320  10.642
24391W        W92809  44.285   8.292  13.514
24392W        W92810  19.235  25.004   0.774
24393W        W92811  34.067  39.560   1.896
24394W        W92812   1.299  28.503   4.805
24395W        W92813   8.874   2.836  11.402
24396W        W92814   2.406  21.064  13.044
24397W        W92815  19.174   7.891  13.848
24398W        W92816  32.545  32.586  13.799
24399W        W92817  30.136  38.470  11.079
24400W        W92818  17.625  35.510   0.287
24401W        W92819   5.749  28.025   1.367
24402W        W92820  40.997   5.437  11.029
24403W        W92821   8.778   2.350  13.885
24404W        W92822  35.409  28.181  10.485
24405W        W92823  11.155  25.076   3.723
24406W        W92824   4.709  43.786   3.346
24407W        W92825   7.189  32.488  14.788
24408W        W92826  11.275   7.836   0.352
24409W        W92827  26.202  26.153   2.192
24410W        W92828   4.769  29.165  10.089
24411W        W92829   8.180  14.777  13.530
24412W        W92830  36.061  44.420   2.797
24413W        W92831  43.989  28.551  13.457
24414W        W92832  14.202  44.418  13.032
24415W        W92833  38.445   9.838   2.783
24416W        W92834   7.904  34.919  10.147
24417W        W92835  32.586  29.669  11.469
24418W        W92836  18.590   3.935   3.212
24419W        W92837  26.102  30.149   3.300
24420W        W92838   2.362  17.761   0.726
24421W        W92839  12.178  35.026  14.928
24422W        W92840  28.154   1.899   1.325
24423W        W92841  37.981  12.131   3.674
24424W        W92842  36.432  17.225   4.684
24425W        W92843   4.218  44.492   3.711
24426W        W92844  38.367  28.628  11.860
24427W        W92845  30.035  33.438   2.759
24428W        W92846  23.014   8.798  12.954
24429W        W92847  39.034   6.923   4.662
24430W        W92848  19.150  22.195  10.893
24431W        W92849  16.073  43.403   2.849
24432W        W92850  17.126  14.201  14.969
24433W        W92851   6.767  23.028  12.432
24434W        W92852  31.067   1.458   1.743
24435W        W92853  21.625  38.038   2.355
24436W        W92854  37.884   9.890  12.496
24437W        W92855  18.097  10.823   3.357
24438W        W92856   2.803   9.393  11.097
24439W        W92857  20.764  34.075   4.136
24440W        W92858   1.818   9.814   0.825
24441W        W92859  11.171  39.024  14.817
24442W        W92860  31.550   9.160  14.783
24443W        W92861  20.720  11.330   3.632
24444W        W92862  36.975  22.018  13.874
24445W        W92863  11.835  24.215   1.428
24446W        W92864  39.026  32.115  11.011
24447W        W92865  42.957  17.203   1.384
24448W        W92866  30.545  30.646   4.150
24449W        W92867  43.279  14.758   0.886
24450W        W92868  10.306  36.570   2.272
24451W        W92869  27.645   1.831  12.999
24452W        W92870  29.928  31.066   0.368
24453W        W92871  23.095  28.456  12.091
24454W        W92872  18.076  16.300   1.783
24455W        W92873  16.659   7.891  12.937
24456W        W92874  40.933   4.732  13.472
24457W        W92875  12.175  40.833  12.966
24458W        W92876   2.812  36.457   0.482
24459W        W92877  36.539  11.330   1.328
24460W        W92878   2.816  23.000   1.741
24461W        W92879  15.622   6.718   9.630
24462W        W92880  29.106  32.030   4.250
24463W        W92881  27.069   4.730  10.102
24464W        W92882  17.703  27.549   4.742
24465W        W92883  34.553  18.288   3.713
24466W        W92884  14.096  28.532  14.512
24467W        W92885   3.262  21.184  10.526
24468W        W92886   6.901  44.382   4.743
24469W        W92887  15.629   3.872  14.838
24470W        W92888  44.950   8.318   4.624
24471W        W92889  26.025   4.754   1.722
24472W        W92890  35.104  28.942   3.161
24473W        W92891   9.835  32.026   0.483
24474W        W92892  39.516  29.151  13.029
24475W        W92893  30.972  21.632  14.497
24476W        W92894  40.318  28.185   1.897
24477W        W92895  43.898   7.871   1.403
24478W        W92896  41.456  28.029   3.646
24479W        W92897  37.353  30.964  12.843
24480W        W92898  27.668  22.186  13.956
24481W        W92899  38.862  30.581  13.385
24482W        W92900   1.364  28.491   3.697
24483W        W92901  35.595  39.324   5.131
24484W        W92902  28.522  34.035   3.321
24485W        W92903  43.955  33.901  11.427
24486W        W92904  32.420  11.341  13.908
24487W        W92905  29.620  18.686  11.860
24488W        W92906  12.813  26.965   2.761
24489W        W92907  10.640  43.299   4.797
24490W        W92908  26.573  11.154  14.905
24491W        W92909  43.003  42.997  13.383
24492W        W92910  35.964  35.593  11.579
24493W        W92911  19.255  18.577  14.031
24494W        W92912  39.940  16.677   2.685
24495W        W92913  43.833  19.195  14.814
24496W        W92914   0.317  35.109  10.437
24497W        W92915  11.753  28.121   4.623
24498W        W92916  32.013  39.846   1.858
24499W        W92917  17.127   1.931   0.411
24500W        W92918  32.516  20.628   3.777
24501W        W92919  21.073  44.439  12.086
24502W        W92920   6.371  44.786   1.791
24503W        W92921  25.473  26.616  12.978
24504W        W92922  43.890  24.640   0.320
24505W        W92923  16.787   5.832  12.892
24506W        W92924   2.306   2.436   2.202
24507W        W92925   5.797   4.404  10.520
24508W        W92926  14.116  43.824  11.507
24509W        W92927  22.219  26.977  12.062
24510W        W92928  17.746   3.229   0.866
24511W        W92929  35.501  41.325  11.040
24512W        W92930  34.984  27.956  14.279
24513W        W92931  11.682  19.740   3.269
24514W        W92932  15.813   5.264  11.564
24515W        W92933  15.085  29.579   3.268
24516W        W92934  11.169  17.662   2.284
24517W        W92935   3.362  42.345   1.699
24518W        W92936   1.776  42.907  11.108
24519W        W92937  22.537  19.222  11.507
24520W        W92938  32.403   3.436  12.402
24521W        W92939  28.107  10.711  10.621
24522W        W92940  27.968  41.528   3.663
24523W        W92941  41.021  17.630   4.229
24524W        W92942  34.902  21.083  10.501
24525W        W92943  42.830  43.272  11.110
24526W        W92944  43.348  23.549  14.781
24527W        W92945  31.090  34.519  14.815
24528W        W92946  22.509  16.211  11.912
24529W        W92947  39.960  44.303  12.464
24530W        W92948   2.851  27.990  13.320
24531W        W92949   5.439  36.998  11.449
24532W        W92950  10.361  17.269  11.899
24533W        W92951  38.052   3.859  14.478
24534W        W92952   1.867  41.505  13.308
24535W        W92953  19.090  23.143  12.533
24536W        W92954  33.545  12.658  14.515
24537W        W92955  22.136   8.880  14.994
24538W        W92956  30.486  18.704  14.468
24539W        W92957  31.415  29.986   2.273
24540W        W92958  11.128   5.213   2.413
24541W        W92959  22.016  10.706  12.036
24542W        W92960   6.846  10.675  10.513
24543W        W92961   7.288  17.711   3.791
24544W        W92962  13.818  21.664  10.528
24545W        W92963  24.101  33.072  11.954
24546W        W92964  27.657  27.473   2.686
24547W        W92965  36.854   3.402   3.262
24548W        W92966  16.576  17.243  10.630
24549W        W92967  37.570  38.557   5.188
24550W        W92968  43.798  39.514   3.177
24551W        W92969  23.146  28.946  14.437
24552W        W92970  20.578  17.696  11.446
24553W        W92971   1.360   7.910  10.496
24554W        W92972  20.568  32.090   1.278
24555W        W92973   6.762  27.614   3.245
24556W        W92974  18.663  44.364  12.445
24557W        W92975   3.398  24.611   4.117
24558W        W92976   9.730  41.025   4.814
24559W        W92977  22.637  39.862   4.819
24560W        W92978  11.327   8.315   4.627
24561W        W92979  28.576  37.406   0.422
24562W        W92980  36.845  43.380  10.984
24563W        W92981  28.971  31.031   3.382
24564W        W92982  34.961  38.860   0.304
24565W        W92983  22.686  18.185   4.620
24566W        W92984  14.606  29.436  11.070
24567W        W92985   9.821  34.009   3.636
24568W        W92986   2.880  42.523   3.792
24569W        W92987  18.693  26.528   4.301
24570W        W92988  39.008   3.823  12.468
24571W        W92989   4.933   6.686   1.883
24572W        W92990  26.168  23.606  10.619
24573W        W92991   8.344  44.367   4.114
24574W        W92992  40.958   4.864   3.818
24575W        W92993  36.352   3.341  13.369
24576W        W92994  14.275   7.771  10.556
24577W        W92995  27.664  15.719   3.831
24578W        W92996  26.195  42.497  12.368
24579W        W92997  27.677   1.876  14.764
24580W        W92998   4.450  34.379  14.465
24581W        W92999  35.539  36.897  11.430
24582W        W93000  18.194  23.089   0.919
24583W        W93001  20.089  37.015  14.870
24584W        W93002   5.794  24.137   0.467
24585W        W93003   2.461  30.648  12.988
24586W        W93004   6.900  16.673   0.887
24587W        W93005  28.171   4.315  13.808
24588W        W93006  21.207  32.410   4.148
24589W        W93007  38.955  33.578  14.338
24590W        W93008  34.989   4.305   2.249
24591W        W93009  44.344  36.998  11.060
24592W        W93010  24.156  41.438   1.234
24593W        W93011  34.100  25.115   1.320
24594W        W93012  16.164  38.554   1.404
24595W        W93013  41.483  16.290   4.745
24596W        W93014  31.436  23.158  11.036
24597W        W93015  20.683  39.820  10.964
24598W        W93016  25.667  35.509  11.587
24599W        W93017   4.268   5.814   0.956
24600W        W93018   5.710  42.799   1.294
24601W        W93019  43.459  27.994  13.308
24602W        W93020  34.866  41.884  11.128
24603W        W93021   0.400   1.866  11.049
24604W        W93022  13.255  23.993   4.201
24605W        W93023  40.814  27.086  10.623
24606W        W93024  12.728  12.826  14.283
24607W        W93025  34.552  26.546   3.703
24608W        W93026   1.933   1.855  11.926
24609W        W93027  24.600  44.341   2.391
24610W        W93028  17.792  28.582  14.403
24611W        W93029  38.864  40.034   1.739
24612W        W93030  16.294  16.789  14.510
24613W        W93031  10.652  42.472  13.461
24614W        W93032   8.746  27.475   3.211
24615W        W93033  44.872  39.448   4.209
24616W        W93034  20.763  18.709   0.870
24617W        W93035  27.031  42.840   4.822
24618W        W93036  31.591   8.773   3.720
24619W        W93037  12.773  37.566  13.803
24620W        W93038  27.649  42.969  12.579
24621W        W93039  17.198   8.660   0.445
24622W        W93040  24.108  26.527  12.573
24623W        W93041  11.138  42.451   2.797
24624W        W93042  26.025   2.453  14.344
24625W        W93043  28.472  11.190   2.675
24626W        W93044   7.682  19.231   1.251
24627W        W93045  31.074  28.971   2.277
24628W        W93046  17.749  10.777   2.306
24629W        W93047  28.002  43.384  11.539
24630W        W93048   6.335  37.425  10.080
24631W        W93049  34.051  27.125  13.875
24632W        W93050   9.791  19.245   3.284
24633W        W93051   5.204  16.653  10.965
24634W        W93052  42.814  12.836   1.861
24635W        W93053   6.196   9.825   1.373
24636W        W93054  17.219   4.208   3.291
24637W        W93055   2.733   6.784   4.149
24638W        W93056  15.634  32.062   4.819
24639W        W93057   9.323  26.142  12.344
24640W        W93058  28.004  15.168  14.822
24641W        W93059   0.429   3.916  13.320
24642W        W93060  34.417  27.639  11.064
24643W        W93061  37.423  35.003  13.926
24644W        W93062  42.442   6.810   4.608
24645W        W93063  30.051  20.645  12.037
24646W        W93064  42.397  20.256  10.432
24647W        W93065  15.146  24.543   4.635
24648W        W93066  36.349  15.780   2.246
24649W        W93067  40.012   8.222   2.846
24650W        W93068   4.768  27.045  12.450
24651W        W93069   7.407  37.506   3.213
24652W        W93070   7.276  42.487  14.920
24653W        W93071  13.322   1.903   0.410
24654W        W93072   5.235  34.474   0.398
24655W        W93073   1.415  14.818  10.454
24656W        W93074  19.072   6.304   4.319
24657W        W93075   0.310  34.021   2.370
24658W        W93076   2.343  38.504  13.929
24659W        W93077   6.818  36.508   3.798
24660W        W93078  40.448  30.443  14.851
24661W        W93079  33.436  14.338   0.901
24662W        W93080  23.713  24.154   4.664
24663W        W93081  40.006   7.680   0.829
24664W        W93082  20.030   1.735   4.763
24665W        W93083  13.604  39.871  12.480
24666W        W93084  19.134  29.012  11.599
24667W        W93085  33.070  20.693  11.597
24668W        W93086  36.916  43.506  13.435
24669W        W93087  34.579  24.528   2.218
24670W        W93088  27.015  34.582   0.305
24671W        W93089  14.340   4.411   3.320
24672W        W93090  40.817  23.561   1.835
24673W        W93091  34.517  35.559  10.423
24674W        W93092   9.204  18.551  11.583
24675W        W93093   5.198  40.819   0.799
24676W        W93094  19.106  33.897   4.674
24677W        W93095  19.630  25.118   0.263
24678W        W93096  40.311  20.673   2.736
24679W        W93097  13.237  43.826   1.305
24680W        W93098  27.660  14.834  12.562
24681W        W93099  38.015   6.351   2.814
24682W        W93100  28.177  17.618  14.463
24683W        W93101  15.328  25.667  14.785
24684W        W93102  14.156  37.412  10.542
24685W        W93103  17.584  24.616  12.985
24686W        W93104  32.460   9.278  14.858
24687W        W93105  10.867  19.085  14.941
24688W        W93106  13.253  42.327   3.274
24689W        W93107   7.881   3.715   4.601
24690W        W93108  14.789  41.884   0.267
24691W        W93109   1.370   6.807  14.416
24692W        W93110  38.901  41.343   2.266
24693W        W93111  22.637  43.957  14.874
24694W        W93112  42.381  11.776   0.729
24695W        W93113  26.571  29.557  11.877
24696W        W93114  36.441  31.503  14.424
24697W        W93115  29.927   3.427   1.707
24698W        W93116  37.540  42.952  10.564
24699W        W93117  24.605  37.959   3.220
24700W        W93118   2.376  23.241  13.397
24701W        W93119  38.932  21.132  12.093
24702W        W93120  40.378   1.845  13.426
24703W        W93121  14.265  32.932   2.759
24704W        W93122   6.693  39.440   2.819
24705W        W93123  36.481  18.777  12.935
24706W        W93124  17.301  19.285  12.424
24707W        W93125   2.881  40.828   0.900
24708W        W93126  10.632   2.745   3.302
24709W        W93127  29.073   8.333   1.288
24710W        W93128  36.548   3.927  13.024
24711W        W93129  41.513  26.543  13.455
24712W        W93130  40.980   3.825  11.550
24713W        W93131  27.106   0.431  13.492
24714W        W93132  35.909   0.388   3.798
24715W        W93133  17.610  38.372   1.845
24716W        W93134  42.948   7.326   1.291
24717W        W93135  19.565   2.837   1.384
24718W        W93136  16.075   8.845  14.903
24719W        W93137  19.695  32.410  14.327
24720W        W93138  17.566  30.915  14.470
24721W        W93139  13.620   4.444  10.922
24722W        W93140   3.917  29.573   0.865
24723W        W93141  28.533  42.455   3.272
24724W        W93142   0.309  20.070  10.500
24725W        W93143  35.072  39.921   0.750
24726W        W93144  28.654   8.353  12.535
24727W        W93145   6.279  43.943   2.418
24728W        W93146   1.298  17.075   0.315
24729W        W93147  22.600   3.403   1.876
24730W        W93148  38.046  19.264  11.521
24731W        W93149  21.200   5.245  14.874
24732W        W93150  28.942   3.238  10.908
24733W        W93151  37.460  29.631   2.379
24734W        W93152  30.932  21.035   2.376
24735W        W93153  11.698   6.211   4.142
24736W        W93154  38.434  13.232  12.463
24737W        W93155  36.593  29.517  12.446
24738W        W93156  32.027   2.264  14.419
24739W        W93157  38.036  43.485  14.509
24740W        W93158  16.314  31.576  13.973
24741W        W93159  11.315  14.103  11.593
24742W        W93160  19.686  27.580   3.824
24743W        W93161   4.388  39.880  10.515
24744W        W93162  26.514  11.164  14.030
24745W        W93163  43.416  37.523  11.379
24746W        W93164  38.471  19.687   3.817
24747W        W93165   4.429   9.732   3.686
24748W        W93166  11.699  24.674  10.962
24749W        W93167   8.243  20.034   4.728
24750W        W93168  27.127   9.834   4.773
24751W        W93169  41.909  24.067   1.299
24752W        W93170  24.077  29.596   2.193
24753W        W93171  30.985  40.956   3.246
24754W        W93172  16.269  41.536  12.896
24755W        W93173   6.212  25.692  12.840
24756W        W93174   7.401  41.467  13.366
24757W        W93175  32.962  42.950  11.039
24758W        W93176  22.676   2.451   3.323
24759W        W93177  35.364  41.374   0.830
24760W        W93178  38.958  37.049   9.955
24761W        W93179  44.776   0.874  12.914
24762W        W93180  36.570  39.882  13.402
24763W        W93181  12.658  37.941   4.653
24764W        W93182   4.331  26.599  12.500
24765W        W93183  23.103  39.880  12.537
24766W        W93184   4.258  40.524  14.461
24767W        W93185  38.413  32.469  13.941
24768W        W93186   6.330  22.094   0.798
24769W        W93187  23.030  13.332  10.603
24770W        W93188  29.630  13.181   0.757
24771W        W93189   7.895  24.039  13.832
24772W        W93190  16.280   2.254  14.911
24773W        W93191  37.977   3.429   4.784
24774W        W93192  33.130  36.512  14.006
24775W        W93193  24.611  17.081   1.804
24776W        W93194  12.701  34.448   3.705
24777W        W93195  26.469  22.632   4.619
24778W        W93196  17.300  36.012   9.943
24779W        W93197   3.447  41.895  12.032
24780W        W93198   7.761  40.452   3.705
24781W        W93199  31.565  44.806  13.007
24782W        W93200   4.822   4.880  12.978
24783W        W93201   0.866  36.481   1.438
24784W        W93202  24.495  42.022  12.927
24785W        W93203  14.694  18.252   2.397
24786W        W93204  34.398  14.323   1.387
24787W        W93205  29.487  24.713   2.670
24788W        W93206  16.234  26.192  13.018
24789W        W93207  20.634  13.760  10.145
24790W        W93208  38.019  26.025   0.375
24791W        W93209  25.156  43.779  10.525
24792W        W93210  28.473  35.590   3.752
24793W        W93211   2.252  22.566   0.781
24794W        W93212  39.019  36.409   1.417
24795W        W93213  22.594  14.156  10.546
24796W        W93214  44.305  35.096  11.525
24797W        W93215  43.876  26.068   2.742
24798W        W93216  43.843  41.480  11.891
24799W        W93217  31.511  17.238   0.371
24800W        W93218  37.422  22.641  13.943
24801W        W93219  25.034  24.574  10.925
24802W        W93220  31.523   8.318  10.436
24803W        W93221   6.239  19.159   2.330
24804W        W93222  44.421  43.461  10.116
24805W        W93223  26.602  41.888   3.307
24806W        W93224   6.761  25.544  12.027
24807W        W93225  37.376  35.460  11.008
24808W        W93226   3.946  16.663   2.378
24809W        W93227   7.756  43.771  14.389
24810W        W93228  35.878  34.384  11.470
24811W        W93229  28.022   9.192   4.688
24812W        W93230   2.866  11.709   3.262
24813W        W93231  23.176  10.815  12.939
24814W        W93232  30.545   2.835   0.284
24815W        W93233   8.221  14.179  11.927
24816W        W93234  36.468  23.497   3.251
24817W        W93235  16.281  39.460  11.914
24818W        W93236   9.250  10.246  14.941
24819W        W93237  38.073   5.762   2.804
24820W        W93238   5.739  42.308   0.751
24821W        W93239  21.602  40.479   9.933
24822W        W93240  29.128  14.210   1.888
24823W        W93241   7.382  25.676   3.705
24824W        W93242  44.821   9.244  14.841
24825W        W93243  38.383  24.107  13.530
24826W        W93244   7.187  21.022  12.464
24827W        W93245  42.909  34.916   4.147
24828W        W93246  24.121   8.183  11.080
24829W        W93247  36.955   7.334  12.885
24830W        W93248  38.507  37.551   3.332
24831W        W93249  21.017   5.278   4.231
24832W        W93250  44.274  33.945   2.863
24833W        W93251  10.188  26.019   0.309
24834W        W93252  21.194   6.916   3.854
24835W        W93253  34.929   9.206  11.116
24836W        W93254  15.772  33.921   3.807
24837W        W93255  17.698   5.251   0.458
24838W        W93256  10.323  39.340   0.389
24839W        W93257   1.872  12.775  12.935
24840W        W93258  29.638  19.590   2.358
24841W        W93259   4.699  26.624   0.763
24842W        W93260  31.447  32.032  12.918
24843W        W93261  44.786  37.478  14.926
24844W        W93262  36.405  17.558   4.619
24845W        W93263  21.722  13.343   0.921
24846W        W93264  21.671  13.764  11.873
24847W        W93265  27.059  16.175   1.846
24848W        W93266  23.990  24.046  11.525
24849W        W93267  11.362  40.929   0.957
24850W        W93268   8.293  18.718  12.577
24851W        W93269  10.746  35.090   2.744
24852W        W93270   3.719   2.388  10.628
24853W        W93271   5.723  28.583  11.959
24854W        W93272  25.588  20.031   4.127
24855W        W93273  22.135  23.511   1.927
24856W        W93274  41.500  37.001   2.229
24857W        W93275  38.418  38.863  12.936
24858W        W93276  42.364  36.390  12.034
24859W        W93277  24.079   6.227   3.860
24860W        W93278  41.401  38.398  12.087
24861W        W93279  31.046   7.243  14.459
24862W        W93280  21.564  20.155  11.592
24863W        W93281  37.881  11.315  10.467
24864W        W93282  35.026  13.838  14.948
24865W        W93283  32.420   0.368  11.467
24866W        W93284  44.850  33.588  14.839
24867W        W93285   9.262   9.806  12.984
24868W        W93286  39.380  29.643   3.636
24869W        W93287  18.712   9.881  13.951
24870W        W93288  27.979  20.232  13.474
24871W        W93289  31.621  13.843   3.242
24872W        W93290  44.837  12.725   1.737
24873W        W93291   6.235  37.033  10.942
24874W        W93292  27.967   4.233  10.904
24875W        W93293  10.221  28.996   3.683
24876W        W93294   8.187  21.581   1.885
24877W        W93295  19.619   8.337  12.451
24878W        W93296   5.816  39.468  10.992
24879W        W93297   1.260   0.322   0.907
24880W        W93298   4.399  15.686  13.950
24881W        W93299  14.185  31.530   4.211
24882W        W93300   0.301   3.947   0.759
24883W        W93301  38.558  17.113   3.748
24884W        W93302  39.969  30.934  11.442
24885W        W93303  18.122  25.127   2.415
24886W        W93304  21.175  29.965  14.291
24887W        W93305  27.672  36.457   2.311
24888W        W93306  39.948   9.306  11.514
24889W        W93307  24.606  41.039   3.855
24890W        W93308   6.858  42.827   4.193
24891W        W93309  41.499   8.263  13.825
24892W        W93310  36.063  15.641  13.939
24893W        W93311  12.793  34.413   4.600
24894W        W93312  28.055  28.016   0.929
24895W        W93313  29.921  41.981   4.706
24896W        W93314   3.768  30.445   2.762
24897W        W93315  16.157  29.986  11.403
24898W        W93316  16.813   3.451  13.521
24899W        W93317  17.300  13.780   2.228
24900W        W93318   0.904  28.451   3.195
24901W        W93319  13.791  34.571   1.218
24902W        W93320  19.756  23.202   3.264
24903W        W93321  19.682  27.069  14.906
24904W        W93322   6.880  29.067  10.997
24905W        W93323  26.005  13.270   3.374
24906W        W93324  33.019  21.046   1.866
24907W        W93325   8.687  43.876  13.041
24908W        W93326  27.665   5.865   3.294
24909W        W93327  44.964   3.438   4.183
24910W        W93328  14.278  42.435  13.016
24911W        W93329   5.241  12.166  11.108
24912W        W93330  14.316  18.641  14.960
24913W        W93331  30.950  20.109   2.741
24914W        W93332  23.516   4.861   1.229
24915W        W93333   9.182   4.264  14.866
24916W        W93334  13.710  41.512   1.867
24917W        W93335  35.581  21.177  10.902
24918W        W93336  38.064   1.978  11.064
24919W        W93337  37.579  17.574  10.626
24920W        W93338  30.084  15.751   2.236
24921W        W93339  43.402  40.338  12.573
24922W        W93340  25.218  19.251  11.491
24923W        W93341  21.236   6.368   5.142
24924W        W93342  37.513  44.830   4.718
24925W        W93343  18.093  37.046  11.949
24926W        W93344  43.458  32.584   4.124
24927W        W93345  22.704   1.396  12.561
24928W        W93346  42.990  38.916   4.255
24929W        W93347  21.574  12.853  11.944
24930W        W93348  21.254  33.577   4.116
24931W        W93349  37.530  41.914   5.160
24932W        W93350  15.617  20.095  11.087
24933W        W93351  14.291   9.790  13.808
24934W        W93352   4.281  34.576  13.375
24935W        W93353  19.042   3.385  12.469
24936W        W93354  19.085   6.838   3.811
24937W        W93355  10.200  30.458  14.865
24938W        W93356  30.033  27.951   4.819
24939W        W93357  44.437  13.835  10.530
24940W        W93358  14.152  41.975  13.904
24941W        W93359  28.462  25.520  13.799
24942W        W93360  41.477  26.579  12.382
24943W        W93361  35.084  26.071  11.955
24944W        W93362  35.591  12.702  13.433
24945W        W93363  42.812  35.081   3.739
24946W        W93364  27.590  30.012   4.237
24947W        W93365  27.492  17.683  13.466
24948W        W93366  34.947   7.193  12.849
24949W        W93367  35.015  30.616  10.495
24950W        W93368  26.049  31.462  12.352
24951W        W93369  23.640  30.580   4.175
24952W        W93370  13.163  33.978  12.883
24953W        W93371  32.990  18.777  11.997
24954W        W93372  30.634  20.198   0.883
24955W        W93373  28.657  34.941  10.927
24956W        W93374  39.968  14.173   2.707
24957W        W93375  21.098   6.202   1.707
24958W        W93376  12.356  32.047  13.373
24959W        W93377  39.863  18.283   1.702
24960W        W93378  34.891  28.026   5.197
24961W        W93379   1.304  10.355   3.294
24962W        W93380  43.806  15.326  10.969
24963W        W93381   7.829   5.743  12.391
24964W        W93382  16.667  13.666  14.394
24965W        W93383   0.335  42.787   2.375
24966W        W93384  22.689   4.711  14.803
24967W        W93385  30.459  21.611  14.393
24968W        W93386  17.781  23.204   0.823
24969W        W93387  15.153  29.517   4.344
24970W        W93388  27.692  29.077  11.403
24971W        W93389  32.911  11.158  14.898
24972W        W93390  16.787  14.254   2.215
24973W        W93391  38.373  14.590  14.927
24974W        W93392  24.571  37.532  13.026
24975W        W93393  30.992  37.926   3.387
24976W        W93394  44.922  22.671  10.103
24977W        W93395   5.727  18.691   1.376
24978W        W93396  42.454   4.849   4.118
24979W        W93397   6.213  41.895  14.758
24980W        W93398  29.078  24.537   4.179
24981W        W93399  34.108  11.295   4.162
24982W        W93400  11.347  21.527  14.760
24983W        W93401  10.297   9.184   4.615
24984W        W93402   1.340  15.608  11.895
24985W        W93403  26.177  10.183   1.420
24986W        W93404  31.542  23.709   0.357
24987W        W93405   5.833  18.620   0.795
24988W        W93406  24.017  42.330   2.207
24989W        W93407  40.904   2.352  13.888
24990W        W93408  42.900  34.492   2.188
24991W        W93409  41.527  44.915  12.430
24992W        W93410  10.190   9.730  10.934
24993W        W93411  26.546  15.616  11.610
24994W        W93412   3.452  12.812  14.494
24995W        W93413  24.100   0.836  12.341
24996W        W93414  40.418  18.624   2.880
24997W        W93415  13.140  25.185  14.839
24998W        W93416  10.688  18.177   3.372
24999W        W93417  19.603   2.747  11.872
25000W        W93418  21.240  17.143   1.863
25001W        W93419   7.820   0.441  10.929
25002W        W93420  21.668  15.310   1.929
25003W        W93421  37.948  22.728  12.029
25004W        W93422  40.443  41.040   2.793
25005W        W93423  14.238  21.143  10.554
25006W        W93424  22.071   0.300   2.739
25007W        W93425   1.779  25.202  13.515
25008W        W93426  16.272   7.701  10.632
25009W        W93427   7.769   5.800   4.129
25010W        W93428   4.799  23.988   2.285
25011W        W93429   7.257  36.967   4.324
25012W        W93430  40.353   3.230  12.389
25013W        W93431   1.390  38.497   4.135
25014W        W93432  42.504  41.906   3.220
25015W        W93433  40.849  25.988   1.442
25016W        W93434  16.772  12.334  13.408
25017W        W93435  42.893  38.413   4.178
25018W        W93436  12.773  41.999   0.477
25019W        W93437  27.179  37.921  14.826
25020W        W93438  28.143  28.041   2.376
25021W        W93439  26.527  20.228   5.133
25022W        W93440   5.428  34.965  13.825
25023W        W93441   7.324  12.168   2.264
25024W        W93442  26.039   9.284  14.853
25025W        W93443  20.109  15.288  13.872
25026W        W93444   1.929  28.945   0.833
25027W        W93445  32.617  18.263   3.716
25028W        W93446  26.028  32.046  10.620
25029W        W93447   7.881  33.571   5.127
25030W        W93448   9.295   3.739   0.268
25031W        W93449  24.531  37.546   1.305
25032W        W93450  19.256  11.762  10.467
25033W        W93451  30.030   4.434   3.233
25034W        W93452  16.607  18.727   0.264
25035W        W93453  12.313  19.079   3.280
25036W        W93454   0.779   7.249  10.487
25037W        W93455  40.952  29.143  14.029
25038W        W93456  12.214  22.026  14.410
25039W        W93457  43.006   3.351  10.577
25040W        W93458  17.787   6.761  13.834
25041W        W93459  32.979  14.300   0.422
25042W        W93460  41.864   9.706   2.745
25043W        W93461   6.367  29.539   1.307
25044W        W93462   8.722  19.128   4.699
25045W        W93463   5.372  44.836   3.150
25046W        W93464  13.824   1.413  14.417
25047W        W93465  17.129   1.878   9.920
25048W        W93466  21.553  39.321   4.656
25049W        W93467   1.421  15.699   1.923
25050W        W93468  43.315   4.223  13.357
25051W        W93469  15.101  42.965  10.505
25052W        W93470  23.626   6.239   1.860
25053W        W93471  15.233  36.546   4.268
25054W        W93472  43.992  38.061   1.414
25055W        W93473   8.356  13.319  14.902
25056W        W93474  29.586   6.258   4.127
25057W        W93475  44.467   2.787  11.470
25058W        W93476  31.405   8.867   1.842
25059W        W93477  10.796   5.271  13.335
25060W        W93478  42.021  17.794  13.834
25061W        W93479  10.291   4.263  10.513
25062W        W93480  17.226   8.350   2.205
25063W        W93481  40.953   9.344   4.203
25064W        W93482  26.003  44.990  11.414
25065W        W93483  39.393  32.094  12.405
25066W        W93484  26.564  14.225   4.300
25067W        W93485  43.333   1.866  10.513
25068W        W93486   7.835  14.784   4.222
25069W        W93487  19.132   7.340   0.447
25070W        W93488  34.941  43.915   4.673
25071W        W93489  37.404  37.392  10.117
25072W        W93490  20.178  14.205   4.318
25073W        W93491   5.231  19.103  11.383
25074W        W93492   1.930  35.360   0.734
25075W        W93493  13.182  17.195   3.841
25076W        W93494  20.225  10.745  12.981
25077W        W93495  28.955  21.638   3.734
25078W        W93496  41.875   2.348  11.861
25079W        W93497  31.569  15.094   1.398
25080W        W93498  31.600  30.629  11.947
25081W        W93499  38.953  30.122  14.870
25082W        W93500   5.893  36.495  11.487
25083W        W93501   6.887  43.433   4.608
25084W        W93502  15.742  18.770   1.229
25085W        W93503  28.647  41.983   1.336
25086W        W93504  14.264  42.789   4.671
25087W        W93505  35.427  37.865   2.316
25088W        W93506   2.337  14.326   0.434
25089W        W93507  43.421   5.221   2.271
25090W        W93508  32.028   1.451   3.861
25091W        W93509  24.122  19.577  14.012
25092W        W93510  21.243  16.747   3.681
25093W        W93511  34.976   7.241  12.525
25094W        W93512  15.280  26.592   1.842
25095W        W93513   3.333   1.958   2.198
25096W        W93514  17.769   3.912  12.021
25097W        W93515   6.312  43.997   1.328
25098W        W93516  34.519  19.148   4.334
25099W        W93517  38.440  25.575   1.752
25100W        W93518  44.941  30.649  11.113
25101W        W93519  37.355   7.731  14.451
25102W        W93520  10.276  11.133   4.694
25103W        W93521   0.493  30.999   2.800
25104W        W93522   4.282  38.390  13.433
25105W        W93523   5.287  16.072  14.419
25106W        W93524   0.357  12.717  12.092
25107W        W93525   5.691   1.929   0.285
25108W        W93526   1.814   2.729   1.250
25109W        W93527  17.677  12.346   1.699
25110W        W93528  18.095   2.748  13.363
25111W        W93529  38.896   9.863   3.676
25112W        W93530  22.213  31.403  14.962
25113W        W93531  39.890  38.905   3.752
25114W        W93532  33.995  35.556  10.605
25115W        W93533  29.083  39.026  11.088
25116W        W93534  15.717  34.917   3.643
25117W        W93535  23.583  10.778   3.784
25118W        W93536  34.963   5.883  12.081
25119W        W93537  20.649   6.230   4.235
25120W        W93538  20.748  36.025  14.510
25121W        W93539  11.678  19.552   5.183
25122W        W93540   0.473  20.272   1.925
25123W        W93541  24.596  20.723  12.464
25124W        W93542  44.878  30.105  10.573
25125W        W93543  22.052  18.143  13.511
25126W        W93544  25.630  42.967  11.553
25127W        W93545  36.435  15.142   4.352
25128W        W93546  22.740   4.805  10.092
25129W        W93547   3.766  32.054  13.807
25130W        W93548  11.299  18.771  12.479
25131W        W93549   9.162  44.451   0.417
25132W        W93550  31.553  18.199   1.430
25133W        W93551  43.910  15.288  14.506
25134W        W93552  39.913  13.252   4.138
25135W        W93553  19.575   0.411   4.659
25136W        W93554  43.958   0.407   3.689
25137W        W93555  30.587  31.517   1.367
25138W        W93556  25.537  27.589  12.406
25139W        W93557  32.140  28.533  10.961
25140W        W93558  44.933  25.180  11.880
25141W        W93559  44.822   1.370   2.739
25142W        W93560  24.128  39.353  12.369
25143W        W93561  34.378  35.096  10.612
25144W        W93562  16.718   7.346   1.410
25145W        W93563  13.820  23.717  14.835
25146W        W93564  19.069   8.857   2.269
25147W        W93565  30.909  25.477   1.415
25148W        W93566  16.702  27.448   4.719
25149W        W93567  28.577   2.466   2.374
25150W        W93568   9.302  27.596  11.956
25151W        W93569  44.760  44.361  10.134
25152W        W93570   7.705  28.472  13.498
25153W        W93571  32.989   4.344   4.315
25154W        W93572  40.343  18.693   0.341
25155W        W93573  39.948  40.815   1.821
25156W        W93574  43.456   9.687  10.451
25157W        W93575  37.387   2.409  13.359
25158W        W93576   0.443   8.761   3.722
25159W        W93577  35.108  18.751   2.673
25160W        W93578  15.309  32.599   0.327
25161W        W93579  16.072  20.717   0.812
25162W        W93580  20.591  39.006  13.027
25163W        W93581  30.965   9.816   2.702
25164W        W93582  20.542  30.449  11.550
25165W        W93583   6.194  27.941   0.246
25166W        W93584  35.517   8.298  12.837
25167W        W93585  44.490  44.324   4.334
25168W        W93586  21.724  14.217   3.651
25169W        W93587  23.685   1.459  13.886
25170W        W93588  42.994  17.665   0.359
25171W        W93589  24.182  34.036  14.815
25172W        W93590  17.118  33.969  14.945
25173W        W93591  18.237   3.806   3.383
25174W        W93592   2.826  18.216   3.351
25175W        W93593   0.355  18.706  12.945
25176W        W93594  29.948  37.388   2.846
25177W        W93595  32.541  42.967  13.455
25178W        W93596  24.197  35.387  11.556
25179W        W93597  34.594  40.811   1.795
25180W        W93598  41.462  18.664   4.788
25181W        W93599   9.301  35.913   2.359
25182W        W93600  17.791  23.213   0.471
25183W        W93601  24.695   6.345  13.433
25184W        W93602  15.745  41.907   0.303
25185W        W93603  12.838  39.834   1.830
25186W        W93604  41.868  42.312   3.807
25187W        W93605  44.286  36.917  13.428
25188W        W93606  26.160  30.578  10.596
25189W        W93607   6.885   2.735  11.424
25190W        W93608  43.875   0.481  13.883
25191W        W93609   1.807  31.926  10.611
25192W        W93610  35.002   6.331   2.220
25193W        W93611  29.942  22.718   0.760
25194W        W93612  23.651  39.386  10.554
25195W        W93613   1.324  35.018  10.940
25196W        W93614   3.371  44.753  14.402
25197W        W93615   2.921   6.398  13.893
25198W        W93616  18.611   2.243  14.957
25199W        W93617  22.081  14.759   3.152
25200W        W93618   3.398   4.387   2.257
25201W        W93619  23.000  14.136   0.822
25202W        W93620  34.386  31.087   2.760
25203W        W93621  20.719   2.726   4.255
25204W        W93622  17.270   3.300   3.776
25205W        W93623  13.167  24.524   0.786
25206W        W93624  39.895  11.742   0.456
25207W        W93625   8.768  35.075  13.985
25208W        W93626   8.199   2.811  10.583
25209W        W93627  19.110  27.683  12.984
25210W        W93628  43.338  13.744  13.978
25211W        W93629  44.262   8.875  13.420
25212W        W93630  13.132  41.423  11.460
25213W        W93631  14.206  23.603   2.388
25214W        W93632  42.355  24.553  14.504
25215W        W93633  38.938   0.744  12.475
25216W        W93634  28.004  11.290  13.529
25217W        W93635  41.349   5.915  11.604
25218W        W93636  10.678   8.858   3.768
25219W        W93637  30.568  17.151  13.442
25220W        W93638  28.950  18.644   4.132
25221W        W93639  39.839  34.601   2.302
25222W        W93640   0.875  26.492  11.977
25223W        W93641  20.103   8.753   2.703
25224W        W93642  22.528  16.192   3.303
25225W        W93643   5.791  38.914  12.353
25226W        W93644  30.961  13.210  13.510
25227W        W93645   7.403   7.253   1.329
25228W        W93646  36.080   0.477   0.966
25229W        W93647  13.253  39.431   2.789
25230W        W93648  18.094  43.420   2.355
25231W        W93649  31.644  37.403   2.294
25232W        W93650  26.603  44.754   4.817
25233W        W93651  11.353  36.423  12.395
25234W        W93652   3.826  32.438  14.023
25235W        W93653  37.894   4.441  14.783
25236W        W93654  16.665  41.410  12.852
25237W        W93655   8.659   4.715   2.299
25238W        W93656  43.811  39.972   2.316
25239W        W93657  34.490  32.607   2.902
25240W        W93658   8.392   4.897  12.515
25241W        W93659   4.333   8.840   0.802
25242W        W93660  30.569   1.454   4.326
25243W        W93661  42.908  27.049  12.347
25244W        W93662  23.081  39.940   4.219
25245W        W93663   1.404  28.638   1.244
25246W        W93664   1.789  39.552   2.842
25247W        W93665   6.770  22.009  12.000
25248W        W93666  10.701   3.925  14.972
25249W        W93667  19.197  10.189  12.349
25250W        W93668  18.546  28.549   2.679
25251W        W93669  22.031   4.243   1.291
25252W        W93670  15.661  19.719   4.180
25253W        W93671   1.374  12.331  11.068
25254W        W93672  13.747  11.632  12.427
25255W        W93673  40.494  16.584   3.833
25256W        W93674  38.979  15.286   4.232
25257W        W93675  38.050  33.401   3.800
25258W        W93676  24.994  31.010  14.481
25259W        W93677   3.417  21.541   3.287
25260W        W93678  27.547  36.868   0.280
25261W        W93679   8.788  30.015   3.829
25262W        W93680  42.328   6.789   3.381
25263W        W93681  40.020  21.738  14.947
25264W        W93682  43.289  22.615   4.269
25265W        W93683  22.697   8.866  13.821
25266W        W93684   9.811   5.332  12.015
25267W        W93685   5.430  19.261  13.317
25268W        W93686  32.519  27.674  10.942
25269W        W93687   6.794  24.509  11.042
25270W        W93688  37.472  18.255   3.766
25271W        W93689   9.673  31.551  13.359
25272W        W93690  13.647   6.789  11.423
25273W        W93691  42.819  32.627  11.991
25274W        W93692  37.368   3.422  14.327
25275W        W93693  32.041   8.401  13.388
25276W        W93694  27.994  40.385   2.409
25277W        W93695   5.857  22.025  14.988
25278W        W93696  17.104  34.583  12.932
25279W        W93697  27.512  34.047   1.314
25280W        W93698  26.136   5.196   0.936
25281W        W93699   5.897   5.708  14.985
25282W        W93700  15.169  37.464   2.182
25283W        W93701  35.446   4.316  13.869
25284W        W93702  16.788  14.177   3.216
25285W        W93703  14.782  13.156  10.450
25286W        W93704  22.135  18.274  14.963
25287W        W93705  34.915  28.097   2.719
25288W        W93706  26.683  20.751  14.382
25289W        W93707  33.056  16.318   3.263
25290W        W93708  26.170  15.192   1.352
25291W        W93709  20.046  25.211   0.272
25292W        W93710  36.453   8.743  10.469
25293W        W93711  22.564   9.245   0.747
25294W        W93712  28.543  40.348  12.389
25295W        W93713  12.629  17.672   3.848
25296W        W93714  12.289  44.794  12.873
25297W        W93715  41.026   9.284  10.962
25298W        W93716   8.710  33.561  11.962
25299W        W93717  41.968   9.169  13.496
25300W        W93718  10.810  41.338  14.992
25301W        W93719  14.761  18.205   5.315
25302W        W93720   1.291  33.112   1.934
25303W        W93721  31.491   3.713   4.210
25304W        W93722  37.453   3.404  13.906
25305W        W93723   4.714  23.561   0.743
25306W        W93724  37.830  44.265   1.900
25307W        W93725   8.830  32.564  13.329
25308W        W93726  33.940   9.322  14.434
25309W        W93727  18.191  19.137   3.264
25310W        W93728   1.410  11.658  13.407
25311W        W93729  14.630   0.833  13.512
25312W        W93730  15.738  11.264  12.890
25313W        W93731   0.382  21.627  10.109
25314W        W93732  15.117  40.967   4.731
25315W        W93733  28.186  29.629   1.816
25316W        W93734   7.689  11.257  13.911
25317W        W93735  37.951  31.029  11.033
25318W        W93736  30.588  33.948  10.472
25319W        W93737  40.396  37.046   1.768
25320W        W93738  13.670  39.346  14.778
25321W        W93739  19.216  37.934   4.668
25322W        W93740  33.407   9.812   2.670
25323W        W93741   0.951  27.119   4.262
25324W        W93742   8.822  20.522  11.530
25325W        W93743  14.699  44.970   3.248
25326W        W93744   8.687  38.066   1.913
25327W        W93745  39.428   4.757  12.431
25328W        W93746   2.742  28.044  11.014
25329W        W93747  44.392  39.922  11.039
25330W        W93748  43.951  20.241  11.106
25331W        W93749   6.853  19.178   2.214
25332W        W93750  43.343   1.328  12.974
25333W        W93751   9.887  31.522   3.865
25334W        W93752  43.378  31.621   2.330
25335W        W93753  43.369  14.099  11.542
25336W        W93754  37.480  39.495  12.378
25337W        W93755   6.727  17.693   3.669
25338W        W93756  36.081  15.258   4.309
25339W        W93757  32.003  10.876  12.437
25340W        W93758  11.744  12.624   2.692
25341W        W93759  34.917  24.481  11.533
25342W        W93760   9.348  37.383  14.884
25343W        W93761  30.974   5.803  11.998
25344W        W93762   7.325  32.016  13.827
25345W        W93763  26.539   9.799  14.433
25346W        W93764  25.629   7.283  10.138
25347W        W93765   9.238  37.573  10.627
25348W        W93766   2.941  15.638  11.103
25349W        W93767  21.027  13.303   5.115
25350W        W93768  17.212  18.053  13.462
25351W        W93769  15.690  12.824   1.798
25352W        W93770  27.033  16.795   4.124
25353W        W93771  26.607   2.335  11.951
25354W        W93772   8.762  43.348  12.003
25355W        W93773  40.324   6.282  10.154
25356W        W93774  21.019  25.579   1.381
25357W        W93775   6.221  20.637  12.422
25358W        W93776  17.071  23.083  13.828
25359W        W93777  33.415  30.473   0.813
25360W        W93778  11.176  39.882  11.469
25361W        W93779  29.941  12.308   2.243
25362W        W93780   4.855  10.848  10.631
25363W        W93781  34.102  26.073  11.917
25364W        W93782   9.395  20.534   2.850
25365W        W93783  29.173  39.451  10.574
25366W        W93784  15.692  24.985   2.792
25367W        W93785   4.802  35.590   2.338
25368W        W93786  30.624   0.821   2.219
25369W        W93787  12.766  29.153   4.332
25370W        W93788  43.319   2.428   0.339
25371W        W93789   0.402  22.744  12.882
25372W        W93790  26.118  40.001   1.828
25373W        W93791  37.373  36.588   4.794
25374W        W93792  27.017  43.412   0.266
25375W        W93793   1.814  30.475   3.375
25376W        W93794  12.739   5.276  11.547
25377W        W93795  12.287   4.872   2.190
25378W        W93796   2.916  24.482  11.406
25379W        W93797  37.052  19.080  14.901
25380W        W93798   9.191  39.481   2.196
25381W        W93799   1.466  17.209   1.695
25382W        W93800  18.717  28.076   0.338
25383W        W93801  21.698  20.253   3.865
25384W        W93802  23.131   4.345  13.938
25385W        W93803  35.395  25.615  14.310
25386W        W93804  14.303  44.311   1.796
25387W        W93805  10.680   7.716  14.013
25388W        W93806  15.817  42.313   4.178
25389W        W93807  41.407  29.484  12.019
25390W        W93808  39.418  10.301  10.617
25391W        W93809  18.628  21.536   3.788
25392W        W93810   3.920  19.082  12.455
25393W        W93811  40.917  14.615   2.861
25394W        W93812  27.072  29.643   0.324
25395W        W93813  17.763  32.897   0.815
25396W        W93814  15.750  41.362  11.033
25397W        W93815  40.522  38.434   3.645
25398W        W93816  22.045  10.279   2.309
25399W        W93817  19.236  20.704  11.950
25400W        W93818  34.455  25.142  11.016
25401W        W93819   5.764  19.680  10.489
25402W        W93820   4.833  29.450   4.123
25403W        W93821   2.313   8.253   2.898
25404W        W93822  15.099  11.292   1.772
25405W        W93823  17.708  31.546   4.344
25406W        W93824  28.611   4.885   0.376
25407W        W93825  33.971  11.683   0.878
25408W        W93826  12.220  41.878   0.934
25409W        W93827  43.888  37.460  12.413
25410W        W93828  43.378  41.333   5.633
25411W        W93829  27.050   2.254   4.327
25412W        W93830  27.449  13.281   3.240
25413W        W93831  36.355  22.550   1.245
25414W        W93832  22.734  17.080   3.257
25415W        W93833  39.055  35.106   1.354
25416W        W93834  44.433  17.786  10.977
25417W        W93835   1.353  21.121   0.344
25418W        W93836  32.955   4.372  11.529
25419W        W93837  17.181   7.195   2.765
25420W        W93838  18.105   4.894  10.991
25421W        W93839  32.888  27.017  10.403
25422W        W93840   2.786  34.467  14.494
25423W        W93841   9.354   2.283   0.773
25424W        W93842  30.086  19.626   1.808
25425W        W93843   8.895   2.360  11.933
25426W        W93844  43.830  40.465  14.515
25427W        W93845  28.442  38.571  12.533
25428W        W93846  40.029  19.225   2.758
25429W        W93847  16.315   6.270  13.981
25430W        W93848   7.221  23.601  12.049
25431W        W93849  44.966  35.373   0.362
25432W        W93850  42.455   9.266  12.536
25433W        W93851   7.210  42.307   3.362
25434W        W93852  19.711  16.591   4.315
25435W        W93853  12.166  13.833   4.719
25436W        W93854  27.508   4.310   1.354
25437W        W93855  20.139   2.748  12.580
25438W        W93856  17.737  23.593   4.686
25439W        W93857  40.496  41.000  11.427
25440W        W93858  18.758   4.790   4.767
25441W        W93859  33.951  35.959   4.295
25442W        W93860   4.926   0.399   2.365
25443W        W93861   6.342  37.945  14.324
25444W        W93862   8.333  27.123   2.407
25445W        W93863  34.964  35.050   3.649
25446W        W93864  16.302   7.396   2.815
25447W        W93865  13.669   0.921   0.881
25448W        W93866  27.585  31.565  10.916
25449W        W93867  33.471  18.066   1.749
25450W        W93868  18.136  30.012   2.227
25451W        W93869  36.423  12.123   2.387
25452W        W93870  34.529  27.619   0.268
25453W        W93871   4.752  12.225  12.897
25454W        W93872  43.968  37.064  12.467
25455W        W93873  15.664  19.685   1.839
25456W        W93874  21.117  15.315  13.004
25457W        W93875  43.822   5.218   4.763
25458W        W93876  35.022   7.749   2.803
25459W        W93877  27.622  34.113  13.509
25460W        W93878  34.889  43.485  12.365
25461W        W93879  26.650   9.775  14.799
25462W        W93880  18.591  15.796  11.021
25463W        W93881  12.857  28.497  14.340
25464W        W93882  32.566   8.364  11.107
25465W        W93883  22.650   2.846  12.029
25466W        W93884  10.174  27.117  12.863
25467W        W93885  32.415   1.871  11.421
25468W        W93886  38.371   1.337   3.635
25469W        W93887  39.372  29.033   2.664
25470W        W93888   2.302  43.389  11.983
25471W        W93889   4.317   4.410  10.638
25472W        W93890   5.436   2.901  12.564
25473W        W93891   7.861  41.035   4.213
25474W        W93892   2.761   6.422   2.206
25475W        W93893  11.178  44.785  13.803
25476W        W93894  12.157  32.896   0.797
25477W        W93895   3.369  14.096  12.409
25478W        W93896  41.450  14.289   0.463
25479W        W93897  19.542  26.461   9.551
25480W        W93898  36.060  44.365   0.341
25481W        W93899  33.516   7.908  12.076
25482W        W93900   0.404  32.617   3.155
25483W        W93901  25.603  31.942   3.263
25484W        W93902  36.063  31.053   0.325
25485W        W93903   9.186  17.147  14.920
25486W        W93904  42.504   9.268   0.455
25487W        W93905  24.059   2.815  14.844
25488W        W93906  13.636  35.080  10.603
25489W        W93907  12.770  23.565   3.679
25490W        W93908  38.911  12.204   3.296
25491W        W93909  30.057  32.008  14.994
25492W        W93910  43.844   4.714  11.058
25493W        W93911  17.580  43.328   0.747
25494W        W93912  25.182  40.539   3.774
25495W        W93913   8.732  19.560   5.161
25496W        W93914  34.966   2.885   3.647
25497W        W93915  16.204  41.326  11.009
25498W        W93916   5.812  13.771  11.444
25499W        W93917   2.402  28.060   5.314
25500W        W93918   5.730   4.860   1.904
25501W        W93919   2.879   0.440   1.335
25502W        W93920  35.941  25.712   1.283
25503W        W93921   2.857  33.083   2.309
25504W        W93922  36.531  43.883   0.726
25505W        W93923   5.885  38.886  13.478
25506W        W93924  31.008  23.091  12.851
25507W        W93925   0.807  39.019   3.175
25508W        W93926  19.241  29.146   4.263
25509W        W93927  36.445  13.306   0.850
25510W        W93928  44.301  23.078   2.820
25511W        W93929  39.525  30.947   0.885
25512W        W93930   6.739  27.588  10.924
25513W        W93931  16.771  32.521  14.432
25514W        W93932  36.988  34.577  12.417
25515W        W93933  28.158  26.661   2.725
25516W        W93934  42.983  13.649  12.432
25517W        W93935  32.461  31.459  14.514
25518W        W93936  34.399  44.774  11.580
25519W        W93937  43.776   6.312   1.363
25520W        W93938  25.693  42.852  10.112
25521W        W93939   6.680  10.152  14.406
25522W        W93940  35.102  12.339  12.023
25523W        W93941  29.140   6.287   0.760
25524W        W93942  26.027   3.948   4.233
25525W        W93943  24.975  18.187  12.071
25526W        W93944  29.428  38.835   2.691
25527W        W93945  35.543  35.411   1.394
25528W        W93946  19.175  21.740  13.958
25529W        W93947  44.931  22.664   4.139
25530W        W93948   1.974  37.077  12.397
25531W        W93949  22.696  40.509  11.443
25532W        W93950  42.937  36.546   2.751
25533W        W93951   7.842  24.568  11.951
25534W        W93952  29.020  28.537   0.308
25535W        W93953  12.614  14.288   0.850
25536W        W93954   0.267  35.059  14.914
25537W        W93955  40.492   1.372   4.617
25538W        W93956  27.603  44.502   3.238
25539W        W93957  22.022  37.998   2.812
25540W        W93958   5.202  34.389  14.452
25541W        W93959  37.832  23.214   4.179
25542W        W93960  23.571  38.455  12.074
25543W        W93961  40.335  14.600   4.175
25544W        W93962  42.447  26.512   3.766
25545W        W93963  40.901  15.178  12.423
25546W        W93964   7.289  23.124  13.369
25547W        W93965   3.922  12.653   1.801
25548W        W93966  26.522  44.772  14.901
25549W        W93967  26.082  36.549   4.797
25550W        W93968  19.247  24.703   1.895
25551W        W93969  38.898  33.051  14.779
25552W        W93970  26.185   2.888  11.113
25553W        W93971  29.014  10.682   4.133
25554W        W93972  28.094  39.364  11.115
25555W        W93973  10.747  38.444   0.923
25556W        W93974   8.298   0.973   1.403
25557W        W93975  17.607  24.208  11.521
25558W        W93976  32.627  30.019   3.818
25559W        W93977  26.114   0.772   2.874
25560W        W93978  10.245  32.890   0.874
25561W        W93979  18.277  22.529  11.522
25562W        W93980  37.930  16.685  10.436
25563W        W93981   8.263  34.893  12.398
25564W        W93982  41.024  20.761  10.520
25565W        W93983  20.268  34.928   1.410
25566W        W93984  22.176  35.457  10.503
25567W        W93985  35.972   0.387   4.656
25568W        W93986  17.159   8.194   3.634
25569W        W93987  41.369  38.536  12.578
25570W        W93988   3.448  40.316  12.344
25571W        W93989  43.944  27.181   4.791
25572W        W93990  24.096  24.534   0.747
25573W        W93991   2.306   7.341  14.457
25574W        W93992  43.500  19.613  14.820
25575W        W93993  11.710  10.140   2.206
25576W        W93994  40.030   3.312  14.790
25577W        W93995  20.256  17.185   3.773
25578W        W93996  23.552  20.246  11.964
25579W        W93997  20.099  28.139   0.857
25580W        W93998  25.033   8.739  10.540
25581W        W93999   1.912  26.132   3.653
25582W        W94000  27.166   6.898   3.368
25583W        W94001  20.768  16.806  11.039
25584W        W94002  32.591  42.897   2.306
25585W        W94003  30.445  31.497   0.386
25586W        W94004  34.909  39.477   2.346
25587W        W94005  36.940  31.470   2.190
25588W        W94006  30.933  15.192   3.254
25589W        W94007  43.438  24.214  14.424
25590W        W94008  34.485   0.251   2.396
25591W        W94009  43.811  44.913   1.444
25592W        W94010  28.186   9.263   3.710
25593W        W94011  35.954   2.316  14.308
25594W        W94012  10.768   8.725  14.777
25595W        W94013  27.996   6.893   5.622
25596W        W94014   9.808  11.197  14.797
25597W        W94015  34.969  21.042   5.084
25598W        W94016  22.728  20.729   4.158
25599W        W94017  44.874   7.372  12.968
25600W        W94018  11.353  25.201   1.230
25601W        W94019  26.978   3.425   3.308
25602W        W94020  28.029  37.874   2.683
25603W        W94021   9.820   3.735  12.397
25604W        W94022  40.928  22.724   2.187
25605W        W94023  18.100  26.664   2.697
25606W        W94024  42.340   5.305  12.398
25607W        W94025  11.312  30.043   4.721
25608W        W94026  20.733  34.116  10.925
25609W        W94027   0.847  26.196  11.598
25610W        W94028  29.166  12.156  11.020
25611W        W94029  38.491  14.680  12.015
25612W        W94030  39.555  25.582  13.445
25613W        W94031  44.400   1.753   0.401
25614W        W94032  19.652  27.186   3.337
25615W        W94033  30.054  19.621   2.813
25616W        W94034  17.305  30.600   4.126
25617W        W94035  25.503   7.172   1.392
25618W        W94036  33.612   6.181   3.239
25619W        W94037  37.944  40.526   1.708
25620W        W94038  20.224  19.670  12.542
25621W        W94039   4.328   1.796  13.029
25622W        W94040  17.567   1.761   4.814
25623W        W94041  13.173   6.402   2.218
25624W        W94042  22.086  25.481  10.630
25625W        W94043  16.771  21.737  12.375
25626W        W94044   8.680  38.466   3.846
25627W        W94045  34.597   0.268  11.454
25628W        W94046  26.509   5.428  14.274
25629W        W94047  33.089  33.073  14.842
25630W        W94048  17.119  17.600  13.011
25631W        W94049  42.332   4.228  10.944
25632W        W94050   5.830  22.663   1.368
25633W        W94051  26.106  22.574   0.772
25634W        W94052  35.988  34.561   2.668
25635W        W94053  31.444  27.115  12.366
25636W        W94054  12.206  12.711   2.830
25637W        W94055  33.937   5.803   1.287
25638W        W94056  38.441  24.675  14.422
25639W        W94057  12.330   8.847   1.776
25640W        W94058  20.166   8.742   3.803
25641W        W94059   7.819  27.193  13.925
25642W        W94060   2.766  28.930   0.930
25643W        W94061  12.681  18.768   4.270
25644W        W94062  35.900   8.292  11.944
25645W        W94063  10.303   3.807  13.032
25646W        W94064  28.183  24.001   4.622
25647W        W94065  16.125   3.386  13.340
25648W        W94066  14.611   2.298   2.821
25649W        W94067  16.100  11.237  12.059
25650W        W94068  22.629   1.327  10.997
25651W        W94069  39.028  37.339   2.862
25652W        W94070  19.542  21.259  10.987
25653W        W94071  43.958  11.245   0.893
25654W        W94072   6.791  13.615   2.813
25655W        W94073  13.135  18.621  11.438
25656W        W94074  42.832  14.657   0.842
25657W        W94075   0.394  22.175   0.779
25658W        W94076  43.932   4.938   3.649
25659W        W94077  36.846  44.368   2.265
25660W        W94078  44.401  15.612   4.201
25661W        W94079   5.302  35.988  13.446
25662W        W94080  13.260  14.760   4.646
25663W        W94081   7.891   7.269   4.792
25664W        W94082  36.026  15.301  11.072
25665W        W94083  37.991   0.811   4.624
25666W        W94084  21.535  29.560  14.027
25667W        W94085   9.182  42.386   0.312
25668W        W94086  10.730  31.128  10.435
25669W        W94087  26.690   6.736   3.632
25670W        W94088  23.581  41.827   1.767
25671W        W94089  37.939  34.032   4.318
25672W        W94090  15.648  25.476   2.363
25673W        W94091  11.731  10.791   3.254
25674W        W94092   8.733  14.251  11.478
25675W        W94093  12.227   5.216  14.874
25676W        W94094   7.860  10.374   2.292
25677W        W94095  16.123   6.795  11.388
25678W        W94096  27.591   3.764  11.485
25679W        W94097  17.736  16.079   4.196
25680W        W94098  43.400   8.834  11.417
25681W        W94099  38.957   7.326   2.334
25682W        W94100  22.504   9.851   1.296
25683W        W94101   3.845  23.188  10.587
25684W        W94102  13.108   0.342  10.498
25685W        W94103  32.082  24.042   1.308
25686W        W94104  44.811   6.293   0.750
25687W        W94105  41.296   5.389   4.715
25688W        W94106  29.131  32.490   4.605
25689W        W94107   6.759  22.221  14.297
25690W        W94108  28.974  35.420  14.856
25691W        W94109   3.720   8.752  14.333
25692W        W94110   1.952  31.048   4.179
25693W        W94111  40.034  14.158  12.579
25694W        W94112  16.801  10.343  11.523
25695W        W94113  14.201  41.458   3.331
25696W        W94114  31.469  10.370  11.554
25697W        W94115  12.779  19.049  14.905
25698W        W94116  31.944  25.547  13.343
25699W        W94117   7.336  34.548  13.424
25700W        W94118  32.589  36.074   2.320
25701W        W94119  21.136  37.832  14.400
25702W        W94120  36.393  24.532   4.771
25703W        W94121  38.884   5.304   3.831
25704W        W94122  14.189   8.896  13.973
25705W        W94123   6.388  29.433  11.944
25706W        W94124  37.553  20.091   2.357
25707W        W94125  33.886   9.332   0.367
25708W        W94126   3.818  17.247   0.370
25709W        W94127  20.212  14.615  14.484
25710W        W94128  23.199  16.701  10.487
25711W        W94129  37.514  34.484  13.865
25712W        W94130  14.667  35.085  11.401
25713W        W94131   7.309  33.404   0.819
25714W        W94132  35.461  16.205  11.444
25715W        W94133  31.451  28.585  11.472
25716W        W94134  42.527  18.072  14.395
25717W        W94135   0.815  14.105   1.215
25718W        W94136  20.073  35.079  10.905
25719W        W94137  24.684  36.469   3.755
25720W        W94138  10.310  41.977  14.990
25721W        W94139  31.906  16.766   4.352
25722W        W94140  22.209  19.271   2.213
25723W        W94141  25.599   4.299   0.893
25724W        W94142   4.209   6.817   4.798
25725W        W94143  28.113  22.024  12.389
25726W        W94144  37.558   5.811  10.887
25727W        W94145  41.937   3.796   3.814
25728W        W94146  43.468  22.225  13.379
25729W        W94147  34.025  25.185  11.469
25730W        W94148  38.437   3.954  14.507
25731W        W94149  11.673   7.195  14.457
25732W        W94150  29.093  36.355   3.386
25733W        W94151  32.470  20.206   1.830
25734W        W94152  19.073  24.063   5.625
25735W        W94153  39.853  12.259   4.353
25736W        W94154   9.247  27.033  11.598
25737W        W94155  41.532  39.335   2.258
25738W        W94156  42.937  44.935   4.318
25739W        W94157  23.030  12.254   1.774
25740W        W94158  19.745   0.864   3.235
25741W        W94159  29.661  32.477  12.352
25742W        W94160  28.588   1.397   2.846
25743W        W94161  29.655   4.919   3.687
25744W        W94162  22.222  41.839  10.565
25745W        W94163  37.530  29.619   3.305
25746W        W94164  17.633  34.533   0.898
25747W        W94165  29.631  18.086  14.333
25748W        W94166  31.492  35.878  13.846
25749W        W94167  38.337  29.978  11.928
25750W        W94168   8.161  17.627  11.478
25751W        W94169  38.362   6.898   1.777
25752W        W94170  19.695  25.501   2.317
25753W        W94171  37.088  24.645   0.857
25754W        W94172  30.984   3.900   4.214
25755W        W94173  29.593   3.369   4.657
25756W        W94174  25.041  11.715  13.477
25757W        W94175  40.453  10.180   5.203
25758W        W94176  33.504  18.097  14.798
25759W        W94177  38.378  15.123   4.347
25760W        W94178   6.737  21.156   0.469
25761W        W94179  29.034  14.176   4.125
25762W        W94180  38.871  36.998   1.422
25763W        W94181   3.367   9.350   1.356
25764W        W94182  36.023  24.615  11.870
25765W        W94183   0.365  10.798  13.509
25766W        W94184  27.175  32.057   0.346
25767W        W94185  32.937  16.650  11.858
25768W        W94186  40.904  43.325  14.850
25769W        W94187  41.298  36.932  14.758
25770W        W94188  38.994  21.253   1.377
25771W        W94189  30.497  30.933  10.998
25772W        W94190  34.109  17.562  12.012
25773W        W94191   3.802  22.718   2.250
25774W        W94192  24.719  26.080  13.063
25775W        W94193  24.576  13.316  12.356
25776W        W94194  14.329  42.807  11.416
25777W        W94195   2.387  36.995   2.265
25778W        W94196   2.870  21.108  11.567
25779W        W94197   0.304  14.232   4.692
25780W        W94198  22.729  43.314   3.308
25781W        W94199  11.237  41.017   2.818
25782W        W94200   2.415  12.328   0.413
25783W        W94201  33.969  30.034  14.842
25784W        W94202  24.523  33.441   0.272
25785W        W94203  25.509  27.458   3.215
25786W        W94204  42.902  24.992   1.322
25787W        W94205   2.852   4.416  14.847
25788W        W94206  33.614  10.363  11.991
25789W        W94207  28.027  40.490  14.004
25790W        W94208  19.195   4.767  14.917
25791W        W94209  17.098  15.664   2.376
25792W        W94210  32.038  11.300   4.270
25793W        W94211  37.450  37.520  10.996
25794W        W94212  31.508   8.761  12.903
25795W        W94213  16.250   8.821  14.513
25796W        W94214  31.102  24.983  12.923
25797W        W94215  23.988  32.030   4.205
25798W        W94216  44.828  44.407  13.450
25799W        W94217  24.188   1.776   2.415
25800W        W94218  20.048  18.742  11.543
25801W        W94219   8.328  20.111   3.654
25802W        W94220  42.373  24.637   3.859
25803W        W94221  32.071  39.020  13.398
25804W        W94222  15.711   9.720  12.385
25805W        W94223  25.603  41.028   1.733
25806W        W94224   2.884  22.241  12.826
25807W        W94225  10.354  22.235  14.906
25808W        W94226  38.916  36.401  12.341
25809W        W94227  34.089   2.244   4.116
25810W        W94228  34.890   3.891  13.438
25811W        W94229   5.382  44.272  13.448
25812W        W94230  44.973   8.708  14.791
25813W        W94231  19.536  30.150  11.535
25814W        W94232  13.331  43.867  12.087
25815W        W94233  12.788   4.331  11.500
25816W        W94234  21.056  13.325  12.407
25817W        W94235   5.221  23.006  13.311
25818W        W94236  24.501  17.150   2.891
25819W        W94237  18.270   0.488  14.383
25820W        W94238  23.143  35.452  14.818
25821W        W94239  36.950   9.171   3.221
25822W        W94240  24.521   4.725  11.013
25823W        W94241   7.257  31.489   0.846
25824W        W94242  20.727  31.950  12.913
25825W        W94243  24.137  25.693   4.719
25826W        W94244  14.637  32.583   4.729
25827W        W94245  25.647  19.205  10.404
25828W        W94246  24.486   8.230  13.887
25829W        W94247  20.050  18.639   0.946
25830W        W94248   9.275  31.483   4.670
25831W        W94249  24.180  19.113   0.444
25832W        W94250  34.076  16.106   1.343
25833W        W94251  20.069  26.961  12.470
25834W        W94252   9.837  24.135   4.135
25835W        W94253  35.376   5.385   2.891
25836W        W94254   3.383  41.363  14.810
25837W        W94255  26.061  19.542   1.328
25838W        W94256  41.511   0.467   0.733
25839W        W94257  17.623  40.999  13.039
25840W        W94258  17.616  34.001   2.388
25841W        W94259  31.421  15.687   4.129
25842W        W94260   0.322  34.477  12.085
25843W        W94261  24.205   1.469  11.382
25844W        W94262  13.195  44.862   1.221
25845W        W94263  19.040  24.662   4.335
25846W        W94264   8.715  28.087  13.813
25847W        W94265   6.701   6.254   4.339
25848W        W94266  31.007  16.174  10.499
25849W        W94267  22.044   1.926   2.345
25850W        W94268  18.590  23.729   1.797
25851W        W94269  17.188  21.251  14.349
25852W        W94270  22.542  23.721  14.339
25853W        W94271  26.102  33.062   4.290
25854W        W94272  37.913   8.337   2.248
25855W        W94273  18.772   1.792   0.859
25856W        W94274   4.424   3.378  14.869
25857W        W94275  17.632  39.319  14.318
25858W        W94276  26.025  35.067   1.759
25859W        W94277  21.705  39.542  12.497
25860W        W94278  31.419  24.220   4.332
25861W        W94279  16.095  23.134  12.942
25862W        W94280  12.678   8.783   4.733
25863W        W94281  14.675  42.811   4.128
25864W        W94282  43.418   0.908   0.791
25865W        W94283  33.127  23.603  13.496
25866W        W94284  25.489  41.381  12.401
25867W        W94285  11.844  32.421  14.309
25868W        W94286  15.646  22.554   0.405
25869W        W94287  20.262  21.076   1.378
25870W        W94288  38.970  33.545  14.906
25871W        W94289  33.043  33.886  10.440
25872W        W94290  25.485   5.835   0.956
25873W        W94291  39.533  13.772   1.735
25874W        W94292   9.274  24.198  14.359
25875W        W94293  31.461  38.006  13.435
25876W        W94294  21.155  10.202  14.492
25877W        W94295  17.664  36.949  12.996
25878W        W94296  28.972   6.892   2.838
25879W        W94297   2.877  20.168   3.314
25880W        W94298  27.136  19.697   3.322
25881W        W94299  21.241  43.002  12.045
25882W        W94300  20.550  22.652  13.894
25883W        W94301  26.571   9.860   2.705
25884W        W94302  29.617  39.042  13.992
25885W        W94303  39.362  29.444   2.347
25886W        W94304   3.820  38.569  11.455
25887W        W94305  40.496  26.690   3.150
25888W        W94306  23.133  14.328   3.354
25889W        W94307  29.939  33.617  11.883
25890W        W94308  40.980  36.390   0.748
25891W        W94309  19.211  44.905  10.963
25892W        W94310  32.630  14.830   2.666
25893W        W94311   0.766   8.847   5.286
25894W        W94312   4.292  29.521   1.849
25895W        W94313  39.520  14.660   3.735
25896W        W94314  28.547  14.211  12.877
25897W        W94315  43.002  15.187  13.370
25898W        W94316   6.703   1.905  11.401
25899W        W94317  42.836   8.894  12.529
25900W        W94318  42.340  24.613  12.444
25901W        W94319   6.217  22.561  10.004
25902W        W94320  15.698  33.471   2.706
25903W        W94321  31.605  17.638  11.109
25904W        W94322  17.077  44.461   2.236
25905W        W94323  27.646  22.688  11.414
25906W        W94324  16.674  34.577  10.501
25907W        W94325   5.332  35.017   4.819
25908W        W94326  21.704   0.971  13.355
25909W        W94327  14.288  13.155   4.834
25910W        W94328  13.713  19.198   3.866
25911W        W94329  35.875  23.014  14.997
25912W        W94330  36.917  27.076   2.392
25913W        W94331  26.488   8.895   3.831
25914W        W94332  35.974  33.601   2.404
25915W        W94333  11.137   8.869   4.269
25916W        W94334   9.248  16.197   2.667
25917W        W94335  26.658   6.224  10.475
25918W        W94336   7.701  10.851   4.687
25919W        W94337  29.025  20.687   3.686
25920W        W94338  29.425  20.681   1.435
25921W        W94339   7.247   3.246   1.419
25922W        W94340  22.629  26.041   2.282
25923W        W94341   2.827  34.945  13.330
25924W        W94342  33.384  40.522   2.678
25925W        W94343  24.011  20.172   3.247
25926W        W94344  30.455  15.607   3.843
25927W        W94345  31.414  36.575  13.318
25928W        W94346   9.393  18.622   4.648
25929W        W94347  35.398  34.979   4.289
25930W        W94348  44.902  17.307  13.483
25931W        W94349  42.835  13.764   0.899
25932W        W94350   3.769  23.128   0.420
25933W        W94351  32.020  38.064   0.354
25934W        W94352  43.010  29.588   1.728
25935W        W94353  16.797  40.449   3.303
25936W        W94354   7.193   8.748  14.425
25937W        W94355  23.694  23.984  12.835
25938W        W94356   5.418  14.742   4.354
25939W        W94357  15.676   4.309   2.277
25940W        W94358  29.084  21.177   0.470
25941W        W94359   4.244  41.298   4.599
25942W        W94360  31.545  10.664  13.940
25943W        W94361   8.194  31.455   4.249
25944W        W94362  11.706   4.233  12.854
25945W        W94363  44.267  12.811   9.618
25946W        W94364  18.251  15.099  11.048
25947W        W94365  35.988   0.925   4.317
25948W        W94366  12.746  18.629  12.834
25949W        W94367  39.042   2.459  13.358
25950W        W94368   9.807   6.412  14.306
25951W        W94369  29.478  36.930   0.930
25952W        W94370  11.169  29.158  10.992
25953W        W94371   8.693  12.122   2.371
25954W        W94372  24.229  42.020   2.187
25955W        W94373   4.309  37.021  12.468
25956W        W94374  16.606  36.025  11.386
25957W        W94375   7.708  12.624  12.502
25958W        W94376  24.652  16.662  11.415
25959W        W94377   9.843  10.283  11.073
25960W        W94378  37.450  27.466  11.024
25961W        W94379   5.423  10.346   2.810
25962W        W94380  40.034  26.170  11.031
25963W        W94381   0.450  35.389   0.355
25964W        W94382  39.458  16.608   0.860
25965W        W94383  41.441  44.925   0.318
25966W        W94384  13.629  21.105   3.311
25967W        W94385  35.109  33.908   3.197
25968W        W94386  44.966  38.960   3.701
25969W        W94387  33.615  41.970   4.763
25970W        W94388  34.574   4.388  14.398
25971W        W94389   5.689  21.188  12.012
25972W        W94390  10.190   4.709  12.079
25973W        W94391  18.251   2.772  10.464
25974W        W94392  25.619  18.278  11.986
25975W        W94393  13.616  26.094   1.807
25976W        W94394  24.023   2.811  11.967
25977W        W94395  17.636  11.212   3.341
25978W        W94396  22.634  21.255  11.522
25979W        W94397  37.890  34.117  11.567
25980W        W94398   1.400  14.763   2.836
25981W        W94399  19.666  32.129   2.188
25982W        W94400   2.763  27.547   4.769
25983W        W94401   2.829  28.173  13.812
25984W        W94402  38.953  15.134   3.160
25985W        W94403  27.980  18.749  14.278
25986W        W94404  30.485  25.572  13.982
25987W        W94405  17.664  25.617  14.420
25988W        W94406   0.914  37.929  12.498
25989W        W94407  31.427  31.599   4.190
25990W        W94408  25.149  23.569  14.444
25991W        W94409  16.746  15.577   2.207
25992W        W94410  10.649  41.432   0.447
25993W        W94411   7.893  30.949  10.942
25994W        W94412  23.618  38.825  12.563
25995W        W94413  25.506  38.059   1.273
25996W        W94414   6.183  28.454  10.446
25997W        W94415  40.497  41.354   3.242
25998W        W94416  22.150  40.969  13.948
25999W        W94417  13.778   7.209   3.231
26000W        W94418  27.104  32.551   1.236
26001W        W94419  10.792  28.122  12.490
26002W        W94420  39.342  38.469  14.854
26003W        W94421   5.878  13.231  12.040
26004W        W94422  36.386  35.012   2.767
26005W        W94423  42.893  33.549   1.859
26006W        W94424  20.555  44.344   1.213
26007W        W94425   9.651  22.139  10.956
26008W        W94426  27.124  31.459  10.597
26009W        W94427   7.894  11.746   3.676
26010W        W94428  29.466  28.066   0.803
26011W        W94429  25.160  42.814   3.799
26012W        W94430  44.388  32.034   3.203
26013W        W94431  18.130   5.849  11.542
26014W        W94432  31.495  30.633   0.813
26015W        W94433  13.221  17.222   4.132
26016W        W94434  13.692   7.763  12.965
26017W        W94435  35.473   7.410   1.819
26018W        W94436  34.574   7.873  10.542
26019W        W94437  28.661  26.184   4.721
26020W        W94438  14.114  30.575  13.942
26021W        W94439   9.802  43.975   1.278
26022W        W94440  16.203  44.848  13.894
26023W        W94441  40.381   9.741  11.437
26024W        W94442  23.612  16.781  10.483
26025W        W94443   8.194  42.287  11.988
26026W        W94444  10.332  33.447  12.925
26027W        W94445  40.361  19.558   2.872
26028W        W94446  33.074  25.135  11.422
26029W        W94447  35.488  30.048  13.492
26030W        W94448  14.618  14.773  13.453
26031W        W94449  12.121   8.279  11.011
26032W        W94450  24.659  30.529   1.395
26033W        W94451  20.167  21.677  11.958
26034W        W94452  38.891  40.329  13.805
26035W        W94453  14.684  27.970   3.256
26036W        W94454  29.656  18.097  11.970
26037W        W94455   2.871  36.368   1.345
26038W        W94456  44.423  22.628  13.039
26039W        W94457  35.523   3.376  10.948
26040W        W94458  33.522  31.617   2.681
26041W        W94459  38.068  13.694  12.953
26042W        W94460   7.189  42.793  12.005
26043W        W94461   0.973   7.745   3.311
26044W        W94462  14.602  10.645  13.434
26045W        W94463  14.752  42.462   4.250
26046W        W94464  18.557   7.821  14.783
26047W        W94465  38.998  14.312   1.303
26048W        W94466  29.020  16.702   3.146
26049W        W94467  21.675   2.933   2.403
26050W        W94468  26.109  36.563   2.679
26051W        W94469  13.765  14.214   1.766
26052W        W94470   8.322   5.303   4.286
26053W        W94471  44.862  42.370   3.386
26054W        W94472  29.134  26.076  13.059
26055W        W94473  33.409  44.847  11.992
26056W        W94474  43.857   9.322  11.472
26057W        W94475  29.115  13.331   4.282
26058W        W94476  39.973  13.608  11.056
26059W        W94477  28.503  43.837   0.410
26060W        W94478  23.711  40.849  11.027
26061W        W94479   9.758  17.151   3.763
26062W        W94480  12.675  39.468   0.860
26063W        W94481  12.728   2.796  13.817
26064W        W94482  12.223   3.430   1.754
26065W        W94483  27.500  20.609   0.953
26066W        W94484  31.406  41.348  13.826
26067W        W94485  17.069  35.080   2.749
26068W        W94486  13.109  42.880  12.544
26069W        W94487   1.740   8.839   1.402
26070W        W94488   9.201  12.818   0.790
26071W        W94489  43.829  10.790   0.380
26072W        W94490   4.327   8.704   3.233
26073W        W94491  22.575   3.913   3.762
26074W        W94492  40.003  40.941   0.857
26075W        W94493  15.792  18.238  11.090
26076W        W94494  27.567  27.053   0.805
26077W        W94495  36.941  19.675  12.853
26078W        W94496  11.770  44.417  10.532
26079W        W94497  43.380  42.415   4.266
26080W        W94498  28.488  16.208  14.380
26081W        W94499  21.706   9.298  12.393
26082W        W94500   7.354  17.595  13.315
26083W        W94501  31.445   6.714   1.766
26084W        W94502  39.498   6.863  10.501
26085W        W94503  12.335   8.790  10.519
26086W        W94504  10.221  16.277   3.815
26087W        W94505   0.328  25.670  13.368
26088W        W94506   7.904   5.256  11.951
26089W        W94507  23.145  18.614   0.414
26090W        W94508  33.600  31.420  11.012
26091W        W94509  25.023  36.560   4.171
26092W        W94510  33.482  44.264  11.904
26093W        W94511  18.703  19.045  12.449
26094W        W94512  24.052  42.823   4.285
26095W        W94513  35.984   9.669   3.632
26096W        W94514  30.045  35.965   2.252
26097W        W94515  19.767   6.392   2.312
26098W        W94516  34.574   7.397  13.857
26099W        W94517  42.280  23.162   1.424
26100W        W94518  42.375  20.077  12.490
26101W        W94519  38.360  23.109   1.798
26102W        W94520  41.474  15.148  12.849
26103W        W94521  38.910   3.932  12.076
26104W        W94522  15.277   4.243  10.495
26105W        W94523   6.210  22.191  13.344
26106W        W94524   5.356  36.059  11.482
26107W        W94525  38.335  14.830   0.344
26108W        W94526  23.617  25.983   0.377
26109W        W94527  21.640  24.646  14.846
26110W        W94528  23.054  19.186   1.451
26111W        W94529  44.340   2.927  10.909
26112W        W94530  29.620  42.803  11.099
26113W        W94531  39.431  21.545  13.061
26114W        W94532  22.522  20.530   1.442
26115W        W94533  17.213  37.416   4.240
26116W        W94534  20.052  13.258   3.728
26117W        W94535   8.390  15.752   2.264
26118W        W94536  20.537  25.683  10.149
26119W        W94537  12.690  21.169   1.877
26120W        W94538  13.811  33.478  11.114
26121W        W94539  13.735   9.816   2.234
26122W        W94540   4.235  40.841  13.450
26123W        W94541  40.445  34.988   1.377
26124W        W94542   8.264   2.420  12.524
26125W        W94543  21.748  37.523   4.726
26126W        W94544  15.215   1.338  11.419
26127W        W94545  22.218  33.468  12.993
26128W        W94546  28.592  23.705   3.803
26129W        W94547  34.959  41.965  11.553
26130W        W94548  35.891  25.154   2.711
26131W        W94549  37.977  20.219  12.362
26132W        W94550  24.653   1.833  11.046
26133W        W94551  27.686   4.900   1.869
26134W        W94552  31.589  11.790   0.767
26135W        W94553   8.241  39.818   0.825
26136W        W94554  40.800  39.405  11.108
26137W        W94555  20.555  27.951   0.410
26138W        W94556  11.360  18.077   4.687
26139W        W94557  31.540  17.689   3.642
26140W        W94558  24.505  27.513   3.816
26141W        W94559  38.445  41.901   2.764
26142W        W94560   4.892   9.840   2.874
26143W        W94561   1.894   9.257   3.796
26144W        W94562  22.670   9.777   0.782
26145W        W94563  11.764   2.926  14.000
26146W        W94564  39.032   9.376   0.782
26147W        W94565   6.342  35.916  12.833
26148W        W94566   6.824  10.686  11.084
26149W        W94567  17.655  24.561  12.413
26150W        W94568  44.781  30.101   3.218
26151W        W94569  22.518   8.237  12.948
26152W        W94570  27.068  19.134  14.444
26153W        W94571  26.692  41.508   1.314
26154W        W94572  39.868  30.035   3.335
26155W        W94573  27.585   1.920   4.696
26156W        W94574  22.526  20.209  13.457
26157W        W94575  44.936  43.276   1.756
26158W        W94576  19.139  32.599  12.481
26159W        W94577  37.514  19.185  14.984
26160W        W94578   9.171   5.199  13.365
26161W        W94579   1.408  29.637   0.428
26162W        W94580  37.483  23.699   2.189
26163W        W94581  22.996  24.038  13.881
26164W        W94582   0.949   1.736   3.148
26165W        W94583   8.233  39.851   2.859
26166W        W94584  22.088  17.301  12.068
26167W        W94585  37.076  22.084   4.202
26168W        W94586  15.175  18.182   4.287
26169W        W94587   6.264  34.599   3.757
26170W        W94588  28.652  30.522  14.507
26171W        W94589  42.292  37.988   0.850
26172W        W94590  37.941  16.252  13.017
26173W        W94591  18.670  40.867  14.926
26174W        W94592   7.711   2.267   4.781
26175W        W94593  29.587   0.283  13.007
26176W        W94594  31.642  19.750   4.719
26177W        W94595   8.168  31.407   2.370
26178W        W94596  32.921  14.809  14.311
26179W        W94597  40.937  22.521  13.389
26180W        W94598  17.694  17.625  14.023
26181W        W94599  32.919  30.133   3.305
26182W        W94600  17.119  38.328   1.423
26183W        W94601  34.959  12.299   1.434
26184W        W94602  38.992  29.641  13.457
26185W        W94603  39.372  13.642   1.340
26186W        W94604  21.529  28.933  13.977
26187W        W94605  10.752  20.213   0.881
26188W        W94606  40.800  36.505  10.495
26189W        W94607  44.890  18.122  12.390
26190W        W94608  20.157   2.738   2.713
26191W        W94609  34.490  25.604   3.331
26192W        W94610  44.353  40.846  12.994
26193W        W94611  18.086   0.819   2.398
26194W        W94612  26.087   4.836   1.239
26195W        W94613   3.360  28.649   3.684
26196W        W94614  11.858  44.989   0.423
26197W        W94615  37.983   5.303   4.315
26198W        W94616  27.643  27.946  11.098
26199W        W94617   1.351  32.137   3.740
26200W        W94618  10.199  17.790   0.885
26201W        W94619  40.415  23.032   1.896
26202W        W94620   0.771  23.009   1.778
26203W        W94621  11.345  32.042  12.958
26204W        W94622  34.603  30.459  10.586
26205W        W94623   2.286  10.784  11.991
26206W        W94624  22.693  27.577   3.759
26207W        W94625  35.528   7.188  13.419
26208W        W94626  10.767  41.005   4.773
26209W        W94627  43.776   9.215  11.004
26210W        W94628  27.460  13.173   0.433
26211W        W94629   1.298  36.928  13.437
26212W        W94630   1.240  19.599   9.508
26213W        W94631  11.154  31.629   0.901
26214W        W94632  22.734  27.960   2.415
26215W        W94633   6.860  39.046   4.647
26216W        W94634  19.695   5.762  13.986
26217W        W94635  38.063  35.953  13.456
26218W        W94636  41.299  23.123  11.864
26219W        W94637   3.810  43.955   4.834
26220W        W94638  24.133  34.928  10.597
26221W        W94639   4.794  16.078   2.287
26222W        W94640  27.531  24.146  10.527
26223W        W94641   3.437   3.360   4.262
26224W        W94642  31.936   7.170   0.366
26225W        W94643  26.151  23.016  13.929
26226W        W94644  29.516  30.537   1.251
26227W        W94645  24.005  27.569  14.992
26228W        W94646  34.514  30.644  10.912
26229W        W94647  15.659  11.146   4.287
26230W        W94648  16.304  32.468  14.784
26231W        W94649   2.347  24.553   1.766
26232W        W94650  25.472  26.625  10.516
26233W        W94651   5.422  12.713   1.883
26234W        W94652  14.798  43.470  12.027
26235W        W94653  16.653  29.458   3.817
26236W        W94654  36.482   9.345   2.848
26237W        W94655  10.719  36.973   1.801
26238W        W94656  28.436  11.745   2.215
26239W        W94657  42.469  18.088   4.634
26240W        W94658  35.912  36.462   0.948
26241W        W94659  17.575   1.356   0.814
26242W        W94660  33.447  34.389  12.059
26243W        W94661  38.948   9.779   0.393
26244W        W94662  24.978  43.375   2.202
26245W        W94663  21.111  11.176   0.281
26246W        W94664  30.555  40.000  11.954
26247W        W94665  10.185  34.927   4.324
26248W        W94666  43.015   1.394  12.883
26249W        W94667  35.422  44.983   2.182
26250W        W94668   9.368  15.769  10.068
26251W        W94669  10.257   4.743   0.805
26252W        W94670  14.688   4.266  13.059
26253W        W94671  19.125  34.400   4.122
26254W        W94672  11.129  20.092   2.402
26255W        W94673  44.472  10.208  13.021
26256W        W94674  34.870  17.598   1.298
26257W        W94675   4.870  13.686   2.874
26258W        W94676   0.364   5.250   4.142
26259W        W94677  27.962  38.072   4.627
26260W        W94678  14.301  13.198   0.883
26261W        W94679  36.952  38.507   3.365
26262W        W94680  33.061   8.295   4.830
26263W        W94681  25.553  13.823   3.629
26264W        W94682  32.561   9.261   1.700
26265W        W94683   3.438  43.968   4.681
26266W        W94684   4.936   2.251  14.411
26267W        W94685   4.324  23.703  11.940
26268W        W94686  18.689  43.788   0.830
26269W        W94687  44.793   0.376  13.844
26270W        W94688  16.185  42.002  12.959
26271W        W94689  12.813  16.609   0.267
26272W        W94690  20.639  35.552   0.890
26273W        W94691  36.081   5.927   4.679
26274W        W94692  23.996  17.601   1.878
26275W        W94693  19.226  21.563   1.424
26276W        W94694  37.960  31.490  12.941
26277W        W94695  24.072  33.581  14.941
26278W        W94696   3.432  18.786  11.925
26279W        W94697  18.745  43.830  12.843
26280W        W94698   0.989   1.407  10.919
26281W        W94699  23.647  19.660   2.295
26282W        W94700  34.866   0.769   2.310
26283W        W94701  41.416  10.733  12.017
26284W        W94702  27.029  30.138  11.419
26285W        W94703  24.122  10.212  13.041
26286W        W94704   5.825  40.964   1.364
26287W        W94705  12.683  14.329   1.374
26288W        W94706  37.577  30.118   4.655
26289W        W94707   3.771  34.063   4.125
26290W        W94708  26.589   8.825   4.707
26291W        W94709  42.479   9.299  10.461
26292W        W94710  41.987  38.558   4.812
26293W        W94711   1.282  19.665   0.394
26294W        W94712   0.428  38.386  11.400
26295W        W94713   4.824   5.896   3.187
26296W        W94714  22.530  20.212  14.416
26297W        W94715  16.576  27.126   1.385
26298W        W94716  43.833  42.989   5.138
26299W        W94717  41.871  44.397  12.046
26300W        W94718  12.149  28.572  14.933
26301W        W94719  24.167  37.526  11.944
26302W        W94720  30.967   7.845  14.489
26303W        W94721   1.341  19.140   0.282
26304W        W94722   6.878   3.806  14.018
26305W        W94723   3.407   2.804  11.072
26306W        W94724  17.773  37.516  14.305
26307W        W94725  18.687  41.854   4.735
26308W        W94726  39.512  22.073   3.201
26309W        W94727  33.007   3.271   3.256
26310W        W94728  21.055  26.535   3.732
26311W        W94729  34.499  43.320  14.807
26312W        W94730  28.677  24.495   2.854
26313W        W94731  36.083  31.572  13.861
26314W        W94732   8.840  36.851  14.956
26315W        W94733  15.281  17.641  10.482
26316W        W94734  40.519  23.121   2.768
26317W        W94735   8.291  41.886  14.801
26318W        W94736  40.982  13.732   1.719
26319W        W94737  34.033   0.811  10.979
26320W        W94738   9.794  16.317  13.932
26321W        W94739  22.654  38.440  11.582
26322W        W94740   2.302  11.710   2.225
26323W        W94741  21.088  21.051  11.985
26324W        W94742  36.559  27.539   2.809
26325W        W94743  44.882  26.181  11.459
26326W        W94744  38.976  42.405   2.752
26327W        W94745  23.510  38.971   2.395
26328W        W94746  17.193  40.440  10.912
26329W        W94747  39.515   9.290   2.808
26330W        W94748  32.140  35.427   0.287
26331W        W94749  36.504  35.880  11.985
26332W        W94750  21.621   7.314   2.826
26333W        W94751  40.907  32.452  13.407
26334W        W94752   2.906  21.174  12.505
26335W        W94753   8.711   1.840   0.917
26336W        W94754  20.682   8.174   0.243
26337W        W94755  35.521   7.395   4.205
26338W        W94756  39.816   4.927   3.207
26339W        W94757  35.923  11.691  14.962
26340W        W94758  26.062  21.250  12.566
26341W        W94759  34.598  27.510  13.326
26342W        W94760  15.759   9.225   2.383
26343W        W94761  20.095   3.375   3.822
26344W        W94762  10.276  43.364   2.378
26345W        W94763   3.429  27.068  10.921
26346W        W94764   9.153  35.104  11.062
26347W        W94765   1.429  14.620  13.914
26348W        W94766  10.640  40.829   2.316
26349W        W94767  10.334  35.948  11.919
26350W        W94768   1.362  24.172  14.364
26351W        W94769  14.590  16.212   2.218
26352W        W94770  28.106   3.233   0.845
26353W        W94771   9.328  21.662  13.002
26354W        W94772   6.301  43.919  11.560
26355W        W94773  14.775  42.523  10.417
26356W        W94774  11.820  20.159  12.478
26357W        W94775  33.014  10.672   4.740
26358W        W94776  18.722   0.876  12.494
26359W        W94777  30.054  15.651   1.293
26360W        W94778  36.970  11.759   2.771
26361W        W94779  31.983   1.314  12.034
26362W        W94780  19.756   1.876  11.585
26363W        W94781  18.671  22.564  13.497
26364W        W94782   2.374  31.912   4.696
26365W        W94783  38.349  20.723   4.268
26366W        W94784  38.890   1.818   2.239
26367W        W94785   8.340   2.907  13.319
26368W        W94786  44.812   1.910   1.736
26369W        W94787  17.190   0.416  12.577
26370W        W94788   0.835  36.872  12.086
26371W        W94789  29.618  14.278   1.339
26372W        W94790  44.839  33.387  12.836
26373W        W94791   9.149  13.692  13.353
26374W        W94792   7.411   5.780  10.631
26375W        W94793   3.800  19.047   4.242
26376W        W94794   2.319  25.074  11.448
26377W        W94795  17.244  16.802   2.696
26378W        W94796   2.962  28.933  13.046
26379W        W94797  14.771   3.254   4.811
26380W        W94798   4.710  35.996  11.564
26381W        W94799  31.570  32.979   0.811
26382W        W94800  32.082  22.650   3.381
26383W        W94801  34.108  39.349   0.878
26384W        W94802  10.330  43.454   4.751
26385W        W94803   7.749  23.523  11.859
26386W        W94804  34.009  24.165  14.895
26387W        W94805  24.995  23.234  11.477
26388W        W94806  26.698   9.878  10.967
26389W        W94807   3.351  30.960   5.246
26390W        W94808  15.753  29.100  13.911
26391W        W94809  15.115  39.383   3.809
26392W        W94810  27.635  26.543   3.325
26393W        W94811  34.397  36.513  11.507
26394W        W94812  39.453  35.057  13.817
26395W        W94813   7.727   9.225   4.212
26396W        W94814  43.479  11.695  14.483
26397W        W94815   0.322   3.289  13.520
26398W        W94816  35.966  19.697   2.409
26399W        W94817  36.865  20.686   3.366
26400W        W94818  38.999  23.657   3.229
26401W        W94819  14.612   4.374  12.354
26402W        W94820   2.363  24.182  10.473
26403W        W94821   9.326  11.690  11.536
26404W        W94822   2.409  15.602  10.530
26405W        W94823   2.265  35.062   0.253
26406W        W94824  39.909  22.058   1.729
26407W        W94825   3.378  25.613  13.382
26408W        W94826  37.466  37.363   0.427
26409W        W94827  22.021  28.543   2.327
26410W        W94828  16.307  26.058  12.473
26411W        W94829  21.154  31.150  10.620
26412W        W94830   4.761  19.600   0.424
26413W        W94831  23.190  29.000  13.902
26414W        W94832  29.029  27.581  14.945
26415W        W94833   3.876  29.110  11.396
26416W        W94834  25.154  35.584  11.948
26417W        W94835  15.293  26.045   3.691
26418W        W94836  17.594   8.811  13.507
26419W        W94837  14.115  34.966   3.748
26420W        W94838   9.739   0.278  12.876
26421W        W94839   4.700   4.751  13.495
26422W        W94840  37.855   3.297   3.198
26423W        W94841  14.654  38.892   2.187
26424W        W94842  10.856  10.764   3.674
26425W        W94843  20.722   4.334  10.417
26426W        W94844  20.139   9.160  13.390
26427W        W94845  43.336   8.311  14.979
26428W        W94846  10.177  38.849  11.094
26429W        W94847  40.855  33.981   2.707
26430W        W94848  38.492   1.976   4.625
26431W        W94849   3.858  16.763  12.857
26432W        W94850  20.087  30.990  13.330
26433W        W94851   0.410   8.698  13.951
26434W        W94852  32.993   3.925   2.343
26435W        W94853  17.100  40.988   1.776
26436W        W94854  19.680  44.401  10.567
26437W        W94855  18.651  16.298  14.017
26438W        W94856   5.230  40.379  12.076
26439W        W94857  33.493  16.576  13.377
26440W        W94858  26.994  26.593   9.986
26441W        W94859  35.569  18.581   3.248
26442W        W94860  38.893  43.860  13.986
26443W        W94861  14.699  30.417   3.667
26444W        W94862  35.026   3.375   1.395
26445W        W94863  28.071   3.261   5.209
26446W        W94864   7.752   0.266  12.912
26447W        W94865  17.274   1.453  13.905
26448W        W94866  23.003  36.890  13.411
26449W        W94867  32.395   2.941  14.514
26450W        W94868  39.911   1.472   3.631
26451W        W94869  19.178   4.707  11.379
26452W        W94870   7.855  44.922   3.285
26453W        W94871  10.167  24.169   4.701
26454W        W94872  40.054   4.762  11.094
26455W        W94873  33.129  41.336  14.816
26456W        W94874  20.269  25.065  11.994
26457W        W94875  34.463  22.743  14.280
26458W        W94876   5.782  13.217  10.500
26459W        W94877  17.699   7.810   1.905
26460W        W94878  23.078  31.547  14.796
26461W        W94879  26.635  14.226  10.644
26462W        W94880  30.567  20.217   1.230
26463W        W94881  44.270  19.218   2.199
26464W        W94882  42.353  18.203   1.800
26465W        W94883   9.264  29.148   2.901
26466W        W94884   9.262  34.988   3.858
26467W        W94885  44.845  23.527  14.509
26468W        W94886  24.162   0.381  13.824
26469W        W94887  29.995  23.523   4.796
26470W        W94888  36.009   8.711  12.400
26471W        W94889  28.950  28.603  11.889
26472W        W94890  26.600  33.035  12.071
26473W        W94891  30.109  20.160  14.807
26474W        W94892   7.370   2.401   4.264
26475W        W94893   5.866  31.641  11.425
26476W        W94894  44.959  35.932  11.474
26477W        W94895  16.098  22.641   2.202
26478W        W94896  34.918  43.857   0.281
26479W        W94897   0.789  40.962  12.367
26480W        W94898  23.103  22.167   2.414
26481W        W94899  43.480  26.682   4.172
26482W        W94900  24.493  18.295   3.802
26483W        W94901  37.561  13.346  14.385
26484W        W94902  23.727  43.769   0.470
26485W        W94903  44.828   1.347   4.817
26486W        W94904  24.638   1.942   0.419
26487W        W94905  18.228  31.502   4.253
26488W        W94906   1.350   4.771  11.435
26489W        W94907  21.581  43.351  11.080
26490W        W94908  21.756  18.185  13.826
26491W        W94909  21.035  19.751  11.430
26492W        W94910  11.671  42.881   3.751
26493W        W94911  34.001   5.845  14.967
26494W        W94912  38.926   9.735  12.448
26495W        W94913  28.953  43.770   1.242
26496W        W94914  31.917   1.819   3.754
26497W        W94915   8.329  25.121  12.059
26498W        W94916   4.363  25.139   0.856
26499W        W94917  25.001  29.045   3.342
26500W        W94918  27.021  12.228   4.283
26501W        W94919   1.909  15.736  13.512
26502W        W94920   0.748  20.683  10.546
26503W        W94921  43.958   5.296   0.384
26504W        W94922  25.143  11.168   3.356
26505W        W94923   0.258  13.660   4.226
26506W        W94924  17.308  30.432   1.806
26507W        W94925  14.226  21.169   5.111
26508W        W94926  23.073  12.210  13.381
26509W        W94927  14.231  18.101  14.869
26510W        W94928   3.862  21.020  11.059
26511W        W94929  22.015  41.526  11.031
26512W        W94930  20.638  16.210   2.884
26513W        W94931  13.201  11.250  12.398
26514W        W94932  22.122  29.993   0.903
26515W        W94933  35.392   4.216   3.323
26516W        W94934   5.694  19.118  12.525
26517W        W94935  41.917  27.941  10.574
26518W        W94936  31.965  36.909   0.345
26519W        W94937   7.697  17.570  13.021
26520W        W94938  42.351  38.556  14.012
26521W        W94939  21.726  32.392  11.908
26522W        W94940   9.868  16.655   3.266
26523W        W94941   0.874  41.919   2.241
26524W        W94942   3.713   0.281   0.914
26525W        W94943  10.213  10.305   2.822
26526W        W94944  19.716   8.239   2.212
26527W        W94945  41.858  14.147  13.943
26528W        W94946  16.136   2.292  13.426
26529W        W94947  26.118  13.120  14.409
26530W        W94948  38.934  25.202  11.576
26531W        W94949  24.545  21.095   4.201
26532W        W94950  26.136  24.652   3.749
26533W        W94951  18.052   1.436   3.384
26534W        W94952  30.521  24.009   3.270
26535W        W94953  21.141  41.300   3.185
26536W        W94954  22.102  23.199   0.437
26537W        W94955  19.570   7.885   0.449
26538W        W94956  35.875  22.687  10.509
26539W        W94957  40.850  12.185   1.787
26540W        W94958   2.263  33.123  12.949
26541W        W94959  39.018   0.310   4.621
26542W        W94960  42.523  33.058   2.262
26543W        W94961  15.133  39.030   0.285
26544W        W94962  44.420  30.538  11.539
26545W        W94963  38.966   8.889  11.457
26546W        W94964  16.194  30.414  14.963
26547W        W94965  44.842  38.009   1.783
26548W        W94966  30.430   1.342   0.450
26549W        W94967   6.248  14.105   3.723
26550W        W94968  39.402  41.786  10.917
26551W        W94969   7.218  27.615  11.948
26552W        W94970   5.218   1.247  11.513
26553W        W94971  14.736   8.828   2.869
26554W        W94972  38.873  27.991   4.637
26555W        W94973   6.776  30.075   2.249
26556W        W94974  44.372  12.166   0.259
26557W        W94975   8.387   1.826   2.687
26558W        W94976  11.237  29.549  14.934
26559W        W94977  20.258   9.272  10.998
26560W        W94978  13.309  41.014  11.436
26561W        W94979   2.447   2.374  14.296
26562W        W94980  30.630  30.506  10.994
26563W        W94981   3.870  15.245  14.291
26564W        W94982  35.540  26.632  14.884
26565W        W94983   3.389  19.210   2.194
26566W        W94984  21.062   5.778   0.815
26567W        W94985  43.913  24.550   1.700
26568W        W94986  24.607  44.871  10.418
26569W        W94987  14.273  39.879  12.436
26570W        W94988  15.304  25.472   0.257
26571W        W94989  27.065  19.046   0.470
26572W        W94990  39.400  35.863  14.783
26573W        W94991  28.064  30.030   1.867
26574W        W94992  32.936  27.664  14.995
26575W        W94993  17.628   9.299   2.281
26576W        W94994  16.235   4.301  13.414
26577W        W94995  15.631  23.584   3.671
26578W        W94996  32.984  24.041   1.755
26579W        W94997  28.479  36.881   2.353
26580W        W94998  24.524  22.657  14.309
26581W        W94999  17.668   5.713  14.971
26582W        W95000  19.621  26.583   2.213
26583W        W95001  27.533  44.441   1.776
26584W        W95002   8.889  23.038   1.255
26585W        W95003  35.034  29.487  10.951
26586W        W95004  33.574  34.466  12.568
26587W        W95005  33.001  41.292  13.454
26588W        W95006  24.136   5.257  12.392
26589W        W95007  28.137  32.411   1.395
26590W        W95008   0.469  21.188   0.732
26591W        W95009  20.029  22.163  14.028
26592W        W95010  19.076   3.822  10.474
26593W        W95011  31.575   1.433  10.907
26594W        W95012  41.813  20.555   0.967
26595W        W95013  13.732  16.087  11.935
26596W        W95014  21.235  22.036  13.437
26597W        W95015   3.276  15.756  12.832
26598W        W95016  22.588  14.796  13.540
26599W        W95017  41.509   0.875  13.859
26600W        W95018  24.112   7.858  12.539
26601W        W95019  28.952   8.387   1.840
26602W        W95020   0.906  33.592  14.313
26603W        W95021  39.343  39.852   2.694
26604W        W95022  41.845  40.418   1.374
26605W        W95023  44.333  34.096  12.946
26606W        W95024  43.972  18.067  11.891
26607W        W95025  40.859   8.291  12.387
26608W        W95026  32.561  34.543  14.901
26609W        W95027   6.795   7.832  12.457
26610W        W95028  22.657  26.580   4.832
26611W        W95029  11.364  34.605   2.206
26612W        W95030  13.229  35.590   0.867
26613W        W95031  11.837   8.787   4.244
26614W        W95032  32.027  30.629   9.973
26615W        W95033  16.088  35.455   0.731
26616W        W95034  15.292  43.973   0.243
26617W        W95035  15.689  34.607  10.436
26618W        W95036  43.943   5.715  14.844
26619W        W95037  38.074  44.842   1.808
26620W        W95038  21.607  19.765  13.436
26621W        W95039   8.763  13.300   4.208
26622W        W95040  14.180  10.874   0.393
26623W        W95041  44.306  22.661  10.615
26624W        W95042   6.356  37.918   1.312
26625W        W95043  23.200  16.283  12.402
26626W        W95044  15.606  20.689  14.783
26627W        W95045  24.705  16.811   2.889
26628W        W95046  24.648  39.831   2.412
26629W        W95047   5.751  41.899  14.011
26630W        W95048  16.644  39.834  13.364
26631W        W95049   2.727   2.312  10.473
26632W        W95050  27.481  18.111   4.733
26633W        W95051   8.878  44.986  13.522
26634W        W95052   4.327  12.330  13.829
26635W        W95053   7.899  33.493   0.462
26636W        W95054  18.721  23.722   3.717
26637W        W95055   0.819  23.129  11.375
26638W        W95056  30.441   2.769   3.324
26639W        W95057   0.270   3.802   2.376
26640W        W95058  40.033  28.001  10.962
26641W        W95059  38.868  21.194   9.927
26642W        W95060  39.026  41.940  11.009
26643W        W95061  16.202  34.945  14.401
26644W        W95062   3.943  26.160   3.177
26645W        W95063  29.116  28.656  12.414
26646W        W95064   6.348  21.144   4.756
26647W        W95065  20.637   4.260   4.125
26648W        W95066  17.127  34.049  11.050
26649W        W95067  43.787  26.053  12.991
26650W        W95068  28.537  42.403   0.802
26651W        W95069  37.396  14.601   5.306
26652W        W95070  39.831  18.777  14.446
26653W        W95071   8.722  24.662  12.369
26654W        W95072  41.425  40.988   2.662
26655W        W95073  21.689   0.416  12.363
26656W        W95074  13.336  14.735   4.349
26657W        W95075   2.958   6.358  12.547
26658W        W95076  33.531  34.985   3.841
26659W        W95077  12.164  35.105   3.821
26660W        W95078  32.959  36.567   2.899
26661W        W95079  27.101  15.291   1.781
26662W        W95080  35.422   6.296   1.734
26663W        W95081  10.232  27.944  14.333
26664W        W95082  32.902   0.371  10.459
26665W        W95083   5.246   5.699  13.485
26666W        W95084   6.225   1.391  14.509
26667W        W95085  10.360   0.976   4.175
26668W        W95086  40.933   0.454  10.542
26669W        W95087  23.651  18.634   0.334
26670W        W95088  40.981  11.207  13.456
26671W        W95089   0.816  26.497  11.041
26672W        W95090  15.257  19.240  14.513
26673W        W95091  20.752  41.956   3.792
26674W        W95092  38.569  30.133  12.904
26675W        W95093  40.026  34.054  12.984
26676W        W95094  44.460   7.361  12.468
26677W        W95095  23.721  37.887   4.640
26678W        W95096  22.589  24.602   2.401
26679W        W95097  31.034  43.942  14.998
26680W        W95098  30.123  38.877   1.291
26681W        W95099  39.986   4.755  12.045
26682W        W95100   3.430  40.915   0.380
26683W        W95101  20.626  23.030   0.790
26684W        W95102  23.566  30.031  10.931
26685W        W95103   3.743  38.843   1.845
26686W        W95104  15.763  15.741   5.201
26687W        W95105  40.839  19.548   0.873
26688W        W95106  20.109  43.934  11.121
26689W        W95107  20.549  22.176  14.422
26690W        W95108  31.629   3.748   0.836
26691W        W95109  27.099  22.035   4.314
26692W        W95110  12.300  35.996  12.560
26693W        W95111   4.788  14.762   3.723
26694W        W95112  11.269   4.747   1.250
26695W        W95113  14.745  36.908  12.827
26696W        W95114  37.063  42.476  13.417
26697W        W95115  31.980  15.750  11.007
26698W        W95116   2.732  36.950   0.321
26699W        W95117  42.517  10.874  13.331
26700W        W95118  39.398  38.074  14.032
26701W        W95119  27.685   7.346  10.039
26702W        W95120  15.289   4.764  10.937
26703W        W95121  28.573   9.380   4.612
26704W        W95122  27.985  23.692   4.695
26705W        W95123  16.612  26.063  10.602
26706W        W95124  13.245  16.669   3.287
26707W        W95125  10.279  39.535  10.480
26708W        W95126   1.257  23.699   0.744
26709W        W95127  36.875  36.851   0.314
26710W        W95128  30.555   1.831   1.731
26711W        W95129  10.186   2.288   2.682
26712W        W95130  20.071   5.247  12.390
26713W        W95131  16.216  34.457   0.315
26714W        W95132  20.727  19.578   4.806
26715W        W95133  31.946   2.323  13.027
26716W        W95134  35.413  16.317   0.260
26717W        W95135  39.336  29.627  13.804
26718W        W95136  32.921   3.264  10.500
26719W        W95137  10.383   4.316   1.890
26720W        W95138  42.336  24.190   4.303
26721W        W95139  37.440  15.212  12.841
26722W        W95140   6.319  41.854  13.795
26723W        W95141  26.039  34.890  11.579
26724W        W95142  20.043  44.353   3.162
26725W        W95143  37.057  30.502  14.402
26726W        W95144  43.486  33.431  10.956
26727W        W95145  21.036  41.384  10.463
26728W        W95146  22.024  15.109  10.616
26729W        W95147  28.475  15.810  11.929
26730W        W95148  17.178   2.389  12.975
26731W        W95149  32.574  40.387  13.061
26732W        W95150  13.108  16.241  11.464
26733W        W95151  44.839  12.822   3.800
26734W        W95152  26.637  21.635  10.635
26735W        W95153  13.705  40.880   3.699
26736W        W95154   4.847  16.586   3.665
26737W        W95155   1.314  37.514   4.139
26738W        W95156  26.132  42.785   0.262
26739W        W95157  44.779  14.184   4.614
26740W        W95158  24.693  19.285   0.484
26741W        W95159  12.198  39.477  13.926
26742W        W95160   1.763   8.853   4.749
26743W        W95161  10.191  23.542  14.947
26744W        W95162  39.538  30.472  12.878
26745W        W95163   4.415   2.283  10.477
26746W        W95164  10.160  28.178  12.546
26747W        W95165  16.613  34.564   2.399
26748W        W95166  35.449   5.827   3.848
26749W        W95167  15.241  29.581   0.815
26750W        W95168  21.740  15.788  13.418
26751W        W95169  35.601  40.487   1.917
26752W        W95170  26.060  33.567  12.919
26753W        W95171   4.321  44.441  12.374
26754W        W95172  15.817   9.212   3.281
26755W        W95173  16.219  16.293  12.823
26756W        W95174  19.209  26.593   1.335
26757W        W95175  36.053  23.560   0.358
26758W        W95176  14.603  19.094  10.549
26759W        W95177  40.002  11.738   4.169
26760W        W95178  17.141  17.793   1.933
26761W        W95179  39.928  15.103  11.063
26762W        W95180  36.936  13.602   1.242
26763W        W95181  42.481  31.465  12.532
26764W        W95182  16.314   6.830   1.297
26765W        W95183  14.667   3.294   0.792
26766W        W95184  25.576  26.104  12.033
26767W        W95185  19.097  30.953  13.018
26768W        W95186   8.398  34.553   3.668
26769W        W95187  25.987  36.492  11.872
26770W        W95188  36.358  20.687   0.887
26771W        W95189  24.003  14.255   4.661
26772W        W95190  44.942   7.250   3.716
26773W        W95191  32.048   3.872   3.319
26774W        W95192  31.146  30.995   0.297
26775W        W95193  43.505  30.076  13.507
26776W        W95194  32.116   5.771  13.939
26777W        W95195  44.979  32.433  12.366
26778W        W95196   2.386   4.713   4.351
26779W        W95197  32.398   4.738  12.085
26780W        W95198  18.293  12.704  14.341
26781W        W95199   2.366  31.425  11.877
26782W        W95200   1.943   0.743  14.430
26783W        W95201  43.817  33.102  12.458
26784W        W95202  42.463  24.145  12.032
26785W        W95203   7.793  38.933   2.803
26786W        W95204  39.436  41.910  11.427
26787W        W95205   2.425  17.278  12.959
26788W        W95206  36.550  30.559   5.125
26789W        W95207   5.909  41.367  11.559
26790W        W95208  18.735  33.955   3.151
26791W        W95209  20.172  37.401  14.000
26792W        W95210   9.866  26.961  11.489
26793W        W95211  37.934  33.064   4.146
26794W        W95212  31.014  13.615   4.317
26795W        W95213  15.182  32.126  12.021
26796W        W95214  26.015   8.239   3.868
26797W        W95215   8.192  40.943  12.086
26798W        W95216  14.222  36.852   3.251
26799W        W95217  43.326  37.011  12.420
26800W        W95218   5.801   3.786   3.763
26801W        W95219  26.191  10.773   2.206
26802W        W95220  16.748  39.430  12.093
26803W        W95221   1.743  26.975   1.929
26804W        W95222  30.035  13.118  12.881
26805W        W95223  18.195  32.018  13.397
26806W        W95224  33.117  42.347   0.841
26807W        W95225  25.217  38.071   0.916
26808W        W95226  34.436   6.260   3.791
26809W        W95227  20.637  13.349   1.261
26810W        W95228  17.591  31.413  13.898
26811W        W95229  27.457   2.754   4.113
26812W        W95230  35.096   2.362   3.866
26813W        W95231  44.503  17.105  13.502
26814W        W95232  15.177   3.223  12.903
26815W        W95233  13.778  22.589   4.794
26816W        W95234  31.054   1.367   2.191
26817W        W95235  30.035  22.098  14.302
26818W        W95236  40.427   9.699  12.935
26819W        W95237  12.650  14.600  12.896
26820W        W95238  31.450  35.036   0.913
26821W        W95239  39.025  25.630   1.921
26822W        W95240  13.255  30.164  13.345
26823W        W95241  28.513  20.648   1.308
26824W        W95242  30.529  27.138  14.989
26825W        W95243  15.323   7.846   1.230
26826W        W95244   0.439   9.832  14.947
26827W        W95245   1.886  26.113   4.314
26828W        W95246   3.930  15.158  10.959
26829W        W95247   1.813  26.625   2.819
26830W        W95248   3.426  11.305   2.305
26831W        W95249  40.977  38.481   2.809
26832W        W95250  27.460  12.351  13.439
26833W        W95251  13.317  38.389  11.458
26834W        W95252  43.837   8.692   1.790
26835W        W95253  25.539  28.528  13.500
26836W        W95254  42.293  32.972   4.636
26837W        W95255  20.085  31.005   4.140
26838W        W95256  41.824   5.813   1.768
26839W        W95257  12.286  16.161   1.894
26840W        W95258  29.427  26.185   1.896
26841W        W95259   1.427   9.690   1.409
26842W        W95260  34.510   4.903  10.442
26843W        W95261  38.518  23.984   2.759
26844W        W95262  13.229   4.896   0.913
26845W        W95263  41.856   5.258   3.318
26846W        W95264  44.382  41.036  13.508
26847W        W95265  40.949  18.674   2.204
26848W        W95266  19.697   1.876  14.802
26849W        W95267  34.540  18.552  12.436
26850W        W95268  38.939  43.802   4.267
26851W        W95269  44.411  12.273   5.652
26852W        W95270  31.629  14.661  14.512
26853W        W95271  21.732   8.802   0.873
26854W        W95272   6.285  30.651   1.712
26855W        W95273  32.894  32.621  10.971
26856W        W95274  31.991  24.683  10.620
26857W        W95275   7.309  19.707   3.365
26858W        W95276   3.947  15.118  12.483
26859W        W95277  18.777  43.014   0.441
26860W        W95278   8.668  30.100   4.758
26861W        W95279   7.344  43.918  12.069
26862W        W95280  39.004  14.309  14.492
26863W        W95281  43.375  39.949  13.993
26864W        W95282  19.709  21.727  10.588
26865W        W95283  18.547  32.548  10.454
26866W        W95284  42.461  43.782   1.424
26867W        W95285  28.061  32.397  12.481
26868W        W95286  40.433  26.032  12.456
26869W        W95287  13.283   0.969   3.761
26870W        W95288  19.718  29.654   2.381
26871W        W95289   0.425  35.369  10.543
26872W        W95290  11.359  18.579  12.829
26873W        W95291  28.132  39.881   1.836
26874W        W95292   1.948   4.274   4.188
26875W        W95293   3.377  34.433  13.341
26876W        W95294   1.892  17.760   4.241
26877W        W95295   8.740  40.423   1.787
26878W        W95296  10.211  39.512   3.314
26879W        W95297  40.540   1.480  13.833
26880W        W95298   2.285  16.619  12.424
26881W        W95299  40.903  28.043   4.256
26882W        W95300   1.953  29.576  14.006
26883W        W95301  14.697   7.904  14.859
26884W        W95302  32.534  37.474  11.518
26885W        W95303  15.107  26.160  14.351
26886W        W95304  39.421   2.340  13.320
26887W        W95305  34.407  43.459   1.721
26888W        W95306  22.152   3.882   4.762
26889W        W95307  35.093   5.885   2.680
26890W        W95308  32.888   8.874   2.233
26891W        W95309  31.424  11.841  13.374
26892W        W95310  38.944  27.501   3.304
26893W        W95311  32.566   7.193  14.020
26894W        W95312  27.530  43.290   1.727
26895W        W95313   3.397   6.307   1.344
26896W        W95314  40.477   7.780  12.059
26897W        W95315  42.980  21.032   2.775
26898W        W95316  30.067  20.096   1.822
26899W        W95317  19.689  37.887  14.847
26900W        W95318   5.242  31.066  12.921
26901W        W95319  39.831   2.414   3.351
26902W        W95320  24.202  39.894   9.650
26903W        W95321  29.068  35.545   0.431
26904W        W95322  16.214  30.944   4.215
26905W        W95323  33.572   1.378   0.911
26906W        W95324  29.633   1.452  13.545
26907W        W95325  23.508  27.595  12.480
26908W        W95326   4.846  14.247  13.317
26909W        W95327  31.544  23.592  14.313
26910W        W95328  30.155  35.926  12.086
26911W        W95329  41.845   8.192   0.322
26912W        W95330  19.580  14.097  10.064
26913W        W95331   0.939  11.623  13.339
26914W        W95332  13.216  39.416  12.886
26915W        W95333  43.773  12.667  11.528
26916W        W95334  17.262  30.641  10.535
26917W        W95335  29.484  26.041   4.132
26918W        W95336  44.854  40.405   2.681
26919W        W95337  31.493   9.224   4.261
26920W        W95338  23.103  20.121   3.633
26921W        W95339  20.027  42.339   3.776
26922W        W95340  42.303  25.217   0.832
26923W        W95341  15.159  40.911   2.684
26924W        W95342  20.170  39.015   3.330
26925W        W95343  31.431   5.262  12.370
26926W        W95344  37.063  38.848  13.397
26927W        W95345   2.861   7.407   0.447
26928W        W95346  28.476  37.046   1.916
26929W        W95347  33.404  32.024   0.932
26930W        W95348  31.482  39.851   1.249
26931W        W95349  41.337  26.510   3.347
26932W        W95350  34.508  20.594  10.984
26933W        W95351   3.720  35.538   1.830
26934W        W95352  40.358  40.997  10.949
26935W        W95353  20.263  22.164   0.373
26936W        W95354  42.315  18.722   0.751
26937W        W95355  32.459  21.611   4.181
26938W        W95356  20.135  41.524   2.415
26939W        W95357   1.964   2.880  14.459
26940W        W95358  36.441  24.111   4.758
26941W        W95359  22.040  41.984   0.416
26942W        W95360  40.930  14.626  13.049
26943W        W95361  31.017  21.094  11.567
26944W        W95362  25.085  27.567  11.481
26945W        W95363  27.461  19.656   3.291
26946W        W95364  44.468  37.028  12.462
26947W        W95365  10.792   2.265   3.343
26948W        W95366  25.184  12.656  12.359
26949W        W95367  44.925   7.821   1.733
26950W        W95368   1.807  28.961   4.629
26951W        W95369  33.994  41.524  11.031
26952W        W95370  31.065   0.878  13.457
26953W        W95371  41.958   2.862   1.733
26954W        W95372  41.874  43.314  13.883
26955W        W95373  26.126  18.770   3.865
26956W        W95374  23.640  44.975  13.866
26957W        W95375   7.866  32.495  13.416
26958W        W95376  34.892  43.878   0.959
26959W        W95377  38.417  44.901  10.920
26960W        W95378  43.888  36.852   2.860
26961W        W95379  37.840   1.776   1.314
26962W        W95380  18.590   4.853  14.935
26963W        W95381  36.465   2.942   3.716
26964W        W95382  35.017  43.852  11.903
26965W        W95383   0.842  43.945  13.803
26966W        W95384  15.324  27.091   4.720
26967W        W95385  25.964  33.945   0.953
26968W        W95386  31.138  35.018   1.445
26969W        W95387  29.558  22.173   0.966
26970W        W95388   1.239  21.632   3.656
26971W        W95389  23.733   4.700  13.804
26972W        W95390  21.082  25.625  14.940
26973W        W95391  22.717  39.869  13.854
26974W        W95392  34.588  42.814  10.910
26975W        W95393   0.321  37.541  12.375
26976W        W95394  30.030  43.272   2.820
26977W        W95395  35.992  24.514  11.422
26978W        W95396  24.686   1.475  12.573
26979W        W95397  12.750  19.279  12.082
26980W        W95398  11.159  12.710  14.280
26981W        W95399  11.751   3.258   1.851
26982W        W95400   8.741  13.323   5.214
26983W        W95401  17.749  10.704  10.590
26984W        W95402  18.098  26.207  10.419
26985W        W95403  30.491  22.713   1.756
26986W        W95404  16.087   3.233   0.362
26987W        W95405  31.106   6.694   1.296
26988W        W95406   8.294  35.425  14.946
26989W        W95407  24.559  38.976  13.037
26990W        W95408  14.223  16.128   4.313
26991W        W95409  41.493  43.309  11.051
26992W        W95410  20.274  30.562   2.832
26993W        W95411  23.225  13.745  11.119
26994W        W95412  42.999  32.559   4.183
26995W        W95413  33.992   1.464  10.404
26996W        W95414   7.184  43.870   2.237
26997W        W95415   4.332  14.714   2.862
26998W        W95416  39.817  24.196  13.791
26999W        W95417  21.188  38.828  14.329
27000W        W95418  37.083  20.235   2.779
27001W        W95419   1.976  32.521   2.685
27002W        W95420  42.787  32.426  10.621
27003W        W95421  19.635  13.229  11.902
27004W        W95422  13.292  31.558   2.845
27005W        W95423  34.091  34.484   0.320
27006W        W95424  30.614  16.602  13.823
27007W        W95425   3.334  37.426  12.440
27008W        W95426  14.720  31.599  13.927
27009W        W95427  10.196   1.867   1.800
27010W        W95428  12.731  16.109  11.913
27011W        W95429   7.906   5.794  14.995
27012W        W95430  12.227  26.107  10.936
27013W        W95431  37.360  22.521  10.580
27014W        W95432  33.453  12.638   1.785
27015W        W95433  30.612  25.515  14.426
27016W        W95434  12.211  30.620   3.854
27017W        W95435  26.030  19.721   3.301
27018W        W95436  22.667  23.157   4.139
27019W        W95437  11.814  42.027  11.508
27020W        W95438  31.451  32.055  10.423
27021W        W95439   9.357  32.945  11.113
27022W        W95440  37.481  28.618   2.673
27023W        W95441   6.203  40.929  13.365
27024W        W95442   6.909  44.774   3.633
27025W        W95443  37.909  25.174   1.442
27026W        W95444   1.968  16.205  10.419
27027W        W95445  11.331  21.621   4.117
27028W        W95446  24.713  17.686  12.970
27029W        W95447  36.009  22.639   4.145
27030W        W95448  19.583  42.456   4.754
27031W        W95449  26.172   0.980  12.046
27032W        W95450  31.905  38.376   1.298
27033W        W95451  29.119  29.921   1.446
27034W        W95452  19.558   8.337  12.043
27035W        W95453  29.976  34.992   2.732
27036W        W95454  20.261   8.172   0.907
27037W        W95455  22.053  24.138   2.829
27038W        W95456  27.959   1.757   4.746
27039W        W95457  21.232  41.477  10.086
27040W        W95458  27.030   8.849   1.904
27041W        W95459   7.345   8.264  11.954
27042W        W95460  28.519  32.608   1.870
27043W        W95461  32.135   0.782  14.786
27044W        W95462  39.526  23.996  13.944
27045W        W95463   7.395   1.869   4.690
27046W        W95464   4.855   0.384  14.838
27047W        W95465  12.196  36.940  14.368
27048W        W95466  12.720  40.404   3.282
27049W        W95467  31.921  11.680   2.770
27050W        W95468  40.030  37.357  10.546
27051W        W95469   6.688  35.937   4.350
27052W        W95470  18.191  22.153   4.721
27053W        W95471   7.307  41.429   4.347
27054W        W95472  14.648  18.781  10.597
27055W        W95473  23.126  41.919   1.438
27056W        W95474   8.852  17.783  13.873
27057W        W95475   5.715  11.724   2.377
27058W        W95476  28.985  13.703  11.898
27059W        W95477  14.781  30.071  11.937
27060W        W95478   7.883  20.599  12.879
27061W        W95479  41.881  41.506  12.884
27062W        W95480  20.176   2.742  10.949
27063W        W95481  44.291  21.137   5.142
27064W        W95482  26.116  42.914  13.040
27065W        W95483  42.498  38.057   2.771
27066W        W95484   3.292  27.667  10.149
27067W        W95485  39.865  41.489  13.387
27068W        W95486  15.682  19.732  12.574
27069W        W95487  27.490   4.312  11.467
27070W        W95488  30.486  28.611  13.343
27071W        W95489   1.814  12.347   4.286
27072W        W95490   4.893  29.064   4.651
27073W        W95491  44.421   2.318  11.919
27074W        W95492  25.090   5.378   1.448
27075W        W95493  30.501  16.697   0.862
27076W        W95494  31.105  22.674   0.245
27077W        W95495  13.167  37.841   4.656
27078W        W95496  32.055  40.490  14.459
27079W        W95497  41.390  13.642   4.296
27080W        W95498  27.966  25.112  13.955
27081W        W95499   2.825  17.254   2.712
27082W        W95500  15.187  35.421   3.174
27083W        W95501  25.658  16.747  14.290
27084W        W95502  16.630  41.403  11.396
27085W        W95503  24.149   6.872  12.483
27086W        W95504  20.109  14.306   3.816
27087W        W95505   9.846  23.016   1.749
27088W        W95506  35.071  38.399  11.098
27089W        W95507  22.085  19.644   1.251
27090W        W95508  29.476  17.258  13.878
27091W        W95509   9.363  23.011   1.338
27092W        W95510  22.595   4.373   1.918
27093W        W95511  24.182   2.404  12.410
27094W        W95512  23.512  12.121   3.799
27095W        W95513  42.799  26.560  14.929
27096W        W95514   2.880  12.773  13.433
27097W        W95515  15.295   8.704   3.260
27098W        W95516  10.636  19.166  10.558
27099W        W95517  39.427   9.386  12.045
27100W        W95518  11.193  24.052  11.599
27101W        W95519  39.903  27.053   4.168
27102W        W95520  14.732  32.911  14.313
27103W        W95521  43.478  21.526  11.532
27104W        W95522  42.325   4.897   1.895
27105W        W95523  23.491  39.000   3.723
27106W        W95524  34.016  28.137   4.609
27107W        W95525  23.090  20.154   2.766
27108W        W95526  39.344   0.263   3.797
27109W        W95527  29.092   6.283  13.802
27110W        W95528  40.471  33.470  14.274
27111W        W95529  37.053  44.360   3.247
27112W        W95530  13.159   7.715   4.688
27113W        W95531   8.721  29.935  13.457
27114W        W95532  24.190  33.442  10.475
27115W        W95533  17.585   4.359  11.946
27116W        W95534  15.150  22.106   3.756
27117W        W95535  16.768   8.822   2.241
27118W        W95536  27.941  41.492  10.048
27119W        W95537  27.180  39.821   4.339
27120W        W95538   3.359  27.991  10.644
27121W        W95539  27.941  35.503   2.394
27122W        W95540  22.075  31.122   0.312
27123W        W95541  13.620   1.780  11.574
27124W        W95542  18.060  17.562   2.280
27125W        W95543   4.400  13.233   3.372
27126W        W95544  34.478  28.034   2.808
27127W        W95545  23.553  25.670   1.703
27128W        W95546  21.086   4.796   1.775
27129W        W95547  24.064  17.802  11.906
27130W        W95548  39.482  38.522   0.339
27131W        W95549   3.414  26.573   9.985
27132W        W95550  39.448  23.226   1.379
27133W        W95551  11.277  42.797   2.196
27134W        W95552  14.775  43.936  14.288
27135W        W95553  41.038  28.666  14.419
27136W        W95554   2.942  41.826   1.232
27137W        W95555  15.631  26.006   4.203
27138W        W95556  25.481  24.667   2.183
27139W        W95557  29.577  13.310  10.631
27140W        W95558  36.361  37.983   2.203
27141W        W95559   7.795   2.792  11.064
27142W        W95560  17.175  29.450  12.842
27143W        W95561  37.935  43.904   1.720
27144W        W95562   9.676  16.278   1.778
27145W        W95563  15.283   7.809  13.353
27146W        W95564  42.856  13.631  14.820
27147W        W95565  42.016  16.611  12.987
27148W        W95566  14.167  16.177   1.768
27149W        W95567   6.824   8.705  11.027
27150W        W95568  33.962  12.690  11.080
27151W        W95569  39.552  38.031  12.497
27152W        W95570  16.300  19.733   2.324
27153W        W95571   5.423  14.803   0.255
27154W        W95572  29.954  43.317   3.383
27155W        W95573  18.146  29.007  12.390
27156W        W95574  19.700  37.373   4.702
27157W        W95575   2.767   9.796  10.590
27158W        W95576  40.999  19.267  14.469
27159W        W95577   1.299  41.041  11.374
27160W        W95578  35.970  33.602  12.571
27161W        W95579  32.003  14.698   4.160
27162W        W95580  24.654  26.161  13.363
27163W        W95581  20.549  20.031   0.733
27164W        W95582  15.789  28.586   2.669
27165W        W95583  22.668  16.075   3.859
27166W        W95584  17.783   8.338  12.524
27167W        W95585  32.005  43.434  12.909
27168W        W95586   0.416  29.441   2.416
27169W        W95587  12.151  29.508  14.493
27170W        W95588   7.337  29.041   2.298
27171W        W95589   5.890  25.693   0.328
27172W        W95590   5.297  16.689  12.457
27173W        W95591   0.867   5.257   0.802
27174W        W95592  28.073  44.498   4.630
27175W        W95593  32.555   4.303   0.726
27176W        W95594  21.671  35.011   0.303
27177W        W95595   6.750  24.037  12.510
27178W        W95596  29.044  21.202  12.944
27179W        W95597  30.458  11.867   2.770
27180W        W95598  19.086  22.566  14.503
27181W        W95599   5.281  42.816  10.492
27182W        W95600  43.930  43.435  11.564
27183W        W95601  18.746  29.107  10.920
27184W        W95602  29.164  22.519  13.430
27185W        W95603  43.353  36.989  10.437
27186W        W95604   6.182  20.611   3.666
27187W        W95605  37.363  43.472   0.842
27188W        W95606   0.833  39.443  11.906
27189W        W95607  19.611  22.124   4.699
27190W        W95608  28.164  34.484  14.910
27191W        W95609  13.235  27.649  14.804
27192W        W95610   8.214  19.229   2.334
27193W        W95611  26.062   9.287  11.377
27194W        W95612  21.744  26.546   4.800
27195W        W95613  34.570   9.325   3.713
27196W        W95614  40.885  24.585  11.565
27197W        W95615  30.640  19.233  10.940
27198W        W95616  29.584  12.353   0.812
27199W        W95617  24.694   5.709   1.218
27200W        W95618  44.416  29.155   4.149
27201W        W95619  30.099  27.576  12.354
27202W        W95620  30.007  40.872  12.481
27203W        W95621  32.601  11.672  10.579
27204W        W95622  37.415   8.806   3.823
27205W        W95623  27.558  17.692   1.433
27206W        W95624  15.612  22.599   4.348
27207W        W95625  16.582  40.324   1.783
27208W        W95626  43.798  39.848  12.369
27209W        W95627   9.670  40.024  10.406
27210W        W95628  41.383  27.475   0.740
27211W        W95629  15.748  17.742   3.732
27212W        W95630  30.442  18.759  13.924
27213W        W95631  17.193  32.438  11.585
27214W        W95632  39.510  31.443  14.306
27215W        W95633  18.717  12.739   4.676
27216W        W95634   7.361  24.978   2.783
27217W        W95635  42.308   7.248   1.724
27218W        W95636  28.609  38.049  10.541
27219W        W95637  12.358  31.035   3.641
27220W        W95638  27.685  27.068   3.860
27221W        W95639   0.870  26.562   5.121
27222W        W95640   9.806  10.682  13.541
27223W        W95641  11.676  42.804   1.416
27224W        W95642  17.557  44.446  13.509
27225W        W95643   2.345  29.068  14.968
27226W        W95644  26.995  37.004  12.562
27227W        W95645  34.012  10.811  10.444
27228W        W95646  37.087  23.684   3.321
27229W        W95647  19.755   3.424  11.391
27230W        W95648   2.433  14.798  12.901
27231W        W95649  40.517  12.165  11.432
27232W        W95650  40.393  30.098  14.288
27233W        W95651  11.173  31.915  13.996
27234W        W95652   0.871  41.988   1.783
27235W        W95653   1.243  23.615  11.052
27236W        W95654   7.310  43.833  11.024
27237W        W95655  44.381  28.958   0.908
27238W        W95656  15.593  42.846   1.397
27239W        W95657  13.794   8.329  12.897
27240W        W95658  35.852  23.132   4.607
27241W        W95659  16.662  22.094  11.904
27242W        W95660  16.244  37.370   4.343
27243W        W95661  23.528  29.594   0.796
27244W        W95662   6.283  19.279  13.469
27245W        W95663  25.679   9.787  12.348
27246W        W95664  31.514  44.362   2.301
27247W        W95665  44.004  28.638  13.970
27248W        W95666   5.811  18.663  13.365
27249W        W95667  27.491   1.419  14.373
27250W        W95668  31.520  38.546  13.062
27251W        W95669   1.342   6.211   4.245
27252W        W95670  16.594  35.388   4.269
27253W        W95671  12.831  41.964   0.830
27254W        W95672  17.607  14.145  11.959
27255W        W95673   4.742  43.012   0.397
27256W        W95674  44.991  19.221   0.402
27257W        W95675   3.722  25.188  13.371
27258W        W95676  17.074  16.188   3.369
27259W        W95677  43.967  32.636   0.345
27260W        W95678  27.149  42.005  14.919
27261W        W95679  20.133  19.605  11.567
27262W        W95680  21.236   2.423  10.488
27263W        W95681  31.538  23.545  13.058
27264W        W95682  11.718  23.593   0.924
27265W        W95683  34.555   4.291  13.005
27266W        W95684  14.171  13.815  12.833
27267W        W95685  13.770  11.779   3.211
27268W        W95686  22.516  33.604  11.550
27269W        W95687  27.543  18.740  13.820
27270W        W95688  21.733  22.517  11.071
27271W        W95689  27.179  25.677   0.390
27272W        W95690  17.630  26.494  10.609
27273W        W95691  43.438   8.783   2.264
27274W        W95692  14.831  41.527  12.961
27275W        W95693  29.433  32.896   2.358
27276W        W95694  32.397  25.078   0.967
27277W        W95695  43.823  37.409   4.650
27278W        W95696  23.714  32.493  10.535
27279W        W95697  22.553  29.604   2.707
27280W        W95698   1.794   7.340   3.173
27281W        W95699   2.791  21.584   4.200
27282W        W95700  40.854   9.647   4.783
27283W        W95701  10.258  25.010   2.868
27284W        W95702  34.419   1.306   1.424
27285W        W95703  12.712  35.463   0.274
27286W        W95704   8.163  23.997   2.291
27287W        W95705  44.404  31.898   0.343
27288W        W95706  34.105  39.053   0.483
27289W        W95707  41.961   9.828  10.567
27290W        W95708  31.016  44.397   0.383
27291W        W95709  26.668   4.718   1.702
27292W        W95710   6.776   0.324   4.751
27293W        W95711  20.681  41.792   2.862
27294W        W95712  37.395  24.152  12.564
27295W        W95713  10.349   9.725  14.288
27296W        W95714  35.513   5.707   3.277
27297W        W95715   4.729  19.230  14.813
27298W        W95716   2.865  10.344  14.856
27299W        W95717  37.476   9.235   3.659
27300W        W95718  40.830  15.658  11.893
27301W        W95719   3.919  22.546  13.990
27302W        W95720  29.123   7.765  14.299
27303W        W95721  10.171  21.148  13.415
27304W        W95722   9.772  27.690   2.796
27305W        W95723  22.136   7.790  12.530
27306W        W95724  30.147  21.057   5.171
27307W        W95725  21.032  29.028   1.908
27308W        W95726  15.216  35.955  11.399
27309W        W95727  33.464  11.788  14.442
27310W        W95728  16.147  37.077   0.338
27311W        W95729  40.539  19.080   0.480
27312W        W95730  14.714  25.216  12.863
27313W        W95731  31.506  29.115  12.501
27314W        W95732  42.858   6.700   1.263
27315W        W95733   9.851  19.704   3.305
27316W        W95734   5.357  25.635   2.730
27317W        W95735  17.624  18.751  13.968
27318W        W95736  32.458  33.087   2.751
27319W        W95737   5.756  33.975   2.843
27320W        W95738  19.616  14.156  13.877
27321W        W95739  15.798   8.747  14.390
27322W        W95740   1.836  11.791  14.791
27323W        W95741  25.636   6.334  14.388
27324W        W95742  14.124  40.324  12.837
27325W        W95743  28.955   4.212  13.901
27326W        W95744  38.033  20.597   1.723
27327W        W95745  12.649   9.155  13.371
27328W        W95746   9.678   0.753   1.737
27329W        W95747   3.872  19.145   3.804
27330W        W95748   3.870   7.261   3.297
27331W        W95749  41.508  22.562  12.902
27332W        W95750  10.739  33.985  13.462
27333W        W95751  32.004  11.346  13.997
27334W        W95752  44.771  11.627   1.228
27335W        W95753  30.083   1.977  13.896
27336W        W95754   3.333  19.176  10.417
27337W        W95755  30.636  26.552  14.410
27338W        W95756  31.073  26.068   0.354
27339W        W95757  33.559  14.755  14.791
27340W        W95758   0.420  33.603   0.805
27341W        W95759  37.023  14.274  14.279
27342W        W95760  32.910  40.799   3.637
27343W        W95761  30.471  20.206  14.850
27344W        W95762  37.554  22.734   4.818
27345W        W95763  37.006  32.440   0.930
27346W        W95764  29.977  39.385   4.239
27347W        W95765  38.860  33.910   3.168
27348W        W95766   3.446  25.710  10.925
27349W        W95767   8.688  17.141  11.067
27350W        W95768  22.644  41.856  11.880
27351W        W95769   7.348  39.369   3.646
27352W        W95770  37.400   4.402  10.586
27353W        W95771  29.429  34.469  14.009
27354W        W95772  35.469  34.590   0.893
27355W        W95773  44.284  15.262  13.803
27356W        W95774  17.186  15.098  14.978
27357W        W95775  17.101  22.097  12.096
27358W        W95776  19.259  34.601   0.369
27359W        W95777  28.933  29.172  12.416
27360W        W95778  41.343  24.150   0.905
27361W        W95779  31.580  14.594   4.341
27362W        W95780  22.573  36.456  12.907
27363W        W95781  21.026   3.945  13.477
27364W        W95782  36.874  17.609   2.872
27365W        W95783   7.836  27.064  14.280
27366W        W95784  11.276  14.819   1.705
27367W        W95785  37.377  21.082  13.408
27368W        W95786  33.879   7.265   4.324
27369W        W95787  10.832   9.685  14.282
27370W        W95788  30.567  21.242  10.117
27371W        W95789  21.050  12.760  12.453
27372W        W95790   9.825  35.052   3.792
27373W        W95791  30.464  13.712   3.350
27374W        W95792  14.693   3.301  13.809
27375W        W95793  26.178   8.846  12.933
27376W        W95794  25.651   6.886   1.872
27377W        W95795  38.344  36.026  12.443
27378W        W95796  42.942  37.951  10.421
27379W        W95797  36.928   4.883   4.741
27380W        W95798  34.408  39.875   3.303
27381W        W95799  34.507  17.062   1.811
27382W        W95800  15.748  43.485   1.273
27383W        W95801   2.426  42.286  13.989
27384W        W95802  37.831  37.000   4.702
27385W        W95803  45.000  31.459  14.481
27386W        W95804   4.262  25.513   4.658
27387W        W95805  42.489  44.366  13.545
27388W        W95806  19.585   5.275   4.240
27389W        W95807  41.512  18.105   3.669
27390W        W95808   7.901  38.067  14.345
27391W        W95809   0.473   4.822  13.870
27392W        W95810  40.456  11.140   2.304
27393W        W95811   6.915  25.563   3.840
27394W        W95812  38.416   9.291   3.794
27395W        W95813  33.508  18.714   0.431
27396W        W95814   1.266  37.371  11.586
27397W        W95815   1.974  24.649  12.456
27398W        W95816   2.928  23.997  12.898
27399W        W95817  21.047  31.422  14.921
27400W        W95818   5.712   6.916  12.077
27401W        W95819  14.826  38.515   1.317
27402W        W95820  36.458  32.604  14.031
27403W        W95821  33.120  37.028   3.157
27404W        W95822  35.087   3.926  11.372
27405W        W95823  28.146   5.917   3.802
27406W        W95824  40.311  39.856   4.231
27407W        W95825  38.567   7.894  14.865
27408W        W95826  37.500  34.463   0.731
27409W        W95827  32.499   7.805  10.525
27410W        W95828  37.883  26.571   1.854
27411W        W95829   9.164   2.965   2.710
27412W        W95830   5.431  34.592  13.970
27413W        W95831  23.131  18.290  14.763
27414W        W95832   8.350  12.623   1.237
27415W        W95833  42.430  33.621   4.236
27416W        W95834   5.900  34.552  13.405
27417W        W95835   1.915   1.766  10.568
27418W        W95836  21.165  23.230   0.472
27419W        W95837  11.344  37.454   2.749
27420W        W95838  42.426  34.948  11.913
27421W        W95839  25.167  18.061   2.336
27422W        W95840  11.258   5.697  11.031
27423W        W95841  15.819   5.234   1.449
27424W        W95842  15.174  21.636  14.837
27425W        W95843   8.368  29.029   1.412
27426W        W95844  17.146  43.808  13.922
27427W        W95845  18.665  10.331  14.845
27428W        W95846  24.979   6.862  13.479
27429W        W95847  22.100  12.249  10.509
27430W        W95848  39.855  43.863  11.858
27431W        W95849  38.570  11.257  12.848
27432W        W95850   2.903  18.664  14.361
27433W        W95851  38.030  23.502   1.309
27434W        W95852  15.113  36.078   0.838
27435W        W95853   7.683  42.994   3.168
27436W        W95854  15.579  12.121   4.648
27437W        W95855  24.583  12.211   1.260
27438W        W95856  18.134  42.854  13.845
27439W        W95857   1.963  38.052  13.969
27440W        W95858  18.725   3.896  11.433
27441W        W95859   1.329  25.549   4.194
27442W        W95860  41.425   1.845   0.291
27443W        W95861  22.727   9.174  14.315
27444W        W95862   2.427   2.745  14.005
27445W        W95863  37.578  16.672   3.817
27446W        W95864  44.945  39.407   5.229
27447W        W95865  26.558  12.160   0.906
27448W        W95866  42.527  39.417   1.836
27449W        W95867  36.527  33.071   2.252
27450W        W95868  13.322  21.581  13.417
27451W        W95869  44.372   1.740   1.847
27452W        W95870  38.542  19.182   3.255
27453W        W95871   8.306   6.835  12.937
27454W        W95872  22.086  30.461   3.819
27455W        W95873   6.279   9.793  13.385
27456W        W95874  36.421  41.957   2.699
27457W        W95875  25.643   4.823   2.411
27458W        W95876   9.882  24.672   2.382
27459W        W95877  33.611  30.117   4.670
27460W        W95878  14.235  13.727  11.108
27461W        W95879  17.569  10.876  11.033
27462W        W95880  34.875  27.499   1.275
27463W        W95881  31.439  26.662  11.899
27464W        W95882  33.026  38.988   1.707
27465W        W95883  33.494  26.129   0.242
27466W        W95884   7.720  44.465  10.888
27467W        W95885  11.131  44.384  12.835
27468W        W95886  32.567  23.986   4.767
27469W        W95887  38.512   9.755  11.974
27470W        W95888  18.198  39.491   1.817
27471W        W95889  21.683  15.748   3.832
27472W        W95890  31.903   9.722   3.717
27473W        W95891  24.002  12.269  11.517
27474W        W95892   0.929  27.180  11.909
27475W        W95893  16.600  10.735  10.468
27476W        W95894  42.480  22.210   1.393
27477W        W95895  29.083  26.662   4.348
27478W        W95896  32.412   6.736   1.704
27479W        W95897   5.734  17.749  11.857
27480W        W95898   0.753  22.251  13.816
27481W        W95899  28.101  14.723   0.821
27482W        W95900  29.987  41.902  12.360
27483W        W95901  31.469  21.227  12.908
27484W        W95902   2.918  41.506   1.725
27485W        W95903  19.180  27.043  11.418
27486W        W95904   6.740   3.922  14.317
27487W        W95905  21.074  15.134   1.435
27488W        W95906  20.685  19.616   0.956
27489W        W95907  15.644  23.629  13.970
27490W        W95908  22.700  20.079   2.385
27491W        W95909   4.819   5.385  14.363
27492W        W95910  17.593  26.121   0.899
27493W        W95911  12.279   5.274   4.762
27494W        W95912  35.959  44.957   3.825
27495W        W95913   1.855   2.958   4.202
27496W        W95914  11.723  29.456   4.657
27497W        W95915  12.741  26.189  10.559
27498W        W95916  10.371   2.418  13.428
27499W        W95917   4.886  20.599   1.321
27500W        W95918  30.602  20.175   4.638
27501W        W95919  32.503  22.158  12.007
27502W        W95920  27.632   4.928  12.957
27503W        W95921  21.716  10.223  10.024
27504W        W95922  30.048  15.179   0.309
27505W        W95923  28.622  20.048   1.401
27506W        W95924  41.905  36.584  11.462
27507W        W95925   6.833  24.684   2.344
27508W        W95926  39.869  16.647   1.257
27509W        W95927  14.187  18.123  12.063
27510W        W95928  19.051  41.434   1.339
27511W        W95929   9.761   7.394  13.960
27512W        W95930   3.313  16.772   1.411
27513W        W95931   8.783  15.172  11.508
27514W        W95932  13.779  13.708  13.801
27515W        W95933  39.058  17.190  14.350
27516W        W95934   4.838  11.741   0.402
27517W        W95935  16.711  18.265   3.684
27518W        W95936  12.779  39.050   4.711
27519W        W95937  33.465  42.322  10.974
27520W        W95938  17.711  40.304   1.908
27521W        W95939  28.060  30.539  14.840
27522W        W95940  44.428  29.142  13.849
27523W        W95941   0.772  28.991  12.972
27524W        W95942   9.882  15.329   3.821
27525W        W95943  38.502  37.056  12.362
27526W        W95944  12.356  35.952   2.357
27527W        W95945  17.187  41.353   0.287
27528W        W95946   6.291  33.899   1.698
27529W        W95947  10.354   9.226   4.150
27530W        W95948  39.938  30.926  10.546
27531W        W95949  24.154  38.530  12.539
27532W        W95950  42.002  39.835  12.492
27533W        W95951  16.190  41.953  14.939
27534W        W95952  18.054  12.166   2.853
27535W        W95953  19.756   7.760  14.466
27536W        W95954  22.546  36.983  12.972
27537W        W95955  35.515  23.552   1.263
27538W        W95956  13.338  42.472   4.598
27539W        W95957  42.883  21.734   1.293
27540W        W95958   4.722  21.234   5.185
27541W        W95959   2.914   6.262  10.575
27542W        W95960  40.515   0.988  11.124
27543W        W95961  27.002   5.408   3.822
27544W        W95962  40.349   2.450   1.263
27545W        W95963  20.110  26.136  11.426
27546W        W95964  32.967   0.933  13.895
27547W        W95965  34.470  33.562   2.875
27548W        W95966  33.900  44.968  10.579
27549W        W95967  41.814  13.634   0.298
27550W        W95968  12.285  14.205  12.518
27551W        W95969  13.198  12.162   1.412
27552W        W95970  38.038  25.631  14.815
27553W        W95971   0.414  43.295   4.664
27554W        W95972  36.027   7.794   4.197
27555W        W95973  44.405  34.609   0.867
27556W        W95974  14.334  31.524  10.490
27557W        W95975  40.314  44.979   0.247
27558W        W95976  36.974  25.139  14.820
27559W        W95977  36.948  13.749  13.986
27560W        W95978  24.585  20.214  12.835
27561W        W95979  23.637  27.077  10.987
27562W        W95980   3.857  12.784   2.862
27563W        W95981  34.396   8.660   4.237
27564W        W95982  39.870  35.018  13.821
27565W        W95983  14.741  21.235  14.505
27566W        W95984  41.299  41.315  11.567
27567W        W95985  36.870  21.672   0.920
27568W        W95986   8.809   5.279  11.528
27569W        W95987  35.576  44.763  14.917
27570W        W95988  41.004  22.142  12.986
27571W        W95989  16.619  40.925   0.741
27572W        W95990  14.747  15.579  12.857
27573W        W95991  44.753   2.263  11.568
27574W        W95992  40.519  12.233   1.229
27575W        W95993  31.514  12.844  13.477
27576W        W95994  24.026   1.240  10.427
27577W        W95995  40.355  41.922   1.321
27578W        W95996   8.674  39.907   0.438
27579W        W95997  37.850  13.274  11.879
27580W        W95998  29.010  17.678   3.311
27581W        W95999   0.325  30.959   2.349
27582W        W96000  10.281  28.626  13.878
27583W        W96001   7.207  30.907  10.963
27584W        W96002  23.090   6.331   4.190
27585W        W96003  41.406  27.682   2.320
27586W        W96004   3.446  34.955  12.360
27587W        W96005   5.289  17.641   2.882
27588W        W96006  31.138  25.484  14.804
27589W        W96007  27.975   1.364  13.413
27590W        W96008  20.170  39.373  13.930
27591W        W96009  23.128  32.970  14.331
27592W        W96010  30.530   4.364   0.313
27593W        W96011  31.125  42.000   3.227
27594W        W96012  31.439   4.280   0.395
27595W        W96013  27.472  40.378   3.824
27596W        W96014  10.843  33.381   0.814
27597W        W96015   0.788  33.554   0.766
27598W        W96016  18.562  34.056  14.502
27599W        W96017  35.405   5.840  12.410
27600W        W96018  33.514  33.491  13.015
27601W        W96019  15.633  21.077  13.367
27602W        W96020  14.306  14.690  13.533
27603W        W96021  11.821  32.446   2.188
27604W        W96022  19.772   3.841  12.932
27605W        W96023   7.264  36.372  13.308
27606W        W96024  35.970  11.685  10.937
27607W        W96025  22.698  32.090   0.734
27608W        W96026  15.706  36.981  14.394
27609W        W96027  17.170   8.304  11.010
27610W        W96028  34.106   4.756   4.656
27611W        W96029  23.553  23.544  13.017
27612W        W96030  33.563  16.737  11.960
27613W        W96031   2.442  22.045   5.644
27614W        W96032  13.213   4.306   4.763
27615W        W96033  36.873   1.915  14.883
27616W        W96034  44.808  12.800   0.833
27617W        W96035  19.771  10.696  13.819
27618W        W96036   1.414  27.030   1.842
27619W        W96037  20.104  31.963   4.318
27620W        W96038  20.224  43.781  12.996
27621W        W96039  29.939  32.981  11.113
27622W        W96040  19.674  18.119   4.828
27623W        W96041  21.098   8.734  14.864
27624W        W96042  43.346   1.918   0.945
27625W        W96043  26.012  38.383   3.710
27626W        W96044  23.027   5.832  11.473
27627W        W96045  15.692  14.246  12.540
27628W        W96046  37.495  20.100  13.411
27629W        W96047  30.526  13.725  11.112
27630W        W96048   6.393  43.298  12.881
27631W        W96049   0.791  16.751  10.983
27632W        W96050  26.463  41.406   2.381
27633W        W96051   5.776  10.835  11.565
27634W        W96052   8.400   7.342   1.324
27635W        W96053  39.815  19.601  13.794
27636W        W96054  26.016  32.547  12.386
27637W        W96055  13.193  41.342   2.248
27638W        W96056  38.333  18.580  11.032
27639W        W96057  21.218   1.825  12.409
27640W        W96058  38.510  10.850   0.303
27641W        W96059   8.805  39.382   3.359
27642W        W96060   9.341  10.662  14.873
27643W        W96061   6.894  24.060  10.558
27644W        W96062  40.994  22.685  10.439
27645W        W96063  32.517  43.930  13.889
27646W        W96064  35.921  17.691   0.408
27647W        W96065  30.132  44.325   2.809
27648W        W96066  30.604  10.316  13.815
27649W        W96067  27.008  37.011   2.206
27650W        W96068  13.273  38.886   2.236
27651W        W96069  30.642  28.549  12.051
27652W        W96070  15.775  20.044   0.369
27653W        W96071  44.776  26.145   1.319
27654W        W96072  31.093   9.649   1.242
27655W        W96073  28.587  35.928  14.471
27656W        W96074  18.069  42.498   4.267
27657W        W96075  27.979  26.626  11.948
27658W        W96076  36.033  11.760   2.256
27659W        W96077  38.917  10.759  11.476
27660W        W96078   8.820   9.210  12.382
27661W        W96079  33.561   1.403   4.210
27662W        W96080  20.268  12.355   4.820
27663W        W96081  11.163  36.408   4.673
27664W        W96082  18.269  31.436  11.965
27665W        W96083  23.004  14.099  13.369
27666W        W96084  31.979  43.821  11.910
27667W        W96085   5.356  25.527   2.297
27668W        W96086  18.095  10.284   3.831
27669W        W96087  15.124   6.915   2.866
27670W        W96088  18.572   3.951   0.444
27671W        W96089   5.859  29.154   4.756
27672W        W96090  26.593   3.770   2.825
27673W        W96091   1.396   1.850  10.996
27674W        W96092  42.288  29.996   0.934
27675W        W96093   2.324  22.583   5.135
27676W        W96094  10.731  28.507   0.463
27677W        W96095  19.726  24.541   0.919
27678W        W96096  33.612  13.347   3.631
27679W        W96097  34.037  37.857  14.871
27680W        W96098   9.170  23.117   0.828
27681W        W96099   7.233  16.241  14.420
27682W        W96100  43.372  38.911  10.576
27683W        W96101  44.989  23.529   9.592
27684W        W96102  12.357   2.254  10.480
27685W        W96103  25.128   0.349  14.510
27686W        W96104  42.330  16.790   4.627
27687W        W96105  36.962  43.348   3.194
27688W        W96106   1.904  43.354  13.383
27689W        W96107   2.417  11.134  13.320
27690W        W96108  10.181  34.041  10.967
27691W        W96109  23.986  37.496   2.395
27692W        W96110  28.548  11.749  13.020
27693W        W96111   5.711  13.842   0.319
27694W        W96112  21.213  18.697  11.552
27695W        W96113  19.187  13.134  14.490
27696W        W96114  26.013  21.683   3.185
27697W        W96115   8.869  17.654   3.345
27698W        W96116   4.791  14.710  14.822
27699W        W96117  13.844  36.555   4.211
27700W        W96118  24.128  34.486  13.534
27701W        W96119   4.261   8.258   1.888
27702W        W96120  38.828  31.025  12.926
27703W        W96121  33.529   0.326  13.042
27704W        W96122  35.418  34.558   4.626
27705W        W96123  30.085  13.163  11.122
27706W        W96124  36.532  41.408  11.385
27707W        W96125   3.795  36.047   5.204
27708W        W96126   3.392  17.064   0.905
27709W        W96127  17.084  28.035  12.508
27710W        W96128  29.557  14.166  11.933
27711W        W96129  42.827  28.636   3.215
27712W        W96130  33.492   1.928  11.889
27713W        W96131   1.821  14.314   2.663
27714W        W96132   6.917  10.207  13.925
27715W        W96133  23.991   8.729   1.226
27716W        W96134  13.241  26.541  10.969
27717W        W96135  35.552  29.560   4.272
27718W        W96136  29.004  28.478   4.118
27719W        W96137  36.868  29.054   1.897
27720W        W96138  16.597  27.002   2.274
27721W        W96139  28.651  44.803  12.965
27722W        W96140  43.453  13.315   0.461
27723W        W96141   3.217   3.783   4.226
27724W        W96142   5.827  18.707   0.350
27725W        W96143   9.789  10.796  11.002
27726W        W96144  31.614  15.752   0.475
27727W        W96145  27.033  10.365   3.740
27728W        W96146  32.477   8.361   0.469
27729W        W96147  17.774  23.577  13.878
27730W        W96148  29.103  16.147  11.880
27731W        W96149   2.306  20.226   1.317
27732W        W96150  19.584  16.295  13.062
27733W        W96151  20.625   8.369   2.301
27734W        W96152   3.746  28.624  11.018
27735W        W96153  40.498  36.464   3.356
27736W        W96154  25.678   2.312  11.583
27737W        W96155  33.907  23.061   2.667
27738W        W96156  22.517  35.431   3.828
27739W        W96157  16.590  29.456  13.430
27740W        W96158  32.623  27.594   4.832
27741W        W96159  20.763  41.948  11.450
27742W        W96160  36.593  25.063   1.717
27743W        W96161  37.909  25.168   2.900
27744W        W96162   9.707   8.211   1.754
27745W        W96163  29.026   5.345  14.469
27746W        W96164  27.567   9.664  14.020
27747W        W96165  33.579  19.623   2.785
27748W        W96166  35.891   6.765  13.973
27749W        W96167  25.052  21.204  13.496
27750W        W96168  15.294  28.608  11.589
27751W        W96169  28.559  40.429   2.719
27752W        W96170  10.812   3.940   2.217
27753W        W96171  15.158  18.121   1.741
27754W        W96172  34.920  37.433   0.802
27755W        W96173  22.733  37.489  14.808
27756W        W96174  40.495   4.396  12.033
27757W        W96175   4.295  15.819   2.736
27758W        W96176  37.056  24.183  10.918
27759W        W96177  21.618  39.971  12.490
27760W        W96178  24.112   1.864   2.809
27761W        W96179  20.117  44.336   2.852
27762W        W96180  40.341   6.774  13.445
27763W        W96181  35.993  10.174  12.044
27764W        W96182  32.996   2.851   4.138
27765W        W96183  29.513  33.063   0.267
27766W        W96184  44.945  35.512  13.949
27767W        W96185  30.554  37.057   4.292
27768W        W96186   4.277  12.164  12.087
27769W        W96187  11.689   3.889  14.514
27770W        W96188  15.183  33.060   1.261
27771W        W96189  36.515  24.571   3.840
27772W        W96190  35.593  25.071   4.121
27773W        W96191  15.597  34.460  13.988
27774W        W96192  41.500  20.062  12.890
27775W        W96193  36.503  31.481  13.482
27776W        W96194  33.579  19.178   4.294
27777W        W96195  43.308  37.880  13.411
27778W        W96196  38.406  29.126   2.341
27779W        W96197  22.055  31.004   1.213
27780W        W96198  44.272  11.150   1.276
27781W        W96199   7.323   5.409   3.292
27782W        W96200  34.991  18.779   2.378
27783W        W96201  15.619  12.766   0.801
27784W        W96202  20.069  30.465  11.932
27785W        W96203  25.491  18.262  14.516
27786W        W96204  28.011  13.698  14.979
27787W        W96205  28.935  43.382   3.745
27788W        W96206  36.016  31.129  11.579
27789W        W96207  21.131  29.477   1.697
27790W        W96208  32.896  32.918  11.497
27791W        W96209  43.999  16.701  14.995
27792W        W96210  38.872  13.740   1.401
27793W        W96211  22.700  30.610  12.871
27794W        W96212  40.995  10.351  10.624
27795W        W96213   2.853  12.272   1.867
27796W        W96214  43.461  18.736   3.671
27797W        W96215  10.365  34.512   1.843
27798W        W96216   2.378   1.928   3.214
27799W        W96217   4.743   1.450   3.662
27800W        W96218  20.054  12.806  14.024
27801W        W96219  34.463  29.005   2.889
27802W        W96220   4.865   0.357   0.854
27803W        W96221   2.782   2.326   0.473
27804W        W96222  37.469   3.867  14.445
27805W        W96223  35.386  41.412   3.863
27806W        W96224  20.652  20.232  11.086
27807W        W96225  25.991  12.616  11.504
27808W        W96226  32.076  34.484  14.027
27809W        W96227  26.670  44.458   2.272
27810W        W96228  23.678  17.763  12.087
27811W        W96229  33.071  26.972   2.285
27812W        W96230  10.349  33.386  12.000
27813W        W96231  32.126   7.859  11.584
27814W        W96232  10.704  21.547   1.780
27815W        W96233  39.996   0.837  10.518
27816W        W96234  36.051  38.445   0.381
27817W        W96235  16.567  31.147  12.861
27818W        W96236  15.754  27.494  11.431
27819W        W96237  22.565  23.211  12.894
27820W        W96238  12.843  22.567  11.973
27821W        W96239  14.263  12.617  12.868
27822W        W96240  38.070  41.521   4.330
27823W        W96241  11.777  19.150  13.416
27824W        W96242  34.115   6.394   2.356
27825W        W96243  19.087  43.813   0.263
27826W        W96244  33.015   6.865   2.182
27827W        W96245  37.926  44.771   3.194
27828W        W96246  25.058   8.811  13.896
27829W        W96247   8.379  25.608   3.835
27830W        W96248   0.272   1.955   2.224
27831W        W96249  26.626  44.348   1.795
27832W        W96250  29.044  12.128  12.960
27833W        W96251  10.656  32.397  12.374
27834W        W96252  33.075  11.339   4.168
27835W        W96253  19.539  34.390   0.741
27836W        W96254  31.034  35.008  14.850
27837W        W96255   8.186  35.380   3.208
27838W        W96256  38.431  26.953   2.365
27839W        W96257  21.257  41.826   0.279
27840W        W96258  30.049  32.041  11.945
27841W        W96259  23.208   3.845  13.535
27842W        W96260  34.397   5.754  11.373
27843W        W96261  23.591   7.885   3.332
27844W        W96262  32.104  43.401   0.314
27845W        W96263   6.292   0.369  10.522
27846W        W96264   2.451  43.854   0.296
27847W        W96265  14.267  18.259   4.616
27848W        W96266  43.287  36.068  14.338
27849W        W96267  17.122   9.188  11.585
27850W        W96268  36.030   9.881   4.254
27851W        W96269  13.345   4.707  12.950
27852W        W96270  19.779  22.705  11.583
27853W        W96271  11.173  20.198   4.201
27854W        W96272  22.667  26.118   1.436
27855W        W96273  44.001  25.629  11.409
27856W        W96274  23.025  12.721   2.236
27857W        W96275  33.516  24.527  10.581
27858W        W96276   1.742  18.072  11.550
27859W        W96277  44.300  13.137   5.736
27860W        W96278  15.611  15.628   2.299
27861W        W96279   6.206  23.078   4.611
27862W        W96280  41.426   8.162  11.050
27863W        W96281  14.750  20.218   0.875
27864W        W96282  24.014  34.047   4.349
27865W        W96283  26.577   7.274  11.029
27866W        W96284  36.485  13.261  10.417
27867W        W96285  44.364  16.125  14.274
27868W        W96286  10.203  41.791   2.667
27869W        W96287  33.504   7.412   1.221
27870W        W96288  43.853  39.041   9.652
27871W        W96289  37.017   0.932   4.117
27872W        W96290   3.836  36.037  11.971
27873W        W96291   3.387  44.334   3.289
27874W        W96292  28.004  13.695  11.543
27875W        W96293   7.911  27.191  12.365
27876W        W96294  21.021  11.279  13.428
27877W        W96295  22.514   6.745  13.944
27878W        W96296  27.644  14.763  14.942
27879W        W96297  16.579  44.978  12.898
27880W        W96298  25.607   6.342   5.153
27881W        W96299  28.646  17.278   1.392
27882W        W96300   5.763   7.187  10.955
27883W        W96301  25.964  41.409  13.332
27884W        W96302  37.951   2.346  14.440
27885W        W96303  16.137  35.106  13.936
27886W        W96304  12.116   0.865   3.870
27887W        W96305  21.736  25.560  11.414
27888W        W96306  21.058   8.842   1.866
27889W        W96307  38.856   0.977   3.815
27890W        W96308  33.072   4.768  11.039
27891W        W96309  31.150  15.173  10.446
27892W        W96310  41.861   0.872  10.501
27893W        W96311  21.665  42.015   3.837
27894W        W96312  43.385   4.927   1.357
27895W        W96313  40.985  33.410   2.707
27896W        W96314  36.860  15.152  14.309
27897W        W96315  27.105  35.024  10.974
27898W        W96316  33.981  16.643   3.654
27899W        W96317  18.711  22.505  11.382
27900W        W96318  30.443  17.784   0.833
27901W        W96319  25.202  27.526  13.008
27902W        W96320   5.690   2.354   0.413
27903W        W96321  42.882  27.526  13.369
27904W        W96322  24.104  44.289   0.426
27905W        W96323  36.046  38.822  13.452
27906W        W96324  19.255  16.085   1.390
27907W        W96325  26.198  19.749  13.332
27908W        W96326  30.507  19.721   3.235
27909W        W96327  31.089  14.272   4.838
27910W        W96328  11.139  11.750   2.413
27911W        W96329  44.873  23.163   5.794
27912W        W96330  18.220  30.072   4.257
27913W        W96331  13.742   9.880   2.863
27914W        W96332  30.491  20.196   1.767
27915W        W96333  34.084  24.586   1.726
27916W        W96334   0.788   2.770   1.371
27917W        W96335  28.507   5.255   2.808
27918W        W96336  38.926  19.662   2.680
27919W        W96337  26.955  42.352   3.819
27920W        W96338   2.237  39.368  14.887
27921W        W96339  24.659   7.375   4.778
27922W        W96340   1.315  30.051   4.648
27923W        W96341  13.651   3.441  12.515
27924W        W96342  22.142  27.512   2.237
27925W        W96343   6.285  27.530  10.559
27926W        W96344  20.606  20.570   1.894
27927W        W96345  25.135  41.449   1.891
27928W        W96346  39.908   4.338  11.458
27929W        W96347   0.271   1.409   3.736
27930W        W96348  14.310  43.356   5.122
27931W        W96349  12.738  41.946   3.817
27932W        W96350  35.500  14.329  10.506
27933W        W96351  11.773  24.489  13.926
27934W        W96352   1.422  20.565   4.739
27935W        W96353  17.279  26.568   2.187
27936W        W96354  16.140   5.708   2.378
27937W        W96355  44.299  30.608   2.789
27938W        W96356   7.326  15.717   2.306
27939W        W96357   8.838  26.025   0.857
27940W        W96358  42.429  20.656  14.789
27941W        W96359   3.281   6.692   4.798
27942W        W96360  24.020  15.824   3.719
27943W        W96361   9.702  18.574   2.400
27944W        W96362  29.648   0.921   0.303
27945W        W96363  22.508  28.512  13.505
27946W        W96364  17.095  22.174   0.804
27947W        W96365  31.492  20.106   4.671
27948W        W96366  28.009   2.849   3.752
27949W        W96367  18.787  14.183  12.562
27950W        W96368   7.306  28.492  13.425
27951W        W96369  10.703  26.673   2.668
27952W        W96370  29.046   8.730   5.275
27953W        W96371   2.387  27.154  10.504
27954W        W96372   0.788   1.241  12.013
27955W        W96373  10.247  40.870  10.568
27956W        W96374   1.961   2.940  12.007
27957W        W96375  35.369  19.053  11.896
27958W        W96376  37.493  20.742   2.181
27959W        W96377   8.668   6.266   2.690
27960W        W96378  21.730  26.959  11.545
27961W        W96379  29.668  31.146  10.493
27962W        W96380  40.415  23.984  12.885
27963W        W96381  23.009  40.325  11.045
27964W        W96382  13.252  16.213   0.780
27965W        W96383  37.955  13.667   3.353
27966W        W96384  27.555   8.324   2.712
27967W        W96385   2.450  40.987  12.977
27968W        W96386  11.340  23.024  14.371
27969W        W96387  15.650  33.030   4.334
27970W        W96388  10.682  40.924  13.023
27971W        W96389  24.640   5.738  11.485
27972W        W96390  22.622  32.938   0.874
27973W        W96391  14.651  42.310   4.728
27974W        W96392  40.931  37.936   4.287
27975W        W96393  34.991  15.692   2.823
27976W        W96394  25.055  24.043   1.709
27977W        W96395  36.989  28.103   4.208
27978W        W96396   7.833  12.616   0.778
27979W        W96397  36.008  40.042  11.920
27980W        W96398   7.360  20.560  12.484
27981W        W96399  11.253   0.366   4.660
27982W        W96400  20.575   8.876   3.384
27983W        W96401  18.731  39.039  13.016
27984W        W96402  12.765  17.098   1.400
27985W        W96403   6.390  22.581  11.904
27986W        W96404  12.690  14.120  10.458
27987W        W96405   0.839  21.030   3.251
27988W        W96406   8.401  36.976  11.090
27989W        W96407  16.284  36.866  11.417
27990W        W96408  42.313   0.401   2.358
27991W        W96409   6.879  11.231  14.507
27992W        W96410  44.837  24.644  12.997
27993W        W96411  10.755  16.171   2.201
27994W        W96412  32.089  38.518   1.811
27995W        W96413  15.741  33.949  14.862
27996W        W96414  40.910  19.060   2.380
27997W        W96415  29.160  29.661  12.970
27998W        W96416  16.183  29.490   4.742
27999W        W96417   5.257  23.240  11.863
28000W        W96418  44.403  17.252   2.702
28001W        W96419   0.857  42.288  14.859
28002W        W96420   5.784  44.294   2.280
28003W        W96421  10.830  34.529  14.337
28004W        W96422  20.091   3.902  12.559
28005W        W96423   6.865   3.271   3.299
28006W        W96424  19.594  11.340   2.338
28007W        W96425  39.989  33.524  13.959
28008W        W96426  11.300  26.968   1.844
28009W        W96427  17.178  28.600  11.908
28010W        W96428   3.419  26.005   1.259
28011W        W96429  32.120  20.647   0.831
28012W        W96430   9.648  33.491  12.891
28013W        W96431  23.209  28.058  14.834
28014W        W96432  25.184  30.457   1.868
28015W        W96433  20.266  16.125  14.784
28016W        W96434  34.884   6.333  12.473
28017W        W96435  12.752  30.630   3.661
28018W        W96436  17.603  17.560   1.758
28019W        W96437   4.250  13.268   1.846
28020W        W96438  25.697  38.423   0.349
28021W        W96439  13.685   1.351   1.238
28022W        W96440  20.695  17.610  12.986
28023W        W96441  23.158  32.885  12.024
28024W        W96442  22.148  18.615  14.414
28025W        W96443  29.158  18.598   3.266
28026W        W96444   6.187  11.138   1.336
28027W        W96445  39.843  24.192   2.754
28028W        W96446  19.745  41.461  14.319
28029W        W96447  41.402   5.216   1.767
28030W        W96448  41.524   5.313  14.963
28031W        W96449  19.089   5.235   3.670
28032W        W96450  13.789   6.249   9.472
28033W        W96451  27.009  11.306   0.367
28034W        W96452  12.852   7.268   0.892
28035W        W96453  37.002  34.510  11.566
28036W        W96454  31.915  25.135   9.934
28037W        W96455  44.890  35.457   2.849
28038W        W96456  26.996  17.079   1.763
28039W        W96457  37.874  43.876  10.440
28040W        W96458  36.426  17.186   0.440
28041W        W96459   1.754  20.659   2.813
28042W        W96460  25.127   9.196  10.981
28043W        W96461  39.934  25.986  14.424
28044W        W96462  34.994  36.909  10.995
28045W        W96463  29.499  28.599   4.708
28046W        W96464  15.255  40.367   2.287
28047W        W96465  30.491  14.805  10.467
28048W        W96466  32.023  26.504   2.895
28049W        W96467   6.334  19.642   0.934
28050W        W96468  27.465  28.556  13.925
28051W        W96469  31.613   2.737  14.778
28052W        W96470   6.391  36.427  13.408
28053W        W96471   3.739  11.726  11.856
28054W        W96472  12.653  37.978  12.828
28055W        W96473  20.675  41.420  12.084
28056W        W96474  16.752  36.023   1.809
28057W        W96475  14.234   7.860  12.576
28058W        W96476  35.567  20.248  11.885
28059W        W96477  18.120  14.313  11.481
28060W        W96478  40.826  28.084  13.361
28061W        W96479  24.481   3.809  13.852
28062W        W96480  44.880   7.909  10.970
28063W        W96481  24.017  34.107   0.436
28064W        W96482  19.659   7.714  12.049
28065W        W96483  12.261   7.394   3.831
28066W        W96484   3.885  28.965   4.677
28067W        W96485  29.630  17.216  12.505
28068W        W96486  12.289  13.266   0.855
28069W        W96487  29.095  40.867   4.244
28070W        W96488  10.746  31.044   1.897
28071W        W96489  44.859   5.912   3.853
28072W        W96490   9.782   1.969  11.958
28073W        W96491  31.554  11.146  14.909
28074W        W96492  29.668  17.160   2.663
28075W        W96493   3.408  12.186   3.253
28076W        W96494  14.595   6.398   1.349
28077W        W96495  37.385  27.626  12.093
28078W        W96496  38.948  17.258  13.332
28079W        W96497  13.232  37.470   2.748
28080W        W96498  26.175  32.547   2.887
28081W        W96499  20.144  31.934  11.935
28082W        W96500  41.443  42.463  10.559
28083W        W96501  21.069  41.333   2.417
28084W        W96502  28.943  18.284   4.330
28085W        W96503  27.048  19.241  10.405
28086W        W96504  15.598   1.480  13.828
28087W        W96505  15.299   5.893  10.119
28088W        W96506  26.993  39.320   3.202
28089W        W96507  20.651  34.586  14.994
28090W        W96508   1.239  44.810   3.756
28091W        W96509  31.906  22.090  14.772
28092W        W96510  13.245  43.442   1.380
28093W        W96511  25.692  16.107  13.999
28094W        W96512   6.826   9.276  11.062
28095W        W96513  35.039  42.023  14.773
28096W        W96514  23.590   2.326   2.779
28097W        W96515  19.577  26.199   2.375
28098W        W96516  43.386  34.424  12.929
28099W        W96517  35.922  13.767  13.434
28100W        W96518  12.696   7.677  12.462
28101W        W96519  41.446   5.267  10.556
28102W        W96520  44.499   1.468  11.549
28103W        W96521  36.004  22.174   2.697
28104W        W96522  41.835  26.021   3.820
28105W        W96523  10.745  10.383  10.478
28106W        W96524  27.566  12.809  11.414
28107W        W96525  23.659  17.711   0.297
28108W        W96526   6.802  40.923  12.523
28109W        W96527  32.998   0.275  11.536
28110W        W96528  40.399   8.723   4.158
28111W        W96529  39.428  37.384   2.738
28112W        W96530  11.800  22.712   5.225
28113W        W96531  17.758  12.264  14.501
28114W        W96532  10.651  21.036  14.906
28115W        W96533  30.582   4.715  10.415
28116W        W96534  16.765  15.701  11.966
28117W        W96535  32.075   5.799  11.414
28118W        W96536  20.145  12.651  13.534
28119W        W96537  40.392  21.665  13.317
28120W        W96538  16.725  28.070  13.859
28121W        W96539  32.011  30.162   1.404
28122W        W96540  29.930  34.873  11.955
28123W        W96541  39.519   9.794  12.923
28124W        W96542  26.559   8.668  12.829
28125W        W96543  30.039  24.543  14.440
28126W        W96544   0.464  15.263   1.732
28127W        W96545   9.652  28.593   0.810
28128W        W96546  10.235  29.002   2.278
28129W        W96547   6.300  40.397   3.274
28130W        W96548  30.624  33.491   3.738
28131W        W96549  13.697  18.622   3.379
28132W        W96550  24.063  10.658  14.777
28133W        W96551   8.689  13.697   3.839
28134W        W96552  31.058  11.624  11.998
28135W        W96553   4.899   2.772  12.340
28136W        W96554  27.644  11.799  14.358
28137W        W96555  29.098   2.902  14.784
28138W        W96556  15.583  35.090  12.853
28139W        W96557  27.623  41.416  14.455
28140W        W96558  29.041  29.026   0.434
28141W        W96559  13.317  14.290  13.869
28142W        W96560  14.194  10.693  10.443
28143W        W96561  31.113  13.126  12.413
28144W        W96562  19.649  40.336  13.375
28145W        W96563  30.058  12.788  13.420
28146W        W96564  23.602   5.758  11.083
28147W        W96565  21.200  18.253   9.985
28148W        W96566   9.832  42.791  13.875
28149W        W96567   0.832  12.645  12.886
28150W        W96568   3.726  37.015   4.662
28151W        W96569   3.316  23.666   3.739
28152W        W96570  10.140  29.046  10.590
28153W        W96571   3.739  36.911   4.296
28154W        W96572  17.099  30.557  10.135
28155W        W96573  39.988  23.698  12.509
28156W        W96574  30.930  32.532   0.308
28157W        W96575  19.095  42.836   0.297
28158W        W96576  24.070  22.231  12.408
28159W        W96577  33.615   8.741   1.853
28160W        W96578   9.238  24.720   2.349
28161W        W96579  42.526   3.230  14.782
28162W        W96580  31.029  29.968  12.855
28163W        W96581   8.772   0.792  13.433
28164W        W96582   4.350   8.686   2.807
28165W        W96583   3.712  11.305  12.873
28166W        W96584  34.492  16.258  13.889
28167W        W96585  38.938   1.773   4.244
28168W        W96586   2.861  42.777   2.278
28169W        W96587  34.406  14.271   3.823
28170W        W96588  11.338  34.058   3.732
28171W        W96589   1.478  20.696  14.462
28172W        W96590  30.518   0.318  11.914
28173W        W96591  40.500  25.030   3.755
28174W        W96592  26.973  23.075  14.403
28175W        W96593  40.303  43.908   0.273
28176W        W96594  17.198   3.785  13.028
28177W        W96595  44.991  33.009  14.793
28178W        W96596  41.430  19.152   2.834
28179W        W96597  28.172  19.536  13.328
28180W        W96598   6.345  19.753  14.905
28181W        W96599  20.680  37.832   4.703
28182W        W96600  28.462   2.778   3.745
28183W        W96601  41.925   2.462   4.187
28184W        W96602  24.016   7.317  12.992
28185W        W96603  14.799  36.029  12.891
28186W        W96604  44.453  25.477  11.920
28187W        W96605  32.889  22.661  10.449
28188W        W96606  28.142  38.980  10.507
28189W        W96607   6.835  20.212   3.701
28190W        W96608  26.114  21.525  12.003
28191W        W96609  18.565   4.921  10.077
28192W        W96610  35.446   6.901   0.776
28193W        W96611   6.865  37.438   4.707
28194W        W96612  22.080  24.503  13.388
28195W        W96613   2.946   1.284  14.032
28196W        W96614   7.234  43.481   2.315
28197W        W96615  25.643   8.308  10.577
28198W        W96616   2.445  10.208   5.282
28199W        W96617  17.061  23.521   4.186
28200W        W96618  15.317   7.878  12.095
28201W        W96619  20.092   1.296   3.169
28202W        W96620  19.171  43.781   3.752
28203W        W96621  37.006  20.531  13.035
28204W        W96622  10.269   3.305   9.961
28205W        W96623  33.973  36.561  12.858
28206W        W96624  43.921  14.731  13.492
28207W        W96625   7.340  15.767  14.332
28208W        W96626  39.510   8.256   4.834
28209W        W96627   9.222  28.105   2.900
28210W        W96628  10.142  28.639  14.279
28211W        W96629  16.652   5.759   0.830
28212W        W96630   4.369  21.554  14.317
28213W        W96631  40.967  37.516   1.329
28214W        W96632  10.303  36.357  11.481
28215W        W96633   3.772   5.239  14.013
28216W        W96634  30.947  31.643  12.081
28217W        W96635  36.524  31.583  12.423
28218W        W96636   1.424   9.389  11.398
28219W        W96637  14.656  41.902  12.051
28220W        W96638  18.272   7.311  14.809
28221W        W96639   9.154  44.815   2.780
28222W        W96640  11.289  13.246  10.642
28223W        W96641  16.172  32.573  11.027
28224W        W96642  25.092  30.967   2.888
28225W        W96643  35.003  40.542  12.824
28226W        W96644  32.039   5.755   1.413
28227W        W96645   9.305  26.072   3.333
28228W        W96646  11.331  22.600  12.430
28229W        W96647  41.301  29.980   4.279
28230W        W96648  10.868  38.935   0.889
28231W        W96649  10.638   9.348  13.423
28232W        W96650  31.608  36.419  10.528
28233W        W96651  33.465   6.727  12.430
28234W        W96652  36.980  38.425  12.404
28235W        W96653  35.919  32.905  13.982
28236W        W96654   2.742  38.910   4.729
28237W        W96655  22.101  28.018  12.524
28238W        W96656  27.191   7.297   1.270
28239W        W96657  44.378  20.192   1.745
28240W        W96658  42.332  40.485  14.441
28241W        W96659  14.282  38.348   4.764
28242W        W96660   6.187  14.737   0.453
28243W        W96661  28.452  30.474  13.806
28244W        W96662  26.018  36.903   1.358
28245W        W96663  21.223   8.223  12.017
28246W        W96664  44.873   7.278  14.832
28247W        W96665   3.940  39.864   2.724
28248W        W96666  30.113   4.409  10.407
28249W        W96667  30.108   1.475  13.478
28250W        W96668  30.131   9.246   3.648
28251W        W96669  43.963  30.605  11.973
28252W        W96670  18.112  35.103   4.149
28253W        W96671  25.182  38.932  14.502
28254W        W96672  39.028   7.339   1.284
28255W        W96673  42.786  38.502   4.642
28256W        W96674  43.981  33.072  14.346
28257W        W96675  10.290  21.575  14.456
28258W        W96676  34.060  29.614  11.975
28259W        W96677  37.865  31.624   2.752
28260W        W96678  40.813  41.932   4.706
28261W        W96679  34.571  29.092  12.471
28262W        W96680  32.119   2.244   4.211
28263W        W96681  33.542  32.132   1.850
28264W        W96682  43.795  41.527   1.296
28265W        W96683  14.167  24.127   2.390
28266W        W96684   0.374  43.937   3.164
28267W        W96685   5.926  34.924   3.778
28268W        W96686  18.216   3.447  13.850
28269W        W96687  37.379  37.934   2.213
28270W        W96688  44.413  43.336   0.420
28271W        W96689  30.537  10.156  11.378
28272W        W96690  14.637  31.126  13.798
28273W        W96691  32.449  22.216  11.372
28274W        W96692   6.892   1.429   1.727
28275W        W96693  30.021  21.068   4.204
28276W        W96694   3.274  43.799  12.912
28277W        W96695  11.791   5.329  12.371
28278W        W96696  25.655  27.465   0.955
28279W        W96697  37.479  30.131   2.218
28280W        W96698   4.854  22.559   1.748
28281W        W96699  10.829  17.594  14.026
28282W        W96700  27.089   8.327  12.976
28283W        W96701  15.643  22.644   2.735
28284W        W96702  40.469  35.863  14.820
28285W        W96703   1.894  16.669  11.541
28286W        W96704  20.542  34.087   0.324
28287W        W96705  37.985   0.871   0.739
28288W        W96706  15.726  21.541   0.478
28289W        W96707  25.174  34.989  11.416
28290W        W96708  38.934  13.648   0.420
28291W        W96709   5.366  33.032   1.402
28292W        W96710  11.782  36.382   2.314
28293W        W96711   0.272  28.025  10.914
28294W        W96712  13.814  17.218  12.872
28295W        W96713  15.806  34.908   1.393
28296W        W96714  14.154  12.339   0.353
28297W        W96715  33.604   8.315  13.850
28298W        W96716  20.197   6.304  12.028
28299W        W96717  34.936   1.929   3.782
28300W        W96718  41.505   1.960   4.601
28301W        W96719  18.651  36.527   3.644
28302W        W96720   7.383  11.638   0.469
28303W        W96721  12.317  12.134  12.898
28304W        W96722  34.068  18.273  12.413
28305W        W96723  22.629  12.801   4.175
28306W        W96724  26.538   6.703  11.027
28307W        W96725  33.614  18.070  11.513
28308W        W96726  19.266  31.143  10.518
28309W        W96727   6.225   7.669   4.807
28310W        W96728  29.160   7.349   0.267
28311W        W96729   9.237  15.229  14.031
28312W        W96730  34.092  25.613  14.473
28313W        W96731  40.953  10.810   3.714
28314W        W96732  13.806  28.167   1.760
28315W        W96733  11.127  23.633   2.298
28316W        W96734  33.598   7.401   2.325
28317W        W96735  41.334   5.278  12.355
28318W        W96736  13.340  20.112  10.542
28319W        W96737  10.866  20.151   4.301
28320W        W96738  21.519  26.599   2.725
28321W        W96739  18.686  23.729   2.740
28322W        W96740  29.122  35.880   4.707
28323W        W96741   1.865  37.544  11.409
28324W        W96742  19.072   4.927   1.214
28325W        W96743  35.489  26.127  12.390
28326W        W96744  28.571   8.169  10.463
28327W        W96745  18.615  22.711  12.041
28328W        W96746  43.443  22.648  11.533
28329W        W96747  19.064  31.411   0.801
28330W        W96748  15.303  35.413  11.066
28331W        W96749  11.843  16.112  12.965
28332W        W96750  22.158  19.244   4.218
28333W        W96751  20.181  20.614   4.671
28334W        W96752  30.541  37.972   2.326
28335W        W96753  32.476  34.504   1.909
28336W        W96754  21.216   7.386  12.575
28337W        W96755  43.277  22.206  11.423
28338W        W96756  41.946  19.261   2.414
28339W        W96757  20.262  13.799  14.987
28340W        W96758  24.978  14.177  12.838
28341W        W96759  27.137  16.648   2.200
28342W        W96760  35.570  18.565   2.879
28343W        W96761  14.825  34.478  11.893
28344W        W96762   9.394  20.065  11.489
28345W        W96763  38.380  23.129   3.639
28346W        W96764  43.835  37.067   0.748
28347W        W96765  22.088  38.482  10.566
28348W        W96766  21.649  17.618  13.018
28349W        W96767  31.568   5.733   3.249
28350W        W96768  34.019  23.604  12.864
28351W        W96769   0.823  36.445   3.154
28352W        W96770  26.583  27.958   0.908
28353W        W96771  32.959  11.737  10.535
28354W        W96772  22.082  18.287  11.114
28355W        W96773  32.936  13.115  13.995
28356W        W96774  15.162  11.333  12.487
28357W        W96775  40.836  41.868  13.418
28358W        W96776  14.297  40.981  12.829
28359W        W96777  21.156  34.388   1.330
28360W        W96778  44.924   4.698   3.842
28361W        W96779   4.377  26.054  13.310
28362W        W96780  36.533  40.519   3.161
28363W        W96781  19.703  38.329  14.900
28364W        W96782  27.646  33.581   4.665
28365W        W96783  43.017  29.023   3.835
28366W        W96784  17.148  28.932  10.562
28367W        W96785  17.592  21.236  10.576
28368W        W96786  28.113   0.857   4.643
28369W        W96787  18.283  36.508  12.362
28370W        W96788  10.713   1.804  10.632
28371W        W96789  19.162  42.398  11.093
28372W        W96790   2.757  34.542  12.067
28373W        W96791  21.719  19.583   2.312
28374W        W96792  25.512  20.526   0.916
28375W        W96793   9.780  27.055  11.989
28376W        W96794  43.489  20.044   3.633
28377W        W96795  43.943  21.696   3.383
28378W        W96796  35.062   8.842   1.307
28379W        W96797  37.065  10.695   2.872
28380W        W96798  22.699  21.684  13.523
28381W        W96799  27.049  22.072  12.990
28382W        W96800  41.373  37.514   3.758
28383W        W96801  26.473   8.783   3.342
28384W        W96802  13.746  16.296   0.861
28385W        W96803   1.346   4.824   3.277
28386W        W96804  32.464  26.207  12.834
28387W        W96805  12.332   3.814  11.396
28388W        W96806  37.914  25.567   1.914
28389W        W96807  10.317   6.223  13.445
28390W        W96808  35.074  41.008  12.967
28391W        W96809  16.250  26.094  10.926
28392W        W96810  39.453   8.838   2.391
28393W        W96811   1.411   3.346   0.843
28394W        W96812   7.700   2.880  14.476
28395W        W96813  26.655  30.479  14.511
28396W        W96814  27.497   5.918  10.639
28397W        W96815  22.072   3.251   1.295
28398W        W96816  25.506  22.149   3.294
28399W        W96817  28.048  35.513  10.496
28400W        W96818  15.268  11.859   1.758
28401W        W96819  10.796  36.071  13.410
28402W        W96820  33.073  25.598   1.734
28403W        W96821  12.631   0.451  13.973
28404W        W96822   5.697  35.053   0.947
28405W        W96823  39.971  42.295  12.956
28406W        W96824   1.957  19.552  13.397
28407W        W96825  20.682  22.655   3.747
28408W        W96826  11.819  29.035   3.180
28409W        W96827   7.295  18.141  13.404
28410W        W96828  32.585  22.049  12.951
28411W        W96829  26.159  36.938  14.443
28412W        W96830  24.104  40.050   0.940
28413W        W96831   7.252   5.214  14.372
28414W        W96832  14.813  23.591   1.407
28415W        W96833  38.519  24.137   1.855
28416W        W96834   6.278   1.794  13.036
28417W        W96835  21.216  16.223   4.748
28418W        W96836  40.448  15.591  14.870
28419W        W96837  20.570  17.719  10.572
28420W        W96838  30.414   5.858  14.474
28421W        W96839  34.866  24.508   4.774
28422W        W96840  34.960   1.275   4.675
28423W        W96841  44.889  32.602  13.394
28424W        W96842  29.045  35.482   3.324
28425W        W96843  19.176  17.149  11.018
28426W        W96844  24.060  11.861   0.834
28427W        W96845  10.861  14.335  11.126
28428W        W96846  10.163  41.471  10.484
28429W        W96847  16.704  23.500   4.706
28430W        W96848  16.640  44.822   4.158
28431W        W96849  22.056  15.663   4.816
28432W        W96850   0.469  44.788   4.277
28433W        W96851   5.873  34.974  12.870
28434W        W96852   1.395  42.883  14.498
28435W        W96853   7.756  29.546   5.160
28436W        W96854  16.141  12.303   1.782
28437W        W96855  35.048  32.918  13.957
28438W        W96856   3.729  21.523  11.422
28439W        W96857  40.960  28.109   1.364
28440W        W96858  14.281  14.166  14.923
28441W        W96859   0.913   3.314   5.302
28442W        W96860  41.943   3.859   0.900
28443W        W96861  26.485  42.468  14.949
28444W        W96862  22.248   7.805  13.813
28445W        W96863  18.756  20.206   2.663
28446W        W96864  12.623   9.290   0.726
28447W        W96865  13.784  18.717  13.836
28448W        W96866  35.062  21.029   4.646
28449W        W96867  12.121   1.892   2.359
28450W        W96868  10.235   5.852  11.402
28451W        W96869  43.927  28.096   2.284
28452W        W96870  44.437  21.568   3.176
28453W        W96871  11.291   5.806  13.454
28454W        W96872   1.386   3.899   2.225
28455W        W96873  22.525   7.412  10.567
28456W        W96874   5.322  32.041  10.158
28457W        W96875   2.441  27.054   4.798
28458W        W96876  26.498  42.335  14.299
28459W        W96877  10.862  19.558  11.446
28460W        W96878  16.151  32.982  10.497
28461W        W96879  31.636  25.022   0.413
28462W        W96880  15.776  24.159  10.945
28463W        W96881  10.693   5.304  10.616
28464W        W96882  31.528  31.614  14.471
28465W        W96883  10.253  14.725   4.639
28466W        W96884   6.692   9.853   2.406
28467W        W96885  18.639  38.826   3.321
28468W        W96886  44.945  30.114   0.726
28469W        W96887  26.062   6.912   2.832
28470W        W96888   3.760  32.084  12.957
28471W        W96889   0.899  29.105   3.631
28472W        W96890  21.644  38.545  10.438
28473W        W96891  17.637  31.142   2.393
28474W        W96892  20.721  10.736   1.798
28475W        W96893  44.336  18.608  14.008
28476W        W96894  28.560  10.251  10.900
28477W        W96895  18.658  43.906  14.309
28478W        W96896  23.081  17.775   0.945
28479W        W96897  10.169  28.171   4.232
28480W        W96898   5.868   9.299  11.553
28481W        W96899  41.374  44.769   0.741
28482W        W96900  41.787   7.197  10.040
28483W        W96901  10.656  44.990  13.003
28484W        W96902  28.454  40.365  10.549
28485W        W96903  17.613  35.929   2.284
28486W        W96904  36.870  24.221   4.256
28487W        W96905  24.044   8.669   3.359
28488W        W96906  21.182  39.046  14.809
28489W        W96907  42.304  21.662   0.850
28490W        W96908  28.464   6.741  10.428
28491W        W96909  18.590   2.811  10.405
28492W        W96910  17.684  34.920   0.445
28493W        W96911  34.487   3.804  12.402
28494W        W96912   7.191   1.381  13.925
28495W        W96913   6.284  11.246  14.503
28496W        W96914  41.513  20.606  12.370
28497W        W96915  25.069   0.960   4.657
28498W        W96916  40.367  35.075  12.447
28499W        W96917  39.497  38.903   0.772
28500W        W96918  43.365  14.696  13.350
28501W        W96919   7.819  12.131  11.907
28502W        W96920  43.990  28.492  12.454
28503W        W96921  36.028   8.753   3.810
28504W        W96922  31.132  42.484   4.349
28505W        W96923   9.846  33.473   2.397
28506W        W96924  33.421   9.714  13.844
28507W        W96925  30.655   4.289  14.907
28508W        W96926  10.355  42.455   0.883
28509W        W96927  16.723   2.831   4.616
28510W        W96928  10.785  30.419  13.981
28511W        W96929   3.450   7.201  12.065
28512W        W96930   1.766   0.364   4.636
28513W        W96931  44.331  27.465   0.882
28514W        W96932  38.520  43.385   0.757
28515W        W96933  23.517  29.430  13.802
28516W        W96934  24.152  19.135   1.913
28517W        W96935  39.893  14.677   3.207
28518W        W96936  19.169  40.987  14.765
28519W        W96937  10.734  39.855   3.255
28520W        W96938  10.320  26.615   2.340
28521W        W96939  25.603   2.833   1.884
28522W        W96940  40.373  44.770   3.801
28523W        W96941  39.431  44.872   4.231
28524W        W96942  23.720  23.517  13.346
28525W        W96943  35.860  21.127  13.965
28526W        W96944  22.064   5.336   3.339
28527W        W96945  35.363  15.174  14.323
28528W        W96946  43.775   1.340  12.994
28529W        W96947   1.848  22.166  11.574
28530W        W96948  41.863   1.443   0.429
28531W        W96949  23.717  26.527  14.916
28532W        W96950  24.483  17.070  10.621
28533W        W96951   8.896  15.589   1.854
28534W        W96952   2.801  40.444   2.763
28535W        W96953  41.490   0.765  12.030
28536W        W96954  39.323  11.170   3.208
28537W        W96955   6.766  38.330   4.671
28538W        W96956  26.059   6.345   2.881
28539W        W96957  28.122   6.822   1.380
28540W        W96958  20.561   5.823   1.356
28541W        W96959   1.425  25.678  12.982
28542W        W96960  25.563   8.753   2.754
28543W        W96961  23.109  44.857  14.867
28544W        W96962  36.391  31.567  10.629
28545W        W96963   7.345  11.311   3.275
28546W        W96964  34.023   9.748   4.746
28547W        W96965  34.096   8.791   0.890
28548W        W96966  23.618  13.669  13.794
28549W        W96967  32.620  27.057  12.836
28550W        W96968  22.069  28.008   3.855
28551W        W96969  32.112  43.457   1.325
28552W        W96970   7.287  25.625   2.711
28553W        W96971  11.660  44.885   3.651
28554W        W96972   4.715  31.457   3.796
28555W        W96973   8.378  17.576  11.920
28556W        W96974  13.845  44.870   4.768
28557W        W96975  35.516  20.540   4.291
28558W        W96976  20.668  17.308   3.182
28559W        W96977  11.648  25.138   2.216
28560W        W96978  39.950  21.590  12.518
28561W        W96979  18.602  11.688  11.982
28562W        W96980   3.721  20.118   4.302
28563W        W96981  12.126  21.676  13.417
28564W        W96982  23.015  38.384  12.354
28565W        W96983  24.059   8.782   1.836
28566W        W96984  39.552  10.796   2.234
28567W        W96985  28.166   5.365  10.579
28568W        W96986   9.220  22.009   1.285
28569W        W96987  41.349  40.821  13.866
28570W        W96988  18.239  41.798  12.069
28571W        W96989  23.997   8.330   1.282
28572W        W96990  22.650  18.294   1.349
28573W        W96991  36.371  42.425   1.896
28574W        W96992  20.523  29.069  11.069
28575W        W96993  33.902  16.315  12.564
28576W        W96994   2.956  13.689   3.228
28577W        W96995  25.471   9.221  12.005
28578W        W96996  33.551   4.205  12.964
28579W        W96997  26.517  15.169  13.475
28580W        W96998  14.332  43.777   0.810
28581W        W96999  28.094  15.301  13.349
28582W        W97000  18.782  37.382   0.367
28583W        W97001  37.858  21.548  12.349
28584W        W97002  23.530   9.326  12.961
28585W        W97003  36.059  22.582   0.759
28586W        W97004  29.044  10.176   2.185
28587W        W97005  38.462  33.053  14.890
28588W        W97006  44.437   0.477   0.938
28589W        W97007  10.252  33.537  13.521
28590W        W97008  38.367  21.114   2.249
28591W        W97009   3.225  39.892  12.462
28592W        W97010  40.957  42.826   3.303
28593W        W97011  26.626  30.151   2.853
28594W        W97012  43.447  18.288  14.848
28595W        W97013  34.110   4.215  13.930
28596W        W97014  32.037   0.476   1.848
28597W        W97015  19.179  26.021   5.579
28598W        W97016  31.433  33.079  14.358
28599W        W97017  40.819  39.041  13.802
28600W        W97018  19.057  32.614  10.505
28601W        W97019  17.708   5.195   4.799
28602W        W97020  13.723  29.622  12.957
28603W        W97021  15.616  37.904   0.469
28604W        W97022   0.857  43.293   2.821
28605W        W97023  35.558   7.410  12.479
28606W        W97024  12.761  29.063  13.931
28607W        W97025  24.216  35.561  12.384
28608W        W97026   7.240  32.447  12.353
28609W        W97027  35.558  36.867  12.360
28610W        W97028  22.679  25.683   1.323
28611W        W97029   1.741  36.961   0.363
28612W        W97030  30.011  30.014   0.407
28613W        W97031  30.144  12.189  13.323
28614W        W97032  44.457  19.215  10.966
28615W        W97033  10.817  11.629  13.493
28616W        W97034  20.569  29.163   3.683
28617W        W97035  17.766  44.782   0.307
28618W        W97036   9.803   7.813  11.904
28619W        W97037  44.810  27.484  11.087
28620W        W97038  36.392   6.877  13.930
28621W        W97039  27.605  37.946   3.723
28622W        W97040  16.785  15.740  14.922
28623W        W97041  37.399  39.916  13.946
28624W        W97042  27.679  34.534   3.709
28625W        W97043   5.919  34.488   1.900
28626W        W97044  12.769  34.027  11.550
28627W        W97045  13.785   8.872   3.764
28628W        W97046  25.191  18.782  13.345
28629W        W97047  35.864  28.067   4.211
28630W        W97048   1.396  16.752  14.412
28631W        W97049  20.590  13.338  14.996
28632W        W97050  22.617  22.689  11.565
28633W        W97051  41.988  25.629   0.482
28634W        W97052   0.258   5.431   0.385
28635W        W97053  24.720  41.835   2.204
28636W        W97054   1.414  34.534   3.787
28637W        W97055  30.547  26.053  13.809
28638W        W97056  35.098   7.843   4.708
28639W        W97057  23.637  39.485  13.391
28640W        W97058  43.446  33.958  10.480
28641W        W97059  30.640  11.785   1.369
28642W        W97060  29.935  34.451   4.330
28643W        W97061  42.388   0.490  13.001
28644W        W97062   0.893  11.182  13.310
28645W        W97063  40.877  31.001  14.320
28646W        W97064  10.740  41.029  11.946
28647W        W97065  25.147  38.036  12.449
28648W        W97066  13.206  18.120   2.241
28649W        W97067   2.259   9.328   0.885
28650W        W97068   0.447  32.092  13.481
28651W        W97069  27.501  20.591  11.535
28652W        W97070  11.320  29.542  14.006
28653W        W97071  29.011  15.769   4.159
28654W        W97072  42.925  44.404  12.997
28655W        W97073  33.971  36.062  12.377
28656W        W97074  37.454  35.079   4.709
28657W        W97075   6.332  34.489  11.070
28658W        W97076   4.354  19.562  10.534
28659W        W97077  42.862  13.315  12.903
28660W        W97078  40.430  14.618   1.336
28661W        W97079  27.990  27.668  14.305
28662W        W97080   8.222  35.593  13.837
28663W        W97081  24.112  39.449   4.758
28664W        W97082   0.949  39.926   0.957
28665W        W97083   5.217  17.633  10.968
28666W        W97084  13.152  32.124  14.010
28667W        W97085   1.291  39.835  10.528
28668W        W97086  11.798  29.495   3.307
28669W        W97087   4.256  31.045  12.519
28670W        W97088  29.968   0.874   3.158
28671W        W97089  37.073  38.063   2.711
28672W        W97090  27.451  17.252  10.439
28673W        W97091  12.617  19.758   4.737
28674W        W97092   4.409  16.171  11.375
28675W        W97093  11.805  37.910  12.015
28676W        W97094  44.432  19.754   5.275
28677W        W97095  21.597  33.112  12.943
28678W        W97096  19.129  29.937   4.179
28679W        W97097  33.971  25.024   0.335
28680W        W97098  21.164  14.602   4.165
28681W        W97099  24.220  28.145   2.862
28682W        W97100  29.919  29.926  11.979
28683W        W97101  21.183  32.619   2.417
28684W        W97102  20.630  10.159  12.036
28685W        W97103  37.516  20.758  11.058
28686W        W97104  15.228  27.456   4.339
28687W        W97105  34.594  18.766  10.485
28688W        W97106  19.722   4.330   4.756
28689W        W97107  40.347   3.826   0.855
28690W        W97108  27.492  30.163  13.874
28691W        W97109  34.441  29.034  14.504
28692W        W97110  31.496  23.544  14.834
28693W        W97111   9.835  16.117  12.882
28694W        W97112  42.031  18.742   2.358
28695W        W97113  40.043  25.080   0.385
28696W        W97114  15.597  23.039   0.879
28697W        W97115   8.315  21.041  12.989
28698W        W97116  24.535   2.340  10.430
28699W        W97117  26.623  11.795   3.791
28700W        W97118  15.643   3.865   1.906
28701W        W97119  43.512  12.638   3.870
28702W        W97120  37.461  12.279   1.806
28703W        W97121  42.927  34.071   2.206
28704W        W97122  12.290   7.215   0.757
28705W        W97123  10.830   8.320   4.764
28706W        W97124   9.726  40.051  13.361
28707W        W97125  18.783  11.364   5.167
28708W        W97126  28.181  16.162  14.286
28709W        W97127  15.762   1.435  12.345
28710W        W97128   9.239   0.901  13.531
28711W        W97129   4.375  18.644   4.735
28712W        W97130  21.552  41.462   2.707
28713W        W97131  29.538  26.607  14.877
28714W        W97132  10.162  41.018  14.420
28715W        W97133  29.521  15.623  14.333
28716W        W97134   9.322  26.619  13.379
28717W        W97135  31.970  35.003  12.944
28718W        W97136  16.189  35.105   3.279
28719W        W97137   2.805  39.908   2.325
28720W        W97138  33.521  15.117   3.714
28721W        W97139  30.907  16.091  12.028
28722W        W97140   1.881  22.081  14.293
28723W        W97141  16.243  36.436  12.399
28724W        W97142  23.039   0.828   1.271
28725W        W97143  15.711  27.959  10.604
28726W        W97144  29.488  33.084   1.934
28727W        W97145  26.476  11.670  14.874
28728W        W97146   1.454  35.096   4.184
28729W        W97147  44.321  19.590   1.839
28730W        W97148  16.132  14.116   5.288
28731W        W97149  33.553  25.072   4.675
28732W        W97150  28.994  18.154   3.751
28733W        W97151  28.937  34.397   4.625
28734W        W97152   3.766  19.756   0.775
28735W        W97153  42.412   7.898   3.816
28736W        W97154  22.676  42.786   0.943
28737W        W97155  22.080  33.023  13.046
28738W        W97156  41.845   5.272  10.442
28739W        W97157  37.530   0.402  14.938
28740W        W97158   6.298  23.584   0.849
28741W        W97159  19.183  38.548   3.312
28742W        W97160  23.132  43.922   2.830
28743W        W97161  35.472  28.002   4.259
28744W        W97162  10.875  32.125  13.970
28745W        W97163  15.289  10.306  11.930
28746W        W97164  37.994  35.391   1.393
28747W        W97165   6.276  10.747  11.917
28748W        W97166  37.449   9.210   1.794
28749W        W97167  21.038  18.609  13.978
28750W        W97168  41.465  18.662  11.962
28751W        W97169   5.417   8.822   3.152
28752W        W97170  11.270  17.253   3.267
28753W        W97171   8.200  13.710   4.188
28754W        W97172  40.960  31.910  13.422
28755W        W97173  20.640   9.673  12.477
28756W        W97174  43.967  24.616   5.759
28757W        W97175  26.644  33.617  13.803
28758W        W97176   2.869  31.621  11.526
28759W        W97177   7.325  27.595  12.976
28760W        W97178  44.400  13.156   1.803
28761W        W97179   3.365  41.435   3.771
28762W        W97180   7.206  36.846  13.438
28763W        W97181  36.932  21.165  14.850
28764W        W97182  26.111  27.974   1.350
28765W        W97183  26.044  32.591   4.152
28766W        W97184  14.830  21.105   5.205
28767W        W97185   0.493  10.794   4.621
28768W        W97186   5.197  13.326  10.622
28769W        W97187   5.367   2.932   1.210
28770W        W97188  25.163   2.318   1.783
28771W        W97189  18.283  12.272  12.553
28772W        W97190   4.841  35.098   2.689
28773W        W97191  30.008   2.839   4.644
28774W        W97192   6.865  27.167   0.726
28775W        W97193  32.596  16.747   2.404
28776W        W97194  16.648   5.227   1.341
28777W        W97195   3.429  30.053   3.169
28778W        W97196  14.122  16.692   1.358
28779W        W97197  12.305  23.238  14.950
28780W        W97198  33.606  21.511  13.375
28781W        W97199  13.715  41.515  14.838
28782W        W97200  13.763  27.066   3.290
28783W        W97201   5.873  10.706  13.886
28784W        W97202  39.319   1.466   4.228
28785W        W97203  21.058   4.869  12.960
28786W        W97204  32.921   8.788  11.912
28787W        W97205  19.064  25.175   1.342
28788W        W97206  14.779  28.111  12.826
28789W        W97207  36.507  30.112  11.948
28790W        W97208   5.431   2.228   4.786
28791W        W97209  13.816  18.294   3.782
28792W        W97210  25.988  28.578   4.599
28793W        W97211   0.862  14.192  12.967
28794W        W97212  18.707  12.628  14.841
28795W        W97213   3.378  32.601  14.789
28796W        W97214  12.676  37.476   3.819
28797W        W97215  15.790   6.223   4.618
28798W        W97216  13.324  27.119   1.310
28799W        W97217  44.304  30.912   1.708
28800W        W97218  17.713  23.589  11.910
28801W        W97219  42.017   3.455  11.103
28802W        W97220  14.229  16.595  11.881
28803W        W97221  44.902  20.175   1.810
28804W        W97222  14.178  39.054   4.686
28805W        W97223  19.159  34.043   1.921
28806W        W97224  41.361  13.266   3.630
28807W        W97225  28.000  27.155  13.905
28808W        W97226  15.695  41.521  14.797
28809W        W97227  37.999  12.219   0.815
28810W        W97228  43.955  41.805   4.724
28811W        W97229  25.113  31.116   4.794
28812W        W97230  33.567  36.530   2.778
28813W        W97231   5.844  16.178  11.566
28814W        W97232   9.828  35.999   2.290
28815W        W97233   8.310  15.245   0.270
28816W        W97234  19.776  42.827   4.779
28817W        W97235   4.361   7.677  12.096
28818W        W97236  38.931  17.100   3.218
28819W        W97237  10.333  38.350   2.294
28820W        W97238  36.381   9.257   3.748
28821W        W97239  21.244  18.702   3.843
28822W        W97240  32.394   9.253  14.328
28823W        W97241  31.053  25.503   2.359
28824W        W97242  15.685  29.640   3.241
28825W        W97243  38.488   9.815   3.179
28826W        W97244  31.050  26.481  11.077
28827W        W97245  38.524  20.589   2.865
28828W        W97246  30.962  11.862  14.773
28829W        W97247  20.119  19.169   4.635
28830W        W97248   6.741  16.591  13.363
28831W        W97249  17.300  41.367   3.265
28832W        W97250   0.314  17.637  14.337
28833W        W97251  27.689  17.285  12.501
28834W        W97252  31.926   3.864  10.971
28835W        W97253  32.461  27.610   0.357
28836W        W97254  30.513  35.896  12.978
28837W        W97255  19.639  13.725  14.878
28838W        W97256  16.205  24.200  14.973
28839W        W97257  12.647  23.033   1.287
28840W        W97258  15.171  32.479  11.420
28841W        W97259  37.078  32.627  11.109
28842W        W97260  42.826  36.980   0.814
28843W        W97261  36.989  42.300   2.865
28844W        W97262  18.724  11.621   3.811
28845W        W97263  26.952  16.109   0.785
28846W        W97264   6.775  22.603   1.330
28847W        W97265   8.696  30.996   2.362
28848W        W97266  44.908  16.238   1.740
28849W        W97267  18.279  17.615   4.223
28850W        W97268  25.985  14.105   0.263
28851W        W97269  35.582  35.374   1.812
28852W        W97270  33.394  31.002  10.500
28853W        W97271  44.505  24.652   3.247
28854W        W97272  36.436  25.984   2.772
28855W        W97273   0.846  19.774  13.851
28856W        W97274  38.467  19.640   3.171
28857W        W97275  26.008   5.287  14.927
28858W        W97276   0.743  43.287   4.138
28859W        W97277   1.430  31.525   3.832
28860W        W97278  40.970  34.436   4.350
28861W        W97279   8.663  40.911   1.714
28862W        W97280  22.242  11.771   2.417
28863W        W97281  10.180  13.653  13.937
28864W        W97282  15.226  34.579   3.647
28865W        W97283  29.003   7.265  13.516
28866W        W97284  23.729  20.566   3.864
28867W        W97285  37.372  29.991   3.727
28868W        W97286  22.159   5.896   2.891
28869W        W97287  29.008  25.991   2.253
28870W        W97288  34.106  30.494   0.290
28871W        W97289  23.576   2.446   3.311
28872W        W97290  20.107  32.569  14.891
28873W        W97291   9.836   9.303   2.286
28874W        W97292  17.782   3.871   0.379
28875W        W97293  25.196  10.315  13.509
28876W        W97294  22.120   9.767   4.709
28877W        W97295  42.868  13.284   2.725
28878W        W97296  11.638  35.557   2.775
28879W        W97297  41.359  28.468   4.762
28880W        W97298  38.945  44.957   5.122
28881W        W97299  28.444  36.394  11.497
28882W        W97300  35.411  21.069   1.929
28883W        W97301  19.084  14.242   2.745
28884W        W97302  28.166  15.665  10.044
28885W        W97303   6.263  28.064  13.428
28886W        W97304  34.939  41.450  14.836
28887W        W97305  30.017  40.464  10.456
28888W        W97306  17.687  42.310  13.360
28889W        W97307   1.471  41.012   0.868
28890W        W97308  25.625  36.950   2.187
28891W        W97309  27.140  28.571  11.884
28892W        W97310   0.434  40.413   3.771
28893W        W97311  14.242  16.686  13.979
28894W        W97312   3.917  34.519  14.455
28895W        W97313  33.124  44.904  13.437
28896W        W97314  38.533  29.084  13.046
28897W        W97315  38.563  38.347  11.403
28898W        W97316  29.993  23.493  13.322
28899W        W97317  16.611  43.447  11.101
28900W        W97318  20.159  13.349   0.481
28901W        W97319  41.804  39.046  13.931
28902W        W97320  22.242  15.610  10.526
28903W        W97321   6.237   0.473   4.313
28904W        W97322   3.947  43.293   1.792
28905W        W97323  20.034   1.966  11.118
28906W        W97324  35.376  44.332  12.949
28907W        W97325  44.771   6.388  13.418
28908W        W97326  33.519  13.818  11.435
28909W        W97327   9.693   9.163  11.097
28910W        W97328  36.042  22.630  12.422
28911W        W97329  23.557  24.067  10.452
28912W        W97330  23.985  28.069   0.454
28913W        W97331  35.416  21.173  13.855
28914W        W97332  43.376  30.658   3.203
28915W        W97333  23.619  14.758   4.189
28916W        W97334  41.869   2.905   3.699
28917W        W97335  14.799  10.285   0.474
28918W        W97336  26.640  31.122   3.327
28919W        W97337  39.470  15.285   0.788
28920W        W97338  27.619  24.617  14.424
28921W        W97339  12.748  44.994   1.720
28922W        W97340  19.218  16.211   0.350
28923W        W97341   2.231  14.230  14.920
28924W        W97342  19.687  44.488  10.955
28925W        W97343  42.914  23.185   0.342
28926W        W97344   6.320  31.077  10.533
28927W        W97345  13.641  24.217  12.882
28928W        W97346  14.610   2.397   0.262
28929W        W97347  38.962  13.630  12.392
28930W        W97348   1.794  18.243   2.688
28931W        W97349  11.796  37.947  14.947
28932W        W97350  29.453  41.304  10.023
28933W        W97351   9.235   1.322  12.071
28934W        W97352  39.489   5.346   0.319
28935W        W97353   0.801  20.047   9.588
28936W        W97354  37.388  34.570  11.061
28937W        W97355   2.744  35.862   2.418
28938W        W97356   8.869   3.745   0.738
28939W        W97357  23.235  30.991   3.163
28940W        W97358  37.085   1.769   0.764
28941W        W97359  27.505  21.673  11.907
28942W        W97360  16.159   1.403   2.251
28943W        W97361  23.187  18.611   2.682
28944W        W97362  16.613   3.754  13.545
28945W        W97363  13.267   4.930   4.171
28946W        W97364  16.261  20.727  10.513
28947W        W97365   1.440  22.536   4.657
28948W        W97366  19.230  12.754  14.450
28949W        W97367  42.467  10.181  10.001
28950W        W97368  28.585  39.857   4.746
28951W        W97369  34.398   8.713   5.197
28952W        W97370  22.171   2.239  11.862
28953W        W97371  14.214  18.752  13.933
28954W        W97372  43.923  23.701   3.322
28955W        W97373  39.548  24.009  14.343
28956W        W97374  42.001  16.254   4.142
28957W        W97375  29.987  18.758   2.263
28958W        W97376   5.731  14.733   0.826
28959W        W97377  24.147  30.068  14.944
28960W        W97378  34.886  19.585   4.785
28961W        W97379  11.672  16.244   3.638
28962W        W97380  24.158  13.654  12.902
28963W        W97381  41.291  35.567   3.662
28964W        W97382  23.144  28.612   3.380
28965W        W97383  17.147   4.268  13.936
28966W        W97384  23.493  35.903  12.975
28967W        W97385  16.661  26.087  12.416
28968W        W97386  44.821  26.471   2.335
28969W        W97387  25.644   2.415   2.280
28970W        W97388  10.760   0.420   3.798
28971W        W97389   0.370   7.905  11.870
28972W        W97390  34.517   7.821   4.190
28973W        W97391  12.709  37.530   4.287
28974W        W97392  24.589   2.304  13.807
28975W        W97393  15.700  26.465   2.848
28976W        W97394  18.709   6.242   4.205
28977W        W97395  15.666  36.494  13.441
28978W        W97396  40.848  21.220  14.888
28979W        W97397  32.024  40.952  13.344
28980W        W97398   4.231  12.201  12.384
28981W        W97399  34.425  14.687   4.738
28982W        W97400  44.438  27.150  12.087
28983W        W97401  19.102  42.019  12.504
28984W        W97402  36.026  15.311   3.254
28985W        W97403  38.031  18.104   4.245
28986W        W97404   4.423  29.575  12.388
28987W        W97405  16.169  22.505   0.847
28988W        W97406   4.222   5.328   2.800
28989W        W97407  43.392  19.730  14.028
28990W        W97408  35.433   2.897   0.927
28991W        W97409  33.608  24.528  14.323
28992W        W97410  43.449   0.788   3.748
28993W        W97411   0.762  28.165  11.113
28994W        W97412  26.109  14.669   3.822
28995W        W97413  12.177  44.268  12.426
28996W        W97414  19.640   5.769  11.427
28997W        W97415  35.018  16.576  11.989
28998W        W97416   9.742  28.656   2.776
28999W        W97417   2.435  34.974  13.920
29000W        W97418   9.679  14.262   2.820
29001W        W97419  23.987  20.164  12.843
29002W        W97420  15.683  32.098  11.485
29003W        W97421  42.306  28.996   0.484
29004W        W97422  23.575  28.154  11.373
29005W        W97423  33.532  40.432  13.517
29006W        W97424  32.484  43.456   1.883
29007W        W97425  38.848  16.246  11.408
29008W        W97426   9.387  28.577   2.285
29009W        W97427  31.644  38.947   0.841
29010W        W97428   3.436  22.620  12.470
29011W        W97429   5.277   5.907  11.089
29012W        W97430  10.333  12.229  13.813
29013W        W97431   6.243  38.544  11.061
29014W        W97432  26.027  44.305  13.439
29015W        W97433  38.568  27.525  13.963
29016W        W97434   4.446  23.599   3.789
29017W        W97435   0.314  40.434  14.414
29018W        W97436  44.366  21.117   5.769
29019W        W97437  21.666   4.773   1.760
29020W        W97438   5.222  24.989   1.755
29021W        W97439  31.427  44.967  13.993
29022W        W97440  37.922  12.173  11.961
29023W        W97441   6.875  16.799  14.957
29024W        W97442  26.986  11.668  14.904
29025W        W97443  13.132  30.496   2.413
29026W        W97444   6.254  37.085   1.697
29027W        W97445  29.144  35.008   3.863
29028W        W97446  11.718   8.674   0.827
29029W        W97447  10.138  42.851   2.236
29030W        W97448  23.692  26.149  10.618
29031W        W97449  37.450   6.738  13.810
29032W        W97450  11.329   7.391  11.952
29033W        W97451   3.904  42.031  11.456
29034W        W97452  10.673  11.661   3.712
29035W        W97453   9.318  40.929  13.802
29036W        W97454  38.517  14.243  13.938
29037W        W97455  15.738  21.517  12.053
29038W        W97456  17.568  33.937  11.090
29039W        W97457   9.841  37.042   3.787
29040W        W97458   1.237   3.402   3.759
29041W        W97459   6.394  12.205   4.193
29042W        W97460  20.660  21.696  12.487
29043W        W97461  35.444  28.589  12.045
29044W        W97462  17.796  25.061   4.144
29045W        W97463  12.820  25.581  12.440
29046W        W97464   5.693   4.289   1.334
29047W        W97465   4.416   1.867   3.682
29048W        W97466  15.685   7.351   2.414
29049W        W97467  40.031  38.026   3.794
29050W        W97468  17.651  12.647  11.937
29051W        W97469  17.684  39.900  14.494
29052W        W97470   3.880  25.628   4.178
29053W        W97471   0.249  12.630  11.514
29054W        W97472  29.012   2.864  12.437
29055W        W97473  11.669  41.368   4.603
29056W        W97474  37.956  12.807  13.036
29057W        W97475  24.131   8.203   2.820
29058W        W97476  20.257   7.271  13.933
29059W        W97477  38.900  31.074  11.862
29060W        W97478  16.241  28.951   1.873
29061W        W97479  17.648  38.918  11.458
29062W        W97480  22.233  32.506   3.833
29063W        W97481  39.829  37.917  14.355
29064W        W97482  23.115   3.811   3.859
29065W        W97483  42.365   1.322  10.628
29066W        W97484  41.967  34.928   1.748
29067W        W97485  25.967  14.779  11.589
29068W        W97486  35.395   9.201  10.632
29069W        W97487  20.633  14.590   4.650
29070W        W97488  12.173   8.719   3.163
29071W        W97489  40.956  26.969  13.849
29072W        W97490   2.259  42.305  12.953
29073W        W97491   9.317   0.864   4.817
29074W        W97492  32.572  10.331   9.983
29075W        W97493  17.166  28.524  14.424
29076W        W97494   7.282  38.907   2.416
29077W        W97495  21.166  34.498  13.468
29078W        W97496  25.694  38.010  11.015
29079W        W97497   7.702  36.566  12.394
29080W        W97498  38.526  14.298  11.031
29081W        W97499  14.200  19.097   1.770
29082W        W97500  41.860   1.925  14.931
29083W        W97501  30.102   1.374   0.829
29084W        W97502  22.026  22.635  14.389
29085W        W97503  34.463  16.768  14.824
29086W        W97504  11.706  31.644  10.447
29087W        W97505  11.804   5.723  12.550
29088W        W97506  30.155  21.032   1.862
29089W        W97507  43.404  10.334  14.893
29090W        W97508  12.155  22.543   2.691
29091W        W97509  27.103  30.592   1.232
29092W        W97510  14.213  40.335  10.938
29093W        W97511  26.056  42.435  13.439
29094W        W97512  44.265  32.562  12.015
29095W        W97513  19.175  11.728   4.203
29096W        W97514  43.335  23.095  10.584
29097W        W97515  16.088  29.988   3.209
29098W        W97516  26.000  20.716  13.805
29099W        W97517  43.870  43.310   4.617
29100W        W97518  33.951  37.986   3.655
29101W        W97519  30.515  28.156  13.906
29102W        W97520  41.405   5.243   0.847
29103W        W97521  33.487  35.565   2.363
29104W        W97522  13.302  41.879  14.315
29105W        W97523  19.154   6.344   1.225
29106W        W97524  42.821  16.808  11.872
29107W        W97525  17.642  33.397   1.226
29108W        W97526  24.086  44.460   2.852
29109W        W97527  26.032  32.469  11.079
29110W        W97528   0.895  19.189   1.244
29111W        W97529  35.451   4.774   1.752
29112W        W97530  33.405  35.859  10.476
29113W        W97531  39.455  34.057   3.675
29114W        W97532  20.747  31.103  11.578
29115W        W97533  12.703  18.582  14.950
29116W        W97534  24.700  38.474   1.304
29117W        W97535  30.028  25.141  14.964
29118W        W97536   0.798  42.871  12.417
29119W        W97537  19.099  39.543  10.410
29120W        W97538   0.869  33.386   1.727
29121W        W97539   6.313  10.147  14.338
29122W        W97540  23.227   9.713  14.937
29123W        W97541   6.705  16.233   1.424
29124W        W97542  37.373  13.759  14.309
29125W        W97543   8.272   1.462   1.257
29126W        W97544   0.915  16.761   3.681
29127W        W97545  28.590  21.193   4.130
29128W        W97546  22.009   8.343   3.354
29129W        W97547  41.823  35.874   3.814
29130W        W97548  13.746  10.180   2.223
29131W        W97549  32.450  20.083   2.869
29132W        W97550  20.530  33.980  12.428
29133W        W97551  20.251  44.005   1.929
29134W        W97552   7.681   9.371   1.408
29135W        W97553  43.823   9.288   4.336
29136W        W97554   3.862   0.988   0.922
29137W        W97555  26.547  31.613   2.230
29138W        W97556  15.685  10.380  13.436
29139W        W97557  45.000  23.148  13.336
29140W        W97558  26.982  40.492   1.789
29141W        W97559  25.968  37.504   1.704
29142W        W97560  32.488   8.682  13.509
29143W        W97561   5.889  18.216  11.960
29144W        W97562  15.783  32.091  12.366
29145W        W97563  21.126  25.185  14.838
29146W        W97564  21.621  18.252  12.444
29147W        W97565  17.063  29.170  12.014
29148W        W97566  21.655  33.446  12.895
29149W        W97567  31.073  39.991  13.942
29150W        W97568  27.037   6.871  13.959
29151W        W97569   2.914  13.145  13.892
29152W        W97570  30.591  32.070   0.291
29153W        W97571  28.101   8.694   1.832
29154W        W97572  15.237  11.629  13.000
29155W        W97573  21.568  43.452  14.443
29156W        W97574  44.433  33.544   2.901
29157W        W97575  23.116  24.021  14.854
29158W        W97576   5.845  12.748  13.918
29159W        W97577  25.692   9.829  14.824
29160W        W97578  22.127   8.176  13.509
29161W        W97579  24.157  18.600  13.395
29162W        W97580  43.280  37.577  12.961
29163W        W97581  42.909  18.571  13.876
29164W        W97582   4.291  24.973   2.696
29165W        W97583   3.840   3.246   0.322
29166W        W97584   7.672  27.167  11.932
29167W        W97585   5.398  39.520   2.374
29168W        W97586  39.037  23.504   0.891
29169W        W97587  11.846  23.162  11.893
29170W        W97588  16.709  11.821  12.944
29171W        W97589  23.526  11.317   4.275
29172W        W97590  37.944  15.617  12.401
29173W        W97591  40.459  43.415   4.308
29174W        W97592  35.467  32.512   2.682
29175W        W97593   4.756  39.020   9.987
29176W        W97594   3.881  32.092  12.388
29177W        W97595   7.339  22.641   1.273
29178W        W97596  18.747  42.366   3.310
29179W        W97597   3.833  41.858   3.194
29180W        W97598   4.319  36.559   0.942
29181W        W97599  40.037  31.145   0.434
29182W        W97600  33.415  27.513  12.548
29183W        W97601   9.221  39.979  14.441
29184W        W97602  21.155  11.657  12.462
29185W        W97603  14.228  25.167   1.892
29186W        W97604  24.539  29.653  14.946
29187W        W97605   5.879  10.751  10.529
29188W        W97606   6.875   7.768   1.890
29189W        W97607  35.994  17.574   1.372
29190W        W97608  37.571   2.417  11.120
29191W        W97609   5.692   7.775   2.681
29192W        W97610  39.902  39.039   2.380
29193W        W97611  29.924   8.771   1.856
29194W        W97612  29.932   5.348   1.435
29195W        W97613  21.163  12.228   0.800
29196W        W97614  31.426  25.544  14.903
29197W        W97615   1.903  10.349  13.497
29198W        W97616  16.171   5.857  14.963
29199W        W97617   9.877  29.532  11.906
29200W        W97618  24.974  13.701  14.022
29201W        W97619  16.721  43.940   3.320
29202W        W97620  30.586  17.132   4.787
29203W        W97621  22.661  34.895   2.235
29204W        W97622  35.015  13.679   0.396
29205W        W97623  13.677   4.729   3.146
29206W        W97624  30.448  22.055  14.763
29207W        W97625  14.313  23.599  10.098
29208W        W97626   5.437   9.794  13.849
29209W        W97627   4.768   3.362   2.764
29210W        W97628   4.765  43.386  13.997
29211W        W97629  14.684   7.803  14.482
29212W        W97630  22.566   0.369  11.903
29213W        W97631  30.162   6.252  13.539
29214W        W97632  18.128  26.102  13.382
29215W        W97633  28.087  24.989   3.237
29216W        W97634  37.446  24.152   4.629
29217W        W97635   5.866  34.034   0.318
29218W        W97636  29.999  41.490   0.952
29219W        W97637  45.000  23.656   1.898
29220W        W97638  29.040   7.181   9.933
29221W        W97639  25.049  29.510   3.174
29222W        W97640  44.446  12.349   4.681
29223W        W97641  17.155  25.057  12.882
29224W        W97642   5.842  36.537  13.460
29225W        W97643  42.853   6.252   3.355
29226W        W97644  19.546  20.591   0.363
29227W        W97645  13.290  17.654   0.760
29228W        W97646  19.179  11.260   2.387
29229W        W97647   1.240   2.779  10.933
29230W        W97648  13.295  42.384  12.488
29231W        W97649  38.357  23.575   1.305
29232W        W97650  18.702  15.740   5.101
29233W        W97651  25.050  17.775  13.377
29234W        W97652  34.500  22.227   1.898
29235W        W97653  37.890  16.810   1.714
29236W        W97654  11.192  28.096  11.859
29237W        W97655  31.046  31.444   2.231
29238W        W97656  44.825  38.388   3.793
29239W        W97657  35.508  16.175  13.517
29240W        W97658  14.217  20.111  13.360
29241W        W97659  38.864  43.849  14.354
29242W        W97660  36.356   6.241   0.912
29243W        W97661  26.012  28.523  12.921
29244W        W97662  42.848   9.677   0.884
29245W        W97663  39.491  26.610   3.669
29246W        W97664  36.487  26.022   1.896
29247W        W97665  42.812  30.148   0.882
29248W        W97666  41.882   3.354  11.571
29249W        W97667  15.604  16.767   0.388
29250W        W97668  43.937   4.425  11.561
29251W        W97669   5.905  10.239  14.448
29252W        W97670  43.988  30.499  12.429
29253W        W97671  22.046  15.247   2.706
29254W        W97672  38.910  25.642  10.421
29255W        W97673  33.533   2.755   1.835
29256W        W97674  22.217  36.086  12.541
29257W        W97675  27.603  23.183  12.521
29258W        W97676   4.934  40.981  12.995
29259W        W97677  12.356  31.131  12.014
29260W        W97678   8.850  14.297   1.775
29261W        W97679  44.469  23.586  10.929
29262W        W97680  40.454  28.972  12.511
29263W        W97681  41.964  18.745   3.671
29264W        W97682   3.862  15.584   4.206
29265W        W97683   8.706  24.198   3.724
29266W        W97684   1.308  38.453  12.556
29267W        W97685  18.579  34.488  13.895
29268W        W97686   5.223  39.406   1.252
29269W        W97687  13.318  28.452  11.547
29270W        W97688  34.601  17.210  11.456
29271W        W97689   0.389  27.456  11.982
29272W        W97690  20.724  35.945   3.853
29273W        W97691   1.925  32.912  14.430
29274W        W97692  22.195  44.001  10.912
29275W        W97693  35.526  42.465   1.772
29276W        W97694  32.592  32.055  14.806
29277W        W97695  16.174  10.251  12.341
29278W        W97696   4.909  24.131   3.172
29279W        W97697  37.564  37.963   0.330
29280W        W97698   7.184  29.023   0.317
29281W        W97699  13.815  44.348   3.181
29282W        W97700  24.139  44.415   9.944
29283W        W97701  34.584   5.861   0.258
29284W        W97702  40.400  23.151   2.336
29285W        W97703   3.938  22.246   3.694
29286W        W97704  15.818  32.951  14.788
29287W        W97705  22.703  31.943   4.335
29288W        W97706  28.496  42.507  11.440
29289W        W97707  43.425  28.613  10.914
29290W        W97708  30.465  13.746   1.377
29291W        W97709  31.989  36.048  13.840
29292W        W97710  11.336   2.421   0.463
29293W        W97711  13.138   9.356   2.359
29294W        W97712  10.363  25.187   4.636
29295W        W97713  41.820  41.352  14.330
29296W        W97714   1.441  35.023   3.210
29297W        W97715  34.504  12.733   4.139
29298W        W97716   8.899  31.473   2.823
29299W        W97717  35.043  29.574   2.733
29300W        W97718  17.094  16.676  11.390
29301W        W97719   1.838  16.778   3.267
29302W        W97720   4.925  41.898   5.242
29303W        W97721   8.243  29.105  14.927
29304W        W97722  27.144  24.052  13.935
29305W        W97723  18.747   9.736  10.414
29306W        W97724  27.003  19.759  11.526
29307W        W97725  24.514  33.965   4.819
29308W        W97726  34.933  28.502   3.268
29309W        W97727  30.163   0.290  13.528
29310W        W97728  17.618  33.020   1.252
29311W        W97729  39.531   0.425  12.462
29312W        W97730  17.639   3.240  10.567
29313W        W97731  43.327   6.362  10.491
29314W        W97732  14.824   8.338   3.207
29315W        W97733  35.468  16.250   2.872
29316W        W97734  28.517   2.313   4.633
29317W        W97735  35.069   0.262  11.867
29318W        W97736   7.722   7.258   2.772
29319W        W97737  19.724  19.120   1.737
29320W        W97738  33.405  13.329  14.370
29321W        W97739  26.038  20.557   2.409
29322W        W97740  44.921  40.397   0.953
29323W        W97741  30.030  35.104   2.283
29324W        W97742   4.922   8.888   4.700
29325W        W97743   4.276   8.163  11.895
29326W        W97744  20.148  15.644  14.858
29327W        W97745  37.362  32.052   1.394
29328W        W97746  18.051  10.853  10.972
29329W        W97747   7.391  14.222   3.766
29330W        W97748  17.173   5.720   1.351
29331W        W97749  25.019   3.262  10.572
29332W        W97750  43.415  16.760   3.817
29333W        W97751  10.191  40.533  14.908
29334W        W97752  28.462  17.299  14.322
29335W        W97753  14.711  25.620   4.236
29336W        W97754   2.417   3.792  14.372
29337W        W97755  29.948  28.672  12.081
29338W        W97756  43.921  41.970  13.501
29339W        W97757   6.371   6.699  13.504
29340W        W97758  19.234  28.619  12.060
29341W        W97759  18.592  25.478  10.989
29342W        W97760  32.999  33.496  13.957
29343W        W97761  10.638  27.515   1.813
29344W        W97762   4.876   5.700  13.052
29345W        W97763  27.646  15.734  13.821
29346W        W97764  39.023   5.393   1.338
29347W        W97765  39.824  24.625   2.180
29348W        W97766  18.182   8.813  14.941
29349W        W97767  38.855  18.682   4.189
29350W        W97768  42.828  21.615  10.467
29351W        W97769  22.079  33.568   4.671
29352W        W97770   6.774  17.780   3.246
29353W        W97771  43.952  36.032   1.836
29354W        W97772  42.349  36.478   1.366
29355W        W97773  40.917  24.070  12.896
29356W        W97774  19.551  29.666   5.113
29357W        W97775  33.985   0.915  14.939
29358W        W97776  19.065  27.993   2.300
29359W        W97777  34.004  35.872   3.223
29360W        W97778   3.792  32.563   3.702
29361W        W97779  33.036  41.994   2.752
29362W        W97780  13.327   0.900  11.545
29363W        W97781  10.634  44.960   0.770
29364W        W97782  42.799  27.467   1.431
29365W        W97783  15.608   9.722  10.619
29366W        W97784   8.398  41.036   3.274
29367W        W97785  42.970  17.720   2.283
29368W        W97786  19.207  38.843  11.106
29369W        W97787   9.149  21.069   5.315
29370W        W97788  23.666   9.294   2.687
29371W        W97789  36.428  34.563   4.239
29372W        W97790  15.105  29.149   3.722
29373W        W97791  36.486  29.969   4.157
29374W        W97792  24.720  17.182   0.398
29375W        W97793   7.288  32.566   1.824
29376W        W97794   0.470  24.997   3.206
29377W        W97795  14.335   9.759  14.999
29378W        W97796  40.396  10.866  11.469
29379W        W97797  33.528   0.872   0.311
29380W        W97798   2.275  16.792   0.916
29381W        W97799  33.413  16.151   2.209
29382W        W97800  34.531   7.224   2.230
29383W        W97801   8.804  36.927  13.956
29384W        W97802  28.657   5.923  13.404
29385W        W97803   1.808  14.134   4.334
29386W        W97804  24.702   8.658  11.536
29387W        W97805  14.133  22.191   3.342
29388W        W97806  21.122   3.820  11.022
29389W        W97807   8.232  21.643  10.910
29390W        W97808  41.788  24.172  10.549
29391W        W97809  41.862   9.185  12.428
29392W        W97810  13.345  25.965   3.762
29393W        W97811  32.487  23.589   3.176
29394W        W97812  41.468  41.913  12.994
29395W        W97813  21.079  20.628   4.286
29396W        W97814  21.090  21.020  13.988
29397W        W97815  40.829   5.888   0.243
29398W        W97816   2.306  10.706  11.575
29399W        W97817  10.238  27.682  11.558
29400W        W97818  22.516  29.522  11.100
29401W        W97819  32.576  36.966   1.878
29402W        W97820  24.081  26.595  10.626
29403W        W97821   4.772  40.908  13.320
29404W        W97822  12.359   1.352   3.329
29405W        W97823  42.783  34.946   1.934
29406W        W97824  37.422   7.417  14.909
29407W        W97825  39.061  10.379   1.843
29408W        W97826  22.215   2.450   1.797
29409W        W97827  18.613   4.444   1.343
29410W        W97828  27.057  39.380   2.812
29411W        W97829  14.205  24.658   1.403
29412W        W97830  36.077  27.463   4.732
29413W        W97831   6.224  15.735  12.404
29414W        W97832  30.923  38.942   1.753
29415W        W97833  10.148  38.400  14.403
29416W        W97834  16.693  40.549   2.803
29417W        W97835   0.743  30.118  12.041
29418W        W97836  36.361  18.140  10.410
29419W        W97837  41.963  21.717  12.446
29420W        W97838  33.526  17.097   1.246
29421W        W97839  14.589  43.923  12.430
29422W        W97840   7.726  12.750  13.899
29423W        W97841  43.819  23.721   0.878
29424W        W97842  31.600  31.582  13.819
29425W        W97843   3.310  40.984   1.785
29426W        W97844  43.374  30.010   2.853
29427W        W97845  32.410  39.856  13.957
29428W        W97846  24.626  43.790   4.750
29429W        W97847  17.197  18.246  11.532
29430W        W97848  35.914  20.145  14.875
29431W        W97849   7.415  26.548  10.156
29432W        W97850  29.658  23.989   2.722
29433W        W97851  13.111  36.544  12.519
29434W        W97852  41.805  32.000  11.554
29435W        W97853   2.952  28.179   3.369
29436W        W97854  16.125  43.791   1.419
29437W        W97855   0.417   6.869   0.833
29438W        W97856   2.888  12.840  14.407
29439W        W97857  24.065  31.402   3.194
29440W        W97858  13.766  34.996  13.536
29441W        W97859  32.126   6.194   0.946
29442W        W97860  30.971   1.249  14.424
29443W        W97861  20.718  31.537   3.150
29444W        W97862  44.321  16.169   1.734
29445W        W97863  41.873  20.099  11.086
29446W        W97864  23.219  18.111  10.995
29447W        W97865   2.286  42.003   4.340
29448W        W97866   4.328  10.363   0.266
29449W        W97867  41.017   7.231   1.373
29450W        W97868  26.002   4.879  14.375
29451W        W97869  40.915  41.319  11.914
29452W        W97870  18.561  26.478  13.473
29453W        W97871  22.152  42.301   4.819
29454W        W97872  24.223   5.255  10.406
29455W        W97873   0.872  41.791   3.670
29456W        W97874  36.507  27.691   1.840
29457W        W97875  16.751   4.336  10.045
29458W        W97876   4.230  38.386   3.166
29459W        W97877  44.941   8.180  13.458
29460W        W97878  12.641  16.640   1.307
29461W        W97879  28.991   4.921  13.539
29462W        W97880  22.656  38.352   0.447
29463W        W97881   4.911  38.039  11.953
29464W        W97882  31.974  22.169   2.809
29465W        W97883   4.762   4.212  13.877
29466W        W97884  25.169  44.890   4.325
29467W        W97885  18.069  29.619   2.853
29468W        W97886  37.385  40.326   3.205
29469W        W97887  30.654  18.775   5.190
29470W        W97888  10.665  29.971  13.902
29471W        W97889  43.270  14.721   1.713
29472W        W97890  44.372  43.984   4.144
29473W        W97891  21.599  16.170   4.724
29474W        W97892  39.368  29.172  13.891
29475W        W97893  28.945  32.620  14.372
29476W        W97894  42.783  35.988  10.908
29477W        W97895  36.370  10.187  11.474
29478W        W97896  42.353  33.529  13.040
29479W        W97897  14.830  34.578   1.265
29480W        W97898  41.871  35.484   2.878
29481W        W97899  16.796  24.633   0.848
29482W        W97900  14.826   7.202  11.083
29483W        W97901   8.834  15.113  12.573
29484W        W97902  26.699   4.373   1.370
29485W        W97903  30.988  14.159   0.359
29486W        W97904  23.715  32.970   0.957
29487W        W97905  14.259   1.856  11.506
29488W        W97906  15.098  36.961  14.465
29489W        W97907  14.110   0.476   4.616
29490W        W97908  10.814  17.061   1.871
29491W        W97909  41.887  33.055   3.379
29492W        W97910  37.472  25.599  14.450
29493W        W97911  20.658   9.652  14.881
29494W        W97912  20.198  35.946  11.953
29495W        W97913   0.352  38.477  12.823
29496W        W97914  25.979  21.254  13.029
29497W        W97915  18.567  28.111  13.061
29498W        W97916  24.058  18.672  14.885
29499W        W97917  44.300  13.816   9.661
29500W        W97918  40.533  32.087   2.360
29501W        W97919  14.188  21.055   3.197
29502W        W97920   4.331   3.845  11.459
29503W        W97921  33.897  32.895   2.324
29504W        W97922  16.740   6.242  10.588
29505W        W97923  25.655   5.328   3.348
29506W        W97924  27.966   7.799  12.893
29507W        W97925  28.143   4.308   3.185
29508W        W97926  27.004  30.164   1.882
29509W        W97927   7.329  44.005  14.822
29510W        W97928  13.338  10.148   0.257
29511W        W97929  23.689  39.351  12.355
29512W        W97930  42.921   9.354  10.543
29513W        W97931  35.567   8.726   2.248
29514W        W97932  20.104  44.812   1.858
29515W        W97933  25.206  15.086  13.359
29516W        W97934  31.644  39.455  11.425
29517W        W97935   7.909  38.923  12.397
29518W        W97936  15.819  21.075  10.904
29519W        W97937  12.706   1.926  14.390
29520W        W97938  34.412  22.147   1.372
29521W        W97939  10.293  32.587  13.996
29522W        W97940   0.974  10.742   4.316
29523W        W97941  23.622  20.138   3.828
29524W        W97942  27.611  13.247  12.484
29525W        W97943  22.130  35.496   2.698
29526W        W97944   5.824  20.559   2.713
29527W        W97945  21.159  10.847  14.963
29528W        W97946  28.951  27.666   1.401
29529W        W97947  33.903  10.314  10.918
29530W        W97948   0.487  19.650  13.541
29531W        W97949  40.400   7.218   4.209
29532W        W97950   5.305  36.997   1.318
29533W        W97951   5.759  27.187  13.462
29534W        W97952  17.662  14.664   5.688
29535W        W97953  14.665   0.380  11.586
29536W        W97954  43.909  24.026   5.777
29537W        W97955  41.492  30.525   2.415
29538W        W97956  15.160   1.257  13.494
29539W        W97957  41.458   6.335   3.373
29540W        W97958  12.231  13.120  12.838
29541W        W97959  29.152  24.189  13.807
29542W        W97960   9.188  41.929  12.508
29543W        W97961  22.576  12.818   3.641
29544W        W97962  30.574  15.156  11.946
29545W        W97963  40.806   6.345  13.435
29546W        W97964  34.580  34.416  13.476
29547W        W97965  16.109  39.995   1.355
29548W        W97966  12.734  17.630  11.374
29549W        W97967  31.449  38.057  13.946
29550W        W97968   2.429  42.886   2.190
29551W        W97969  19.170  10.310   3.865
29552W        W97970  26.015  15.136   4.255
29553W        W97971  25.628  36.523  11.447
29554W        W97972   9.655  44.302  14.347
29555W        W97973  20.644  12.124  10.572
29556W        W97974   7.400   9.725  11.956
29557W        W97975  12.657  23.698   4.145
29558W        W97976  14.809  40.821  12.861
29559W        W97977  29.113  21.175  14.920
29560W        W97978  21.084  25.047   2.316
29561W        W97979   4.795  43.982  12.395
29562W        W97980   9.656  29.980  10.925
29563W        W97981  15.144  18.612  13.904
29564W        W97982  12.286  19.175  13.018
29565W        W97983   9.804  34.557   1.345
29566W        W97984  24.516  39.348  13.461
29567W        W97985  30.081  43.424  13.411
29568W        W97986  12.643  34.969  11.886
29569W        W97987   8.730  38.008   1.297
29570W        W97988   4.943  31.079  10.555
29571W        W97989  26.563  37.380  14.410
29572W        W97990  10.659   9.250  10.627
29573W        W97991  11.211  31.138  13.916
29574W        W97992  31.086   2.299  13.499
29575W        W97993  38.852  20.630   0.456
29576W        W97994   6.827   3.896  11.510
29577W        W97995   8.871  43.950  12.064
29578W        W97996  10.374  22.054   4.158
29579W        W97997  16.179   1.914  13.997
29580W        W97998  42.469  38.510  12.866
29581W        W97999  30.608  21.242   4.832
29582W        W98000  30.572   3.371  13.019
29583W        W98001  42.797  40.968   0.327
29584W        W98002  23.593  36.912   1.838
29585W        W98003  41.315   2.960  11.430
29586W        W98004  34.410  43.353   2.719
29587W        W98005   5.313   3.345   4.797
29588W        W98006  22.594  38.449   2.320
29589W        W98007  41.330  33.983   2.731
29590W        W98008  32.032  11.296   2.410
29591W        W98009  15.822  34.112   0.255
29592W        W98010   0.374  13.271  14.366
29593W        W98011  39.057   3.374  10.981
29594W        W98012  42.484  35.411  14.997
29595W        W98013  18.270  19.675  13.362
29596W        W98014  28.520  27.185   2.318
29597W        W98015  10.677  18.702   3.332
29598W        W98016   1.769  31.977   2.249
29599W        W98017   4.793  15.162  12.439
29600W        W98018   2.429  41.038   2.753
29601W        W98019   5.325  36.870   3.636
29602W        W98020  22.556  28.466   1.332
29603W        W98021  13.728   3.403  10.638
29604W        W98022  43.484   5.330  14.850
29605W        W98023  18.065  34.386  13.462
29606W        W98024  39.431   7.255   1.858
29607W        W98025  18.547  12.680  13.486
29608W        W98026  17.083   6.343  11.404
29609W        W98027   6.287   2.437  13.843
29610W        W98028  42.498  11.657  11.960
29611W        W98029  40.334  10.779   3.750
29612W        W98030  12.146   6.209   1.877
29613W        W98031  44.779   2.839   1.724
29614W        W98032  42.997  36.586  11.932
29615W        W98033  44.407  24.606  11.440
29616W        W98034  36.889  24.682  13.319
29617W        W98035  35.578  34.954   3.700
29618W        W98036  26.096   1.341  12.561
29619W        W98037   0.795  18.717   5.160
29620W        W98038  42.310   5.291   1.719
29621W        W98039  20.720  17.751  14.294
29622W        W98040  27.651  21.049   0.372
29623W        W98041  12.682  25.193   2.766
29624W        W98042  19.143   8.681  12.923
29625W        W98043  24.543  25.098   2.414
29626W        W98044  36.387  16.089   0.952
29627W        W98045  35.104  32.115  13.795
29628W        W98046  25.202   2.796  14.947
29629W        W98047  41.030  22.041  14.362
29630W        W98048  41.391  22.050  11.547
29631W        W98049  31.932  28.463   3.772
29632W        W98050  17.746  14.238   4.696
29633W        W98051  38.427   9.697   0.321
29634W        W98052  43.917  27.142  13.448
29635W        W98053   1.886  21.630  13.981
29636W        W98054  27.683  28.100   2.292
29637W        W98055  40.946   0.474  12.435
29638W        W98056  13.118   2.472   3.749
29639W        W98057  16.182  38.925  11.599
29640W        W98058  32.058  29.598   0.910
29641W        W98059  40.021  26.080   3.364
29642W        W98060  21.521  34.515  10.982
29643W        W98061  35.945  37.002   1.246
29644W        W98062  41.395  23.984  14.477
29645W        W98063  39.349  25.147  13.466
29646W        W98064  18.633  23.605  14.497
29647W        W98065   7.907  14.310   4.827
29648W        W98066  30.641  11.827   2.411
29649W        W98067   3.829  24.090  13.819
29650W        W98068   5.719  36.490   4.605
29651W        W98069  10.277  10.828   2.374
29652W        W98070  12.126  26.055  14.952
29653W        W98071  40.840   2.728  11.430
29654W        W98072  27.015   3.275  10.589
29655W        W98073   8.340   9.685  12.517
29656W        W98074  25.090  11.633  11.938
29657W        W98075  29.621  16.607  11.090
29658W        W98076   3.888  30.564  14.495
29659W        W98077   4.886   8.210  14.278
29660W        W98078  27.100   6.900  12.059
29661W        W98079  37.391   8.251   0.354
29662W        W98080  11.273  35.517  13.872
29663W        W98081  23.711  27.549  12.085
29664W        W98082   7.777  40.961  12.963
29665W        W98083   4.295  38.918   0.816
29666W        W98084   2.254  16.085  11.551
29667W        W98085  10.735  10.219  11.398
29668W        W98086   3.808  19.683  11.403
29669W        W98087   7.297  12.767   2.852
29670W        W98088  41.808  26.516  11.005
29671W        W98089  23.526  42.345   3.654
29672W        W98090   7.310  36.386  13.836
29673W        W98091  11.328  34.029   1.882
29674W        W98092  41.404   5.814   4.678
29675W        W98093  38.026  43.940  14.507
29676W        W98094  33.952   2.886  11.043
29677W        W98095  18.775  13.642  10.081
29678W        W98096  35.414  21.756   4.167
29679W        W98097  27.597   6.832   3.351
29680W        W98098   0.482  12.718   0.459
29681W        W98099  19.730  30.418   2.391
29682W        W98100  17.586   1.950   2.664
29683W        W98101   6.368  15.666  12.836
29684W        W98102  36.349  19.710   1.306
29685W        W98103  39.944   6.856   1.822
29686W        W98104  22.700   5.268  11.548
29687W        W98105  35.591  12.293   4.336
29688W        W98106  17.637  12.785   0.845
29689W        W98107   3.236  44.008   2.182
29690W        W98108  26.149  15.768  14.424
29691W        W98109  43.957  24.199   5.203
29692W        W98110  30.431  17.145  14.502
29693W        W98111  15.291  17.281  11.475
29694W        W98112  31.463   0.335   1.336
29695W        W98113  28.479  20.140   4.833
29696W        W98114  31.537  40.514  10.622
29697W        W98115  27.461   5.256   0.864
29698W        W98116  42.956  41.395  11.587
29699W        W98117  20.688  44.452  14.495
29700W        W98118  15.819  13.105   0.450
29701W        W98119  12.617   9.227   2.253
29702W        W98120   5.324  22.737  10.480
29703W        W98121  42.855  27.041  12.887
29704W        W98122  34.067  38.439   4.145
29705W        W98123  19.637  17.265   0.264
29706W        W98124  44.985  35.601  12.425
29707W        W98125   6.821  36.884  12.368
29708W        W98126  40.901  37.894  12.498
29709W        W98127   8.756  30.936   4.133
29710W        W98128  36.410  21.656  10.573
29711W        W98129  13.819  43.834  12.946
29712W        W98130  36.988   7.244  13.949
29713W        W98131  19.085  37.383   1.743
29714W        W98132  30.001  20.754   0.459
29715W        W98133  36.029  40.397   4.286
29716W        W98134  20.130   0.841  14.868
29717W        W98135  40.437   3.382   2.200
29718W        W98136  33.568   0.888   9.936
29719W        W98137  32.425  36.032  12.881
29720W        W98138  17.751  30.991  13.949
29721W        W98139  37.496  16.305  10.553
29722W        W98140  25.660  15.091   0.252
29723W        W98141  27.449  11.812  10.412
29724W        W98142  14.774  29.493   2.246
29725W        W98143  29.619  32.052  11.468
29726W        W98144  13.121   2.849   1.322
29727W        W98145  25.986  12.850   1.436
29728W        W98146  36.929  36.472  13.522
29729W        W98147  28.163   1.866  14.889
29730W        W98148   0.881  36.587  13.530
29731W        W98149  35.936   8.238  11.407
29732W        W98150  37.979  25.506   0.247
29733W        W98151   5.362  13.306  13.362
29734W        W98152  42.888  16.644  13.851
29735W        W98153  39.914  24.144  12.354
29736W        W98154  18.217  25.083  12.373
29737W        W98155  42.862  19.260   2.680
29738W        W98156  20.566   5.247   2.379
29739W        W98157  14.234  24.565   3.675
29740W        W98158  25.481  33.999   3.783
29741W        W98159   4.772   5.854   4.620
29742W        W98160  22.734  13.612  11.407
29743W        W98161  29.438   4.722  10.974
29744W        W98162   7.891   7.293   0.902
29745W        W98163  22.106  21.117   0.844
29746W        W98164   5.778  18.080  13.952
29747W        W98165   2.324  22.009  11.949
29748W        W98166  18.684  21.710   0.917
29749W        W98167  32.013  32.636   2.745
29750W        W98168  37.452  38.344  10.629
29751W        W98169  41.824  39.853   0.430
29752W        W98170  34.503  29.096  11.452
29753W        W98171  10.767   6.679   2.409
29754W        W98172  44.928  14.773  12.498
29755W        W98173  38.434  16.804  11.435
29756W        W98174  11.194  37.426   3.764
29757W        W98175  38.555  41.376  11.917
29758W        W98176  24.982  31.417  14.460
29759W        W98177  21.053   1.421  14.012
29760W        W98178  22.561   6.828  12.506
29761W        W98179  29.564  35.366   3.307
29762W        W98180  10.782  18.548   9.992
29763W        W98181  38.427   6.799   4.690
29764W        W98182  36.857  12.239  14.454
29765W        W98183  23.038  19.719   0.951
29766W        W98184  11.284  24.057   1.306
29767W        W98185  42.398  18.599  13.446
29768W        W98186  19.178   9.248  11.383
29769W        W98187  36.093  36.049  10.524
29770W        W98188   0.828  40.034   1.776
29771W        W98189  41.972  40.339   3.673
29772W        W98190  17.694  40.932  11.077
29773W        W98191  35.094  40.312  13.505
29774W        W98192  22.064   4.942  14.946
29775W        W98193  14.667  27.025   0.742
29776W        W98194  12.693  41.856  14.381
29777W        W98195  24.067   3.729  11.969
29778W        W98196  39.453  15.308   4.809
29779W        W98197  38.998  26.613  10.536
29780W        W98198   2.774   0.473  13.944
29781W        W98199  21.045   1.281   4.261
29782W        W98200  29.932   5.889   2.337
29783W        W98201  29.926  20.147  13.986
29784W        W98202  35.580  17.799  10.929
29785W        W98203  17.192  16.776   0.386
29786W        W98204   6.306  10.344   3.757
29787W        W98205  20.615  27.137  12.352
29788W        W98206  34.403  14.611   1.246
29789W        W98207  41.471  18.636  14.456
29790W        W98208  35.869  23.024   0.380
29791W        W98209  25.987   0.435   2.213
29792W        W98210   1.361  28.043   0.928
29793W        W98211  39.866   8.900   2.663
29794W        W98212  14.701  26.552  12.003
29795W        W98213  40.915   9.758   0.919
29796W        W98214   8.352  42.866   9.958
29797W        W98215  38.915   5.337   0.447
29798W        W98216   5.341   8.769  10.416
29799W        W98217  37.843  11.818  12.339
29800W        W98218  29.631  10.163   3.828
29801W        W98219   2.954  27.458  13.412
29802W        W98220   5.732  17.573   0.790
29803W        W98221  36.845  42.468   2.284
29804W        W98222  20.068   7.856   2.896
29805W        W98223  32.126  31.518   1.345
29806W        W98224  26.641  40.413   3.206
29807W        W98225  14.765  25.710  14.274
29808W        W98226  11.261  27.082  11.861
29809W        W98227   3.746  32.045   0.352
29810W        W98228   2.424  22.074   1.781
29811W        W98229  17.243  18.235   5.086
29812W        W98230  10.338  14.280   3.230
29813W        W98231  13.653  30.933   2.773
29814W        W98232  20.238  42.784   3.787
29815W        W98233  44.377  21.212  10.025
29816W        W98234  43.805  31.517   1.215
29817W        W98235  34.464  44.384  14.331
29818W        W98236   0.263   0.436   0.853
29819W        W98237  22.143  27.573  13.987
29820W        W98238  26.475  22.744  13.322
29821W        W98239  26.094  27.949  13.546
29822W        W98240  30.650  32.478  14.838
29823W        W98241  24.497  24.510  12.011
29824W        W98242  23.230   6.857  14.893
29825W        W98243  10.852   1.251   0.915
29826W        W98244  27.106  40.511   3.783
29827W        W98245  26.548  14.133  13.461
29828W        W98246  14.317   7.826  13.399
29829W        W98247  28.026  32.124   2.829
29830W        W98248  42.876  38.936   2.233
29831W        W98249  41.863  26.132  13.421
29832W        W98250  28.935  41.986   2.213
29833W        W98251  11.154  28.968   4.303
29834W        W98252   1.926   8.395  14.810
29835W        W98253  10.270  35.406  13.900
29836W        W98254  28.999  24.506   2.412
29837W        W98255  23.044  44.462  14.992
29838W        W98256  23.135  26.634  12.559
29839W        W98257  39.018  33.101   3.779
29840W        W98258  20.204  40.304   4.154
29841W        W98259  24.631  21.743  10.948
29842W        W98260  11.723  38.354  12.916
29843W        W98261   4.760  33.454   0.755
29844W        W98262   2.792  27.477   3.671
29845W        W98263  42.465   6.316   4.336
29846W        W98264  41.307  38.424  11.524
29847W        W98265   0.261  22.637   4.692
29848W        W98266   7.883  33.034   1.703
29849W        W98267  16.707  44.857   4.727
29850W        W98268  40.855  10.244  12.431
29851W        W98269   6.390  35.940  14.303
29852W        W98270  24.619  23.985   4.726
29853W        W98271  18.754  37.997  12.924
29854W        W98272  17.683  22.526  14.003
29855W        W98273  30.957  12.706  11.510
29856W        W98274   4.741   1.878  10.606
29857W        W98275   6.249  12.704  14.895
29858W        W98276  25.140   7.774  11.933
29859W        W98277  35.014  10.709   2.776
29860W        W98278  13.215  34.459   1.776
29861W        W98279  11.176  16.777   3.379
29862W        W98280   9.371  28.969  11.512
29863W        W98281  30.165  31.586   4.166
29864W        W98282  42.895  16.266   1.742
29865W        W98283  15.703  38.882   4.138
29866W        W98284   4.335  43.417   2.205
29867W        W98285  42.006   3.233   0.456
29868W        W98286  19.052  42.801   4.597
29869W        W98287  40.039  15.273  12.441
29870W        W98288  42.024   4.316  11.077
29871W        W98289   4.333  28.960   4.192
29872W        W98290  14.607  44.968  10.590
29873W        W98291  43.792  19.048  12.947
29874W        W98292   8.326  44.365  12.064
29875W        W98293   4.396  11.370   1.229
29876W        W98294  18.549  19.128   2.359
29877W        W98295  26.102  44.396  11.433
29878W        W98296  17.201  38.448  14.797
29879W        W98297   8.768   3.943  11.090
29880W        W98298  33.874   7.721  10.417
29881W        W98299  42.930   3.303   0.813
29882W        W98300  32.941   2.790  11.976
29883W        W98301   0.764  33.106   1.222
29884W        W98302  40.891  32.086  11.991
29885W        W98303  14.302  39.957   1.309
29886W        W98304   8.661  10.647  14.415
29887W        W98305  30.573  28.557   0.819
29888W        W98306  22.562  41.999  11.406
29889W        W98307  43.442  28.583   2.840
29890W        W98308  23.226   4.796   3.256
29891W        W98309  33.445   0.809   3.808
29892W        W98310   7.862   4.709   3.171
29893W        W98311   7.749   3.815  12.946
29894W        W98312  27.144  20.602   0.412
29895W        W98313  35.049  13.831   2.277
29896W        W98314  17.620  40.883   3.662
29897W        W98315  16.245   4.266  10.115
29898W        W98316   4.701   8.176   0.396
29899W        W98317  14.720  26.578  10.537
29900W        W98318  19.615   7.313  11.909
29901W        W98319   0.414   6.306  12.964
29902W        W98320   7.802  38.439   0.940
29903W        W98321  21.518  30.652   4.835
29904W        W98322  44.819  28.164   2.715
29905W        W98323  10.824  33.613  13.062
29906W        W98324  34.421  41.433  12.872
29907W        W98325  41.370  38.528  14.319
29908W        W98326   0.985   6.266   3.198
29909W        W98327  13.770   5.841   0.831
29910W        W98328   8.242  17.266  11.883
29911W        W98329  44.406  30.079   0.382
29912W        W98330  10.850  28.957   0.860
29913W        W98331  28.116  40.311   3.865
29914W        W98332  24.996   3.887  11.036
29915W        W98333  38.975   3.826   3.288
29916W        W98334   2.415  42.852  10.477
29917W        W98335  15.804  20.701  13.329
29918W        W98336  31.987  10.771  13.386
29919W        W98337  21.580   3.820   1.226
29920W        W98338  24.141  41.009  13.938
29921W        W98339   7.401  19.614   0.873
29922W        W98340  36.347  22.545  10.452
29923W        W98341  28.505  35.905   2.416
29924W        W98342  33.442  14.226   5.194
29925W        W98343  12.316  25.006  11.956
29926W        W98344  22.727  16.573   2.834
29927W        W98345  43.486  43.876   3.776
29928W        W98346  22.588   7.238  11.898
29929W        W98347  21.125  34.486  10.996
29930W        W98348   4.754   8.876   1.406
29931W        W98349  41.436  43.421   2.814
29932W        W98350  24.068  30.164   1.324
29933W        W98351  24.498  20.683   4.302
29934W        W98352  10.847  14.125   2.903
29935W        W98353  32.935  29.170  13.325
29936W        W98354  18.713   5.330  14.858
29937W        W98355  41.292   3.400   4.199
29938W        W98356  32.564  40.325  11.582
29939W        W98357  40.452  18.220   4.314
29940W        W98358  11.346   8.760   3.660
29941W        W98359   1.904   0.303   2.737
29942W        W98360  17.697  34.374   3.761
29943W        W98361  27.163   0.406   2.744
29944W        W98362  19.047  30.965   0.353
29945W        W98363  30.160  10.337  14.368
29946W        W98364  41.429  39.456   4.287
29947W        W98365   1.860   0.335   0.460
29948W        W98366  11.840  12.627  12.507
29949W        W98367  33.920  44.896   0.820
29950W        W98368   0.873  27.585  12.045
29951W        W98369  19.611   9.668   0.814
29952W        W98370  26.080  27.153   3.218
29953W        W98371  26.600  27.089  14.472
29954W        W98372  20.657   9.854  11.005
29955W        W98373  41.863  37.033   4.771
29956W        W98374  22.745  39.458  14.844
29957W        W98375  16.756  30.997   4.734
29958W        W98376  43.772   7.732   3.672
29959W        W98377  20.185  37.566  12.954
29960W        W98378  38.445   6.849   3.151
29961W        W98379  28.454   6.804  12.898
29962W        W98380   6.793   0.869  12.404
29963W        W98381  29.062  42.981  11.980
29964W        W98382  16.787  15.589   3.702
29965W        W98383  39.453  39.480   1.704
29966W        W98384  34.498  36.856   4.297
29967W        W98385  26.637   0.440   1.853
29968W        W98386  15.098  29.953   3.838
29969W        W98387  26.547  34.000  11.550
29970W        W98388  28.559  32.919   2.705
29971W        W98389  25.672  28.040  11.964
29972W        W98390  43.477  15.809  14.006
29973W        W98391  29.003   0.409  13.854
29974W        W98392  19.220  30.143   0.741
29975W        W98393  31.139   9.357   3.662
29976W        W98394  38.532  18.241   1.803
29977W        W98395  10.662  22.729   1.311
29978W        W98396  25.045  30.909   3.200
29979W        W98397   2.380  24.154  14.286
29980W        W98398  20.667  15.243   0.908
29981W        W98399  31.574  38.468  12.023
29982W        W98400  15.669  12.786  13.439
29983W        W98401   8.238   5.814  11.481
29984W        W98402  21.589  31.586  11.417
29985W        W98403   0.793  36.917  12.411
29986W        W98404  25.998  20.110   0.966
29987W        W98405  37.055  31.995   3.242
29988W        W98406  37.057  28.675   3.149
29989W        W98407  43.858   5.705   2.263
29990W        W98408  40.547  40.327  12.062
29991W        W98409  34.455  31.556   3.845
29992W        W98410  24.991   8.282  11.858
29993W        W98411  20.769  19.691  13.992
29994W        W98412   1.422   5.224  13.792
29995W        W98413  23.696  21.150   1.763
29996W        W98414  24.675  42.931  13.817
29997W        W98415  29.950  31.095  10.505
29998W        W98416   3.800   0.974  11.422
29999W        W98417  23.511  29.653   1.713
30000W        W98418  20.141   7.398   3.784
30001W        W98419  11.729  21.751   2.382
30002W        W98420  12.211   3.458  14.291
30003W        W98421  12.675   6.254  10.512
30004W        W98422   9.836  19.604   5.296
30005W        W98423  23.241  23.045   2.229
30006W        W98424  43.856  43.291  12.060
30007W        W98425  36.531  43.335   1.258
30008W        W98426  32.103  41.440  14.438
30009W        W98427  12.218  35.950  14.413
30010W        W98428  33.498   2.952  12.936
30011W        W98429  28.119   6.880  10.600
30012W        W98430  32.450  20.226   4.801
30013W        W98431  38.455  41.381   4.611
30014W        W98432   6.742  39.038  11.121
30015W        W98433  37.457  39.338  13.383
30016W        W98434  33.996  22.613   3.758
30017W        W98435  27.472  27.181   4.767
30018W        W98436  42.324  15.710  10.639
30019W        W98437  12.224  33.494  10.441
30020W        W98438  10.856  32.626  11.095
30021W        W98439  39.977  44.351  11.881
30022W        W98440  10.309  22.619  14.427
30023W        W98441  38.980   1.334  14.935
30024W        W98442  28.585  28.589  11.522
30025W        W98443  42.014  21.583   1.400
30026W        W98444  34.545  14.671  13.307
30027W        W98445  33.978  12.182   2.352
30028W        W98446   3.401  40.473  10.626
30029W        W98447  41.951   7.886   2.232
30030W        W98448   1.294  16.696  11.020
30031W        W98449  24.654  12.655   4.811
30032W        W98450  39.894   1.449  11.075
30033W        W98451  40.827  33.957  14.304
30034W        W98452  43.851  28.029  12.343
30035W        W98453  16.569  13.314   3.364
30036W        W98454  35.464   9.311  13.016
30037W        W98455  31.615   3.738  12.418
30038W        W98456   3.769  27.109  12.070
30039W        W98457   0.373   3.288  10.527
30040W        W98458  32.963  13.715   3.363
30041W        W98459  33.487   0.836   4.349
30042W        W98460  38.392  18.713   4.256
30043W        W98461  28.672   8.674  12.401
30044W        W98462  17.169   8.880   2.823
30045W        W98463   8.223  24.045   0.468
30046W        W98464  14.297  42.987   3.634
30047W        W98465  19.621  18.145   1.376
30048W        W98466   4.891  17.770  12.361
30049W        W98467   4.370   9.151   4.201
30050W        W98468  42.923  32.466   0.926
30051W        W98469  36.006  43.859  11.021
30052W        W98470   9.845   2.269   3.186
30053W        W98471   3.902  14.095   4.748
30054W        W98472  34.912   6.774  11.982
30055W        W98473   9.289  13.211  12.051
30056W        W98474  38.571  19.663  14.509
30057W        W98475  40.330  28.984  10.458
30058W        W98476  22.075  42.797   1.914
30059W        W98477   2.274   2.786   0.353
30060W        W98478  33.470   0.301   1.242
30061W        W98479  12.135  41.017   0.912
30062W        W98480  23.632  29.562   1.281
30063W        W98481   4.911  38.356  13.370
30064W        W98482  14.819  37.368   3.333
30065W        W98483   7.875  31.934   0.823
30066W        W98484  29.021  18.223  12.984
30067W        W98485   3.326   2.944   2.400
30068W        W98486  21.565  25.202  14.835
30069W        W98487  36.414  21.062   2.338
30070W        W98488  36.897  11.682   4.118
30071W        W98489  31.076   3.423   1.292
30072W        W98490   6.799  28.954   2.781
30073W        W98491  17.595  24.685   2.222
30074W        W98492   2.267  26.615   4.233
30075W        W98493  23.150  29.512   0.346
30076W        W98494  11.184  38.482  13.530
30077W        W98495  11.234   0.948  11.437
30078W        W98496  40.876   9.824   4.241
30079W        W98497  28.096  12.639   2.349
30080W        W98498   0.939  31.987   2.183
30081W        W98499  22.206  28.128  11.437
30082W        W98500  17.661  36.576  10.442
30083W        W98501  30.109  24.154   0.789
30084W        W98502  24.526   4.285   1.428
30085W        W98503  13.241  13.795   1.769
30086W        W98504  34.533  40.814   2.677
30087W        W98505  41.846   5.279   4.635
30088W        W98506   8.202  15.285   4.202
30089W        W98507   1.304  26.636   3.270
30090W        W98508  15.099  16.147  11.427
30091W        W98509  18.549  12.292  10.955
30092W        W98510  22.605   5.738  14.854
30093W        W98511   2.893  18.223   1.881
30094W        W98512  31.129  33.052  14.941
30095W        W98513  35.906  11.276  13.826
30096W        W98514  15.719  18.572  12.522
30097W        W98515  13.338  33.469   5.258
30098W        W98516  34.542  27.577   3.248
30099W        W98517  30.654  23.022   1.231
30100W        W98518  26.052  27.537  12.905
30101W        W98519  30.638   1.940   2.748
30102W        W98520  39.928  42.833   0.806
30103W        W98521  42.431   3.448  11.047
30104W        W98522  27.000  18.712  11.112
30105W        W98523   5.893  22.561   3.671
30106W        W98524  28.479  19.241   2.286
30107W        W98525  34.120   5.390  13.981
30108W        W98526  15.107   7.244   0.750
30109W        W98527  27.179  38.903  13.915
30110W        W98528  37.568  23.583   4.277
30111W        W98529  34.884  36.082  13.809
30112W        W98530  24.487  22.159  14.944
30113W        W98531   4.914  27.043   4.269
30114W        W98532   1.369  17.235  13.346
30115W        W98533   5.921  19.191   3.194
30116W        W98534   1.437   4.807  12.831
30117W        W98535   0.464  22.018  12.067
30118W        W98536  38.878  42.029   2.264
30119W        W98537  18.779  25.078   1.834
30120W        W98538  34.514  43.500   3.145
30121W        W98539   4.429  37.029   0.948
30122W        W98540  36.357   5.823  10.976
30123W        W98541  21.258  19.613  12.404
30124W        W98542  30.002  34.558   0.890
30125W        W98543  21.568  37.972  10.502
30126W        W98544  29.614  28.020  12.455
30127W        W98545   0.398  14.280  14.323
30128W        W98546   2.759  22.609   0.855
30129W        W98547  23.132  19.763  10.584
30130W        W98548  44.481  25.610   1.439
30131W        W98549   8.682  28.595   4.602
30132W        W98550   2.265   6.836   1.719
30133W        W98551  18.219  15.814  12.834
30134W        W98552  35.603  31.962   3.211
30135W        W98553  19.164  33.880   1.244
30136W        W98554  43.938   0.377  14.500
30137W        W98555  13.846  29.583   2.265
30138W        W98556   1.898  27.464  14.389
30139W        W98557   6.371  32.608  14.304
30140W        W98558   0.965   8.883  10.436
30141W        W98559   5.421   4.760  11.378
30142W        W98560  29.972   7.314   0.962
30143W        W98561  44.312   2.740  13.390
30144W        W98562  16.247  22.673   3.695
30145W        W98563  31.089  14.274  13.523
30146W        W98564  19.055  14.667   4.291
30147W        W98565   5.337   3.851   2.396
30148W        W98566  33.967  34.372  14.850
30149W        W98567  23.512  14.705   4.802
30150W        W98568   6.869  29.981  12.580
30151W        W98569  16.597   8.866  12.902
30152W        W98570  43.908   0.457   1.345
30153W        W98571  23.672  44.261  11.374
30154W        W98572  22.072  41.993  10.030
30155W        W98573   0.833  21.226  10.635
30156W        W98574  19.136  41.010  11.540
30157W        W98575  35.041  42.490  10.524
30158W        W98576  12.715  11.641   5.259
30159W        W98577  12.350  13.607   4.205
30160W        W98578   7.294   1.311  14.419
30161W        W98579  26.464  27.134   1.900
30162W        W98580  43.835  31.979   3.155
30163W        W98581  30.466  15.761  14.793
30164W        W98582  27.606   7.406  12.471
30165W        W98583  29.146   0.324  13.498
30166W        W98584  14.744  25.531  14.927
30167W        W98585  42.989  29.159  13.896
30168W        W98586   2.449   2.353   1.432
30169W        W98587   1.892   6.248   4.176
30170W        W98588  39.909  37.982  13.872
30171W        W98589  41.424  25.146   3.290
30172W        W98590  21.139  40.427  11.884
30173W        W98591  33.451   1.413  13.028
30174W        W98592   0.315  24.201   4.280
30175W        W98593  36.486  18.770  14.341
30176W        W98594  26.497   8.338   0.424
30177W        W98595  43.496   4.834   2.280
30178W        W98596  32.026  32.591  11.053
30179W        W98597   4.205  39.439  11.463
30180W        W98598  17.662  11.807  10.915
30181W        W98599  27.048  20.665  10.575
30182W        W98600  21.183  40.866   1.908
30183W        W98601  30.084   1.318  10.624
30184W        W98602  16.589  35.105   2.418
30185W        W98603  25.184  31.960  14.007
30186W        W98604  41.389  40.884   9.639
30187W        W98605  23.492   8.868  12.388
30188W        W98606   4.835   2.810  14.984
30189W        W98607  16.169  28.009   4.791
30190W        W98608  44.894  37.358  12.060
30191W        W98609  33.936  17.211   2.723
30192W        W98610  22.696   9.389  11.056
30193W        W98611  38.946  11.162   4.678
30194W        W98612  42.913  12.730   0.395
30195W        W98613  10.728  23.111   3.186
30196W        W98614  33.544   4.422  11.967
30197W        W98615  36.575  15.257   1.892
30198W        W98616  32.485  37.077   2.346
30199W        W98617  11.646  31.462  14.918
30200W        W98618  10.342  23.574  10.431
30201W        W98619  25.638  20.229   4.834
30202W        W98620  40.536  41.306  13.922
30203W        W98621   1.837   6.422  12.843
30204W        W98622  19.249   5.386  13.380
30205W        W98623   0.840   9.848   3.632
30206W        W98624  31.520   7.336   4.347
30207W        W98625  44.455   6.823   1.244
30208W        W98626  38.909  31.513  12.466
30209W        W98627  22.017   0.899   0.913
30210W        W98628   4.336  24.692  10.600
30211W        W98629  24.582  32.571  14.889
30212W        W98630  26.959   7.875   0.887
30213W        W98631  14.134   2.410   4.208
30214W        W98632  36.352  15.188   4.799
30215W        W98633  42.900  20.659  10.585
30216W        W98634  27.083  37.886  13.374
30217W        W98635  27.516   9.782   4.825
30218W        W98636  35.097  14.179   4.717
30219W        W98637  18.226  18.176   1.304
30220W        W98638  30.582  19.258  12.416
30221W        W98639  14.246  20.221   0.926
30222W        W98640   5.264  14.139   2.400
30223W        W98641  44.010  21.022   3.748
30224W        W98642  42.412  32.585  13.029
30225W        W98643  42.446   3.915  12.906
30226W        W98644   4.745   2.809   1.419
30227W        W98645  17.070   6.262   0.966
30228W        W98646  38.945  40.505  14.281
30229W        W98647  31.403  34.604   1.421
30230W        W98648  18.764  38.910  11.084
30231W        W98649  15.321  26.195   4.696
30232W        W98650  29.575  20.231   1.243
30233W        W98651  37.451  30.970  10.614
30234W        W98652  41.512  41.022   1.223
30235W        W98653  34.473   5.856  13.421
30236W        W98654   9.784  38.975   3.787
30237W        W98655  40.438  43.333   0.360
30238W        W98656  42.286  34.427   2.223
30239W        W98657   7.889  12.784  14.797
30240W        W98658   4.413  13.646  14.805
30241W        W98659  38.825  36.084   2.351
30242W        W98660  21.197  21.110   4.216
30243W        W98661   8.762  36.480   1.409
30244W        W98662   3.714  34.066   2.827
30245W        W98663  34.068   1.732  12.951
30246W        W98664  43.273   8.393   1.379
30247W        W98665  26.499  18.154   3.164
30248W        W98666   5.332  31.582   3.305
30249W        W98667  29.054  27.049  14.822
30250W        W98668  12.703  33.562  11.039
30251W        W98669  27.450  15.770   4.241
30252W        W98670  28.951  23.533   0.869
30253W        W98671  37.514  15.663   4.289
30254W        W98672  10.721   3.278  12.567
30255W        W98673  28.081  15.722  11.402
30256W        W98674  43.004  35.441   3.282
30257W        W98675   6.347  30.543  14.029
30258W        W98676  10.381  12.761   4.722
30259W        W98677   0.769   7.884   3.740
30260W        W98678   3.345  19.779  14.493
30261W        W98679  12.703  44.998  13.464
30262W        W98680   0.461  30.505   4.790
30263W        W98681  29.450   2.366  11.431
30264W        W98682  26.458  36.087   4.215
30265W        W98683  10.836  13.607  13.046
30266W        W98684  16.636   8.391  14.932
30267W        W98685  35.926  18.183  14.932
30268W        W98686  14.693  23.494   0.908
30269W        W98687  40.919  15.230   2.796
30270W        W98688  32.426  28.446  10.606
30271W        W98689  27.983   4.912   1.450
30272W        W98690  20.048   7.721  11.485
30273W        W98691   9.883   8.812  10.990
30274W        W98692   4.736   1.791   1.375
30275W        W98693  22.506  21.583   3.758
30276W        W98694  39.910   9.349  10.434
30277W        W98695   8.681   3.439  13.370
30278W        W98696   1.751   2.793  12.944
30279W        W98697  12.296   7.854   0.786
30280W        W98698  31.534  19.141  12.950
30281W        W98699  15.617   0.461   1.863
30282W        W98700  17.270  31.409  14.402
30283W        W98701  24.590  24.540   2.669
30284W        W98702  28.631  23.053   3.840
30285W        W98703  20.538   9.217  12.476
30286W        W98704  37.489  16.707  14.512
30287W        W98705  31.452  24.491  11.443
30288W        W98706   9.351  32.120   0.435
30289W        W98707  11.837  41.362   3.639
30290W        W98708  44.922   5.694  14.327
30291W        W98709  28.173  10.191   4.327
30292W        W98710  15.793  26.994  14.806
30293W        W98711  27.011  26.071  10.439
30294W        W98712  31.942  17.232   2.858
30295W        W98713  28.522  10.196  11.895
30296W        W98714  27.179  19.143   3.779
30297W        W98715  42.830  42.478  12.031
30298W        W98716  19.709  19.271   3.798
30299W        W98717   6.831  43.932  11.003
30300W        W98718   6.911  35.604   0.246
30301W        W98719  19.185  33.107   1.400
30302W        W98720  24.977   8.344  14.423
30303W        W98721  34.956  42.882   4.828
30304W        W98722   3.923  27.628  13.887
30305W        W98723  42.949  16.759  11.554
30306W        W98724  16.134  32.395   4.691
30307W        W98725   4.790  19.630  11.596
30308W        W98726   2.842  35.534   4.242
30309W        W98727   8.749  23.704   1.823
30310W        W98728  33.528  42.347  11.495
30311W        W98729  35.908   0.882  12.915
30312W        W98730   3.448  43.294   0.470
30313W        W98731  34.936  37.510  13.470
30314W        W98732  30.596  44.879   2.792
30315W        W98733  43.934  18.171   0.295
30316W        W98734   0.377   4.927   2.770
30317W        W98735   7.902  38.077   3.713
30318W        W98736  35.935  15.313  11.415
30319W        W98737  10.213  30.134   1.277
30320W        W98738  10.285  27.524  12.482
30321W        W98739  26.174  11.321   3.767
30322W        W98740  24.017  23.555   4.159
30323W        W98741  39.887  35.387  13.527
30324W        W98742  36.589  10.750  14.932
30325W        W98743   0.974  22.127   2.346
30326W        W98744  35.057  33.507  14.996
30327W        W98745  42.868  29.658  13.826
30328W        W98746  29.133  35.524   2.886
30329W        W98747  25.589  42.399   2.701
30330W        W98748   7.752  21.072   2.399
30331W        W98749  18.117   9.168  10.485
30332W        W98750   6.814  26.094   3.327
30333W        W98751  33.422  27.487   3.666
30334W        W98752   0.935  30.518   0.752
30335W        W98753  43.884   0.858  11.485
30336W        W98754   6.738  41.537   4.753
30337W        W98755   5.925  25.114   0.906
30338W        W98756  30.085  42.976  11.511
30339W        W98757  25.204  23.101   4.291
30340W        W98758  28.036  29.113  12.068
30341W        W98759   7.748  37.408  12.999
30342W        W98760  24.652   8.247   3.823
30343W        W98761  43.465  23.528   4.608
30344W        W98762  26.677  17.272  14.865
30345W        W98763  31.081  11.203  11.011
30346W        W98764  34.895   6.265   3.672
30347W        W98765  38.041  24.602   2.236
30348W        W98766   5.929  24.064   2.722
30349W        W98767  11.256  25.081   1.892
30350W        W98768  25.081   6.301   4.788
30351W        W98769  24.634   7.180  12.391
30352W        W98770  36.391  32.473   2.183
30353W        W98771   1.834   0.471  14.492
30354W        W98772  22.211   3.908  11.095
30355W        W98773  43.910  10.813   0.925
30356W        W98774  15.169  27.044  12.545
30357W        W98775   0.886   5.933   0.291
30358W        W98776  11.766  44.497  13.819
30359W        W98777  16.201  39.497  11.122
30360W        W98778  42.343  42.932   2.390
30361W        W98779   7.716   5.758  11.104
30362W        W98780  44.955   1.883  13.999
30363W        W98781  44.478  39.889   0.481
30364W        W98782  43.476  27.143   3.366
30365W        W98783  42.341  15.669   4.675
30366W        W98784  24.534  40.514   2.855
30367W        W98785  41.346  42.929  12.092
30368W        W98786   5.282  36.474  13.403
30369W        W98787   6.838   3.407  13.826
30370W        W98788  10.780  36.394  12.485
30371W        W98789  15.254  19.272   1.426
30372W        W98790  10.658  33.429   1.793
30373W        W98791  17.128  43.410   3.224
30374W        W98792  14.689   6.754   3.683
30375W        W98793  36.942   9.801   1.877
30376W        W98794  36.527  22.144   0.844
30377W        W98795  36.580   3.735  13.975
30378W        W98796  29.473   2.370  13.398
30379W        W98797   9.753  36.046   4.283
30380W        W98798  36.918  37.469  10.538
30381W        W98799  30.966  33.439  14.335
30382W        W98800   7.787  24.614   4.334
30383W        W98801  37.551  21.146   2.202
30384W        W98802  24.226  24.622  14.875
30385W        W98803   9.750  41.480   3.806
30386W        W98804   6.385  24.619  12.068
30387W        W98805  29.002  28.497   3.812
30388W        W98806  12.678  23.091  11.049
30389W        W98807   6.913  27.532   2.402
30390W        W98808  44.925  24.211   2.279
30391W        W98809  18.648  12.242   4.797
30392W        W98810  32.480  37.530   4.828
30393W        W98811  20.213  42.368  13.063
30394W        W98812  39.871  34.436  13.530
30395W        W98813  13.272   0.847  12.922
30396W        W98814   1.755   4.338   0.313
30397W        W98815   1.972   5.323  11.469
30398W        W98816  25.176  44.870   1.413
30399W        W98817  33.483  43.370   0.848
30400W        W98818  25.499  38.909   2.224
30401W        W98819  14.189  29.630   4.705
30402W        W98820   2.371  27.524   3.718
30403W        W98821  10.819   8.748   1.361
30404W        W98822  10.704  34.390  11.467
30405W        W98823  22.532  29.141   0.805
30406W        W98824  36.371  29.554   3.829
30407W        W98825  40.377  11.812  12.087
30408W        W98826  14.607  37.923  12.841
30409W        W98827  17.094  11.236  12.031
30410W        W98828  36.353  37.031   1.241
30411W        W98829  32.964  19.132   3.217
30412W        W98830  16.168  31.569  14.843
30413W        W98831  36.928  18.706   3.300
30414W        W98832  34.009  17.592  11.430
30415W        W98833  32.423  18.582  10.559
30416W        W98834   0.485  37.939  13.518
30417W        W98835  29.998   7.176   2.289
30418W        W98836   7.772  22.508   2.787
30419W        W98837  11.305   3.344   1.875
30420W        W98838  28.098  42.892  14.881
30421W        W98839  23.543  19.106   3.747
30422W        W98840   6.829  39.829   1.755
30423W        W98841  11.863  17.113  14.489
30424W        W98842  44.496  17.652   0.885
30425W        W98843  27.188  44.480  14.850
30426W        W98844  29.138  16.570   4.811
30427W        W98845  15.200  34.063   1.740
30428W        W98846  32.960  11.338  13.502
30429W        W98847  22.535  41.441   2.366
30430W        W98848  24.496  26.549  13.323
30431W        W98849  19.082  34.050   0.324
30432W        W98850   8.748  28.582   4.226
30433W        W98851  32.985   9.880   3.765
30434W        W98852  34.057  32.544   0.334
30435W        W98853  22.690  37.462   0.386
30436W        W98854  26.202   4.859  13.500
30437W        W98855  36.924   2.823  13.028
30438W        W98856   6.848  40.911   1.806
30439W        W98857  24.979   9.184  13.991
30440W        W98858  13.826  29.139  12.534
30441W        W98859  17.703  32.538   3.276
30442W        W98860  31.909   3.216   3.198
30443W        W98861  25.627   0.864   0.321
30444W        W98862  38.076  31.443   1.232
30445W        W98863  36.564   6.320  10.132
30446W        W98864   2.440  10.378   0.735
30447W        W98865  20.147  40.015   9.980
30448W        W98866  40.925  32.510  14.508
30449W        W98867  42.430  40.537   3.829
30450W        W98868  30.142  34.018   2.270
30451W        W98869  42.941  23.020   3.782
30452W        W98870  36.546  22.109  11.404
30453W        W98871  24.010  32.889   3.189
30454W        W98872  15.588  23.204   1.244
30455W        W98873   7.396  24.086   3.168
30456W        W98874  35.417  28.101   0.429
30457W        W98875   2.389   7.674  10.498
30458W        W98876  12.626  17.683   2.694
30459W        W98877  38.371  25.179  11.093
30460W        W98878  39.815   6.375   1.385
30461W        W98879  15.735  10.769  13.466
30462W        W98880  18.627   6.184  11.399
30463W        W98881  32.022  44.327   3.322
30464W        W98882  43.387  23.581   5.148
30465W        W98883  29.515   5.752   3.272
30466W        W98884  26.612  35.538   4.779
30467W        W98885  33.998   1.802  14.010
30468W        W98886  26.079  40.869  13.378
30469W        W98887  39.413   6.231  14.870
30470W        W98888  24.684   8.386  13.481
30471W        W98889  21.604  22.618   1.875
30472W        W98890  20.081  29.025   2.715
30473W        W98891  14.314  34.384  12.960
30474W        W98892   1.898  27.492  11.530
30475W        W98893  16.221  35.901  11.565
30476W        W98894  20.087   9.719  14.876
30477W        W98895  10.193  22.538   2.778
30478W        W98896  22.532  41.865  13.490
30479W        W98897  44.868  20.552   4.223
30480W        W98898  30.949  12.139  14.899
30481W        W98899  26.587  28.454  12.877
30482W        W98900   4.340  32.947  13.915
30483W        W98901  34.407  20.601   0.322
30484W        W98902  29.558  34.428   3.327
30485W        W98903   6.749  22.013  10.412
30486W        W98904  40.341  13.272  14.509
30487W        W98905  17.707  30.503   0.755
30488W        W98906  10.825   1.837   1.384
30489W        W98907  12.638  19.264  12.579
30490W        W98908  24.507  12.857   1.903
30491W        W98909   9.863  33.403  10.959
30492W        W98910  30.161  20.695  11.062
30493W        W98911  23.647   0.434  12.413
30494W        W98912   6.712   7.735  11.094
30495W        W98913  13.186  39.527   4.271
30496W        W98914  44.757  39.345  12.858
30497W        W98915  31.409  22.214  12.078
30498W        W98916  24.048  26.565   3.210
30499W        W98917   9.167   2.736  14.811
30500W        W98918  38.956  42.824  14.922
30501W        W98919  11.823   8.761   0.417
30502W        W98920  32.012   6.316  14.335
30503W        W98921  11.645  30.469   1.805
30504W        W98922  23.044   1.244  11.878
30505W        W98923  23.122  31.006   4.785
30506W        W98924  19.279   2.246   3.231
30507W        W98925  38.978   6.302  10.467
30508W        W98926  17.114  23.005   1.346
30509W        W98927  35.892  39.543  11.375
30510W        W98928  44.928   3.287   3.754
30511W        W98929  15.789   3.313  14.500
30512W        W98930   7.220  35.515  12.395
30513W        W98931   5.903  20.708   3.197
30514W        W98932  35.895   0.328  11.430
30515W        W98933  43.767  21.637  13.877
30516W        W98934   0.456  37.529   2.831
30517W        W98935  33.906  11.683  14.938
30518W        W98936  28.164  20.608   2.896
30519W        W98937  33.576  29.081   4.816
30520W        W98938   6.808  42.019   4.153
30521W        W98939  18.051   0.830  11.449
30522W        W98940   4.789  29.025  14.276
30523W        W98941  21.087  39.908  13.437
30524W        W98942  20.130   3.316   4.701
30525W        W98943  17.727  17.285  12.845
30526W        W98944  19.227  23.992   1.879
30527W        W98945   6.365  22.021   0.479
30528W        W98946  23.074  29.468  12.950
30529W        W98947  44.450  32.570   1.362
30530W        W98948  31.536  22.707   3.809
30531W        W98949  38.443  21.237   1.399
30532W        W98950  37.380  23.017   4.757
30533W        W98951  26.615  12.856   3.754
30534W        W98952  19.178   3.852  11.443
30535W        W98953  41.043  36.368  14.352
30536W        W98954  25.088  11.786   1.212
30537W        W98955  41.501  19.732   2.231
30538W        W98956   3.397  32.997   1.351
30539W        W98957  18.598  26.602   2.816
30540W        W98958  10.213  11.865   2.357
30541W        W98959   5.700  11.253   0.254
30542W        W98960   3.945  20.262   2.182
30543W        W98961   7.708  22.657  10.486
30544W        W98962   8.677  21.106   3.235
30545W        W98963  10.283  36.050  14.512
30546W        W98964   1.264  25.592  10.411
30547W        W98965   2.895  26.007  14.395
30548W        W98966  25.114  37.933   0.348
30549W        W98967  28.973  43.487  14.005
30550W        W98968  28.995  12.270   1.861
30551W        W98969   6.227  26.059   2.663
30552W        W98970  43.439   2.796   0.810
30553W        W98971  29.567  24.685  13.439
30554W        W98972  17.667   1.445  10.643
30555W        W98973   6.917  44.457  14.318
30556W        W98974  35.889  15.784   2.246
30557W        W98975  25.187  38.443   4.217
30558W        W98976  30.081  16.288  11.463
30559W        W98977  41.533  12.774   1.819
30560W        W98978  19.195  29.524   4.692
30561W        W98979  36.561  13.800   3.214
30562W        W98980   3.365  39.829   1.824
30563W        W98981  22.707   5.233   2.339
30564W        W98982  38.338  37.854   2.890
30565W        W98983  22.734  17.562   2.683
30566W        W98984  10.784  44.933   1.269
30567W        W98985   2.846  15.715  10.564
30568W        W98986  10.342  22.723  10.997
30569W        W98987   2.289  32.055   0.330
30570W        W98988  40.305   3.281   1.899
30571W        W98989   5.434  17.703  14.960
30572W        W98990  21.647  39.855   0.771
30573W        W98991   8.727  20.172   1.394
30574W        W98992  27.967  29.626   1.364
30575W        W98993  19.233  27.452  12.370
30576W        W98994   2.279  24.204  14.826
30577W        W98995  21.100  19.776   1.727
30578W        W98996  14.699  17.606   4.791
30579W        W98997  24.550  35.864  13.444
30580W        W98998   1.431  28.054   4.223
30581W        W98999  12.740  16.581   1.717
30582W        W99000  34.097  32.131  11.519
30583W        W99001  17.665  22.017  10.900
30584W        W99002   8.737  17.671  13.458
30585W        W99003   2.918  20.767   3.837
30586W        W99004   0.482  44.395   1.409
30587W        W99005  40.027   8.865  13.942
30588W        W99006  38.911   8.770  12.446
30589W        W99007  23.518  23.072   2.348
30590W        W99008  29.961  13.643   4.198
30591W        W99009  38.385  42.411  10.547
30592W        W99010  14.776   7.341   3.800
30593W        W99011   7.905  20.764   3.728
30594W        W99012  43.971  44.867  10.894
30595W        W99013  39.017  27.610  14.024
30596W        W99014  34.084  32.100  12.423
30597W        W99015   6.918  36.018   0.776
30598W        W99016  40.052  13.632  13.345
30599W        W99017  16.110  20.095  14.000
30600W        W99018  25.108   4.408   4.762
30601W        W99019   6.762  15.595  13.053
30602W        W99020  17.580  32.001  11.514
30603W        W99021  25.687  28.649   4.326
30604W        W99022  13.241   5.876   2.307
30605W        W99023  33.908   9.329  12.920
30606W        W99024  13.730   7.206  10.559
30607W        W99025  22.625  43.327  12.010
30608W        W99026  22.525  13.818   3.182
30609W        W99027  21.595  20.115   1.439
30610W        W99028  32.601   0.803   3.860
30611W        W99029   4.356   1.814   4.695
30612W        W99030  29.528  25.519  11.120
30613W        W99031  15.617   5.836   2.766
30614W        W99032   6.785  15.295  13.448
30615W        W99033  12.196  36.447   3.814
30616W        W99034  16.296  37.950  14.933
30617W        W99035  37.839  35.396  14.781
30618W        W99036  13.606  27.137  14.856
30619W        W99037  39.494  32.447   2.745
30620W        W99038  22.185   2.786   1.377
30621W        W99039  21.585   9.316   1.744
30622W        W99040   9.369  34.951   0.358
30623W        W99041  19.750  12.746   0.795
30624W        W99042  34.919  44.329  12.415
30625W        W99043  28.471  21.729   4.273
30626W        W99044  27.457  20.085  12.358
30627W        W99045  30.953  37.450  10.911
30628W        W99046  36.955  44.982  11.109
30629W        W99047  33.580  19.653   3.817
30630W        W99048  17.273  29.072   4.722
30631W        W99049  36.562   2.411   1.252
30632W        W99050  31.640  12.235   0.343
30633W        W99051  39.006  20.061  11.481
30634W        W99052  11.664  22.151   0.395
30635W        W99053  30.157  13.238   0.445
30636W        W99054  27.564  29.147  10.452
30637W        W99055   6.229  21.023  14.466
30638W        W99056  33.573   2.727   1.275
30639W        W99057  16.777  29.492   2.220
30640W        W99058  32.975  10.352  10.628
30641W        W99059  33.997  18.163   3.194
30642W        W99060   9.804  37.001   1.365
30643W        W99061  40.014   9.797   2.378
30644W        W99062  38.432   3.253  11.381
30645W        W99063  38.056   1.808   0.957
30646W        W99064  27.153  26.535  10.504
30647W        W99065  24.592  30.985  12.375
30648W        W99066  42.493  27.137  13.889
30649W        W99067  28.097  41.014  13.421
30650W        W99068   4.363  21.514  14.815
30651W        W99069   3.460  24.137  13.319
30652W        W99070  20.524  11.854   1.256
30653W        W99071   7.347  21.612   3.179
30654W        W99072  36.960  40.033   4.189
30655W        W99073  36.039  33.946  11.601
30656W        W99074   0.307  42.489   2.352
30657W        W99075  37.345  18.152  14.891
30658W        W99076  25.989  12.294   1.277
30659W        W99077  16.272  26.660  13.895
30660W        W99078  38.352   0.804  10.971
30661W        W99079  17.696   2.370  11.120
30662W        W99080  29.113  21.260  12.526
30663W        W99081  27.670  35.415  12.515
30664W        W99082  16.571  28.664  11.084
30665W        W99083  37.938  13.295  10.966
30666W        W99084   8.322  12.793  12.028
30667W        W99085  12.711  20.691   0.801
30668W        W99086   7.688   9.664   2.677
30669W        W99087  43.410   2.462   2.211
30670W        W99088  28.567  24.562   3.271
30671W        W99089  11.235   9.300  13.389
30672W        W99090  24.676  17.619   0.917
30673W        W99091  13.652  22.040   0.440
30674W        W99092  17.666  22.133  11.475
30675W        W99093  31.404  32.548  11.016
30676W        W99094   7.187  14.270  11.108
30677W        W99095  38.850   3.759  14.316
30678W        W99096  28.477  22.183  13.491
30679W        W99097  39.994  11.844  10.943
30680W        W99098  39.858  44.799   1.784
30681W        W99099  12.302  13.162   4.756
30682W        W99100  39.979   9.665   3.629
30683W        W99101   2.892   1.299   1.218
30684W        W99102  29.630  34.398   0.820
30685W        W99103  19.719   8.886  11.591
30686W        W99104  36.955  18.296   3.262
30687W        W99105  17.735  10.317   0.409
30688W        W99106  44.964   4.399   3.690
30689W        W99107  16.114  34.474   2.896
30690W        W99108  18.612  16.214   3.670
30691W        W99109  21.738  32.928   3.231
30692W        W99110  38.401  22.205   3.824
30693W        W99111  44.445   5.897  12.914
30694W        W99112  43.779  26.016   1.451
30695W        W99113  16.276  42.787   2.381
30696W        W99114  42.955  25.086  14.387
30697W        W99115  38.540  12.680  10.915
30698W        W99116  19.131   2.458   2.706
30699W        W99117   6.909  10.254   1.800
30700W        W99118  39.474  25.468   3.337
30701W        W99119  27.576   7.394   1.438
30702W        W99120  39.468   4.862  14.993
30703W        W99121  41.856  16.681  11.471
30704W        W99122  36.903   0.294  12.852
30705W        W99123  34.474   9.833  13.918
30706W        W99124  37.925  34.400   0.483
30707W        W99125  23.595   8.836   3.708
30708W        W99126  42.938  22.746  11.069
30709W        W99127   2.252  39.023   5.162
30710W        W99128  23.694  29.970   0.348
30711W        W99129  15.305  13.698  11.943
30712W        W99130  22.169   6.199   3.221
30713W        W99131  11.705  30.651  10.087
30714W        W99132  40.005  30.565   2.687
30715W        W99133  10.805   6.266  14.373
30716W        W99134   1.880  14.825  12.014
30717W        W99135  31.646   7.893   3.378
30718W        W99136  10.719  10.279  14.439
30719W        W99137  25.635  18.723  14.945
30720W        W99138  28.075  25.978  12.362
30721W        W99139  15.730  27.123  12.483
30722W        W99140   8.662  22.745  11.521
30723W        W99141  34.993  23.587   2.759
30724W        W99142  22.678   0.440  11.431
30725W        W99143   8.201  19.208   4.656
30726W        W99144  30.422  16.187   2.682
30727W        W99145  20.081  34.535  10.491
30728W        W99146  25.599  26.982  14.820
30729W        W99147  12.623  19.713  11.976
30730W        W99148   6.335  23.104   2.216
30731W        W99149   2.370  13.684   2.268
30732W        W99150  25.657  34.968  14.515
30733W        W99151  22.020  26.027  14.021
30734W        W99152  26.624  44.819  14.015
30735W        W99153  15.324  28.673  14.493
30736W        W99154  21.020  39.435  11.439
30737W        W99155  16.094  43.949   3.256
30738W        W99156  20.769  15.269   1.705
30739W        W99157   0.471  14.197   1.407
30740W        W99158  26.988  35.411   4.703
30741W        W99159  12.274   6.750  14.956
30742W        W99160  11.190  24.068   2.381
30743W        W99161   5.375  18.069   3.305
30744W        W99162  31.112  14.288   1.757
30745W        W99163  22.600  28.535   4.793
30746W        W99164  31.897   5.261  14.286
30747W        W99165  41.419  20.140   1.795
30748W        W99166  32.023  18.082   3.342
30749W        W99167  19.072  44.359  14.902
30750W        W99168  39.019  31.504   4.171
30751W        W99169  15.670   1.788  14.396
30752W        W99170  36.496  44.875   1.298
30753W        W99171  44.329  21.211   2.704
30754W        W99172  12.202  33.443  13.061
30755W        W99173  31.128  33.996  10.572
30756W        W99174  34.009   4.271  13.052
30757W        W99175  20.711  14.144   1.354
30758W        W99176  32.613  43.912  12.971
30759W        W99177  23.153   9.832  11.918
30760W        W99178  22.610  38.077  10.601
30761W        W99179  40.809  43.338   3.330
30762W        W99180  34.093  38.441   4.819
30763W        W99181  33.909  27.493  10.620
30764W        W99182  39.399  16.759  14.289
30765W        W99183  41.810  19.630   4.275
30766W        W99184  13.308  36.398  10.605
30767W        W99185  28.638  31.970  13.902
30768W        W99186  27.189  30.113  13.951
30769W        W99187  23.181  40.474   0.455
30770W        W99188  41.031   2.747   2.209
30771W        W99189  33.106  18.291  11.446
30772W        W99190  24.173  12.750  13.491
30773W        W99191  32.517  38.978   2.201
30774W        W99192  34.575  29.535  10.443
30775W        W99193  14.115  11.779  13.878
30776W        W99194  20.188  25.089   4.224
30777W        W99195  18.623  36.469  12.986
30778W        W99196  10.266  13.714  13.353
30779W        W99197  24.500  34.573   2.796
30780W        W99198  10.144   8.850  11.071
30781W        W99199  12.789  28.487  11.599
30782W        W99200  40.874  17.612   2.404
30783W        W99201  43.414  17.145  12.033
30784W        W99202  40.989   0.474  11.429
30785W        W99203  16.702   3.920   4.630
30786W        W99204  31.543  12.808  13.901
30787W        W99205  15.681  17.261   3.688
30788W        W99206   5.793  27.195   0.467
30789W        W99207  22.026  19.047   2.747
30790W        W99208   9.863  22.518  14.301
30791W        W99209  18.188  28.175  13.901
30792W        W99210  17.571  32.404  10.547
30793W        W99211  31.433  15.251  10.425
30794W        W99212   8.783  23.537  12.956
30795W        W99213  35.891  10.693  13.997
30796W        W99214   4.888  21.200  13.321
30797W        W99215  34.959   3.319  11.378
30798W        W99216  25.986  20.146   3.672
30799W        W99217   2.833   3.233  11.880
30800W        W99218  13.748  27.190  11.568
30801W        W99219  23.725  15.644   3.778
30802W        W99220   3.784   8.318  14.926
30803W        W99221   3.745  16.654  12.340
30804W        W99222  39.014   2.331  13.048
30805W        W99223  16.208  26.634   4.278
30806W        W99224  20.065   8.684   2.243
30807W        W99225  25.087  20.747   4.673
30808W        W99226   7.401  19.211  10.591
30809W        W99227  33.061  37.467  11.581
30810W        W99228  15.817  36.909   1.702
30811W        W99229  18.603  40.850  11.026
30812W        W99230  21.570  17.583  11.446
30813W        W99231  32.504  25.515  14.329
30814W        W99232  42.396  35.998  14.402
30815W        W99233   3.438  13.303  13.791
30816W        W99234  34.867  12.267   0.735
30817W        W99235  24.673  20.033   3.715
30818W        W99236  21.667  32.495   3.853
30819W        W99237  10.373   0.940   3.668
30820W        W99238  10.228  30.641   2.355
30821W        W99239   3.343  20.036  10.520
30822W        W99240   3.725  39.340  10.969
30823W        W99241  35.023  12.731   0.895
30824W        W99242  29.931  26.977   0.478
30825W        W99243  36.067  19.771  14.947
30826W        W99244  32.397  19.213   4.169
30827W        W99245  30.507  11.844  13.492
30828W        W99246  23.623   7.212  12.558
30829W        W99247  27.674  19.119   2.398
30830W        W99248  22.647   5.360   3.768
30831W        W99249   2.861  20.584  13.985
30832W        W99250  40.420  32.986   0.862
30833W        W99251  37.551   4.307   3.816
30834W        W99252   4.841  11.723  13.339
30835W        W99253  40.473   9.261   3.240
30836W        W99254  25.517  12.646  14.998
30837W        W99255   4.897   1.941   3.758
30838W        W99256  34.092  33.390   1.766
30839W        W99257   7.386  36.435   1.879
30840W        W99258   0.383   0.440   1.844
30841W        W99259  13.258  42.395   1.398
30842W        W99260  36.504   9.746   3.854
30843W        W99261  27.559  33.893   3.731
30844W        W99262   4.886  39.391   1.841
30845W        W99263   7.346  43.994   0.448
30846W        W99264  23.133   3.855   2.238
30847W        W99265  31.031  23.055   4.310
30848W        W99266  31.590   2.780  10.589
30849W        W99267   1.438  17.628  11.596
30850W        W99268   1.336  23.575   0.431
30851W        W99269  23.986  17.720  13.363
30852W        W99270  44.487  35.911  13.476
30853W        W99271  25.167   9.719   2.813
30854W        W99272  29.439  15.232   3.178
30855W        W99273  31.991  42.297   4.310
30856W        W99274  17.075   3.831  14.514
30857W        W99275  10.652  33.589   2.262
30858W        W99276  26.062  44.976   3.312
30859W        W99277  30.062  40.487   0.846
30860W        W99278  20.107   1.307   1.757
30861W        W99279  30.539  27.111   2.729
30862W        W99280  27.518   1.832  13.806
30863W        W99281  42.316  25.184   2.282
30864W        W99282  32.471  19.070   2.699
30865W        W99283  35.475  34.121   1.334
30866W        W99284  15.788  32.465  14.982
30867W        W99285  26.496  23.985   0.438
30868W        W99286  19.152  37.921  13.925
30869W        W99287  26.563  34.890   3.792
30870W        W99288  22.741  40.905   5.261
30871W        W99289  32.571  20.047   4.145
30872W        W99290   9.177  34.457  12.952
30873W        W99291  37.421   1.376  12.062
30874W        W99292   6.816  25.187   1.289
30875W        W99293  23.997   6.811   2.732
30876W        W99294  28.176  10.217  13.539
30877W        W99295   3.732  36.897   0.940
30878W        W99296  28.582  28.108  13.428
30879W        W99297  23.498  25.583   3.833
30880W        W99298  15.259  10.223   3.191
30881W        W99299   3.756  32.085   0.889
30882W        W99300  13.699  15.673   0.811
30883W        W99301   1.807  26.983   1.418
30884W        W99302  36.919  41.292  11.920
30885W        W99303  37.867   6.760  12.488
30886W        W99304   0.880  12.717   3.266
30887W        W99305  10.798  37.932   1.737
30888W        W99306  37.448  44.006  10.143
30889W        W99307  19.215   2.766   4.250
30890W        W99308  29.938   2.295  11.119
30891W        W99309   9.210  40.407  10.963
30892W        W99310  40.918  36.935  14.889
30893W        W99311  27.552   3.400   0.445
30894W        W99312  42.919   6.314  13.040
30895W        W99313  15.258  34.585   2.738
30896W        W99314  36.886  36.960   2.243
30897W        W99315  30.481  10.656   3.186
30898W        W99316   8.239   6.372  14.469
30899W        W99317  41.957  18.261   9.952
30900W        W99318  26.502  21.037  11.976
30901W        W99319  41.019  32.066   4.615
30902W        W99320  29.654  15.207  13.020
30903W        W99321   7.754  10.277  12.097
30904W        W99322  12.241  12.815   3.702
30905W        W99323  34.504  30.139  14.939
30906W        W99324  16.634   0.826   2.867
30907W        W99325  33.402   6.745  11.080
30908W        W99326  42.464  21.210  12.893
30909W        W99327  17.193  23.611  11.404
30910W        W99328   7.830  20.222  13.816
30911W        W99329  20.085  17.166  11.560
30912W        W99330  25.661  20.201  14.380
30913W        W99331  22.133  26.072   1.365
30914W        W99332  12.697  27.038   0.726
30915W        W99333  17.218  24.215  10.413
30916W        W99334  40.854  16.811  14.950
30917W        W99335  24.980  31.611   4.641
30918W        W99336  44.807   7.388  13.356
30919W        W99337  14.228  43.829   4.743
30920W        W99338   4.762  10.756  11.539
30921W        W99339  11.697   8.185  11.412
30922W        W99340  40.521   3.950   2.811
30923W        W99341  17.721  36.474  13.818
30924W        W99342  10.792  11.337  10.409
30925W        W99343  42.319  38.911   5.732
30926W        W99344  17.767   5.358  14.493
30927W        W99345  31.428   2.258   1.346
30928W        W99346  36.419  18.138  12.397
30929W        W99347  23.616  34.585  11.091
30930W        W99348  13.213  24.991  11.016
30931W        W99349  26.051  10.851  13.813
30932W        W99350   6.863   7.806  11.574
30933W        W99351   2.959  31.460   0.350
30934W        W99352  39.334   7.794   0.942
30935W        W99353  14.249  43.842   2.791
30936W        W99354  12.701  17.699  12.824
30937W        W99355  40.984  11.845   1.412
30938W        W99356  17.238  11.761   1.731
30939W        W99357  10.162  20.707   4.750
30940W        W99358  33.614   2.432   3.823
30941W        W99359   2.866  26.688   2.315
30942W        W99360  27.082  16.582  12.886
30943W        W99361  21.180  31.631   0.256
30944W        W99362  38.563  39.919   3.292
30945W        W99363  28.172  13.173  12.082
30946W        W99364  27.018  37.929   4.176
30947W        W99365   9.379  24.995  13.513
30948W        W99366  39.466   8.221  10.461
30949W        W99367  29.970  18.113   4.699
30950W        W99368  24.033   6.342   4.148
30951W        W99369   1.385  39.951  13.796
30952W        W99370  41.415  30.042   0.786
30953W        W99371  37.438   8.161   3.233
30954W        W99372  35.453  21.127  10.535
30955W        W99373  26.140  29.974  14.845
30956W        W99374   7.772   0.792  13.928
30957W        W99375  13.273  39.403   2.181
30958W        W99376  35.576  27.983   1.912
30959W        W99377   4.274  11.344   1.773
30960W        W99378  28.435  12.630   0.959
30961W        W99379  30.072  12.855   2.824
30962W        W99380   7.873  39.902   3.281
30963W        W99381  25.638  22.135  12.528
30964W        W99382  17.576   2.870   4.256
30965W        W99383  43.368  39.456   4.232
30966W        W99384   9.164  22.202   4.724
30967W        W99385  32.022  38.350  13.393
30968W        W99386  43.298  23.730   1.756
30969W        W99387  11.696  39.965  13.060
30970W        W99388  23.116  23.013  10.888
30971W        W99389   9.690  40.448  11.541
30972W        W99390  17.187  13.796   3.845
30973W        W99391  31.507  38.419   4.279
30974W        W99392  33.582   6.384  14.961
30975W        W99393  35.559   6.349   4.179
30976W        W99394  34.583  34.544  11.429
30977W        W99395  27.620  15.798  11.886
30978W        W99396  17.133  11.250  13.809
30979W        W99397  14.213  21.677   1.910
30980W        W99398  43.368  43.368   0.420
30981W        W99399  43.299  18.604   0.309
30982W        W99400  38.986  30.429   4.744
30983W        W99401  15.581  30.482  14.405
30984W        W99402  42.897   9.825   2.688
30985W        W99403  26.059  41.378   3.681
30986W        W99404   6.922  13.321   4.274
30987W        W99405  41.964  25.186   4.706
30988W        W99406  22.736  16.246  12.919
30989W        W99407  21.233   1.871   2.179
30990W        W99408  20.055  42.345  13.509
30991W        W99409   4.730   9.195   3.251
30992W        W99410  10.338  44.815  14.895
30993W        W99411  16.644  30.570   0.739
30994W        W99412  38.400  33.396  13.315
30995W        W99413  16.160  37.013  13.427
30996W        W99414  26.024  40.307   0.377
30997W        W99415  37.476  11.196   3.770
30998W        W99416  15.189  38.933  11.451
30999W        W99417  32.439  24.041  11.603
31000W        W99418  37.476  32.980  14.828
31001W        W99419  13.626  23.662  13.927
31002W        W99420  32.487  36.397  10.404
31003W        W99421  28.510  10.220   4.194
31004W        W99422  29.036  44.382  13.036
31005W        W99423  41.988  28.516   1.804
31006W        W99424  22.154  33.056   0.938
31007W        W99425  11.274  39.369  12.095
31008W        W99426   2.788  24.039  14.371
31009W        W99427  37.968  19.090   2.853
31010W        W99428  10.663  22.738  11.593
31011W        W99429   8.756   3.259  11.408
31012W        W99430  27.973  43.805   4.149
31013W        W99431  33.094  23.129   3.244
31014W        W99432  36.096  32.626   4.117
31015W        W99433  10.721  21.527   3.767
31016W        W99434  39.870   7.401  11.904
31017W        W99435  37.940   9.319   3.185
31018W        W99436  20.073   0.393   2.289
31019W        W99437   0.896  36.093   1.832
31020W        W99438  41.879  14.256  11.922
31021W        W99439  25.644  20.551   2.399
31022W        W99440   7.689  27.012   0.264
31023W        W99441  35.949  10.733  14.487
31024W        W99442  24.145  10.825  11.567
31025W        W99443   9.644  35.506   0.256
31026W        W99444  14.791  12.326   0.405
31027W        W99445   7.737   6.226   2.854
31028W        W99446  29.046  40.879  10.456
31029W        W99447  22.154  16.805   3.150
31030W        W99448  35.457  23.192  11.071
31031W        W99449  36.417  12.683   2.340
31032W        W99450  13.744   5.887  10.568
31033W        W99451  44.869  34.032   0.907
31034W        W99452  26.156  38.566   0.439
31035W        W99453  38.941  36.349   0.280
31036W        W99454   4.289  42.915   3.197
31037W        W99455   7.356  25.676   2.254
31038W        W99456  37.410  43.790  10.522
31039W        W99457  11.201  30.558  12.435
31040W        W99458  13.705  20.260  14.978
31041W        W99459   9.171  42.349   0.810
31042W        W99460  15.200  18.130  11.877
31043W        W99461  16.152   5.857  13.469
31044W        W99462  11.819  10.189   4.294
31045W        W99463  16.205  21.653  12.559
31046W        W99464   7.851   0.887   3.780
31047W        W99465  30.555   0.264   1.253
31048W        W99466   1.396   4.742   0.426
31049W        W99467   8.345  40.349  13.501
31050W        W99468  33.412  32.079  12.397
31051W        W99469  18.598   5.386   4.244
31052W        W99470   0.344  24.009   5.772
31053W        W99471  28.555  44.364   4.213
31054W        W99472  23.110  14.184  11.979
31055W        W99473  25.988   0.363  14.900
31056W        W99474   2.361  31.415  14.405
31057W        W99475  44.835  39.415   1.278
31058W        W99476   1.425   7.227  10.971
31059W        W99477  12.810  16.611   4.295
31060W        W99478  17.244  44.327  10.981
31061W        W99479  24.612  39.343   1.277
31062W        W99480   4.335  28.979   1.274
31063W        W99481  32.908  10.694   3.838
31064W        W99482  44.894   5.387  11.019
31065W        W99483  10.181  14.258   2.418
31066W        W99484  34.066  13.722  11.428
31067W        W99485  15.691  34.375   4.157
31068W        W99486  35.523  27.496  12.340
31069W        W99487  19.613  33.876   0.887
31070W        W99488  37.946  17.768  13.961
31071W        W99489  33.055   1.823   4.598
31072W        W99490  20.124  11.862   5.670
31073W        W99491   6.854  39.914  12.446
31074W        W99492  27.618  32.958   4.809
31075W        W99493   9.323  26.668  12.933
31076W        W99494   3.351  13.262  13.346
31077W        W99495  27.959  26.162  13.343
31078W        W99496  20.578   0.883  13.989
31079W        W99497  44.345  33.570   2.196
31080W        W99498  20.038  41.372   9.962
31081W        W99499  33.396  33.092   4.823
31082W        W99500  26.090  37.452  13.841
31083W        W99501  32.477   2.241  13.893
31084W        W99502  28.958  18.632  11.388
31085W        W99503  18.718  32.900  10.978
31086W        W99504   6.260  13.711   3.237
31087W        W99505   8.728  35.365  14.944
31088W        W99506   2.826  25.138   2.204
31089W        W99507  23.986  27.476   0.836
31090W        W99508  44.891  12.654   2.288
31091W        W99509  42.386  16.750  14.912
31092W        W99510  36.438  22.069  10.528
31093W        W99511  13.783  35.584  10.413
31094W        W99512  11.134  11.158  14.463
31095W        W99513  35.908  14.239  11.430
31096W        W99514  21.158  21.686  13.411
31097W        W99515  33.876  28.451   4.780
31098W        W99516  11.366  40.934   0.292
31099W        W99517  21.058  40.973   5.680
31100W        W99518  35.095   2.314  14.499
31101W        W99519  43.910   8.258  12.367
31102W        W99520   4.318  20.070   4.279
31103W        W99521  13.167   5.849  10.509
31104W        W99522  29.106   7.717  13.062
31105W        W99523  30.414  24.024   2.192
31106W        W99524  40.874   4.737  12.464
31107W        W99525  38.345  33.549   3.214
31108W        W99526  10.208   6.426   4.688
31109W        W99527   8.682  41.972  11.455
31110W        W99528  24.586  35.412   1.269
31111W        W99529  28.485  15.310  14.862
31112W        W99530  15.777   3.396   1.899
31113W        W99531  27.156   6.297  10.983
31114W        W99532   9.672  23.650  13.043
31115W        W99533  40.862  21.018  11.000
31116W        W99534   2.915  16.582  12.845
31117W        W99535   1.816   2.298  14.509
31118W        W99536  36.897  14.670   2.185
31119W        W99537  33.425  42.830   2.731
31120W        W99538  24.579  44.435  11.974
31121W        W99539  18.631  24.651   4.728
31122W        W99540   9.167   4.819   1.447
31123W        W99541  23.164  29.964   1.227
31124W        W99542  36.528  38.406  11.552
31125W        W99543  43.941   8.356   3.703
31126W        W99544   9.158  21.647   1.742
31127W        W99545  39.416   8.232  11.459
31128W        W99546  36.945  23.516   1.792
31129W        W99547   1.248  32.556   1.932
31130W        W99548  15.716  26.600   3.362
31131W        W99549  36.421  33.005   0.927
31132W        W99550  26.470  44.379  14.323
31133W        W99551  32.104  16.775   0.742
31134W        W99552  23.047  32.556  11.374
31135W        W99553   9.721  10.179  11.892
31136W        W99554   9.391  40.926   2.251
31137W        W99555   1.328   2.433   1.827
31138W        W99556   6.878  33.977  14.024
31139W        W99557   1.300  34.047   3.175
31140W        W99558  36.542  17.250   2.823
31141W        W99559  31.448  35.572   2.307
31142W        W99560   8.894  12.656   3.752
31143W        W99561   5.838  44.797   4.265
31144W        W99562  29.452  21.713  14.461
31145W        W99563   5.719   6.904   1.839
31146W        W99564  19.156   0.871  13.948
31147W        W99565  34.586  15.167   3.193
31148W        W99566  40.831  39.808  12.940
31149W        W99567   8.688  40.909  13.368
31150W        W99568  17.114   1.305  11.398
31151W        W99569  35.440  23.058   4.219
31152W        W99570  17.209  33.508   4.714
31153W        W99571  25.009  22.093  12.531
31154W        W99572  18.573   6.709   4.695
31155W        W99573  26.153  27.587   2.686
31156W        W99574  14.606  15.796   0.957
31157W        W99575   0.765  10.150  10.465
31158W        W99576   5.910  40.879  13.864
31159W        W99577  10.284  16.712   2.786
31160W        W99578  17.623  31.965   5.297
31161W        W99579  33.526  28.559   4.340
31162W        W99580  38.979  18.659   1.800
31163W        W99581  34.425  32.418  13.379
31164W        W99582  33.397  22.571   3.347
31165W        W99583  17.714   9.803  14.901
31166W        W99584   7.268  24.014   4.725
31167W        W99585   0.819   6.884   9.924
31168W        W99586  17.219  10.648  13.834
31169W        W99587  18.289  12.666  12.471
31170W        W99588   1.412  39.013   3.800
31171W        W99589  28.966  39.860   4.706
31172W        W99590  19.047  13.266   2.752
31173W        W99591   5.911  39.969   0.473
31174W        W99592  30.486  26.508   4.758
31175W        W99593  37.052   7.326   0.417
31176W        W99594   8.327  19.730  12.362
31177W        W99595  30.018  37.981  12.368
31178W        W99596  23.623  29.455   2.255
31179W        W99597   6.703  41.357  13.310
31180W        W99598  39.994  16.260  10.484
31181W        W99599  29.035   3.882   0.925
31182W        W99600  39.026  40.980   0.413
31183W        W99601  30.089   3.305  12.883
31184W        W99602  11.188  35.880  13.918
31185W        W99603  27.016  35.474   4.168
31186W        W99604  34.873  29.525  10.430
31187W        W99605  11.310   8.834  13.887
31188W        W99606  32.550  23.713  12.477
31189W        W99607  43.950  37.913  10.543
31190W        W99608  25.610  10.647  11.083
31191W        W99609   4.345   1.821   3.268
31192W        W99610  26.085  43.001   4.634
31193W        W99611  19.539  42.781   1.370
31194W        W99612  11.722  36.420  13.507
31195W        W99613  29.949  34.373   1.222
31196W        W99614  28.664  17.588   1.325
31197W        W99615  15.118  43.824   0.801
31198W        W99616  10.236  28.043  14.803
31199W        W99617  12.736   8.250   1.370
31200W        W99618   9.272   8.275  14.927
31201W        W99619  32.094   5.819  10.566
31202W        W99620   8.264  27.116  13.412
31203W        W99621  28.088  12.295   4.777
31204W        W99622  42.441  27.963  10.489
31205W        W99623  36.885  15.647   4.156
31206W        W99624  10.247  25.105   0.466
31207W        W99625  40.955  42.920   1.210
31208W        W99626  38.939  28.591  11.532
31209W        W99627  16.807  28.954  11.433
31210W        W99628   3.886  34.563   3.164
31211W        W99629  43.371   6.816  13.854
31212W        W99630  24.185   6.182  11.871
31213W        W99631   1.812  42.338   1.236
31214W        W99632  30.048  12.129   1.932
31215W        W99633  29.510   3.714   3.321
31216W        W99634  43.785  23.722  12.373
31217W        W99635  17.121  27.057  13.842
31218W        W99636  15.158   3.816  13.018
31219W        W99637  28.173  33.019   2.418
31220W        W99638  13.183  19.628   3.727
31221W        W99639  16.587  22.707  10.562
31222W        W99640  23.518  22.053  12.913
31223W        W99641  23.721  38.414   3.160
31224W        W99642  36.900   0.865   0.472
31225W        W99643  41.372  18.720   1.316
31226W        W99644  19.563   9.793   3.248
31227W        W99645  22.018  27.073  14.325
31228W        W99646  38.550  36.547  10.911
31229W        W99647  32.092  21.740   2.786
31230W        W99648  13.638  10.848  13.842
31231W        W99649  24.229   7.251  12.466
31232W        W99650   9.785  38.050   3.670
31233W        W99651   3.761  36.373  12.931
31234W        W99652  21.259  24.999  12.339
31235W        W99653   8.834   6.394   4.765
31236W        W99654  35.541  19.121  12.495
31237W        W99655   7.403  10.359   4.128
31238W        W99656  36.913  36.494   3.774
31239W        W99657  17.801  23.553  12.367
31240W        W99658  30.542  36.541  10.983
31241W        W99659  14.653  30.537   2.888
31242W        W99660  16.122  35.499   1.783
31243W        W99661  43.824  34.551  11.594
31244W        W99662  37.524   7.333   1.915
31245W        W99663  30.032  39.051  13.412
31246W        W99664  28.551  12.236  14.376
31247W        W99665  33.914  32.096   0.894
31248W        W99666  19.172  26.692   0.460
31249W        W99667  27.516   7.721   2.857
31250W        W99668  21.192  36.523  12.487
31251W        W99669  36.541  39.818  13.004
31252W        W99670  30.060   9.682   0.243
31253W        W99671  31.439   0.756  14.975
31254W        W99672  10.231  38.484  12.515
31255W        W99673  36.062  41.835  11.390
31256W        W99674   3.392  14.830  11.396
31257W        W99675  40.417  37.037   0.253
31258W        W99676  36.477  37.949  14.956
31259W        W99677  44.408  44.268  13.471
31260W        W99678  23.111   8.700  10.444
31261W        W99679  18.713  28.146  11.028
31262W        W99680  25.207   6.822   1.279
31263W        W99681   4.826  22.581  11.860
31264W        W99682  35.580  38.841  11.857
31265W        W99683  23.696  33.919  12.875
31266W        W99684  31.099  17.251   2.743
31267W        W99685  37.035  44.436  13.833
31268W        W99686  40.303  33.572  12.414
31269W        W99687  23.103  13.717  11.545
31270W        W99688  41.926  11.856   3.366
31271W        W99689  13.648  16.223   3.167
31272W        W99690  10.256  22.507   3.819
31273W        W99691  36.862  12.841  14.474
31274W        W99692  22.209   1.801   1.699
31275W        W99693  26.467  18.756   2.872
31276W        W99694   7.213  11.141   4.183
31277W        W99695   7.374  22.065  11.041
31278W        W99696  22.610  26.517   5.270
31279W        W99697   5.834   6.422   2.787
31280W        W99698  44.823  24.171   1.385
31281W        W99699  10.379  16.805  13.827
31282W        W99700  18.587   7.267  10.548
31283W        W99701   4.346  39.820   3.868
31284W        W99702  39.527  22.231  10.927
31285W        W99703  30.947  14.646   2.669
31286W        W99704   3.844  12.159  11.029
31287W        W99705  18.662  36.081   0.381
31288W        W99706   1.854  21.102   0.780
31289W        W99707  34.863  23.509  10.091
31290W        W99708  15.244  11.314  14.371
31291W        W99709   7.332  43.878   0.943
31292W        W99710   6.370  30.033  14.804
31293W        W99711  28.946  38.392   4.266
31294W        W99712   1.774  42.793   0.328
31295W        W99713  22.526   3.872  10.511
31296W        W99714  14.288  43.511  11.376
31297W        W99715   6.235   8.221  12.577
31298W        W99716  29.442  22.223   3.718
31299W        W99717  12.796   5.393  12.453
31300W        W99718  26.677   2.906   4.314
31301W        W99719  26.480  13.810  11.869
31302W        W99720  26.625   3.297  12.997
31303W        W99721  15.815  36.071  13.917
31304W        W99722  22.565  35.484   4.217
31305W        W99723   8.745  27.446   4.253
31306W        W99724   9.847  39.521   1.275
31307W        W99725  43.346   0.785   1.302
31308W        W99726   8.804  24.990   3.776
31309W        W99727  30.441   2.905  11.105
31310W        W99728  30.645  17.193  12.071
31311W        W99729  42.492  44.964   0.406
31312W        W99730   3.222  39.823   0.429
31313W        W99731  18.099  10.641   1.246
31314W        W99732  26.628  29.127   2.406
31315W        W99733  17.610  23.120  11.608
31316W        W99734  33.106   6.371  10.524
31317W        W99735  13.157  25.079  14.497
31318W        W99736  28.650  30.016  12.421
31319W        W99737  22.630   3.805  13.025
31320W        W99738  16.179  13.214  14.879
31321W        W99739  12.275  20.239  13.797
31322W        W99740  19.653  39.865  11.464
31323W        W99741   7.871   1.298   2.799
31324W        W99742  22.640   9.388  13.882
31325W        W99743  39.523  14.681  14.925
31326W        W99744  34.043  31.611   2.394
31327W        W99745  31.583  44.362   2.711
31328W        W99746  39.894  29.092  11.518
31329W        W99747  15.634  22.617  12.573
31330W        W99748  11.645  41.479  10.053
31331W        W99749  44.316  36.880  14.796
31332W        W99750  25.528  29.047  11.605
31333W        W99751  33.601   6.216   0.950
31334W        W99752  36.479  43.935   2.334
31335W        W99753  15.174  27.495   1.862
31336W        W99754   1.929  15.260  14.495
31337W        W99755  12.256  19.645  11.074
31338W        W99756  36.557   1.438  14.386
31339W        W99757  38.834  24.095  10.523
31340W        W99758  34.434  42.395  14.901
31341W        W99759  15.784  16.652  12.419
31342W        W99760   5.745   3.805   3.339
31343W        W99761   1.355  15.257  14.843
31344W        W99762  43.906  43.330  13.894
31345W        W99763   6.806  22.583  12.931
31346W        W99764   7.352  27.510  10.484
31347W        W99765  34.020   2.834   1.422
31348W        W99766  25.059  42.413   1.775
31349W        W99767  38.480   4.210  10.427
31350W        W99768  12.759  25.045   1.210
31351W        W99769  18.292  36.461   4.231
31352W        W99770  16.712  18.693   0.924
31353W        W99771   3.764  39.523   4.623
31354W        W99772  20.077  39.359  10.902
31355W        W99773   9.657  20.231  14.818
31356W        W99774   0.366  32.119  10.106
31357W        W99775  33.008  13.720   1.406
31358W        W99776  34.560  33.920   2.202
31359W        W99777   3.228   4.717   2.876
31360W        W99778  36.864  32.004   4.312
31361W        W99779  30.568   9.682  14.443
31362W        W99780   5.366  24.183  12.944
31363W        W99781  37.999  33.624   2.842
31364W        W99782  32.414   0.290   4.616
31365W        W99783   5.785   1.749  14.841
31366W        W99784  39.433   3.387   1.393
31367W        W99785  43.354  41.995   5.154
31368W        W99786  28.181  39.871   2.856
31369W        W99787   5.759  27.547   4.226
31370W        W99788  28.630  31.544   4.123
31371W        W99789  24.229   2.881  12.999
31372W        W99790  24.679   5.702  14.434
31373W        W99791  20.676   3.328  11.069
31374W        W99792  27.548  17.250  14.965
31375W        W99793  40.914   2.448  14.494
31376W        W99794   1.895  19.285   5.645
31377W        W99795  38.512  34.450  14.873
31378W        W99796  38.462  37.511   4.323
31379W        W99797   2.283  17.135   4.625
31380W        W99798   1.241   9.878  14.376
31381W        W99799  21.128  18.639   0.727
31382W        W99800  28.483  15.628   4.728
31383W        W99801  19.236  36.847   2.826
31384W        W99802  31.126  41.008  12.840
31385W        W99803  34.967  31.490  13.031
31386W        W99804  25.021   9.885   1.890
31387W        W99805  35.966  42.014  11.927
31388W        W99806  35.047  44.809   3.837
31389W        W99807  41.837   0.822  13.421
31390W        W99808  23.647  22.205  11.979
31391W        W99809  24.166  15.216  13.454
31392W        W99810  28.630  18.138  11.949
31393W        W99811  14.761  17.579  11.093
31394W        W99812  20.238  32.621  12.991
31395W        W99813   5.242  15.689  10.606
31396W        W99814   6.249  30.611   2.858
31397W        W99815   4.742  22.637   2.733
31398W        W99816  38.485   2.936  11.560
31399W        W99817   7.708  17.659   1.272
31400W        W99818  21.690   6.693   1.290
31401W        W99819  26.998  31.486  12.092
31402W        W99820   4.780   1.932   0.302
31403W        W99821  13.283   1.313  12.856
31404W        W99822  26.010   3.310   2.676
31405W        W99823  21.095   5.295  11.980
31406W        W99824  13.759  20.218   3.174
31407W        W99825  26.656  23.667  10.448
31408W        W99826  20.244  28.993  13.013
31409W        W99827  41.816  44.829   2.686
31410W        W99828  19.093  27.166   3.304
31411W        W99829  18.560  38.002  13.409
31412W        W99830  11.303  22.581   3.169
31413W        W99831  21.598   3.388   4.771
31414W        W99832  20.150   1.786   1.739
31415W        W99833  32.943  19.731   1.369
31416W        W99834   4.275  40.053  13.356
31417W        W99835  40.885  29.161   2.721
31418W        W99836   0.769  23.600   3.146
31419W        W99837  15.160  12.759   1.810
31420W        W99838  26.091  18.255   2.697
31421W        W99839  19.060  14.163   3.384
31422W        W99840  44.366  26.514   3.745
31423W        W99841  35.465  26.102  13.985
31424W        W99842  28.929  20.059   3.711
31425W        W99843  13.292  16.633  11.548
31426W        W99844  43.932  40.393   0.864
31427W        W99845   9.831  39.534   2.854
31428W        W99846   2.948  18.288   1.399
31429W        W99847  43.463   5.438   3.828
31430W        W99848   7.240  20.671   0.732
31431W        W99849  41.445  42.941  12.546
31432W        W99850  17.287  42.945  10.995
31433W        W99851   6.823  23.545   0.811
31434W        W99852  33.528  29.510   2.744
31435W        W99853  19.631  42.413   0.461
31436W        W99854  13.131  39.972  13.435
31437W        W99855  21.650   0.838  14.357
31438W        W99856  17.556  44.348   4.801
31439W        W99857  22.670  34.437  10.622
31440W        W99858  15.190  29.068  11.857
31441W        W99859  44.790   6.413  10.502
31442W        W99860  42.301  26.977  12.354
31443W        W99861  35.409  16.597   4.175
31444W        W99862  28.438  34.546  14.799
31445W        W99863  23.721  36.049  14.277
31446W        W99864  12.621  30.097   2.769
31447W        W99865  24.484   2.724   1.301
31448W        W99866  41.953  35.543   4.750
31449W        W99867   7.866  12.781   2.737
31450W        W99868  41.304  36.050  14.363
31451W        W99869  39.830  38.357  12.832
31452W        W99870  10.714  10.827   1.248
31453W        W99871   8.756   8.777   0.324
31454W        W99872   4.447  24.499  14.813
31455W        W99873  36.558  25.472   1.440
31456W        W99874  19.232   8.326   4.294
31457W        W99875  11.845  32.921   2.770
31458W        W99876   6.361   5.364  14.026
31459W        W99877   2.279  42.371  14.310
31460W        W99878  38.547  15.734   1.342
31461W        W99879  25.509  11.248  11.982
31462W        W99880  40.537   6.707  11.405
31463W        W99881  41.809  28.444  11.601
31464W        W99882  24.138  25.560  10.429
31465W        W99883   2.783  29.112  11.871
31466W        W99884  19.685  14.767   0.795
31467W        W99885  24.575  16.317  13.928
31468W        W99886  34.481   1.309  12.572
31469W        W99887  10.831  38.479  14.394
31470W        W99888   2.769   2.754   2.882
31471W        W99889  40.375   3.236   3.206
31472W        W99890  39.462  27.025  10.562
31473W        W99891  29.529  25.501   2.841
31474W        W99892  34.436  26.552   1.922
31475W        W99893  33.553  13.645  13.064
31476W        W99894   5.830  31.572  14.321
31477W        W99895  18.583  32.070   2.398
31478W        W99896  38.930  44.826   2.352
31479W        W99897   9.650  19.090   1.239
31480W        W99898  25.172  25.071   2.690
31481W        W99899  31.470  14.299   3.684
31482W        W99900  11.203  35.399  12.887
31483W        W99901   7.902  22.034  12.825
31484W        W99902   7.674  29.063   0.892
31485W        W99903  19.282  17.267   0.908
31486W        W99904  27.175  19.539   2.664
31487W        W99905  12.234  38.875  11.107
31488W        W99906   7.233  30.604   0.367
31489W        W99907  18.785  34.447  10.148
31490W        W99908  27.152   6.772  14.295
31491W        W99909  36.509  33.425   2.717
31492W        W99910  25.084  40.477  10.603
31493W        W99911   9.855  28.961   4.346
31494W        W99912   7.854  27.089  13.438
31495W        W99913   9.336  11.824  10.913
31496W        W99914  13.243   2.835  12.433
31497W        W99915  39.870  44.322  13.313
31498W        W99916  22.009  39.407   0.356
31499W        W99917  37.920  42.425  11.965
31500W        W99918  42.998  17.154  11.909
31501W        W99919  13.262  41.792  14.894
31502W        W99920  40.028   7.893  12.451
31503W        W99921   9.342   3.331  13.477
31504W        W99922   4.808   7.243  10.895
31505W        W99923  27.515  36.026  11.463
31506W        W99924   6.855  36.401   4.801
31507W        W99925  29.537  25.680  13.388
31508W        W99926   7.237  37.936  10.500
31509W        W99927  27.066  19.257   0.869
31510W        W99928   8.733  36.877   0.437
31511W        W99929  26.557  21.071   2.335
31512W        W99930  43.009  17.586  13.498
31513W        W99931  43.906   5.267  13.018
31514W        W99932  26.980  25.181  13.869
31515W        W99933  31.481  16.675  11.469
31516W        W99934  26.091  21.017  14.429
31517W        W99935   3.800  43.020   5.117
31518W        W99936  26.495   6.242  13.983
31519W        W99937  30.449   3.772  10.972
31520W        W99938   1.417  21.084   5.195
31521W        W99939   2.790  22.655   5.134
31522W        W99940  35.489  32.968   3.699
31523W        W99941   8.817  24.998  10.458
31524W        W99942   9.674  41.863   0.445
31525W        W99943   3.815  24.697  13.980
31526W        W99944  25.218  16.696  13.883
31527W        W99945  27.078   9.725  11.433
31528W        W99946  16.791   6.723  10.968
31529W        W99947  14.309  14.240   1.274
31530W        W99948   4.243  19.262   4.201
31531W        W99949  12.723  44.899   4.778
31532W        W99950  44.267   5.851   3.724
31533W        W99951  40.407  14.146  12.069
31534W        W99952   9.356  24.178  13.055
31535W        W99953  40.821  32.499  11.886
31536W        W99954  14.241  10.383  11.029
31537W        W99955  36.952  38.945   1.743
31538W        W99956  12.614   5.759   4.114
31539W        W99957   1.844  21.618  12.050
31540W        W99958   4.355   9.747  12.419
31541W        W99959  27.021  23.692  14.984
31542W        W99960   6.361   5.218  14.771
31543W        W99961  10.332  10.696  13.993
31544W        W99962  14.807  25.568  11.914
31545W        W99963  20.205  17.779   2.197
31546W        W99964  41.457  32.904   3.372
31547W        W99965  35.489   0.411  13.980
31548W        W99966  37.862  34.905   1.934
31549W        W99967  15.129  10.189  11.031
31550W        W99968  30.591  38.063  10.521
31551W        W99969  38.962  39.898   4.825
31552W        W99970  14.275   7.816   3.837
31553W        W99971  10.648  39.548   4.263
31554W        W99972  39.009   8.835  14.017
31555W        W99973  16.647  38.389  13.415
31556W        W99974  20.574  24.652  11.860
31557W        W99975  20.201   6.226  13.530
31558W        W99976  29.132  42.021  10.421
31559W        W99977  21.671  31.620  14.792
31560W        W99978   5.833  19.687  14.303
31561W        W99979  13.642  39.464   3.830
31562W        W99980  31.621  44.294   1.377
31563W        W99981  43.289  31.946   4.120
31564W        W99982  22.236  38.418  11.400
31565W        W99983  17.226  10.785   4.824
31566W        W99984  43.282   2.457   2.834
31567W        W99985  23.024   0.461   3.276
31568W        W99986  26.134  43.012  10.625
31569W        W99987   2.874  44.764  13.447
31570W        W99988  14.818   5.416  14.437
31571W        W99989  37.536   3.715  12.576
31572W        W99990  38.883  32.998  13.857
31573W        W99991  44.867  33.462  12.421
31574W        W99992  10.703  22.137  12.944
31575W        W99993  33.102   4.287   1.277
31576W        W99994  21.577  25.482  11.857
31577W        W99995   6.861  23.568  12.987
31578W        W99996  40.423   0.329  10.518
31579W        W99997  16.627  14.118   3.796
31580W        W99998   8.691  11.781   3.813
31581W        W99999  16.767  31.487  13.814
31582W        W    0  15.777  37.882  11.449
31583W        W    1  40.880  34.555  12.060
31584W        W    2  19.589  41.483  12.346
31585W        W    3   7.787  33.909  14.992
31586W        W    4  27.523   7.845  14.421
31587W        W    5  30.130   5.914   4.617
31588W        W    6  39.900  43.478   2.359
31589W        W    7  24.185   0.258   0.751
31590W        W    8   4.225  43.876   0.795
31591W        W    9  18.659  22.732  10.411
31592W        W   10   8.307  22.527  12.351
31593W        W   11  43.773  13.774  13.471
31594W        W   12   8.668  30.646  11.499
31595W        W   13  31.958  22.716  12.828
31596W        W   14  21.033  38.902   3.347
31597W        W   15   7.247  38.446   1.264
31598W        W   16   0.793  10.371  14.313
31599W        W   17   6.804  40.505  10.525
31600W        W   18  39.813  42.847   0.420
31601W        W   19  31.931  34.370   3.245
31602W        W   20   4.923   0.311  13.465
31603W        W   21  12.704  26.043   1.270
31604W        W   22  11.230  27.462   2.295
31605W        W   23  43.948  33.017   0.813
31606W        W   24   1.768  26.044   0.749
31607W        W   25  26.684  37.006   0.266
31608W        W   26  12.319  39.972  13.933
31609W        W   27  40.902   4.369   3.649
31610W        W   28  43.987   8.833  12.978
31611W        W   29  32.905  40.002   3.220
31612W        W   30  28.655   5.437  14.413
31613W        W   31  24.006  43.418  11.546
31614W        W   32  13.693  24.723   2.286
31615W        W   33   8.256  39.342   3.345
31616W        W   34  36.381  15.622   0.386
31617W        W   35  27.152  40.394  12.539
31618W        W   36  24.648  10.382  14.479
31619W        W   37  32.122  11.355  10.953
31620W        W   38   7.806  10.330   9.982
31621W        W   39  24.605  23.695  14.943
31622W        W   40  43.963  33.123   2.334
31623W        W   41  27.575  34.430  14.437
31624W        W   42   4.365  13.688   2.773
31625W        W   43  26.511  40.001   3.175
31626W        W   44  25.680   5.296   1.796
31627W        W   45   3.922  19.577  14.818
31628W        W   46  15.180  30.048  12.555
31629W        W   47  27.109   4.404   1.926
31630W        W   48  32.429  10.769   0.854
31631W        W   49  13.114  23.224  12.942
31632W        W   50  29.533  26.985  11.556
31633W        W   51  27.579  36.858   1.315
31634W        W   52  20.042  25.207   2.384
31635W        W   53  36.365   2.433   4.210
31636W        W   54  20.754  34.051  14.832
31637W        W   55  25.507  37.947  11.595
31638W        W   56  34.872  14.141   5.287
31639W        W   57  24.165   9.751  13.504
31640W        W   58  19.276  12.246  13.319
31641W        W   59   0.356  40.546   4.726
31642W        W   60  19.283  26.959  13.919
31643W        W   61  15.616  44.459   1.804
31644W        W   62  40.323  33.045   3.168
31645W        W   63  11.161  40.036   0.470
31646W        W   64   1.797  21.754  12.380
31647W        W   65  14.688  31.036  12.986
31648W        W   66   1.405  24.997  11.054
31649W        W   67  11.723  36.870   3.754
31650W        W   68  23.559  29.070   3.300
31651W        W   69  17.191  40.899  10.076
31652W        W   70  37.532  28.184   4.694
31653W        W   71  12.784  40.040  10.583
31654W        W   72  36.082  23.624   3.242
31655W        W   73  24.491  28.600  14.998
31656W        W   74  35.501   0.803   1.809
31657W        W   75   3.891   8.349   0.926
31658W        W   76  21.666   3.231  13.856
31659W        W   77   5.788  29.003  11.058
31660W        W   78  31.953   6.326   3.823
31661W        W   79  31.960   9.299  10.517
31662W        W   80   6.409  28.467   3.829
31663W        W   81  43.830   9.662  13.854
31664W        W   82  10.173  35.012   3.803
31665W        W   83   7.813  21.716   3.156
31666W        W   84  33.442  13.828   3.646
31667W        W   85  36.509  23.079   4.722
31668W        W   86  24.487  17.673   1.378
31669W        W   87  28.565  31.473   0.881
31670W        W   88  16.116   6.186   3.827
31671W        W   89   3.270  26.961  14.015
31672W        W   90   2.826  11.834   3.686
31673W        W   91   9.656  17.213  10.514
31674W        W   92  44.986  26.472  14.434
31675W        W   93   7.234  20.689  14.348
31676W        W   94  44.001  42.527   3.299
31677W        W   95  17.624  44.956  13.543
31678W        W   96   6.226  10.308  13.909
31679W        W   97  39.001  33.966  12.857
31680W        W   98  42.823  24.084  10.414
31681W        W   99  20.185   2.869  14.967
31682W        W  100  42.456  22.690  12.940
31683W        W  101  11.335  21.618   1.767
31684W        W  102  21.645  39.434  10.130
31685W        W  103  33.082  20.741   4.305
31686W        W  104  31.403  14.139   4.614
31687W        W  105  21.103   5.798  10.622
31688W        W  106  30.911  16.261   4.168
31689W        W  107  20.769  21.039  10.063
31690W        W  108  33.503  36.375   0.882
31691W        W  109   4.878  11.680  13.022
31692W        W  110  38.528  43.790   1.739
31693W        W  111  19.535  36.546   4.337
31694W        W  112   1.907  20.623  12.433
31695W        W  113   5.354   5.281  12.838
31696W        W  114   4.778  10.779   3.249
31697W        W  115  36.514  41.987  13.492
31698W        W  116  15.119  31.507   3.356
31699W        W  117  16.139   7.232  11.885
31700W        W  118   7.711  35.574  12.377
31701W        W  119  26.462  22.578   0.333
31702W        W  120  10.707   2.427   2.340
31703W        W  121  20.272  17.195   2.694
31704W        W  122  24.080  28.123  14.474
31705W        W  123   8.392   4.410   2.324
31706W        W  124  32.917  25.052   0.955
31707W        W  125   1.387  30.024   2.829
31708W        W  126  13.845   8.314  11.525
31709W        W  127  42.826   5.811   2.882
31710W        W  128  43.443   4.935   4.248
31711W        W  129  22.711  11.699   3.706
31712W        W  130  14.821  43.911  14.807
31713W        W  131   5.362  35.860  10.925
31714W        W  132  42.518  19.238  11.491
31715W        W  133   2.331  34.471   0.400
31716W        W  134  10.866  21.153  13.012
31717W        W  135  23.112  22.239   4.636
31718W        W  136  18.567   4.713   5.266
31719W        W  137  39.862  37.047   0.413
31720W        W  138  14.832  35.039  10.419
31721W        W  139   0.964  21.526   0.824
31722W        W  140   1.763  29.491  11.112
31723W        W  141   2.326  18.235   1.353
31724W        W  142   6.797  23.087  11.990
31725W        W  143  19.607  17.104   3.690
31726W        W  144   3.379  35.539   1.763
31727W        W  145   9.752  10.835  12.463
31728W        W  146   2.389  19.672  14.834
31729W        W  147  22.204   0.893  12.080
31730W        W  148  44.379   0.763  13.434
31731W        W  149  40.375  19.180   2.718
31732W        W  150  37.554  13.255   5.114
31733W        W  151  19.249   5.874  13.061
31734W        W  152  37.558  17.663   2.323
31735W        W  153   1.381  41.419  14.340
31736W        W  154  16.758  30.514  14.794
31737W        W  155  39.386  23.192  11.450
31738W        W  156  18.116   1.886   4.132
31739W        W  157   0.391  14.694  14.005
31740W        W  158  44.977  10.211  10.999
31741W        W  159  35.544  29.931  14.983
31742W        W  160   0.867  25.208  14.773
31743W        W  161   3.896  18.102  12.580
31744W        W  162   2.365  17.725   1.877
31745W        W  163   4.938  34.075   4.615
31746W        W  164   1.953  18.631   3.637
31747W        W  165  17.608  34.581  11.006
31748W        W  166  30.619  17.624   2.779
31749W        W  167  29.486  39.041   0.950
31750W        W  168  42.960   2.322  14.425
31751W        W  169  30.983  11.750   0.334
31752W        W  170  41.529  20.182   0.965
31753W        W  171   0.361  20.253  13.791
31754W        W  172  32.995  14.740  13.478
31755W        W  173  16.639  18.646   1.746
31756W        W  174  20.569   1.373  12.365
31757W        W  175  25.548  22.611  10.539
31758W        W  176  40.023   5.865   2.315
31759W        W  177   2.857  22.729   1.416
31760W        W  178  19.257   6.223   3.775
31761W        W  179  44.310  38.882  13.022
31762W        W  180  40.473   3.891  11.034
31763W        W  181  35.937  23.494   1.836
31764W        W  182  41.408  44.423   1.702
31765W        W  183  16.664   2.461   1.323
31766W        W  184  41.026   1.401  12.885
31767W        W  185  28.052   0.290   4.805
31768W        W  186  19.680  10.157  11.857
31769W        W  187  33.891  41.873  11.944
31770W        W  188   6.348   7.839  10.908
31771W        W  189  28.108  22.066   4.338
31772W        W  190  32.595  39.942   2.737
31773W        W  191  16.267   5.236   4.656
31774W        W  192  31.594  17.088  13.454
31775W        W  193  39.871  16.162   2.712
31776W        W  194  42.422  38.429   3.631
31777W        W  195  16.094  18.669  12.056
31778W        W  196  16.722   4.313   9.637
31779W        W  197  17.766  37.359  10.571
31780W        W  198   1.412  31.061  14.972
31781W        W  199   9.654  39.894  11.012
31782W        W  200  35.394  10.153  12.454
31783W        W  201   7.219   2.446   0.900
31784W        W  202  16.143  43.385  14.471
31785W        W  203  17.567  39.991   0.906
31786W        W  204  43.000   5.900   1.385
31787W        W  205  28.667  16.149   3.258
31788W        W  206  27.010  40.833  11.855
31789W        W  207  18.198   7.736  14.989
31790W        W  208  26.015  22.552   1.432
31791W        W  209   3.330  43.423  10.967
31792W        W  210   4.241  20.662   2.293
31793W        W  211  20.269  18.558  13.320
31794W        W  212   5.834   8.759   3.668
31795W        W  213  43.861  13.126  14.438
31796W        W  214  20.254  37.490   4.191
31797W        W  215   6.883   2.324  12.354
31798W        W  216  11.272   0.393  13.809
31799W        W  217  27.490  16.671  13.441
31800W        W  218  28.995  15.179  12.518
31801W        W  219   5.920  39.424   2.301
31802W        W  220  29.107  11.340  11.971
31803W        W  221   8.255  22.158   2.874
31804W        W  222   2.226  43.509   4.762
31805W        W  223   2.845  30.976   0.842
31806W        W  224   4.800   3.410   4.251
31807W        W  225  42.282  32.962   4.261
31808W        W  226  33.914  32.893  12.455
31809W        W  227  25.148   1.377   1.730
31810W        W  228  40.373  13.677  10.904
31811W        W  229  25.638  33.880  10.528
31812W        W  230  10.166  31.460  11.512
31813W        W  231  28.182   0.292  10.087
31814W        W  232   4.362  28.589   3.295
31815W        W  233  11.660  44.324  11.608
31816W        W  234  40.969  16.314  12.874
31817W        W  235  11.270   0.329   3.169
31818W        W  236  17.567  41.986  10.414
31819W        W  237  43.493  17.628  13.398
31820W        W  238  12.717  10.755   0.392
31821W        W  239  39.837  25.570  12.914
31822W        W  240  15.769  40.967  11.448
31823W        W  241  20.549  10.876  13.900
31824W        W  242  29.617  27.662  14.341
31825W        W  243   0.396  29.568   4.792
31826W        W  244  32.569  24.061   3.159
31827W        W  245  19.040  25.622   5.640
31828W        W  246  44.802  25.548   0.348
31829W        W  247  41.381  37.860  11.516
31830W        W  248  21.587  21.258   0.784
31831W        W  249  29.144  28.066  13.457
31832W        W  250  33.876  23.520   4.281
31833W        W  251  29.486  30.915   4.778
31834W        W  252  28.030  24.622   3.795
31835W        W  253  13.645  25.218  13.323
31836W        W  254   0.769   0.467  11.999
31837W        W  255  12.197  15.272   1.410
31838W        W  256  25.689   0.760   3.175
31839W        W  257  19.598  15.259   3.384
31840W        W  258  39.876   4.298   3.821
31841W        W  259  30.038  42.507  12.998
31842W        W  260  39.513  40.898   4.662
31843W        W  261  12.247  24.194   2.181
31844W        W  262  23.500  18.079   0.781
31845W        W  263  16.198  39.966   2.324
31846W        W  264  34.430  34.956   3.213
31847W        W  265   6.872  19.189   3.164
31848W        W  266   4.740   5.819  10.477
31849W        W  267   5.257  19.778  14.945
31850W        W  268   2.333  32.430  12.362
31851W        W  269  14.231  36.457   1.835
31852W        W  270  31.939  29.127  14.007
31853W        W  271  26.599   9.251   1.917
31854W        W  272  33.414  37.070   3.152
31855W        W  273  43.322  17.714  11.075
31856W        W  274  16.107  37.566   2.338
31857W        W  275   7.833  14.250   2.861
31858W        W  276  14.292  10.860  11.944
31859W        W  277  44.504  14.653   5.709
31860W        W  278  21.062  31.617   4.346
31861W        W  279  20.537  34.991  13.941
31862W        W  280  19.282  30.519   0.814
31863W        W  281  26.192   7.851   5.627
31864W        W  282  10.735  25.066   1.274
31865W        W  283  18.164   1.909   3.151
31866W        W  284  44.915  31.146   2.278
31867W        W  285  39.832   1.430  12.551
31868W        W  286   9.238  41.942  10.548
31869W        W  287  28.658  28.012  12.552
31870W        W  288  37.015  21.125  13.971
31871W        W  289  32.962  39.542   1.367
31872W        W  290   2.752  44.386   0.417
31873W        W  291  25.594  11.791   2.891
31874W        W  292   5.705  15.104   1.858
31875W        W  293  41.991  28.500   0.859
31876W        W  294  32.424  16.305   1.885
31877W        W  295   8.233  28.484   1.932
31878W        W  296  28.982  30.947  14.031
31879W        W  297  31.918   6.737   1.286
31880W        W  298   4.730  13.620   2.415
31881W        W  299  13.284  35.942  13.312
31882W        W  300  38.910  42.941  10.989
31883W        W  301  32.078  22.153   0.273
31884W        W  302   4.749   1.859  12.427
31885W        W  303  41.788  11.621   4.163
31886W        W  304   4.762   8.854   3.294
31887W        W  305   8.201  13.325  12.392
31888W        W  306   0.444   4.721  10.971
31889W        W  307  15.612  25.974   1.245
31890W        W  308  34.007   0.256   2.848
31891W        W  309  22.619  11.339  13.440
31892W        W  310  41.483  34.001  14.768
31893W        W  311  33.538   8.813  11.090
31894W        W  312  24.008  10.680   2.880
31895W        W  313  38.976  27.060   4.669
31896W        W  314  21.654  34.896   4.208
31897W        W  315  33.105   3.886  11.020
31898W        W  316  39.449  18.136  12.948
31899W        W  317   0.307   3.882  12.956
31900W        W  318  22.552  20.140  11.936
31901W        W  319  11.144   0.464   0.244
31902W        W  320  41.399   7.685   4.754
31903W        W  321  36.498  16.766  11.046
31904W        W  322  31.968   9.312   2.331
31905W        W  323  10.279  13.256   2.851
31906W        W  324  10.733  25.004  10.618
31907W        W  325  12.252  43.428  10.616
31908W        W  326  36.069   1.971  13.408
31909W        W  327   6.750  20.699   2.786
31910W        W  328  21.551  28.561   1.369
31911W        W  329  36.073   1.296   3.159
31912W        W  330  16.632  19.272  12.454
31913W        W  331  11.627  20.075  11.124
31914W        W  332   9.188  36.862   0.835
31915W        W  333   3.355  28.535  14.392
31916W        W  334  16.304  34.395  14.413
31917W        W  335  26.615  21.583   3.650
31918W        W  336   3.811  42.864   2.713
31919W        W  337  38.365   5.689   2.390
31920W        W  338  41.981  42.341  10.449
31921W        W  339  36.411  10.690   0.429
31922W        W  340  19.047  22.172   4.723
31923W        W  341   9.720  39.891   1.429
31924W        W  342  44.423  18.641  11.884
31925W        W  343  27.173  35.046   2.890
31926W        W  344  35.527  37.068   3.244
31927W        W  345  14.337  21.586   3.257
31928W        W  346  37.027  31.028  13.452
31929W        W  347  29.556  39.821  11.875
31930W        W  348  20.102  31.525   1.734
31931W        W  349  17.163   1.278  14.399
31932W        W  350  35.567  14.717  11.911
31933W        W  351  27.675   6.189   1.441
31934W        W  352  37.356   0.259  13.921
31935W        W  353  24.994  29.484  11.029
31936W        W  354   0.800  25.024  13.969
31937W        W  355  42.388   2.424  11.529
31938W        W  356  33.624  43.852  11.395
31939W        W  357  35.381  37.423   4.725
31940W        W  358  33.622  26.462  13.937
31941W        W  359  31.640  15.740   2.412
31942W        W  360  10.771  15.808  14.473
31943W        W  361  25.122  22.549   2.877
31944W        W  362  13.635  39.455  12.399
31945W        W  363  39.924  27.040  10.622
31946W        W  364  38.848  37.345  13.872
31947W        W  365   3.431  38.529   1.306
31948W        W  366   7.413  37.548  13.529
31949W        W  367  28.548   8.842  10.476
31950W        W  368  41.402  13.700  14.512
31951W        W  369   8.701  21.114   3.745
31952W        W  370   8.897  27.034   1.212
31953W        W  371  22.648  44.822  14.843
31954W        W  372  10.278  21.045   0.376
31955W        W  373  10.317  33.576   3.261
31956W        W  374  20.696  32.990   1.251
31957W        W  375  37.563  22.047   0.388
31958W        W  376  20.592   9.855  10.498
31959W        W  377  35.475  20.525  10.404
31960W        W  378  21.649  31.919  12.090
31961W        W  379  34.963  44.794  14.832
31962W        W  380  31.037  31.519   2.786
31963W        W  381  35.474  13.724   0.430
31964W        W  382  39.843  12.781   3.642
31965W        W  383  38.964   6.262  14.773
31966W        W  384  30.469   6.865   0.831
31967W        W  385   2.904  33.113   0.949
31968W        W  386   9.807  16.625  14.975
31969W        W  387  30.450   4.932   4.318
31970W        W  388  23.734   9.643  14.307
31971W        W  389  20.146   6.376   1.929
31972W        W  390  30.018  22.542  11.487
31973W        W  391  21.632  37.403   1.905
31974W        W  392  34.054  11.715  11.411
31975W        W  393  42.909  39.062   0.332
31976W        W  394  12.344  18.228   1.733
31977W        W  395   6.308   2.865  14.954
31978W        W  396   1.742  30.164   1.416
31979W        W  397  10.737  30.655   5.248
31980W        W  398   3.427  18.548  13.511
31981W        W  399   8.744   4.404   0.423
31982W        W  400  36.019  14.643   2.825
31983W        W  401  11.691  35.905  14.023
31984W        W  402   5.895  18.214   1.775
31985W        W  403   8.255  43.984   2.413
31986W        W  404  31.966  28.564  14.429
31987W        W  405  16.623  10.240   2.719
31988W        W  406  35.099  20.704   0.818
31989W        W  407  30.963  31.899   1.451
31990W        W  408  12.119  27.655  13.496
31991W        W  409  35.913  40.882  10.631
31992W        W  410  25.676  21.615   4.837
31993W        W  411  28.549  43.272  14.794
31994W        W  412  32.087   5.809  13.456
31995W        W  413  39.451  11.370  11.967
31996W        W  414   9.300  15.578  14.380
31997W        W  415  24.547   0.451  14.796
31998W        W  416  12.182   5.698  12.977
31999W        W  417  25.700  40.033   0.322
32000W        W  418  15.183  41.454   3.871
32001W        W  419  15.291  19.111  10.640
32002W        W  420  10.278  34.956   0.341
32003W        W  421  21.226   7.665  11.503
32004W        W  422  32.040   6.252   4.814
32005W        W  423  36.384  33.414  13.835
32006W        W  424  44.968  26.055  12.927
32007W        W  425  44.475  22.093   1.406
32008W        W  426  40.533  19.704  14.432
32009W        W  427  26.539  11.696   4.809
32010W        W  428  32.104  33.406   0.939
32011W        W  429  34.064   5.430   4.173
32012W        W  430  30.487  39.356  12.480
32013W        W  431   7.776  15.755  12.448
32014W        W  432  25.592  15.230   2.236
32015W        W  433  44.440  41.410   3.633
32016W        W  434  35.096   6.921  13.030
32017W        W  435   2.734  27.962  14.996
32018W        W  436   2.385  43.840   2.335
32019W        W  437  14.255   8.881   0.442
32020W        W  438   8.273  43.880   0.798
32021W        W  439   0.949  21.628  14.984
32022W        W  440  19.584  42.978  10.532
32023W        W  441  28.639   4.749  10.914
32024W        W  442   7.901  32.532   0.423
32025W        W  443  43.414  44.917  12.444
32026W        W  444  25.217  11.334  12.531
32027W        W  445  18.083  21.736   2.330
32028W        W  446  17.608   4.838  10.929
32029W        W  447   2.842   5.227  13.059
32030W        W  448  28.099  12.654   0.276
32031W        W  449  27.121   6.364   3.216
32032W        W  450  28.122   6.220  11.463
32033W        W  451  35.456  19.704   1.294
32034W        W  452   0.318   7.826  11.467
32035W        W  453  33.047  23.171  12.961
32036W        W  454  22.027  37.351   2.224
32037W        W  455   7.305   8.337   3.843
32038W        W  456   8.301  26.995  13.024
32039W        W  457  43.773  25.184   4.808
32040W        W  458  25.968   3.901   2.251
32041W        W  459   6.341  33.547  14.005
32042W        W  460   2.446  27.567   2.318
32043W        W  461   1.313  22.190   3.723
32044W        W  462  14.806  24.001  13.833
32045W        W  463  33.487   9.237   3.750
32046W        W  464  38.534  15.727   3.709
32047W        W  465  12.814  40.388  10.930
32048W        W  466  43.475   6.353  11.568
32049W        W  467  26.967   6.898   2.276
32050W        W  468  10.146  22.711  12.092
32051W        W  469  10.747  33.983   3.235
32052W        W  470  25.682   4.850  13.910
32053W        W  471   0.255  33.929   4.212
32054W        W  472  42.515  15.248  14.348
32055W        W  473  15.126  21.130   5.159
32056W        W  474  15.714  14.600   0.280
32057W        W  475   4.256  16.773  14.889
32058W        W  476  42.520  14.723   4.293
32059W        W  477  26.591  32.931   4.261
32060W        W  478  14.113  31.559  14.292
32061W        W  479  18.238   8.801   2.761
32062W        W  480  29.019  44.362  14.480
32063W        W  481   6.918   7.819   0.831
32064W        W  482  43.282  35.500  11.532
32065W        W  483  22.211  40.798  12.039
32066W        W  484  31.459  38.867  10.571
32067W        W  485   6.391  33.564  11.391
32068W        W  486  10.379   1.249   3.211
32069W        W  487  38.893  30.648  12.979
32070W        W  488  16.698  26.175  13.832
32071W        W  489  31.072   3.854  12.347
32072W        W  490  18.649  41.906  11.076
32073W        W  491   8.692  35.905  12.886
32074W        W  492  26.958  10.302   4.635
32075W        W  493  14.320  14.189  12.060
32076W        W  494  43.806   6.832  13.833
32077W        W  495  28.124  43.785   3.762
32078W        W  496  36.080  18.260   2.377
32079W        W  497  36.394   5.430   1.316
32080W        W  498  11.311  39.377   0.810
32081W        W  499   9.729  35.597   2.205
32082W        W  500  12.808   2.850   1.228
32083W        W  501  39.014  22.722  13.511
32084W        W  502  30.591  22.516   2.303
32085W        W  503   9.710  32.555  13.881
32086W        W  504  20.212  27.991   4.213
32087W        W  505  42.379  11.661  13.878
32088W        W  506  28.133  32.059   1.754
32089W        W  507   7.702  14.707   0.892
32090W        W  508  23.084   4.857  13.330
32091W        W  509  39.350   5.368  14.805
32092W        W  510  24.574  22.564   1.805
32093W        W  511  33.038  23.621   4.667
32094W        W  512  33.953  27.678  11.488
32095W        W  513  35.429   0.410   0.966
32096W        W  514  13.626   5.895  11.963
32097W        W  515  41.414  36.573   4.186
32098W        W  516  25.555  23.011  11.966
32099W        W  517  20.598  35.559  14.759
32100W        W  518   5.697  23.658  13.864
32101W        W  519  36.528  36.099  10.042
32102W        W  520  33.381  31.931  13.062
32103W        W  521  14.337  33.569   1.384
32104W        W  522  37.441  12.181   0.823
32105W        W  523  11.259  10.176   2.671
32106W        W  524   0.415   2.921   2.213
32107W        W  525   0.325  17.267  12.075
32108W        W  526   7.296  40.913   0.809
32109W        W  527  30.537  42.029   3.703
32110W        W  528   3.709  13.607  12.916
32111W        W  529  30.615  17.295   3.231
32112W        W  530  15.151  28.086  10.607
32113W        W  531  10.312   2.859   3.856
32114W        W  532  24.676  20.050  14.903
32115W        W  533  41.981  44.286  13.986
32116W        W  534   5.690  32.438  12.539
32117W        W  535   5.326  40.451  13.947
32118W        W  536  43.447   1.946   1.819
32119W        W  537  22.034   7.703   4.289
32120W        W  538  13.795  32.107  13.385
32121W        W  539  13.770   3.883   0.398
32122W        W  540   7.253   3.395   0.892
32123W        W  541   6.697  24.592   4.752
32124W        W  542  17.771   1.301  13.489
32125W        W  543  44.330   4.779   3.327
32126W        W  544  10.152   0.818  13.318
32127W        W  545  25.573  43.771   0.847
32128W        W  546  35.924  36.996   3.223
32129W        W  547  41.511  28.060  11.387
32130W        W  548  11.186  37.487  13.455
32131W        W  549  19.084   5.924   1.700
32132W        W  550   2.931  43.311   0.770
32133W        W  551  24.988   9.174  13.371
32134W        W  552  43.472  39.816  12.993
32135W        W  553  42.492   0.846   1.710
32136W        W  554   5.398  23.555  12.367
32137W        W  555  33.926   6.200   3.692
32138W        W  556  14.833   9.709  12.867
32139W        W  557  21.219   6.237  10.996
32140W        W  558  39.560  44.991   4.830
32141W        W  559  43.776   0.930   1.252
32142W        W  560   9.844  38.889  13.434
32143W        W  561  14.796  23.029  14.833
32144W        W  562  26.183  29.153   4.728
32145W        W  563  14.834  36.446  12.019
32146W        W  564  35.935   8.836  12.093
32147W        W  565   7.692  14.809  12.875
32148W        W  566  16.227  29.045   1.290
32149W        W  567   9.236   8.401   2.857
32150W        W  568  29.010   6.810   4.122
32151W        W  569   0.923  20.691   1.336
32152W        W  570   3.290   5.883  12.083
32153W        W  571  21.641   8.265  12.009
32154W        W  572   0.830  11.357   0.869
32155W        W  573  35.880  12.773   0.735
32156W        W  574  36.921  28.595  11.101
32157W        W  575   2.296   8.671  10.935
32158W        W  576  27.578  36.366  10.604
32159W        W  577  24.036  17.738  10.895
32160W        W  578  27.149  22.009   2.726
32161W        W  579   4.723  26.644  10.971
32162W        W  580   4.211   0.779  13.840
32163W        W  581   1.439   6.815   4.312
32164W        W  582  22.144  29.168   3.662
32165W        W  583   6.741  33.557   1.725
32166W        W  584  35.514  22.615   2.874
32167W        W  585  43.838   0.438  12.900
32168W        W  586  14.729  20.704  11.936
32169W        W  587  17.231  21.751  14.804
32170W        W  588  18.735  29.051   4.325
32171W        W  589  25.990  44.311  11.940
32172W        W  590  22.609  17.273   0.840
32173W        W  591  34.999  23.588   2.197
32174W        W  592  12.288  19.260  14.833
32175W        W  593  12.753  43.785  10.964
32176W        W  594  20.156  12.311  10.414
32177W        W  595  12.682  21.696   3.199
32178W        W  596  30.650   5.762  13.403
32179W        W  597   3.226  15.102  14.980
32180W        W  598  14.097  34.462   4.794
32181W        W  599  29.925  21.583   2.683
32182W        W  600  10.634  44.433   4.828
32183W        W  601  26.086  20.553  12.946
32184W        W  602   1.750  19.643   5.234
32185W        W  603  44.917  25.031   1.873
32186W        W  604  26.135  23.623   2.758
32187W        W  605   7.725  16.309  13.367
32188W        W  606  13.230  38.460   2.312
32189W        W  607  11.856   1.818  13.994
32190W        W  608  38.381  26.161  14.489
32191W        W  609  24.153  39.324   0.244
32192W        W  610  43.790  26.053  14.922
32193W        W  611  42.971  17.706   2.797
32194W        W  612  41.811  20.670  13.421
32195W        W  613  30.072  33.470  13.044
32196W        W  614   8.740  33.454   1.752
32197W        W  615   2.827  13.202  14.430
32198W        W  616  41.020  38.330   0.870
32199W        W  617  14.722  42.519  11.923
32200W        W  618  31.127  10.209   2.211
32201W        W  619  24.133  43.316   0.837
32202W        W  620  26.970  13.730  12.962
32203W        W  621   0.488  44.787  11.856
32204W        W  622  25.703  14.254   9.949
32205W        W  623  18.284  25.140  14.032
32206W        W  624  10.749  19.101   4.338
32207W        W  625   3.882  21.116  13.516
32208W        W  626  32.541  22.695   2.676
32209W        W  627  25.679   2.781  10.483
32210W        W  628   5.408   6.342   2.862
32211W        W  629  27.084  19.099  14.822
32212W        W  630   8.233  43.769  13.472
32213W        W  631  17.730   1.743   0.439
32214W        W  632   8.400  43.386  10.902
32215W        W  633   0.981   9.811   0.885
32216W        W  634  19.256  17.251   2.889
32217W        W  635  33.595  43.915   0.268
32218W        W  636  20.544  25.508  10.628
32219W        W  637  43.485  41.913   5.777
32220W        W  638  32.908  29.525  11.409
32221W        W  639  26.529  24.725   4.671
32222W        W  640   1.875  24.034  11.944
32223W        W  641  31.948  42.841  11.516
32224W        W  642   0.874  27.478  14.370
32225W        W  643   4.830  29.551   2.224
32226W        W  644  25.630   7.799  12.578
32227W        W  645  25.549  39.998   1.319
32228W        W  646  12.199  15.294  14.918
32229W        W  647  30.984  23.622   1.331
32230W        W  648  29.631   5.286   3.381
32231W        W  649  14.313  28.663   0.381
32232W        W  650  37.458  39.990  12.534
32233W        W  651  42.342  43.791   0.456
32234W        W  652   8.773  35.929  10.634
32235W        W  653  30.559  15.128   3.727
32236W        W  654   2.782  11.264  11.933
32237W        W  655  30.939  23.723   4.834
32238W        W  656  41.329  10.195   0.313
32239W        W  657  15.185   5.214   2.243
32240W        W  658   5.730  20.208  13.951
32241W        W  659   1.887  26.509  11.057
32242W        W  660   9.690  34.526  12.049
32243W        W  661  10.378   5.277  13.493
32244W        W  662  20.179   5.203  10.892
32245W        W  663   6.372   2.898  11.088
32246W        W  664   3.290  36.564  14.883
32247W        W  665  16.666  15.687  10.945
32248W        W  666  43.445   9.338   2.356
32249W        W  667  28.493   6.320   4.662
32250W        W  668  28.573  27.993   0.287
32251W        W  669   4.365   7.895  10.892
32252W        W  670   1.297  37.528  13.875
32253W        W  671  16.232  12.755  12.428
32254W        W  672  28.106  27.504  11.551
32255W        W  673  43.280   9.806  13.910
32256W        W  674  44.812   6.811   0.793
32257W        W  675  36.874  34.583  13.980
32258W        W  676  13.758  24.070   4.338
32259W        W  677  35.940   2.423  11.916
32260W        W  678  24.104  15.179   2.354
32261W        W  679  28.997  10.180  12.381
32262W        W  680  32.114  30.641   3.785
32263W        W  681  18.132  43.386   3.832
32264W        W  682  17.237  14.591   3.163
32265W        W  683  31.971  43.826   4.648
32266W        W  684   8.188  17.287   1.318
32267W        W  685  17.090  12.772   0.908
32268W        W  686   9.248  21.570   0.746
32269W        W  687  33.390  26.048  13.911
32270W        W  688  37.975  31.512   0.299
32271W        W  689  23.583   8.861   0.317
32272W        W  690  30.032  29.036  14.972
32273W        W  691   3.768  11.141   4.687
32274W        W  692  33.002  27.128   2.678
32275W        W  693   6.322  35.915   0.904
32276W        W  694  11.173   2.230  13.059
32277W        W  695  41.895   2.907  12.942
32278W        W  696  34.020  25.190   3.254
32279W        W  697  40.460  30.594  12.018
32280W        W  698  32.410   6.829   3.770
32281W        W  699  14.295  11.317  11.449
32282W        W  700  44.943  30.490   1.757
32283W        W  701  43.926  17.156   2.366
32284W        W  702  30.159  25.615  13.795
32285W        W  703  33.920  44.454   3.224
32286W        W  704   2.898  25.172  12.513
32287W        W  705  42.813  20.042  13.890
32288W        W  706  35.986  44.469   2.201
32289W        W  707   0.886  34.108   0.827
32290W        W  708  26.490  40.943   2.876
32291W        W  709  28.162  21.591   4.226
32292W        W  710  37.575  12.802  10.104
32293W        W  711  10.736  36.050   3.145
32294W        W  712  34.434  13.132   0.855
32295W        W  713  20.547  20.643   3.859
32296W        W  714  38.517   9.867  10.486
32297W        W  715  40.032  32.899   2.737
32298W        W  716  29.926   5.439   0.784
32299W        W  717  26.180  16.586   3.163
32300W        W  718  31.945  27.974  12.947
32301W        W  719  18.065   2.330  14.464
32302W        W  720   9.718  30.948   3.843
32303W        W  721   7.817  21.183  13.905
32304W        W  722   8.688   6.770  12.061
32305W        W  723  16.277  31.976  10.930
32306W        W  724  35.511  16.141   3.377
32307W        W  725   7.412  30.920   3.866
32308W        W  726  29.666   1.301   3.644
32309W        W  727  39.350  16.276   2.896
32310W        W  728  17.664  12.692  13.458
32311W        W  729  30.913  32.612  14.498
32312W        W  730   7.834  11.690   2.368
32313W        W  731  22.598  15.593  13.014
32314W        W  732   8.280   6.688  13.502
32315W        W  733  35.023  18.113  11.373
32316W        W  734   8.222  28.138  12.506
32317W        W  735  32.494  16.759   4.665
32318W        W  736  31.123  41.896   0.786
32319W        W  737  19.116   8.279   3.339
32320W        W  738  40.049  44.879  13.528
32321W        W  739  40.929  11.755   4.351
32322W        W  740  43.484  40.043   0.940
32323W        W  741  18.557  20.113   3.184
32324W        W  742   4.929  18.072   1.375
32325W        W  743  31.405  15.189  11.993
32326W        W  744   5.348  22.735   0.289
32327W        W  745   5.813  23.615   2.711
32328W        W  746  23.536   1.960   0.441
32329W        W  747  31.939   0.785   5.249
32330W        W  748  35.865  17.096  14.444
32331W        W  749  14.833  19.076   0.744
32332W        W  750  18.068  38.049   2.210
32333W        W  751  28.527   2.896  12.505
32334W        W  752   7.197   8.345  12.419
32335W        W  753  42.833  28.644  12.911
32336W        W  754  40.455  41.382   4.125
32337W        W  755  14.152  23.641  14.930
32338W        W  756  17.692   9.863   3.166
32339W        W  757   9.234   5.420   0.943
32340W        W  758  11.708  29.021  11.906
32341W        W  759  10.352   3.943  14.350
32342W        W  760  28.122  13.775  13.809
32343W        W  761  40.440  18.242  14.480
32344W        W  762  38.394  11.652   1.854
32345W        W  763  21.690  15.643  10.942
32346W        W  764  39.947  15.778  14.863
32347W        W  765   6.215   0.861  12.498
32348W        W  766  35.462  12.737   4.210
32349W        W  767  25.467   1.891   4.657
32350W        W  768  37.572  29.551  11.889
32351W        W  769  38.860  42.951   0.484
32352W        W  770  24.487  33.065  11.925
32353W        W  771  33.436  33.098  13.958
32354W        W  772  43.421  11.264  10.044
32355W        W  773   0.977  37.921   4.272
32356W        W  774  22.215  14.107   3.839
32357W        W  775   7.849  26.603  13.486
32358W        W  776  18.785  34.982  14.281
32359W        W  777  20.596  17.104  13.918
32360W        W  778  25.534  17.308  14.445
32361W        W  779  14.099  26.618   4.654
32362W        W  780  23.036  16.116   0.430
32363W        W  781   1.420  16.810  12.980
32364W        W  782  27.187  18.751  14.779
32365W        W  783   4.720  16.789   4.134
32366W        W  784  22.653   3.238  10.026
32367W        W  785  36.528  39.815  14.378
32368W        W  786   4.384  10.863   2.669
32369W        W  787   5.784  15.091  11.529
32370W        W  788  25.196  27.568  14.826
32371W        W  789  30.494  29.057   1.358
32372W        W  790   1.426   4.215  13.905
32373W        W  791   0.872  34.441   3.363
32374W        W  792   6.331  44.852  14.855
32375W        W  793  27.994  14.803  14.883
32376W        W  794  21.036   0.774  14.298
32377W        W  795   0.773  27.547   3.225
32378W        W  796  32.969  27.482  13.392
32379W        W  797  40.943  32.082   4.226
32380W        W  798  21.201  32.454  11.590
32381W        W  799  28.097  20.761  12.055
32382W        W  800  13.296  39.468  11.588
32383W        W  801  21.705   7.346   0.332
32384W        W  802   8.680  33.537   4.239
32385W        W  803  39.063   4.355  14.339
32386W        W  804  19.584  39.540  11.471
32387W        W  805  29.465  20.597  11.973
32388W        W  806   7.895  29.636   2.710
32389W        W  807  36.452  18.237   2.705
32390W        W  808  30.118   1.442   1.766
32391W        W  809  24.557  43.376   1.376
32392W        W  810   3.358  38.504  11.600
32393W        W  811   4.383  35.378   2.341
32394W        W  812  12.248   7.402  12.342
32395W        W  813  10.675  16.652  10.488
32396W        W  814   3.420  42.935  12.969
32397W        W  815  24.222  23.707  10.454
32398W        W  816  16.169   8.686   4.351
32399W        W  817  40.459   1.245  12.353
32400W        W  818  24.574  37.000  11.985
32401W        W  819  43.483  15.793   1.252
32402W        W  820  41.841  12.697  13.530
32403W        W  821   5.854  22.726   4.138
32404W        W  822  31.494  36.900   1.826
32405W        W  823  36.994  27.504   0.862
32406W        W  824   9.206  19.628   3.808
32407W        W  825  10.243  42.466  12.383
32408W        W  826  36.431  16.159  13.912
32409W        W  827  39.814  16.074  12.472
32410W        W  828   6.312  38.850  10.902
32411W        W  829  11.344  11.764   4.676
32412W        W  830  29.993  21.157  13.057
32413W        W  831   1.410   8.281   4.295
32414W        W  832   4.866  42.824   3.156
32415W        W  833  23.496  14.825   3.846
32416W        W  834   6.764  12.611   2.805
32417W        W  835  18.180  41.474   4.716
32418W        W  836  35.580  24.656  10.969
32419W        W  837  42.783  29.474  10.544
32420W        W  838  39.489  21.211   3.802
32421W        W  839  38.454   8.171  12.024
32422W        W  840  16.707  20.082  13.912
32423W        W  841  36.941  31.065   1.214
32424W        W  842   0.811   3.387  14.880
32425W        W  843  30.598  33.523  11.451
32426W        W  844  12.246  43.984   2.689
32427W        W  845   1.284  28.585   0.409
32428W        W  846  11.736  42.446   1.699
32429W        W  847  39.494  16.648  11.025
32430W        W  848  13.743  35.948  12.947
32431W        W  849  37.874  37.514   3.840
32432W        W  850  41.814   3.754   0.464
32433W        W  851   2.847  44.842   1.831
32434W        W  852  20.565  37.043  10.889
32435W        W  853   3.845  24.986   2.684
32436W        W  854  41.037  30.641  12.425
32437W        W  855   4.357   7.221   1.835
32438W        W  856  39.548  43.494   4.340
32439W        W  857  29.024   4.921   2.680
32440W        W  858  42.525  13.834  11.070
32441W        W  859  43.405   1.384   1.736
32442W        W  860  13.806  35.044  14.430
32443W        W  861   3.831  40.386   3.658
32444W        W  862  18.062  33.903  10.962
32445W        W  863  12.207  28.076  13.522
32446W        W  864  25.610  38.955   5.315
32447W        W  865  38.340  38.500   1.807
32448W        W  866  31.609  40.040  14.825
32449W        W  867  24.695  16.593   3.870
32450W        W  868  19.190  24.678   4.760
32451W        W  869  32.532  16.664   2.716
32452W        W  870  16.740   4.722   3.760
32453W        W  871  12.737   0.855   1.295
32454W        W  872  37.939   6.374  14.960
32455W        W  873  17.621  42.319   2.307
32456W        W  874  36.845   1.939   0.380
32457W        W  875   4.323  28.460  13.341
32458W        W  876  30.422  17.753   1.836
32459W        W  877   5.892  22.610  14.425
32460W        W  878  32.990  31.541   0.949
32461W        W  879  21.738   6.905  11.928
32462W        W  880  18.663  19.566   4.303
32463W        W  881  31.032   3.814   2.197
32464W        W  882  27.016  28.628   3.723
32465W        W  883  14.742  10.660   4.317
32466W        W  884   8.277   3.868  13.040
32467W        W  885  21.155  18.773   0.456
32468W        W  886  22.586  34.495  12.042
32469W        W  887   3.287   0.818   2.178
32470W        W  888  42.426  17.178   3.218
32471W        W  889  21.643   8.161  14.491
32472W        W  890  35.523  41.376   2.252
32473W        W  891  37.011  18.629  13.957
32474W        W  892  41.884  13.737   9.975
32475W        W  893  27.985  44.772  13.038
32476W        W  894  35.899  30.447   4.113
32477W        W  895   1.461  23.623   1.436
32478W        W  896  34.420  17.245   4.183
32479W        W  897  12.350  14.303   1.829
32480W        W  898  21.098  39.411   4.200
32481W        W  899   2.820   8.245  12.016
32482W        W  900  24.098   3.332   0.835
32483W        W  901  21.533  13.320  13.471
32484W        W  902   0.812  35.571   1.445
32485W        W  903  42.324  43.290   0.777
32486W        W  904  13.326  15.590   1.884
32487W        W  905  19.586  17.801  13.469
32488W        W  906  23.093  15.166  11.389
32489W        W  907  10.280  23.687   3.855
32490W        W  908   8.780  21.095   1.421
32491W        W  909  37.476  17.588  14.781
32492W        W  910   6.876  42.937  14.911
32493W        W  911  41.304  27.135  13.321
32494W        W  912  41.838  42.433   2.699
32495W        W  913  37.979  30.523   1.794
32496W        W  914  18.736  35.889   4.644
32497W        W  915  13.775   6.229  12.399
32498W        W  916  21.599  41.333   0.923
32499W        W  917  40.451  40.312   4.310
32500W        W  918   6.879  36.085  14.777
32501W        W  919  17.720  40.898  14.288
32502W        W  920  28.465  15.673   4.223
32503W        W  921   8.849  24.135   4.833
32504W        W  922  10.703  13.349   0.404
32505W        W  923   3.718   5.770   4.229
32506W        W  924  14.783   2.744   4.772
32507W        W  925  43.879  39.066   9.992
32508W        W  926  10.344  14.784  14.325
32509W        W  927  16.726  13.130  10.050
32510W        W  928   1.881  19.538   4.205
32511W        W  929  29.478  10.683   2.251
32512W        W  930  20.760  41.035  10.458
32513W        W  931   4.943  12.241   1.340
32514W        W  932  26.961  17.567  13.941
32515W        W  933   2.937  23.545   4.306
32516W        W  934  42.374  28.977  11.896
32517W        W  935  11.700  13.303  12.501
32518W        W  936  15.609  22.186   4.252
32519W        W  937  11.763  32.080   3.696
32520W        W  938  12.837  38.423   0.416
32521W        W  939   9.375  11.254   4.242
32522W        W  940  44.976  26.699  13.025
32523W        W  941   2.331  23.533  14.380
32524W        W  942  29.939  39.436  14.929
32525W        W  943  37.838  15.788   2.280
32526W        W  944   9.884   0.940  12.078
32527W        W  945  25.479   9.711   2.698
32528W        W  946  25.489  40.906  12.041
32529W        W  947   4.430  29.526  13.952
32530W        W  948  44.448   6.374  10.531
32531W        W  949  39.918   3.798  14.906
32532W        W  950  43.852  27.570   3.219
32533W        W  951  19.063  39.545  11.566
32534W        W  952   3.332  22.176  11.388
32535W        W  953  40.818  12.232   3.356
32536W        W  954  36.956  14.102  12.876
32537W        W  955  35.058  31.030  14.771
32538W        W  956  13.727  21.037  11.528
32539W        W  957  35.092  44.470  13.981
32540W        W  958  13.105  36.348   0.349
32541W        W  959  31.457  42.462   1.338
32542W        W  960  15.253  12.756   2.309
32543W        W  961  31.973   4.807  13.503
32544W        W  962  23.582   8.370  11.970
32545W        W  963  15.636  24.985  10.463
32546W        W  964  40.020  44.787  10.521
32547W        W  965   5.291  44.791   2.342
32548W        W  966   6.413  18.580   3.146
32549W        W  967  29.581  20.613   2.762
32550W        W  968   6.235  10.727   0.852
32551W        W  969  21.604  23.111   5.321
32552W        W  970  28.584   2.282   4.225
32553W        W  971  16.205  28.607  14.955
32554W        W  972  19.537  23.579   0.814
32555W        W  973   7.743  35.587   4.290
32556W        W  974  26.175  21.670   2.814
32557W        W  975   2.442  12.287   4.780
32558W        W  976  40.821  42.423  13.508
32559W        W  977  43.998  27.165  12.467
32560W        W  978  19.780   8.264   4.326
32561W        W  979  16.167  13.108  11.574
32562W        W  980  10.145  18.548  14.404
32563W        W  981  44.318   3.776   1.231
32564W        W  982   9.168  28.629  14.881
32565W        W  983   2.753  40.492  10.529
32566W        W  984  38.425   5.819   4.271
32567W        W  985  40.811  11.704  10.973
32568W        W  986   2.801  43.771   0.429
32569W        W  987  36.979  41.401   3.707
32570W        W  988   4.221  11.136  11.049
32571W        W  989  33.562  31.417   3.237
32572W        W  990  32.597  32.938  13.410
32573W        W  991   9.758  11.652  11.086
32574W        W  992  13.701   6.277  13.383
32575W        W  993  31.464  41.304   4.732
32576W        W  994  27.625  23.564  13.438
32577W        W  995  30.134  21.517   0.484
32578W        W  996  23.215  38.981   4.771
32579W        W  997  44.452  19.198  12.959
32580W        W  998  17.639  13.207  12.881
32581W        W  999  39.880   5.899   1.261
32582W        W 1000  30.944  12.322  12.034
32583W        W 1001   8.244  35.095   0.879
32584W        W 1002   1.305   1.831   3.828
32585W        W 1003   3.827  30.932  13.834
32586W        W 1004  29.048   2.291   0.460
32587W        W 1005  27.148  18.091  13.369
32588W        W 1006  17.668   5.733   3.724
32589W        W 1007   8.312   2.381   4.136
32590W        W 1008  38.972   0.467   4.311
32591W        W 1009  19.544  35.571  13.341
32592W        W 1010  13.781  38.524  11.596
32593W        W 1011   1.470  30.641   3.789
32594W        W 1012  36.566  22.995   2.195
32595W        W 1013  34.548   8.216   4.208
32596W        W 1014  29.635   5.855   2.687
32597W        W 1015  32.401  44.987  10.536
32598W        W 1016  26.663   5.719   9.931
32599W        W 1017   4.236  22.089   1.841
32600W        W 1018  15.293  19.048   4.307
32601W        W 1019  22.086  42.314  13.373
32602W        W 1020  22.120   7.688   1.877
32603W        W 1021  42.925  41.887  11.890
32604W        W 1022   6.738  21.543  11.610
32605W        W 1023  44.776  41.336  13.874
32606W        W 1024  29.660  19.201   1.934
32607W        W 1025  21.262  38.984   4.613
32608W        W 1026   1.924  23.614  13.884
32609W        W 1027  35.414  36.467  12.071
32610W        W 1028  40.969   3.749   1.869
32611W        W 1029  12.295  26.077  10.604
32612W        W 1030  39.835  39.993  13.447
32613W        W 1031  30.960   8.884   3.351
32614W        W 1032  41.036  20.244   2.678
32615W        W 1033  41.451   0.788   3.325
32616W        W 1034  44.818   1.940  10.432
32617W        W 1035  26.702  36.894  12.559
32618W        W 1036  21.242  13.345   4.767
32619W        W 1037  41.946  32.419   4.220
32620W        W 1038  26.204  44.970  11.980
32621W        W 1039  34.518   6.684  12.478
32622W        W 1040  12.613  24.983   4.334
32623W        W 1041  30.637  10.257  14.316
32624W        W 1042  10.854  40.920  10.494
32625W        W 1043  28.140  22.538   5.103
32626W        W 1044  24.640  42.444  11.074
32627W        W 1045  16.578   2.908  13.363
32628W        W 1046  41.971  33.121  10.991
32629W        W 1047   5.331   3.889  13.805
32630W        W 1048   7.346  17.298   0.406
32631W        W 1049  36.400  25.979   2.313
32632W        W 1050   8.348  15.111  14.023
32633W        W 1051  42.863  38.458   5.668
32634W        W 1052   6.895   0.430   0.309
32635W        W 1053  13.766   0.452  12.858
32636W        W 1054  41.830  21.684  12.077
32637W        W 1055  42.002  27.162  12.359
32638W        W 1056  16.206  15.703   0.245
32639W        W 1057  39.477  16.739   3.177
32640W        W 1058   8.875  20.662  12.509
32641W        W 1059  32.898  28.512   4.790
32642W        W 1060  16.116  35.571   0.369
32643W        W 1061  32.614   9.781  11.086
32644W        W 1062  16.221   0.865   4.629
32645W        W 1063  24.229   9.330   2.417
32646W        W 1064  40.327  20.194   3.286
32647W        W 1065  13.327  19.285   0.322
32648W        W 1066  29.637  17.557   4.278
32649W        W 1067  27.619  19.108   4.243
32650W        W 1068  19.285  30.640   4.163
32651W        W 1069  18.641  34.389   4.343
32652W        W 1070  32.435  33.021   4.813
32653W        W 1071  20.156  18.641   2.737
32654W        W 1072  30.629   2.472   4.714
32655W        W 1073  38.444  12.259  14.449
32656W        W 1074  12.246  33.460   1.314
32657W        W 1075  16.628  33.118   3.261
32658W        W 1076  40.841  39.492   2.374
32659W        W 1077  31.011  31.588  13.411
32660W        W 1078  44.433  31.496  14.920
32661W        W 1079  22.577  15.154   1.214
32662W        W 1080   8.399  21.522  14.920
32663W        W 1081  12.811  39.351  12.089
32664W        W 1082  11.806   9.203  13.434
32665W        W 1083  20.132  24.174  13.426
32666W        W 1084   9.643  26.665   1.325
32667W        W 1085   5.873  11.289  10.604
32668W        W 1086   8.263  40.344  10.635
32669W        W 1087  27.571  40.847  12.509
32670W        W 1088  30.530  44.848   0.943
32671W        W 1089  21.739  12.351   3.206
32672W        W 1090  22.169  42.938  13.064
32673W        W 1091  39.907  36.866   3.245
32674W        W 1092  15.324  33.068  12.353
32675W        W 1093  36.459   2.443  13.314
32676W        W 1094  20.726  25.620  11.114
32677W        W 1095  42.798  35.967  12.380
32678W        W 1096  18.784  43.400  14.835
32679W        W 1097  29.073  23.617  14.963
32680W        W 1098  27.670  20.266  13.955
32681W        W 1099  14.721  39.834  13.517
32682W        W 1100  26.957  29.979   2.407
32683W        W 1101   7.719  18.750   2.687
32684W        W 1102  42.461  34.886   1.363
32685W        W 1103  17.726  16.296  14.428
32686W        W 1104  38.923  43.513  13.455
32687W        W 1105  44.419   3.224   1.353
32688W        W 1106   1.476  41.864  12.540
32689W        W 1107  18.199   5.333  14.297
32690W        W 1108  28.938  39.889   1.755
32691W        W 1109  22.026  15.131  11.475
32692W        W 1110  28.975  13.634  11.035
32693W        W 1111   9.690  19.134  10.577
32694W        W 1112  11.158  21.691   1.442
32695W        W 1113  42.801  32.999  14.027
32696W        W 1114   3.326  43.772   4.147
32697W        W 1115  37.463  11.157   0.750
32698W        W 1116  22.129  27.657  10.641
32699W        W 1117  12.627  16.577   2.279
32700W        W 1118  37.381  26.654   0.280
32701W        W 1119   3.710  11.170  13.950
32702W        W 1120  28.104  10.348   3.771
32703W        W 1121  29.535  20.594   3.727
32704W        W 1122   4.276   8.181  10.966
32705W        W 1123  17.608  10.234  13.841
32706W        W 1124  14.741  14.215   1.223
32707W        W 1125  34.088  21.051  11.610
32708W        W 1126  43.450  23.512  13.883
32709W        W 1127   9.690  29.013   2.832
32710W        W 1128  31.042  22.664  12.960
32711W        W 1129  29.611  42.409   2.267
32712W        W 1130  12.178  25.984   0.898
32713W        W 1131  17.612  20.527  13.026
32714W        W 1132  35.955  12.281   2.403
32715W        W 1133  30.109  20.632   4.304
32716W        W 1134   8.851  41.510   3.341
32717W        W 1135  33.408  19.238   1.813
32718W        W 1136  24.112  14.172  14.479
32719W        W 1137  44.297  24.572  12.938
32720W        W 1138  25.477  17.703   2.689
32721W        W 1139  44.882  34.878   2.760
32722W        W 1140   8.865  12.167  10.906
32723W        W 1141  18.734  30.456   0.314
32724W        W 1142  12.117  32.062   0.352
32725W        W 1143  24.087   4.320   3.654
32726W        W 1144  15.692  13.328  12.825
32727W        W 1145  25.499  41.461   5.181
32728W        W 1146  37.902   4.751  14.836
32729W        W 1147  14.756   5.858   2.686
32730W        W 1148  34.111  42.991   3.861
32731W        W 1149  41.957  29.601   3.181
32732W        W 1150  41.401  34.600   2.224
32733W        W 1151  25.694   4.409  14.973
32734W        W 1152   4.414  10.864  10.559
32735W        W 1153  13.322  36.065   4.689
32736W        W 1154  36.912   3.281  14.280
32737W        W 1155  28.039  26.499   4.626
32738W        W 1156   0.355  22.621   0.891
32739W        W 1157  23.016  32.631   2.667
32740W        W 1158  32.059  31.037   5.095
32741W        W 1159   9.829  33.096  12.397
32742W        W 1160  31.562  16.642   3.682
32743W        W 1161   4.919  28.577  14.809
32744W        W 1162  36.034  25.194   2.397
32745W        W 1163  42.025  30.581  13.884
32746W        W 1164   0.748  18.115  12.494
32747W        W 1165  31.603  33.048  13.415
32748W        W 1166  23.134  41.495   0.743
32749W        W 1167  14.189   1.819  13.340
32750W        W 1168  16.797  12.278  14.824
32751W        W 1169   9.260  20.060   4.185
32752W        W 1170   9.687  41.794  11.982
32753W        W 1171  16.280  38.902   2.790
32754W        W 1172  28.602   7.670   4.165
32755W        W 1173  17.228  32.072   3.866
32756W        W 1174   4.780  36.487  12.368
32757W        W 1175   2.261  38.029   4.186
32758W        W 1176   1.740   4.400   2.880
32759W        W 1177  20.632   0.871   1.361
32760W        W 1178  20.643  19.677   3.741
32761W        W 1179  21.688  26.167  11.079
32762W        W 1180  40.449  35.383   0.779
32763W        W 1181  16.677  13.728  12.563
32764W        W 1182  36.854  32.056   0.387
32765W        W 1183  34.590   5.214  12.090
32766W        W 1184  41.318  24.687   0.412
32767W        W 1185   0.395  23.557  12.847
32768W        W 1186  39.527  28.180  13.453
32769W        W 1187  44.964  12.723  11.558
32770W        W 1188  38.972   4.349   1.217
32771W        W 1189  15.681  42.473   2.397
32772W        W 1190  19.257  17.296  14.895
32773W        W 1191   0.436  25.603   3.700
32774W        W 1192  22.530   7.838  14.395
32775W        W 1193  10.207  10.836  10.629
32776W        W 1194  23.548  32.126   1.788
32777W        W 1195  18.239   0.437  13.032
32778W        W 1196  32.932  42.005  13.483
32779W        W 1197  37.419  14.275  12.849
32780W        W 1198  18.608   5.752   3.861
32781W        W 1199  33.943  18.089   3.660
32782W        W 1200  18.692  28.612  14.895
32783W        W 1201  33.483  28.030   0.795
32784W        W 1202  18.249  32.512   4.749
32785W        W 1203  19.095  29.547  11.098
32786W        W 1204  33.519   4.944   5.251
32787W        W 1205   7.717  31.043  14.492
32788W        W 1206  14.173  36.998  11.612
32789W        W 1207  13.200  42.937  13.394
32790W        W 1208  33.113   4.249  11.083
32791W        W 1209  40.449   9.842  10.477
32792W        W 1210  35.047   6.764   2.692
32793W        W 1211   6.363  30.531   4.317
32794W        W 1212   7.335  12.731   4.290
32795W        W 1213  24.161  40.527   3.353
32796W        W 1214  28.949  26.653   2.231
32797W        W 1215  27.451  43.441  11.112
32798W        W 1216  18.558  42.011  14.499
32799W        W 1217  34.109  44.484  14.279
32800W        W 1218   2.878   5.423   0.281
32801W        W 1219  30.495  24.657  12.977
32802W        W 1220  34.969  40.013  11.495
32803W        W 1221  29.143  32.471   1.320
32804W        W 1222   9.864  42.843   3.734
32805W        W 1223  18.246  34.092  13.537
32806W        W 1224  41.828   8.701  11.992
32807W        W 1225   1.240  31.946  13.843
32808W        W 1226  34.117  34.545  13.348
32809W        W 1227  37.958  26.619  10.156
32810W        W 1228  14.773   2.876  14.959
32811W        W 1229   1.784  10.189   3.676
32812W        W 1230  34.869  26.088   1.267
32813W        W 1231  37.855  35.524  12.964
32814W        W 1232  36.979  42.485  14.445
32815W        W 1233  15.251  19.224  11.994
32816W        W 1234  40.895  39.330   5.244
32817W        W 1235  37.048  44.321  14.477
32818W        W 1236  21.060  11.728  14.886
32819W        W 1237  22.096  15.107   1.435
32820W        W 1238  32.956   5.698   2.711
32821W        W 1239  44.011  39.979   4.630
32822W        W 1240  10.632  29.668  12.525
32823W        W 1241   4.291  38.916  11.979
32824W        W 1242  10.156   6.765   1.325
32825W        W 1243  26.632  38.934   4.306
32826W        W 1244  38.466   5.278  10.553
32827W        W 1245  38.553  15.750   4.715
32828W        W 1246  32.572  44.864  11.106
32829W        W 1247  27.120  26.577  13.343
32830W        W 1248  16.155  30.083  12.553
32831W        W 1249  24.668  33.478   1.352
32832W        W 1250  16.690  35.454   1.929
32833W        W 1251   1.258  39.376   0.748
32834W        W 1252  25.102  19.711   1.302
32835W        W 1253   5.767  12.820   0.427
32836W        W 1254  14.135  24.555   4.119
32837W        W 1255  29.094  15.578   0.742
32838W        W 1256  25.586   4.776   9.991
32839W        W 1257  10.317  43.967  14.499
32840W        W 1258  12.361  14.765  13.337
32841W        W 1259  29.961  36.076   3.251
32842W        W 1260  28.453  14.746  12.017
32843W        W 1261  32.545   1.919  11.083
32844W        W 1262   1.323   7.332  13.490
32845W        W 1263  35.496  44.868   4.668
32846W        W 1264  26.701  41.443  12.927
32847W        W 1265  31.998  25.977  14.798
32848W        W 1266   6.330  19.581  11.904
32849W        W 1267  19.568  40.510  14.299
32850W        W 1268  44.271  43.424  11.910
32851W        W 1269   7.364  36.866   2.859
32852W        W 1270  44.947  32.519  13.915
32853W        W 1271  20.221  36.543   4.733
32854W        W 1272  44.995  19.075  12.003
32855W        W 1273   9.858  44.265   3.357
32856W        W 1274  41.932  20.252   3.171
32857W        W 1275   9.337  24.598  11.995
32858W        W 1276  44.898  43.497   2.677
32859W        W 1277  39.542  15.665   3.731
32860W        W 1278  13.149  39.346   3.157
32861W        W 1279  23.079  33.025   2.700
32862W        W 1280  11.820   2.944   4.136
32863W        W 1281  27.516  32.621  13.837
32864W        W 1282  18.131   6.875  10.595
32865W        W 1283  29.054  30.161   3.150
32866W        W 1284  10.281  26.624   1.397
32867W        W 1285  40.394   0.313   4.114
32868W        W 1286  29.527  35.872  11.932
32869W        W 1287  22.232  42.011  11.547
32870W        W 1288  17.202  16.714  12.556
32871W        W 1289   5.806   6.276   3.862
32872W        W 1290  39.844  34.064   0.906
32873W        W 1291  32.465  28.037   4.312
32874W        W 1292  16.791  44.980  12.563
32875W        W 1293  12.284  33.417   3.707
32876W        W 1294  22.126  17.233  13.356
32877W        W 1295  14.226  19.719   2.835
32878W        W 1296  32.559  37.408   0.755
32879W        W 1297  42.464  28.436  11.938
32880W        W 1298   7.729  40.034  13.495
32881W        W 1299   5.203  38.561  10.615
32882W        W 1300  26.701  26.100   0.475
32883W        W 1301  22.067  20.133   4.206
32884W        W 1302  33.411   4.359  12.425
32885W        W 1303  15.677  44.818   2.781
32886W        W 1304  40.942  39.981  13.824
32887W        W 1305  28.679  11.841  12.376
32888W        W 1306  16.225  19.259   0.320
32889W        W 1307  19.065  18.201  13.521
32890W        W 1308  42.395  31.406   1.753
32891W        W 1309  28.183  27.029   0.753
32892W        W 1310  18.193  18.276  13.845
32893W        W 1311   0.287  12.803  10.929
32894W        W 1312  32.889  33.878   0.846
32895W        W 1313  37.342  24.156  14.907
32896W        W 1314  23.159  32.889   1.443
32897W        W 1315   0.933  11.642   5.317
32898W        W 1316  27.591  22.589   2.283
32899W        W 1317  24.695  34.488   4.261
32900W        W 1318  33.400  18.768   0.837
32901W        W 1319  35.508  33.039   0.837
32902W        W 1320  12.836   4.411   1.391
32903W        W 1321  37.887  42.997   2.852
32904W        W 1322  37.065  44.445  11.375
32905W        W 1323  36.009  27.654   2.771
32906W        W 1324  39.938  41.989  14.475
32907W        W 1325   7.350  26.958   4.818
32908W        W 1326  28.007  13.311  10.047
32909W        W 1327  28.470  24.547   3.799
32910W        W 1328  23.516  14.128  14.299
32911W        W 1329   1.870  20.709  11.099
32912W        W 1330  12.313  37.895   3.676
32913W        W 1331  18.226  31.985   0.964
32914W        W 1332   6.427  26.056   2.360
32915W        W 1333   1.766  38.836   3.164
32916W        W 1334  34.395  17.198  10.444
32917W        W 1335  22.136  16.305  14.859
32918W        W 1336  27.465  14.230  12.055
32919W        W 1337  28.435  14.118   3.676
32920W        W 1338  33.925   9.366   3.382
32921W        W 1339  34.014   4.244   0.782
32922W        W 1340  31.947   2.469  12.091
32923W        W 1341  22.195   0.262   0.744
32924W        W 1342  36.967   3.747   0.885
32925W        W 1343   5.911  11.263   0.911
32926W        W 1344   2.439  16.208   2.864
32927W        W 1345  25.665  38.427   2.663
32928W        W 1346   4.713   3.393  14.804
32929W        W 1347  39.904  35.528   1.267
32930W        W 1348  22.160  15.670  14.326
32931W        W 1349  12.235   0.427   0.967
32932W        W 1350  38.899  37.992  12.961
32933W        W 1351  44.789  44.473  11.872
32934W        W 1352  41.520  19.537  11.066
32935W        W 1353  12.233  19.534  11.476
32936W        W 1354   4.798  36.913   4.301
32937W        W 1355   1.815  43.437   4.301
32938W        W 1356   1.832  12.671   4.316
32939W        W 1357  24.707  30.066   4.762
32940W        W 1358   9.299  20.101   2.895
32941W        W 1359   7.281  35.410  10.457
32942W        W 1360  22.214  22.550  13.059
32943W        W 1361  29.935   7.218  11.039
32944W        W 1362  15.145  42.353  13.982
32945W        W 1363   3.820  12.119   4.824
32946W        W 1364  22.194  23.041  12.930
32947W        W 1365  28.580   6.780   5.679
32948W        W 1366   2.329  25.214  13.011
32949W        W 1367  42.878  26.145   3.772
32950W        W 1368  42.457  18.088   3.286
32951W        W 1369   4.305   1.419   2.825
32952W        W 1370   0.476   1.266   4.777
32953W        W 1371  44.455  21.739  13.965
32954W        W 1372   1.284  26.024  14.370
32955W        W 1373   8.663  30.456  10.609
32956W        W 1374   3.746  26.616  13.798
32957W        W 1375  34.379  12.760   4.634
32958W        W 1376  25.023   0.301  12.030
32959W        W 1377   3.811   7.405   3.643
32960W        W 1378  26.091  30.033  13.435
32961W        W 1379  24.618   9.872  14.462
32962W        W 1380  19.121  30.046   2.872
32963W        W 1381  20.626  11.332  14.929
32964W        W 1382  36.582  43.388   2.355
32965W        W 1383  16.806  24.519   4.296
32966W        W 1384  39.343   3.441  12.339
32967W        W 1385  17.785  27.489  14.351
32968W        W 1386  30.498  23.651  14.376
32969W        W 1387  40.889  16.185  12.386
32970W        W 1388  36.049  16.638  12.059
32971W        W 1389  44.783   3.260  10.468
32972W        W 1390   0.492   5.399  10.621
32973W        W 1391  39.923  23.551  14.971
32974W        W 1392   5.321  12.322  11.872
32975W        W 1393  16.752  30.445   3.227
32976W        W 1394   5.377  35.461   1.870
32977W        W 1395   8.889  40.406  11.372
32978W        W 1396  40.408   4.345   1.786
32979W        W 1397  35.916  10.776   3.803
32980W        W 1398  22.006  43.406  10.458
32981W        W 1399  43.979  19.550   4.230
32982W        W 1400  42.937  33.977   1.377
32983W        W 1401   3.934  35.435   3.869
32984W        W 1402  12.725  26.653   1.380
32985W        W 1403   3.370  32.599  12.991
32986W        W 1404   8.358  14.829  10.576
32987W        W 1405  13.709  22.202   1.855
32988W        W 1406  34.964  38.819  11.409
32989W        W 1407  44.939  43.329   3.207
32990W        W 1408   0.819  26.668   3.838
32991W        W 1409  20.155  10.383   3.159
32992W        W 1410  44.779  21.579   3.708
32993W        W 1411  11.333  22.682  10.611
32994W        W 1412   6.884   9.812  13.920
32995W        W 1413  33.049   4.796   2.747
32996W        W 1414  37.919  24.593  10.563
32997W        W 1415   5.767  16.128  13.043
32998W        W 1416  31.984  19.553  12.922
32999W        W 1417  42.429  35.427  14.450
33000W        W 1418   0.983  25.611   4.605
33001W        W 1419   2.310  21.075  11.865
33002W        W 1420   3.741  26.578   4.203
33003W        W 1421  39.453   9.656   3.864
33004W        W 1422   4.249   1.478  11.399
33005W        W 1423  40.975  40.867  14.433
33006W        W 1424  31.576   2.907   2.187
33007W        W 1425  24.713   6.734   1.876
33008W        W 1426   4.321  22.560   4.793
33009W        W 1427  31.435  41.435  12.908
33010W        W 1428  23.167   1.863  14.434
33011W        W 1429  36.588  41.376   4.290
33012W        W 1430  10.694  19.738   4.152
33013W        W 1431   1.430  10.689   1.447
33014W        W 1432  23.631  13.282  10.483
33015W        W 1433  35.084  44.272   3.834
33016W        W 1434  36.049  12.792   1.928
33017W        W 1435  14.738   2.297   4.305
33018W        W 1436  39.359   1.905  11.528
33019W        W 1437   9.363  19.076   3.859
33020W        W 1438  36.859   8.788   3.763
33021W        W 1439  28.601  41.392  11.106
33022W        W 1440   1.782  21.105  12.975
33023W        W 1441  10.282  39.400   4.327
33024W        W 1442  27.595  12.319  14.492
33025W        W 1443  17.137  17.300  14.454
33026W        W 1444  33.491  34.446   1.451
33027W        W 1445  17.753  32.022  11.069
33028W        W 1446  14.633  17.236  13.970
33029W        W 1447  33.565  30.501  14.854
33030W        W 1448  23.665  28.503  11.904
33031W        W 1449  33.938  41.850   4.332
33032W        W 1450  20.585  40.475  13.447
33033W        W 1451  44.866  10.728   2.903
33034W        W 1452  38.851  42.331  14.467
33035W        W 1453   8.787  19.701   2.207
33036W        W 1454  32.943   0.318  12.533
33037W        W 1455  36.841  31.028   1.702
33038W        W 1456   1.936  40.433  13.963
33039W        W 1457  27.530  43.320  12.071
33040W        W 1458   0.812  32.400   3.166
33041W        W 1459  39.808  33.401  10.925
33042W        W 1460  28.663  24.010  12.060
33043W        W 1461  10.227  29.997  14.281
33044W        W 1462   7.338  19.199   2.257
33045W        W 1463  24.160   5.244  12.054
33046W        W 1464  13.119   5.734  14.928
33047W        W 1465   4.872   8.170   2.874
33048W        W 1466  40.308   9.297  11.393
33049W        W 1467  29.669  10.138   4.145
33050W        W 1468  19.769  40.839  10.969
33051W        W 1469  19.168  10.340   4.164
33052W        W 1470  30.004   8.683  11.447
33053W        W 1471   7.346   4.936   4.606
33054W        W 1472  16.227  26.018   2.244
33055W        W 1473  37.511  24.160  13.363
33056W        W 1474  32.450  22.614  10.071
33057W        W 1475  13.699  31.041   0.436
33058W        W 1476   7.361  19.623   3.677
33059W        W 1477  32.912   5.697  10.572
33060W        W 1478   6.335  40.370   4.184
33061W        W 1479   9.653  28.447  12.463
33062W        W 1480  31.515   8.687   1.408
33063W        W 1481  10.375  39.823   0.305
33064W        W 1482  43.282  19.546   0.279
33065W        W 1483  13.315  31.615  11.039
33066W        W 1484  17.586  11.136   4.668
33067W        W 1485  39.443  17.759   4.822
33068W        W 1486  22.513  44.758  10.096
33069W        W 1487  33.524  28.183   4.639
33070W        W 1488  17.657  13.655   2.184
33071W        W 1489  39.557  34.501   1.879
33072W        W 1490  29.168  40.547  12.579
33073W        W 1491  43.965   4.728   4.171
33074W        W 1492  43.509  18.706   1.731
33075W        W 1493  15.673  15.209   3.371
33076W        W 1494  31.026  16.083   0.397
33077W        W 1495  44.295  25.595  14.438
33078W        W 1496  18.230  13.658  11.096
33079W        W 1497   0.861  20.138  12.555
33080W        W 1498  44.469  41.895  13.841
33081W        W 1499  38.962  39.556   1.423
33082W        W 1500  32.026  27.518  11.574
33083W        W 1501  30.412  12.219  13.420
33084W        W 1502  37.493  37.880  13.846
33085W        W 1503  18.122  18.587   0.955
33086W        W 1504  44.829  36.588  13.379
33087W        W 1505   6.736  28.469   1.761
33088W        W 1506   4.757  11.867  10.620
33089W        W 1507  43.789  14.134   5.219
33090W        W 1508   6.757  41.805  10.947
33091W        W 1509  16.310  15.805   1.304
33092W        W 1510   7.911  30.105  11.431
33093W        W 1511  26.156  31.990  13.004
33094W        W 1512   7.404  42.828   5.266
33095W        W 1513  36.407  27.152  10.534
33096W        W 1514   8.705  14.736  14.361
33097W        W 1515  13.325  41.035   2.901
33098W        W 1516  27.135  26.981  13.032
33099W        W 1517  35.398  11.794   4.774
33100W        W 1518  33.601  14.236   2.674
33101W        W 1519  11.742  43.437  13.458
33102W        W 1520  25.021  17.301   4.759
33103W        W 1521  23.494  25.963   4.139
33104W        W 1522  16.582  30.463   1.705
33105W        W 1523  40.932  21.580   1.912
33106W        W 1524  22.251  31.085  10.554
33107W        W 1525  16.207  39.915  11.510
33108W        W 1526   0.302   4.418  12.413
33109W        W 1527  30.945   6.234   5.312
33110W        W 1528   0.936   1.856  11.963
33111W        W 1529  40.017  44.337   3.264
33112W        W 1530  20.216  16.318  10.948
33113W        W 1531  35.581  39.391   4.121
33114W        W 1532  33.880  25.059   1.910
33115W        W 1533  11.639   3.880   0.868
33116W        W 1534  39.836  24.072  14.334
33117W        W 1535  26.524  20.584   2.834
33118W        W 1536   1.383  13.294  12.042
33119W        W 1537  15.110  16.189  13.446
33120W        W 1538   6.239  19.155  11.388
33121W        W 1539  13.671  18.206  14.296
33122W        W 1540  34.089  36.507   1.791
33123W        W 1541  30.571  10.743   0.930
33124W        W 1542  16.670  12.185   1.826
33125W        W 1543   5.361  37.352   2.327
33126W        W 1544   1.764  37.467  11.921
33127W        W 1545   4.887  16.077   3.200
33128W        W 1546  24.189   2.275   4.699
33129W        W 1547  28.965   3.360   0.778
33130W        W 1548  10.815  43.773   3.660
33131W        W 1549  28.111  41.915   2.742
33132W        W 1550  16.275   3.869   1.232
33133W        W 1551  17.725  22.227  13.934
33134W        W 1552  13.277  19.039  10.428
33135W        W 1553  29.931  22.082  12.874
33136W        W 1554  14.279   9.326   1.338
33137W        W 1555  30.599  25.054   4.750
33138W        W 1556  34.396  21.728   2.856
33139W        W 1557  18.548  25.609   0.403
33140W        W 1558  31.925  15.298  12.398
33141W        W 1559  11.227   8.779   3.285
33142W        W 1560  44.935   1.966  12.502
33143W        W 1561   9.739  34.908   0.450
33144W        W 1562  11.766  19.759  13.041
33145W        W 1563  12.824  22.599   4.625
33146W        W 1564  29.073  33.403   1.382
33147W        W 1565  36.402  37.501   3.231
33148W        W 1566   3.430  14.288   4.166
33149W        W 1567  41.417  31.126   4.799
33150W        W 1568  24.079  39.462  10.457
33151W        W 1569  36.053  18.177  12.844
33152W        W 1570  20.682  25.980  12.445
33153W        W 1571  19.105  29.955   1.390
33154W        W 1572  18.727  36.493   1.840
33155W        W 1573  23.148  41.858   0.735
33156W        W 1574  12.691  22.151  14.439
33157W        W 1575  41.995  10.744  11.859
33158W        W 1576  27.073   6.306  10.605
33159W        W 1577  13.350  39.958  14.919
33160W        W 1578  32.628  27.177   0.407
33161W        W 1579   3.943  15.773  11.050
33162W        W 1580  38.335  35.394  13.995
33163W        W 1581  36.365  14.221  10.962
33164W        W 1582  10.145  25.200   1.904
33165W        W 1583  33.450   1.425  14.788
33166W        W 1584  34.059  10.287  11.524
33167W        W 1585  14.693  15.776   2.272
33168W        W 1586  24.626  37.572  13.437
33169W        W 1587  41.327  27.079   3.365
33170W        W 1588  20.570  39.983   1.786
33171W        W 1589  19.154   9.272   3.155
33172W        W 1590  21.103  39.499  12.971
33173W        W 1591   2.345  18.680   0.864
33174W        W 1592  40.434  10.332  14.360
33175W        W 1593   0.841  24.671  13.350
33176W        W 1594   9.788  13.227   0.381
33177W        W 1595  44.811  30.150   3.775
33178W        W 1596  30.038  28.951  11.390
33179W        W 1597  17.560  30.056  12.941
33180W        W 1598  22.723  18.655   2.400
33181W        W 1599  36.901  23.054  11.875
33182W        W 1600   5.342  34.894  10.429
33183W        W 1601  16.133  15.239   1.228
33184W        W 1602  14.790  11.771   0.349
33185W        W 1603  43.399  26.479   0.960
33186W        W 1604  34.497  16.807   1.722
33187W        W 1605   4.390  21.053   0.357
33188W        W 1606   5.337  30.076  13.358
33189W        W 1607  44.768  35.930   1.255
33190W        W 1608  11.747   2.290  10.980
33191W        W 1609   1.256   6.815  13.439
33192W        W 1610  14.109  20.255   2.729
33193W        W 1611  39.491  37.920   1.870
33194W        W 1612  15.316  34.387   0.382
33195W        W 1613   5.872   1.813  12.898
33196W        W 1614  26.174  41.360  14.314
33197W        W 1615   1.442  12.160  14.811
33198W        W 1616  24.608  26.476  12.375
33199W        W 1617  40.455  10.317   0.932
33200W        W 1618   8.801  18.153   4.144
33201W        W 1619   5.219  17.285   1.436
33202W        W 1620  41.471  14.623   1.768
33203W        W 1621  35.037  23.608   0.838
33204W        W 1622   8.709  23.083   4.779
33205W        W 1623  37.418   8.351  14.497
33206W        W 1624  19.544  26.466  10.474
33207W        W 1625  18.779  22.151   0.866
33208W        W 1626   3.378   7.340   0.829
33209W        W 1627  20.196  40.470  11.985
33210W        W 1628  14.771  34.382   2.263
33211W        W 1629  25.019  20.191  14.796
33212W        W 1630  38.908  36.426   3.710
33213W        W 1631  12.634  12.335   4.321
33214W        W 1632  36.939  19.550   4.656
33215W        W 1633  37.904  26.582  13.465
33216W        W 1634   8.775  43.384   1.928
33217W        W 1635   1.447  31.617  13.469
33218W        W 1636  17.556   4.910  12.438
33219W        W 1637  43.907   4.277   4.316
33220W        W 1638  10.371  16.151   4.224
33221W        W 1639   9.386   0.975   1.406
33222W        W 1640  23.170  24.496  14.393
33223W        W 1641   7.734   5.786   3.781
33224W        W 1642  18.718  20.122   4.307
33225W        W 1643   5.879  26.126   4.627
33226W        W 1644  10.158  13.265  14.448
33227W        W 1645   0.948  27.987   2.392
33228W        W 1646  33.923  34.552  10.982
33229W        W 1647  19.076  27.668  11.554
33230W        W 1648  22.638  19.253   2.261
33231W        W 1649   7.742  19.533  14.896
33232W        W 1650  41.310  28.484  13.863
33233W        W 1651  30.943  44.861  11.519
33234W        W 1652   7.301  19.676  11.080
33235W        W 1653  26.640  16.714  14.401
33236W        W 1654  43.934   0.982   3.729
33237W        W 1655   0.254  12.332  12.530
33238W        W 1656   2.899  18.250  13.521
33239W        W 1657  41.810  31.568   0.895
33240W        W 1658  39.502   1.433  13.841
33241W        W 1659   0.319  44.369   3.688
33242W        W 1660   6.378   9.160  13.845
33243W        W 1661  31.976   1.417   2.885
33244W        W 1662   8.280  34.020  14.001
33245W        W 1663  31.438  37.930  11.891
33246W        W 1664  39.325   3.872  14.294
33247W        W 1665  20.637  26.134  14.385
33248W        W 1666  10.377  22.211   1.716
33249W        W 1667  24.488  32.904  11.057
33250W        W 1668   8.897  23.033   2.180
33251W        W 1669  37.019  14.235  14.824
33252W        W 1670  17.243   4.857   1.226
33253W        W 1671  16.190   7.412   3.733
33254W        W 1672  11.192  43.773   1.813
33255W        W 1673  34.111   7.680  12.089
33256W        W 1674   1.971  30.944   0.295
33257W        W 1675  29.937  38.530   4.306
33258W        W 1676   7.242  21.660   2.269
33259W        W 1677  21.263  41.907  11.550
33260W        W 1678  16.619  39.371   3.260
33261W        W 1679  36.513  23.712  13.877
33262W        W 1680  15.131  30.978   3.768
33263W        W 1681  27.520  25.703  11.910
33264W        W 1682   2.386  12.787  12.440
33265W        W 1683  32.598  11.857   4.298
33266W        W 1684  20.622  33.560   2.405
33267W        W 1685   1.474  32.967  13.374
33268W        W 1686   3.905   3.924   3.645
33269W        W 1687  23.586  41.359   3.869
33270W        W 1688  18.218  28.511   0.455
33271W        W 1689  26.504   4.357   4.149
33272W        W 1690   4.923  33.491   4.192
33273W        W 1691  33.435  42.524   0.329
33274W        W 1692  26.607  43.834  14.513
33275W        W 1693  14.704  40.959   3.864
33276W        W 1694  37.429  10.666   4.152
33277W        W 1695  39.560  25.553  11.568
33278W        W 1696   9.303  18.145  13.793
33279W        W 1697  29.475   5.232   0.362
33280W        W 1698  33.382   1.465  10.509
33281W        W 1699   0.755  13.321  10.414
33282W        W 1700  32.475  12.301  12.031
33283W        W 1701  34.988  11.262   2.669
33284W        W 1702  41.398   7.844  12.836
33285W        W 1703  14.197  41.804  10.550
33286W        W 1704  43.918   7.383  11.517
33287W        W 1705   6.288  27.029   1.295
33288W        W 1706  11.775   9.218   3.381
33289W        W 1707   8.195   2.437   2.347
33290W        W 1708  21.217  32.429   1.801
33291W        W 1709  40.928   1.795   4.319
33292W        W 1710  20.535   0.295   4.128
33293W        W 1711  40.429   1.860  11.580
33294W        W 1712  36.095   9.256  11.470
33295W        W 1713   2.410  33.099  12.340
33296W        W 1714  44.835   4.720   0.301
33297W        W 1715   5.911  37.892  10.590
33298W        W 1716  43.320   0.869  14.384
33299W        W 1717  41.002  38.822  13.003
33300W        W 1718  21.686  43.928  13.841
33301W        W 1719   1.385  10.230  12.845
33302W        W 1720  19.092   2.350   3.848
33303W        W 1721  15.742  36.045  14.315
33304W        W 1722  26.546   5.845  12.898
33305W        W 1723  18.746  35.557  12.468
33306W        W 1724  10.683  34.582   2.223
33307W        W 1725  25.175  18.253  11.087
33308W        W 1726  44.878  44.427   2.315
33309W        W 1727  27.014  10.362   1.224
33310W        W 1728  15.305  20.686   2.281
33311W        W 1729   3.952  39.529   2.757
33312W        W 1730  23.499   3.259  10.949
33313W        W 1731  14.282  40.538   0.368
33314W        W 1732  23.999   2.331   1.839
33315W        W 1733   1.966   3.729   3.360
33316W        W 1734  25.486  44.377  14.816
33317W        W 1735  31.079  32.108   1.736
33318W        W 1736   6.708  13.266  14.430
33319W        W 1737   3.251  29.941   3.688
33320W        W 1738  26.185  36.021  14.769
33321W        W 1739  16.108  41.973   3.746
33322W        W 1740  27.681  33.884   0.312
33323W        W 1741  13.679   5.267   2.844
33324W        W 1742  36.379  41.395  10.111
33325W        W 1743   8.164  15.157  12.475
33326W        W 1744  37.410  19.558   3.786
33327W        W 1745  32.475  18.552   4.619
33328W        W 1746  44.441  36.973  11.905
33329W        W 1747   2.242  11.176   1.911
33330W        W 1748  39.489  41.815   3.187
33331W        W 1749  20.042   6.722   2.229
33332W        W 1750  39.911  39.838   4.672
33333W        W 1751   1.469  23.058   2.365
33334W        W 1752  21.153  39.925  12.472
33335W        W 1753  25.048  34.396  12.460
33336W        W 1754  33.603  12.720  13.406
33337W        W 1755  41.386  32.596   2.180
33338W        W 1756   8.660   5.265  12.895
33339W        W 1757  18.231   6.828  12.900
33340W        W 1758  21.624  22.743  14.385
33341W        W 1759   9.668  39.010  10.589
33342W        W 1760  31.500  39.920  13.810
33343W        W 1761  11.685  13.776  13.000
33344W        W 1762  21.619  31.639   3.346
33345W        W 1763   2.842  21.666  14.974
33346W        W 1764  25.024  17.600   1.704
33347W        W 1765  21.077  25.207   1.270
33348W        W 1766  36.932  18.227  10.978
33349W        W 1767  15.308  13.198   1.733
33350W        W 1768  18.120  37.035   3.816
33351W        W 1769   1.828  40.884   2.380
33352W        W 1770  26.053  18.582   0.750
33353W        W 1771  38.837  44.787   4.308
33354W        W 1772   5.340  21.194  10.133
33355W        W 1773  42.957  42.940   5.133
33356W        W 1774  39.422  30.557  14.801
33357W        W 1775  14.249  26.665   0.296
33358W        W 1776   1.799  13.189  12.910
33359W        W 1777  16.680  40.440   0.379
33360W        W 1778   4.361  35.912  11.010
33361W        W 1779   2.961  24.030  11.444
33362W        W 1780  28.484  40.838  11.910
33363W        W 1781  24.117  22.597  14.994
33364W        W 1782   4.205  31.537   0.850
33365W        W 1783  21.727  41.040  11.568
33366W        W 1784  28.050   0.474   3.249
33367W        W 1785  12.763  17.709  13.982
33368W        W 1786  20.740   2.375   3.649
33369W        W 1787  14.319  16.142  14.811
33370W        W 1788  42.847  44.431   4.654
33371W        W 1789  29.164  28.054  10.606
33372W        W 1790   1.969  17.729   1.277
33373W        W 1791  37.456  26.192   2.755
33374W        W 1792  34.383  35.486  13.338
33375W        W 1793  35.578  26.089   3.707
33376W        W 1794   9.658  35.001   2.301
33377W        W 1795  18.163  44.472  10.528
33378W        W 1796  43.320  10.698   4.322
33379W        W 1797  21.621   5.778   1.254
33380W        W 1798  37.353   6.245  13.508
33381W        W 1799  33.924  10.366   4.227
33382W        W 1800  30.434   7.771   4.787
33383W        W 1801  36.530  43.336   1.911
33384W        W 1802  20.529  40.896   0.388
33385W        W 1803  23.651  34.909  14.981
33386W        W 1804  42.938  16.203  13.015
33387W        W 1805   3.713  33.398   3.729
33388W        W 1806  12.167  14.814   3.680
33389W        W 1807   4.720   8.322   3.678
33390W        W 1808  23.516  14.643   0.283
33391W        W 1809  31.937  44.461  13.024
33392W        W 1810  44.394   1.743   4.312
33393W        W 1811  37.424  12.689   3.216
33394W        W 1812  42.028  27.464  10.969
33395W        W 1813  30.063  28.524  11.066
33396W        W 1814   0.397  31.537  13.844
33397W        W 1815  24.649  10.307   3.659
33398W        W 1816  16.238   4.804   1.933
33399W        W 1817  41.991  24.993  11.096
33400W        W 1818  27.665  40.798  10.490
33401W        W 1819  43.369  44.331   1.398
33402W        W 1820   2.282   6.369   4.753
33403W        W 1821  10.878  41.493   4.784
33404W        W 1822  36.973  30.045  11.532
33405W        W 1823  23.124  12.757   1.852
33406W        W 1824  35.369  20.631   0.911
33407W        W 1825  22.697  19.085  14.949
33408W        W 1826  35.975  28.165  14.779
33409W        W 1827  18.064  25.182  14.934
33410W        W 1828  26.516  13.313   3.850
33411W        W 1829   3.332  27.687   0.954
33412W        W 1830  20.566  23.519  14.828
33413W        W 1831  35.910  10.660  14.905
33414W        W 1832  27.472  43.939   4.231
33415W        W 1833  36.514  43.996  11.981
33416W        W 1834   9.186   6.731  14.935
33417W        W 1835  29.631  40.050  13.045
33418W        W 1836  25.656  31.128  10.450
33419W        W 1837   2.247  30.566  13.898
33420W        W 1838  20.120   5.704  12.942
33421W        W 1839  33.071   1.414  11.071
33422W        W 1840  24.519  23.730   1.409
33423W        W 1841   8.283  38.833   2.674
33424W        W 1842  22.623  23.086   0.762
33425W        W 1843  11.252  35.106   2.802
33426W        W 1844  38.512  30.634   0.805
33427W        W 1845  15.235  31.112  14.359
33428W        W 1846   1.468  16.704  12.031
33429W        W 1847  21.566  27.504   2.246
33430W        W 1848  19.198   9.712   2.337
33431W        W 1849  23.010  26.173   4.807
33432W        W 1850  23.995  11.366   2.397
33433W        W 1851  12.302   1.389   0.882
33434W        W 1852  18.166  41.295   0.471
33435W        W 1853  31.111  18.700  14.428
33436W        W 1854  31.580  17.136  11.601
33437W        W 1855  15.282  14.253   0.427
33438W        W 1856  39.541  26.546   2.187
33439W        W 1857   1.942  17.202   4.722
33440W        W 1858   9.827  24.130  11.572
33441W        W 1859   6.207   6.326   3.359
33442W        W 1860  44.946  18.064   4.770
33443W        W 1861  11.354  25.217   5.203
33444W        W 1862  13.168  28.964  12.877
33445W        W 1863   8.354  29.533  11.437
33446W        W 1864  34.427  24.621  14.933
33447W        W 1865  15.302  29.962   1.895
33448W        W 1866  22.039  34.066   1.223
33449W        W 1867  11.211  11.190  10.456
33450W        W 1868   1.330  18.184   2.363
33451W        W 1869  32.135  44.932   3.339
33452W        W 1870  44.308  20.184   2.230
33453W        W 1871  39.017  39.546   3.635
33454W        W 1872  12.814  32.117   1.803
33455W        W 1873  30.974  17.751  12.837
33456W        W 1874  42.454  37.022  10.887
33457W        W 1875   5.835   2.863   4.329
33458W        W 1876  13.661  36.409   0.258
33459W        W 1877  28.062  44.502   4.323
33460W        W 1878  36.899  35.953   0.889
33461W        W 1879  10.673  15.276  12.498
33462W        W 1880  38.953  41.034   4.665
33463W        W 1881  18.068   6.243   0.304
33464W        W 1882  19.706  42.979   2.344
33465W        W 1883   5.310   8.761  14.278
33466W        W 1884  32.531  24.044  14.941
33467W        W 1885  10.761  13.624   2.257
33468W        W 1886   7.174  39.436   0.927
33469W        W 1887  36.455  14.178  11.928
33470W        W 1888  10.634  28.137   2.883
33471W        W 1889  16.597   4.429   5.225
33472W        W 1890  15.240  20.147   2.772
33473W        W 1891  27.966  44.286   2.751
33474W        W 1892  30.118  31.530  14.802
33475W        W 1893   2.935  11.273  11.611
33476W        W 1894  25.989  37.857   3.641
33477W        W 1895  36.848  37.875  10.952
33478W        W 1896   8.342  33.397  11.963
33479W        W 1897  11.704  23.051   2.289
33480W        W 1898   4.851  17.122   0.251
33481W        W 1899  33.489  39.856   0.766
33482W        W 1900  33.586   5.236  11.000
33483W        W 1901  38.951  23.221   2.790
33484W        W 1902  28.937  28.595  12.891
33485W        W 1903  11.829  28.133  12.965
33486W        W 1904  42.965   1.911  14.973
33487W        W 1905   9.244  26.188  13.489
33488W        W 1906  35.493  17.196  13.310
33489W        W 1907  13.736  33.428  12.066
33490W        W 1908  31.567   5.859  10.985
33491W        W 1909  14.123  24.531   0.853
33492W        W 1910  18.239   3.361   4.237
33493W        W 1911  14.618  41.815  10.484
33494W        W 1912  25.574  18.693  11.542
33495W        W 1913  11.839  15.210   0.727
33496W        W 1914  41.985   0.941   9.939
33497W        W 1915   8.801  34.915   0.277
33498W        W 1916  44.985  14.226  11.127
33499W        W 1917  44.312  22.130  14.002
33500W        W 1918  17.286  42.897   3.363
33501W        W 1919  44.502  43.850   0.760
33502W        W 1920  19.069   3.218   4.151
33503W        W 1921  26.052  37.565   4.780
33504W        W 1922  27.095  14.611   3.710
33505W        W 1923   7.201  18.220   0.453
33506W        W 1924  13.770   6.263  10.126
33507W        W 1925   8.306  30.594  14.373
33508W        W 1926  15.636  12.734   4.336
33509W        W 1927   5.851  18.627  13.950
33510W        W 1928  14.331   4.755   1.810
33511W        W 1929  36.496  23.496   3.674
33512W        W 1930  35.368  43.471   4.281
33513W        W 1931  12.252  19.619   0.466
33514W        W 1932  10.847  25.056   2.704
33515W        W 1933  35.868  27.017   4.141
33516W        W 1934  27.507   4.701  11.072
33517W        W 1935  36.533  22.705  10.907
33518W        W 1936  26.194  34.595   0.787
33519W        W 1937  36.426  35.061  11.868
33520W        W 1938  23.986  28.930   4.707
33521W        W 1939  39.004  39.413   0.745
33522W        W 1940   2.227   4.321  14.457
33523W        W 1941  24.976   1.909  11.556
33524W        W 1942  34.577  31.124   1.235
33525W        W 1943   3.822   0.792  14.994
33526W        W 1944   3.263  15.192  14.462
33527W        W 1945  40.037  10.363   3.322
33528W        W 1946  38.071  22.123   2.844
33529W        W 1947   1.306  34.864  10.576
33530W        W 1948  13.823   3.292  11.519
33531W        W 1949  10.148  43.335  13.484
33532W        W 1950  10.360  18.710  10.545
33533W        W 1951  16.120  15.225   3.765
33534W        W 1952   2.462  41.804   0.847
33535W        W 1953  32.583  25.010  13.941
33536W        W 1954   5.863  17.642   2.688
33537W        W 1955  10.666   8.855  12.980
33538W        W 1956  15.725  21.616  13.967
33539W        W 1957  37.543  37.888  12.992
33540W        W 1958  40.509  37.444   0.913
33541W        W 1959  10.273  28.662   0.328
33542W        W 1960  32.509   0.294   1.378
33543W        W 1961   7.888  30.958  14.986
33544W        W 1962  43.859  19.062   1.716
33545W        W 1963  34.977  40.971   3.742
33546W        W 1964  34.937  36.869   0.845
33547W        W 1965  37.012  19.089   4.321
33548W        W 1966  10.155  11.825  10.525
33549W        W 1967   5.230  43.510   2.721
33550W        W 1968  40.874   0.899   2.773
33551W        W 1969  16.305  39.820   3.299
33552W        W 1970  14.179  28.574   2.376
33553W        W 1971  14.755   0.935  15.000
33554W        W 1972   0.471  25.135   4.707
33555W        W 1973   4.821   3.333  12.510
33556W        W 1974  42.995  37.021  11.021
33557W        W 1975  35.506  29.643  14.810
33558W        W 1976  36.913   8.843  13.003
33559W        W 1977  37.399  19.063   4.773
33560W        W 1978  16.640  11.708   4.788
33561W        W 1979  31.142  35.947   0.294
33562W        W 1980  34.463   7.384  11.531
33563W        W 1981   8.710  34.590   1.751
33564W        W 1982  14.104  33.402   5.188
33565W        W 1983   3.309   8.360   3.777
33566W        W 1984  17.121   7.747   0.935
33567W        W 1985   2.310   5.273   0.739
33568W        W 1986  13.670  34.945  12.046
33569W        W 1987   4.230  27.074  14.378
33570W        W 1988  33.397  14.246  11.874
33571W        W 1989   7.746  12.223   2.900
33572W        W 1990  16.270  15.581  12.064
33573W        W 1991  37.518  25.577  12.866
33574W        W 1992  42.369  30.420  12.929
33575W        W 1993   4.869   8.883  10.609
33576W        W 1994  38.066  20.196  14.479
33577W        W 1995  26.139  19.673  10.520
33578W        W 1996  25.593   0.295  12.418
33579W        W 1997  42.346  11.729   5.802
33580W        W 1998  34.094  35.939   1.434
33581W        W 1999  10.710  17.277  13.834
33582W        W 2000  43.343  13.658   0.336
33583W        W 2001  14.114  44.954  14.308
33584W        W 2002   8.304  42.468   1.262
33585W        W 2003   7.271  16.799  10.952
33586W        W 2004  12.219  26.984   1.250
33587W        W 2005   6.211  32.418   0.828
33588W        W 2006  25.028  36.362   1.875
33589W        W 2007  24.546  36.444  12.878
33590W        W 2008  24.051  22.689   1.935
33591W        W 2009  31.624  18.601  13.890
33592W        W 2010  13.794  29.137  14.837
33593W        W 2011  44.375  40.980   4.728
33594W        W 2012  12.654   9.703   0.266
33595W        W 2013  39.937  27.165   1.375
33596W        W 2014  33.103  12.616   4.158
33597W        W 2015   0.340   8.332  14.288
33598W        W 2016   1.415  32.066   4.190
33599W        W 2017  23.173   8.779  12.041
33600W        W 2018  33.409  30.635   0.279
33601W        W 2019  38.486  13.335   0.919
33602W        W 2020  16.572  14.282   0.737
33603W        W 2021  14.173  26.663   5.226
33604W        W 2022  39.965  22.999  11.479
33605W        W 2023  18.775  40.444  14.810
33606W        W 2024   8.788  22.012  11.112
33607W        W 2025  11.626  40.470  10.068
33608W        W 2026  24.531   8.891   4.329
33609W        W 2027  32.422  30.078   4.698
33610W        W 2028  24.225  42.419   4.764
33611W        W 2029  15.794  15.590  13.907
33612W        W 2030  28.654  41.961  11.991
33613W        W 2031  13.754  40.486  10.552
33614W        W 2032  25.627  32.446  14.808
33615W        W 2033  43.430  17.118  13.831
33616W        W 2034  11.141   2.807   3.231
33617W        W 2035  32.106   4.805  14.832
33618W        W 2036  24.599  24.201   3.219
33619W        W 2037  15.769  34.455  12.417
33620W        W 2038  38.986  32.899  12.535
33621W        W 2039  32.505  11.787   4.735
33622W        W 2040  27.613  13.138  11.862
33623W        W 2041  26.508  28.161  11.061
33624W        W 2042  22.123  21.723  11.063
33625W        W 2043   2.285   5.758   3.836
33626W        W 2044  17.201  24.648   1.413
33627W        W 2045  29.959  39.432  10.521
33628W        W 2046   0.816  27.568   0.352
33629W        W 2047  39.991  13.786  11.937
33630W        W 2048  12.612  19.571  13.063
33631W        W 2049  23.149  36.928  13.813
33632W        W 2050  35.476  30.444   4.761
33633W        W 2051  11.356   6.855  11.080
33634W        W 2052  20.623  39.831   5.647
33635W        W 2053  39.053  44.827  11.038
33636W        W 2054   7.408  33.383  13.946
33637W        W 2055   4.353   8.314  12.929
33638W        W 2056  33.540   6.352   2.696
33639W        W 2057   5.730  33.586   0.759
33640W        W 2058  37.920   0.457  14.501
33641W        W 2059  19.138  39.911   2.690
33642W        W 2060  33.426  17.590  10.902
33643W        W 2061  29.457  23.633  11.934
33644W        W 2062   7.308  19.071   0.813
33645W        W 2063  19.664  13.292  12.422
33646W        W 2064  19.210  26.518  13.311
33647W        W 2065  15.106  10.150  13.975
33648W        W 2066   3.935   6.704  13.514
33649W        W 2067  10.801  17.668   2.309
33650W        W 2068  38.414   7.697  10.990
33651W        W 2069   5.203  17.080   3.186
33652W        W 2070  29.576   6.849   2.382
33653W        W 2071  43.964  35.427  11.120
33654W        W 2072   3.951  17.588   2.724
33655W        W 2073  30.934   1.802  13.849
33656W        W 2074  34.040   1.333   3.286
33657W        W 2075  28.182   3.218  14.507
33658W        W 2076   0.352   3.878   3.699
33659W        W 2077  21.637  37.947  13.795
33660W        W 2078   7.187  21.592  11.517
33661W        W 2079  33.449  19.099  12.937
33662W        W 2080  36.004  28.063   3.297
33663W        W 2081  35.478  36.481  10.137
33664W        W 2082  44.996  42.310   3.780
33665W        W 2083  21.697  33.616  14.470
33666W        W 2084   2.735  36.929  10.628
33667W        W 2085   3.380  37.855   3.348
33668W        W 2086  25.973   6.233   3.164
33669W        W 2087  36.497   1.741   5.182
33670W        W 2088   8.729  23.498   2.850
33671W        W 2089  13.123  17.108  12.400
33672W        W 2090  28.086  14.294   4.116
33673W        W 2091  27.998  33.598   4.195
33674W        W 2092  39.385  13.222  14.481
33675W        W 2093   9.308  23.033   4.309
33676W        W 2094  29.933   8.716   4.676
33677W        W 2095  26.469   8.258  12.403
33678W        W 2096  18.277  37.374  11.448
33679W        W 2097  37.343  28.484   1.935
33680W        W 2098  20.117  10.252   0.867
33681W        W 2099  40.447  41.465  10.636
33682W        W 2100  23.558  34.978  14.277
33683W        W 2101  44.776  44.400   3.170
33684W        W 2102  33.624  14.651   4.753
33685W        W 2103  22.059  12.288   2.722
33686W        W 2104  13.758   0.744   3.771
33687W        W 2105  30.646  38.368  12.370
33688W        W 2106  27.680  39.961   4.334
33689W        W 2107   2.775  34.057  14.497
33690W        W 2108  24.206   2.371   4.141
33691W        W 2109  23.678   9.152   3.240
33692W        W 2110   4.339  14.693   0.923
33693W        W 2111  25.069  44.971   2.734
33694W        W 2112  40.360   6.194   0.941
33695W        W 2113  38.833   2.317   3.710
33696W        W 2114  35.461  19.688  12.069
33697W        W 2115  28.466  41.043   3.666
33698W        W 2116  24.596  28.546  10.914
33699W        W 2117  41.426  31.456   4.723
33700W        W 2118  22.723  11.755   1.357
33701W        W 2119  41.419  32.128   2.740
33702W        W 2120  18.633  40.506  13.432
33703W        W 2121  32.095  34.978   1.314
33704W        W 2122   4.349  13.779   4.230
33705W        W 2123  23.705  34.506  14.484
33706W        W 2124   2.458  34.946  14.806
33707W        W 2125   1.359  32.078  11.052
33708W        W 2126  18.656  12.616   0.466
33709W        W 2127  33.494  17.739  14.885
33710W        W 2128  20.198  27.052   0.246
33711W        W 2129  24.487   5.900  13.536
33712W        W 2130  17.685  22.635   1.885
33713W        W 2131  38.524  27.061  12.926
33714W        W 2132   7.746  24.659  11.431
33715W        W 2133  37.085  27.659   1.223
33716W        W 2134  12.122  39.846  11.069
33717W        W 2135  12.226   6.426   2.833
33718W        W 2136  19.628  41.530   1.756
33719W        W 2137  29.562  23.054   0.789
33720W        W 2138  31.083  21.188   2.829
33721W        W 2139  23.130  39.852   0.894
33722W        W 2140   0.832   9.771   4.194
33723W        W 2141  35.388   2.782  13.437
33724W        W 2142  21.734  34.087   1.857
33725W        W 2143  43.340  13.633   3.295
33726W        W 2144  29.926  29.161  12.016
33727W        W 2145  31.635  20.101  11.901
33728W        W 2146  12.244  36.890  11.412
33729W        W 2147  14.176  17.135   5.174
33730W        W 2148  37.487  41.329   4.181
33731W        W 2149  35.959  44.373  12.497
33732W        W 2150  32.588  12.269   1.759
33733W        W 2151  37.012  42.449   4.118
33734W        W 2152  34.043  29.023   3.729
33735W        W 2153   2.963  27.017  11.036
33736W        W 2154  34.884   0.823   1.893
33737W        W 2155  19.162  13.189   1.330
33738W        W 2156  42.410  41.883   1.313
33739W        W 2157  31.932  44.903   4.134
33740W        W 2158  17.153  22.645  11.504
33741W        W 2159  42.004  38.975  11.478
33742W        W 2160  16.717  38.387   2.897
33743W        W 2161   4.839  21.181   0.273
33744W        W 2162  20.604  15.237   0.405
33745W        W 2163  32.583  35.034   3.187
33746W        W 2164  41.920  28.111   2.325
33747W        W 2165  42.453  33.907   3.357
33748W        W 2166   7.296  28.036   3.246
33749W        W 2167   4.204  40.442   2.224
33750W        W 2168  15.760   1.852   4.175
33751W        W 2169  43.463   4.400  13.939
33752W        W 2170  43.471  41.833   4.350
33753W        W 2171  22.249  11.219  11.896
33754W        W 2172   0.347  25.615  12.060
33755W        W 2173  25.556  15.747  12.008
33756W        W 2174  21.040  37.945  12.551
33757W        W 2175  40.368  30.057   0.731
33758W        W 2176  30.925  38.847  13.952
33759W        W 2177   3.223  23.145   1.376
33760W        W 2178   5.840  11.775  13.844
33761W        W 2179  11.849   6.826  11.594
33762W        W 2180  10.296  40.458   1.861
33763W        W 2181  15.276  19.150   3.299
33764W        W 2182  12.240  43.913  10.465
33765W        W 2183   5.402   0.382  12.450
33766W        W 2184  28.182  21.593   3.256
33767W        W 2185   5.878  28.975   3.297
33768W        W 2186   0.867   5.711   4.158
33769W        W 2187  13.324  42.396   0.731
33770W        W 2188  34.502  37.554   2.868
33771W        W 2189   5.331  38.426  14.463
33772W        W 2190  12.689   5.888   3.269
33773W        W 2191  44.458  17.764  10.492
33774W        W 2192  19.271  25.190  14.882
33775W        W 2193  33.913  38.016   4.303
33776W        W 2194  32.445  19.273   1.427
33777W        W 2195  13.746  24.604   4.767
33778W        W 2196  33.037  22.017   0.947
33779W        W 2197  18.622  41.416   4.278
33780W        W 2198  16.244  40.995  14.785
33781W        W 2199  37.061   7.762   4.687
33782W        W 2200  23.140  33.937  14.930
33783W        W 2201  34.922  20.199  14.007
33784W        W 2202  41.391  38.376  10.582
33785W        W 2203  43.489  10.383   3.190
33786W        W 2204   7.828  23.732  10.623
33787W        W 2205  25.703  17.191  13.889
33788W        W 2206  23.587   0.803   2.676
33789W        W 2207  41.920  41.897   4.763
33790W        W 2208   1.255  25.712  12.012
33791W        W 2209  15.601  35.500   3.149
33792W        W 2210  43.442  37.431   9.945
33793W        W 2211  14.644  13.238  14.506
33794W        W 2212  14.611  31.524  12.530
33795W        W 2213  10.307   0.770   2.223
33796W        W 2214  36.083  13.183   3.854
33797W        W 2215  32.019  12.710   0.737
33798W        W 2216  10.754   6.739  12.079
33799W        W 2217  23.671  34.394   1.863
33800W        W 2218  14.681   1.355  13.491
33801W        W 2219  14.781  18.754   0.771
33802W        W 2220   8.183  34.598   2.368
33803W        W 2221  29.551  16.304  13.928
33804W        W 2222  10.822  34.459   2.835
33805W        W 2223  41.393  34.037   4.154
33806W        W 2224  38.442  38.917  14.394
33807W        W 2225  10.816   9.740   2.812
33808W        W 2226   6.711   8.168  11.921
33809W        W 2227  41.923  17.160  12.892
33810W        W 2228   4.895  43.818  12.872
33811W        W 2229   7.847  39.320  11.515
33812W        W 2230  15.115  37.854   2.788
33813W        W 2231  14.751  25.046   4.293
33814W        W 2232   3.954  31.968  13.483
33815W        W 2233  34.549  35.096   1.713
33816W        W 2234  37.520  41.995   0.305
33817W        W 2235  15.209  36.899  12.870
33818W        W 2236   4.320  43.885   2.753
33819W        W 2237   4.352  25.049  14.511
33820W        W 2238  44.944  42.823  11.987
33821W        W 2239  19.556  32.465   3.180
33822W        W 2240  41.354  11.753   3.750
33823W        W 2241  38.976  32.068  11.889
33824W        W 2242  19.736   6.380  10.990
33825W        W 2243  34.378  15.614   2.663
33826W        W 2244  17.152   3.854   0.897
33827W        W 2245  16.184  41.332  12.028
33828W        W 2246  39.940  18.176  11.488
33829W        W 2247   0.320  20.553   3.311
33830W        W 2248   5.338  30.006  13.909
33831W        W 2249  39.325   6.395  11.905
33832W        W 2250  32.628  43.864   0.906
33833W        W 2251  14.265  23.652  12.857
33834W        W 2252  27.602   4.786   3.195
33835W        W 2253  18.220  33.482   3.348
33836W        W 2254  26.535  44.409  13.477
33837W        W 2255  38.909  13.629   4.635
33838W        W 2256  29.137  14.663   0.935
33839W        W 2257   2.438  31.909   2.194
33840W        W 2258  33.381  21.656   3.794
33841W        W 2259   5.699  19.703  14.805
33842W        W 2260  26.673  34.578   2.859
33843W        W 2261   4.771  24.570   4.657
33844W        W 2262  12.831   4.745   4.685
33845W        W 2263  39.889   3.817  12.509
33846W        W 2264  21.071   0.878   5.170
33847W        W 2265   2.960  10.757   3.337
33848W        W 2266   6.265  43.386  11.589
33849W        W 2267   3.260  32.109   1.879
33850W        W 2268  20.679  14.104   3.377
33851W        W 2269  20.096  23.091   9.524
33852W        W 2270  33.001  19.587   2.737
33853W        W 2271  33.480  23.079  12.355
33854W        W 2272  10.177  12.681   0.318
33855W        W 2273  32.033   0.927  12.410
33856W        W 2274  21.162   9.722   3.797
33857W        W 2275  17.241  43.017   5.208
33858W        W 2276  42.798  13.802  11.402
33859W        W 2277  42.012  41.515  13.508
33860W        W 2278  28.513  21.232  14.805
33861W        W 2279  43.280   9.688  13.532
33862W        W 2280  21.744  21.688  13.969
33863W        W 2281  41.414   1.958  10.643
33864W        W 2282  12.692  24.586  11.051
33865W        W 2283   7.908  42.310  12.439
33866W        W 2284   7.361   4.292  12.353
33867W        W 2285  23.028   2.297  12.035
33868W        W 2286   4.406  25.050  12.565
33869W        W 2287  28.490   6.383  11.977
33870W        W 2288   7.323  23.158   4.338
33871W        W 2289  14.655  17.674   0.442
33872W        W 2290  26.008  44.415  10.904
33873W        W 2291  20.757  16.303   3.306
33874W        W 2292   0.808  27.099  10.024
33875W        W 2293  10.317  24.982  13.884
33876W        W 2294  35.502  16.799  12.518
33877W        W 2295   9.343  12.689  13.005
33878W        W 2296  42.330  12.815  10.895
33879W        W 2297  32.021  21.645  10.442
33880W        W 2298   6.865  36.035  11.458
33881W        W 2299   7.794  14.101  12.052
33882W        W 2300  41.314   3.372   3.223
33883W        W 2301  11.722   4.803  14.938
33884W        W 2302   2.824  26.632   3.634
33885W        W 2303  29.164  42.007   4.791
33886W        W 2304  15.772  10.159   5.120
33887W        W 2305   5.808   4.392  13.436
33888W        W 2306   7.717  24.609   3.704
33889W        W 2307   2.254   8.828   0.931
33890W        W 2308   7.696  36.464   3.731
33891W        W 2309  34.078  12.810   0.830
33892W        W 2310  10.783  10.796  12.888
33893W        W 2311  42.849   3.289   2.824
33894W        W 2312  30.009  29.953  14.435
33895W        W 2313  32.497  39.491  12.574
33896W        W 2314  28.177  19.597   2.677
33897W        W 2315  20.034  32.536  10.548
33898W        W 2316  39.874  33.505   3.203
33899W        W 2317  20.260  30.616   3.646
33900W        W 2318  17.188  29.470  14.883
33901W        W 2319  26.467  22.741   3.369
33902W        W 2320  18.080   9.385  11.861
33903W        W 2321  41.879  22.029  11.409
33904W        W 2322   0.786  43.799  11.511
33905W        W 2323  12.824  22.569   3.705
33906W        W 2324  37.575   4.359   1.397
33907W        W 2325  29.167   5.312   2.181
33908W        W 2326  32.985   3.833   0.826
33909W        W 2327   7.203  27.137   1.743
33910W        W 2328   4.292   4.723   1.713
33911W        W 2329  14.249  25.491  14.492
33912W        W 2330  42.870  44.972  11.011
33913W        W 2331  33.047  37.432   2.226
33914W        W 2332  32.957  10.225   2.414
33915W        W 2333  40.937  43.773  14.428
33916W        W 2334  43.854  12.636  12.546
33917W        W 2335  38.353  17.079  14.408
33918W        W 2336   0.886  13.674  10.520
33919W        W 2337   1.916  12.350  14.466
33920W        W 2338  21.580  28.571   1.753
33921W        W 2339   5.782  19.109  12.928
33922W        W 2340   7.301  27.539  13.794
33923W        W 2341  28.152   0.415   1.905
33924W        W 2342  16.172  24.164   4.711
33925W        W 2343  15.330  24.075  10.454
33926W        W 2344  20.569  15.693   1.386
33927W        W 2345  44.337  12.630  13.813
33928W        W 2346  23.187   2.900  12.859
33929W        W 2347  20.031  19.693  13.459
33930W        W 2348  40.895  24.651   2.732
33931W        W 2349  18.236  39.472  12.853
33932W        W 2350   3.763  33.435  13.364
33933W        W 2351  27.558   6.371  12.916
33934W        W 2352  44.343  20.097  11.532
33935W        W 2353  13.758  43.998   3.194
33936W        W 2354  35.072  26.091   0.754
33937W        W 2355  42.298  13.313  14.359
33938W        W 2356  28.089  24.693   3.359
33939W        W 2357   1.341  31.576  10.979
33940W        W 2358  20.715  30.962  13.956
33941W        W 2359  17.214  24.570  14.850
33942W        W 2360  10.652  36.409   2.773
33943W        W 2361  33.407  22.622  11.539
33944W        W 2362  34.113  30.457  14.308
33945W        W 2363  28.598  15.811   1.425
33946W        W 2364  12.639   0.316   4.166
33947W        W 2365  34.476  29.087  13.980
33948W        W 2366   0.820  15.148   2.899
33949W        W 2367  24.231  40.464   5.731
33950W        W 2368  25.165   8.174   3.725
33951W        W 2369  19.773  34.117  11.009
33952W        W 2370  34.016   2.339   3.192
33953W        W 2371  41.316  40.037  10.919
33954W        W 2372  12.244   8.196   1.278
33955W        W 2373  21.220   9.836   0.795
33956W        W 2374   0.299   8.863   4.281
33957W        W 2375  18.231  38.956   0.433
33958W        W 2376  44.431  39.504   5.269
33959W        W 2377  41.382  10.806  10.476
33960W        W 2378   4.859  33.031  12.374
33961W        W 2379  21.068  18.256   3.861
33962W        W 2380  40.318  14.593  11.611
33963W        W 2381   3.229  36.848   2.255
33964W        W 2382   1.344  33.993  13.891
33965W        W 2383  23.010   1.300   3.304
33966W        W 2384  18.115  36.933   3.302
33967W        W 2385  18.657  40.535  12.368
33968W        W 2386  25.099  19.689  12.060
33969W        W 2387   7.910  13.218  12.416
33970W        W 2388  11.839  29.647  11.601
33971W        W 2389  44.845  24.531  10.632
33972W        W 2390   6.299  36.877  13.994
33973W        W 2391  24.494  24.176   0.956
33974W        W 2392   9.784  31.526   3.306
33975W        W 2393  35.369   3.282   3.728
33976W        W 2394   9.315  12.792  11.442
33977W        W 2395  26.195  40.822   2.852
33978W        W 2396  21.747   6.274   4.330
33979W        W 2397   5.205  14.266   2.767
33980W        W 2398  21.069  32.936  12.490
33981W        W 2399  16.794  41.403   1.746
33982W        W 2400  42.485   3.302   1.411
33983W        W 2401   7.723  34.605  14.376
33984W        W 2402  27.621  28.152   1.748
33985W        W 2403  19.171  40.391   1.758
33986W        W 2404  18.780  35.577   3.322
33987W        W 2405  42.291  25.714   0.794
33988W        W 2406  27.476  22.151  12.390
33989W        W 2407  44.006  23.014  11.059
33990W        W 2408  25.081  24.666  12.459
33991W        W 2409  19.617   0.351   2.390
33992W        W 2410  16.209  23.638   1.288
33993W        W 2411  21.110  18.764   4.742
33994W        W 2412  12.267  40.464   4.337
33995W        W 2413  22.235  37.041   2.297
33996W        W 2414   8.345  36.526   1.261
33997W        W 2415   5.410  26.175   3.855
33998W        W 2416  44.471  38.916  11.408
33999W        W 2417  41.513   6.742   4.342
34000W        W 2418  14.333   5.842  14.493
34001W        W 2419  36.362  25.962  13.510
34002W        W 2420  11.638  42.865   1.892
34003W        W 2421  33.581  29.521  10.967
34004W        W 2422  28.510  14.831   0.442
34005W        W 2423   1.970  44.485  10.132
34006W        W 2424  31.547  40.307  13.441
34007W        W 2425  10.210  44.393   0.905
34008W        W 2426  35.110  37.876   1.912
34009W        W 2427  11.209  27.955   1.846
34010W        W 2428  13.106  15.199  13.547
34011W        W 2429   2.806   2.353  13.896
34012W        W 2430   2.932  25.681   2.217
34013W        W 2431  21.681  42.865   5.315
34014W        W 2432   6.183  30.497  14.280
34015W        W 2433  44.879  32.062  13.308
34016W        W 2434  42.428  43.777   4.219
34017W        W 2435  20.248  25.661   5.633
34018W        W 2436  23.702  15.139   0.358
34019W        W 2437  29.020  20.272   0.474
34020W        W 2438  12.202  18.200   1.274
34021W        W 2439  10.652  29.447   0.406
34022W        W 2440  22.140  24.204   1.307
34023W        W 2441   4.346  26.637  12.054
34024W        W 2442  14.829  26.609  10.144
34025W        W 2443  29.457  34.530  10.596
34026W        W 2444  40.989  40.904   1.730
34027W        W 2445  34.108  28.673   2.808
34028W        W 2446  41.489   3.935  13.337
34029W        W 2447  28.591   3.443  13.402
34030W        W 2448   8.736  14.290   0.952
34031W        W 2449  27.971  27.532  10.558
34032W        W 2450  32.901  39.874   4.703
34033W        W 2451   3.380   8.687  13.863
34034W        W 2452  17.786  30.555   2.292
34035W        W 2453  24.096   4.218  12.854
34036W        W 2454   4.836  26.578   5.097
34037W        W 2455  11.789   9.780   1.372
34038W        W 2456   9.310  35.471  14.363
34039W        W 2457   0.466  39.057  13.464
34040W        W 2458   2.436  10.233   3.292
34041W        W 2459  12.673   1.268  12.974
34042W        W 2460  26.162  12.170  12.948
34043W        W 2461   1.915  10.839  13.474
34044W        W 2462  29.989  39.856   0.941
34045W        W 2463  37.429  20.074   1.315
34046W        W 2464  19.601  16.577  11.490
34047W        W 2465   2.276  18.081   0.915
34048W        W 2466   4.355  42.906  14.822
34049W        W 2467  11.293  15.184  13.445
34050W        W 2468  14.264   3.809  12.392
34051W        W 2469  35.382  13.329   2.702
34052W        W 2470  36.584  38.004  11.385
34053W        W 2471  13.846  39.543   4.740
34054W        W 2472  20.117  10.223   3.757
34055W        W 2473  41.339  40.347  10.620
34056W        W 2474  21.107  17.274  13.969
34057W        W 2475   4.848  43.339  10.405
34058W        W 2476  27.528  29.449  14.783
34059W        W 2477  24.037  38.976  13.032
34060W        W 2478   4.234  16.586   1.406
34061W        W 2479  32.062   0.294  11.538
34062W        W 2480  10.741   3.400   5.171
34063W        W 2481   7.725   5.803   2.218
34064W        W 2482  41.489  27.959  12.405
34065W        W 2483  42.510  25.116  14.398
34066W        W 2484  32.933  17.159  11.890
34067W        W 2485  18.677  22.148  13.460
34068W        W 2486   4.734  44.396   3.305
34069W        W 2487  39.882  44.924   4.320
34070W        W 2488  24.985  29.569  14.782
34071W        W 2489  27.669  11.360   0.904
34072W        W 2490   4.398  14.153  14.359
34073W        W 2491  33.914  32.626   1.292
34074W        W 2492  13.285  29.645  13.446
34075W        W 2493   1.478  37.471  12.568
34076W        W 2494  44.289  13.118   3.319
34077W        W 2495  39.877  26.175   0.966
34078W        W 2496  16.628  13.200   3.658
34079W        W 2497  17.090  37.938   2.313
34080W        W 2498   5.291   5.220   1.871
34081W        W 2499  28.559   9.833   0.392
34082W        W 2500  31.121  41.954   1.861
34083W        W 2501  22.725  33.963  11.944
34084W        W 2502  30.634   6.425  10.467
34085W        W 2503  11.763  28.450   0.776
34086W        W 2504  10.203  26.591  14.952
34087W        W 2505   6.225  30.098   2.297
34088W        W 2506  15.224  34.587   2.200
34089W        W 2507  39.879  17.770  11.574
34090W        W 2508  31.440  43.454  12.030
34091W        W 2509   9.645  10.269   4.278
34092W        W 2510  35.413   4.365   1.332
34093W        W 2511  35.964  40.451   3.804
34094W        W 2512  20.641  29.508  11.521
34095W        W 2513  23.546  16.733   4.829
34096W        W 2514  27.016  13.264   2.289
34097W        W 2515  10.655  40.003   0.875
34098W        W 2516  38.409  37.339  10.522
34099W        W 2517  34.955  19.052  11.090
34100W        W 2518  33.969   9.254   1.725
34101W        W 2519   7.337  18.257  11.378
34102W        W 2520  11.719  13.247   4.772
34103W        W 2521  42.830  17.650   4.266
34104W        W 2522  24.998  25.129   4.738
34105W        W 2523  22.717  10.193  10.905
34106W        W 2524  21.733  35.452   3.658
34107W        W 2525   6.261  18.150   1.355
34108W        W 2526  40.394  32.465  12.887
34109W        W 2527  31.919  41.953   4.310
34110W        W 2528  14.620   1.758  14.332
34111W        W 2529  16.094  40.929  13.869
34112W        W 2530  17.277  22.142   3.192
34113W        W 2531  36.056  36.974  11.127
34114W        W 2532  27.144  29.670   3.764
34115W        W 2533  24.151  35.076  11.037
34116W        W 2534  36.373  40.431  13.365
34117W        W 2535  38.543   7.735  14.385
34118W        W 2536  24.678  13.137   0.827
34119W        W 2537   8.819  39.445   4.761
34120W        W 2538  19.776  14.696  14.767
34121W        W 2539  11.668  30.165   0.291
34122W        W 2540  41.395  18.638  10.636
34123W        W 2541  38.073  16.581   3.383
34124W        W 2542  25.966  33.987  11.432
34125W        W 2543  28.490  34.582  13.491
34126W        W 2544  35.579  42.364   4.244
34127W        W 2545   5.771  16.596   1.305
34128W        W 2546  39.986   3.925   2.344
34129W        W 2547   4.377  35.576   1.376
34130W        W 2548   2.439  13.179  14.480
34131W        W 2549  18.082  11.707  14.903
34132W        W 2550  39.506  26.698  11.493
34133W        W 2551  28.477   3.867  10.529
34134W        W 2552   5.418  34.924   1.229
34135W        W 2553  21.116   0.419   1.812
34136W        W 2554  40.890  40.501   4.796
34137W        W 2555  34.595  29.655   4.687
34138W        W 2556  44.792   0.896   4.829
34139W        W 2557   5.216  38.545   3.188
34140W        W 2558  22.579   8.806  14.276
34141W        W 2559  33.942  18.177  14.859
34142W        W 2560  25.547  10.639   4.701
34143W        W 2561  32.399   2.890   4.635
34144W        W 2562  42.412   2.862  12.419
34145W        W 2563  26.169  14.724  13.863
34146W        W 2564  35.546  42.959  11.932
34147W        W 2565  37.023  33.478   2.876
34148W        W 2566  30.948  36.897  13.310
34149W        W 2567  15.627   7.352   4.203
34150W        W 2568  24.690  28.031   0.312
34151W        W 2569  33.030  23.203   4.270
34152W        W 2570  18.199  37.519   2.823
34153W        W 2571  26.646  25.167   2.853
34154W        W 2572  35.601  41.518  12.969
34155W        W 2573  18.218  10.363   2.364
34156W        W 2574  37.853  44.848   0.375
34157W        W 2575  27.533   8.379   3.724
34158W        W 2576  24.556  11.283  13.391
34159W        W 2577   4.229  16.294   3.329
34160W        W 2578  20.037  41.518  11.091
34161W        W 2579  33.415   3.301  14.923
34162W        W 2580  40.848  38.457   3.387
34163W        W 2581  28.072   2.375  12.888
34164W        W 2582  37.479   0.864   3.330
34165W        W 2583  17.758  41.001   2.738
34166W        W 2584  26.153  24.585  13.362
34167W        W 2585  14.188  27.661   0.912
34168W        W 2586   6.787  30.649  10.576
34169W        W 2587  12.769  38.961   3.310
34170W        W 2588  34.914   0.844  10.548
34171W        W 2589  32.607  33.385   2.836
34172W        W 2590  11.264  14.717  11.884
34173W        W 2591  14.155  44.456   0.426
34174W        W 2592  16.781  44.375   3.178
34175W        W 2593  11.747   1.283  13.942
34176W        W 2594   8.389  11.687   2.675
34177W        W 2595  12.705  11.295  13.386
34178W        W 2596   8.818   6.681  13.921
34179W        W 2597  25.169   5.852  11.977
34180W        W 2598  41.023  43.892  11.951
34181W        W 2599  43.853  28.970  12.065
34182W        W 2600  35.873  13.691  11.581
34183W        W 2601  33.906  29.001  12.055
34184W        W 2602   5.762  42.819  13.965
34185W        W 2603  34.577  10.163  14.896
34186W        W 2604  31.041   5.261   0.420
34187W        W 2605  19.225   9.367  12.893
34188W        W 2606  11.758  23.570  14.029
34189W        W 2607  22.546  36.905  11.114
34190W        W 2608  28.121  10.878  13.052
34191W        W 2609   8.251  26.148  13.872
34192W        W 2610  31.595  40.380  11.517
34193W        W 2611   5.304  42.936   2.412
34194W        W 2612  12.778  16.160   2.717
34195W        W 2613  31.583  11.654  12.362
34196W        W 2614  10.258  10.858   0.746
34197W        W 2615  32.896   6.723  10.523
34198W        W 2616  44.308  13.707  12.033
34199W        W 2617  30.443  31.902  10.952
34200W        W 2618   9.831   8.773   1.447
34201W        W 2619   5.391  27.522  14.996
34202W        W 2620  37.505  41.519  11.951
34203W        W 2621  16.116  11.213  13.016
34204W        W 2622  39.025  32.447   0.447
34205W        W 2623   9.672  34.933  13.475
34206W        W 2624  20.635   6.361   2.359
34207W        W 2625   1.322  36.526   0.277
34208W        W 2626  40.867  15.777   0.877
34209W        W 2627  19.102  30.937   4.694
34210W        W 2628  22.614   8.883   3.706
34211W        W 2629  38.041   9.338  13.429
34212W        W 2630   2.765  33.874  11.873
34213W        W 2631  19.613  37.018   2.313
34214W        W 2632  27.553  35.465  10.410
34215W        W 2633  29.062  20.139   4.744
34216W        W 2634  41.972  41.015   4.626
34217W        W 2635  30.158  34.040  10.509
34218W        W 2636  23.076  30.642  11.497
34219W        W 2637  31.031  14.673   3.698
34220W        W 2638  11.630  12.734  14.864
34221W        W 2639   3.234  25.169  12.435
34222W        W 2640  23.596  16.172  12.090
34223W        W 2641  41.307  38.336   0.245
34224W        W 2642  43.773  32.954  11.495
34225W        W 2643  43.410   7.774  11.928
34226W        W 2644  15.620  42.927   4.796
34227W        W 2645  23.026  43.287  12.486
34228W        W 2646   9.738   1.359   4.649
34229W        W 2647  13.192   1.816   1.809
34230W        W 2648   6.693   6.330   2.307
34231W        W 2649   1.399  11.864   2.896
34232W        W 2650  15.096  25.184   3.147
34233W        W 2651  32.019  31.601  11.434
34234W        W 2652  23.669  35.924  12.052
34235W        W 2653  23.141  28.167  14.357
34236W        W 2654  43.963  28.606   0.860
34237W        W 2655   5.346   1.808   4.739
34238W        W 2656   2.929  40.455  11.408
34239W        W 2657  23.056  23.101  12.922
34240W        W 2658  44.989  13.654  13.310
34241W        W 2659   3.920  41.988   4.263
34242W        W 2660  40.445  27.620  12.987
34243W        W 2661   6.837  16.250   4.815
34244W        W 2662  22.617   7.354   1.753
34245W        W 2663  18.072  25.502  12.007
34246W        W 2664  30.457  22.168  10.971
34247W        W 2665  35.024  38.986   1.822
34248W        W 2666   5.882   4.763  13.936
34249W        W 2667  38.901  15.689   0.874
34250W        W 2668  30.084   4.863   1.916
34251W        W 2669  13.676  15.093   0.397
34252W        W 2670  10.262  44.842   4.734
34253W        W 2671   7.784  20.061   3.380
34254W        W 2672  39.415  16.285   3.662
34255W        W 2673  34.016  31.983  10.968
34256W        W 2674   5.227  39.559  11.008
34257W        W 2675  31.123   0.420  11.379
34258W        W 2676  19.248  29.001   1.761
34259W        W 2677   7.215  28.534  10.554
34260W        W 2678  40.905   8.811  11.461
34261W        W 2679  38.839  29.514  10.049
34262W        W 2680  42.795  29.658  14.456
34263W        W 2681  18.154   8.197   3.656
34264W        W 2682  11.263  19.099  13.403
34265W        W 2683  34.105  41.455   4.694
34266W        W 2684  44.792  30.541   3.226
34267W        W 2685  17.591  30.599   4.725
34268W        W 2686  17.066  38.487   3.351
34269W        W 2687  15.231  32.891  14.815
34270W        W 2688  30.114  37.854   0.888
34271W        W 2689  22.250  23.627   0.810
34272W        W 2690  44.843  18.109  12.048
34273W        W 2691  42.775  31.029  13.443
34274W        W 2692  23.560  10.310  12.844
34275W        W 2693   3.829  36.502   2.685
34276W        W 2694  43.002   8.700   0.431
34277W        W 2695  28.989  27.533  13.379
34278W        W 2696   9.365  23.015   4.759
34279W        W 2697  14.335  29.962   1.832
34280W        W 2698   3.317  20.177   1.760
34281W        W 2699  17.595  19.039   3.177
34282W        W 2700  20.086  10.202  12.503
34283W        W 2701  42.786   9.187   3.377
34284W        W 2702  33.478  37.549   5.150
34285W        W 2703   7.725  21.668  10.487
34286W        W 2704  27.451   7.732  11.593
34287W        W 2705  34.944  16.737   4.315
34288W        W 2706   8.308  43.827   2.830
34289W        W 2707  37.410  14.610  13.435
34290W        W 2708  12.631   3.232  13.005
34291W        W 2709  27.552  36.937  11.490
34292W        W 2710  17.572  37.042  10.558
34293W        W 2711   6.738   3.356  14.825
34294W        W 2712  25.612   4.939  10.965
34295W        W 2713  38.066  30.009  10.932
34296W        W 2714  31.054   0.341   2.389
34297W        W 2715  33.600  44.407  10.031
34298W        W 2716   5.694  30.430   4.153
34299W        W 2717   9.290  27.003   2.227
34300W        W 2718  29.122  32.903  11.502
34301W        W 2719   3.860   4.391   3.821
34302W        W 2720   3.360  37.380   1.788
34303W        W 2721  18.726  30.953  12.947
34304W        W 2722  29.963   0.954  13.329
34305W        W 2723  26.952  42.850  10.611
34306W        W 2724   8.832  39.545   2.192
34307W        W 2725   5.809  31.606   0.462
34308W        W 2726  27.684  25.031  11.102
34309W        W 2727  26.196  15.683   0.297
34310W        W 2728  37.881  40.414  11.930
34311W        W 2729  38.873  33.556   1.805
34312W        W 2730  41.969  25.579   0.849
34313W        W 2731  44.499   1.366  13.007
34314W        W 2732  37.432  30.428   1.702
34315W        W 2733  17.723   7.253  14.861
34316W        W 2734  27.536  28.626   0.388
34317W        W 2735   2.744  27.556   4.242
34318W        W 2736  22.044  21.548   1.367
34319W        W 2737  43.470   8.334  12.064
34320W        W 2738  16.680  23.568   2.831
34321W        W 2739  14.172   6.207   0.857
34322W        W 2740   0.813  29.514  12.446
34323W        W 2741  27.673  34.609  13.023
34324W        W 2742  18.225  39.834   1.432
34325W        W 2743  43.292   2.808  12.397
34326W        W 2744  24.168  28.054   4.719
34327W        W 2745   5.270   6.861  11.521
34328W        W 2746   1.946  28.145  14.775
34329W        W 2747  18.119  42.295  11.963
34330W        W 2748  17.781   5.818   4.318
34331W        W 2749  38.056  35.029  10.519
34332W        W 2750  12.768  26.670   5.196
34333W        W 2751   7.882  26.476   2.376
34334W        W 2752  18.680   0.369   3.684
34335W        W 2753  13.252   3.727   4.126
34336W        W 2754  16.129  15.676   4.702
34337W        W 2755  22.040  14.173   0.847
34338W        W 2756  25.532  31.082   2.406
34339W        W 2757  37.869  16.783  13.353
34340W        W 2758  19.751  38.028  11.432
34341W        W 2759  31.902  27.536  12.347
34342W        W 2760   4.411  25.709  13.931
34343W        W 2761  32.023  29.571  11.089
34344W        W 2762  36.430  21.257   2.787
34345W        W 2763   6.352   8.729  11.464
34346W        W 2764  21.144  30.027  12.870
34347W        W 2765  11.787   1.803  14.943
34348W        W 2766  39.816  15.606  13.839
34349W        W 2767   2.917  18.254  12.029
34350W        W 2768   2.768   5.329  12.357
34351W        W 2769   4.742  31.902  10.630
34352W        W 2770  32.614  11.715   0.928
34353W        W 2771  21.638  13.253   4.753
34354W        W 2772  22.080  38.534   5.254
34355W        W 2773  44.916  36.864   4.695
34356W        W 2774  38.996  34.492   4.619
34357W        W 2775  39.882  20.135  11.603
34358W        W 2776  37.455  13.612  13.022
34359W        W 2777  17.168   5.435   0.428
34360W        W 2778  39.825   6.374   0.940
34361W        W 2779  27.612  42.317  13.999
34362W        W 2780  19.143  23.611  11.890
34363W        W 2781  30.930  21.544  14.898
34364W        W 2782  35.876   7.720   1.362
34365W        W 2783  12.204  10.326  12.976
34366W        W 2784  29.935  30.077  10.942
34367W        W 2785  36.061   8.722   4.814
34368W        W 2786  13.630  27.535   3.729
34369W        W 2787  11.330  23.733   2.736
34370W        W 2788  12.816   7.317   4.774
34371W        W 2789   4.902  29.468   3.835
34372W        W 2790  44.284  27.537   9.974
34373W        W 2791   7.230  21.256   5.112
34374W        W 2792  23.989  31.115   3.305
34375W        W 2793  43.951   6.827  10.457
34376W        W 2794  33.618  43.928  14.853
34377W        W 2795  38.364  19.577  13.918
34378W        W 2796  24.666  24.139  11.988
34379W        W 2797  11.751  15.124   1.374
34380W        W 2798  20.111  35.079   0.448
34381W        W 2799   9.242  33.525  14.905
34382W        W 2800   5.712  30.015  12.516
34383W        W 2801  25.031  24.124  10.458
34384W        W 2802  31.084  39.838  11.951
34385W        W 2803  22.525  32.493   1.303
34386W        W 2804  40.537  10.818   3.236
34387W        W 2805  31.080  21.747  13.873
34388W        W 2806   2.809  40.924  13.374
34389W        W 2807   5.429  39.827   4.250
34390W        W 2808  19.102  17.110   0.399
34391W        W 2809   0.460   8.706  10.629
34392W        W 2810  37.900  14.748  13.804
34393W        W 2811  13.303  11.207  14.809
34394W        W 2812   4.395  12.247   4.201
34395W        W 2813  14.706  21.242  12.021
34396W        W 2814  16.229  15.669   3.786
34397W        W 2815  34.966  28.484   2.370
34398W        W 2816  18.615  19.226  10.407
34399W        W 2817  25.182  42.900   0.766
34400W        W 2818  38.009  12.134   4.268
34401W        W 2819  28.596   0.351  12.992
34402W        W 2820  27.648  15.247  12.481
34403W        W 2821   9.196  23.687   0.464
34404W        W 2822  10.756  39.468   3.369
34405W        W 2823  14.140  35.902   4.223
34406W        W 2824  33.892  37.887   1.842
34407W        W 2825  24.703  39.553   2.665
34408W        W 2826  41.877  32.477  13.869
34409W        W 2827  20.086  27.096   5.802
34410W        W 2828   4.325  28.174   1.287
34411W        W 2829   0.348  33.447  14.848
34412W        W 2830  42.527   6.416  12.922
34413W        W 2831  44.009   8.235  14.320
34414W        W 2832  13.623  35.940  10.966
34415W        W 2833  33.031   3.740  13.939
34416W        W 2834  39.545  18.591  14.796
34417W        W 2835  31.085   6.375  11.879
34418W        W 2836  38.848  26.479   2.214
34419W        W 2837  16.750  29.092   4.274
34420W        W 2838  37.050  16.279   2.672
34421W        W 2839  19.541   4.411   0.816
34422W        W 2840  11.172  32.015   1.248
34423W        W 2841  15.260  27.009  14.411
34424W        W 2842  16.115  41.885   0.392
34425W        W 2843  17.737   9.717  11.991
34426W        W 2844  20.583  38.500   1.407
34427W        W 2845   0.988  44.766   3.646
34428W        W 2846  44.409   1.260  13.517
34429W        W 2847  33.916  11.828   3.194
34430W        W 2848   1.779   7.895  10.992
34431W        W 2849  13.213  44.859  14.438
34432W        W 2850   4.246  24.713   0.915
34433W        W 2851  39.445  24.545   1.781
34434W        W 2852   2.752  41.356   3.747
34435W        W 2853  38.354   9.868   3.671
34436W        W 2854  17.270  23.228  13.026
34437W        W 2855   2.458  27.963  13.368
34438W        W 2856  16.751  20.090  10.922
34439W        W 2857  41.889  19.254   1.405
34440W        W 2858  31.536  13.312   0.888
34441W        W 2859  41.917  37.489  10.415
34442W        W 2860  37.885  37.519   0.267
34443W        W 2861  11.653  18.157   3.296
34444W        W 2862   7.287  28.115  14.858
34445W        W 2863  10.353  37.531  13.353
34446W        W 2864  32.890  22.034  13.333
34447W        W 2865  10.374  27.553   3.728
34448W        W 2866   1.911  11.740   0.953
34449W        W 2867  41.447  21.669  12.088
34450W        W 2868  27.076   3.755   4.115
34451W        W 2869   0.745   0.408   2.244
34452W        W 2870  44.769   3.341  11.984
34453W        W 2871  39.051  22.692  11.530
34454W        W 2872  12.174  40.420   1.213
34455W        W 2873  44.465  43.917  14.363
34456W        W 2874  15.117  42.316   2.328
34457W        W 2875  15.774   2.318  12.867
34458W        W 2876  44.285   2.365  11.004
34459W        W 2877  25.586  42.397  13.873
34460W        W 2878  25.133  16.260   4.305
34461W        W 2879  39.024  24.722   1.266
34462W        W 2880  40.909  24.037   4.658
34463W        W 2881  10.846   8.356  11.974
34464W        W 2882  25.024   9.858  12.006
34465W        W 2883  35.066  15.663   0.453
34466W        W 2884  40.919  26.549  11.905
34467W        W 2885  39.433   4.749   1.771
34468W        W 2886  38.530   9.757   2.202
34469W        W 2887  38.352  21.715  10.950
34470W        W 2888  13.235  44.388   1.280
34471W        W 2889   4.225  18.748   4.120
34472W        W 2890  11.360  41.965   1.402
34473W        W 2891   5.838  29.520  11.000
34474W        W 2892  21.560   1.762  13.821
34475W        W 2893  12.661  36.974  10.638
34476W        W 2894  43.422  10.841   1.376
34477W        W 2895  25.023  24.678   4.152
34478W        W 2896   3.254  19.652  13.999
34479W        W 2897   7.720  15.115  12.410
34480W        W 2898   4.860  10.848   2.376
34481W        W 2899  31.104  32.002  11.045
34482W        W 2900  28.988  33.480   1.870
34483W        W 2901   3.796   5.381   3.354
34484W        W 2902   8.161  12.269   4.726
34485W        W 2903  43.958  36.021   2.671
34486W        W 2904   4.722  28.935   3.251
34487W        W 2905  24.490  25.030   3.190
34488W        W 2906  16.288  41.003   3.729
34489W        W 2907  16.234  44.362   4.201
34490W        W 2908  36.432  20.738  10.640
34491W        W 2909  14.687  31.899  13.459
34492W        W 2910   1.428   6.851   3.377
34493W        W 2911  27.185  12.853  10.476
34494W        W 2912  18.248  11.666  11.997
34495W        W 2913  10.801  23.639   0.469
34496W        W 2914   4.723  20.591   0.457
34497W        W 2915  35.076  27.473   4.176
34498W        W 2916  28.636   1.770  14.994
34499W        W 2917  23.695  13.143   1.698
34500W        W 2918  24.554  39.943   4.190
34501W        W 2919  13.308  21.183   4.704
34502W        W 2920  30.930  11.281   4.247
34503W        W 2921  39.518   4.790  10.453
34504W        W 2922  12.137   0.466  13.795
34505W        W 2923  20.581  34.535  13.526
34506W        W 2924  35.481  21.649  14.408
34507W        W 2925  20.642  21.543  13.325
34508W        W 2926   8.373  39.849   1.417
34509W        W 2927  16.780  34.981   1.810
34510W        W 2928  11.136  28.931   2.242
34511W        W 2929  39.009  25.215   5.161
34512W        W 2930  22.544   3.372  13.521
34513W        W 2931  43.824  23.585  10.890
34514W        W 2932  30.992  26.511   4.283
34515W        W 2933  25.635  37.451  12.032
34516W        W 2934  11.136  17.706   4.294
34517W        W 2935  29.668  33.398   2.370
34518W        W 2936  17.121  41.301   1.899
34519W        W 2937  26.567   0.270  12.542
34520W        W 2938  39.844   2.935  10.440
34521W        W 2939  35.480  15.672  11.039
34522W        W 2940  43.830  14.725   4.155
34523W        W 2941  28.116  26.538  14.396
34524W        W 2942  44.394   3.365   3.298
34525W        W 2943  34.607  11.192  14.803
34526W        W 2944  25.492   9.160   2.748
34527W        W 2945  44.364  36.062   0.463
34528W        W 2946  33.094   5.331   1.386
34529W        W 2947  38.535  32.098  14.833
34530W        W 2948   5.280  34.407   0.780
34531W        W 2949   0.955  33.555   3.358
34532W        W 2950   7.365   8.719  14.794
34533W        W 2951  40.838  15.193  11.908
34534W        W 2952  16.142  44.401   4.738
34535W        W 2953  22.015   5.700   3.684
34536W        W 2954   3.295  33.125  10.961
34537W        W 2955  10.275  12.241   1.883
34538W        W 2956   5.304  43.288   4.682
34539W        W 2957  44.929  18.685  10.465
34540W        W 2958  44.495  10.307   4.146
34541W        W 2959  13.716  14.298   4.788
34542W        W 2960  38.499  25.555  11.065
34543W        W 2961  32.529  31.954   1.841
34544W        W 2962  32.965  11.623   4.730
34545W        W 2963   8.243  23.498   3.342
34546W        W 2964   1.970  37.939  12.469
34547W        W 2965  24.007  40.353  10.916
34548W        W 2966  31.504  44.863  14.916
34549W        W 2967  40.983  23.094   2.785
34550W        W 2968   0.437  33.924  11.511
34551W        W 2969  22.619  28.633   2.264
34552W        W 2970  16.725  12.635  11.882
34553W        W 2971  21.205  38.435  10.930
34554W        W 2972  30.556  21.074   2.253
34555W        W 2973  37.921  35.051  11.469
34556W        W 2974  37.069  40.049   1.256
34557W        W 2975  33.917  44.805  12.962
34558W        W 2976  14.617  12.319  13.853
34559W        W 2977  11.838  34.903  13.539
34560W        W 2978  36.390  21.185  14.937
34561W        W 2979  18.124   6.862   0.304
34562W        W 2980  38.370  20.584  12.439
34563W        W 2981  25.068  31.612   4.350
34564W        W 2982  20.744  19.204  14.312
34565W        W 2983   7.404  19.042   2.755
34566W        W 2984  14.747  23.046  10.441
34567W        W 2985  20.666   7.259  14.910
34568W        W 2986  17.663  25.161  11.519
34569W        W 2987   3.237  39.325   1.442
34570W        W 2988  15.302  17.619   1.788
34571W        W 2989  11.372   0.841   3.178
34572W        W 2990  39.402  35.547  13.001
34573W        W 2991   9.651  42.495   0.414
34574W        W 2992  32.971  13.807  12.965
34575W        W 2993  29.667  32.001  10.629
34576W        W 2994  11.789  13.158   3.183
34577W        W 2995  41.306  27.644  14.822
34578W        W 2996   2.754  44.356   3.687
34579W        W 2997   6.340   7.855   1.894
34580W        W 2998  26.965  19.745  11.863
34581W        W 2999   4.788  18.748  14.479
34582W        W 3000   7.754  33.421  13.543
34583W        W 3001  14.231  13.270  14.783
34584W        W 3002   5.397   4.384  13.395
34585W        W 3003  11.698  18.606  14.440
34586W        W 3004  27.461  22.557  10.567
34587W        W 3005  23.613  19.118  14.402
34588W        W 3006   5.820   0.804   3.635
34589W        W 3007  25.571  22.048  14.976
34590W        W 3008  33.456  30.479   3.372
34591W        W 3009  35.085  32.961  14.373
34592W        W 3010  18.143  13.311   2.394
34593W        W 3011   6.384  44.281   0.364
34594W        W 3012   9.651  16.086   1.285
34595W        W 3013  15.718   3.913   3.796
34596W        W 3014   9.781  26.647  14.451
34597W        W 3015   8.364  28.088   4.623
34598W        W 3016  22.664   5.305  13.490
34599W        W 3017  28.032  31.555   0.274
34600W        W 3018  32.404  36.067  14.817
34601W        W 3019  39.042  24.486   3.724
34602W        W 3020   1.360  27.068  13.004
34603W        W 3021  20.565  41.355  10.408
34604W        W 3022  10.851   7.285   2.888
34605W        W 3023  39.540  26.554  13.313
34606W        W 3024   3.842   0.810  13.825
34607W        W 3025  15.261  12.173   1.373
34608W        W 3026  39.363  33.613   2.811
34609W        W 3027  36.409  28.565  12.078
34610W        W 3028   6.208  15.175  11.451
34611W        W 3029  38.971  37.495  12.548
34612W        W 3030   0.774  41.905  12.487
34613W        W 3031  33.977  43.009  13.953
34614W        W 3032  19.552  13.169  11.383
34615W        W 3033  43.319   2.931   1.862
34616W        W 3034   7.328  32.886  13.814
34617W        W 3035  28.152  23.560   1.808
34618W        W 3036   8.748  29.103   1.222
34619W        W 3037  28.037  27.616  13.498
34620W        W 3038  10.209  14.773   0.944
34621W        W 3039   2.730  11.795   2.246
34622W        W 3040  43.447  31.647  10.435
34623W        W 3041  16.596  34.096   0.339
34624W        W 3042  34.415  30.469   3.683
34625W        W 3043  17.721  25.199  12.508
34626W        W 3044  25.208  15.801   5.145
34627W        W 3045   2.294  28.462  12.917
34628W        W 3046  16.577  24.580   1.427
34629W        W 3047  25.122  42.349  10.889
34630W        W 3048  18.254   6.244  13.487
34631W        W 3049  37.874  31.962   2.849
34632W        W 3050  22.633  18.121   2.323
34633W        W 3051  38.434  10.226  13.348
34634W        W 3052  34.612   7.253  14.888
34635W        W 3053  37.479  22.525  11.014
34636W        W 3054  26.488  28.060  12.987
34637W        W 3055  16.617   2.748  14.938
34638W        W 3056   6.791  29.665   2.763
34639W        W 3057  36.014   7.832   2.777
34640W        W 3058  37.870   7.860   1.832
34641W        W 3059   6.891  30.517  13.021
34642W        W 3060   1.904  19.046  10.601
34643W        W 3061  32.898  14.173   2.743
34644W        W 3062  24.184  37.428  14.816
34645W        W 3063  26.138  33.536   4.767
34646W        W 3064  39.359  31.143   3.740
34647W        W 3065  44.862  37.336   4.262
34648W        W 3066   1.467   5.285   2.802
34649W        W 3067  34.509  13.624  12.504
34650W        W 3068   4.805  23.511  13.891
34651W        W 3069  42.363  28.640  14.435
34652W        W 3070  42.883  37.959  13.395
34653W        W 3071  18.128   1.899  14.028
34654W        W 3072  29.940  26.587   1.748
34655W        W 3073  14.730  18.642  14.822
34656W        W 3074  27.482  11.356  10.404
34657W        W 3075  36.548  31.603   1.403
34658W        W 3076   9.238  23.067   2.254
34659W        W 3077  41.892  11.748   1.281
34660W        W 3078  28.547  44.269  12.963
34661W        W 3079   2.880  34.524   2.822
34662W        W 3080  36.927  17.764  13.329
34663W        W 3081   6.846  31.623  11.962
34664W        W 3082  14.276  33.443  11.897
34665W        W 3083  32.069  44.823  12.574
34666W        W 3084  24.062   5.257   4.738
34667W        W 3085   4.829  21.754   1.919
34668W        W 3086  44.940  13.307   1.904
34669W        W 3087  29.088  31.560  11.560
34670W        W 3088  10.385  16.601  12.947
34671W        W 3089   4.871   8.668  14.812
34672W        W 3090  30.073  25.135  11.400
34673W        W 3091  42.350  14.102   2.296
34674W        W 3092  19.625  38.040  13.798
34675W        W 3093   0.457   7.296  10.521
34676W        W 3094  29.458  34.448  14.942
34677W        W 3095  20.542  26.551  14.021
34678W        W 3096  44.451  12.208  10.112
34679W        W 3097  40.829   5.903   3.696
34680W        W 3098  37.455  40.483  12.080
34681W        W 3099  21.238  22.171  14.997
34682W        W 3100   9.329  10.681   0.278
34683W        W 3101  12.704   7.351   3.221
34684W        W 3102  24.507  12.170   3.675
34685W        W 3103  30.056  20.106   3.728
34686W        W 3104  36.529   5.832   1.251
34687W        W 3105  34.959  39.965  10.570
34688W        W 3106  11.660  36.915  12.962
34689W        W 3107  19.114  32.102  13.402
34690W        W 3108  21.090  19.556   0.878
34691W        W 3109   2.802  25.086   1.900
34692W        W 3110  40.989  37.354  14.480
34693W        W 3111  41.893   0.870   0.257
34694W        W 3112  42.925  12.639   9.957
34695W        W 3113   4.356  31.976   2.786
34696W        W 3114   7.351   3.429   4.179
34697W        W 3115   7.908   3.741   4.129
34698W        W 3116   9.846   4.283   3.355
34699W        W 3117   5.419  22.218  14.783
34700W        W 3118  27.582  26.662  12.557
34701W        W 3119  18.224  23.009  10.626
34702W        W 3120  40.462  10.234  11.402
34703W        W 3121  29.658  12.150   4.819
34704W        W 3122  23.094  34.877  13.010
34705W        W 3123  36.408  20.593   4.599
34706W        W 3124  21.740  27.470   4.746
34707W        W 3125  12.283  13.695  14.904
34708W        W 3126   1.462   4.784  10.920
34709W        W 3127  29.160  28.144  12.043
34710W        W 3128  27.657  43.786   2.855
34711W        W 3129  14.131   6.403  13.935
34712W        W 3130  15.579  37.436   3.196
34713W        W 3131  29.530   1.420   1.346
34714W        W 3132   4.324  18.739  11.600
34715W        W 3133   7.696   4.857   0.741
34716W        W 3134  33.019  12.693   4.792
34717W        W 3135   6.321  30.418  12.839
34718W        W 3136  10.357  11.778   9.923
34719W        W 3137  28.947  31.897  12.936
34720W        W 3138  28.049  41.038   4.824
34721W        W 3139   1.286   8.359  11.581
34722W        W 3140  23.668  23.595  11.125
34723W        W 3141   8.250  36.482  10.893
34724W        W 3142  42.410  28.003  11.573
34725W        W 3143  10.668  32.434  13.365
34726W        W 3144  30.116   2.338   4.623
34727W        W 3145   3.432   0.794   4.206
34728W        W 3146  25.607   5.319  11.994
34729W        W 3147   1.318   9.336  14.024
34730W        W 3148  16.278  25.030   2.773
34731W        W 3149   4.313  40.912   4.327
34732W        W 3150  39.485  43.438  12.005
34733W        W 3151   6.358  24.105   4.604
34734W        W 3152  20.053  11.777  14.928
34735W        W 3153   0.357  43.021  13.867
34736W        W 3154   3.428  20.078   1.403
34737W        W 3155  35.928  27.165  11.381
34738W        W 3156  26.113  38.962  13.919
34739W        W 3157  26.660  36.442   4.164
34740W        W 3158  15.141  32.612   1.294
34741W        W 3159   5.832  19.048   0.317
34742W        W 3160  10.852  32.024  14.485
34743W        W 3161  31.456  31.079  13.372
34744W        W 3162   3.800  43.478  14.382
34745W        W 3163  44.959  37.057   0.447
34746W        W 3164   4.406  17.779   0.458
34747W        W 3165  33.521  15.231   1.880
34748W        W 3166  28.676  38.959  10.445
34749W        W 3167  12.666  30.605  13.973
34750W        W 3168  16.582  40.378  12.992
34751W        W 3169   5.244  31.453  12.400
34752W        W 3170  37.955   0.452   3.216
34753W        W 3171  34.555   4.369  11.984
34754W        W 3172  39.852   3.799  11.485
34755W        W 3173  13.621  24.074   0.303
34756W        W 3174  12.626  37.056   4.329
34757W        W 3175  44.480   7.683   2.787
34758W        W 3176  40.983  27.094   2.806
34759W        W 3177  28.944  36.387   0.315
34760W        W 3178  28.550  26.632   2.728
34761W        W 3179   6.837   5.838  10.458
34762W        W 3180  33.974  26.498   2.182
34763W        W 3181   3.276  19.136   3.271
34764W        W 3182  23.520   1.296   1.345
34765W        W 3183  11.852  12.174   3.833
34766W        W 3184  44.367  44.259  14.375
34767W        W 3185  14.632  36.488  13.349
34768W        W 3186  41.937  26.151   4.725
34769W        W 3187  20.065  34.879   2.739
34770W        W 3188  25.686   2.427  11.861
34771W        W 3189  11.227  14.678  11.600
34772W        W 3190  11.818  43.442  13.815
34773W        W 3191  21.590  26.987   2.198
34774W        W 3192  15.149   0.796   0.878
34775W        W 3193  22.006  17.595   3.214
34776W        W 3194  31.458  41.914  10.497
34777W        W 3195  42.977  15.198   0.748
34778W        W 3196  35.076  22.217   4.332
34779W        W 3197  33.606  35.481   1.229
34780W        W 3198  11.339   5.400  14.928
34781W        W 3199   7.760   8.222   3.254
34782W        W 3200  11.800   0.970  11.605
34783W        W 3201  35.489   1.936   3.192
34784W        W 3202  12.615  10.788  14.969
34785W        W 3203  19.185  38.948   0.885
34786W        W 3204  24.507   8.900   0.868
34787W        W 3205   7.296  27.634   1.745
34788W        W 3206  29.467  23.031   3.665
34789W        W 3207  31.445   0.976   3.645
34790W        W 3208   7.296  34.578   4.770
34791W        W 3209  21.072  35.031   2.776
34792W        W 3210   4.253  42.386   2.735
34793W        W 3211  32.952  23.052  11.537
34794W        W 3212  15.165  33.476  11.427
34795W        W 3213   4.302  25.637   3.777
34796W        W 3214   5.198  26.094   3.300
34797W        W 3215   2.965  23.219   3.300
34798W        W 3216  34.546  38.858  12.093
34799W        W 3217  44.001   4.244   0.285
34800W        W 3218  25.537  37.531  13.885
34801W        W 3219  26.508   3.365  13.820
34802W        W 3220  11.352   4.926   3.148
34803W        W 3221  29.492  31.618   4.736
34804W        W 3222  28.151   5.695  11.540
34805W        W 3223  28.106  25.563  11.077
34806W        W 3224  20.738  26.153  14.028
34807W        W 3225  14.774  40.512   1.854
34808W        W 3226   3.353  11.659  12.853
34809W        W 3227  18.604  41.829   0.804
34810W        W 3228  10.696   4.275  12.530
34811W        W 3229   0.337  28.106  14.355
34812W        W 3230   1.865  35.481  14.430
34813W        W 3231  15.773   7.777   5.805
34814W        W 3232   9.645  25.671   3.748
34815W        W 3233   8.263   5.835  14.321
34816W        W 3234   0.957   3.456  11.458
34817W        W 3235  44.356  21.156   0.260
34818W        W 3236  30.586  19.042  14.485
34819W        W 3237  28.144  30.914  11.560
34820W        W 3238  42.442  33.422   2.745
34821W        W 3239  43.340  39.825  13.351
34822W        W 3240  34.417  22.201  11.871
34823W        W 3241  21.091  33.419  10.443
34824W        W 3242  11.192  43.826   3.863
34825W        W 3243  40.532  37.990  11.095
34826W        W 3244  27.130  21.089   1.769
34827W        W 3245   5.819  15.616   4.760
34828W        W 3246  14.297  28.489   4.200
34829W        W 3247  36.472  11.220   4.286
34830W        W 3248  15.716  34.410   1.933
34831W        W 3249  29.587  44.983  14.780
34832W        W 3250  10.805   2.966   1.445
34833W        W 3251  20.668   3.438  13.954
34834W        W 3252   4.224   1.870  11.992
34835W        W 3253  30.917  16.755  12.937
34836W        W 3254  35.401   5.855  14.979
34837W        W 3255  34.520  25.213   1.849
34838W        W 3256  24.108  13.670   3.175
34839W        W 3257   7.788  15.660   2.819
34840W        W 3258   1.415   6.352   0.256
34841W        W 3259  17.203  10.755   1.890
34842W        W 3260  28.009   3.881  13.327
34843W        W 3261  24.640   4.217   0.397
34844W        W 3262   7.298  18.051   0.950
34845W        W 3263  24.715   8.685  14.441
34846W        W 3264   1.942   3.938   0.744
34847W        W 3265  34.532  33.080  12.529
34848W        W 3266   8.339  19.704  11.555
34849W        W 3267   4.377  19.151  11.944
34850W        W 3268  39.444  22.045  11.447
34851W        W 3269   5.929   0.262   0.480
34852W        W 3270  22.601  14.683  11.065
34853W        W 3271  33.603  38.505  10.619
34854W        W 3272  44.001  36.579  12.954
34855W        W 3273  16.573   9.756   3.259
34856W        W 3274  19.758  24.488  12.020
34857W        W 3275  18.215  28.984   1.884
34858W        W 3276   0.954   6.911  14.510
34859W        W 3277  32.539  30.027  14.406
34860W        W 3278  17.089  36.072   0.334
34861W        W 3279  19.213  37.857  10.995
34862W        W 3280  20.529  38.850   5.681
34863W        W 3281  37.882  33.087  14.293
34864W        W 3282  20.101   1.892  13.944
34865W        W 3283  24.053  38.570  11.048
34866W        W 3284   3.325  41.453   3.249
34867W        W 3285  39.927  41.374  14.790
34868W        W 3286  21.578  38.347  12.480
34869W        W 3287  44.487  15.594   2.823
34870W        W 3288  31.123  40.367  12.832
34871W        W 3289   9.190  42.807  12.936
34872W        W 3290  33.601  12.727   4.766
34873W        W 3291   2.324  22.104   2.742
34874W        W 3292  20.167  21.095   5.265
34875W        W 3293  10.696  23.500   2.226
34876W        W 3294  11.332   8.387  14.808
34877W        W 3295  41.012  38.347  11.065
34878W        W 3296  10.339   8.218   4.787
34879W        W 3297  23.207   8.306   1.403
34880W        W 3298  36.867   0.399  12.411
34881W        W 3299  19.746  17.174  10.430
34882W        W 3300  34.382   0.384  10.573
34883W        W 3301   6.275  42.776  13.519
34884W        W 3302  19.269   4.289   4.216
34885W        W 3303  13.659   9.161   0.927
34886W        W 3304  25.480  35.935   3.799
34887W        W 3305  21.672  29.121   3.824
34888W        W 3306  24.147  25.604   4.316
34889W        W 3307  43.970  23.728   4.335
34890W        W 3308   0.941  38.926  13.477
34891W        W 3309   4.799  21.144  10.972
34892W        W 3310  18.703  43.905  13.462
34893W        W 3311  42.377  17.799   0.922
34894W        W 3312   0.959  20.596  12.067
34895W        W 3313   7.696  16.769  12.038
34896W        W 3314  38.049  32.529   0.462
34897W        W 3315  16.592  44.451  11.432
34898W        W 3316  40.998  20.671   2.895
34899W        W 3317  21.134  44.796   0.921
34900W        W 3318  19.255   2.929  14.777
34901W        W 3319  44.325  10.206   2.844
34902W        W 3320  18.752  34.871  13.490
34903W        W 3321   3.433  17.631  13.804
34904W        W 3322   3.863  27.976  14.349
34905W        W 3323  38.332  34.945  11.578
34906W        W 3324  35.954  27.687   0.263
34907W        W 3325  17.093   8.179   3.343
34908W        W 3326  43.290  43.796   3.259
34909W        W 3327   5.221  43.957   4.273
34910W        W 3328  12.616  42.448   2.695
34911W        W 3329  12.826  40.497   0.401
34912W        W 3330  43.356  26.076  12.538
34913W        W 3331  29.485  35.089  11.123
34914W        W 3332  42.365  41.425   3.706
34915W        W 3333  14.340  18.244  14.494
34916W        W 3334   1.822  13.839  12.915
34917W        W 3335  43.821  26.466   1.859
34918W        W 3336  41.303   3.319   1.275
34919W        W 3337   3.772   1.734  14.378
34920W        W 3338  29.118   4.881   0.383
34921W        W 3339  13.777   4.370  13.524
34922W        W 3340  35.373  41.360  14.336
34923W        W 3341  42.848  22.195  13.827
34924W        W 3342  14.157   4.799  14.978
34925W        W 3343   6.876  25.214  13.980
34926W        W 3344  36.400  12.651   0.893
34927W        W 3345  29.979  30.503   0.317
34928W        W 3346   1.423  28.173   2.824
34929W        W 3347   3.435  23.007  12.946
34930W        W 3348   8.722  41.351  10.575
34931W        W 3349  19.626  27.654  12.836
34932W        W 3350  24.611   5.258  12.042
34933W        W 3351   1.423  33.907  11.965
34934W        W 3352  30.609  10.794   2.178
34935W        W 3353   6.204  33.072   0.369
34936W        W 3354  32.611  29.613  10.571
34937W        W 3355  38.054  26.477  11.439
34938W        W 3356  41.879  34.970   2.299
34939W        W 3357  20.172  32.458   3.217
34940W        W 3358  44.365  43.872   0.356
34941W        W 3359  27.042   8.326   1.329
34942W        W 3360   6.380  32.484  11.003
34943W        W 3361  15.741   8.830   2.382
34944W        W 3362  39.022  31.510  11.985
34945W        W 3363  41.321  17.092   2.847
34946W        W 3364  17.100  19.594   0.924
34947W        W 3365  15.737  22.687  10.448
34948W        W 3366  18.592  44.937  11.456
34949W        W 3367   2.320   5.767  14.418
34950W        W 3368  23.509  30.912   0.905
34951W        W 3369  39.959  36.958  13.055
34952W        W 3370   9.880  34.985   4.809
34953W        W 3371   0.265  37.007   1.718
34954W        W 3372  26.672  21.540   5.118
34955W        W 3373  11.850   6.254  11.117
34956W        W 3374  44.866  25.016   3.210
34957W        W 3375  35.604  28.116  13.964
34958W        W 3376  22.503   5.914  13.807
34959W        W 3377  18.656  39.526  11.119
34960W        W 3378  39.850  35.064   0.870
34961W        W 3379  42.828   1.395   3.692
34962W        W 3380  44.371  36.441   2.227
34963W        W 3381   2.763  23.207  14.855
34964W        W 3382   4.378  12.311   2.736
34965W        W 3383  24.187  14.604  11.110
34966W        W 3384   9.349  32.924  14.004
34967W        W 3385   7.219  15.803   4.604
34968W        W 3386  24.491  26.611   2.301
34969W        W 3387  13.647   5.874  12.971
34970W        W 3388  26.145  15.146  10.520
34971W        W 3389   4.350   2.259   4.259
34972W        W 3390  27.163  33.020   4.128
34973W        W 3391   6.693  39.469   1.799
34974W        W 3392  34.098  21.649  13.854
34975W        W 3393  31.059   3.825  12.939
34976W        W 3394  12.716   2.791   1.717
34977W        W 3395  30.565  30.138   3.167
34978W        W 3396  30.048   5.847  12.932
34979W        W 3397  36.885   8.669   5.299
34980W        W 3398  32.038  42.527  12.827
34981W        W 3399  25.972  36.856  12.426
34982W        W 3400  44.816   4.747   0.871
34983W        W 3401  33.397  34.042   2.196
34984W        W 3402   4.442   1.482   3.188
34985W        W 3403  16.658  11.274   3.857
34986W        W 3404   3.292   2.456  12.023
34987W        W 3405  29.536  39.513  14.020
34988W        W 3406  33.533   8.833   5.292
34989W        W 3407  33.463  27.452   2.202
34990W        W 3408  34.926  38.431  11.387
34991W        W 3409  32.508   2.434  11.473
34992W        W 3410  38.411  29.556   0.926
34993W        W 3411  19.202   1.478  12.480
34994W        W 3412  32.556  14.141  14.377
34995W        W 3413  22.682  16.240  14.972
34996W        W 3414   0.970  39.370  10.919
34997W        W 3415  18.217  17.754   3.334
34998W        W 3416  17.609  37.937   1.331
34999W        W 3417  13.600  36.551  11.521
35000W        W 3418   3.331  13.621   1.369
35001W        W 3419  26.005   6.377   0.766
35002W        W 3420  20.233  40.911  14.878
35003W        W 3421   8.730  34.878   3.713
35004W        W 3422  22.601  30.582   1.216
35005W        W 3423  19.238  22.642   0.817
35006W        W 3424   0.815   5.258  13.923
35007W        W 3425  20.113   7.907  12.880
35008W        W 3426  31.017  12.642   4.253
35009W        W 3427  26.667  12.723   1.797
35010W        W 3428  14.103  40.941  12.377
35011W        W 3429  42.335   8.756   5.279
35012W        W 3430   1.934  16.170  12.507
35013W        W 3431  38.400  42.520   4.825
35014W        W 3432  38.881  33.036  11.521
35015W        W 3433  38.039   1.923  12.389
35016W        W 3434  18.636  44.773   3.717
35017W        W 3435   4.714  28.115   5.244
35018W        W 3436  24.509  38.008  14.361
35019W        W 3437  43.975  40.827  14.883
35020W        W 3438  19.765   1.834   1.248
35021W        W 3439  44.422  42.457   2.309
35022W        W 3440  21.737  37.340  10.599
35023W        W 3441  31.474   3.357   3.634
35024W        W 3442  22.995  31.134  11.524
35025W        W 3443   0.824  32.951  14.869
35026W        W 3444  44.873  21.705  11.381
35027W        W 3445  10.698  31.055  12.379
35028W        W 3446  24.585   6.362   4.311
35029W        W 3447  35.904  36.048   2.841
35030W        W 3448  21.062  17.228  10.890
35031W        W 3449   9.804  10.858  14.480
35032W        W 3450  30.028  11.809  14.854
35033W        W 3451  27.008  16.146   2.196
35034W        W 3452   6.427  42.028   2.836
35035W        W 3453  37.459  22.142  12.057
35036W        W 3454  38.875  44.330   4.292
35037W        W 3455  12.657  11.754   1.924
35038W        W 3456   4.411  33.910   0.790
35039W        W 3457  33.597  35.567   3.685
35040W        W 3458  30.588  17.114  12.957
35041W        W 3459  17.188   4.894   2.872
35042W        W 3460  20.596   2.766  13.830
35043W        W 3461   9.800  21.640  14.451
35044W        W 3462  33.438  42.033   0.437
35045W        W 3463  29.587  12.684  14.290
35046W        W 3464   9.878  15.144   4.697
35047W        W 3465  31.082  23.096   2.279
35048W        W 3466   0.773  40.327  10.068
35049W        W 3467  18.598  30.594  12.516
35050W        W 3468  42.410   2.760   1.713
35051W        W 3469  22.666   8.326  13.806
35052W        W 3470  42.517  16.702  13.813
35053W        W 3471   5.368  39.326   3.327
35054W        W 3472  41.412  14.101  13.818
35055W        W 3473  44.904  30.112  11.973
35056W        W 3474  38.437  35.456   4.289
35057W        W 3475  31.403   1.247  11.978
35058W        W 3476   7.340   6.424  14.784
35059W        W 3477  31.024  28.148   5.304
35060W        W 3478  32.960  37.865  13.062
35061W        W 3479  31.010  27.680  14.346
35062W        W 3480  15.223  26.964  11.502
35063W        W 3481  41.309  35.395   3.146
35064W        W 3482   1.416   5.726  13.837
35065W        W 3483  38.381   7.684   4.642
35066W        W 3484  42.382  24.490   0.771
35067W        W 3485  14.765  35.543  14.897
35068W        W 3486  26.126  25.045   4.290
35069W        W 3487  14.679  34.456   4.281
35070W        W 3488  30.638  28.513   2.738
35071W        W 3489  38.841  35.530  12.041
35072W        W 3490  22.667  29.536   4.735
35073W        W 3491   5.906   0.475   3.849
35074W        W 3492  12.122  35.565   3.828
35075W        W 3493  29.112  11.836   0.293
35076W        W 3494  33.054  20.593  14.930
35077W        W 3495  10.638  37.972   0.909
35078W        W 3496  43.276  26.056   2.765
35079W        W 3497  12.143  38.843   3.704
35080W        W 3498  36.938  30.595   0.781
35081W        W 3499   8.787   6.872   1.694
35082W        W 3500  27.480  33.434  14.419
35083W        W 3501  11.193  15.697  14.924
35084W        W 3502  37.892  30.156   4.743
35085W        W 3503   2.356  11.252   2.715
35086W        W 3504   3.739  14.141   3.805
35087W        W 3505  38.917   7.783  12.378
35088W        W 3506  43.365  44.846   1.290
35089W        W 3507  16.108  29.578  14.502
35090W        W 3508  39.439  24.578   0.340
35091W        W 3509   8.840  16.708  13.962
35092W        W 3510   4.821  16.793  13.477
35093W        W 3511  25.182   5.765  11.473
35094W        W 3512  27.503  25.077   1.849
35095W        W 3513  30.637  41.788  14.480
35096W        W 3514  33.890  24.495   2.193
35097W        W 3515  23.670  12.799  13.882
35098W        W 3516   7.399   0.776   2.321
35099W        W 3517  42.402   0.787  12.341
35100W        W 3518   8.168  35.601   0.819
35101W        W 3519   8.729   1.866  13.984
35102W        W 3520  10.240  25.072  12.369
35103W        W 3521  17.108  20.223  14.483
35104W        W 3522  26.640  34.542   0.354
35105W        W 3523  23.184  35.602   2.696
35106W        W 3524   5.356   1.477   3.202
35107W        W 3525  33.582  34.099  13.989
35108W        W 3526  42.936  20.060  14.452
35109W        W 3527  15.313   0.853  11.982
35110W        W 3528  28.139  41.352  11.431
35111W        W 3529  18.674  34.375   1.294
35112W        W 3530   0.957   1.891  10.413
35113W        W 3531  41.493  30.932   0.937
35114W        W 3532  42.901   7.375   2.767
35115W        W 3533  36.941  20.140   4.736
35116W        W 3534  36.361   9.251  13.504
35117W        W 3535  34.425   9.365  12.381
35118W        W 3536  37.490  32.975   3.221
35119W        W 3537  12.159  25.970   3.842
35120W        W 3538  44.005  34.093  14.984
35121W        W 3539  20.708  25.023   1.317
35122W        W 3540  29.580  17.559   3.350
35123W        W 3541  10.259   6.264  11.954
35124W        W 3542  43.879   6.779   2.680
35125W        W 3543   2.820  25.672  13.384
35126W        W 3544   3.912  20.249   3.697
35127W        W 3545   8.188  21.039   4.679
35128W        W 3546  28.586  29.003   0.941
35129W        W 3547  39.917  14.608  12.831
35130W        W 3548  12.819  18.560   2.373
35131W        W 3549  26.163  26.647  13.462
35132W        W 3550  32.061  14.164  10.008
35133W        W 3551  33.452  35.860  14.812
35134W        W 3552  23.536  40.532   4.766
35135W        W 3553  38.895  11.790   3.309
35136W        W 3554   6.382  12.129  11.604
35137W        W 3555   7.864   9.266   2.283
35138W        W 3556  13.113  17.795  12.083
35139W        W 3557  13.783  28.534  11.872
35140W        W 3558  37.467   9.716  11.893
35141W        W 3559   9.309  16.193   3.650
35142W        W 3560   2.925   6.268   3.850
35143W        W 3561  11.217  12.710   3.375
35144W        W 3562  40.884   2.366   2.739
35145W        W 3563  12.714  37.515  13.022
35146W        W 3564  23.078  20.553   3.763
35147W        W 3565   2.440  41.933  13.361
35148W        W 3566  27.648  13.678  14.825
35149W        W 3567  23.099  37.515  14.772
35150W        W 3568  29.647  26.075  10.495
35151W        W 3569  39.361   0.309   4.142
35152W        W 3570  32.055  42.291  13.391
35153W        W 3571   9.246   1.361   0.338
35154W        W 3572  40.821   7.227  14.897
35155W        W 3573  20.214  22.162  11.529
35156W        W 3574  33.120  18.127   1.372
35157W        W 3575  44.007  19.691  12.061
35158W        W 3576  23.659  44.363  14.959
35159W        W 3577   2.784  24.057  10.626
35160W        W 3578   4.204   8.304   0.439
35161W        W 3579  32.421  11.859  14.902
35162W        W 3580   2.443   2.743   4.712
35163W        W 3581  40.356  10.336   4.612
35164W        W 3582  13.706  20.203  14.003
35165W        W 3583   8.761  40.335   0.811
35166W        W 3584  10.175  35.008   1.228
35167W        W 3585  17.202  16.603  14.502
35168W        W 3586  30.553   0.406  14.462
35169W        W 3587  35.442  21.115  12.070
35170W        W 3588  44.995   4.286  13.865
35171W        W 3589   0.822  36.989   0.947
35172W        W 3590  26.701   7.696   5.241
35173W        W 3591  21.168  38.011   3.650
35174W        W 3592  15.178   3.436   0.445
35175W        W 3593  25.702  44.481  10.493
35176W        W 3594  25.030  10.379   0.368
35177W        W 3595  22.583  10.262   5.221
35178W        W 3596   4.804  43.927  13.536
35179W        W 3597  30.525  37.896  12.837
35180W        W 3598  27.575  20.618  12.416
35181W        W 3599  19.172  37.900   3.631
35182W        W 3600  36.562  13.728   3.830
35183W        W 3601  26.987  23.696   4.271
35184W        W 3602  41.885  15.266   2.712
35185W        W 3603   0.388  19.732   5.294
35186W        W 3604  39.543   9.157   1.773
35187W        W 3605   3.381  27.096  14.772
35188W        W 3606   1.281   3.766  13.473
35189W        W 3607  13.608  43.020  14.323
35190W        W 3608  43.809  11.744  14.481
35191W        W 3609  32.401  31.410   1.382
35192W        W 3610  29.919   4.209  12.095
35193W        W 3611  34.437  19.768   1.801
35194W        W 3612  10.339  32.475   2.803
35195W        W 3613   5.404   2.368   1.720
35196W        W 3614  16.789  44.850   2.715
35197W        W 3615  15.690  40.947   3.645
35198W        W 3616   9.754  36.983   3.190
35199W        W 3617  24.015  27.148  14.406
35200W        W 3618  23.606  19.630  13.886
35201W        W 3619  18.058  28.631  11.510
35202W        W 3620   0.905   1.276   2.729
35203W        W 3621  20.167  21.655   4.188
35204W        W 3622  25.557  36.454  12.493
35205W        W 3623  34.978   0.329  10.516
35206W        W 3624   4.768  21.620   3.779
35207W        W 3625  21.028   1.958  11.446
35208W        W 3626  18.573  27.660  14.985
35209W        W 3627  34.598  21.748  11.607
35210W        W 3628  34.103   1.770   0.733
35211W        W 3629  17.699  36.969   1.344
35212W        W 3630  16.254  12.817  13.485
35213W        W 3631   2.963   3.347   1.257
35214W        W 3632   0.840  10.768  12.978
35215W        W 3633   1.267  18.104   1.902
35216W        W 3634  21.553  13.271  14.422
35217W        W 3635  35.368  41.319  12.076
35218W        W 3636   3.757   7.768  12.036
35219W        W 3637  21.667   1.354  10.903
35220W        W 3638  30.098   8.799  12.893
35221W        W 3639  29.512  17.696  11.973
35222W        W 3640  11.745  16.737  14.383
35223W        W 3641   7.712  14.225  10.888
35224W        W 3642  39.366   6.858  14.365
35225W        W 3643  36.905  37.860   3.813
35226W        W 3644  15.169  34.010   0.324
35227W        W 3645  33.421  29.958  14.862
35228W        W 3646  36.509  43.873   3.318
35229W        W 3647  44.497   1.472  11.031
35230W        W 3648  15.155   1.860  14.928
35231W        W 3649  20.692  16.653   3.206
35232W        W 3650   4.779  28.029  14.314
35233W        W 3651  17.165  42.995  12.343
35234W        W 3652  32.558  11.279  12.039
35235W        W 3653  16.616  29.611  14.779
35236W        W 3654  43.939  35.972   3.630
35237W        W 3655  14.176  19.186  11.002
35238W        W 3656  14.828  22.600  10.533
35239W        W 3657  21.538  16.177   0.740
35240W        W 3658  31.640   1.483  11.391
35241W        W 3659  42.784  22.595   1.832
35242W        W 3660   9.728  38.866  14.873
35243W        W 3661  40.002  20.273  12.373
35244W        W 3662  19.713  37.002  11.956
35245W        W 3663  38.860  25.062   4.306
35246W        W 3664   0.812  21.186  11.916
35247W        W 3665  44.277   3.433   5.251
35248W        W 3666  29.044   1.301  12.356
35249W        W 3667  33.604  32.529  11.407
35250W        W 3668  12.815  17.247   3.629
35251W        W 3669   5.421   5.733  12.950
35252W        W 3670  37.960  43.479  12.045
35253W        W 3671  44.382  29.948  11.524
35254W        W 3672  13.780  13.677  11.608
35255W        W 3673  38.861   9.300  11.006
35256W        W 3674   3.763  20.703   5.112
35257W        W 3675  19.188  28.173  13.895
35258W        W 3676  33.078   0.287   4.667
35259W        W 3677   4.848  41.370   2.211
35260W        W 3678   9.151  12.747   3.287
35261W        W 3679  24.198  42.960   5.251
35262W        W 3680  36.865  27.542  14.954
35263W        W 3681  27.479  16.162   0.418
35264W        W 3682  32.132  29.626   5.213
35265W        W 3683  15.592  29.994  12.472
35266W        W 3684  37.060   6.349  10.487
35267W        W 3685  30.982  32.531   3.836
35268W        W 3686   3.423  12.281  10.435
35269W        W 3687  12.220  43.371  11.873
35270W        W 3688  22.143  41.035  11.004
35271W        W 3689  16.218  12.254  10.595
35272W        W 3690   4.851  35.550   2.760
35273W        W 3691  22.224  13.324  11.383
35274W        W 3692  22.548  16.249  12.475
35275W        W 3693  10.766  39.392  11.475
35276W        W 3694  30.941   3.810   1.400
35277W        W 3695  26.585  35.082   2.289
35278W        W 3696  33.994  14.214   0.851
35279W        W 3697  43.773  29.094  10.510
35280W        W 3698  14.206   6.231   2.691
35281W        W 3699  34.412   1.424  13.400
35282W        W 3700  13.265  23.724  12.994
35283W        W 3701  44.801   5.343   2.719
35284W        W 3702  16.804   2.910  13.827
35285W        W 3703   3.904  17.075  13.914
35286W        W 3704  26.623  21.187  13.528
35287W        W 3705  38.357  13.793   1.271
35288W        W 3706  34.871   5.390   3.195
35289W        W 3707  43.396  19.596   2.700
35290W        W 3708  15.103  33.877   2.759
35291W        W 3709  16.318  12.755   0.273
35292W        W 3710  43.395  15.674  10.895
35293W        W 3711  41.514  41.397   5.315
35294W        W 3712  24.204  43.957   4.316
35295W        W 3713  42.923  33.583  12.383
35296W        W 3714  39.453   6.221   4.668
35297W        W 3715  44.411   7.899  11.597
35298W        W 3716  15.257  29.004  14.869
35299W        W 3717   8.867  15.664  11.860
35300W        W 3718  17.652  14.597   9.513
35301W        W 3719  15.706  33.911   0.882
35302W        W 3720  26.672  23.018   1.245
35303W        W 3721   7.417  11.796   4.135
35304W        W 3722   7.265  18.623   2.705
35305W        W 3723   1.265   3.308   4.156
35306W        W 3724   9.702  37.891  11.514
35307W        W 3725  26.614  22.212   0.896
35308W        W 3726  16.269   3.287  11.071
35309W        W 3727  17.167  20.092  11.864
35310W        W 3728   0.950   8.721  12.567
35311W        W 3729  42.974  25.629  12.090
35312W        W 3730   0.325  30.003  12.827
35313W        W 3731  41.464  17.301  14.323
35314W        W 3732  40.931  14.763  12.055
35315W        W 3733  24.011  18.200   4.310
35316W        W 3734  19.689  12.349  13.453
35317W        W 3735   3.272   3.316   1.794
35318W        W 3736   9.847  39.962   3.201
35319W        W 3737   5.783  11.825  12.917
35320W        W 3738  27.638  26.562  11.863
35321W        W 3739  39.810  36.049  12.839
35322W        W 3740  22.006   7.667  10.921
35323W        W 3741  19.238  32.568  11.086
35324W        W 3742  43.812  10.736  10.952
35325W        W 3743  28.641  44.483   0.751
35326W        W 3744  15.771  23.523  10.626
35327W        W 3745  34.575  22.679  12.548
35328W        W 3746  23.108  29.148   1.694
35329W        W 3747   8.673  17.582   2.318
35330W        W 3748  31.570  21.704  14.370
35331W        W 3749  26.039  19.555   4.352
35332W        W 3750  17.627  39.001   3.225
35333W        W 3751  43.277   4.392   1.372
35334W        W 3752  26.476  24.082  10.532
35335W        W 3753  43.426   3.886  11.940
35336W        W 3754  29.984  27.082  10.556
35337W        W 3755  42.946   1.934  13.901
35338W        W 3756  16.215   1.370  12.563
35339W        W 3757  35.588   0.958   2.864
35340W        W 3758  25.032  21.263   2.729
35341W        W 3759  27.972   8.325  14.971
35342W        W 3760  37.985  42.415   3.259
35343W        W 3761  40.522   4.221  14.874
35344W        W 3762  42.320   7.233   4.298
35345W        W 3763  44.870  36.959  12.359
35346W        W 3764   1.330  26.636   1.371
35347W        W 3765  11.171  37.035   4.798
35348W        W 3766  30.615  15.595   0.949
35349W        W 3767  13.807   3.379   2.185
35350W        W 3768  27.004  26.558  14.915
35351W        W 3769   3.768  32.070  14.806
35352W        W 3770  27.121   6.282   4.282
35353W        W 3771   2.795   1.405  11.943
35354W        W 3772  10.214  34.939   1.736
35355W        W 3773  32.445  12.344  13.836
35356W        W 3774   7.833  41.370   1.840
35357W        W 3775  35.968  21.516  12.945
35358W        W 3776  20.725  26.629  14.395
35359W        W 3777  24.720   4.940   1.385
35360W        W 3778  31.584  29.602   2.871
35361W        W 3779  23.196  43.441   0.467
35362W        W 3780  16.280  44.872  14.825
35363W        W 3781  42.799   8.696   0.766
35364W        W 3782  15.160  22.161  12.994
35365W        W 3783  22.231   6.325   1.928
35366W        W 3784  37.969  16.148   0.914
35367W        W 3785  28.960  25.070   3.733
35368W        W 3786  42.377  14.139   0.356
35369W        W 3787  37.420  21.256   3.359
35370W        W 3788  32.056  28.080   3.654
35371W        W 3789   7.235  10.168  13.516
35372W        W 3790  41.523   0.476  11.425
35373W        W 3791  10.367  18.687  11.587
35374W        W 3792  17.217  34.393  14.902
35375W        W 3793  13.321  14.281  10.565
35376W        W 3794  32.497  34.899  10.133
35377W        W 3795   5.355  40.545   0.259
35378W        W 3796   3.806  30.085  13.825
35379W        W 3797   7.728  29.072   1.236
35380W        W 3798  40.527   7.229   2.836
35381W        W 3799  43.408  21.599   1.783
35382W        W 3800  36.413   8.655   0.385
35383W        W 3801  43.507  26.679  14.348
35384W        W 3802  31.517  35.601   1.326
35385W        W 3803  11.758  13.807  10.639
35386W        W 3804  41.023   8.237   4.223
35387W        W 3805  34.594  34.105  11.861
35388W        W 3806   6.398  16.312   0.841
35389W        W 3807  29.991  11.720   2.779
35390W        W 3808   5.748  44.369   3.747
35391W        W 3809   8.773  34.887  12.381
35392W        W 3810  21.125  17.306  10.572
35393W        W 3811  32.616  17.148  14.463
35394W        W 3812  10.293  41.810  10.991
35395W        W 3813   4.859  37.426   0.271
35396W        W 3814  17.584   3.393  13.881
35397W        W 3815   1.901  38.398  12.043
35398W        W 3816   2.419   6.742  13.501
35399W        W 3817  37.960  44.383   4.665
35400W        W 3818   0.473  44.986   3.825
35401W        W 3819  22.148  24.166  14.970
35402W        W 3820   5.438  43.890   2.257
35403W        W 3821  38.552   9.820  13.407
35404W        W 3822  41.930  41.301   2.248
35405W        W 3823   9.393   6.282  13.795
35406W        W 3824   7.689  27.991   1.427
35407W        W 3825   7.328  23.560  11.538
35408W        W 3826  15.097   8.161  11.450
35409W        W 3827  22.505  27.073   4.244
35410W        W 3828   6.778  31.921   0.439
35411W        W 3829  16.797  16.794   0.270
35412W        W 3830  29.457  28.053  14.461
35413W        W 3831  20.246  23.686  11.043
35414W        W 3832  36.989  42.847   0.427
35415W        W 3833   4.797  40.481   3.170
35416W        W 3834  40.483  42.944   0.769
35417W        W 3835  32.966  32.603   3.219
35418W        W 3836   2.445   8.303   4.263
35419W        W 3837   0.414  29.137   3.667
35420W        W 3838  10.791  13.670   1.251
35421W        W 3839   0.405  34.969  13.413
35422W        W 3840  21.025  35.906  12.096
35423W        W 3841  21.696  44.966   4.696
35424W        W 3842  14.628  21.622  12.041
35425W        W 3843  11.706  25.683  12.512
35426W        W 3844  44.978  22.080  14.951
35427W        W 3845   6.407   8.278  11.947
35428W        W 3846  16.139  19.762  12.378
35429W        W 3847  30.426  39.990   0.383
35430W        W 3848  41.973  17.774   3.687
35431W        W 3849  38.549  15.240  11.607
35432W        W 3850   3.264  44.950  10.522
35433W        W 3851   4.797  12.651  13.909
35434W        W 3852  14.131  30.642  10.490
35435W        W 3853  19.175  21.206   3.723
35436W        W 3854  29.656  20.042   0.829
35437W        W 3855  28.442  33.070   0.955
35438W        W 3856  33.089  20.701  12.954
35439W        W 3857   7.879  34.383   4.274
35440W        W 3858   5.923  39.821   4.692
35441W        W 3859   5.896  44.399  13.425
35442W        W 3860  11.315  30.135  10.579
35443W        W 3861  42.960  27.972  12.913
35444W        W 3862  20.643  25.641   5.103
35445W        W 3863  10.811   8.675  11.080
35446W        W 3864  22.678   8.857   0.905
35447W        W 3865   9.735  17.101   1.432
35448W        W 3866  23.188  24.109   4.829
35449W        W 3867  35.949  24.005  13.855
35450W        W 3868   1.914  23.669   0.962
35451W        W 3869  34.523  17.680   1.762
35452W        W 3870  24.620  29.532   0.262
35453W        W 3871  42.784  41.485  14.389
35454W        W 3872   7.737   6.914  13.001
35455W        W 3873  34.979   0.384   4.340
35456W        W 3874  31.559  16.699  12.961
35457W        W 3875  38.938  29.492   2.728
35458W        W 3876  42.010  40.837   3.780
35459W        W 3877  37.498   0.878   0.310
35460W        W 3878  30.010   9.297  10.912
35461W        W 3879  15.583  32.925  13.040
35462W        W 3880  41.019  10.754   2.779
35463W        W 3881  17.621  27.079  12.005
35464W        W 3882  12.701   8.728  12.570
35465W        W 3883  12.644  43.914   3.756
35466W        W 3884  21.737  19.636   1.914
35467W        W 3885  41.786   4.311   2.901
35468W        W 3886   9.203  37.056   2.191
35469W        W 3887   9.846  26.677   0.743
35470W        W 3888  31.425  14.600   3.230
35471W        W 3889  42.829  11.805  13.827
35472W        W 3890  43.809  28.950   4.626
35473W        W 3891  15.740  22.572  12.966
35474W        W 3892  17.182  40.412  11.478
35475W        W 3893   4.250  17.141   0.409
35476W        W 3894  30.456  41.834   3.198
35477W        W 3895   3.358  16.615   2.761
35478W        W 3896  37.034   5.259   2.338
35479W        W 3897  40.807   2.242  11.998
35480W        W 3898  20.049   5.786  13.953
35481W        W 3899   4.841  20.598  11.471
35482W        W 3900  35.501  16.242  11.033
35483W        W 3901  26.517  38.952   1.306
35484W        W 3902   8.213   9.392   3.647
35485W        W 3903  44.809  16.248  11.877
35486W        W 3904   4.896   7.405   1.749
35487W        W 3905  21.065   8.328  10.640
35488W        W 3906   3.419  24.178   0.910
35489W        W 3907  19.756  43.996   4.762
35490W        W 3908  23.087  11.292  12.360
35491W        W 3909  14.759  21.187   3.802
35492W        W 3910   5.322   0.851  11.917
35493W        W 3911  14.182   6.842   1.440
35494W        W 3912  13.742   9.341  14.032
35495W        W 3913  11.205  37.339  11.394
35496W        W 3914  15.191  30.456  10.614
35497W        W 3915  11.303   5.917   0.243
35498W        W 3916  40.313  17.754  10.506
35499W        W 3917  13.675  29.958   0.470
35500W        W 3918   2.361  41.895  11.923
35501W        W 3919  35.029  41.485  10.540
35502W        W 3920  31.539   6.391   1.217
35503W        W 3921  34.966  10.698  14.455
35504W        W 3922  24.614   7.833   1.280
35505W        W 3923  20.603  36.406   4.835
35506W        W 3924   3.230  10.259  11.375
35507W        W 3925  44.320  17.608  14.859
35508W        W 3926  16.167  24.170  11.963
35509W        W 3927  34.474  37.944   4.120
35510W        W 3928  21.211  13.811   3.227
35511W        W 3929  29.565   1.736  11.092
35512W        W 3930  39.847  19.102   4.838
35513W        W 3931  36.436  40.521  12.454
35514W        W 3932  41.987  11.292   3.174
35515W        W 3933  20.193  10.226   0.269
35516W        W 3934   9.771  40.428   1.294
35517W        W 3935   7.270  15.640   3.231
35518W        W 3936  38.471  43.921  12.863
35519W        W 3937  42.490  14.610   5.219
35520W        W 3938  12.186  18.732  12.864
35521W        W 3939   3.884   9.681  12.051
35522W        W 3940  40.426  30.989   1.383
35523W        W 3941   3.786  21.753   0.873
35524W        W 3942  25.016   1.772  11.884
35525W        W 3943  38.910  19.721  13.034
35526W        W 3944  13.634  10.268  10.457
35527W        W 3945  36.458  10.240  12.497
35528W        W 3946  27.946  18.699  10.630
35529W        W 3947   1.875   4.295  10.564
35530W        W 3948  39.062  35.087  11.120
35531W        W 3949  29.997  25.477  13.311
35532W        W 3950  21.552  12.811   0.735
35533W        W 3951  26.977  18.677  14.290
35534W        W 3952   0.981  12.330  13.856
35535W        W 3953  41.991  24.516  13.308
35536W        W 3954  11.683  33.890  12.373
35537W        W 3955  24.189   9.704   3.640
35538W        W 3956  42.380  42.006  11.604
35539W        W 3957  27.012  10.703   2.737
35540W        W 3958  39.497   7.883  11.965
35541W        W 3959   6.914   0.310  10.954
35542W        W 3960  22.056  11.362  12.495
35543W        W 3961  17.578   2.783  13.798
35544W        W 3962  19.112   0.772  12.352
35545W        W 3963  32.569  29.515  12.546
35546W        W 3964  29.503  18.773  14.343
35547W        W 3965  43.507  18.738  13.505
35548W        W 3966  33.936  24.686   4.150
35549W        W 3967  35.462  19.738  11.466
35550W        W 3968  20.081  41.422   5.254
35551W        W 3969  17.773  31.556  14.783
35552W        W 3970  30.567  42.942  14.817
35553W        W 3971  36.924  34.039  14.882
35554W        W 3972  13.109  28.007   4.729
35555W        W 3973  19.218  37.840  13.474
35556W        W 3974   9.700  18.215  14.805
35557W        W 3975   1.402  24.483   4.142
35558W        W 3976   7.409   2.858   3.680
35559W        W 3977  18.741  26.692   0.820
35560W        W 3978   4.903  44.411  12.446
35561W        W 3979  25.535  15.774  10.497
35562W        W 3980   9.880  14.597  12.460
35563W        W 3981  26.003   4.418   3.264
35564W        W 3982  36.521  24.145  11.378
35565W        W 3983  21.240  39.504  13.485
35566W        W 3984  28.969  30.932   4.271
35567W        W 3985  38.870  42.781   4.331
35568W        W 3986  32.420  29.098  14.375
35569W        W 3987  22.652  39.511   5.208
35570W        W 3988  14.196  15.137  14.841
35571W        W 3989  22.736  20.228  11.000
35572W        W 3990   8.857  43.457  11.114
35573W        W 3991  17.670  18.295  10.514
35574W        W 3992   4.726   5.204  12.392
35575W        W 3993  44.344   6.734   0.348
35576W        W 3994  14.315  20.590  11.967
35577W        W 3995  39.878   9.741   4.649
35578W        W 3996   2.786  16.700   0.343
35579W        W 3997  14.327  30.023   4.251
35580W        W 3998  17.215  18.115   4.821
35581W        W 3999  31.626  33.082  14.879
35582W        W 4000  41.489  31.005  11.963
35583W        W 4001   0.303  16.155   1.844
35584W        W 4002   9.185  15.158  14.758
35585W        W 4003  44.393  19.198  11.917
35586W        W 4004   6.835  36.926  12.075
35587W        W 4005   2.912  29.575  13.418
35588W        W 4006  26.051   3.893  11.069
35589W        W 4007  15.093  23.503  14.784
35590W        W 4008  26.629   7.210   0.953
35591W        W 4009  18.087  24.999   3.239
35592W        W 4010  23.563  37.573   3.680
35593W        W 4011  26.061  16.167   0.881
35594W        W 4012  36.374   0.441   2.206
35595W        W 4013  15.280  21.539  14.335
35596W        W 4014  25.563   3.283   3.146
35597W        W 4015   5.708  22.560   1.892
35598W        W 4016  14.602  44.436  12.001
35599W        W 4017   1.315  22.119  10.006
35600W        W 4018  18.149  17.791   0.339
35601W        W 4019   0.945  20.644   5.171
35602W        W 4020   7.358  29.459   4.325
35603W        W 4021   0.773  16.603  13.891
35604W        W 4022  14.225  25.033  11.128
35605W        W 4023  41.917  20.614   4.674
35606W        W 4024  21.171  21.757  14.301
35607W        W 4025  34.004   8.292   2.382
35608W        W 4026   7.257  35.934   2.769
35609W        W 4027  18.556   5.417  13.490
35610W        W 4028  15.754  36.347  11.982
35611W        W 4029  17.235  12.631   2.760
35612W        W 4030  28.554   5.321   3.273
35613W        W 4031  35.393  38.485  14.812
35614W        W 4032  26.616  22.030  10.030
35615W        W 4033  18.181  23.504   3.718
35616W        W 4034  15.168  12.612   2.765
35617W        W 4035  39.932   5.870  10.451
35618W        W 4036  11.184  13.741  13.435
35619W        W 4037  21.530  24.108  14.967
35620W        W 4038   3.338  18.576   5.220
35621W        W 4039   0.817   4.765   2.759
35622W        W 4040  10.297  43.434   1.919
35623W        W 4041  33.905   4.816   0.478
35624W        W 4042  35.866   0.840   4.798
35625W        W 4043  31.987   8.753   2.849
35626W        W 4044   5.423  32.618   4.341
35627W        W 4045  25.659  44.280   4.179
35628W        W 4046  18.104  21.713  13.389
35629W        W 4047  41.789   8.265   1.914
35630W        W 4048  22.061  22.651   2.192
35631W        W 4049  21.737  41.788  12.058
35632W        W 4050  34.590  18.696   4.226
35633W        W 4051  38.959  16.599   2.676
35634W        W 4052   0.484  28.665   1.369
35635W        W 4053  21.661  32.456  14.904
35636W        W 4054  44.783  40.924  13.972
35637W        W 4055  35.521  33.487   4.811
35638W        W 4056   7.191  41.813   5.125
35639W        W 4057  24.723  16.099   4.741
35640W        W 4058  36.527  38.353   2.789
35641W        W 4059  35.413  31.093   0.739
35642W        W 4060  42.925   7.285  11.043
35643W        W 4061  28.146  36.969  10.926
35644W        W 4062  23.677  12.816   3.233
35645W        W 4063  15.120  15.796  14.392
35646W        W 4064  37.381  30.017   1.780
35647W        W 4065  14.809  25.570  11.535
35648W        W 4066   2.314  19.662  11.108
35649W        W 4067  35.934  29.668   3.330
35650W        W 4068  42.464  26.699   4.773
35651W        W 4069  14.615  28.932  13.049
35652W        W 4070  29.173   6.428  11.572
35653W        W 4071  14.598  28.649   3.373
35654W        W 4072  37.956  43.290  13.360
35655W        W 4073  36.954  38.331   1.761
35656W        W 4074  44.980  32.071   1.886
35657W        W 4075  22.594   8.774  12.901
35658W        W 4076  38.493  36.055  11.047
35659W        W 4077  20.154   4.218   2.822
35660W        W 4078  29.157  19.210  14.398
35661W        W 4079   8.775   4.811   0.797
35662W        W 4080  44.297  11.195  14.512
35663W        W 4081  44.841  23.142   5.244
35664W        W 4082   0.494  37.383  11.526
35665W        W 4083  19.247  29.151   3.726
35666W        W 4084  12.647  44.338  10.978
35667W        W 4085  44.501  25.592  13.495
35668W        W 4086  36.873  38.412  11.053
35669W        W 4087  29.088  29.508   3.214
35670W        W 4088  15.149  41.530  11.920
35671W        W 4089   8.874  13.351   0.352
35672W        W 4090   7.833  32.618  13.907
35673W        W 4091   1.429  14.202  13.430
35674W        W 4092  21.114  42.402   0.442
35675W        W 4093  38.862  26.612   2.797
35676W        W 4094  18.243  41.850   3.839
35677W        W 4095  43.487   2.237  14.783
35678W        W 4096  33.390  31.473  13.317
35679W        W 4097  15.667  17.156  12.985
35680W        W 4098  32.967   9.316   3.631
35681W        W 4099  27.495  12.189   1.799
35682W        W 4100  33.080  41.302  12.824
35683W        W 4101  41.993  43.888  10.428
35684W        W 4102   9.698  28.984  13.527
35685W        W 4103  38.932  35.369   2.275
35686W        W 4104  37.003   1.812  10.590
35687W        W 4105  41.042  13.314  12.017
35688W        W 4106  27.513   8.254  10.550
35689W        W 4107  10.368  22.513  12.483
35690W        W 4108  34.448  21.165  12.460
35691W        W 4109  18.778  44.271   4.246
35692W        W 4110   0.326  39.387   3.310
35693W        W 4111   4.445  40.349   1.442
35694W        W 4112   8.300  24.128   3.735
35695W        W 4113   0.899   3.793   1.443
35696W        W 4114   5.868  42.503   0.246
35697W        W 4115  35.378  28.003  13.007
35698W        W 4116  26.508  17.594  14.329
35699W        W 4117  36.374  19.268   0.427
35700W        W 4118  11.206  15.109   3.696
35701W        W 4119   8.851  29.446  12.484
35702W        W 4120  29.531  32.112  14.496
35703W        W 4121  28.646  33.439  10.114
35704W        W 4122  34.493   0.323   3.305
35705W        W 4123  31.075  30.132   4.323
35706W        W 4124   3.311   6.225   4.320
35707W        W 4125  34.439   1.738  13.835
35708W        W 4126  24.025   7.776   1.741
35709W        W 4127  28.974   6.428   1.447
35710W        W 4128  18.099   9.715   1.867
35711W        W 4129  41.795  19.721   2.865
35712W        W 4130  27.106  18.731  12.881
35713W        W 4131  28.626  36.578   1.399
35714W        W 4132  29.984  42.370  14.320
35715W        W 4133  31.959  18.733  13.986
35716W        W 4134  36.370  35.559  13.907
35717W        W 4135  18.126   6.720  13.407
35718W        W 4136   6.756  12.210  14.281
35719W        W 4137  21.625  10.221   2.275
35720W        W 4138  19.217  41.481   3.735
35721W        W 4139  24.706  29.001  10.416
35722W        W 4140  29.619   6.271  11.460
35723W        W 4141  26.682  32.089  12.959
35724W        W 4142  20.756   7.211   3.664
35725W        W 4143   8.807  24.115   1.245
35726W        W 4144  12.737   8.401   0.417
35727W        W 4145  25.177  15.201  14.309
35728W        W 4146  41.010  18.787  12.957
35729W        W 4147  20.155  38.897  10.089
35730W        W 4148  40.381  44.489   3.700
35731W        W 4149  32.942  18.110  11.890
35732W        W 4150  43.372  17.064  11.453
35733W        W 4151  13.792  22.197   0.837
35734W        W 4152   0.463  22.029  12.980
35735W        W 4153  26.957  10.232  10.544
35736W        W 4154  40.539  21.554   2.880
35737W        W 4155  36.049  29.156  12.875
35738W        W 4156  33.973  31.065   3.635
35739W        W 4157  30.452   1.731  11.987
35740W        W 4158   2.793  27.951  12.565
35741W        W 4159   4.820  39.823  12.961
35742W        W 4160   4.238  20.181   3.794
35743W        W 4161  28.496  20.212  14.366
35744W        W 4162   4.358  41.876  11.982
35745W        W 4163  31.567  24.563   4.608
35746W        W 4164  36.095  19.760   0.844
35747W        W 4165   6.797  11.165   1.875
35748W        W 4166  42.934  40.909   1.892
35749W        W 4167  10.244  38.952   0.418
35750W        W 4168  17.214  16.665   1.745
35751W        W 4169   5.435  26.671   4.284
35752W        W 4170   3.241  32.988   1.829
35753W        W 4171   9.230  41.357   5.278
35754W        W 4172   0.858  42.805   5.292
35755W        W 4173  27.014  31.602  13.953
35756W        W 4174  40.353   3.398  10.027
35757W        W 4175   8.729  30.529   2.745
35758W        W 4176  34.983  42.926  14.389
35759W        W 4177  17.256  28.088   2.179
35760W        W 4178  21.648  38.053   3.660
35761W        W 4179  19.771  13.769  10.490
35762W        W 4180  31.132  28.975   0.825
35763W        W 4181  15.246  30.647   4.828
35764W        W 4182  30.466  11.821  10.903
35765W        W 4183  13.152  10.664  11.011
35766W        W 4184  24.541  33.527   2.285
35767W        W 4185   1.915   2.931  13.334
35768W        W 4186   0.743   7.887  10.922
35769W        W 4187  12.308  14.208   2.408
35770W        W 4188  37.545  22.107   2.339
35771W        W 4189  32.609   6.265   4.792
35772W        W 4190  20.050  10.665  14.346
35773W        W 4191  22.533  28.166  11.938
35774W        W 4192  43.881  24.155   1.902
35775W        W 4193  12.660   7.798  10.452
35776W        W 4194  16.719  31.943   2.412
35777W        W 4195  41.886  25.635   4.783
35778W        W 4196  26.549  10.261  10.413
35779W        W 4197  40.495  16.142   1.753
35780W        W 4198  31.482  25.028   3.720
35781W        W 4199   0.917  20.544   4.297
35782W        W 4200  13.318   7.786   3.844
35783W        W 4201  19.744  24.075  13.062
35784W        W 4202  13.632   0.320  11.514
35785W        W 4203  24.995  42.453  12.569
35786W        W 4204  37.981  25.467  11.427
35787W        W 4205  26.551  33.520   3.145
35788W        W 4206  18.147   9.773   0.281
35789W        W 4207  20.162  42.484  10.964
35790W        W 4208  24.169  16.281   0.960
35791W        W 4209  35.574  27.512   0.735
35792W        W 4210  17.181  35.961   1.272
35793W        W 4211   7.789   6.266  13.343
35794W        W 4212  15.743  31.645   1.701
35795W        W 4213   9.392  32.939  14.501
35796W        W 4214  18.696  43.486   2.345
35797W        W 4215  14.188  16.300   3.283
35798W        W 4216  29.167   2.454  12.041
35799W        W 4217  39.374  10.722   2.732
35800W        W 4218  12.201  28.654  12.843
35801W        W 4219  35.536  31.441   4.615
35802W        W 4220  42.497  25.631  11.529
35803W        W 4221  38.842  39.513  11.121
35804W        W 4222  41.007   7.742   0.339
35805W        W 4223  19.575  31.059   1.847
35806W        W 4224   0.448  10.340   2.184
35807W        W 4225  23.670   0.308  11.505
35808W        W 4226  19.104  21.126  13.336
35809W        W 4227  22.243  36.985  11.886
35810W        W 4228   0.921  17.673  13.384
35811W        W 4229  36.393   1.461  11.958
35812W        W 4230  32.099   8.884  12.086
35813W        W 4231   0.324  12.818  13.536
35814W        W 4232   9.838  39.038   2.903
35815W        W 4233  26.622  38.988   3.260
35816W        W 4234   2.241   2.399  13.866
35817W        W 4235  11.640   2.904  13.414
35818W        W 4236  14.095  13.741  14.900
35819W        W 4237   6.786  17.175   0.369
35820W        W 4238  40.336  12.628  12.027
35821W        W 4239  32.897   6.848  13.379
35822W        W 4240  16.255  24.571   3.849
35823W        W 4241  25.203  32.430   1.813
35824W        W 4242  24.681  38.375   2.859
35825W        W 4243  25.047  38.946   3.386
35826W        W 4244  37.962  32.140   4.791
35827W        W 4245  19.171  40.924   3.381
35828W        W 4246  14.628   5.241   1.385
35829W        W 4247  31.926   3.372   0.479
35830W        W 4248  19.077  34.989  13.832
35831W        W 4249  31.933  24.721  12.094
35832W        W 4250   2.762  40.004  13.880
35833W        W 4251  31.981  14.741   1.416
35834W        W 4252   0.492  25.649   2.325
35835W        W 4253  24.612  29.528   0.728
35836W        W 4254  20.249  38.390  10.542
35837W        W 4255  25.185  35.549   0.294
35838W        W 4256  29.457  34.093   2.207
35839W        W 4257  12.843  12.648   2.706
35840W        W 4258  10.767  40.364   0.735
35841W        W 4259   2.761  42.811   4.768
35842W        W 4260   8.878   1.272   3.831
35843W        W 4261  29.603  32.630  10.593
35844W        W 4262  43.782  29.585   1.857
35845W        W 4263  27.191  44.410   1.276
35846W        W 4264   9.660   3.395  14.776
35847W        W 4265  43.388  44.400   3.379
35848W        W 4266  25.059  27.457   2.804
35849W        W 4267  23.698  15.711  13.514
35850W        W 4268  20.661  10.645  12.492
35851W        W 4269  25.215  40.881   1.703
35852W        W 4270  13.675  36.393   1.250
35853W        W 4271  30.931  40.438  14.791
35854W        W 4272  30.040  27.465  11.488
35855W        W 4273   5.210  11.229   4.289
35856W        W 4274  36.864  39.884  11.101
35857W        W 4275  35.371  34.942  10.443
35858W        W 4276  22.235  38.538  11.874
35859W        W 4277  22.129  19.565  12.052
35860W        W 4278  34.488  12.181   1.883
35861W        W 4279  29.106  32.003  13.805
35862W        W 4280  41.043  31.031   2.278
35863W        W 4281  13.197  20.050  11.592
35864W        W 4282  15.800   0.890  13.520
35865W        W 4283   0.960  41.377   3.329
35866W        W 4284   3.932  19.588   4.223
35867W        W 4285  16.274  31.085   2.367
35868W        W 4286  38.377   3.741  10.972
35869W        W 4287  20.258  11.162   1.782
35870W        W 4288  16.596   7.870   0.323
35871W        W 4289  29.968  44.903   4.727
35872W        W 4290  38.931  36.432  11.053
35873W        W 4291  44.754  15.812  13.336
35874W        W 4292  31.005  19.183   2.260
35875W        W 4293  13.609   6.761   0.366
35876W        W 4294  43.769  17.098  14.840
35877W        W 4295  23.530  14.161  12.083
35878W        W 4296  13.148  36.960  13.946
35879W        W 4297  10.353   6.761  14.418
35880W        W 4298  33.427  34.886  13.348
35881W        W 4299  35.876  12.714   3.338
35882W        W 4300  20.608  32.625   0.744
35883W        W 4301  32.612   2.853  14.774
35884W        W 4302  13.134  18.790  13.993
35885W        W 4303  38.868  31.564   3.385
35886W        W 4304  36.013  22.686   2.859
35887W        W 4305  14.214   9.188   3.816
35888W        W 4306  15.218  44.386   0.374
35889W        W 4307   3.771  24.668  10.944
35890W        W 4308  37.016  19.768  11.574
35891W        W 4309  31.472  40.523  11.067
35892W        W 4310  14.757  33.582   2.755
35893W        W 4311  12.650  28.551   1.213
35894W        W 4312   7.792  28.612  14.781
35895W        W 4313  27.076  40.044  13.509
35896W        W 4314  38.425  43.301   2.411
35897W        W 4315   6.386   1.962  11.556
35898W        W 4316  27.015   3.935  11.472
35899W        W 4317  21.600  25.704   3.796
35900W        W 4318  39.847  12.251   1.788
35901W        W 4319  12.303   3.276   3.232
35902W        W 4320  39.389  39.024   0.483
35903W        W 4321  24.688  35.380   2.887
35904W        W 4322   2.957   2.279   2.257
35905W        W 4323   9.683  21.519   2.894
35906W        W 4324   9.804  41.899  13.313
35907W        W 4325  23.150   3.324  14.957
35908W        W 4326  36.510  25.526   1.810
35909W        W 4327  38.958   8.233   2.779
35910W        W 4328  36.019  25.661  14.826
35911W        W 4329  35.081   4.770   3.811
35912W        W 4330  32.631  30.565  11.878
35913W        W 4331   7.812  20.622  12.342
35914W        W 4332  32.396   6.809  10.571
35915W        W 4333  22.674  42.310   1.715
35916W        W 4334  12.773  26.051  13.922
35917W        W 4335  42.831  23.104  12.931
35918W        W 4336  33.123  14.301  12.373
35919W        W 4337  32.943  25.492   3.325
35920W        W 4338  28.999  15.623   3.792
35921W        W 4339  27.065  28.025  12.070
35922W        W 4340  30.534  24.623   4.612
35923W        W 4341  25.591   3.753  14.020
35924W        W 4342   8.752   2.300  12.479
35925W        W 4343  34.099  20.680  14.819
35926W        W 4344   8.162  33.044  13.808
35927W        W 4345  36.072  29.584   3.826
35928W        W 4346  36.497  28.010   1.315
35929W        W 4347  36.004  14.197   1.816
35930W        W 4348  13.111  13.308  10.550
35931W        W 4349  30.644  30.495   0.815
35932W        W 4350  37.944  42.012  14.320
35933W        W 4351  40.953  24.575  13.546
35934W        W 4352   0.388  12.194   0.462
35935W        W 4353  19.126  22.628  11.372
35936W        W 4354   3.790  12.779  14.807
35937W        W 4355  30.435   9.790   3.652
35938W        W 4356  31.520  38.970  11.970
35939W        W 4357  12.642  23.664  10.584
35940W        W 4358  22.075   6.320  13.393
35941W        W 4359  28.955  37.941   0.955
35942W        W 4360   7.252  24.602   2.375
35943W        W 4361  25.970  31.432  11.518
35944W        W 4362   8.846  13.261  13.382
35945W        W 4363   6.411  35.529   4.199
35946W        W 4364   8.816  16.676  14.834
35947W        W 4365  21.678  44.472  11.554
35948W        W 4366  12.279  28.100   3.370
35949W        W 4367  15.742   2.872   2.351
35950W        W 4368  20.536   0.356  13.056
35951W        W 4369  18.753  26.130  14.802
35952W        W 4370  24.506  13.189   3.747
35953W        W 4371   9.322  19.261  13.386
35954W        W 4372  19.182  31.135   0.892
35955W        W 4373  18.619   5.309   1.234
35956W        W 4374  43.425  24.669   2.684
35957W        W 4375  38.925  33.091   4.685
35958W        W 4376  15.673  40.904   1.240
35959W        W 4377  13.743   6.905   2.292
35960W        W 4378  11.237  18.096  14.843
35961W        W 4379  30.515  24.536   1.388
35962W        W 4380  21.544  37.067   0.791
35963W        W 4381  15.704  31.494   0.475
35964W        W 4382  39.498  35.470   4.654
35965W        W 4383  37.957  34.072  11.935
35966W        W 4384  11.760  30.615   0.248
35967W        W 4385  12.612  36.977   2.238
35968W        W 4386   6.267  11.793   0.754
35969W        W 4387  43.460  11.642  10.077
35970W        W 4388  42.443  25.111   1.743
35971W        W 4389  32.543  43.807   3.300
35972W        W 4390  33.594  36.092  12.415
35973W        W 4391   1.916   6.405  10.438
35974W        W 4392  25.039  12.752  14.296
35975W        W 4393   9.835  19.687  11.426
35976W        W 4394  22.539  41.951   2.827
35977W        W 4395   7.895  18.623   4.185
35978W        W 4396  23.201   9.395  14.012
35979W        W 4397  32.587  36.894   0.790
35980W        W 4398  12.774  29.626  12.928
35981W        W 4399  44.835  39.340   5.654
35982W        W 4400   4.918  21.752  10.553
35983W        W 4401  18.686   6.273  12.400
35984W        W 4402  34.436  19.081   3.724
35985W        W 4403  38.045   0.761   3.724
35986W        W 4404   8.801  16.715   1.346
35987W        W 4405  18.210  44.972  12.413
35988W        W 4406   1.264  41.526   3.805
35989W        W 4407  19.703  35.888   4.304
35990W        W 4408   6.819  43.788   1.914
35991W        W 4409  31.005  14.786   4.241
35992W        W 4410  42.862  11.673   5.679
35993W        W 4411  30.626  29.918  13.976
35994W        W 4412  37.523  38.872   1.434
35995W        W 4413  30.048  37.889   4.290
35996W        W 4414  10.668  26.053  12.528
35997W        W 4415  26.491  23.017   0.900
35998W        W 4416  25.203  36.866  10.926
35999W        W 4417  25.666  24.143   4.300
36000W        W 4418  21.520  39.483   0.908
36001W        W 4419  38.505   0.919  13.433
36002W        W 4420  14.791   7.803   5.259
36003W        W 4421  40.407  33.588   2.407
36004W        W 4422   5.738   7.180   2.197
36005W        W 4423  42.360  21.245   2.318
36006W        W 4424  20.663  37.359   0.483
36007W        W 4425  16.647  29.443   4.618
36008W        W 4426  38.352   2.246   4.783
36009W        W 4427  25.606  23.644   2.299
36010W        W 4428  35.592  13.345   1.337
36011W        W 4429   3.874  44.797   1.260
36012W        W 4430  24.716  38.074  10.412
36013W        W 4431  28.961  37.339  12.925
36014W        W 4432   2.400  41.391  13.494
36015W        W 4433   9.215   0.248   4.244
36016W        W 4434  30.047  32.984  14.363
36017W        W 4435  13.195   8.401  12.096
36018W        W 4436   1.814   7.189   2.793
36019W        W 4437  33.506   4.729  13.414
36020W        W 4438   8.801  43.899   3.356
36021W        W 4439  23.501  18.070  10.592
36022W        W 4440  21.667  10.192   4.754
36023W        W 4441  38.374   8.272  12.919
36024W        W 4442  44.979  38.901  12.901
36025W        W 4443   0.905  36.023  11.495
36026W        W 4444  12.236  38.356   3.687
36027W        W 4445  38.939  35.040   4.336
36028W        W 4446   8.694  14.163  14.957
36029W        W 4447  18.222  44.905  14.977
36030W        W 4448   7.700  14.172  13.475
36031W        W 4449  28.141  25.164  14.334
36032W        W 4450   4.741  38.526   1.828
36033W        W 4451  20.618  23.037   2.237
36034W        W 4452   7.845  31.624   3.684
36035W        W 4453   2.945  18.718  12.878
36036W        W 4454   8.394  19.569  13.954
36037W        W 4455   7.826  15.722   0.372
36038W        W 4456  43.868  12.698   4.644
36039W        W 4457  10.141   9.393  12.507
36040W        W 4458   3.883  27.072  12.375
36041W        W 4459  12.158  35.054   3.335
36042W        W 4460  12.617  11.692  14.940
36043W        W 4461  21.195  10.841   4.202
36044W        W 4462  38.378  21.094  10.591
36045W        W 4463  42.281  13.274   2.394
36046W        W 4464  19.701  30.071  11.083
36047W        W 4465   9.730  37.520   1.807
36048W        W 4466  24.494  11.261   0.832
36049W        W 4467  33.119   0.369  13.436
36050W        W 4468  41.421  15.580  11.089
36051W        W 4469  42.395  16.683   2.765
36052W        W 4470   3.803  41.326   4.344
36053W        W 4471  44.771  36.491   2.671
36054W        W 4472   7.403  25.178  14.803
36055W        W 4473  42.962  30.003  10.920
36056W        W 4474  38.403   6.885  13.393
36057W        W 4475   8.367  15.171  11.928
36058W        W 4476  28.589  25.030  11.967
36059W        W 4477  25.572  33.889   4.791
36060W        W 4478  38.848  41.887   4.210
36061W        W 4479  33.431  32.991  11.050
36062W        W 4480  31.558  32.569   0.440
36063W        W 4481   7.838   0.256   2.182
36064W        W 4482  31.938  28.003   2.757
36065W        W 4483   8.682  16.135  11.389
36066W        W 4484  33.012  20.636  13.859
36067W        W 4485  22.114  13.108  11.112
36068W        W 4486  34.606   6.256  12.562
36069W        W 4487  34.537  14.832  12.970
36070W        W 4488  10.659  16.313  14.972
36071W        W 4489  15.267   4.880   4.252
36072W        W 4490   8.367  14.681  13.993
36073W        W 4491   2.295  13.152   1.756
36074W        W 4492  23.065  33.561   1.304
36075W        W 4493  36.486  23.533  11.428
36076W        W 4494  26.459  20.130  14.429
36077W        W 4495   2.924  17.715   0.922
36078W        W 4496  30.958  13.324  11.016
36079W        W 4497   5.774   9.649   0.302
36080W        W 4498  39.456  40.449  11.489
36081W        W 4499  28.044  26.137  10.995
36082W        W 4500  26.623   8.706  11.892
36083W        W 4501  12.337  28.990   1.927
36084W        W 4502   4.317   7.320   2.247
36085W        W 4503  14.636   7.265  10.008
36086W        W 4504   2.873   8.266  11.591
36087W        W 4505  11.745  40.346  10.430
36088W        W 4506  28.932  39.891  11.008
36089W        W 4507  28.942   9.817  14.802
36090W        W 4508  21.528  26.141   5.263
36091W        W 4509   3.732  33.099  12.532
36092W        W 4510  10.189  26.526   3.217
36093W        W 4511   2.467  41.316  10.057
36094W        W 4512  31.606  29.144  11.076
36095W        W 4513  38.846   2.290  10.615
36096W        W 4514  17.190   7.697   0.438
36097W        W 4515  41.952  40.862   3.161
36098W        W 4516  38.508  20.137  10.999
36099W        W 4517  42.305   8.752  10.616
36100W        W 4518   1.746  33.957  11.390
36101W        W 4519  32.579  15.316   0.343
36102W        W 4520  30.023  32.922   2.851
36103W        W 4521  39.886  11.759  12.460
36104W        W 4522  39.986  31.646  13.879
36105W        W 4523  38.374   2.402  12.980
36106W        W 4524   6.765   4.254  14.817
36107W        W 4525  11.646  15.181  14.819
36108W        W 4526  34.517  19.582   3.727
36109W        W 4527  39.921  27.508   1.251
36110W        W 4528  23.520  36.986   2.366
36111W        W 4529   8.788  11.778   1.286
36112W        W 4530  37.500   2.876  11.439
36113W        W 4531  39.515   4.776  13.031
36114W        W 4532  16.763   0.789  11.889
36115W        W 4533   7.904   2.726   1.331
36116W        W 4534  14.220  40.858   0.786
36117W        W 4535   6.811  25.068   0.311
36118W        W 4536   2.916   6.813   1.795
36119W        W 4537  26.166   4.261  12.955
36120W        W 4538  33.588  42.308  12.359
36121W        W 4539   2.363  38.018  10.458
36122W        W 4540  28.127   8.896  12.960
36123W        W 4541  20.572   9.651   4.335
36124W        W 4542  13.699   3.898   1.921
36125W        W 4543  23.575   0.863  11.475
36126W        W 4544  21.225  11.217  12.892
36127W        W 4545  35.381  32.105  13.439
36128W        W 4546   4.414   1.847   1.898
36129W        W 4547  30.135  24.498  14.796
36130W        W 4548  31.570  36.452   0.778
36131W        W 4549  16.645  11.244   0.906
36132W        W 4550  36.098  22.594   1.724
36133W        W 4551  28.603   3.838   0.417
36134W        W 4552   7.737  31.595  10.639
36135W        W 4553  42.831  10.375  12.011
36136W        W 4554  36.851   2.357  11.042
36137W        W 4555  24.092  44.990   4.114
36138W        W 4556  16.184   5.877  12.564
36139W        W 4557  16.079  40.525  14.446
36140W        W 4558  14.804  39.905   3.340
36141W        W 4559  44.413  19.571  14.498
36142W        W 4560  21.619  29.499  12.892
36143W        W 4561  31.468  12.725   2.399
36144W        W 4562  38.847  16.666   1.376
36145W        W 4563  18.256  36.490  12.830
36146W        W 4564  11.295  41.865   1.717
36147W        W 4565   6.399  11.176   3.770
36148W        W 4566  27.012  23.109   1.261
36149W        W 4567   9.343  23.730  12.071
36150W        W 4568  44.441  22.156   3.186
36151W        W 4569  37.341   6.408   4.351
36152W        W 4570  12.706   7.255  13.885
36153W        W 4571   8.684   3.339   2.749
36154W        W 4572  26.996   5.911  11.898
36155W        W 4573  39.559  33.931   2.753
36156W        W 4574  26.625  18.651  14.406
36157W        W 4575   8.261  43.388  13.525
36158W        W 4576  22.116  20.031  10.591
36159W        W 4577  41.441  11.848  13.507
36160W        W 4578   6.343   5.893   2.726
36161W        W 4579   6.230  21.143  12.528
36162W        W 4580  41.461  41.941  13.869
36163W        W 4581  21.085   1.736  14.003
36164W        W 4582  18.225  41.815  13.901
36165W        W 4583   3.432  22.026   4.740
36166W        W 4584   5.809   7.797   3.337
36167W        W 4585  44.410   9.358   3.856
36168W        W 4586  17.300  35.511   0.899
36169W        W 4587  18.065  38.977  14.909
36170W        W 4588   0.423   7.374  13.794
36171W        W 4589  10.728  12.841  13.380
36172W        W 4590  11.758  20.624   3.368
36173W        W 4591   0.974  34.534  11.491
36174W        W 4592  25.119  20.225  14.010
36175W        W 4593  19.631  28.106  13.875
36176W        W 4594  12.289  13.344   3.273
36177W        W 4595  29.078  38.556  13.355
36178W        W 4596   8.670   9.843  12.387
36179W        W 4597  24.604  15.220  13.510
36180W        W 4598  25.621  41.361   2.262
36181W        W 4599  38.373  25.178  11.975
36182W        W 4600  17.238  36.481  14.447
36183W        W 4601  26.994   5.812  14.491
36184W        W 4602   9.848  16.716   2.666
36185W        W 4603  28.601  41.792  12.509
36186W        W 4604  20.169   6.392  10.594
36187W        W 4605  25.503  30.553   1.737
36188W        W 4606  11.367  21.129  14.856
36189W        W 4607  40.853  15.198  14.381
36190W        W 4608  14.737   6.326  11.458
36191W        W 4609  30.418   7.701  11.560
36192W        W 4610  10.870   0.925  13.423
36193W        W 4611  38.456  10.859   3.700
36194W        W 4612  16.747  22.530  12.505
36195W        W 4613  19.260  18.706  11.601
36196W        W 4614  44.485  13.146  14.969
36197W        W 4615  41.304  44.422   3.724
36198W        W 4616   0.963  32.428  10.933
36199W        W 4617  19.265  14.139  11.112
36200W        W 4618  28.026   5.728  10.050
36201W        W 4619  27.633  22.641   3.339
36202W        W 4620  26.095  25.663  12.046
36203W        W 4621  18.709  26.606  10.956
36204W        W 4622  18.725  40.501  14.486
36205W        W 4623   8.801  43.902  12.529
36206W        W 4624  23.491  33.924  11.051
36207W        W 4625  26.200  12.701  13.951
36208W        W 4626  10.250  34.571  11.608
36209W        W 4627  27.940  33.052   3.205
36210W        W 4628  20.201  35.916  11.085
36211W        W 4629  21.062  22.586   4.785
36212W        W 4630  23.730  38.823  10.138
36213W        W 4631   8.824  15.622  11.395
36214W        W 4632  44.421  15.265  13.460
36215W        W 4633  42.875  35.006   1.309
36216W        W 4634  40.963  39.936   4.171
36217W        W 4635  34.432   9.149  10.628
36218W        W 4636  21.608  43.908  13.501
36219W        W 4637  38.563  10.335   4.198
36220W        W 4638  39.438  37.003   2.728
36221W        W 4639  12.324  29.072   2.397
36222W        W 4640  43.455  40.994  13.372
36223W        W 4641   8.371   1.859  12.012
36224W        W 4642  26.640   8.375   2.862
36225W        W 4643  37.014  37.910   1.882
36226W        W 4644   4.795  23.616   9.981
36227W        W 4645  18.635   8.358   4.194
36228W        W 4646  38.877   1.806  14.493
36229W        W 4647  31.954  23.173   2.397
36230W        W 4648  20.584  21.213   0.259
36231W        W 4649  40.491  19.660  11.518
36232W        W 4650  42.972  19.149  13.504
36233W        W 4651  14.797  14.726  11.572
36234W        W 4652   3.916   7.835   3.728
36235W        W 4653  35.889  44.897  10.610
36236W        W 4654   0.399   2.767  13.473
36237W        W 4655   7.882   9.821   1.256
36238W        W 4656  22.207  20.259  11.914
36239W        W 4657  25.468   3.769   0.302
36240W        W 4658  32.043  17.742  11.872
36241W        W 4659  29.599  23.593  12.834
36242W        W 4660  13.187   3.722  13.442
36243W        W 4661  26.049  28.077  10.499
36244W        W 4662  33.924  15.623   2.195
36245W        W 4663   1.870   2.854   2.804
36246W        W 4664  21.031  29.661   4.156
36247W        W 4665  41.833  29.537   3.643
36248W        W 4666   7.341   8.798   4.633
36249W        W 4667  10.206  38.947   3.644
36250W        W 4668  38.001  12.240  11.042
36251W        W 4669  43.016  10.832   0.433
36252W        W 4670  20.637  29.923   0.787
36253W        W 4671  44.923  35.859  11.015
36254W        W 4672  14.623  36.584  11.111
36255W        W 4673   5.360   8.208   1.860
36256W        W 4674  31.106  42.288   0.882
36257W        W 4675   9.273   2.792   0.846
36258W        W 4676  20.618  26.062   0.305
36259W        W 4677  44.818  16.618  10.490
36260W        W 4678  19.200  44.381   0.899
36261W        W 4679   7.317  16.274  11.950
36262W        W 4680   7.889  16.196   1.890
36263W        W 4681   4.840  16.213  11.876
36264W        W 4682   4.707  26.525  13.919
36265W        W 4683  25.152   2.415  13.044
36266W        W 4684  26.644  10.799  14.798
36267W        W 4685  26.694   2.882   2.696
36268W        W 4686  36.930  17.163   2.243
36269W        W 4687  43.904   2.827  12.427
36270W        W 4688  31.011  29.503   2.373
36271W        W 4689   9.728  18.077   0.790
36272W        W 4690  28.985  10.238  13.459
36273W        W 4691  39.333   6.229   0.910
36274W        W 4692  17.280  20.084   3.832
36275W        W 4693   7.868  42.818   2.269
36276W        W 4694  16.207  18.763  12.890
36277W        W 4695  17.661  16.653   1.712
36278W        W 4696  32.996  24.502   4.302
36279W        W 4697  20.118   5.909   2.370
36280W        W 4698  32.399  34.084  14.948
36281W        W 4699  11.729  11.346  10.922
36282W        W 4700  40.855  19.088  14.797
36283W        W 4701  28.963  18.096  14.416
36284W        W 4702  10.740  28.946   0.281
36285W        W 4703  38.823   7.317   4.776
36286W        W 4704  15.612  31.605  13.475
36287W        W 4705  24.015  11.331  12.369
36288W        W 4706  33.031  41.878   2.284
36289W        W 4707  11.829  12.758  10.119
36290W        W 4708   6.329   7.806  11.881
36291W        W 4709  40.910  39.497  14.995
36292W        W 4710   3.781  44.928   3.841
36293W        W 4711  34.868  16.598  12.839
36294W        W 4712  42.990   3.866  13.432
36295W        W 4713  31.082  36.491  12.050
36296W        W 4714  34.442  14.166  14.361
36297W        W 4715  41.323  37.948   2.764
36298W        W 4716   6.730  18.207   1.732
36299W        W 4717  22.028  42.330   0.836
36300W        W 4718  36.923   9.267   2.850
36301W        W 4719  30.440   5.425  14.276
36302W        W 4720   8.234  16.119   0.887
36303W        W 4721  24.566  16.226  13.507
36304W        W 4722  18.740  14.744  10.082
36305W        W 4723  35.575  30.014  11.509
36306W        W 4724  40.376  11.225   2.771
36307W        W 4725  19.642   7.406   4.199
36308W        W 4726  16.311   2.267   0.744
36309W        W 4727  30.152  17.635   4.132
36310W        W 4728   6.750   4.232   2.412
36311W        W 4729  30.603  33.904   1.371
36312W        W 4730  15.613  42.778  10.482
36313W        W 4731  42.474  34.979   2.190
36314W        W 4732  11.128  31.139  14.929
36315W        W 4733   3.743   8.284  10.935
36316W        W 4734  31.511  39.817  11.118
36317W        W 4735  21.643   7.700  10.980
36318W        W 4736  30.475  27.537  14.840
36319W        W 4737  19.153  24.028  13.820
36320W        W 4738  39.553   1.865  12.574
36321W        W 4739  25.153   0.961  13.520
36322W        W 4740   7.724  17.110   9.958
36323W        W 4741  43.422  26.698  12.551
36324W        W 4742  41.528  34.987  11.394
36325W        W 4743  11.691   0.896   3.298
36326W        W 4744  21.563  12.697  13.813
36327W        W 4745   5.796  37.495   3.333
36328W        W 4746  36.524  20.642   4.149
36329W        W 4747   1.905  39.853  11.093
36330W        W 4748  17.167  32.547  14.018
36331W        W 4749  39.990  21.144  11.590
36332W        W 4750   2.756   1.445  14.811
36333W        W 4751  38.944  26.696  13.884
36334W        W 4752  12.206  39.483   1.755
36335W        W 4753   6.334   2.280   3.802
36336W        W 4754   0.476  37.065   3.336
36337W        W 4755  42.327  15.747   3.716
36338W        W 4756  40.386   1.786   4.230
36339W        W 4757  38.916  16.147  10.504
36340W        W 4758  42.369  29.002   3.655
36341W        W 4759   1.858  13.148   0.297
36342W        W 4760  44.781  44.296   1.332
36343W        W 4761  26.604  34.608   5.224
36344W        W 4762  37.907  20.086  11.974
36345W        W 4763   2.422  14.242   3.679
36346W        W 4764   4.425   8.239   1.416
36347W        W 4765  27.129   8.178   3.320
36348W        W 4766   3.224  37.906  12.907
36349W        W 4767  12.803  43.780   0.464
36350W        W 4768  21.229  38.823   1.787
36351W        W 4769  17.281  26.152   1.253
36352W        W 4770  13.188   8.787  13.826
36353W        W 4771  22.736  11.701   2.758
36354W        W 4772   0.358  30.578  13.838
36355W        W 4773  30.424   7.884   1.705
36356W        W 4774  19.691  27.944  12.448
36357W        W 4775  33.053  26.076  14.429
36358W        W 4776   7.698   1.786  14.015
36359W        W 4777   3.359  35.459   0.762
36360W        W 4778   4.701  29.031   1.344
36361W        W 4779  36.578  20.156   1.852
36362W        W 4780  37.373  38.076   3.703
36363W        W 4781   7.830  38.966   1.918
36364W        W 4782  15.311  33.896   4.143
36365W        W 4783  31.907  12.659   4.809
36366W        W 4784  21.066  29.089  11.525
36367W        W 4785   9.340  41.035  14.492
36368W        W 4786  24.160   1.250  14.786
36369W        W 4787   6.754  43.003  13.489
36370W        W 4788  31.106  29.959   3.766
36371W        W 4789  40.427  13.154   2.303
36372W        W 4790  19.203  29.023  13.846
36373W        W 4791  11.727  41.521   4.312
36374W        W 4792  39.507   9.351  14.444
36375W        W 4793   3.819   2.341  12.860
36376W        W 4794  27.164  40.802   1.428
36377W        W 4795   0.290  34.961  11.582
36378W        W 4796  40.357  42.514  11.082
36379W        W 4797  38.365  18.250   2.723
36380W        W 4798  20.571  37.028  14.339
36381W        W 4799  35.014   9.643   1.403
36382W        W 4800  28.674   4.390  11.010
36383W        W 4801   6.285  12.809   4.174
36384W        W 4802  24.071   5.691  12.057
36385W        W 4803  22.741  28.059  12.848
36386W        W 4804  39.365   6.904   1.385
36387W        W 4805  31.612  24.224   0.349
36388W        W 4806  11.161  10.267  13.933
36389W        W 4807   2.262   7.352  12.418
36390W        W 4808   3.920  10.668   2.680
36391W        W 4809  25.164  42.400  11.988
36392W        W 4810  35.004  37.960   3.698
36393W        W 4811  15.629  20.190   2.750
36394W        W 4812  25.014  21.146  11.111
36395W        W 4813  24.523  39.480   1.806
36396W        W 4814  31.520   7.901   1.813
36397W        W 4815  44.318  40.854  11.957
36398W        W 4816  27.684  39.860  11.521
36399W        W 4817  24.110  13.335  13.052
36400W        W 4818  34.050  16.706  14.326
36401W        W 4819  19.122   3.840  14.426
36402W        W 4820   2.427  36.966  14.505
36403W        W 4821  31.030  43.391  13.503
36404W        W 4822  14.254   4.818   4.298
36405W        W 4823  16.606   4.885   9.977
36406W        W 4824  34.086  38.003   0.781
36407W        W 4825  25.640  20.612   3.191
36408W        W 4826  38.388  23.546   2.219
36409W        W 4827  34.580   8.266  10.579
36410W        W 4828  43.930  11.776   0.467
36411W        W 4829  14.732   0.746  11.041
36412W        W 4830   9.271  30.107  12.090
36413W        W 4831   8.227   7.309  11.524
36414W        W 4832  23.515  17.093   1.818
36415W        W 4833   8.241  32.603   2.881
36416W        W 4834  37.927  39.468  10.449
36417W        W 4835  34.905  37.020  11.444
36418W        W 4836   2.279  28.960  12.890
36419W        W 4837  26.005  15.607   4.777
36420W        W 4838  21.118  27.951   5.111
36421W        W 4839  42.364  22.129  10.981
36422W        W 4840  26.970  26.540  12.571
36423W        W 4841  44.305  13.742  14.965
36424W        W 4842  11.740   5.770   4.235
36425W        W 4843  25.499   6.891  14.314
36426W        W 4844  30.108   8.341   1.842
36427W        W 4845  18.699  13.627  14.937
36428W        W 4846   7.847   6.245  10.897
36429W        W 4847   2.456  23.702   2.213
36430W        W 4848  28.168   7.887   3.705
36431W        W 4849  19.220  19.633  11.524
36432W        W 4850  34.965  23.646  14.487
36433W        W 4851  35.094  18.729  13.459
36434W        W 4852  12.360   9.153  13.490
36435W        W 4853   9.789  12.823  12.880
36436W        W 4854  41.356  44.850  10.899
36437W        W 4855  41.484  28.179   0.331
36438W        W 4856   8.868   8.656   3.681
36439W        W 4857   1.315  42.798   1.369
36440W        W 4858  24.139  29.481   2.877
36441W        W 4859  37.881   2.813   1.714
36442W        W 4860  14.600  24.507  13.822
36443W        W 4861  12.640  31.570  12.001
36444W        W 4862   5.264  16.318   4.811
36445W        W 4863  17.667   8.725   1.402
36446W        W 4864  37.830  34.519  13.430
36447W        W 4865  22.018  42.466  12.016
36448W        W 4866   8.291  10.269   4.609
36449W        W 4867  18.704  17.097  11.023
36450W        W 4868  14.136   6.813   0.298
36451W        W 4869  41.351  15.283  13.807
36452W        W 4870  38.450  21.647   3.171
36453W        W 4871  29.981  34.962   4.668
36454W        W 4872  23.014  12.137   2.266
36455W        W 4873   1.742  34.017  14.979
36456W        W 4874  12.851  41.380   3.299
36457W        W 4875  30.645  42.886   3.732
36458W        W 4876  14.823  14.687  13.897
36459W        W 4877   0.388  14.605   1.362
36460W        W 4878   0.249  40.386  10.445
36461W        W 4879   9.356  25.620  12.861
36462W        W 4880  30.985  25.682  11.956
36463W        W 4881  42.432   5.213  10.520
36464W        W 4882   9.389  35.871   1.377
36465W        W 4883  35.887  37.370   4.316
36466W        W 4884   6.783   2.923  14.778
36467W        W 4885   0.257  10.233  12.080
36468W        W 4886  10.776  20.720  12.974
36469W        W 4887  42.456   5.356   2.891
36470W        W 4888   8.379  42.911  11.068
36471W        W 4889   3.869   7.226   1.442
36472W        W 4890  31.636  31.028  11.536
36473W        W 4891  18.785  10.154  11.935
36474W        W 4892  44.312  27.548   1.909
36475W        W 4893  19.684  29.497   0.866
36476W        W 4894   3.774  23.151   4.651
36477W        W 4895  33.603  19.259  10.979
36478W        W 4896  16.092  44.862   4.257
36479W        W 4897  27.679   2.785  11.043
36480W        W 4898   0.820  25.646   3.335
36481W        W 4899  14.716  21.166   0.407
36482W        W 4900   7.751   0.471  12.560
36483W        W 4901  31.970  28.674  14.792
36484W        W 4902  24.495  23.093  14.381
36485W        W 4903  19.094  12.624  12.382
36486W        W 4904  11.795  38.512  13.309
36487W        W 4905  14.199   9.878  12.920
36488W        W 4906  30.444  27.948  12.576
36489W        W 4907  11.656   8.263   0.924
36490W        W 4908  42.481  30.014  13.015
36491W        W 4909   8.405  16.279  14.835
36492W        W 4910   7.295  32.429  10.939
36493W        W 4911   4.748  11.643   4.827
36494W        W 4912  14.807   0.341   1.798
36495W        W 4913  27.118  31.117   1.862
36496W        W 4914  32.913  20.228  11.387
36497W        W 4915  19.239  33.029  13.470
36498W        W 4916   5.853  44.957  14.430
36499W        W 4917   5.886  11.190  12.884
36500W        W 4918   4.913  28.601   0.244
36501W        W 4919  20.274  16.725  10.565
36502W        W 4920  25.014   0.371   1.444
36503W        W 4921   8.375  32.400   0.933
36504W        W 4922  28.550  34.503   3.790
36505W        W 4923  42.868   2.903  10.608
36506W        W 4924  14.805  25.497   2.239
36507W        W 4925  29.973  22.147  12.087
36508W        W 4926  37.437  37.498  12.463
36509W        W 4927  25.560  22.100   0.300
36510W        W 4928  20.688  32.116   4.247
36511W        W 4929   1.873  10.675  13.999
36512W        W 4930  40.402   8.703   0.946
36513W        W 4931  19.076  35.920   2.276
36514W        W 4932  41.519   1.832  13.542
36515W        W 4933   9.258   8.852   2.260
36516W        W 4934  42.375  44.480   1.339
36517W        W 4935  43.291  17.602   3.799
36518W        W 4936  16.652  18.640   3.782
36519W        W 4937  28.161  14.659   2.788
36520W        W 4938   4.887   2.831  13.349
36521W        W 4939  33.897   4.848  10.468
36522W        W 4940  44.942   8.269   3.222
36523W        W 4941  44.323  20.139   4.180
36524W        W 4942  40.419  32.586   3.696
36525W        W 4943   5.894  37.416  12.940
36526W        W 4944  30.110  31.411  12.472
36527W        W 4945  37.009  19.060   2.900
36528W        W 4946  28.934  15.818  12.395
36529W        W 4947  23.106  10.839   3.313
36530W        W 4948  42.924  10.332  11.026
36531W        W 4949   0.310  21.642  13.048
36532W        W 4950  10.691   7.373  14.963
36533W        W 4951  13.658  19.559  12.970
36534W        W 4952   0.823  40.511   0.966
36535W        W 4953  38.880  21.654   4.672
36536W        W 4954  11.773  15.313  14.306
36537W        W 4955  36.863  27.075  13.495
36538W        W 4956  22.082  39.526   4.667
36539W        W 4957  15.249  17.669  11.122
36540W        W 4958  44.888  43.011   1.320
36541W        W 4959   8.885  33.922   1.273
36542W        W 4960  29.950  19.192  11.907
36543W        W 4961  30.590  38.852  10.482
36544W        W 4962  44.976  40.475  11.034
36545W        W 4963   4.902   0.441   4.202
36546W        W 4964  29.571  40.986  12.442
36547W        W 4965  23.208  36.913   4.317
36548W        W 4966  21.175  10.329   0.256
36549W        W 4967  39.972   1.825   3.815
36550W        W 4968  40.539  41.022  13.047
36551W        W 4969  26.624  19.158   2.373
36552W        W 4970  12.296  21.201  14.840
36553W        W 4971   3.228   9.318  13.964
36554W        W 4972  42.453   5.777  13.452
36555W        W 4973  16.580  33.034  10.421
36556W        W 4974  15.591  41.032  11.990
36557W        W 4975  44.928  23.725   1.417
36558W        W 4976  27.181  22.695  13.908
36559W        W 4977   2.879  25.693   3.748
36560W        W 4978  23.056  39.321  11.112
36561W        W 4979  24.672  26.984   0.895
36562W        W 4980   2.812  40.474   1.823
36563W        W 4981   1.469  43.912  13.487
36564W        W 4982  29.048  10.254   1.319
36565W        W 4983  17.143  28.066   2.786
36566W        W 4984  42.361  28.120  13.854
36567W        W 4985  39.913  11.655  13.014
36568W        W 4986  40.530  21.611   3.269
36569W        W 4987  22.091  42.962  13.882
36570W        W 4988   4.923   7.881   0.879
36571W        W 4989  21.213  44.395   5.315
36572W        W 4990   9.692  20.602  13.441
36573W        W 4991   3.888  33.603  14.761
36574W        W 4992  29.122  16.736  13.861
36575W        W 4993   3.360  10.194   0.462
36576W        W 4994   4.884   0.961   1.282
36577W        W 4995  11.258   1.253   1.242
36578W        W 4996  24.535   4.245   1.910
36579W        W 4997   2.423  36.924   0.854
36580W        W 4998  40.452  32.469   0.821
36581W        W 4999  36.958  17.076  14.846
36582W        W 5000  11.222   3.952   0.731
36583W        W 5001  43.326  23.697   2.240
36584W        W 5002  35.388  33.043  11.969
36585W        W 5003  31.472   6.293  10.446
36586W        W 5004  40.398  38.994  10.612
36587W        W 5005  14.314  20.149  11.587
36588W        W 5006   0.950  19.558   4.658
36589W        W 5007   3.931   6.410  11.478
36590W        W 5008   0.296   0.487  12.824
36591W        W 5009   6.268  34.506   0.899
36592W        W 5010  41.954   7.306   0.479
36593W        W 5011  40.841  35.955  13.946
36594W        W 5012   2.343  41.798   3.295
36595W        W 5013  37.564  15.767  11.584
36596W        W 5014   7.784  41.495   3.777
36597W        W 5015   9.855  16.704  10.543
36598W        W 5016   3.414  29.036  11.409
36599W        W 5017  21.043  34.472   1.710
36600W        W 5018  16.304  15.231  13.369
36601W        W 5019  29.105  19.663  12.044
36602W        W 5020  14.680  10.344  11.541
36603W        W 5021  27.073  18.252  13.848
36604W        W 5022  29.494   0.350   2.330
36605W        W 5023  30.548   0.984  14.883
36606W        W 5024  11.762  15.235  13.416
36607W        W 5025  10.786  18.253   0.816
36608W        W 5026   4.717  11.337  13.816
36609W        W 5027   4.371  22.117   0.927
36610W        W 5028  28.177   1.928   2.675
36611W        W 5029   3.450  44.856   2.186
36612W        W 5030  40.512  13.604   1.783
36613W        W 5031  13.659  25.573  12.383
36614W        W 5032  42.789  36.907   3.734
36615W        W 5033  17.235  34.030  13.311
36616W        W 5034  24.053  41.006  12.580
36617W        W 5035  28.520   9.671  11.122
36618W        W 5036   3.258  23.024   3.316
36619W        W 5037  33.552  16.134   0.277
36620W        W 5038  38.960  27.198  12.071
36621W        W 5039  16.569  43.350  12.002
36622W        W 5040   5.765  25.587  14.414
36623W        W 5041  14.161   9.814  13.437
36624W        W 5042   7.188   3.799   0.960
36625W        W 5043  28.173  38.998  14.881
36626W        W 5044  40.492   4.450  13.368
36627W        W 5045  24.717  42.030  10.995
36628W        W 5046   0.895  20.167   5.669
36629W        W 5047   9.329  16.752   3.314
36630W        W 5048   2.725  30.101  13.935
36631W        W 5049  22.192   9.664  11.025
36632W        W 5050  35.393  39.910   4.121
36633W        W 5051  12.222  17.106   1.445
36634W        W 5052  30.111  44.923  10.575
36635W        W 5053  18.145  12.153  13.048
36636W        W 5054  13.251   6.761  14.927
36637W        W 5055  39.409  16.699  11.581
36638W        W 5056  33.936  15.732   1.296
36639W        W 5057  40.849  22.199   1.220
36640W        W 5058  18.745  44.366  13.414
36641W        W 5059  36.020  29.554  14.987
36642W        W 5060  37.364  10.317   0.458
36643W        W 5061  16.160   4.360   0.966
36644W        W 5062  40.006  12.669  11.023
36645W        W 5063  12.763   4.435   0.312
36646W        W 5064  25.701  11.182  14.496
36647W        W 5065  37.068  19.629  10.630
36648W        W 5066  24.186  12.848  10.055
36649W        W 5067  22.571   7.281  11.429
36650W        W 5068  38.505  15.659   2.776
36651W        W 5069  41.468   8.764   4.742
36652W        W 5070  41.886  12.705   3.663
36653W        W 5071  23.135  19.692  12.418
36654W        W 5072   2.440  37.855   0.759
36655W        W 5073  13.639  14.601   0.414
36656W        W 5074  14.316  20.609   1.370
36657W        W 5075  40.345  19.594   9.939
36658W        W 5076  24.569  34.925  11.405
36659W        W 5077  22.032  11.248   1.339
36660W        W 5078  36.971  34.022   2.303
36661W        W 5079   0.383   1.971  13.812
36662W        W 5080   1.279   0.454  13.834
36663W        W 5081   3.835  12.198   0.473
36664W        W 5082  14.666  40.473  13.324
36665W        W 5083  19.224  19.574   0.281
36666W        W 5084  33.599  29.559  11.863
36667W        W 5085  19.701   2.818  13.897
36668W        W 5086  42.872  21.738  12.025
36669W        W 5087  14.605   1.281   4.256
36670W        W 5088  27.056  36.056   3.664
36671W        W 5089  35.858  37.561   2.844
36672W        W 5090  43.454   6.727   4.348
36673W        W 5091  19.239  34.504   0.936
36674W        W 5092   7.276  20.663  12.017
36675W        W 5093  27.684  39.995   3.670
36676W        W 5094   6.183  28.658  14.017
36677W        W 5095  33.886  16.254   4.726
36678W        W 5096  37.525  23.691   3.711
36679W        W 5097   8.388  12.277  11.977
36680W        W 5098  40.345   9.277   2.899
36681W        W 5099  40.491  28.146  11.393
36682W        W 5100  42.960   1.904  10.981
36683W        W 5101  17.675  44.756   1.797
36684W        W 5102   7.772  35.560  11.104
36685W        W 5103   7.405   8.232  14.407
36686W        W 5104  12.273   4.770  12.848
36687W        W 5105   1.363  31.453   4.284
36688W        W 5106  21.220   0.868   4.203
36689W        W 5107  16.805  43.358   3.725
36690W        W 5108  22.059  18.225   4.767
36691W        W 5109  30.508  30.098   4.305
36692W        W 5110  35.867  37.904   3.300
36693W        W 5111  39.557  10.156   2.361
36694W        W 5112  30.091  39.392  14.473
36695W        W 5113  19.635  38.027   4.673
36696W        W 5114   1.471  12.754  13.424
36697W        W 5115   4.366   7.211  13.334
36698W        W 5116  41.528  25.085  14.963
36699W        W 5117   3.726   8.353   0.379
36700W        W 5118  21.724  17.281   1.238
36701W        W 5119  22.240   4.224   0.794
36702W        W 5120  34.592  28.546   2.716
36703W        W 5121   6.688  39.557  14.762
36704W        W 5122  33.945  23.533   0.312
36705W        W 5123  16.220  25.972   3.765
36706W        W 5124   9.253  42.786  12.437
36707W        W 5125   0.375  30.645  14.899
36708W        W 5126  23.730   8.240   2.388
36709W        W 5127  33.034  38.979  13.794
36710W        W 5128   5.388  38.428   3.676
36711W        W 5129   9.703  23.988  10.471
36712W        W 5130   4.730   0.402   3.186
36713W        W 5131  27.196  41.426  10.593
36714W        W 5132  18.075  25.518   3.698
36715W        W 5133  41.942  13.738  11.916
36716W        W 5134  29.527  27.101  10.584
36717W        W 5135  31.439  15.702  11.524
36718W        W 5136  35.056  31.986  14.867
36719W        W 5137  25.198  43.836  11.583
36720W        W 5138  19.204  37.074   3.833
36721W        W 5139  20.600  15.727   2.718
36722W        W 5140  18.707  36.033   1.303
36723W        W 5141  25.019  13.717   0.445
36724W        W 5142   1.826  28.499   4.630
36725W        W 5143   7.404  36.577  11.886
36726W        W 5144  27.451   7.250   3.855
36727W        W 5145  15.238  31.596   4.777
36728W        W 5146  35.465  39.551  14.954
36729W        W 5147  42.944  16.248  10.946
36730W        W 5148  26.666  20.130   2.375
36731W        W 5149  33.101  34.584   1.697
36732W        W 5150  31.630   7.325  13.816
36733W        W 5151  34.899  39.901   4.826
36734W        W 5152  15.114  34.394   4.125
36735W        W 5153   1.750  22.540   2.892
36736W        W 5154   3.876  21.189  14.462
36737W        W 5155   9.326   0.780  11.002
36738W        W 5156  33.523  31.036   2.887
36739W        W 5157  22.013  33.057  12.355
36740W        W 5158  20.257  12.652   4.770
36741W        W 5159   2.308  42.931   0.327
36742W        W 5160   1.952  12.847   1.838
36743W        W 5161   6.415  18.559   0.481
36744W        W 5162  43.998  19.712  12.580
36745W        W 5163  29.967   3.731  13.960
36746W        W 5164  24.719   5.862   2.224
36747W        W 5165  32.395  21.121  14.407
36748W        W 5166  19.704  34.865  14.386
36749W        W 5167  36.848  11.748  14.350
36750W        W 5168  21.151  30.096  12.061
36751W        W 5169   3.873  33.097  14.826
36752W        W 5170  10.744  15.640  12.430
36753W        W 5171  11.717   1.305   2.813
36754W        W 5172  35.101  34.615  14.503
36755W        W 5173  17.217  25.712  10.563
36756W        W 5174  39.472   9.180   3.858
36757W        W 5175  12.849  35.103   0.307
36758W        W 5176  19.135  31.524   0.277
36759W        W 5177  43.512  15.278  13.408
36760W        W 5178   4.833  10.249  12.580
36761W        W 5179   2.381  21.667  13.984
36762W        W 5180  35.881  29.427  10.916
36763W        W 5181   0.315   8.885   4.694
36764W        W 5182  35.549  43.807   3.383
36765W        W 5183   9.357   7.413  13.444
36766W        W 5184  28.955  26.034   4.642
36767W        W 5185   5.894  22.170  12.400
36768W        W 5186   7.815  22.205   2.362
36769W        W 5187  17.217  19.134  12.062
36770W        W 5188  33.931   8.866  14.878
36771W        W 5189   3.242   2.333   3.723
36772W        W 5190  18.217  32.110   5.109
36773W        W 5191  24.133   7.870   4.753
36774W        W 5192  29.026   9.865   0.334
36775W        W 5193  33.571   2.240   1.776
36776W        W 5194  20.240  43.766   4.707
36777W        W 5195  26.113  44.897   3.811
36778W        W 5196  18.251  28.572  12.959
36779W        W 5197  43.460  41.337   1.413
36780W        W 5198  19.731  44.754   4.289
36781W        W 5199  15.683   7.350  11.586
36782W        W 5200  24.230  20.736   2.390
36783W        W 5201  18.146  15.765  10.031
36784W        W 5202  41.819   8.699   3.303
36785W        W 5203  24.106  42.353   1.434
36786W        W 5204  42.970  24.015   2.800
36787W        W 5205  25.056  14.279   2.866
36788W        W 5206   2.851  15.192  14.824
36789W        W 5207   3.766  19.115  10.920
36790W        W 5208  30.104  43.002   2.681
36791W        W 5209  33.395  36.017  11.010
36792W        W 5210  27.979  26.057   5.164
36793W        W 5211  21.121  33.019  13.891
36794W        W 5212  31.401  43.389   3.260
36795W        W 5213  18.296  39.827  12.977
36796W        W 5214  13.215   5.849   1.333
36797W        W 5215  40.360  21.751   1.697
36798W        W 5216  28.089  18.077   2.241
36799W        W 5217  21.559   3.459   1.359
36800W        W 5218  38.025  33.876  12.411
36801W        W 5219   7.846  35.361  12.830
36802W        W 5220  21.652  34.983  13.369
36803W        W 5221  38.872  30.655  13.919
36804W        W 5222  22.250  24.976  12.433
36805W        W 5223  30.063   7.313  12.902
36806W        W 5224  30.965  32.025   4.657
36807W        W 5225  30.945  35.435   3.735
36808W        W 5226  22.221   4.292   1.743
36809W        W 5227  20.695  32.943   1.750
36810W        W 5228  41.818  28.125  12.000
36811W        W 5229   8.830   0.473  14.797
36812W        W 5230  33.380  44.973   1.805
36813W        W 5231  13.662   8.880  10.524
36814W        W 5232  27.986  30.135  11.478
36815W        W 5233   2.407   4.442   0.758
36816W        W 5234  14.189   5.699   1.221
36817W        W 5235  19.224  28.619   4.223
36818W        W 5236  27.008  19.238   3.179
36819W        W 5237  21.212  27.659   4.604
36820W        W 5238  26.640   9.700  10.438
36821W        W 5239  30.529  32.008   3.755
36822W        W 5240  13.826  10.706   1.443
36823W        W 5241  32.082  40.900   4.307
36824W        W 5242  35.583   4.838  12.407
36825W        W 5243  21.077  14.742  12.400
36826W        W 5244   1.814   5.844   1.269
36827W        W 5245   4.296  44.785   0.953
36828W        W 5246  34.028  13.665  11.994
36829W        W 5247  24.070  17.592  13.996
36830W        W 5248  15.606  31.591   2.683
36831W        W 5249  15.687  43.959   0.786
36832W        W 5250  44.466  38.894  10.510
36833W        W 5251  17.276   1.458   1.877
36834W        W 5252   3.930   6.835  14.784
36835W        W 5253  36.053  19.667  13.384
36836W        W 5254  18.051  39.017  11.960
36837W        W 5255   2.300  18.749   4.330
36838W        W 5256   6.867  23.144  14.428
36839W        W 5257  33.964  16.221  11.599
36840W        W 5258  16.186  27.642   1.303
36841W        W 5259  18.623   0.750  10.981
36842W        W 5260  27.670  35.883  14.455
36843W        W 5261  13.783  41.476  11.032
36844W        W 5262  28.530  19.728   1.248
36845W        W 5263  41.883  37.051   2.734
36846W        W 5264  13.274   1.241  14.760
36847W        W 5265  11.756  11.219   0.734
36848W        W 5266   6.189  41.482  11.554
36849W        W 5267  44.319  44.825  14.333
36850W        W 5268  37.497  43.302  14.779
36851W        W 5269   1.284  11.341  12.522
36852W        W 5270   7.803  32.896  12.913
36853W        W 5271  30.621   4.852  12.838
36854W        W 5272  42.515   4.774   2.212
36855W        W 5273  44.813  28.966   0.337
36856W        W 5274  17.754  11.205   2.370
36857W        W 5275  27.961  12.712  13.497
36858W        W 5276  20.043  39.841  14.971
36859W        W 5277  16.747  44.011  14.458
36860W        W 5278  19.283  24.681  10.104
36861W        W 5279  24.655  43.497   4.311
36862W        W 5280  13.655  13.690   4.135
36863W        W 5281   5.850  10.165   0.953
36864W        W 5282  43.490  13.765  11.999
36865W        W 5283  12.851  30.989  10.493
36866W        W 5284   4.215   8.178  14.794
36867W        W 5285   3.786  44.995  11.549
36868W        W 5286  27.523   3.440  12.976
36869W        W 5287   0.376  26.030   2.874
36870W        W 5288   5.272  26.597   1.410
36871W        W 5289  15.635  11.323   0.871
36872W        W 5290  11.848  31.599   0.778
36873W        W 5291   1.819  21.697  14.860
36874W        W 5292  30.998   9.162   4.120
36875W        W 5293  39.868  31.979   4.644
36876W        W 5294  28.034   7.410  10.579
36877W        W 5295  27.663   0.981  12.861
36878W        W 5296  44.292  12.170   9.449
36879W        W 5297  12.617   6.748   2.218
36880W        W 5298  18.128  14.827   2.309
36881W        W 5299  37.392  11.778   4.759
36882W        W 5300  16.160   7.202  14.511
36883W        W 5301  24.623  31.071  11.401
36884W        W 5302   7.248  10.343   0.417
36885W        W 5303  34.009   2.454   1.443
36886W        W 5304  15.137   7.683  10.593
36887W        W 5305  34.935  33.100   0.848
36888W        W 5306  38.821  19.205   0.867
36889W        W 5307   1.275  23.538  14.283
36890W        W 5308  15.270   9.390   3.168
36891W        W 5309  41.952   9.173   0.435
36892W        W 5310  25.207  41.455  11.578
36893W        W 5311   1.253  16.163  11.428
36894W        W 5312  32.121  12.689  12.358
36895W        W 5313  12.628   3.449   0.860
36896W        W 5314  41.039  29.485  10.909
36897W        W 5315  22.721  37.393   4.308
36898W        W 5316   1.833  43.821   2.754
36899W        W 5317   1.352  40.365   0.301
36900W        W 5318  10.724  32.933   2.209
36901W        W 5319  21.543  34.382   5.226
36902W        W 5320   9.333  24.178   4.348
36903W        W 5321   1.811   4.913   3.303
36904W        W 5322  41.356  34.549   1.917
36905W        W 5323   4.311  41.350  12.067
36906W        W 5324  21.703  12.697   5.312
36907W        W 5325  23.532  21.696  13.042
36908W        W 5326  43.451  26.025  10.541
36909W        W 5327  35.087  27.574   2.751
36910W        W 5328  21.177  11.793  11.606
36911W        W 5329  27.487  35.399  14.374
36912W        W 5330  13.663  27.951   2.741
36913W        W 5331  15.805  34.602   0.395
36914W        W 5332  20.735  28.105   2.310
36915W        W 5333  28.128  26.073   2.355
36916W        W 5334  34.881  28.104  13.437
36917W        W 5335  44.443  34.476   3.712
36918W        W 5336   6.279  31.623   2.870
36919W        W 5337  32.400   4.279  10.526
36920W        W 5338  44.373  24.041   1.918
36921W        W 5339   4.266  42.474   4.685
36922W        W 5340  14.795   0.491   0.432
36923W        W 5341  10.676  18.551   1.315
36924W        W 5342  38.980  15.633  12.476
36925W        W 5343  36.930  26.540   1.838
36926W        W 5344  33.556  40.416  12.857
36927W        W 5345  34.927  41.376   4.249
36928W        W 5346  24.176  39.059   5.090
36929W        W 5347   5.803  22.583  11.424
36930W        W 5348   5.226   2.760   3.232
36931W        W 5349  18.770  26.956  14.322
36932W        W 5350  14.340  44.321   3.151
36933W        W 5351  21.641  17.729  14.341
36934W        W 5352   4.848  22.134   3.776
36935W        W 5353  36.845   3.954   4.666
36936W        W 5354   2.291  22.133   4.775
36937W        W 5355  42.293  22.514  12.004
36938W        W 5356  30.443  12.160  12.457
36939W        W 5357   3.372  41.932   1.716
36940W        W 5358  39.362   1.346  12.380
36941W        W 5359  21.730   9.303  11.103
36942W        W 5360  30.580  44.861   3.236
36943W        W 5361  31.491  22.109   4.287
36944W        W 5362  31.007  25.692  13.886
36945W        W 5363  28.936  27.637   0.243
36946W        W 5364  40.504   4.279  10.596
36947W        W 5365  38.866  32.036  12.391
36948W        W 5366  24.165  32.095  14.339
36949W        W 5367  33.380  41.413   2.873
36950W        W 5368  16.135   2.460   1.410
36951W        W 5369   0.921  19.204   2.676
36952W        W 5370   2.283   0.964  11.874
36953W        W 5371  35.461  18.786  14.998
36954W        W 5372  36.423  38.421   4.671
36955W        W 5373  25.616   0.841  14.346
36956W        W 5374  25.546   0.812  11.560
36957W        W 5375  14.617  23.241  12.993
36958W        W 5376  13.819  21.067   4.141
36959W        W 5377  16.206   5.197  13.959
36960W        W 5378  34.556   8.782   3.846
36961W        W 5379  44.497   0.942   5.266
36962W        W 5380  35.068  19.540  14.406
36963W        W 5381   6.803  14.151  12.974
36964W        W 5382  37.515  25.199  13.527
36965W        W 5383   9.391  25.106   0.443
36966W        W 5384  29.020  42.282   2.869
36967W        W 5385  27.069  16.573  11.918
36968W        W 5386  30.605  10.717  14.793
36969W        W 5387  36.996  10.858  13.882
36970W        W 5388  35.063  32.087  10.551
36971W        W 5389  36.848  20.162   0.887
36972W        W 5390  19.135   8.261   0.324
36973W        W 5391  19.071  14.663   3.346
36974W        W 5392  40.921   2.929   0.369
36975W        W 5393  23.034  37.553  10.406
36976W        W 5394   2.776  42.385   1.861
36977W        W 5395  35.446  20.716  12.073
36978W        W 5396  35.881  25.207   1.244
36979W        W 5397   5.319  28.016   1.443
36980W        W 5398  29.029   5.780  13.506
36981W        W 5399  42.835  14.146   5.585
36982W        W 5400  22.115  13.327  14.395
36983W        W 5401  15.113  17.223  11.034
36984W        W 5402  31.515  35.364  11.528
36985W        W 5403  30.535  21.020   0.901
36986W        W 5404  22.555  25.692  11.553
36987W        W 5405   9.308  23.501  12.966
36988W        W 5406  42.283  21.629   1.891
36989W        W 5407  42.434  34.428  13.527
36990W        W 5408  23.693  14.278  12.983
36991W        W 5409  33.485   3.348  12.919
36992W        W 5410   7.407  32.001   2.350
36993W        W 5411  42.291   1.438  14.425
36994W        W 5412  25.519   7.769  14.436
36995W        W 5413   7.206  36.033  13.449
36996W        W 5414  38.429  44.759   1.719
36997W        W 5415   0.774  41.874   4.650
36998W        W 5416  11.795  17.775  11.575
36999W        W 5417  44.490  15.701  13.388
37000W        W 5418  18.268  21.180   2.747
37001W        W 5419  30.136  34.455  14.356
37002W        W 5420  28.019  10.348  10.449
37003W        W 5421  19.156  19.609   3.694
37004W        W 5422  40.425  40.817  13.534
37005W        W 5423  10.179  38.368  11.893
37006W        W 5424  25.529  31.537   3.721
37007W        W 5425  36.416   0.300  13.922
37008W        W 5426  44.891  31.063  14.337
37009W        W 5427   9.186  11.345   0.308
37010W        W 5428  21.073  16.736  14.923
37011W        W 5429  39.329  43.334  13.343
37012W        W 5430  42.318  36.892  10.517
37013W        W 5431  13.727  40.875  13.525
37014W        W 5432  35.913  31.124   2.328
37015W        W 5433   0.475  14.718   0.915
37016W        W 5434  44.855  31.617  13.989
37017W        W 5435  28.968   9.788   3.211
37018W        W 5436   6.803   7.311   0.965
37019W        W 5437  30.093   3.751  10.990
37020W        W 5438  20.221  41.352  13.485
37021W        W 5439   9.684   3.300  12.357
37022W        W 5440  14.239   1.393  11.989
37023W        W 5441   3.780  39.958   3.775
37024W        W 5442  40.815  20.526  13.356
37025W        W 5443   5.241  24.512  13.430
37026W        W 5444  17.200   1.291   4.284
37027W        W 5445  37.395  22.058  14.374
37028W        W 5446  23.151  21.590   4.833
37029W        W 5447  30.161   8.255   3.280
37030W        W 5448  42.314  10.876   4.336
37031W        W 5449  23.073   4.399  10.894
37032W        W 5450  31.415  17.266  12.997
37033W        W 5451   1.826  33.381  10.520
37034W        W 5452  30.651  39.867   3.672
37035W        W 5453  33.014  15.621   3.667
37036W        W 5454  23.643  37.347   1.782
37037W        W 5455  15.191  15.639   1.327
37038W        W 5456  31.573  24.545   2.184
37039W        W 5457  31.630   4.402  13.880
37040W        W 5458  30.552   5.341  11.487
37041W        W 5459  42.450  28.125   3.696
37042W        W 5460  38.559  15.677  12.856
37043W        W 5461  32.974  25.615   2.884
37044W        W 5462  29.036   3.451  14.921
37045W        W 5463   1.355   5.291  10.467
37046W        W 5464  41.020  41.040  13.017
37047W        W 5465  37.983  11.839  14.420
37048W        W 5466   5.316   6.254  12.895
37049W        W 5467  42.997  44.918  12.951
37050W        W 5468  21.244  23.000   2.318
37051W        W 5469  19.277   6.297  11.501
37052W        W 5470  20.764  13.637   5.740
37053W        W 5471  37.529  23.619   0.287
37054W        W 5472  27.600  40.385   2.268
37055W        W 5473  17.587  34.378  12.953
37056W        W 5474  33.032   6.263  11.081
37057W        W 5475  35.879   7.362   0.279
37058W        W 5476   3.791   9.817   3.649
37059W        W 5477  13.715   2.274  12.826
37060W        W 5478   6.292   2.887  14.032
37061W        W 5479   5.263  20.676  11.393
37062W        W 5480  13.109  43.462  11.374
37063W        W 5481  24.173   8.754   3.832
37064W        W 5482  36.886  16.146  10.459
37065W        W 5483  41.958  11.660   0.437
37066W        W 5484  37.977  10.878  14.947
37067W        W 5485  22.717  18.668   1.222
37068W        W 5486  24.156   1.414   0.473
37069W        W 5487   5.297  32.988  14.360
37070W        W 5488  19.736   4.351  13.984
37071W        W 5489  32.921  22.106  12.035
37072W        W 5490  17.735  20.231   1.285
37073W        W 5491  19.259  44.428   0.243
37074W        W 5492  38.869  41.921   4.721
37075W        W 5493  24.600  13.332   3.326
37076W        W 5494  23.184   8.243  13.415
37077W        W 5495  35.935   3.808  12.374
37078W        W 5496  39.455  10.158  11.064
37079W        W 5497  29.013  21.238   1.737
37080W        W 5498  11.324   7.801   1.768
37081W        W 5499  12.766  37.475  13.465
37082W        W 5500  32.974  26.964  12.065
37083W        W 5501   9.188  43.841   1.418
37084W        W 5502  21.101  15.254  10.463
37085W        W 5503   9.186  23.221  14.815
37086W        W 5504  41.992  13.733   3.751
37087W        W 5505  44.430   5.360  10.919
37088W        W 5506   4.807  37.877  14.914
37089W        W 5507  11.785  19.042   4.754
37090W        W 5508  14.114  21.080  12.558
37091W        W 5509  43.446  28.032   2.350
37092W        W 5510  24.124  10.678   1.441
37093W        W 5511   4.311  17.087  14.499
37094W        W 5512  17.780  40.491  12.844
37095W        W 5513  28.657  13.169  13.414
37096W        W 5514   1.803  24.078  12.968
37097W        W 5515  20.185  35.852   2.281
37098W        W 5516   3.388  35.505   1.273
37099W        W 5517  12.315  40.916   3.821
37100W        W 5518  33.082  31.615  12.920
37101W        W 5519  30.044  13.246  10.609
37102W        W 5520  36.068  41.919   2.899
37103W        W 5521  35.549  43.820  11.033
37104W        W 5522  20.742  11.174   1.822
37105W        W 5523  19.685  29.424  14.403
37106W        W 5524  15.244  14.325  13.809
37107W        W 5525  38.882   5.692   4.706
37108W        W 5526  16.651   3.946  11.936
37109W        W 5527  25.483  25.558   1.698
37110W        W 5528  31.495   8.853   0.251
37111W        W 5529  25.652  35.930   1.897
37112W        W 5530  43.857  27.175  12.895
37113W        W 5531  43.871   1.408  12.044
37114W        W 5532  10.292  13.780  11.111
37115W        W 5533  25.019  11.269  11.006
37116W        W 5534  36.062  44.831  14.363
37117W        W 5535   7.316  37.356   0.304
37118W        W 5536  13.240  37.869  14.372
37119W        W 5537  20.610  18.214   1.788
37120W        W 5538   7.743  20.076   2.730
37121W        W 5539  11.841  31.438   1.809
37122W        W 5540  12.698  33.951   0.911
37123W        W 5541  24.673  35.978  10.447
37124W        W 5542  27.007  15.823  14.799
37125W        W 5543  30.658  37.840   1.860
37126W        W 5544  30.973   2.353   3.334
37127W        W 5545  29.506  24.621  11.425
37128W        W 5546   5.407  32.596  12.526
37129W        W 5547  12.803   3.300   0.341
37130W        W 5548  31.924  40.909   0.913
37131W        W 5549  35.097  18.219   2.412
37132W        W 5550  40.332  13.725  10.530
37133W        W 5551  22.109  23.604   4.336
37134W        W 5552  35.970  26.130  14.846
37135W        W 5553  17.119  25.687   2.883
37136W        W 5554  33.913  24.516  14.383
37137W        W 5555   6.753  37.368  14.360
37138W        W 5556  43.385  28.175   0.748
37139W        W 5557   4.316  39.371  12.091
37140W        W 5558  38.898  35.945   4.206
37141W        W 5559  22.220  25.482   2.414
37142W        W 5560  14.126  26.478   2.698
37143W        W 5561  44.987  10.144   1.911
37144W        W 5562  23.538  18.293   3.277
37145W        W 5563   5.742  10.817   3.179
37146W        W 5564  43.003  13.644   5.771
37147W        W 5565   9.365  27.683   3.663
37148W        W 5566  30.941  33.389  13.384
37149W        W 5567  31.995   7.780  14.331
37150W        W 5568   0.420   5.197  14.930
37151W        W 5569  16.188  44.002   1.717
37152W        W 5570  15.180  21.533   0.256
37153W        W 5571  43.393  34.576   0.876
37154W        W 5572  18.075  16.658   1.234
37155W        W 5573  23.517  21.134   0.818
37156W        W 5574  29.061  37.492  14.027
37157W        W 5575  36.492  17.291  10.100
37158W        W 5576  26.532  21.262   4.613
37159W        W 5577  17.727  34.595   1.273
37160W        W 5578  22.103  30.577  12.476
37161W        W 5579  18.584  17.682  10.453
37162W        W 5580  25.087  38.503   3.633
37163W        W 5581  29.533   0.866   4.767
37164W        W 5582  22.629  38.849  12.539
37165W        W 5583  36.398  24.084   5.298
37166W        W 5584  20.052  30.538  11.121
37167W        W 5585   4.919   0.875   0.824
37168W        W 5586  15.785  30.582  13.049
37169W        W 5587  42.427  15.192   1.847
37170W        W 5588  25.644  44.916  11.577
37171W        W 5589  15.824   3.736  11.034
37172W        W 5590   0.350  40.409   0.917
37173W        W 5591  22.541   9.736   0.254
37174W        W 5592  44.950  23.575   3.179
37175W        W 5593  13.224  29.633  14.478
37176W        W 5594  34.544  38.570   2.204
37177W        W 5595  11.832   7.248  12.044
37178W        W 5596  44.394  14.727   3.353
37179W        W 5597  25.136  20.665  13.545
37180W        W 5598   5.238  20.109   3.800
37181W        W 5599  22.710  25.671  10.635
37182W        W 5600   4.444   1.410   3.740
37183W        W 5601  17.635  17.287   0.393
37184W        W 5602  14.774   7.666  10.123
37185W        W 5603  20.109  44.370  10.938
37186W        W 5604  32.614   8.776   1.260
37187W        W 5605  41.532  41.534  10.538
37188W        W 5606   7.353  26.188  14.324
37189W        W 5607  37.376   0.352  13.048
37190W        W 5608  15.767  38.369  11.964
37191W        W 5609  22.618  24.027   0.270
37192W        W 5610   8.894  25.581  11.977
37193W        W 5611   1.927  34.952  14.500
37194W        W 5612  13.279  34.903   5.307
37195W        W 5613  26.181  43.392   2.827
37196W        W 5614  28.469   4.908   9.949
37197W        W 5615  18.634  21.537  13.331
37198W        W 5616  35.879   4.701   1.805
37199W        W 5617  19.564   1.948  10.638
37200W        W 5618  33.421  25.653  11.899
37201W        W 5619  23.106   3.290  10.621
37202W        W 5620  41.386   0.984  12.957
37203W        W 5621  27.670   0.428   2.243
37204W        W 5622   9.287  37.441   4.668
37205W        W 5623  27.528  21.017   4.670
37206W        W 5624  35.473  32.628  11.070
37207W        W 5625   0.282   0.807   2.816
37208W        W 5626  25.009  29.152  10.409
37209W        W 5627  38.945  22.669  10.034
37210W        W 5628   3.820  44.426   2.888
37211W        W 5629  32.057  32.397  14.480
37212W        W 5630  19.675   7.253   1.403
37213W        W 5631   0.904  13.210   1.445
37214W        W 5632  36.499   8.219   3.198
37215W        W 5633  27.121  14.284   3.810
37216W        W 5634  32.097  25.588  11.064
37217W        W 5635  10.360  25.479   0.811
37218W        W 5636  26.537  24.210   5.139
37219W        W 5637  42.474  26.599   3.274
37220W        W 5638  40.995  39.380   1.351
37221W        W 5639  35.914  21.075   2.864
37222W        W 5640  15.673  28.078   4.129
37223W        W 5641  14.734  38.491   0.247
37224W        W 5642   1.755  25.052   0.269
37225W        W 5643  33.054  42.876  13.476
37226W        W 5644  33.051   4.404  13.937
37227W        W 5645  17.656  34.467  10.412
37228W        W 5646  35.904  39.897  11.021
37229W        W 5647   3.938  38.394  11.932
37230W        W 5648  20.708  37.079   2.714
37231W        W 5649  10.379  33.007   4.688
37232W        W 5650  42.312  16.312   1.747
37233W        W 5651  26.489  15.788  10.504
37234W        W 5652   2.229  41.381   4.699
37235W        W 5653  38.976  43.272   1.751
37236W        W 5654  19.536  12.206   1.412
37237W        W 5655   3.749  27.652   4.308
37238W        W 5656   1.965  43.945   2.405
37239W        W 5657  27.970  25.534  13.023
37240W        W 5658   2.240  28.123   0.360
37241W        W 5659  29.621   9.366   0.460
37242W        W 5660   6.865  42.288  13.798
37243W        W 5661  33.384  30.969   3.382
37244W        W 5662  25.091   7.741   0.749
37245W        W 5663  23.502  21.229  14.950
37246W        W 5664  20.151  28.449   4.659
37247W        W 5665  16.077  21.617   3.632
37248W        W 5666  21.086  10.295  12.841
37249W        W 5667  39.319  20.744   2.706
37250W        W 5668  23.698   7.911  11.887
37251W        W 5669   6.368   5.785   1.817
37252W        W 5670  18.053   8.241  14.881
37253W        W 5671  38.846  18.130   3.694
37254W        W 5672   8.322  32.958   0.251
37255W        W 5673  26.662  36.850   2.266
37256W        W 5674  13.117  25.615  14.388
37257W        W 5675  30.084  24.501   0.840
37258W        W 5676  28.157  30.138  10.598
37259W        W 5677  31.947  20.526   3.231
37260W        W 5678   4.368  38.944  10.598
37261W        W 5679  31.139  36.533   1.887
37262W        W 5680  17.116   7.861   2.354
37263W        W 5681  18.638   2.813  12.513
37264W        W 5682   5.834  25.135  14.425
37265W        W 5683  19.584  31.040   4.288
37266W        W 5684  39.015   8.826  10.997
37267W        W 5685  36.915  39.419  14.512
37268W        W 5686  22.186  22.559   0.909
37269W        W 5687  30.039  41.788  10.619
37270W        W 5688  17.160  15.687   1.323
37271W        W 5689  18.182  26.623   3.660
37272W        W 5690  29.154   2.290  13.896
37273W        W 5691  34.591  16.302  12.570
37274W        W 5692  38.508  37.940  12.037
37275W        W 5693  15.811  14.293  13.469
37276W        W 5694   6.714  30.142  11.016
37277W        W 5695  42.287  23.537   9.668
37278W        W 5696   9.290  43.411   0.858
37279W        W 5697   1.353   8.284   1.859
37280W        W 5698  19.636   8.236   3.269
37281W        W 5699  32.046  35.062   2.686
37282W        W 5700  17.182  27.622  13.459
37283W        W 5701  30.996  19.583  13.903
37284W        W 5702  33.965   2.913  10.632
37285W        W 5703  35.969  32.551  14.348
37286W        W 5704  37.570  41.502  14.870
37287W        W 5705  26.530  44.444  12.034
37288W        W 5706  41.881  10.295   1.271
37289W        W 5707   8.897  10.834  10.951
37290W        W 5708  15.091  43.450   1.237
37291W        W 5709  44.435   4.335  11.541
37292W        W 5710  38.879  12.138   2.806
37293W        W 5711  42.781  29.008   1.797
37294W        W 5712   1.336  18.641   2.396
37295W        W 5713  36.870  41.401  13.796
37296W        W 5714  11.188  25.632  12.057
37297W        W 5715  10.839  14.832  12.085
37298W        W 5716  35.016  13.822  12.981
37299W        W 5717   2.341  10.306  13.402
37300W        W 5718  22.511   1.462  10.522
37301W        W 5719  20.059  35.445  12.066
37302W        W 5720  11.250   4.351  12.493
37303W        W 5721  14.675  31.523   4.777
37304W        W 5722  21.028  38.046   0.776
37305W        W 5723   2.255  11.663  10.106
37306W        W 5724  36.574   3.230  13.051
37307W        W 5725  30.602  17.179   2.262
37308W        W 5726  39.471  10.381   2.763
37309W        W 5727  15.796  41.860   2.360
37310W        W 5728   0.955   7.783   4.632
37311W        W 5729  14.712  19.689   0.914
37312W        W 5730  20.651  40.827   5.665
37313W        W 5731  14.133  43.466   4.296
37314W        W 5732  29.104  30.414   3.285
37315W        W 5733   2.468  12.286  14.442
37316W        W 5734   4.830  29.155  11.017
37317W        W 5735  35.428  15.165   4.193
37318W        W 5736   8.734  11.831  12.395
37319W        W 5737  10.356  35.053  13.502
37320W        W 5738  20.058  41.314  13.810
37321W        W 5739  34.408  26.571   1.417
37322W        W 5740  14.121   7.223  10.578
37323W        W 5741   9.269  22.673   9.982
37324W        W 5742  34.535   6.873   1.431
37325W        W 5743  11.651  26.970   2.361
37326W        W 5744  39.844   6.391   0.384
37327W        W 5745  26.551  31.507  12.506
37328W        W 5746  30.549  21.652  13.792
37329W        W 5747  24.117  35.412   2.735
37330W        W 5748  39.524  24.714   1.438
37331W        W 5749  18.190  32.050   4.174
37332W        W 5750  19.179  44.882  10.420
37333W        W 5751  28.983   5.308   2.709
37334W        W 5752  39.018  37.389   2.241
37335W        W 5753   3.741   3.780  12.065
37336W        W 5754  36.497  24.700   4.194
37337W        W 5755  28.441  39.431  12.078
37338W        W 5756  10.736  29.158  12.046
37339W        W 5757  27.548   7.272  13.794
37340W        W 5758  18.610  27.494   4.258
37341W        W 5759  14.275   5.789   3.750
37342W        W 5760   0.285  38.926   1.862
37343W        W 5761  14.691  26.156   3.287
37344W        W 5762   9.675  13.608   1.700
37345W        W 5763  17.564  25.967  12.480
37346W        W 5764  11.196  42.969  10.558
37347W        W 5765  41.506  42.954   4.196
37348W        W 5766   2.857  11.305   0.816
37349W        W 5767  42.841  36.901   3.203
37350W        W 5768  37.347  35.966  11.011
37351W        W 5769  28.024  37.346   2.340
37352W        W 5770  23.550  43.311  14.946
37353W        W 5771  32.086  42.026   5.309
37354W        W 5772  21.199  38.526  13.009
37355W        W 5773   9.373  11.184   0.851
37356W        W 5774  20.597  10.726  11.048
37357W        W 5775   8.762  36.372   2.290
37358W        W 5776  11.193  20.245  12.925
37359W        W 5777  36.556  12.700  14.859
37360W        W 5778  12.195  20.222   1.334
37361W        W 5779   1.872  21.045  10.469
37362W        W 5780  35.950  16.239   3.726
37363W        W 5781   6.311  39.985  14.903
37364W        W 5782  25.684   2.261  12.527
37365W        W 5783  26.118  41.474  11.540
37366W        W 5784  35.977  42.915  11.419
37367W        W 5785  21.090   7.296   1.702
37368W        W 5786  26.631  10.200   4.305
37369W        W 5787  38.909   9.709  14.905
37370W        W 5788  32.021  14.298   2.283
37371W        W 5789  16.223  27.042  10.924
37372W        W 5790  37.948  38.354   0.397
37373W        W 5791   3.917  11.241   0.473
37374W        W 5792   7.895  13.297  11.466
37375W        W 5793  29.075  28.134   3.703
37376W        W 5794   9.373   2.853  12.390
37377W        W 5795   5.805   1.378   4.217
37378W        W 5796  25.634   5.769   2.406
37379W        W 5797   9.779  31.932  15.000
37380W        W 5798  18.159   2.471   1.449
37381W        W 5799  25.623  34.602   4.605
37382W        W 5800  14.291   1.394  12.440
37383W        W 5801   7.713   0.895  14.908
37384W        W 5802  19.657  33.042  13.840
37385W        W 5803   3.445  23.574  10.624
37386W        W 5804   1.311  43.819  10.994
37387W        W 5805   8.170  32.056  11.113
37388W        W 5806  29.071   9.668   3.655
37389W        W 5807  12.769  35.484   3.176
37390W        W 5808  29.646  11.371  10.994
37391W        W 5809  41.839  43.790   3.857
37392W        W 5810  41.848  19.723   2.243
37393W        W 5811  30.553  19.612  11.880
37394W        W 5812  26.519  43.810   4.262
37395W        W 5813  21.687  40.369  12.447
37396W        W 5814  42.369  44.853  11.388
37397W        W 5815  29.973  28.455  12.439
37398W        W 5816  16.141  14.225  14.317
37399W        W 5817  20.583  36.505  11.569
37400W        W 5818  41.852   2.412   0.476
37401W        W 5819  29.139  35.891  11.481
37402W        W 5820  14.108  44.349  10.538
37403W        W 5821  17.683  28.155  14.818
37404W        W 5822  34.918  41.342  12.080
37405W        W 5823  41.011  43.792   0.793
37406W        W 5824  30.027  41.030  13.465
37407W        W 5825  16.738   1.350  14.805
37408W        W 5826  16.591  12.727  11.503
37409W        W 5827   3.929  29.964   0.920
37410W        W 5828  21.260  14.104  10.100
37411W        W 5829  32.491   0.780   1.890
37412W        W 5830   8.744  27.473  13.000
37413W        W 5831   0.479  19.706   0.890
37414W        W 5832  42.993   0.809  10.931
37415W        W 5833  20.100  40.465  14.454
37416W        W 5834  38.952  23.018   2.350
37417W        W 5835  43.873   3.936  13.873
37418W        W 5836  11.641   5.923  11.957
37419W        W 5837   6.408  14.269  11.858
37420W        W 5838  23.049   1.435   4.224
37421W        W 5839  11.142  44.365   0.384
37422W        W 5840  24.620  34.117   0.287
37423W        W 5841   7.289  14.263  14.028
37424W        W 5842  30.957  38.015  10.611
37425W        W 5843  40.914   1.409  14.295
37426W        W 5844  12.291  20.150   2.764
37427W        W 5845  14.782  43.280   1.736
37428W        W 5846  30.504  36.399  12.899
37429W        W 5847  40.945  17.074   4.213
37430W        W 5848   7.745   3.353   9.933
37431W        W 5849  41.036  44.481   3.717
37432W        W 5850  35.993  18.076   2.697
37433W        W 5851  22.128   8.878  14.343
37434W        W 5852  31.632  12.201  12.532
37435W        W 5853  12.282  16.231   3.355
37436W        W 5854  11.308  35.037  12.987
37437W        W 5855  23.638  31.939  11.101
37438W        W 5856  21.667  10.691  14.463
37439W        W 5857  20.693   6.317  13.467
37440W        W 5858   5.809  19.130   4.830
37441W        W 5859  36.092  31.502   4.721
37442W        W 5860  42.340   8.395   1.219
37443W        W 5861  34.486   5.849  12.031
37444W        W 5862  38.054  26.654   3.834
37445W        W 5863  14.237   6.826  12.345
37446W        W 5864   4.354  21.208   4.325
37447W        W 5865  34.461  12.261   0.846
37448W        W 5866  31.642   3.224  14.927
37449W        W 5867  14.338  29.433  13.821
37450W        W 5868  15.160  27.129   4.145
37451W        W 5869  39.961  38.473  11.375
37452W        W 5870   8.682  18.058   4.656
37453W        W 5871  36.504  40.430  11.863
37454W        W 5872  13.780  24.518   0.435
37455W        W 5873  10.353  12.357  12.475
37456W        W 5874  43.021  25.008  12.555
37457W        W 5875   0.248  39.975  12.877
37458W        W 5876  20.215  34.508   3.312
37459W        W 5877   2.311  36.847   1.888
37460W        W 5878   7.810  28.045  12.459
37461W        W 5879  30.477  22.593   3.201
37462W        W 5880  42.780  11.702   2.221
37463W        W 5881  22.124  22.540  10.628
37464W        W 5882  10.336  16.754   2.248
37465W        W 5883  20.725  17.232   2.717
37466W        W 5884  29.644   3.429  14.782
37467W        W 5885  35.091  12.697  10.925
37468W        W 5886  13.155  38.994  12.573
37469W        W 5887  15.214  16.585  12.064
37470W        W 5888  39.954  21.248   1.396
37471W        W 5889   4.372  15.793   0.957
37472W        W 5890  32.899  24.036  10.532
37473W        W 5891  18.553  10.202   0.779
37474W        W 5892   5.772  15.638  12.557
37475W        W 5893  38.936  23.110  13.502
37476W        W 5894  13.757  24.108   1.809
37477W        W 5895  12.825  22.544  13.527
37478W        W 5896  24.677  24.686   1.696
37479W        W 5897  30.508  33.993   0.913
37480W        W 5898  41.912  25.621  14.946
37481W        W 5899  11.371  22.529   4.635
37482W        W 5900  22.095  12.225   4.768
37483W        W 5901  26.471  19.687   4.793
37484W        W 5902  33.998   8.277   0.469
37485W        W 5903  31.415  32.007   2.293
37486W        W 5904  10.292  38.941  13.316
37487W        W 5905  31.429   3.230  12.930
37488W        W 5906  23.189   9.874  14.299
37489W        W 5907  26.089  39.521  11.527
37490W        W 5908  43.292  37.905   1.829
37491W        W 5909  37.465  39.506   9.928
37492W        W 5910  24.166  21.060   5.284
37493W        W 5911  38.934   6.911  12.043
37494W        W 5912  34.574  12.151  11.609
37495W        W 5913  42.379  14.288   3.241
37496W        W 5914  21.701  36.441  11.859
37497W        W 5915   8.699  18.195   0.757
37498W        W 5916  28.109  20.665   4.721
37499W        W 5917  30.570  37.471   0.871
37500W        W 5918  28.458  12.226   0.752
37501W        W 5919   3.863   6.284   3.742
37502W        W 5920   6.296  39.314  14.487
37503W        W 5921  40.873  10.174  11.473
37504W        W 5922  44.974  20.064  12.853
37505W        W 5923   6.880  26.529  14.513
37506W        W 5924  44.755   3.816  11.980
37507W        W 5925  12.210  37.568  12.886
37508W        W 5926  26.179  35.985  10.996
37509W        W 5927   9.656  27.139   0.787
37510W        W 5928  19.136  20.709  12.551
37511W        W 5929  25.183  24.724   1.848
37512W        W 5930   3.297  11.336  10.636
37513W        W 5931  20.029  21.068  11.883
37514W        W 5932  19.658  23.994  11.925
37515W        W 5933  31.487   6.787   0.763
37516W        W 5934  40.423   8.677   3.637
37517W        W 5935  37.475   2.358   2.835
37518W        W 5936   5.790   8.250  14.812
37519W        W 5937  43.858  41.498  10.976
37520W        W 5938  25.689  29.114  10.890
37521W        W 5939   0.286  15.281  10.427
37522W        W 5940  23.526  30.628  14.957
37523W        W 5941  32.029  27.447   1.424
37524W        W 5942  25.962   3.366  11.984
37525W        W 5943  32.058  30.449   2.842
37526W        W 5944  23.991  19.658   3.333
37527W        W 5945  31.936   3.814   2.370
37528W        W 5946   7.417  35.086   4.287
37529W        W 5947  39.846  42.795   2.821
37530W        W 5948  23.692  44.956   0.951
37531W        W 5949  37.447  30.491  14.927
37532W        W 5950   8.314   7.358   4.273
37533W        W 5951   5.248  39.958   4.697
37534W        W 5952  29.441  23.044   2.673
37535W        W 5953  16.086   6.850   4.337
37536W        W 5954  27.453  28.112  13.403
37537W        W 5955   9.377  24.136   4.815
37538W        W 5956   0.401  36.841  13.514
37539W        W 5957  15.314  27.098   3.646
37540W        W 5958  13.350  18.294   0.242
37541W        W 5959  34.569  12.234  12.495
37542W        W 5960  10.835  38.921  10.621
37543W        W 5961   8.665  15.753  14.409
37544W        W 5962  24.496  36.892   3.677
37545W        W 5963  30.941  21.622  13.444
37546W        W 5964   0.468  27.135  13.365
37547W        W 5965  41.459  13.719   2.896
37548W        W 5966  25.488  44.902   2.321
37549W        W 5967  12.748  27.197  11.873
37550W        W 5968   6.707  34.595   0.366
37551W        W 5969  41.811  24.975  14.967
37552W        W 5970  17.798  19.270  12.062
37553W        W 5971   2.253   1.383  12.547
37554W        W 5972   1.265  41.385  10.920
37555W        W 5973  40.534  40.962   4.752
37556W        W 5974  20.668  19.052   3.819
37557W        W 5975   9.804  43.870   0.935
37558W        W 5976  34.956  37.456   2.402
37559W        W 5977  21.206   7.846   3.763
37560W        W 5978   1.860   3.352  10.980
37561W        W 5979  31.071  14.252  11.083
37562W        W 5980  28.672  11.832  14.881
37563W        W 5981   6.700  17.701   1.315
37564W        W 5982  38.964  19.606   1.823
37565W        W 5983  41.498  17.672   1.249
37566W        W 5984   5.924  31.648  12.385
37567W        W 5985  27.445  34.063   3.149
37568W        W 5986   6.411  33.464  14.515
37569W        W 5987   2.935  32.908  14.812
37570W        W 5988  21.543  19.614  12.428
37571W        W 5989  33.414   0.431  11.400
37572W        W 5990  16.632  33.567   2.374
37573W        W 5991   5.821   1.739  11.987
37574W        W 5992  36.997  12.690   3.294
37575W        W 5993  27.466  18.649   1.751
37576W        W 5994  33.616   8.707  14.425
37577W        W 5995  23.667   4.825  14.444
37578W        W 5996  39.445  30.448  14.403
37579W        W 5997  15.264  26.035   1.374
37580W        W 5998  28.664  33.431  12.417
37581W        W 5999  44.494  15.168  11.476
37582W        W 6000   4.829  16.724   2.330
37583W        W 6001  23.616  41.812  10.571
37584W        W 6002  26.129  44.392  14.408
37585W        W 6003  11.260  35.107   4.255
37586W        W 6004  27.514   2.741  12.904
37587W        W 6005  22.647  31.408  14.315
37588W        W 6006   1.436  34.006  12.841
37589W        W 6007   8.298   4.940   2.252
37590W        W 6008  26.012  23.026  12.421
37591W        W 6009  42.417  42.489   4.162
37592W        W 6010  24.674  14.183   1.410
37593W        W 6011   3.891  29.005  11.957
37594W        W 6012  35.555  38.515  12.506
37595W        W 6013  28.138  21.048  11.587
37596W        W 6014  28.077  42.387   0.363
37597W        W 6015  21.659  19.165   3.821
37598W        W 6016  43.398  28.943   3.747
37599W        W 6017  36.502  14.791   3.205
37600W        W 6018   9.853  32.443  12.902
37601W        W 6019  22.119  23.023   2.813
37602W        W 6020  18.710  37.449   2.871
37603W        W 6021   4.778  23.565   1.320
37604W        W 6022  14.256  36.014  10.518
37605W        W 6023  40.016  18.599  14.796
37606W        W 6024  41.937  38.948   4.209
37607W        W 6025  29.502   6.847   3.226
37608W        W 6026  26.087   5.204   2.373
37609W        W 6027  22.702   7.195   1.245
37610W        W 6028   9.815  37.374  11.395
37611W        W 6029  19.559  24.160  10.039
37612W        W 6030  28.029  18.168  13.853
37613W        W 6031  33.444  19.584   4.304
37614W        W 6032  18.240  40.025  14.488
37615W        W 6033  10.775  37.837  14.485
37616W        W 6034   0.298  14.808   4.779
37617W        W 6035  29.993  16.622  13.970
37618W        W 6036  21.123  10.235   1.901
37619W        W 6037   2.470   5.693  11.875
37620W        W 6038   3.767  28.578  10.636
37621W        W 6039  25.966  41.844   3.696
37622W        W 6040  23.495  27.010  14.312
37623W        W 6041  11.631  39.914  10.519
37624W        W 6042  13.633  15.276  12.475
37625W        W 6043  14.298   6.809   1.803
37626W        W 6044  15.676  26.476   4.697
37627W        W 6045  15.110  44.299  12.411
37628W        W 6046   6.360   3.349   2.351
37629W        W 6047  21.115  28.612   0.844
37630W        W 6048   3.221  27.626   1.833
37631W        W 6049  11.198  31.564   2.690
37632W        W 6050  21.116   4.900   1.371
37633W        W 6051   0.917  17.563   0.742
37634W        W 6052  44.932   6.355  14.335
37635W        W 6053  17.721   7.700   3.335
37636W        W 6054  27.958  31.606  12.527
37637W        W 6055  23.733  31.994   0.366
37638W        W 6056  30.553  31.497   3.189
37639W        W 6057   5.259  40.448   1.908
37640W        W 6058  40.044  34.037  11.096
37641W        W 6059  32.955   0.797   0.288
37642W        W 6060   2.793  18.569  10.562
37643W        W 6061  37.443  31.450   2.701
37644W        W 6062  43.354  25.203   1.904
37645W        W 6063  42.422  20.670   4.834
37646W        W 6064   6.801  39.463  14.400
37647W        W 6065  44.399  33.936   3.630
37648W        W 6066  38.393  27.656   4.711
37649W        W 6067  39.956  14.604  10.469
37650W        W 6068  31.920   5.341  13.389
37651W        W 6069  36.368  28.562  12.400
37652W        W 6070  18.132   6.697   2.799
37653W        W 6071  23.123  23.580   3.764
37654W        W 6072  44.818   2.919   0.378
37655W        W 6073  20.142  40.972   3.200
37656W        W 6074  33.578   7.407   3.160
37657W        W 6075   2.821  13.296   2.855
37658W        W 6076   7.291  43.462  14.843
37659W        W 6077  26.469   5.924   3.847
37660W        W 6078  38.039  38.533   1.707
37661W        W 6079  23.719   5.374  11.946
37662W        W 6080  41.870  24.137   0.300
37663W        W 6081  16.625  10.781  12.573
37664W        W 6082  16.625  38.498  12.442
37665W        W 6083  30.054  17.267  14.825
37666W        W 6084  17.229  41.872  12.452
37667W        W 6085  37.350   5.376   1.779
37668W        W 6086  40.813  38.461  14.296
37669W        W 6087  37.549  43.463  14.508
37670W        W 6088   0.427  25.029  11.939
37671W        W 6089   5.317  17.596   1.887
37672W        W 6090  10.715  23.519   4.326
37673W        W 6091  16.135  19.062   1.861
37674W        W 6092  32.947  40.908  13.323
37675W        W 6093  13.136  13.748  10.633
37676W        W 6094  12.856  32.443  12.894
37677W        W 6095   7.725  33.066   4.351
37678W        W 6096   3.331   1.895  14.948
37679W        W 6097   6.265  17.669   3.325
37680W        W 6098  24.494  11.780  11.486
37681W        W 6099  32.140  44.466  13.468
37682W        W 6100  15.810  27.996  12.827
37683W        W 6101  15.765  18.210  12.411
37684W        W 6102  33.550  21.667  10.471
37685W        W 6103  27.687  37.353   3.239
37686W        W 6104  43.827  24.991  10.888
37687W        W 6105  33.495   3.891  12.093
37688W        W 6106   8.890  10.823   2.224
37689W        W 6107  41.029  32.074  14.327
37690W        W 6108  13.652  23.666   1.876
37691W        W 6109  24.054  21.554  10.418
37692W        W 6110   7.398  18.272   2.179
37693W        W 6111   2.339  30.091   1.787
37694W        W 6112  24.173  19.109  10.502
37695W        W 6113  10.801  17.603   4.318
37696W        W 6114  40.441  17.641  11.408
37697W        W 6115  23.116   3.421   2.215
37698W        W 6116   6.246  16.675  14.859
37699W        W 6117  23.538   5.212   1.790
37700W        W 6118   3.383  17.164  11.519
37701W        W 6119  23.633  41.876  14.411
37702W        W 6120  43.004   8.352  13.853
37703W        W 6121  44.819  15.097  11.860
37704W        W 6122  21.751  42.004   1.398
37705W        W 6123  30.581  40.979   2.330
37706W        W 6124  25.580  44.888  11.036
37707W        W 6125  23.064   5.277   4.264
37708W        W 6126  31.020   8.186  13.481
37709W        W 6127  24.544  28.023   3.714
37710W        W 6128  25.549  43.431  14.380
37711W        W 6129  28.167   0.836  13.326
37712W        W 6130  14.264   8.663   3.336
37713W        W 6131  28.454  15.812  13.451
37714W        W 6132  30.617  23.064   4.249
37715W        W 6133  35.019   2.397  12.950
37716W        W 6134  41.441  36.421  13.870
37717W        W 6135   7.824  15.166  11.119
37718W        W 6136  32.998  40.418  11.936
37719W        W 6137  13.172  13.607   1.262
37720W        W 6138  31.433  12.357  14.346
37721W        W 6139   7.836   8.889  10.033
37722W        W 6140   4.372  10.746  13.010
37723W        W 6141  12.817  20.051   2.720
37724W        W 6142   5.298   1.376   0.784
37725W        W 6143  35.466  14.273  11.584
37726W        W 6144  35.987   9.360   1.225
37727W        W 6145  42.363   0.308   3.677
37728W        W 6146  32.885   8.269   3.727
37729W        W 6147  36.539  25.171  13.911
37730W        W 6148  13.259  36.929   3.850
37731W        W 6149  12.180   4.215  13.896
37732W        W 6150  17.723  15.265   0.868
37733W        W 6151   7.748  19.103  11.477
37734W        W 6152  16.631  43.963  12.382
37735W        W 6153  23.028   0.936   2.325
37736W        W 6154  17.621  40.003  10.536
37737W        W 6155  17.089  41.335  10.128
37738W        W 6156  37.901  43.013  12.469
37739W        W 6157  39.057  17.710   2.835
37740W        W 6158  30.961  35.089  13.037
37741W        W 6159   5.908  18.183  13.504
37742W        W 6160  42.826  25.109   0.348
37743W        W 6161  31.644  16.604   1.289
37744W        W 6162  10.317  31.063  14.815
37745W        W 6163  11.811   6.289  14.824
37746W        W 6164  44.768   4.238  14.829
37747W        W 6165  41.487  20.544   3.720
37748W        W 6166  35.437  18.579   3.809
37749W        W 6167   8.826  26.601  13.961
37750W        W 6168  23.221  29.468  12.095
37751W        W 6169  42.426  29.084   3.151
37752W        W 6170   9.184   1.332  14.515
37753W        W 6171  34.431  18.641   2.350
37754W        W 6172  42.395  18.760   4.818
37755W        W 6173  29.085  14.589  11.043
37756W        W 6174  41.468  17.776   3.216
37757W        W 6175   5.304  41.393   0.941
37758W        W 6176  13.115  22.656  14.278
37759W        W 6177  23.170  20.766  14.464
37760W        W 6178  24.704  16.722  12.955
37761W        W 6179  38.457  42.834  11.973
37762W        W 6180   1.282  22.575  11.952
37763W        W 6181  21.114   0.477   5.197
37764W        W 6182  26.636  27.578  14.363
37765W        W 6183  11.749   5.428   2.246
37766W        W 6184  44.331  30.484  10.599
37767W        W 6185   5.310  13.193   3.353
37768W        W 6186   8.758  10.313  12.912
37769W        W 6187  12.347  15.591  14.354
37770W        W 6188  40.517   1.340   0.953
37771W        W 6189  39.963  40.028   0.772
37772W        W 6190   5.781  44.412  13.855
37773W        W 6191   6.694  11.649  13.544
37774W        W 6192  15.099  31.598   0.427
37775W        W 6193  14.153  19.571  12.340
37776W        W 6194  18.119  26.017  14.466
37777W        W 6195  31.024  14.229   2.760
37778W        W 6196  24.723  42.015   0.284
37779W        W 6197  39.543  22.738  12.478
37780W        W 6198   4.266  22.741  12.836
37781W        W 6199  40.499  36.558  13.860
37782W        W 6200  14.114  39.904   1.751
37783W        W 6201  15.730  20.180   3.164
37784W        W 6202   0.923  27.515  14.010
37785W        W 6203   6.717  35.010  14.992
37786W        W 6204  23.499  36.399   0.756
37787W        W 6205  10.809  35.429   4.353
37788W        W 6206  20.083  11.628  12.025
37789W        W 6207  40.848  13.743   0.293
37790W        W 6208  28.657  19.571   0.398
37791W        W 6209  15.235  21.144   3.809
37792W        W 6210  11.243  41.808  11.483
37793W        W 6211  18.676  24.697  10.091
37794W        W 6212  29.624  25.964  12.917
37795W        W 6213  16.229  40.027   0.865
37796W        W 6214  18.547  22.601  14.879
37797W        W 6215  26.186  13.258  13.966
37798W        W 6216   8.286  12.710   0.803
37799W        W 6217   4.843  18.157  13.367
37800W        W 6218   1.766  42.778  13.356
37801W        W 6219  13.143  37.993  14.797
37802W        W 6220  19.157  39.988  10.527
37803W        W 6221   7.840  31.979  13.980
37804W        W 6222  41.304  17.788  12.410
37805W        W 6223  40.460  28.935   3.782
37806W        W 6224  44.806   1.292  13.977
37807W        W 6225  32.402  17.567   4.231
37808W        W 6226  11.355  27.044   0.365
37809W        W 6227   0.293  20.695   0.335
37810W        W 6228  17.073  43.465  14.779
37811W        W 6229  10.375  44.270   5.242
37812W        W 6230  31.508  13.608   1.362
37813W        W 6231  15.744  43.463  12.074
37814W        W 6232  43.446  11.191  10.450
37815W        W 6233  29.542  22.182  12.371
37816W        W 6234  28.443  38.326   1.822
37817W        W 6235  15.788   7.797   2.834
37818W        W 6236  44.940  29.632  14.862
37819W        W 6237  28.997  27.047   1.423
37820W        W 6238  12.284  30.471  14.856
37821W        W 6239  43.911   1.773   3.851
37822W        W 6240   4.305  36.000   2.786
37823W        W 6241  20.694  17.181   1.315
37824W        W 6242  35.566  44.368  11.412
37825W        W 6243  38.932   4.235  12.085
37826W        W 6244  36.370  31.978   0.783
37827W        W 6245  19.554  44.789   1.372
37828W        W 6246  29.576  18.672   2.228
37829W        W 6247   0.325  23.165  12.063
37830W        W 6248  21.032  41.996  10.999
37831W        W 6249   2.344  28.935  13.841
37832W        W 6250  12.804  13.683   0.953
37833W        W 6251   5.720  24.068   4.145
37834W        W 6252  43.822  10.871   2.388
37835W        W 6253  29.509  26.122   0.266
37836W        W 6254  20.555  31.006   4.754
37837W        W 6255  19.204  27.598  13.362
37838W        W 6256  24.120   4.786   4.235
37839W        W 6257   8.249  34.871  11.937
37840W        W 6258  23.180  18.283   3.180
37841W        W 6259  42.327  26.141   0.952
37842W        W 6260  31.601   6.884  13.332
37843W        W 6261   5.303   0.478   2.806
37844W        W 6262  22.061  36.911   1.886
37845W        W 6263  26.585  30.922  13.832
37846W        W 6264   1.251  39.982   1.764
37847W        W 6265  40.031  43.880  14.484
37848W        W 6266  23.240   6.403  13.798
37849W        W 6267  28.466   0.805  14.455
37850W        W 6268  24.188  22.729  13.416
37851W        W 6269  17.729  34.084  13.511
37852W        W 6270   6.369  34.375   1.418
37853W        W 6271  33.471  32.899   3.644
37854W        W 6272   9.651   4.430   1.439
37855W        W 6273  24.080  37.042  14.783
37856W        W 6274  37.941  17.671   3.633
37857W        W 6275  32.626   3.378  14.429
37858W        W 6276  15.194   5.692  13.437
37859W        W 6277  19.159  30.617  10.589
37860W        W 6278   0.342  28.596   3.860
37861W        W 6279  30.109  17.076  12.892
37862W        W 6280  28.988  35.462   2.318
37863W        W 6281  30.576  29.084  11.559
37864W        W 6282  40.457   7.213  14.958
37865W        W 6283  24.108  35.592  11.989
37866W        W 6284  20.253  18.657  12.040
37867W        W 6285  30.009  37.376   3.368
37868W        W 6286  25.507   6.185  10.925
37869W        W 6287  11.293  38.426  12.983
37870W        W 6288  20.607  34.905   0.265
37871W        W 6289   8.343  13.176  14.333
37872W        W 6290  39.523  26.113   4.752
37873W        W 6291  18.266  43.351  10.988
37874W        W 6292  39.999  20.696  10.639
37875W        W 6293  27.132  30.465  12.379
37876W        W 6294  16.271  39.527   4.660
37877W        W 6295  37.046  13.283   1.406
37878W        W 6296  38.454  17.727  14.899
37879W        W 6297   6.317  20.101   4.308
37880W        W 6298  40.817   7.787   0.806
37881W        W 6299  33.550  24.228   3.699
37882W        W 6300  43.932   5.427  14.453
37883W        W 6301  32.423  31.597  13.942
37884W        W 6302  17.766  24.584   1.426
37885W        W 6303  35.555  41.509  10.512
37886W        W 6304  20.693  24.660  14.355
37887W        W 6305  39.909  22.054   0.767
37888W        W 6306  34.951  31.118  13.442
37889W        W 6307  10.282  36.419   1.286
37890W        W 6308  31.144  17.143   4.343
37891W        W 6309  16.683  30.095  11.568
37892W        W 6310  25.556  31.989   5.242
37893W        W 6311  28.492   3.335   1.232
37894W        W 6312   8.840  23.714   2.307
37895W        W 6313  26.111   8.276  11.125
37896W        W 6314  18.668  40.395   3.323
37897W        W 6315   9.797  44.496  11.475
37898W        W 6316  15.583  16.681  13.331
37899W        W 6317  24.020   2.391   0.732
37900W        W 6318  35.911  38.927   2.749
37901W        W 6319   2.448  38.051  13.410
37902W        W 6320   9.207  35.003   0.808
37903W        W 6321  19.634  44.264   5.241
37904W        W 6322   0.877  39.554   0.276
37905W        W 6323  31.965  28.576   2.323
37906W        W 6324  17.739  12.292   2.352
37907W        W 6325  44.448  20.543  11.590
37908W        W 6326  17.605  11.137   1.745
37909W        W 6327   5.829  28.117  12.423
37910W        W 6328  36.858   0.372  11.546
37911W        W 6329  21.186  11.167   1.820
37912W        W 6330   8.353  14.201  11.551
37913W        W 6331  28.537  19.590  10.451
37914W        W 6332   7.754  18.757  12.474
37915W        W 6333   4.212  39.909  11.064
37916W        W 6334  40.339  32.887  10.591
37917W        W 6335  30.958   8.757   5.206
37918W        W 6336  10.677  26.992  11.864
37919W        W 6337  13.835  36.957  13.338
37920W        W 6338  28.135  38.469   3.274
37921W        W 6339  23.984  27.136  13.026
37922W        W 6340  30.096   1.385  11.545
37923W        W 6341  16.755  18.606  12.946
37924W        W 6342  17.232  22.715   4.617
37925W        W 6343  30.466  20.158   3.806
37926W        W 6344   6.373   6.906  12.871
37927W        W 6345  44.803  12.220   2.344
37928W        W 6346  40.976  35.092   1.800
37929W        W 6347  26.096  36.465  12.446
37930W        W 6348  13.211  44.842  10.612
37931W        W 6349  42.795   4.913   3.351
37932W        W 6350  20.687  20.128   0.346
37933W        W 6351  44.285  41.829   5.108
37934W        W 6352   4.284  37.839  13.932
37935W        W 6353  37.013  20.711   0.388
37936W        W 6354  40.852   1.386   2.348
37937W        W 6355  14.183  36.844  13.935
37938W        W 6356  11.822  41.993   4.151
37939W        W 6357  20.667  25.512  14.986
37940W        W 6358  10.650  40.413  10.628
37941W        W 6359   1.428  35.010  12.060
37942W        W 6360  23.211   6.367  12.907
37943W        W 6361  41.381  11.216   2.388
37944W        W 6362  32.522  42.419   1.748
37945W        W 6363  35.551  39.415  11.599
37946W        W 6364  38.362  43.290   3.341
37947W        W 6365  15.818   7.676  14.458
37948W        W 6366   9.303  25.146   4.272
37949W        W 6367  34.863  26.119   1.746
37950W        W 6368  18.553  37.540   4.148
37951W        W 6369  14.120  35.935  12.525
37952W        W 6370  37.418  22.229  13.359
37953W        W 6371  39.993  13.782  14.997
37954W        W 6372  18.603   5.807  13.903
37955W        W 6373   3.310  16.689  12.930
37956W        W 6374  17.574  24.555   3.656
37957W        W 6375  44.762   0.253   2.716
37958W        W 6376  43.306  25.570   1.222
37959W        W 6377  13.295  32.525  14.995
37960W        W 6378  26.125  24.062  10.582
37961W        W 6379  27.635  12.138  11.606
37962W        W 6380  23.074  29.029  12.948
37963W        W 6381   8.743   7.736  13.520
37964W        W 6382  44.883  14.141  13.803
37965W        W 6383  31.432   0.803   4.152
37966W        W 6384   2.389  20.228  13.548
37967W        W 6385  28.108  11.723   1.423
37968W        W 6386  12.803  41.825  12.969
37969W        W 6387  40.482  29.053   9.925
37970W        W 6388  32.916   9.861  12.830
37971W        W 6389  23.591  11.718  12.028
37972W        W 6390  18.661  44.884   0.259
37973W        W 6391  14.276  27.037  13.493
37974W        W 6392  17.179  32.898   0.248
37975W        W 6393   9.343  42.812  13.822
37976W        W 6394  43.316   8.334   3.373
37977W        W 6395  32.125  33.587  14.960
37978W        W 6396  23.565   3.907   4.216
37979W        W 6397   8.746  38.066  13.926
37980W        W 6398   5.751  36.431  12.958
37981W        W 6399   1.862   9.266  14.324
37982W        W 6400  16.262  38.366   4.786
37983W        W 6401  15.265  16.569   4.754
37984W        W 6402   7.208   9.691   1.885
37985W        W 6403   0.871  30.130  10.946
37986W        W 6404  26.972   0.838   1.381
37987W        W 6405  15.635  44.364   2.810
37988W        W 6406   4.800  38.074  13.928
37989W        W 6407  41.851   3.868  12.878
37990W        W 6408  34.493  20.258   1.915
37991W        W 6409   8.239   4.316  11.863
37992W        W 6410  11.839   3.382  12.856
37993W        W 6411   7.212  32.081   3.870
37994W        W 6412  22.578  42.801  13.984
37995W        W 6413  25.985   7.275   2.813
37996W        W 6414  33.929   8.867   4.784
37997W        W 6415  29.507  37.879   3.772
37998W        W 6416  21.736  13.278   2.407
37999W        W 6417  25.016  42.481  13.545
38000W        W 6418  28.008  15.731  13.383
38001W        W 6419   4.443  21.577   3.381
38002W        W 6420  29.075  42.487   2.270
38003W        W 6421  30.115  40.924   1.313
38004W        W 6422  42.375  33.940  12.403
38005W        W 6423   8.207  38.836   3.208
38006W        W 6424  20.750  11.230   1.221
38007W        W 6425   6.688  10.857  12.554
38008W        W 6426  19.613   2.725  12.442
38009W        W 6427  16.296   6.383  14.430
38010W        W 6428  10.819  19.641  12.421
38011W        W 6429  11.668   5.293  14.336
38012W        W 6430   0.812   7.226  12.040
38013W        W 6431  31.940   1.766  13.882
38014W        W 6432  32.629  39.856   1.861
38015W        W 6433  39.948  23.130   4.837
38016W        W 6434  23.147  23.060  13.965
38017W        W 6435  44.907  25.071   2.342
38018W        W 6436  10.860  17.261   2.763
38019W        W 6437  26.475  37.416  10.962
38020W        W 6438   0.951  44.379   1.842
38021W        W 6439   3.873  31.632   4.760
38022W        W 6440  37.959  13.769   4.347
38023W        W 6441  31.417   1.285   1.795
38024W        W 6442  33.102  23.502   3.203
38025W        W 6443  35.019  38.883   0.958
38026W        W 6444   5.293  35.023  11.458
38027W        W 6445  41.835  12.329   4.264
38028W        W 6446   2.941  39.014   3.796
38029W        W 6447   7.778  26.536   4.154
38030W        W 6448  36.097  19.740   2.792
38031W        W 6449  12.716  30.538   0.803
38032W        W 6450  39.355  27.636   0.302
38033W        W 6451   6.184  34.516  13.315
38034W        W 6452  19.636  31.646   2.260
38035W        W 6453  19.235  32.139  10.578
38036W        W 6454  40.989   9.762  10.578
38037W        W 6455   2.453  28.112   0.937
38038W        W 6456   8.189  15.094  14.918
38039W        W 6457  13.751  26.030  13.000
38040W        W 6458  25.710  40.402  10.934
38041W        W 6459  28.471  29.657  13.835
38042W        W 6460  44.279   4.226  14.913
38043W        W 6461  31.096   4.781  12.482
38044W        W 6462   4.273  33.592  13.801
38045W        W 6463  34.413  27.685  14.388
38046W        W 6464  13.121  20.228  11.067
38047W        W 6465  44.985  39.535   0.813
38048W        W 6466  41.856  21.670  12.968
38049W        W 6467  18.239  44.894   3.372
38050W        W 6468   2.256   8.824   0.378
38051W        W 6469  26.954  18.745  14.032
38052W        W 6470  33.120   5.265  14.779
38053W        W 6471  44.870  17.620   1.291
38054W        W 6472  14.309  27.032  13.904
38055W        W 6473  16.096   7.700  13.833
38056W        W 6474  38.416  35.418  11.917
38057W        W 6475  25.093  28.506   1.770
38058W        W 6476  11.765  32.964   4.162
38059W        W 6477   8.710  22.560   3.198
38060W        W 6478  20.756   1.856  12.057
38061W        W 6479  35.441  36.398   1.303
38062W        W 6480  21.728  16.756   1.271
38063W        W 6481  38.901   4.218  11.000
38064W        W 6482  22.176   2.471   0.733
38065W        W 6483  13.253  13.724  12.993
38066W        W 6484  20.585  12.305   2.353
38067W        W 6485  43.986  20.668   9.987
38068W        W 6486  10.838   8.333   2.673
38069W        W 6487   9.837  27.988  11.511
38070W        W 6488  28.457   6.749  13.309
38071W        W 6489  22.107  15.812  11.594
38072W        W 6490  13.175  21.092   1.717
38073W        W 6491   7.417  22.501  12.482
38074W        W 6492  38.824   9.329   1.781
38075W        W 6493  33.880  18.129  12.998
38076W        W 6494  42.023   6.220  12.022
38077W        W 6495   5.843  27.613  14.835
38078W        W 6496   5.755  44.342   1.330
38079W        W 6497  37.888  14.120   2.340
38080W        W 6498  19.145  13.196  13.503
38081W        W 6499  28.041  21.667  12.013
38082W        W 6500  14.820   0.351   2.863
38083W        W 6501  18.561  16.696  14.025
38084W        W 6502  32.618  32.545   2.178
38085W        W 6503  17.230   2.940   1.857
38086W        W 6504  18.725  15.739  11.987
38087W        W 6505  28.543  30.955   4.707
38088W        W 6506   1.760   1.855   2.242
38089W        W 6507  25.112  37.579  13.451
38090W        W 6508  25.040   8.180  10.907
38091W        W 6509  26.670  20.070  13.804
38092W        W 6510  42.312   0.832  12.848
38093W        W 6511  17.699  11.744  14.826
38094W        W 6512  23.196  16.231   2.221
38095W        W 6513  41.459  20.202   1.423
38096W        W 6514  14.337   4.232   5.318
38097W        W 6515  12.276  21.673   4.696
38098W        W 6516   1.793   0.833   4.598
38099W        W 6517   2.452  21.054  13.839
38100W        W 6518  11.827   6.921  12.372
38101W        W 6519  32.461  37.915  10.970
38102W        W 6520  42.298  12.710   1.767
38103W        W 6521  30.654  18.558   1.769
38104W        W 6522  28.572   4.930   0.765
38105W        W 6523  38.492  34.611  10.565
38106W        W 6524  24.488  36.575  12.561
38107W        W 6525  35.384   1.440   4.789
38108W        W 6526   9.732  17.699   0.268
38109W        W 6527   2.807  17.780  10.895
38110W        W 6528  14.105  37.907  10.891
38111W        W 6529  28.030  40.051   0.931
38112W        W 6530  24.013  37.517   3.224
38113W        W 6531  30.942   7.902  13.824
38114W        W 6532  36.054  23.059   2.823
38115W        W 6533   8.843   0.260  13.792
38116W        W 6534  30.550  35.577  10.976
38117W        W 6535  19.713   9.198  13.399
38118W        W 6536  15.658   6.887  13.908
38119W        W 6537  42.351  12.249  13.942
38120W        W 6538  37.977  19.257  12.929
38121W        W 6539  33.091  17.678   0.363
38122W        W 6540  34.031  19.175  14.307
38123W        W 6541  29.029  23.203  14.335
38124W        W 6542  29.147  25.980  13.388
38125W        W 6543  39.855  11.210   0.483
38126W        W 6544  10.677  42.310   1.903
38127W        W 6545   9.655  42.379  14.000
38128W        W 6546  10.638  20.221  10.471
38129W        W 6547  44.809  26.193   4.743
38130W        W 6548  26.694   2.905  12.426
38131W        W 6549  30.078   1.762   4.216
38132W        W 6550  26.005   6.802  14.799
38133W        W 6551   2.781  44.466   1.253
38134W        W 6552  11.744  10.855   1.215
38135W        W 6553  28.049   2.319   0.289
38136W        W 6554  24.076  38.046  10.112
38137W        W 6555  39.545  35.072   2.772
38138W        W 6556  26.583  25.173  10.497
38139W        W 6557  28.454  30.633  11.536
38140W        W 6558  43.841  23.560   1.400
38141W        W 6559  39.341  40.914  13.539
38142W        W 6560  43.887   6.685   3.848
38143W        W 6561  20.050  29.508   3.351
38144W        W 6562  13.667   4.325   0.394
38145W        W 6563  17.606  26.171   3.848
38146W        W 6564  23.603  40.914   1.324
38147W        W 6565  18.768   1.261  14.860
38148W        W 6566  37.545   1.920   1.700
38149W        W 6567  18.729  20.212  14.467
38150W        W 6568  15.205  43.942  11.932
38151W        W 6569  32.545  11.241   2.414
38152W        W 6570  32.986  32.561  14.863
38153W        W 6571  28.570  28.028  11.945
38154W        W 6572  19.136   0.895   0.935
38155W        W 6573   9.373  12.238   1.924
38156W        W 6574   1.971  35.418   2.410
38157W        W 6575  40.519  29.136  13.818
38158W        W 6576  19.662  22.613  13.858
38159W        W 6577  23.166  30.490   0.923
38160W        W 6578  39.049  44.498  11.475
38161W        W 6579  37.447  19.168  11.423
38162W        W 6580  16.103  28.646   0.943
38163W        W 6581  26.192  10.679   0.728
38164W        W 6582   1.269  39.836   2.352
38165W        W 6583  17.129   4.799   3.339
38166W        W 6584  13.169   9.749  13.492
38167W        W 6585  35.906  37.346   3.213
38168W        W 6586  24.008  22.596   1.396
38169W        W 6587  35.006  35.992  11.398
38170W        W 6588  34.462   0.885  14.778
38171W        W 6589  28.175  38.964  11.107
38172W        W 6590  15.324  25.033  11.870
38173W        W 6591  32.959  25.666   1.243
38174W        W 6592  18.135  43.831  11.389
38175W        W 6593  18.589  40.026  12.567
38176W        W 6594  42.915  32.986  13.334
38177W        W 6595  37.499  43.515  12.368
38178W        W 6596  21.745  39.343   1.281
38179W        W 6597  40.905  29.589  10.444
38180W        W 6598  11.775  33.902   3.245
38181W        W 6599  30.478   7.810   5.173
38182W        W 6600  14.719  38.852   1.813
38183W        W 6601  38.862  16.073   4.209
38184W        W 6602  18.132  29.941  14.491
38185W        W 6603   6.268  27.997  14.487
38186W        W 6604  19.715  15.660   1.451
38187W        W 6605  23.178  33.533  10.991
38188W        W 6606  23.567  21.654   3.701
38189W        W 6607   6.695  10.299  10.645
38190W        W 6608   6.223  10.677   1.882
38191W        W 6609  33.896  27.979   9.955
38192W        W 6610  14.129  43.893  12.359
38193W        W 6611   2.951  36.929  13.986
38194W        W 6612  35.468   8.384  12.094
38195W        W 6613   2.864  20.549   3.158
38196W        W 6614  12.808  11.282  13.031
38197W        W 6615  15.795  38.559  14.334
38198W        W 6616  39.857  35.590   1.703
38199W        W 6617  16.262  38.910  10.440
38200W        W 6618   3.297  18.560  10.606
38201W        W 6619  40.471  25.615  13.422
38202W        W 6620  10.840  24.724   3.302
38203W        W 6621  13.635  39.025  13.403
38204W        W 6622  10.376  15.685   4.663
38205W        W 6623  35.391  16.203  12.970
38206W        W 6624  15.206  38.533   1.837
38207W        W 6625  28.945  29.950  12.883
38208W        W 6626  29.551   8.175  14.900
38209W        W 6627  14.789  11.343  12.060
38210W        W 6628  21.258  17.560  13.506
38211W        W 6629  34.598  17.068   1.212
38212W        W 6630  31.031  24.191   3.710
38213W        W 6631  13.317  16.758  12.934
38214W        W 6632  13.226  35.034   2.378
38215W        W 6633  25.003  40.810  14.846
38216W        W 6634  15.589  44.351   0.438
38217W        W 6635   0.387   4.272   1.349
38218W        W 6636  14.776  40.858  10.638
38219W        W 6637  21.564  25.550   9.996
38220W        W 6638  24.215   0.488  11.489
38221W        W 6639  40.892  12.341  13.472
38222W        W 6640   2.788  29.524   0.762
38223W        W 6641  38.913  40.033  14.005
38224W        W 6642  11.693   7.690   0.450
38225W        W 6643  44.913  30.126   1.907
38226W        W 6644  33.551  40.814   4.132
38227W        W 6645  32.457  29.053   3.864
38228W        W 6646  26.673  12.160  10.622
38229W        W 6647  40.007  34.395  13.060
38230W        W 6648  16.297  38.905   4.779
38231W        W 6649   9.742  14.270  13.797
38232W        W 6650  39.471  20.575  10.962
38233W        W 6651  31.434   2.400   4.691
38234W        W 6652  31.460  27.480   2.390
38235W        W 6653  33.435   6.281   3.823
38236W        W 6654  15.640  10.756  10.524
38237W        W 6655   0.404   9.360  11.055
38238W        W 6656  22.648  13.258  13.482
38239W        W 6657  42.788  11.308   5.174
38240W        W 6658  41.484   9.659   1.855
38241W        W 6659  28.128  19.568  13.877
38242W        W 6660  41.320  33.111   4.702
38243W        W 6661  37.425  27.970  10.914
38244W        W 6662  25.210   8.736   5.305
38245W        W 6663  16.653  25.538  11.098
38246W        W 6664   2.249   6.404   0.325
38247W        W 6665  11.653  24.516   3.690
38248W        W 6666  37.525  23.114  12.491
38249W        W 6667  29.031  44.832  13.418
38250W        W 6668  23.671  42.307   4.681
38251W        W 6669  26.599  20.757   4.268
38252W        W 6670  28.016   3.287   1.280
38253W        W 6671  32.889  35.095   2.823
38254W        W 6672  26.703  39.853  10.633
38255W        W 6673   5.769  41.499  10.520
38256W        W 6674  25.063  29.032   1.794
38257W        W 6675  12.158  13.296   1.260
38258W        W 6676  28.641  17.571  13.330
38259W        W 6677  19.234  16.686   2.376
38260W        W 6678  37.913  18.714  14.021
38261W        W 6679  38.415  33.017   0.781
38262W        W 6680  13.606  41.841  10.994
38263W        W 6681  24.059  15.695  13.945
38264W        W 6682  35.567  30.592   4.322
38265W        W 6683  17.067  43.477  12.385
38266W        W 6684   2.956  43.392  13.918
38267W        W 6685  14.230  10.865  14.510
38268W        W 6686  11.846  23.101  14.424
38269W        W 6687  14.173   2.322  14.818
38270W        W 6688  23.173  15.619   3.761
38271W        W 6689  38.324  29.578  13.519
38272W        W 6690   2.760  36.983   0.960
38273W        W 6691  33.613  36.533  13.393
38274W        W 6692  25.487  41.831   1.695
38275W        W 6693   5.782   6.379   2.294
38276W        W 6694  43.393  22.580   3.186
38277W        W 6695  41.486  44.837   4.188
38278W        W 6696  10.241  20.568  12.390
38279W        W 6697  21.248  21.575   4.766
38280W        W 6698  43.429  36.894  12.828
38281W        W 6699  27.193  29.925   4.708
38282W        W 6700  29.653   1.901  11.401
38283W        W 6701  22.726  29.563   3.742
38284W        W 6702  16.601  13.206   1.894
38285W        W 6703  32.407  20.097   2.319
38286W        W 6704  34.117  36.380  10.496
38287W        W 6705  33.533  12.190   3.708
38288W        W 6706   5.363  15.272  11.065
38289W        W 6707  41.340   9.651   0.878
38290W        W 6708  29.005   1.340   0.371
38291W        W 6709  22.169  11.738  10.639
38292W        W 6710  26.583  42.885   2.829
38293W        W 6711  35.091  38.967  10.944
38294W        W 6712  14.207  20.104   5.176
38295W        W 6713  29.452  38.328   2.832
38296W        W 6714  34.115  19.684  12.982
38297W        W 6715   7.244  42.460   1.324
38298W        W 6716  42.514  34.484  12.576
38299W        W 6717   7.701   9.842  11.030
38300W        W 6718  40.466   6.423   0.257
38301W        W 6719  23.604  11.149   4.639
38302W        W 6720  21.155  30.165   3.333
38303W        W 6721  17.239  17.075   0.774
38304W        W 6722  29.575  22.169  11.968
38305W        W 6723  25.506  34.417   9.919
38306W        W 6724  30.076  32.444   4.166
38307W        W 6725  12.315   7.828   1.778
38308W        W 6726  35.899  28.977  13.811
38309W        W 6727   2.744   8.328  12.372
38310W        W 6728  40.354  23.704   0.854
38311W        W 6729  33.502   0.424   0.739
38312W        W 6730  11.661   5.699  14.964
38313W        W 6731  21.717  17.112   0.915
38314W        W 6732  22.609  10.235   9.981
38315W        W 6733   8.190  18.556  14.804
38316W        W 6734  31.414  41.388  11.109
38317W        W 6735  40.934   7.858  13.323
38318W        W 6736  28.587  15.088   3.710
38319W        W 6737  11.170  15.265   0.933
38320W        W 6738  25.024  40.372   0.730
38321W        W 6739  11.632  22.518   4.281
38322W        W 6740  25.500   9.822   3.702
38323W        W 6741  30.585  17.204  14.979
38324W        W 6742  34.991  39.007  13.514
38325W        W 6743  19.196   6.690  14.897
38326W        W 6744  35.497  12.611   1.833
38327W        W 6745  25.076   3.922  12.540
38328W        W 6746  30.985  14.807   0.426
38329W        W 6747   9.750  39.957  12.473
38330W        W 6748  19.612   2.765   3.720
38331W        W 6749  14.304  29.145   4.670
38332W        W 6750  25.965  13.645  12.040
38333W        W 6751  43.389   0.459  12.924
38334W        W 6752  32.504  12.322  12.846
38335W        W 6753  14.595  16.250  14.929
38336W        W 6754  24.534  14.282  14.967
38337W        W 6755  42.818  15.780  12.457
38338W        W 6756  12.767  13.734   2.290
38339W        W 6757   7.199  17.557   2.702
38340W        W 6758   8.881  44.432  13.831
38341W        W 6759  43.433  10.211  12.997
38342W        W 6760  44.358   7.176   1.326
38343W        W 6761  28.992  32.074   1.809
38344W        W 6762  11.691   9.363  12.459
38345W        W 6763  42.797  44.490   0.919
38346W        W 6764  44.332  23.146  13.382
38347W        W 6765  12.640  38.385   0.879
38348W        W 6766  41.299  42.526   1.895
38349W        W 6767   0.259  14.680   1.808
38350W        W 6768  33.043  21.174   0.257
38351W        W 6769  37.519   6.790   3.159
38352W        W 6770   6.316   7.190  10.955
38353W        W 6771  40.544  38.980  11.604
38354W        W 6772  17.286   7.297  13.866
38355W        W 6773   9.170  31.119   1.418
38356W        W 6774   7.759  34.396   1.848
38357W        W 6775  17.104  15.129  14.344
38358W        W 6776  41.960  38.869   4.783
38359W        W 6777  28.563  29.044  14.003
38360W        W 6778  38.972  25.707   0.895
38361W        W 6779  32.080   4.721   4.311
38362W        W 6780  15.325  34.378   1.825
38363W        W 6781  39.473  21.626   4.722
38364W        W 6782  35.853   5.323  12.971
38365W        W 6783  23.133  31.027  13.512
38366W        W 6784  37.928   8.805   3.155
38367W        W 6785  42.846  41.442   5.566
38368W        W 6786  35.998  16.675   2.771
38369W        W 6787  39.408   1.349  10.900
38370W        W 6788   8.299   8.755  11.102
38371W        W 6789  20.082  15.182  14.398
38372W        W 6790  14.822  12.249   0.936
38373W        W 6791  44.975  37.977  13.395
38374W        W 6792  36.411  34.455   3.266
38375W        W 6793  36.383  30.490   4.138
38376W        W 6794  41.326  24.590  13.369
38377W        W 6795   6.811  15.257  14.932
38378W        W 6796  39.892   0.881   3.260
38379W        W 6797  23.535   3.815  14.775
38380W        W 6798  36.559  29.449   0.800
38381W        W 6799  37.064  26.171   3.816
38382W        W 6800  19.642  25.051   2.185
38383W        W 6801   1.460  32.502   0.872
38384W        W 6802  43.803  44.936   3.663
38385W        W 6803  37.035  39.440   4.662
38386W        W 6804  42.438  26.639  12.376
38387W        W 6805  33.996  31.447   2.788
38388W        W 6806  18.612  40.961   3.683
38389W        W 6807  40.477   2.299   0.409
38390W        W 6808  42.416  29.158  11.110
38391W        W 6809  42.024   7.416  11.091
38392W        W 6810  28.985   3.814  12.388
38393W        W 6811  41.321  21.100  11.968
38394W        W 6812   0.944  20.132   4.765
38395W        W 6813  31.401  16.142   4.729
38396W        W 6814   6.427  31.151   0.399
38397W        W 6815  23.512   6.387   2.277
38398W        W 6816   9.692  37.994  14.935
38399W        W 6817  43.852   9.658   4.648
38400W        W 6818  24.047  35.582   1.402
38401W        W 6819  39.850  27.130   3.748
38402W        W 6820  23.179  31.492   3.742
38403W        W 6821  19.760   4.260  12.409
38404W        W 6822  25.077  14.798   0.811
38405W        W 6823  10.869  23.496  12.413
38406W        W 6824  29.928  25.656  14.875
38407W        W 6825  33.118  20.684   0.876
38408W        W 6826   7.854  36.872  10.624
38409W        W 6827  41.979  35.880   4.744
38410W        W 6828  30.639  29.114   3.726
38411W        W 6829  26.469   0.422  12.022
38412W        W 6830   7.818   7.783   5.237
38413W        W 6831   4.840   9.860   4.221
38414W        W 6832  25.480  31.501   3.372
38415W        W 6833   9.647  33.901  10.461
38416W        W 6834  28.488  15.694  10.968
38417W        W 6835  22.133  35.076   0.845
38418W        W 6836  35.872  29.165   4.209
38419W        W 6837  31.139  17.204  11.985
38420W        W 6838  26.959   7.359  11.428
38421W        W 6839  18.663  16.230   0.916
38422W        W 6840  36.098  44.488  11.919
38423W        W 6841  35.033  22.244   3.795
38424W        W 6842  30.001  35.885   3.763
38425W        W 6843  26.016  29.636  11.494
38426W        W 6844   9.272  21.658  14.025
38427W        W 6845  33.911  13.197  12.462
38428W        W 6846  36.944  25.187  13.375
38429W        W 6847  28.465  36.946  14.310
38430W        W 6848  25.545   8.278   2.383
38431W        W 6849  15.113  40.325  11.386
38432W        W 6850  28.674  13.303   1.919
38433W        W 6851  19.168   5.236   4.272
38434W        W 6852   3.287   1.779   1.726
38435W        W 6853   6.748  27.028   3.299
38436W        W 6854  28.098   2.773  13.483
38437W        W 6855  43.475  14.719  12.914
38438W        W 6856  42.381  14.094   2.855
38439W        W 6857   4.243  20.660   3.648
38440W        W 6858  22.013   4.904   4.779
38441W        W 6859   0.830  17.072   1.304
38442W        W 6860  21.543  16.736   3.301
38443W        W 6861  24.008  26.195  10.623
38444W        W 6862  28.554  26.029  12.353
38445W        W 6863  22.666  11.717   2.364
38446W        W 6864  28.499  22.134   1.757
38447W        W 6865  14.767  12.297  12.368
38448W        W 6866  20.562  13.315  12.438
38449W        W 6867  25.179  14.686   4.638
38450W        W 6868  19.638  29.590   4.766
38451W        W 6869  31.924  26.577  12.343
38452W        W 6870  34.447   3.384  13.893
38453W        W 6871  35.545  34.920   1.341
38454W        W 6872  11.309  35.476   2.726
38455W        W 6873  23.125   8.829  13.894
38456W        W 6874  35.954  13.678   0.243
38457W        W 6875  23.096   4.784   0.869
38458W        W 6876  41.333  30.570  12.412
38459W        W 6877  17.759   4.824  14.434
38460W        W 6878  20.550  39.390   4.154
38461W        W 6879  20.722  36.394   2.384
38462W        W 6880  21.162   5.893   2.826
38463W        W 6881  25.620  35.482   2.266
38464W        W 6882  10.374   8.750   2.297
38465W        W 6883  31.964  34.499  13.478
38466W        W 6884  16.314  28.597   2.376
38467W        W 6885   6.408   8.271   3.270
38468W        W 6886  44.470  16.233   0.407
38469W        W 6887   7.405  23.608  12.941
38470W        W 6888  19.700   9.269   5.214
38471W        W 6889  17.235   2.396   0.933
38472W        W 6890  31.593  26.464  13.493
38473W        W 6891  42.936   5.291   1.848
38474W        W 6892  20.079  25.662  14.824
38475W        W 6893  27.657  36.941  14.814
38476W        W 6894  27.551  35.878  12.542
38477W        W 6895   0.256  37.425  13.000
38478W        W 6896  39.893  16.178   4.239
38479W        W 6897  22.566  44.308  11.935
38480W        W 6898  10.673  19.048  11.966
38481W        W 6899   0.855   3.354   3.636
38482W        W 6900  38.329   4.348  13.387
38483W        W 6901  37.496   0.269  14.335
38484W        W 6902  31.139   0.486  10.045
38485W        W 6903  15.305  18.546  14.388
38486W        W 6904  35.472  29.501  12.893
38487W        W 6905   2.906   9.153  11.373
38488W        W 6906  44.849  26.037   4.304
38489W        W 6907  14.782  31.616  14.439
38490W        W 6908  18.647   7.282  11.880
38491W        W 6909  33.575  38.459  14.490
38492W        W 6910  34.485  22.184  14.954
38493W        W 6911   1.481   8.214  13.359
38494W        W 6912  22.553  15.814  11.454
38495W        W 6913  23.071  44.366  10.453
38496W        W 6914  10.345   5.197   0.478
38497W        W 6915   2.819  28.579  14.498
38498W        W 6916   1.884  43.392   3.773
38499W        W 6917   2.305  24.709  11.031
38500W        W 6918  36.373  32.103   2.315
38501W        W 6919  16.745  25.572  12.434
38502W        W 6920  10.360  32.135   0.733
38503W        W 6921  12.147   2.786   4.783
38504W        W 6922  29.440  43.380   3.638
38505W        W 6923   0.870  28.166   4.157
38506W        W 6924   8.260  24.527  10.911
38507W        W 6925   3.732  34.510  13.872
38508W        W 6926  40.043   6.876  14.485
38509W        W 6927  15.673  22.049   3.194
38510W        W 6928  14.244   5.406  11.942
38511W        W 6929  24.725  42.844   5.296
38512W        W 6930  19.707  43.821  11.094
38513W        W 6931  36.894  22.073   1.232
38514W        W 6932   6.913  43.408   0.248
38515W        W 6933  35.369  34.393  10.978
38516W        W 6934  13.133   4.324  12.084
38517W        W 6935  16.746   1.900  14.293
38518W        W 6936  15.165  10.774   1.323
38519W        W 6937  14.181  15.767   2.902
38520W        W 6938  26.700  13.665   1.831
38521W        W 6939  30.544  43.017   3.259
38522W        W 6940  39.465  38.331  13.964
38523W        W 6941  27.538  44.947  14.895
38524W        W 6942  33.931  38.526   1.739
38525W        W 6943  14.758  36.451   3.799
38526W        W 6944  33.077  44.430  10.938
38527W        W 6945  14.804  34.505   3.633
38528W        W 6946   1.335  10.178  14.900
38529W        W 6947  26.132  16.120   2.731
38530W        W 6948  27.072  19.071  12.936
38531W        W 6949   7.692  17.212  11.540
38532W        W 6950   4.919  26.188  12.495
38533W        W 6951  40.965  21.136  11.938
38534W        W 6952  23.088  31.919  14.982
38535W        W 6953  42.292  23.680   2.734
38536W        W 6954  30.957  38.326   2.798
38537W        W 6955   1.789  43.801  13.352
38538W        W 6956  43.505  34.068  14.862
38539W        W 6957  22.574  17.283   5.175
38540W        W 6958  20.165  31.526  13.502
38541W        W 6959   2.917  20.731  11.601
38542W        W 6960  27.993  17.294   5.136
38543W        W 6961  11.825  44.336  14.842
38544W        W 6962   4.786  13.265  11.912
38545W        W 6963   8.259   1.810  14.503
38546W        W 6964  11.194   6.916  14.403
38547W        W 6965  29.664  15.749   3.257
38548W        W 6966  15.116  44.279   2.672
38549W        W 6967  13.664  18.696   2.384
38550W        W 6968   8.291  26.195  13.467
38551W        W 6969  19.540  44.397  11.584
38552W        W 6970   6.694  16.283   0.343
38553W        W 6971   3.733  17.727   1.224
38554W        W 6972   8.817  15.190   2.399
38555W        W 6973  33.563  40.350   4.319
38556W        W 6974  10.380  11.288   2.842
38557W        W 6975  12.810  29.920  11.022
38558W        W 6976  41.472  26.138   3.196
38559W        W 6977   0.464  31.557   0.911
38560W        W 6978   5.430   5.910   2.663
38561W        W 6979  16.584  32.419   0.387
38562W        W 6980  38.987  31.089   2.342
38563W        W 6981  32.910  25.633  14.789
38564W        W 6982   8.762  44.814  10.926
38565W        W 6983  16.261  20.191  10.949
38566W        W 6984  44.434  36.911   3.384
38567W        W 6985  13.600  34.978   2.834
38568W        W 6986   9.389  26.496  14.496
38569W        W 6987  33.382  38.386   3.319
38570W        W 6988   3.231  37.343   1.269
38571W        W 6989  15.312  44.383  14.515
38572W        W 6990  38.968  28.060   2.778
38573W        W 6991   8.810  35.549  11.595
38574W        W 6992   8.718  10.206   4.713
38575W        W 6993  30.955  40.334  11.544
38576W        W 6994  35.973  25.087   0.887
38577W        W 6995  30.512  27.519  12.427
38578W        W 6996  10.712  25.550   1.697
38579W        W 6997  37.976  17.722   0.839
38580W        W 6998   3.320  37.441   3.188
38581W        W 6999  10.155  13.833  12.978
38582W        W 7000  28.576   9.351   1.277
38583W        W 7001  13.335  21.512   0.880
38584W        W 7002  37.422  36.409   3.151
38585W        W 7003  42.479  25.472  14.032
38586W        W 7004  38.025   1.319   0.837
38587W        W 7005   3.284  24.115   3.327
38588W        W 7006  24.058   3.808   2.250
38589W        W 7007  26.190   1.807   3.831
38590W        W 7008   4.362  23.605  10.992
38591W        W 7009  29.995  15.781  10.516
38592W        W 7010  28.547   7.334   1.816
38593W        W 7011  14.244   1.855   2.392
38594W        W 7012  24.505  13.647  13.043
38595W        W 7013  34.941  26.992  12.424
38596W        W 7014  41.487  23.576  13.865
38597W        W 7015  24.644  14.288  14.411
38598W        W 7016  13.268   3.263   1.787
38599W        W 7017  41.369  41.914  14.444
38600W        W 7018  40.515   8.160  12.513
38601W        W 7019  34.025  20.535   2.804
38602W        W 7020  43.849  17.293   3.161
38603W        W 7021  22.040  12.778   2.781
38604W        W 7022   9.799  40.837   0.889
38605W        W 7023  32.523  31.910   0.271
38606W        W 7024  31.118  23.672  11.017
38607W        W 7025   1.475  25.666  11.056
38608W        W 7026  33.967   8.390  12.013
38609W        W 7027  32.027  32.935  13.867
38610W        W 7028  44.403   7.761   4.753
38611W        W 7029  27.006  37.011  10.907
38612W        W 7030  31.084   1.771   4.831
38613W        W 7031  41.948  44.839  11.867
38614W        W 7032   4.434  44.318   1.767
38615W        W 7033   1.260  17.721  12.495
38616W        W 7034   4.441  22.080  14.426
38617W        W 7035  34.000  39.878  14.319
38618W        W 7036  41.368  18.112   1.747
38619W        W 7037  39.363  34.389  14.903
38620W        W 7038  44.461   2.902  11.960
38621W        W 7039  34.956   3.812   2.384
38622W        W 7040   9.879  30.096   0.773
38623W        W 7041   9.770  36.502   4.296
38624W        W 7042  39.828  34.522   1.408
38625W        W 7043  19.669  31.080   2.831
38626W        W 7044   5.922   1.934   2.676
38627W        W 7045  13.276  35.901  10.491
38628W        W 7046   1.919  14.682  10.529
38629W        W 7047  20.238  14.797   1.708
38630W        W 7048   8.876   3.409   3.321
38631W        W 7049   7.792  12.829   4.218
38632W        W 7050  27.607   5.851   0.417
38633W        W 7051  42.926  42.300  12.454
38634W        W 7052  30.497  24.633   3.813
38635W        W 7053  20.267  32.426   1.859
38636W        W 7054   9.294   4.895   3.832
38637W        W 7055  15.586   1.465   1.266
38638W        W 7056  24.550  37.948   3.773
38639W        W 7057  43.306  24.719   0.756
38640W        W 7058  36.923  36.431   1.925
38641W        W 7059   2.412  25.134   3.383
38642W        W 7060  29.020   1.298  13.031
38643W        W 7061  26.591   3.729   2.192
38644W        W 7062  37.486  22.106   4.664
38645W        W 7063   8.797  28.636  11.049
38646W        W 7064  15.689  17.679  10.468
38647W        W 7065  30.562  42.881  14.370
38648W        W 7066   2.819  20.235   2.377
38649W        W 7067  27.452  16.744  11.433
38650W        W 7068  39.527  24.614  11.423
38651W        W 7069  12.640   6.779   3.280
38652W        W 7070  13.115  29.149  12.396
38653W        W 7071   3.793  25.665  14.390
38654W        W 7072  31.429   8.680   3.210
38655W        W 7073  23.605   1.736   2.677
38656W        W 7074  16.796  30.112   3.345
38657W        W 7075  30.068   8.779  11.122
38658W        W 7076  31.075  31.060  13.404
38659W        W 7077   1.268  28.961  12.858
38660W        W 7078  44.831  37.336  13.422
38661W        W 7079   0.391  15.722  13.911
38662W        W 7080  25.539  43.953  11.109
38663W        W 7081  44.787  14.694   0.752
38664W        W 7082  27.166  43.767   2.700
38665W        W 7083  33.570   6.199  12.838
38666W        W 7084   7.780  24.200  12.343
38667W        W 7085   4.788  38.848   4.695
38668W        W 7086   3.786   1.312  10.492
38669W        W 7087  27.145  28.941  13.473
38670W        W 7088  13.793   1.762   4.147
38671W        W 7089   6.729  10.149  10.965
38672W        W 7090  38.890  33.896  14.013
38673W        W 7091  40.944  19.688  13.456
38674W        W 7092  39.462   3.895   3.383
38675W        W 7093  25.036   3.804   3.652
38676W        W 7094  15.131  44.823  13.367
38677W        W 7095   8.174  39.349  11.592
38678W        W 7096  23.089  37.001   0.819
38679W        W 7097  39.973  42.412  11.921
38680W        W 7098   8.658  11.139  10.888
38681W        W 7099  35.428  33.526  11.929
38682W        W 7100  23.029  30.937  10.632
38683W        W 7101  34.507  39.026   0.253
38684W        W 7102   2.300  44.873  11.058
38685W        W 7103  19.179   3.811   1.394
38686W        W 7104  39.881  32.440   0.765
38687W        W 7105  31.021   1.258  12.942
38688W        W 7106  39.442   6.852   4.714
38689W        W 7107   7.412  22.719   3.794
38690W        W 7108  36.885  25.632  12.501
38691W        W 7109  20.672  20.119  13.434
38692W        W 7110  16.297  27.058  11.410
38693W        W 7111  11.722  20.261  11.589
38694W        W 7112   9.830   6.804   3.687
38695W        W 7113  28.549  29.026  12.918
38696W        W 7114  21.019  36.556  13.527
38697W        W 7115  29.605   2.452  10.432
38698W        W 7116  27.142  30.149   2.753
38699W        W 7117  17.791   4.449   0.248
38700W        W 7118  21.197  40.053   2.893
38701W        W 7119  21.561  17.799   4.264
38702W        W 7120   2.943  32.537   1.251
38703W        W 7121  13.120  38.867   0.455
38704W        W 7122  13.793  20.570   4.247
38705W        W 7123  41.355  16.190  13.410
38706W        W 7124  34.986  23.677   3.333
38707W        W 7125   0.299  15.126   2.766
38708W        W 7126   2.786   6.908  11.494
38709W        W 7127  16.625  40.028  11.111
38710W        W 7128  30.635  10.864  14.293
38711W        W 7129  14.321  36.987   2.340
38712W        W 7130  40.480  41.786  14.383
38713W        W 7131  25.565   9.880   0.318
38714W        W 7132  38.327   2.946  11.943
38715W        W 7133  14.787  22.035  12.339
38716W        W 7134  37.472  31.977   1.863
38717W        W 7135  30.472   9.791  10.546
38718W        W 7136  42.355   1.822  11.917
38719W        W 7137  41.441   2.283   3.700
38720W        W 7138   5.399  17.740  10.429
38721W        W 7139  36.876  36.017   4.148
38722W        W 7140  35.479   9.762  12.999
38723W        W 7141  22.595   0.910  10.590
38724W        W 7142   5.288  22.506  14.297
38725W        W 7143  19.197  11.310   4.609
38726W        W 7144   7.696  43.012   5.194
38727W        W 7145  28.584  40.310  10.911
38728W        W 7146  14.125  25.103  13.484
38729W        W 7147   0.844  28.595   4.202
38730W        W 7148  15.711  35.533   3.833
38731W        W 7149  17.300  18.086  14.334
38732W        W 7150  37.910   5.403   1.743
38733W        W 7151  29.494  30.132   4.140
38734W        W 7152  11.360  29.532   0.400
38735W        W 7153  42.999  41.386   0.350
38736W        W 7154  14.096  10.312  13.534
38737W        W 7155  10.350  37.063  11.530
38738W        W 7156  38.853  40.803  12.034
38739W        W 7157  18.091  33.028  13.972
38740W        W 7158  39.360  37.402  13.541
38741W        W 7159  20.718  20.652   4.721
38742W        W 7160  20.735  18.163  13.842
38743W        W 7161  29.047  33.513  12.877
38744W        W 7162  13.172  39.902   3.345
38745W        W 7163  24.496  43.002   1.816
38746W        W 7164  33.983  27.154   3.649
38747W        W 7165  24.015  40.479  12.070
38748W        W 7166  33.611  31.916  12.028
38749W        W 7167   6.888  29.522   3.173
38750W        W 7168  11.670   2.402   3.205
38751W        W 7169  35.931  13.175  13.961
38752W        W 7170  31.965  40.799  12.891
38753W        W 7171  30.479  36.506   4.740
38754W        W 7172  42.868  16.261  14.411
38755W        W 7173  17.088  14.740  12.530
38756W        W 7174  42.786  23.537   9.590
38757W        W 7175   1.780  40.994   2.869
38758W        W 7176  36.059  23.087  11.583
38759W        W 7177  29.432  40.483   9.990
38760W        W 7178  17.635  21.709  11.551
38761W        W 7179  41.457  11.859  11.470
38762W        W 7180  21.543  42.853   4.824
38763W        W 7181  38.043   8.300  13.508
38764W        W 7182  20.603  43.496   1.294
38765W        W 7183   5.243  40.946   1.778
38766W        W 7184   5.712  30.046   4.653
38767W        W 7185  44.991  24.616  14.289
38768W        W 7186   9.170  10.318  12.480
38769W        W 7187  16.263  24.153  11.114
38770W        W 7188   4.765  33.965   0.290
38771W        W 7189  17.150   6.334   1.248
38772W        W 7190  42.517  24.624   1.814
38773W        W 7191   6.710  32.976   0.741
38774W        W 7192   4.351   0.836   2.375
38775W        W 7193  12.318   5.344   2.261
38776W        W 7194  32.450  22.674  11.501
38777W        W 7195  20.112  12.856   1.342
38778W        W 7196  26.517  13.336  11.923
38779W        W 7197  38.031  44.488  13.897
38780W        W 7198   5.387  10.672  11.086
38781W        W 7199  32.980  32.119  12.930
38782W        W 7200  16.568   3.440  10.534
38783W        W 7201  15.308  27.994   1.410
38784W        W 7202   6.897  42.427  11.872
38785W        W 7203  32.422  22.552  12.544
38786W        W 7204  10.812  38.885   2.852
38787W        W 7205   7.890  43.381   0.365
38788W        W 7206  43.350  23.047  12.921
38789W        W 7207  33.557  30.116   1.269
38790W        W 7208  30.636  36.491   0.738
38791W        W 7209  29.588  41.991   0.334
38792W        W 7210  31.118  19.256  12.397
38793W        W 7211   7.730  44.405   0.733
38794W        W 7212  17.765  28.162   4.824
38795W        W 7213  17.247   2.296  11.562
38796W        W 7214  27.079  23.604   3.327
38797W        W 7215  28.045  19.765   3.295
38798W        W 7216  29.096  31.520   3.728
38799W        W 7217  10.361  37.855   4.804
38800W        W 7218   6.763  34.980   1.854
38801W        W 7219  10.359   9.239  11.896
38802W        W 7220   9.740  39.520  12.824
38803W        W 7221   5.361  41.878  11.864
38804W        W 7222  12.701   1.881  10.445
38805W        W 7223   3.807  38.030   0.441
38806W        W 7224   7.295  22.080  13.967
38807W        W 7225  20.199  21.044   4.738
38808W        W 7226   7.355  25.468  10.440
38809W        W 7227  26.472  21.153  12.398
38810W        W 7228  25.061   4.921   4.646
38811W        W 7229  36.586  20.140  12.479
38812W        W 7230  21.065   9.835   0.335
38813W        W 7231  36.574  24.024  10.526
38814W        W 7232  13.248  12.229   2.385
38815W        W 7233   4.355  26.182  11.002
38816W        W 7234  36.390   5.795  10.614
38817W        W 7235  38.385  42.364   1.294
38818W        W 7236  14.784  38.548   3.282
38819W        W 7237  21.059  36.456  14.003
38820W        W 7238   0.865  32.405   4.665
38821W        W 7239  41.027  39.967   0.373
38822W        W 7240  37.871  36.476   1.366
38823W        W 7241  29.155   4.232   3.185
38824W        W 7242  12.634   0.323   0.271
38825W        W 7243  10.755  41.323  12.428
38826W        W 7244  40.408  19.722   4.343
38827W        W 7245   8.758  10.851   0.307
38828W        W 7246   0.281  37.561   4.170
38829W        W 7247  30.626   7.277  10.515
38830W        W 7248  34.393   8.341   1.698
38831W        W 7249   6.834   8.725   4.238
38832W        W 7250  23.066  23.224   2.810
38833W        W 7251   6.724   6.285   0.427
38834W        W 7252  16.151  14.279  10.642
38835W        W 7253  28.110  44.970  12.536
38836W        W 7254  19.663  14.205   2.841
38837W        W 7255  28.625  28.664   3.311
38838W        W 7256  32.972  21.173   0.860
38839W        W 7257  32.007  17.633  14.897
38840W        W 7258  23.585   3.818  11.530
38841W        W 7259   0.447  33.878   0.253
38842W        W 7260  18.185  35.416  14.513
38843W        W 7261  13.765  17.620  14.289
38844W        W 7262  17.765   9.806   3.642
38845W        W 7263  43.782  12.359   5.753
38846W        W 7264  43.775   5.901   2.695
38847W        W 7265   4.318  40.973  11.888
38848W        W 7266  36.523  18.222  14.764
38849W        W 7267  27.560  19.649  13.352
38850W        W 7268  16.315  18.654   1.351
38851W        W 7269  39.466  35.068   0.861
38852W        W 7270  43.012   4.375  13.990
38853W        W 7271  37.848  20.028   1.396
38854W        W 7272   4.864  34.483   1.214
38855W        W 7273  43.912  44.354  11.447
38856W        W 7274   1.433   7.234  14.995
38857W        W 7275  11.277  38.881   0.744
38858W        W 7276   7.675  14.322   9.954
38859W        W 7277   8.285  42.903  13.314
38860W        W 7278  33.929  22.021  14.949
38861W        W 7279  24.016  15.678   5.296
38862W        W 7280  29.045  15.613  14.508
38863W        W 7281  42.403  38.401   4.246
38864W        W 7282  35.860  17.590   1.880
38865W        W 7283   7.903  26.550  11.901
38866W        W 7284  35.423  42.994   4.251
38867W        W 7285   5.230  20.685   4.147
38868W        W 7286  15.311  22.043   2.841
38869W        W 7287   3.351  22.217   5.275
38870W        W 7288  27.119  17.575  11.481
38871W        W 7289  29.060  44.928   0.405
38872W        W 7290   0.797   0.389   1.782
38873W        W 7291  24.986  35.523  12.438
38874W        W 7292   7.713   0.378   4.718
38875W        W 7293  16.620  35.371  14.938
38876W        W 7294  12.679  25.212  12.860
38877W        W 7295  44.452  40.912   0.852
38878W        W 7296  19.660  23.212  11.454
38879W        W 7297  19.264   5.713   2.211
38880W        W 7298  12.162   1.933   4.642
38881W        W 7299   3.901  35.073  13.859
38882W        W 7300   5.216   4.378   1.390
38883W        W 7301   0.828  44.394   4.650
38884W        W 7302  39.560  18.285   3.202
38885W        W 7303  28.453  35.386   2.187
38886W        W 7304  33.067  10.785   0.859
38887W        W 7305  11.664  22.999  13.917
38888W        W 7306  23.141  35.967   3.156
38889W        W 7307  44.874  40.447  13.352
38890W        W 7308  43.456  39.363   4.710
38891W        W 7309  11.193  37.423   0.259
38892W        W 7310  31.464   4.272   2.405
38893W        W 7311  33.532  38.496   0.359
38894W        W 7312  17.116  30.606   3.378
38895W        W 7313  37.448  31.457  10.961
38896W        W 7314   9.236  29.568   0.930
38897W        W 7315  42.815  22.524   2.316
38898W        W 7316  34.925   7.306   4.183
38899W        W 7317  27.160   1.956   0.396
38900W        W 7318  44.344  15.597  14.018
38901W        W 7319  11.740  12.126  10.896
38902W        W 7320  13.118   6.296   2.869
38903W        W 7321  37.403   7.813  12.393
38904W        W 7322  17.217   6.319   9.956
38905W        W 7323   2.912  29.020  14.881
38906W        W 7324  33.899  41.403   2.334
38907W        W 7325  25.107  40.848  14.508
38908W        W 7326   5.760  10.242   1.871
38909W        W 7327   9.361  41.887   0.849
38910W        W 7328  16.721  29.997  10.593
38911W        W 7329   8.239  27.675   3.256
38912W        W 7330  42.937  18.641  11.546
38913W        W 7331   1.237  22.522  10.933
38914W        W 7332  32.081  39.341   1.715
38915W        W 7333   4.940  44.784   1.775
38916W        W 7334  30.932   7.884  13.421
38917W        W 7335  33.025  18.778   4.604
38918W        W 7336  34.382  26.977  14.798
38919W        W 7337   8.314  10.707  13.796
38920W        W 7338   0.756  42.930  13.391
38921W        W 7339  36.888  32.956  14.301
38922W        W 7340  17.683  19.227   3.813
38923W        W 7341  12.130  14.336   3.271
38924W        W 7342  18.688  19.560   0.798
38925W        W 7343  41.828  36.084   1.881
38926W        W 7344  17.062  35.072   0.328
38927W        W 7345  40.010  42.317   1.875
38928W        W 7346  16.116   4.421   9.651
38929W        W 7347  10.246  14.648  10.407
38930W        W 7348  12.183  32.112   0.961
38931W        W 7349  12.672  34.078   3.177
38932W        W 7350   9.884   9.378   0.380
38933W        W 7351  38.470  27.980   2.684
38934W        W 7352   7.236  21.523  11.933
38935W        W 7353  18.163   1.444   0.846
38936W        W 7354   7.416  39.056  11.073
38937W        W 7355  23.178  26.970  10.954
38938W        W 7356  34.448   8.334  12.411
38939W        W 7357   1.393  42.830   0.464
38940W        W 7358  39.439  17.713  13.425
38941W        W 7359   0.277  14.734   3.289
38942W        W 7360  36.496   6.893  11.956
38943W        W 7361  33.921  23.575   0.876
38944W        W 7362  15.183   7.333  14.836
38945W        W 7363  38.352  16.577   1.304
38946W        W 7364  31.940  40.481  14.768
38947W        W 7365  13.203  32.106   5.220
38948W        W 7366  32.576  10.866   1.381
38949W        W 7367  17.166   2.357  13.528
38950W        W 7368  11.690  25.205   4.284
38951W        W 7369  37.392  10.313   0.811
38952W        W 7370  33.936  27.029   1.893
38953W        W 7371  43.373   5.400  11.463
38954W        W 7372   9.884  41.472  14.969
38955W        W 7373  35.541  19.264  13.515
38956W        W 7374  36.900  30.606   0.348
38957W        W 7375  24.624  28.135   4.748
38958W        W 7376  34.102  33.983  13.971
38959W        W 7377  32.108  35.006   0.817
38960W        W 7378  15.276  10.694  11.401
38961W        W 7379  44.293  23.659  12.915
38962W        W 7380  37.372   1.480   1.240
38963W        W 7381  31.565  17.270  12.547
38964W        W 7382  34.603   6.260   1.395
38965W        W 7383   3.763  29.485  12.360
38966W        W 7384  42.319  25.517   0.453
38967W        W 7385  21.156  19.163   4.754
38968W        W 7386  41.043   6.322  12.363
38969W        W 7387  22.522  33.111  10.637
38970W        W 7388  44.791  14.145  11.547
38971W        W 7389  19.623  23.656   3.651
38972W        W 7390  17.283  29.979  10.969
38973W        W 7391   6.241  40.033  13.417
38974W        W 7392  36.931  44.830   1.361
38975W        W 7393  23.136   4.816  10.551
38976W        W 7394   6.361   6.202   1.315
38977W        W 7395  17.072  34.606  12.523
38978W        W 7396  15.184  33.596  14.009
38979W        W 7397   3.827  27.579  14.802
38980W        W 7398  31.984  18.214   4.633
38981W        W 7399  31.588  27.683  13.518
38982W        W 7400  43.925  24.552  14.025
38983W        W 7401  40.511   4.713  11.595
38984W        W 7402  44.464  27.103  13.311
38985W        W 7403  19.596  29.122  13.313
38986W        W 7404  28.448   0.293   2.718
38987W        W 7405  24.991  10.270  13.014
38988W        W 7406  36.069  22.592  13.863
38989W        W 7407  22.645  38.039   1.426
38990W        W 7408  18.771  44.817  11.948
38991W        W 7409  32.552  22.226  14.900
38992W        W 7410   4.387  30.546  12.362
38993W        W 7411  19.769   2.251   5.186
38994W        W 7412  39.464  33.090   0.450
38995W        W 7413   7.261   6.279  13.949
38996W        W 7414   4.749  31.451  14.458
38997W        W 7415  37.379  41.954   3.705
38998W        W 7416  34.583  10.855  11.944
38999W        W 7417  16.088  12.252   0.262
39000W        W 7418   4.901  23.191   2.850
39001W        W 7419  30.612  30.642  12.880
39002W        W 7420  32.086  28.108  11.487
39003W        W 7421  40.857  10.349   1.254
39004W        W 7422   0.817  28.971  12.425
39005W        W 7423  24.009  27.186   3.648
39006W        W 7424   2.359  10.301   2.837
39007W        W 7425  26.651  43.436   3.361
39008W        W 7426   1.760  30.514  13.365
39009W        W 7427   7.329   4.232  11.478
39010W        W 7428   0.907  34.869   2.375
39011W        W 7429  23.192  11.189  13.470
39012W        W 7430  39.059   5.855   1.829
39013W        W 7431  16.303  25.561   4.135
39014W        W 7432  35.512  43.361  12.041
39015W        W 7433  26.602  39.819   2.191
39016W        W 7434  19.625   8.344  10.950
39017W        W 7435  37.866   6.913   0.477
39018W        W 7436  44.301  27.488  14.465
39019W        W 7437  11.671  27.022   3.681
39020W        W 7438  43.441   9.686  11.481
39021W        W 7439  24.595   8.299  11.996
39022W        W 7440  22.143  36.014   0.457
39023W        W 7441  14.269  27.137  10.482
39024W        W 7442  44.341  13.732   3.853
39025W        W 7443   0.936  38.552   3.860
39026W        W 7444  37.964  13.763  10.522
39027W        W 7445  41.491  11.194   4.148
39028W        W 7446   0.370  30.967   0.745
39029W        W 7447  39.393  11.746   0.768
39030W        W 7448  44.813  20.738   5.187
39031W        W 7449  13.622  30.617  13.791
39032W        W 7450  35.971  39.326  14.438
39033W        W 7451   2.755  43.495  11.883
39034W        W 7452  22.741  18.579  10.945
39035W        W 7453  15.767  27.516  14.029
39036W        W 7454  12.134   3.226   2.362
39037W        W 7455   0.973   9.376  14.305
39038W        W 7456  40.860  35.946   1.726
39039W        W 7457  20.106  10.820   2.386
39040W        W 7458  11.285   0.879  11.938
39041W        W 7459  24.227   6.371  12.924
39042W        W 7460  16.711  21.155  14.440
39043W        W 7461   8.209  27.645  13.816
39044W        W 7462  20.663  29.020   4.602
39045W        W 7463   1.911  28.473   0.756
39046W        W 7464   5.270  22.626  13.972
39047W        W 7465  41.421  25.631   4.179
39048W        W 7466  18.758  30.648   4.261
39049W        W 7467  32.998  36.355   0.747
39050W        W 7468  12.340  17.729  11.418
39051W        W 7469  13.732   5.841   3.145
39052W        W 7470  32.980  15.657  14.894
39053W        W 7471  41.817  36.448   1.915
39054W        W 7472  20.159  13.832   0.934
39055W        W 7473   9.377  40.001   5.288
39056W        W 7474  25.199   6.338  11.871
39057W        W 7475  44.392  18.746  14.809
39058W        W 7476  30.497  40.923  13.956
39059W        W 7477  38.062   8.167   1.883
39060W        W 7478  42.283  30.474  11.952
39061W        W 7479  41.010  42.007   1.862
39062W        W 7480   3.441  34.454   3.783
39063W        W 7481  15.239  32.442   3.664
39064W        W 7482  13.217   2.910  14.833
39065W        W 7483  44.364  16.700  11.871
39066W        W 7484  16.583   3.441  13.924
39067W        W 7485  30.417  16.648  10.635
39068W        W 7486  28.954  34.989  11.113
39069W        W 7487  16.620  21.037  12.411
39070W        W 7488  18.121  35.855   0.313
39071W        W 7489   7.909  33.532   2.272
39072W        W 7490  23.142  13.333   0.346
39073W        W 7491  41.440  19.205   1.328
39074W        W 7492  14.729  33.036  12.932
39075W        W 7493  12.274  34.995  10.912
39076W        W 7494  36.585  39.518  12.501
39077W        W 7495  40.045  43.389   4.605
39078W        W 7496  38.987  15.189   0.901
39079W        W 7497   9.197  40.842  13.037
39080W        W 7498  15.714  18.572   2.364
39081W        W 7499   4.347  38.040   2.886
39082W        W 7500  16.160  39.968   3.642
39083W        W 7501   5.763  21.663  14.958
39084W        W 7502  16.142  43.785  11.578
39085W        W 7503  32.038   9.722   4.164
39086W        W 7504  41.448   0.492   3.860
39087W        W 7505   4.864  32.958  11.904
39088W        W 7506  36.350   9.342   4.765
39089W        W 7507  12.305  22.178   1.932
39090W        W 7508  40.991  25.514   2.841
39091W        W 7509  13.735   6.230   0.255
39092W        W 7510   5.844  40.967   0.251
39093W        W 7511  42.891   5.337   3.705
39094W        W 7512  12.831  25.111  11.562
39095W        W 7513  41.515  20.737   0.853
39096W        W 7514  32.410  35.503  13.438
39097W        W 7515  11.729  21.056  14.794
39098W        W 7516  40.820  41.840   0.428
39099W        W 7517   2.470  25.110  11.938
39100W        W 7518  14.740  27.542   2.747
39101W        W 7519  23.617  30.097  11.945
39102W        W 7520   7.871  29.645   0.802
39103W        W 7521   1.305  39.447  13.541
39104W        W 7522   7.327  17.618   0.406
39105W        W 7523  35.593   6.228  12.417
39106W        W 7524  39.852  23.177   4.297
39107W        W 7525   2.242  38.911  13.458
39108W        W 7526  13.158   3.825  12.985
39109W        W 7527  30.429   1.441  14.412
39110W        W 7528  14.772  19.101   3.302
39111W        W 7529  44.859  14.726   4.654
39112W        W 7530  40.998  32.082   1.746
39113W        W 7531  17.737   7.800  12.505
39114W        W 7532  26.080  42.023   1.239
39115W        W 7533   9.186  41.830  12.065
39116W        W 7534   9.688  12.824  12.423
39117W        W 7535  36.942   7.701   3.690
39118W        W 7536   2.867  41.378  14.819
39119W        W 7537  20.256  39.001  14.348
39120W        W 7538  11.829  23.723   0.423
39121W        W 7539   8.402  31.093  12.066
39122W        W 7540  25.706  12.690  10.413
39123W        W 7541   5.257  36.513   2.318
39124W        W 7542  17.183  38.406  12.579
39125W        W 7543  23.061  23.491   0.742
39126W        W 7544  11.658  30.081   3.818
39127W        W 7545  12.651   4.749  12.569
39128W        W 7546  24.101  44.938  11.472
39129W        W 7547  28.560  29.993  14.844
39130W        W 7548  24.104  10.179   4.263
39131W        W 7549   5.741  16.109  14.806
39132W        W 7550  13.129  40.923  11.914
39133W        W 7551  33.051  10.360  12.949
39134W        W 7552  32.893  17.577  13.536
39135W        W 7553  26.661  39.371  11.494
39136W        W 7554  36.935   4.245   4.333
39137W        W 7555  17.731  21.677   2.329
39138W        W 7556  43.313   5.779   2.416
39139W        W 7557  20.732   8.182   1.731
39140W        W 7558  41.335  43.901  14.016
39141W        W 7559  18.129  23.504   5.674
39142W        W 7560   2.941  10.810  13.958
39143W        W 7561  12.726  23.197   4.716
39144W        W 7562  17.099   6.246   4.673
39145W        W 7563  28.164  30.005   3.702
39146W        W 7564  20.554   9.680   3.229
39147W        W 7565   5.266  16.730  11.875
39148W        W 7566   4.427  19.725   3.218
39149W        W 7567  27.965  44.284  13.418
39150W        W 7568  17.284  39.447  11.457
39151W        W 7569   9.781   2.721   1.385
39152W        W 7570  15.166  22.037   2.405
39153W        W 7571  17.284  28.485   0.319
39154W        W 7572   7.324  34.492   3.804
39155W        W 7573  43.287  43.387   1.865
39156W        W 7574   5.793  29.441  13.023
39157W        W 7575   8.294   5.901  12.013
39158W        W 7576  14.262  19.284  13.824
39159W        W 7577  25.507   3.950   2.342
39160W        W 7578  17.081  24.975   2.321
39161W        W 7579  23.711  41.010  12.370
39162W        W 7580  42.845  16.315  10.571
39163W        W 7581   9.874   9.796  11.534
39164W        W 7582  27.449  18.642   4.325
39165W        W 7583   1.401  33.016   2.795
39166W        W 7584  41.441  41.356  14.867
39167W        W 7585  40.881  33.084   1.704
39168W        W 7586  44.879  35.387  13.491
39169W        W 7587  30.069  31.413  11.006
39170W        W 7588  36.368   3.247   4.171
39171W        W 7589  37.917  25.584   3.684
39172W        W 7590  12.855   1.287   2.746
39173W        W 7591  16.772   1.831   4.750
39174W        W 7592  23.082  28.533   0.888
39175W        W 7593  23.098  24.516  10.556
39176W        W 7594   7.803   4.353   4.350
39177W        W 7595  16.239  41.018   2.843
39178W        W 7596  11.762  30.991  14.363
39179W        W 7597  36.532  42.456   3.251
39180W        W 7598  31.991  13.167   0.293
39181W        W 7599   7.896  14.748  11.957
39182W        W 7600  39.824  19.550  11.114
39183W        W 7601  13.350  38.988  11.069
39184W        W 7602   4.944  27.023  14.470
39185W        W 7603   7.220  16.612   1.824
39186W        W 7604  35.976  43.888  13.057
39187W        W 7605  37.452  42.358  13.465
39188W        W 7606  12.636  35.036  10.448
39189W        W 7607  41.469  20.214   3.189
39190W        W 7608  38.921  10.213  11.905
39191W        W 7609  36.485  24.023   0.449
39192W        W 7610  33.513  16.287  14.478
39193W        W 7611  30.413  12.645   0.328
39194W        W 7612  43.361  27.077   2.180
39195W        W 7613  16.076  28.030   1.893
39196W        W 7614  14.330  15.134   4.680
39197W        W 7615  12.148  44.936  13.961
39198W        W 7616  26.017  12.247   4.808
39199W        W 7617  42.794   1.834   1.451
39200W        W 7618  29.593  26.152   0.938
39201W        W 7619  23.045  28.561  11.572
39202W        W 7620   4.353  28.094   0.745
39203W        W 7621  13.344  12.619  13.003
39204W        W 7622  40.964  23.067  13.332
39205W        W 7623  30.937  27.583  11.529
39206W        W 7624  16.688   5.377  13.957
39207W        W 7625  27.628  18.074  12.915
39208W        W 7626   8.720  17.685   2.877
39209W        W 7627  23.630  42.924   1.299
39210W        W 7628   9.770  35.054   1.351
39211W        W 7629  31.928  15.581  11.982
39212W        W 7630  11.710  43.385  11.950
39213W        W 7631  12.771   3.459   3.721
39214W        W 7632  38.991  25.618   3.838
39215W        W 7633  33.526   9.757  12.963
39216W        W 7634  15.636  20.614  13.904
39217W        W 7635  33.056  28.486  11.096
39218W        W 7636  31.526  18.727   3.385
39219W        W 7637  16.253   9.246  12.403
39220W        W 7638   5.272   7.894  14.791
39221W        W 7639  26.996   9.662   5.166
39222W        W 7640  43.390  29.474   3.787
39223W        W 7641  30.008  35.370  13.884
39224W        W 7642  28.496  26.001   0.314
39225W        W 7643   1.381  20.698  12.999
39226W        W 7644   9.715  43.495   2.862
39227W        W 7645  28.970  18.217   3.192
39228W        W 7646   3.328  29.070   0.443
39229W        W 7647   2.386   3.892  13.023
39230W        W 7648   6.387  15.712   5.178
39231W        W 7649  28.651  36.456  13.502
39232W        W 7650   2.247  10.789  12.943
39233W        W 7651   8.375  10.743   4.770
39234W        W 7652   1.845  29.172   4.152
39235W        W 7653  18.568   6.880   2.275
39236W        W 7654  15.760  17.780  12.917
39237W        W 7655   1.414  10.296  12.473
39238W        W 7656  16.627   1.878   3.769
39239W        W 7657  39.436  31.407  14.777
39240W        W 7658  40.941   3.255  14.358
39241W        W 7659  39.956  24.055   0.341
39242W        W 7660  30.046  17.621  13.538
39243W        W 7661  24.003  34.385   2.310
39244W        W 7662  14.230  25.131   4.705
39245W        W 7663   2.960  44.823   0.813
39246W        W 7664  29.107  43.516   1.289
39247W        W 7665  23.566  16.228   2.763
39248W        W 7666  36.524  27.942   3.373
39249W        W 7667  36.969  39.545  13.825
39250W        W 7668  40.958   4.261  10.467
39251W        W 7669  27.030  27.150   2.416
39252W        W 7670  17.135   4.936   4.815
39253W        W 7671   5.838  33.521  13.480
39254W        W 7672  44.775   1.417  14.788
39255W        W 7673  19.196  43.342   4.252
39256W        W 7674   3.255  42.778   3.754
39257W        W 7675  35.864  17.172  12.001
39258W        W 7676   3.257   1.752  11.956
39259W        W 7677  10.258  29.080   3.199
39260W        W 7678  23.676   3.369  14.370
39261W        W 7679   8.847  33.447  14.861
39262W        W 7680  11.314  26.566  14.939
39263W        W 7681  25.530  18.066   3.673
39264W        W 7682   0.258  15.728  14.417
39265W        W 7683  15.229  39.853  10.472
39266W        W 7684  23.101  44.933  12.093
39267W        W 7685  23.155  29.670   1.386
39268W        W 7686  11.785  21.753  10.554
39269W        W 7687  11.329  14.601   0.406
39270W        W 7688   6.185  43.956   4.115
39271W        W 7689  32.965   9.251  12.961
39272W        W 7690  40.975  19.650   4.680
39273W        W 7691  38.933  19.209  10.508
39274W        W 7692  32.397  24.040  13.909
39275W        W 7693   3.839  32.562  11.610
39276W        W 7694  24.145  44.801  11.972
39277W        W 7695   8.296  38.338   1.868
39278W        W 7696  15.600   7.229   1.713
39279W        W 7697  32.957  27.025  13.455
39280W        W 7698  32.462  28.586  11.892
39281W        W 7699  24.620  11.694   2.804
39282W        W 7700  34.052  39.024  10.038
39283W        W 7701  20.626  22.066   2.343
39284W        W 7702   3.395  29.928  11.899
39285W        W 7703   5.814  16.099  10.470
39286W        W 7704   0.353  30.530   0.369
39287W        W 7705  24.093   4.420  12.381
39288W        W 7706   2.784  39.320  14.418
39289W        W 7707  35.495  25.174  11.433
39290W        W 7708   8.250  17.591  13.460
39291W        W 7709   3.344   1.471   0.262
39292W        W 7710   8.803  41.450  14.886
39293W        W 7711  10.197  42.407   1.695
39294W        W 7712  26.519  16.272   1.706
39295W        W 7713  43.498   1.735   1.327
39296W        W 7714  26.952  39.449  13.541
39297W        W 7715  33.001  16.776  10.501
39298W        W 7716   2.293  34.924  10.994
39299W        W 7717   7.758  32.393  12.421
39300W        W 7718   8.323  13.188  13.445
39301W        W 7719  35.879  13.325   5.095
39302W        W 7720  29.946  19.246  10.967
39303W        W 7721  40.341  27.999   0.790
39304W        W 7722   8.405  38.385   0.334
39305W        W 7723  39.415  39.464  13.029
39306W        W 7724  29.474   7.206   0.416
39307W        W 7725   3.345   4.826  14.307
39308W        W 7726   8.863  38.023  13.034
39309W        W 7727  21.633  17.728  12.053
39310W        W 7728  40.530  33.985  11.024
39311W        W 7729   5.434  18.624  13.055
39312W        W 7730  26.527  42.487  12.950
39313W        W 7731  42.925  27.014   1.744
39314W        W 7732  44.387   9.385  12.420
39315W        W 7733  17.111  12.351  13.379
39316W        W 7734  43.901  43.466   0.349
39317W        W 7735  26.632  41.448   0.832
39318W        W 7736  19.766  33.908  13.537
39319W        W 7737   7.716  39.852  13.866
39320W        W 7738   0.364  14.245  14.028
39321W        W 7739  24.701  20.666  10.467
39322W        W 7740  10.860  32.983  13.398
39323W        W 7741  11.768  27.643   3.300
39324W        W 7742  33.039  30.939  13.865
39325W        W 7743  41.900   6.290   2.845
39326W        W 7744  33.511  17.123  14.807
39327W        W 7745  41.025  36.083  13.439
39328W        W 7746  36.864  24.573   4.140
39329W        W 7747  29.164   8.891   2.312
39330W        W 7748  33.881   3.952   4.149
39331W        W 7749  42.457  42.845  12.361
39332W        W 7750  12.679  18.600  14.326
39333W        W 7751  13.332  30.569   1.360
39334W        W 7752  30.058  12.200  14.004
39335W        W 7753  21.564  36.864   2.288
39336W        W 7754  37.350  42.289  14.279
39337W        W 7755  32.904  36.003  11.937
39338W        W 7756  18.640  29.093  11.425
39339W        W 7757   2.390   2.259   2.757
39340W        W 7758  23.091  30.501  13.054
39341W        W 7759  27.647  33.042   0.281
39342W        W 7760  22.584  36.076  11.017
39343W        W 7761  13.658  39.426   0.819
39344W        W 7762  23.638  34.958  12.914
39345W        W 7763  31.405   9.216  12.363
39346W        W 7764  42.426   6.884   4.158
39347W        W 7765  41.433   1.956  11.062
39348W        W 7766   1.785  26.957  10.576
39349W        W 7767  36.562  22.236  14.917
39350W        W 7768  20.047  41.513   0.269
39351W        W 7769  11.677   7.376   4.167
39352W        W 7770   7.241  28.032  11.378
39353W        W 7771  25.469  40.895   4.240
39354W        W 7772  39.890  12.354  14.934
39355W        W 7773  36.465   8.844   1.823
39356W        W 7774  33.116   6.267   1.445
39357W        W 7775  24.080  44.813   2.392
39358W        W 7776  40.857   1.815  13.396
39359W        W 7777  28.131  27.026   9.985
39360W        W 7778  15.292  42.862   0.944
39361W        W 7779  39.424  39.513  11.523
39362W        W 7780  13.615   3.233   1.742
39363W        W 7781  23.637  21.709  14.440
39364W        W 7782  20.530  14.613  12.887
39365W        W 7783   5.301   4.238  14.324
39366W        W 7784  17.725  12.300   4.175
39367W        W 7785  15.205  27.658   1.294
39368W        W 7786  15.616   1.421  14.800
39369W        W 7787  26.671   4.927   1.308
39370W        W 7788  25.048  17.730  13.053
39371W        W 7789  18.158  39.863   4.253
39372W        W 7790  18.683  39.372  14.778
39373W        W 7791  38.850  30.652  10.917
39374W        W 7792   1.897  20.231   9.635
39375W        W 7793  35.102  27.003   4.130
39376W        W 7794  38.559  30.439  10.479
39377W        W 7795  24.496  28.594   0.905
39378W        W 7796  24.030   1.869  13.797
39379W        W 7797  10.677  30.932  14.431
39380W        W 7798  32.462  35.862  13.868
39381W        W 7799   4.804   5.211   2.282
39382W        W 7800   2.446  43.823   0.921
39383W        W 7801  13.186  32.503   0.793
39384W        W 7802   7.239  22.513  12.047
39385W        W 7803  42.507  22.516   2.850
39386W        W 7804  27.652  21.665   2.840
39387W        W 7805  13.809   5.274   4.127
39388W        W 7806  38.061   0.858   0.458
39389W        W 7807  21.526  14.596   2.325
39390W        W 7808  17.670  13.345  13.337
39391W        W 7809  34.110  18.586   3.225
39392W        W 7810  26.145   5.309   1.731
39393W        W 7811  35.462  22.148  11.949
39394W        W 7812  44.838   8.354   0.475
39395W        W 7813   3.923  39.985  13.053
39396W        W 7814  42.523  44.882   4.187
39397W        W 7815  44.913  40.916  14.764
39398W        W 7816  41.790   9.219   3.805
39399W        W 7817  44.317  31.121   0.951
39400W        W 7818  23.001  27.501  10.415
39401W        W 7819  23.062  13.664   0.950
39402W        W 7820  27.606  15.202   2.793
39403W        W 7821  44.360  20.531   3.375
39404W        W 7822   8.398  27.601   0.770
39405W        W 7823  19.047  43.338   3.259
39406W        W 7824   7.734  14.642   3.672
39407W        W 7825  31.100  28.067  14.298
39408W        W 7826  40.932  29.080  12.001
39409W        W 7827  25.985  13.140  10.641
39410W        W 7828  41.417  40.479  13.815
39411W        W 7829  20.121  10.245   1.767
39412W        W 7830  13.796  14.666   4.174
39413W        W 7831  38.397   5.224   1.250
39414W        W 7832  15.182  40.011   1.252
39415W        W 7833  39.823   3.442   0.475
39416W        W 7834  29.139  42.364   3.836
39417W        W 7835   4.785   6.747   0.756
39418W        W 7836  20.622  44.417   0.770
39419W        W 7837  43.851  10.213  14.424
39420W        W 7838  24.687   6.688  13.926
39421W        W 7839   8.220  35.912  13.880
39422W        W 7840  35.924  36.350   0.468
39423W        W 7841  17.231  38.942  13.307
39424W        W 7842   6.756  27.084   0.319
39425W        W 7843  19.764  11.219   9.512
39426W        W 7844  13.739  24.187  14.822
39427W        W 7845  16.693  29.150   0.355
39428W        W 7846   8.203  15.680   0.927
39429W        W 7847  43.798  38.918   0.296
39430W        W 7848  31.033  26.966  14.423
39431W        W 7849  15.114  35.446  14.305
39432W        W 7850  31.467  43.363   3.660
39433W        W 7851  10.865  33.386  10.967
39434W        W 7852  20.681  24.065   4.736
39435W        W 7853   2.912  10.665   2.837
39436W        W 7854  34.598  44.903   3.802
39437W        W 7855   8.190  13.245   2.834
39438W        W 7856  11.350  40.054   2.317
39439W        W 7857  39.329  43.797  14.438
39440W        W 7858   7.788   0.362   3.633
39441W        W 7859  30.451   9.283  12.930
39442W        W 7860   7.175  11.179  13.448
39443W        W 7861  40.975   7.714   1.345
39444W        W 7862  15.773  28.456   0.882
39445W        W 7863  10.317   2.925  10.599
39446W        W 7864  33.901  26.179  10.421
39447W        W 7865   4.354  10.260  12.020
39448W        W 7866   8.324  27.179  11.541
39449W        W 7867  16.259   0.923  10.017
39450W        W 7868  40.432  30.534   2.191
39451W        W 7869  39.351  42.816  12.933
39452W        W 7870  23.507  35.877  12.385
39453W        W 7871  32.577  13.641   4.682
39454W        W 7872  23.535   0.841   1.716
39455W        W 7873  18.616  12.817   3.794
39456W        W 7874  13.814  10.313   4.641
39457W        W 7875  11.732   3.357   0.473
39458W        W 7876  11.236  42.337  11.893
39459W        W 7877   8.766  11.143  14.843
39460W        W 7878  35.026   3.438  14.449
39461W        W 7879  14.695  23.100   2.245
39462W        W 7880  10.713  13.717  11.947
39463W        W 7881  21.526  37.519  11.427
39464W        W 7882  16.316  26.656  10.502
39465W        W 7883   6.811  44.811  10.909
39466W        W 7884  39.435  25.661  14.469
39467W        W 7885  38.375   9.851  14.509
39468W        W 7886  22.129  42.821   4.153
39469W        W 7887  21.697  40.504   2.276
39470W        W 7888  35.516   0.487   1.859
39471W        W 7889   4.253  33.459   2.298
39472W        W 7890   9.722   1.943  12.577
39473W        W 7891  19.184   8.358  12.476
39474W        W 7892  19.166   2.340  11.917
39475W        W 7893  23.201  12.196   4.798
39476W        W 7894  35.430  25.473  14.821
39477W        W 7895  14.786  16.711  12.088
39478W        W 7896  38.508  44.494  14.001
39479W        W 7897   9.673  31.153   1.348
39480W        W 7898  19.280  36.538  10.473
39481W        W 7899  25.178  32.960  13.497
39482W        W 7900  10.688  17.701  10.483
39483W        W 7901  13.803  40.547   2.388
39484W        W 7902  28.028  28.553   3.197
39485W        W 7903   8.730  32.901   2.833
39486W        W 7904  43.932  35.036  11.556
39487W        W 7905  44.470  22.667   1.893
39488W        W 7906  22.098  11.795  13.328
39489W        W 7907   2.797  14.700   0.776
39490W        W 7908  35.933  27.140   3.825
39491W        W 7909   7.702  19.666  10.035
39492W        W 7910  30.471  37.569   2.235
39493W        W 7911  33.514  44.913   2.211
39494W        W 7912  11.654  25.704  10.963
39495W        W 7913   2.955  39.370   0.922
39496W        W 7914  37.009  39.035   3.246
39497W        W 7915   1.817   8.196   4.350
39498W        W 7916   4.796  24.984   0.865
39499W        W 7917  17.722  42.907  13.367
39500W        W 7918  39.528  38.030   4.177
39501W        W 7919  20.676  38.985  13.509
39502W        W 7920  33.980  30.080  12.847
39503W        W 7921  42.973   3.450  12.933
39504W        W 7922  31.598  26.026   4.702
39505W        W 7923   5.348   4.341  12.402
39506W        W 7924  13.749  12.815  13.317
39507W        W 7925   4.721   5.895   2.209
39508W        W 7926  23.619  26.992  10.462
39509W        W 7927  24.021  11.631  14.769
39510W        W 7928  42.413  37.024   0.860
39511W        W 7929  32.909  26.161  11.030
39512W        W 7930  27.601  41.312  13.964
39513W        W 7931  24.218  21.168  13.343
39514W        W 7932  23.102  27.165  12.370
39515W        W 7933  26.662   8.207   2.346
39516W        W 7934  27.683  36.873   2.404
39517W        W 7935  21.627   5.356  12.534
39518W        W 7936  20.608   1.264   4.831
39519W        W 7937   7.726  19.706   3.262
39520W        W 7938  14.318   3.403   1.905
39521W        W 7939   7.274  41.990   0.456
39522W        W 7940   3.797  30.524   2.358
39523W        W 7941  16.086  41.326  13.891
39524W        W 7942   1.855  34.521  12.854
39525W        W 7943  35.390  12.743   0.749
39526W        W 7944   9.363  37.408   0.410
39527W        W 7945  30.073  37.086   1.402
39528W        W 7946  35.534   3.851  13.860
39529W        W 7947  36.439  22.656   5.169
39530W        W 7948  35.546  23.587  13.905
39531W        W 7949   3.786  27.147  13.488
39532W        W 7950  31.603  25.182   5.170
39533W        W 7951  15.742  16.212  12.894
39534W        W 7952  21.615  26.525   2.259
39535W        W 7953  37.833  10.365   1.802
39536W        W 7954  31.429  38.965  14.324
39537W        W 7955  37.929  30.943   2.402
39538W        W 7956  39.954   5.902  11.540
39539W        W 7957  24.016  27.447   0.393
39540W        W 7958   9.213  16.130  11.512
39541W        W 7959   2.235  11.859   0.403
39542W        W 7960   9.163   0.987   3.371
39543W        W 7961   3.233   7.673  13.400
39544W        W 7962  42.790   7.905   2.885
39545W        W 7963  15.313  43.969  11.584
39546W        W 7964  21.099  44.336   3.235
39547W        W 7965  14.158   1.837  10.426
39548W        W 7966  39.344  44.879  13.857
39549W        W 7967   0.818   8.177  12.975
39550W        W 7968  23.547  15.697  11.034
39551W        W 7969  14.665  30.963  10.574
39552W        W 7970  34.412  40.537   4.743
39553W        W 7971  24.552  21.758  10.499
39554W        W 7972  14.640  31.419  11.930
39555W        W 7973  31.904  18.765  12.491
39556W        W 7974  44.929   6.822  13.353
39557W        W 7975   8.830  13.257  14.849
39558W        W 7976  11.369  10.222   4.818
39559W        W 7977  23.579  39.064  14.485
39560W        W 7978  40.816  20.676  14.960
39561W        W 7979  13.174  19.266   3.824
39562W        W 7980  11.308  20.758   1.802
39563W        W 7981   8.835  31.114   0.296
39564W        W 7982  42.907  36.097   0.332
39565W        W 7983   5.737  23.666  14.351
39566W        W 7984  17.067  24.996   5.162
39567W        W 7985  14.111  17.065   3.651
39568W        W 7986  14.212  34.416  10.983
39569W        W 7987   3.229  19.602  10.537
39570W        W 7988   8.681  32.444   3.785
39571W        W 7989   3.396   1.385  14.403
39572W        W 7990  35.476  44.766   0.781
39573W        W 7991  15.285  17.101  12.857
39574W        W 7992  41.474  15.744   4.703
39575W        W 7993  21.537  42.408   3.168
39576W        W 7994  27.073   7.882   4.800
39577W        W 7995  16.793  24.218  14.898
39578W        W 7996  32.408   6.754  12.538
39579W        W 7997  14.190   5.709  11.123
39580W        W 7998   1.450   1.439   3.726
39581W        W 7999  28.040  37.946  14.879
39582W        W 8000  39.395   9.279  14.800
39583W        W 8001  14.146  24.564  14.440
39584W        W 8002  19.539   2.810  13.309
39585W        W 8003  33.498  10.380   4.240
39586W        W 8004  20.044  17.102   1.395
39587W        W 8005  14.710  34.881  14.349
39588W        W 8006  40.050  31.643   3.781
39589W        W 8007  40.484  36.415   1.249
39590W        W 8008  39.414  34.002  13.998
39591W        W 8009  27.643  25.969  14.512
39592W        W 8010   0.939  27.638  10.937
39593W        W 8011  33.433  39.964   3.314
39594W        W 8012  25.567  35.101  14.795
39595W        W 8013  40.433   8.335  14.953
39596W        W 8014  29.002  21.029  13.424
39597W        W 8015  36.903  21.715  10.506
39598W        W 8016   2.461  31.900   5.265
39599W        W 8017   5.257   7.906   3.770
39600W        W 8018  40.834  28.672  10.458
39601W        W 8019   4.219  39.318  11.058
39602W        W 8020  14.339  12.197  12.073
39603W        W 8021  20.538  23.685   0.811
39604W        W 8022  10.710  18.662   0.777
39605W        W 8023  31.027  41.909   3.756
39606W        W 8024  21.611  15.625   2.813
39607W        W 8025  20.127   7.892  13.942
39608W        W 8026  20.575   4.245   3.284
39609W        W 8027   4.368  33.522  10.928
39610W        W 8028  29.031  43.499   0.815
39611W        W 8029   6.808  15.245   2.263
39612W        W 8030  32.007  40.006   0.962
39613W        W 8031  17.664  34.944   1.722
39614W        W 8032  33.960  38.345  12.406
39615W        W 8033  41.934  32.899  12.451
39616W        W 8034  17.162  21.174   3.667
39617W        W 8035  18.628  43.436  11.463
39618W        W 8036  42.491  44.302  14.981
39619W        W 8037  17.579  25.081   4.710
39620W        W 8038   8.312  19.123   0.839
39621W        W 8039  12.743  36.040   3.158
39622W        W 8040  43.494  31.607  11.962
39623W        W 8041  22.687  36.950   4.827
39624W        W 8042  43.446  36.860   0.811
39625W        W 8043  33.882   4.909  12.024
39626W        W 8044  44.797  12.347  13.328
39627W        W 8045  36.583  22.090   4.138
39628W        W 8046  37.043  27.587   3.162
39629W        W 8047  21.602  42.337  14.785
39630W        W 8048   1.359  22.033  10.475
39631W        W 8049  17.711  31.444   1.215
39632W        W 8050   6.763   8.801  14.496
39633W        W 8051  17.702  29.431  12.924
39634W        W 8052  10.185  26.556   0.909
39635W        W 8053  39.021  39.446   4.288
39636W        W 8054  25.200  36.016  12.478
39637W        W 8055   6.888  31.460  14.469
39638W        W 8056  31.634   3.759   1.345
39639W        W 8057   3.776  44.400   0.778
39640W        W 8058  17.285  11.304  14.398
39641W        W 8059   4.433  42.437  13.034
39642W        W 8060   6.311  29.544  11.547
39643W        W 8061   3.449  11.646  11.383
39644W        W 8062  30.416  26.033  13.041
39645W        W 8063  43.924   5.703  14.342
39646W        W 8064  25.492   3.866  14.932
39647W        W 8065  27.506  41.837  12.474
39648W        W 8066  41.456  30.950  10.413
39649W        W 8067  41.898  32.126   0.826
39650W        W 8068   4.241  20.757  11.394
39651W        W 8069  40.341   0.956   4.650
39652W        W 8070  16.615  29.051  12.848
39653W        W 8071  33.976  35.583  13.981
39654W        W 8072   1.399  35.530   4.217
39655W        W 8073  25.470   5.831   4.156
39656W        W 8074   9.170  41.011  13.455
39657W        W 8075  15.811  23.201   4.195
39658W        W 8076  42.834  25.634   0.951
39659W        W 8077  18.236  11.629  10.968
39660W        W 8078  43.410   7.695  12.481
39661W        W 8079  25.186   7.770   4.797
39662W        W 8080  17.170  13.336  12.358
39663W        W 8081  39.456   7.283   0.276
39664W        W 8082  17.682   4.912   1.852
39665W        W 8083  42.388  14.783  12.354
39666W        W 8084  11.710  40.015  11.068
39667W        W 8085  26.014  35.529   3.290
39668W        W 8086  43.301  29.023  11.033
39669W        W 8087  39.948  17.124  11.420
39670W        W 8088  11.300  11.773   0.774
39671W        W 8089  11.252  30.926   1.313
39672W        W 8090  30.914  35.872  11.883
39673W        W 8091  35.420  19.586   3.646
39674W        W 8092  19.738  28.054   0.338
39675W        W 8093  33.433  17.623   2.370
39676W        W 8094  12.734   4.852  10.624
39677W        W 8095   8.217   5.819   0.871
39678W        W 8096   2.256  30.046   2.309
39679W        W 8097  25.999  41.873  13.412
39680W        W 8098  39.497   7.212  10.466
39681W        W 8099  16.661  40.496  11.979
39682W        W 8100  24.132   7.284  14.805
39683W        W 8101  33.967  39.000   0.732
39684W        W 8102  36.922   5.760  10.462
39685W        W 8103  32.964  11.686   4.266
39686W        W 8104   4.774  40.518  12.524
39687W        W 8105  27.555   6.783  12.828
39688W        W 8106  35.600  34.109   0.849
39689W        W 8107  40.007  10.669  14.401
39690W        W 8108  18.545  11.140  13.493
39691W        W 8109  37.406  27.047   1.801
39692W        W 8110  44.859  31.468  10.896
39693W        W 8111   6.863  12.280   3.705
39694W        W 8112   9.389  27.123   3.830
39695W        W 8113  10.276  13.828   2.300
39696W        W 8114  40.389   5.412  10.627
39697W        W 8115  34.566  16.681  12.395
39698W        W 8116  11.840  26.624  10.037
39699W        W 8117  37.426  32.546   2.742
39700W        W 8118   0.769   1.336  10.524
39701W        W 8119  33.566  23.135   2.396
39702W        W 8120  32.496  15.793  13.813
39703W        W 8121   7.221  15.155  12.033
39704W        W 8122  21.729  29.642  13.538
39705W        W 8123  23.677  27.106  13.893
39706W        W 8124  29.968  17.142  11.038
39707W        W 8125  17.752  24.532  11.415
39708W        W 8126  43.839  22.633   0.847
39709W        W 8127  40.347  10.246  13.332
39710W        W 8128  12.348  35.945   1.216
39711W        W 8129  12.221  35.473  14.870
39712W        W 8130  12.126   0.945  10.976
39713W        W 8131  12.660  43.298   0.358
39714W        W 8132  43.419  15.191   0.885
39715W        W 8133  42.832  14.319   4.169
39716W        W 8134  27.104  12.755  10.961
39717W        W 8135  39.346  40.995   1.288
39718W        W 8136   2.298  39.436   2.723
39719W        W 8137  34.478  31.150   2.387
39720W        W 8138  14.665  15.280   4.658
39721W        W 8139  22.508  35.050   4.227
39722W        W 8140  37.932  23.049   2.871
39723W        W 8141  31.648   6.795   2.677
39724W        W 8142  27.978  33.921  13.978
39725W        W 8143  23.200  22.997   0.281
39726W        W 8144  15.129  34.044  13.996
39727W        W 8145  24.575  21.580   0.325
39728W        W 8146  20.231  32.948  14.463
39729W        W 8147  21.758  17.158   4.647
39730W        W 8148  36.998  43.461  14.021
39731W        W 8149  44.946  14.685   3.382
39732W        W 8150  22.014  14.641   0.386
39733W        W 8151   8.789  40.373   2.856
39734W        W 8152  27.945   1.343  13.877
39735W        W 8153   7.313   8.354  11.433
39736W        W 8154  13.208  36.006   0.949
39737W        W 8155  18.097   4.769  14.456
39738W        W 8156  20.161  15.091  10.923
39739W        W 8157  14.615  17.270  11.004
39740W        W 8158  21.054  31.897  14.788
39741W        W 8159  39.847  18.723   4.197
39742W        W 8160  43.292  33.095   2.851
39743W        W 8161  35.036  27.078   0.855
39744W        W 8162   9.156   7.230  13.836
39745W        W 8163  16.184  17.667  10.447
39746W        W 8164   0.794  32.454   0.404
39747W        W 8165  35.897  33.387   0.792
39748W        W 8166   0.906  19.224  14.920
39749W        W 8167  23.505   5.929   0.460
39750W        W 8168  32.414  31.478   2.862
39751W        W 8169  34.571  35.418   0.335
39752W        W 8170   9.695  22.204  10.516
39753W        W 8171  42.865  30.161   1.268
39754W        W 8172  22.073  20.747   1.769
39755W        W 8173  32.621   4.787   2.319
39756W        W 8174  19.193   8.858  10.550
39757W        W 8175  14.137  22.676  14.819
39758W        W 8176  22.724   3.326  12.570
39759W        W 8177  42.393   6.746  12.922
39760W        W 8178   2.295   1.259   4.647
39761W        W 8179  25.519   7.715   2.203
39762W        W 8180  12.642  42.378  11.446
39763W        W 8181  28.520   1.742   1.354
39764W        W 8182  18.738  44.285  10.422
39765W        W 8183  40.910   1.427  13.450
39766W        W 8184  36.415   0.457  13.044
39767W        W 8185  35.004  35.532  12.873
39768W        W 8186   5.246  12.613  11.879
39769W        W 8187   5.255  38.978  13.390
39770W        W 8188  11.324  33.943   0.886
39771W        W 8189  25.145   5.692   1.277
39772W        W 8190  44.484   1.923  14.284
39773W        W 8191  19.757  17.291  12.936
39774W        W 8192   1.953   8.824   3.298
39775W        W 8193  11.703  30.448  13.494
39776W        W 8194  43.997   5.312   2.744
39777W        W 8195   2.741  34.938  12.373
39778W        W 8196  10.244  25.536  11.973
39779W        W 8197  43.416  11.238  12.914
39780W        W 8198  28.590  40.374   2.198
39781W        W 8199  41.383  25.555  14.824
39782W        W 8200   4.889   5.351   0.786
39783W        W 8201   2.414  41.409  14.469
39784W        W 8202  41.000  11.806  11.459
39785W        W 8203   1.960  31.567  11.869
39786W        W 8204  11.200  16.106   2.766
39787W        W 8205  10.271  14.791   2.370
39788W        W 8206  30.055  11.370  11.446
39789W        W 8207  19.740  20.053   4.170
39790W        W 8208  16.809  13.743   4.276
39791W        W 8209  25.074  16.317  12.366
39792W        W 8210  44.405  42.344  12.988
39793W        W 8211  39.489  11.646  12.569
39794W        W 8212  21.184   3.344  13.308
39795W        W 8213   0.796  39.977   0.345
39796W        W 8214  17.163   6.846  12.880
39797W        W 8215  29.057  22.701   2.802
39798W        W 8216  36.404   3.943   2.194
39799W        W 8217  28.577  41.352  14.857
39800W        W 8218   1.963  19.045   2.744
39801W        W 8219  41.352  30.125  13.825
39802W        W 8220  18.686   0.912   2.717
39803W        W 8221  32.899  17.583  11.388
39804W        W 8222   0.939  18.663  14.331
39805W        W 8223  32.411  35.574   0.804
39806W        W 8224   4.832  27.113  14.958
39807W        W 8225  36.940  42.491   0.262
39808W        W 8226  23.519  39.845   4.650
39809W        W 8227   3.459  26.096   2.251
39810W        W 8228   8.311  19.590  11.919
39811W        W 8229  24.722  41.945  10.562
39812W        W 8230  27.646   1.795  10.617
39813W        W 8231   0.829   5.889  14.491
39814W        W 8232  17.117  11.356   2.363
39815W        W 8233  39.035   7.414  14.942
39816W        W 8234  12.312   8.796  10.933
39817W        W 8235   5.428  13.351   3.770
39818W        W 8236  20.682  38.367   5.710
39819W        W 8237   2.799  14.161   1.696
39820W        W 8238  32.586   2.338   2.880
39821W        W 8239   4.934  41.904  12.532
39822W        W 8240  29.509  40.447   1.865
39823W        W 8241  42.846  25.064   4.636
39824W        W 8242  39.462  34.402   0.281
39825W        W 8243  39.963  24.641  11.461
39826W        W 8244  25.104   0.477   3.798
39827W        W 8245  17.163  15.777   4.636
39828W        W 8246  11.160  38.074  13.469
39829W        W 8247  32.546  13.315  13.872
39830W        W 8248  26.490   8.293  14.864
39831W        W 8249  17.625  30.496   3.190
39832W        W 8250  14.614  19.265  12.036
39833W        W 8251   9.373  28.446  12.490
39834W        W 8252  28.071  40.440   1.710
39835W        W 8253  10.770  28.116  10.949
39836W        W 8254  43.809  31.500   2.416
39837W        W 8255  10.736  42.508   3.211
39838W        W 8256  40.888  16.606  10.441
39839W        W 8257  41.479  23.558  13.542
39840W        W 8258  35.562  19.761   0.840
39841W        W 8259   2.863  12.771  11.554
39842W        W 8260   9.652  32.126   5.082
39843W        W 8261  32.421  35.500   4.732
39844W        W 8262  14.212   2.735  11.910
39845W        W 8263   5.759  11.245   2.290
39846W        W 8264  19.619  17.186  12.406
39847W        W 8265  23.590  26.589  13.904
39848W        W 8266  28.505  32.920  11.885
39849W        W 8267  33.932  43.349   2.235
39850W        W 8268  27.529  38.532  12.412
39851W        W 8269  32.107  18.545   1.928
39852W        W 8270  20.188   3.437  13.331
39853W        W 8271  30.071   7.346   1.377
39854W        W 8272  16.566  35.449   0.246
39855W        W 8273  22.708  42.305   4.324
39856W        W 8274  39.946  19.687  12.892
39857W        W 8275   4.446  16.318  13.853
39858W        W 8276  31.444  20.040   2.798
39859W        W 8277  41.400  39.350   4.614
39860W        W 8278  12.153   3.887  14.329
39861W        W 8279  11.633  25.109  11.442
39862W        W 8280  26.574   4.870   0.880
39863W        W 8281  43.937  33.532   2.760
39864W        W 8282   7.792  35.081  13.837
39865W        W 8283  40.385   6.785  13.968
39866W        W 8284  28.933  29.458   2.844
39867W        W 8285   3.778  38.885  13.869
39868W        W 8286  26.163   7.411   4.721
39869W        W 8287  12.681  39.370   4.728
39870W        W 8288   8.161  16.616   3.786
39871W        W 8289  13.129  25.679  11.435
39872W        W 8290   4.767  13.651  11.867
39873W        W 8291   0.315  41.959  10.431
39874W        W 8292  26.138  39.879  12.534
39875W        W 8293  19.159  30.551   2.754
39876W        W 8294   5.295  33.429   0.905
39877W        W 8295  31.480   7.825  10.465
39878W        W 8296  31.001   1.326   2.866
39879W        W 8297  25.607  18.262   1.291
39880W        W 8298  18.616  25.484   1.345
39881W        W 8299   0.917   6.873   0.878
39882W        W 8300   4.425  32.969  14.500
39883W        W 8301  19.083  20.031   1.364
39884W        W 8302  36.573  17.147   2.363
39885W        W 8303  40.417   6.713  12.349
39886W        W 8304  33.422  11.631  11.072
39887W        W 8305   6.752  17.168  12.901
39888W        W 8306  19.670  25.568  11.929
39889W        W 8307  11.197  43.452  14.279
39890W        W 8308  44.268  27.950   1.918
39891W        W 8309  39.396  19.542  13.377
39892W        W 8310  26.979  14.658   0.396
39893W        W 8311   1.855   1.757   1.404
39894W        W 8312  25.980  41.318   2.341
39895W        W 8313   3.274  40.439   5.315
39896W        W 8314  18.721  13.248   0.878
39897W        W 8315  17.213  23.111   4.320
39898W        W 8316  11.210  23.146  11.870
39899W        W 8317  14.269  23.196   2.181
39900W        W 8318   7.807  36.058   1.816
39901W        W 8319  36.574  44.279  11.409
39902W        W 8320  32.106  33.397   2.677
39903W        W 8321  10.819  40.375  11.550
39904W        W 8322  28.603  28.017  13.999
39905W        W 8323  20.697  13.147  13.983
39906W        W 8324  19.270  15.798  10.568
39907W        W 8325  42.889  39.874   4.621
39908W        W 8326  36.544  11.623   0.930
39909W        W 8327   2.355  24.055   4.770
39910W        W 8328  23.534  44.983  14.377
39911W        W 8329  19.618   6.716   2.896
39912W        W 8330  13.815  14.205  10.443
39913W        W 8331  24.984  28.632   0.433
39914W        W 8332  18.164  30.520   3.760
39915W        W 8333  25.537  35.383   1.350
39916W        W 8334  12.258  10.710   2.270
39917W        W 8335  40.844  29.122  11.008
39918W        W 8336  20.537  27.949   4.236
39919W        W 8337  15.319  25.657  13.978
39920W        W 8338  43.445   4.852  10.498
39921W        W 8339  20.166  36.534  11.044
39922W        W 8340  25.619   8.707   4.732
39923W        W 8341  23.621  44.322   0.329
39924W        W 8342  16.316   3.397   2.317
39925W        W 8343  20.245  13.753   0.356
39926W        W 8344   0.962  27.505  14.926
39927W        W 8345  38.867   4.913   3.751
39928W        W 8346  15.741   5.769  12.551
39929W        W 8347   0.907  38.979   4.124
39930W        W 8348  37.500  13.663   1.277
39931W        W 8349   6.728  14.683   4.304
39932W        W 8350  10.176  17.562   2.197
39933W        W 8351  12.346  32.888  12.961
39934W        W 8352  35.071  24.138   4.663
39935W        W 8353  35.981  36.974  11.573
39936W        W 8354  42.308  42.934   4.250
39937W        W 8355  41.412   6.830  11.400
39938W        W 8356  41.529   4.915   2.219
39939W        W 8357  25.147  36.056   0.828
39940W        W 8358  26.113  38.848   2.197
39941W        W 8359  26.117  44.845  14.858
39942W        W 8360  10.867  17.776  14.871
39943W        W 8361  20.197  21.588   1.751
39944W        W 8362  29.171  14.161  13.481
39945W        W 8363  12.247   4.876   3.630
39946W        W 8364  40.922   7.175   3.703
39947W        W 8365   2.253  20.238  13.927
39948W        W 8366   1.411  26.148  10.463
39949W        W 8367  31.102  42.908   5.256
39950W        W 8368  30.132   5.296   2.846
39951W        W 8369  13.669  44.364  11.952
39952W        W 8370  26.599  34.551  12.395
39953W        W 8371  20.059  29.448   0.364
39954W        W 8372  30.555  18.652   4.230
39955W        W 8373   8.655  16.770  12.050
39956W        W 8374  36.352   1.380   0.800
39957W        W 8375  32.981  40.016  12.024
39958W        W 8376  10.797  18.777  14.007
39959W        W 8377  28.084  10.677   1.706
39960W        W 8378  35.954  17.070  10.566
39961W        W 8379   4.745  39.518  12.498
39962W        W 8380   0.820   8.305   0.451
39963W        W 8381   6.386  30.977   2.408
39964W        W 8382  16.768   3.850  14.939
39965W        W 8383  38.391  14.800  14.286
39966W        W 8384   7.746  20.625   1.812
39967W        W 8385  43.933  37.411   1.708
39968W        W 8386   1.851  15.253   0.354
39969W        W 8387  28.622   7.294  11.018
39970W        W 8388  40.822  41.405   3.784
39971W        W 8389   3.912  15.793  12.395
39972W        W 8390  25.685  20.244   0.897
39973W        W 8391  44.005  30.106  10.899
39974W        W 8392  33.573   8.383  11.592
39975W        W 8393  44.798   9.826  12.930
39976W        W 8394  38.477  21.222  10.934
39977W        W 8395   8.285  19.663   3.697
39978W        W 8396  31.486  14.264  12.895
39979W        W 8397  18.107  44.379   4.280
39980W        W 8398  14.189   9.657  14.508
39981W        W 8399  34.995   0.294   3.259
39982W        W 8400  14.191  32.397   1.428
39983W        W 8401  13.339   1.307  13.912
39984W        W 8402   6.921   5.417   4.235
39985W        W 8403  20.262  26.573  11.114
39986W        W 8404  30.537   0.812   3.699
39987W        W 8405  33.112  42.776   2.305
39988W        W 8406  15.207  13.215   4.758
39989W        W 8407  32.563  32.936  12.524
39990W        W 8408  13.644   6.851  11.100
39991W        W 8409   8.782  14.612   3.343
39992W        W 8410   8.381  12.174   2.323
39993W        W 8411  14.803  40.803   4.223
39994W        W 8412  16.313  14.222  12.932
39995W        W 8413  11.249  36.088   3.701
39996W        W 8414  36.886  23.210   4.743
39997W        W 8415  18.590   9.760  14.811
39998W        W 8416   7.882  11.243   4.279
39999W        W 8417  23.678  22.593  10.629
40000W        W 8418   3.321  15.740   4.748
40001W        W 8419  19.619  25.525  14.330
40002W        W 8420   5.719  12.176  10.568
40003W        W 8421  11.789  16.642   1.789
40004W        W 8422   2.228  15.108   1.307
40005W        W 8423   9.792  25.642  13.358
40006W        W 8424  32.594   2.860   0.369
40007W        W 8425  22.635  31.509  12.527
40008W        W 8426   6.268  23.640   1.825
40009W        W 8427  31.408   1.847  13.890
40010W        W 8428  29.135   5.350   4.748
40011W        W 8429  13.210  15.659   4.247
40012W        W 8430  10.853   0.755  11.480
40013W        W 8431  19.575  41.340  10.941
40014W        W 8432  37.454  13.252   2.827
40015W        W 8433  42.463  29.520  10.968
40016W        W 8434  36.967  22.699   1.900
40017W        W 8435  21.647  18.128   3.695
40018W        W 8436  36.026  25.656  12.868
40019W        W 8437   6.700  42.413   1.694
40020W        W 8438  31.020  35.403  11.901
40021W        W 8439  42.860   8.777   9.969
40022W        W 8440  35.991  43.013  14.504
40023W        W 8441  11.302   4.872   2.337
40024W        W 8442  40.328  35.991  13.064
40025W        W 8443  37.556  38.935  12.519
40026W        W 8444   3.863  29.927   3.633
40027W        W 8445  35.070   8.813  10.908
40028W        W 8446  33.126  38.348  11.968
40029W        W 8447  22.541  41.944  14.369
40030W        W 8448   0.472   3.855   2.667
40031W        W 8449  34.519  11.191  12.899
40032W        W 8450  40.006  41.892  10.422
40033W        W 8451  34.466   6.218   4.256
40034W        W 8452  13.186  38.989  13.915
40035W        W 8453  25.964  22.103  12.501
40036W        W 8454  30.521  34.428   4.309
40037W        W 8455  13.719  18.170  11.971
40038W        W 8456  44.353  37.046   4.201
40039W        W 8457  15.580  24.116   4.176
40040W        W 8458  31.116  10.193   4.179
40041W        W 8459  14.751   8.182  13.052
40042W        W 8460   5.826  35.012   2.677
40043W        W 8461  38.440  42.443   0.342
40044W        W 8462   1.903  38.479   3.248
40045W        W 8463  16.728  13.221   2.813
40046W        W 8464  38.949  43.476   2.285
40047W        W 8465  39.473  18.697   1.314
40048W        W 8466  21.735  38.425  14.441
40049W        W 8467  21.530  41.339   5.241
40050W        W 8468  43.840  23.050   4.353
40051W        W 8469  22.014  19.132  12.465
40052W        W 8470  11.739  34.902  12.391
40053W        W 8471  21.659  42.496  12.578
40054W        W 8472  16.259  21.713  11.090
40055W        W 8473  25.690  17.579  10.947
40056W        W 8474  15.282  22.195  13.475
40057W        W 8475  19.187   1.812   2.874
40058W        W 8476  13.188  36.497  10.970
40059W        W 8477  20.169  33.554  14.502
40060W        W 8478  23.002  16.233  11.529
40061W        W 8479  19.723  28.043   4.695
40062W        W 8480  41.850   2.317  11.383
40063W        W 8481  25.668  20.144  12.914
40064W        W 8482  41.956  29.036  12.831
40065W        W 8483  22.067  38.552   1.362
40066W        W 8484  11.296  10.677   1.420
40067W        W 8485   3.769  22.522  12.937
40068W        W 8486   3.455  24.667  11.908
40069W        W 8487  41.805  22.204   1.335
40070W        W 8488  23.692  38.832   1.417
40071W        W 8489  43.839  43.871   4.171
40072W        W 8490  23.139  37.995   4.152
40073W        W 8491  23.709  16.166  11.520
40074W        W 8492  26.029  10.323   1.714
40075W        W 8493  24.183  24.980  11.967
40076W        W 8494  15.585   8.273  13.438
40077W        W 8495  19.048  11.352   4.152
40078W        W 8496  27.651  15.240  14.814
40079W        W 8497  38.874  41.011  10.142
40080W        W 8498  20.553  34.988   1.929
40081W        W 8499   9.262  16.074  14.766
40082W        W 8500  40.514  25.675   3.356
40083W        W 8501  16.145  41.323   5.189
40084W        W 8502  10.263  12.702  14.828
40085W        W 8503  44.870   8.250   1.216
40086W        W 8504  19.107  25.622  13.877
40087W        W 8505   9.357  25.581   0.809
40088W        W 8506   2.401  22.516   2.890
40089W        W 8507  28.970   4.382  13.016
40090W        W 8508  42.374   0.292  12.522
40091W        W 8509  15.815   2.317  14.761
40092W        W 8510  18.701   7.248   9.971
40093W        W 8511  36.463  27.539  13.313
40094W        W 8512  33.108  33.038   2.806
40095W        W 8513  37.405  15.282   4.616
40096W        W 8514  38.003  39.497   1.836
40097W        W 8515  27.166  29.646  13.855
40098W        W 8516   1.425  18.736  13.806
40099W        W 8517   5.343   8.686  13.313
40100W        W 8518  36.095  37.369   0.908
40101W        W 8519   2.795  40.926   1.316
40102W        W 8520  39.503  20.186  14.305
40103W        W 8521  14.165  22.151   2.854
40104W        W 8522  13.800   5.316  14.309
40105W        W 8523  34.492  34.071   0.930
40106W        W 8524  39.555   5.800   2.245
40107W        W 8525  13.777   1.322  12.909
40108W        W 8526  30.046  38.554  12.023
40109W        W 8527   4.435  20.706  13.378
40110W        W 8528   3.401  22.713  10.997
40111W        W 8529  13.137  13.273  12.472
40112W        W 8530  11.629  28.123  10.906
40113W        W 8531  26.601  23.559   1.710
40114W        W 8532   8.227  44.420   9.991
40115W        W 8533  22.503  14.147   3.660
40116W        W 8534   5.267  10.659   1.422
40117W        W 8535  36.932   3.385  10.932
40118W        W 8536  26.077   8.230  14.825
40119W        W 8537  41.859  14.624  13.484
40120W        W 8538   9.189  21.082   0.886
40121W        W 8539  35.548  30.116   1.823
40122W        W 8540  27.013  12.285   2.375
40123W        W 8541  11.212  42.991   2.825
40124W        W 8542  24.574  35.008  14.761
40125W        W 8543  15.291   5.908   4.169
40126W        W 8544  27.951  44.995   1.759
40127W        W 8545   2.770  30.621   3.275
40128W        W 8546  12.211  23.506  12.960
40129W        W 8547  36.362  25.467   3.386
40130W        W 8548  20.182  12.681   4.126
40131W        W 8549  14.748  18.764  11.125
40132W        W 8550  30.918  21.036   3.323
40133W        W 8551  11.258  39.044  14.482
40134W        W 8552  39.990  11.162  10.503
40135W        W 8553  15.209  16.143  14.933
40136W        W 8554  10.860  34.508   4.735
40137W        W 8555  26.148  30.644  12.963
40138W        W 8556  31.144  30.954  12.871
40139W        W 8557   2.775   1.292   3.867
40140W        W 8558  18.160  19.570   1.324
40141W        W 8559  13.288   9.796   0.334
40142W        W 8560   0.364  29.517   1.315
40143W        W 8561   7.219  19.211  14.364
40144W        W 8562  18.142  33.977  14.018
40145W        W 8563   1.442  23.573   2.405
40146W        W 8564  15.282  36.521  12.962
40147W        W 8565  44.501  40.414   1.319
40148W        W 8566  10.329  29.575  11.909
40149W        W 8567  22.602  12.704  13.999
40150W        W 8568   1.352  19.621   5.568
40151W        W 8569  39.879  34.977  10.434
40152W        W 8570  28.528  26.097  12.824
40153W        W 8571  38.894   9.691   0.812
40154W        W 8572  39.543  32.443   4.329
40155W        W 8573   3.890  12.260   1.379
40156W        W 8574  27.197  28.172  10.938
40157W        W 8575   3.272  21.147   2.667
40158W        W 8576  38.958  15.812  12.002
40159W        W 8577  21.668  27.955  14.918
40160W        W 8578   0.258  43.347  11.935
40161W        W 8579   4.322  31.474   1.358
40162W        W 8580  18.617  26.167  12.558
40163W        W 8581  12.265   6.277  12.564
40164W        W 8582  21.138  24.979  14.453
40165W        W 8583   7.198   2.951   1.741
40166W        W 8584  29.019   4.799  11.612
40167W        W 8585  40.407   5.414   0.270
40168W        W 8586  40.982  39.334   3.386
40169W        W 8587  29.480  23.010   2.207
40170W        W 8588   0.264  38.977  12.460
40171W        W 8589  28.614  13.631   3.770
40172W        W 8590  35.082  16.658  11.122
40173W        W 8591   2.746   5.861   2.358
40174W        W 8592  12.360  43.338   0.321
40175W        W 8593  23.714  39.017  10.625
40176W        W 8594  12.336  17.303  14.393
40177W        W 8595  14.715  27.604   3.269
40178W        W 8596   3.281  24.154  13.061
40179W        W 8597  10.151   5.331   0.818
40180W        W 8598  36.346  12.651  10.040
40181W        W 8599  26.113  13.746  13.504
40182W        W 8600   9.266  29.048   2.415
40183W        W 8601  43.448   9.228   3.695
40184W        W 8602   8.403  28.072  13.465
40185W        W 8603  31.596  30.160  11.981
40186W        W 8604  20.625  16.085  10.905
40187W        W 8605  15.804   8.694  12.045
40188W        W 8606   5.755  36.478  11.045
40189W        W 8607   4.436  22.646   1.751
40190W        W 8608   5.319   4.260   2.756
40191W        W 8609  14.322  26.991   0.950
40192W        W 8610   7.329  22.163   0.870
40193W        W 8611  20.256  19.648   2.835
40194W        W 8612  36.847  37.046   5.652
40195W        W 8613  17.712  26.041   1.221
40196W        W 8614  21.658  30.572   3.831
40197W        W 8615   6.238   9.317  14.324
40198W        W 8616  12.213  18.550  13.385
40199W        W 8617  10.241  16.158  13.327
40200W        W 8618  25.628   4.829   0.290
40201W        W 8619  28.956  30.028   0.944
40202W        W 8620  23.228  42.410   0.411
40203W        W 8621  34.955  12.286   1.709
40204W        W 8622  42.298  31.524   0.750
40205W        W 8623  25.565   1.947   2.271
40206W        W 8624  31.012  42.372   3.314
40207W        W 8625  36.527  32.981   3.305
40208W        W 8626  28.123  25.709   2.321
40209W        W 8627  36.987   7.209  14.936
40210W        W 8628  19.167  42.902  10.418
40211W        W 8629  37.877  22.149   0.482
40212W        W 8630  12.356  37.351   2.366
40213W        W 8631  22.564  21.255   5.165
40214W        W 8632  40.885  31.579  10.946
40215W        W 8633  26.615  40.858  14.980
40216W        W 8634  24.132  32.595  12.830
40217W        W 8635  25.033  36.543  14.424
40218W        W 8636  33.411  15.154   2.311
40219W        W 8637  19.169   9.841  12.848
40220W        W 8638  36.457  15.714   9.968
40221W        W 8639  19.218   1.907  14.464
40222W        W 8640  27.489  10.208  13.020
40223W        W 8641   8.389  12.235   2.888
40224W        W 8642  12.811  22.069  13.903
40225W        W 8643  28.135  36.981   4.730
40226W        W 8644  27.122  44.468   4.188
40227W        W 8645  11.777  12.187   2.204
40228W        W 8646  29.996  35.592   0.944
40229W        W 8647  34.041  43.962  13.487
40230W        W 8648  22.527  44.499   5.085
40231W        W 8649  36.879  37.082   9.949
40232W        W 8650  11.207  33.571   0.300
40233W        W 8651   9.169   4.312   2.389
40234W        W 8652  35.076  35.972  14.415
40235W        W 8653  28.021  44.362  13.948
40236W        W 8654   6.711  38.830   1.702
40237W        W 8655  21.099  19.610   4.266
40238W        W 8656  19.040  22.189  11.576
40239W        W 8657   8.839  28.505  12.442
40240W        W 8658  25.551  11.828   4.117
40241W        W 8659   6.755  41.525  14.027
40242W        W 8660  34.396  28.585   3.756
40243W        W 8661   2.276  23.167   3.318
40244W        W 8662   0.298   2.388  12.033
40245W        W 8663  39.895   5.342  11.965
40246W        W 8664  29.503  35.924  11.093
40247W        W 8665  36.509  28.140  10.497
40248W        W 8666  37.009  39.856  13.949
40249W        W 8667  41.516  12.823   1.272
40250W        W 8668  38.903  35.948   1.766
40251W        W 8669  44.321  28.670  10.445
40252W        W 8670  30.433  26.009   0.242
40253W        W 8671  24.625  31.518   1.356
40254W        W 8672  32.530  24.587  10.954
40255W        W 8673  16.114  10.865   2.672
40256W        W 8674  36.580   4.934   4.819
40257W        W 8675  40.424   9.808  13.432
40258W        W 8676  43.339  39.355   2.869
40259W        W 8677  18.680  14.831  13.894
40260W        W 8678  33.389  25.985  10.897
40261W        W 8679  24.166  20.636   1.352
40262W        W 8680  30.136  16.579   2.736
40263W        W 8681  44.390  23.663   2.848
40264W        W 8682  40.915  16.142  14.017
40265W        W 8683  37.841  16.243   0.360
40266W        W 8684  23.020   8.260  13.834
40267W        W 8685  18.115  19.269  10.529
40268W        W 8686   5.393  24.702  12.344
40269W        W 8687  25.612   8.327  11.522
40270W        W 8688  26.664  27.479  11.450
40271W        W 8689   9.339   8.196  11.566
40272W        W 8690  37.535  23.081   1.407
40273W        W 8691  27.521  43.285  11.498
40274W        W 8692   5.315   7.269  10.616
40275W        W 8693  22.742  24.987  12.379
40276W        W 8694   5.355  31.581   1.448
40277W        W 8695  11.762  38.040  11.396
40278W        W 8696   2.281  20.249   1.760
40279W        W 8697   6.263  17.789   4.192
40280W        W 8698  22.173   2.840   0.779
40281W        W 8699  27.516  17.716   2.195
40282W        W 8700  27.596   6.837  11.599
40283W        W 8701  21.018   0.330   3.753
40284W        W 8702   3.817   6.212   1.363
40285W        W 8703  22.609   1.371   0.911
40286W        W 8704  34.924  34.534  13.448
40287W        W 8705  38.566  16.111  13.039
40288W        W 8706  36.910  38.953   3.670
40289W        W 8707  19.652   3.428   2.702
40290W        W 8708  29.454  33.093  13.003
40291W        W 8709  31.409   0.861  10.918
40292W        W 8710   5.303   5.300   2.881
40293W        W 8711  41.296  16.740   1.815
40294W        W 8712  24.673   0.372  11.477
40295W        W 8713  23.079  32.905   1.921
40296W        W 8714  16.598  11.169  12.471
40297W        W 8715  18.154  16.198   3.870
40298W        W 8716  33.420  38.852  14.950
40299W        W 8717  42.874  40.454  14.770
40300W        W 8718  26.171   8.359  12.554
40301W        W 8719  36.847  18.152  10.412
40302W        W 8720  15.579  21.688   4.142
40303W        W 8721   5.375  30.941   2.808
40304W        W 8722  13.332  41.803   1.732
40305W        W 8723  35.358  33.082   2.395
40306W        W 8724  21.101   2.770  10.639
40307W        W 8725  18.243  37.875   0.391
40308W        W 8726   9.769  13.218  12.580
40309W        W 8727  32.631  14.121  13.485
40310W        W 8728   9.783  31.089   0.362
40311W        W 8729  17.158  36.885   4.331
40312W        W 8730  39.437  34.866  10.440
40313W        W 8731  41.531   6.259   3.763
40314W        W 8732  43.935   3.771  11.399
40315W        W 8733  19.274  16.106  12.390
40316W        W 8734  10.824  37.420  10.121
40317W        W 8735  14.758  30.551   3.368
40318W        W 8736  29.970  28.167   3.742
40319W        W 8737  17.093   9.878  14.429
40320W        W 8738  13.805  40.801  11.601
40321W        W 8739   5.356  30.160   4.674
40322W        W 8740  11.738   8.755  13.991
40323W        W 8741  35.405  24.141   1.440
40324W        W 8742  30.937  23.695   3.839
40325W        W 8743  28.491  27.157   3.316
40326W        W 8744   6.420   2.310  13.038
40327W        W 8745  25.556  17.106  11.558
40328W        W 8746  21.246  17.713   4.597
40329W        W 8747  37.454   7.347  12.410
40330W        W 8748   9.209  41.825   4.614
40331W        W 8749  33.414  43.956   2.220
40332W        W 8750  14.602  15.119   2.677
40333W        W 8751  30.951   1.887   1.230
40334W        W 8752   6.391  11.229  14.991
40335W        W 8753  39.835  11.166  11.969
40336W        W 8754   6.354  22.012  12.850
40337W        W 8755  15.124   4.311   0.445
40338W        W 8756  10.350   5.847   0.824
40339W        W 8757  18.164  18.287   0.399
40340W        W 8758  37.075  12.231  14.776
40341W        W 8759   6.922  11.211   3.788
40342W        W 8760  23.129   4.205   4.791
40343W        W 8761  20.119  22.699  12.405
40344W        W 8762  20.523  20.221  12.365
40345W        W 8763  37.908  26.480  11.107
40346W        W 8764  27.671  42.431  12.855
40347W        W 8765  41.011   0.474  11.055
40348W        W 8766   1.762  38.057   1.873
40349W        W 8767   2.873  43.844  13.369
40350W        W 8768  42.974  36.483   4.747
40351W        W 8769  34.988  33.480  11.533
40352W        W 8770  39.045  18.623   5.118
40353W        W 8771   3.304  14.739  10.956
40354W        W 8772  43.905  10.353  13.357
40355W        W 8773  43.940  40.809  13.027
40356W        W 8774  33.570  39.506  12.023
40357W        W 8775   8.702  31.505  11.052
40358W        W 8776  41.378   9.207   1.743
40359W        W 8777  22.694  29.920   2.662
40360W        W 8778  14.748  35.536  14.433
40361W        W 8779  12.852  27.973  13.809
40362W        W 8780  39.848  23.683  13.882
40363W        W 8781   8.383  32.971  12.056
40364W        W 8782  18.256  31.979  11.958
40365W        W 8783  34.423  19.604   4.822
40366W        W 8784   8.888  41.305  11.577
40367W        W 8785  36.418   3.746   1.734
40368W        W 8786  33.490  13.281  11.418
40369W        W 8787  34.910  34.019  10.627
40370W        W 8788  18.282  11.748   0.438
40371W        W 8789  35.435   1.388   3.300
40372W        W 8790   7.400   4.927  14.468
40373W        W 8791  26.084  18.079  14.005
40374W        W 8792   3.757   7.277  12.343
40375W        W 8793  31.928  23.041  11.527
40376W        W 8794  40.820   2.440   0.800
40377W        W 8795  42.996  25.079   3.709
40378W        W 8796  33.037  44.478   2.697
40379W        W 8797  13.793  24.589  11.032
40380W        W 8798  41.334  29.644   4.240
40381W        W 8799   4.227  38.523   0.460
40382W        W 8800  37.966  36.959   4.337
40383W        W 8801  11.754  13.824  14.940
40384W        W 8802   8.855  43.414   5.222
40385W        W 8803  35.071  20.654  11.442
40386W        W 8804  27.607  11.142   2.662
40387W        W 8805  38.420   3.744   2.372
40388W        W 8806  35.981   0.269   2.703
40389W        W 8807  44.407  31.510   2.800
40390W        W 8808  24.480  15.602   0.440
40391W        W 8809  30.079  28.490  14.449
40392W        W 8810   9.799  16.571   0.833
40393W        W 8811  23.000  35.449   1.284
40394W        W 8812  22.598  18.589   4.254
40395W        W 8813  32.574  29.081   1.226
40396W        W 8814   4.813   7.860   3.688
40397W        W 8815  44.272  25.559   3.680
40398W        W 8816  44.283  10.739  13.972
40399W        W 8817  11.704   1.854   2.298
40400W        W 8818  34.597  25.009  12.950
40401W        W 8819  27.520   0.303   2.770
40402W        W 8820  20.064  12.355  14.480
40403W        W 8821  16.146   6.395  14.760
40404W        W 8822   2.341  26.076   3.156
40405W        W 8823  10.644   2.737  13.992
40406W        W 8824  17.294  40.455   0.735
40407W        W 8825  25.562  42.367   4.818
40408W        W 8826  21.153  13.640   2.407
40409W        W 8827  38.917   1.792   1.337
40410W        W 8828  31.145  11.210  10.112
40411W        W 8829  12.119   9.359   1.926
40412W        W 8830  20.119  25.538  10.000
40413W        W 8831   0.346   9.256   1.225
40414W        W 8832  20.719  16.144  11.442
40415W        W 8833  41.903  40.905  11.025
40416W        W 8834   5.392  20.531   4.781
40417W        W 8835   5.208  31.140   4.706
40418W        W 8836   3.784  13.317  10.611
40419W        W 8837  21.032   3.328   4.331
40420W        W 8838   1.371  12.644   4.769
40421W        W 8839   7.290  41.826  11.375
40422W        W 8840  33.951  21.245   1.804
40423W        W 8841  30.108  21.615  13.446
40424W        W 8842  13.749   9.817   1.258
40425W        W 8843  24.641  19.045  13.799
40426W        W 8844   8.889  34.468  10.540
40427W        W 8845  27.949  12.694  14.422
40428W        W 8846  31.470  29.160  13.856
40429W        W 8847  37.543  21.641   0.905
40430W        W 8848  38.399   5.919  13.057
40431W        W 8849  20.665  15.722   1.716
40432W        W 8850  32.590  39.501  10.946
40433W        W 8851   9.746  40.801   2.283
40434W        W 8852  26.188  10.874   2.901
40435W        W 8853   3.430  28.469   2.693
40436W        W 8854  37.362   1.745  11.128
40437W        W 8855  17.154  37.963   3.845
40438W        W 8856   1.822  28.551  14.894
40439W        W 8857  11.731  23.613  11.399
40440W        W 8858  16.803  34.452   1.861
40441W        W 8859  20.187  11.197  11.594
40442W        W 8860   1.363  10.358   2.290
40443W        W 8861   1.348  20.144   0.917
40444W        W 8862  29.528  41.474  13.385
40445W        W 8863  18.270  32.920  10.612
40446W        W 8864   3.244  40.848  12.361
40447W        W 8865  33.972   3.948  13.955
40448W        W 8866  24.535  21.109  13.486
40449W        W 8867   1.267  11.217  14.936
40450W        W 8868   4.336  33.876   3.666
40451W        W 8869   1.275  44.322  11.015
40452W        W 8870  26.700  29.144  12.091
40453W        W 8871  18.750  44.264  11.005
40454W        W 8872  27.486   2.401   1.717
40455W        W 8873  11.308   6.352   0.910
40456W        W 8874  31.900  30.533   4.240
40457W        W 8875   7.833   3.730   2.738
40458W        W 8876  16.103   1.294   0.729
40459W        W 8877  44.009   2.777  10.969
40460W        W 8878   7.904  38.937   4.342
40461W        W 8879   5.320   2.359  13.918
40462W        W 8880   6.414   7.739   1.411
40463W        W 8881  31.949  38.567   4.624
40464W        W 8882  11.233  30.064  14.501
40465W        W 8883  28.612  17.060   4.660
40466W        W 8884  22.109  14.314   4.802
40467W        W 8885  32.482  28.084  14.410
40468W        W 8886  21.657  21.147   4.195
40469W        W 8887  30.480   6.822   3.635
40470W        W 8888  44.416  40.877   4.325
40471W        W 8889   0.367   3.819   1.779
40472W        W 8890   4.207  33.898  14.863
40473W        W 8891  34.869  38.038  14.314
40474W        W 8892   5.438   5.826   0.931
40475W        W 8893  32.574  26.518  13.545
40476W        W 8894  23.553  17.611   2.678
40477W        W 8895  38.825  24.532  10.444
40478W        W 8896  31.578  26.701  10.102
40479W        W 8897  19.737  39.831   4.131
40480W        W 8898  29.647  37.919   2.382
40481W        W 8899  24.552  31.515  13.995
40482W        W 8900  19.708   0.335   3.864
40483W        W 8901  10.228  33.576   4.304
40484W        W 8902  27.552  16.217   1.341
40485W        W 8903  16.664  33.452  12.977
40486W        W 8904  14.094  38.556  12.575
40487W        W 8905   7.359   2.856  13.365
40488W        W 8906   6.220  38.367  12.889
40489W        W 8907  21.683  39.818   3.792
40490W        W 8908  11.823  43.769  14.914
40491W        W 8909  13.347   9.272   4.808
40492W        W 8910  32.074  32.423   4.633
40493W        W 8911  37.991  42.322  11.042
40494W        W 8912  11.772  27.158   3.277
40495W        W 8913  33.420  18.184   2.292
40496W        W 8914   3.414   1.456   4.343
40497W        W 8915  28.075  16.641  12.512
40498W        W 8916  23.141  17.582   0.265
40499W        W 8917  43.418  14.660  12.437
40500W        W 8918  27.615  38.382  14.297
40501W        W 8919  38.393  29.989  14.448
40502W        W 8920  27.075   9.696  14.764
40503W        W 8921   4.853  27.528  10.547
40504W        W 8922  44.452  44.799   3.837
40505W        W 8923  13.194   0.369   1.278
40506W        W 8924  16.146  29.600   2.837
40507W        W 8925  13.682  35.505  10.959
40508W        W 8926  40.822  31.567  13.883
40509W        W 8927  30.133  15.785  14.381
40510W        W 8928  19.200  12.775   3.238
40511W        W 8929  10.162   5.244  12.396
40512W        W 8930  33.994  37.912  14.419
40513W        W 8931  44.002  28.008   4.730
40514W        W 8932  32.433  22.999   4.178
40515W        W 8933  17.095  25.582  14.987
40516W        W 8934  36.993  33.471   3.739
40517W        W 8935  20.231  30.082  11.479
40518W        W 8936   4.870  13.737   4.628
40519W        W 8937  44.994  42.931  12.564
40520W        W 8938  18.756  21.701  12.347
40521W        W 8939  41.440  28.504  11.568
40522W        W 8940  24.171   5.383   3.661
40523W        W 8941   6.808  27.152  13.483
40524W        W 8942   4.785  17.729  13.024
40525W        W 8943   6.207   2.273  13.430
40526W        W 8944  13.276  19.773   5.118
40527W        W 8945  37.025  11.307   2.217
40528W        W 8946  41.388  30.931  13.812
40529W        W 8947  21.647   7.699  14.973
40530W        W 8948  15.585  30.572   1.278
40531W        W 8949  16.699  32.001   0.876
40532W        W 8950   8.660  18.729   3.716
40533W        W 8951  12.686  21.193   3.223
40534W        W 8952   4.770   6.810  12.537
40535W        W 8953   7.247  19.259  11.416
40536W        W 8954   8.826  29.494   4.182
40537W        W 8955   3.876  28.178   0.295
40538W        W 8956  29.059   6.767   2.273
40539W        W 8957  33.127  20.593  11.046
40540W        W 8958  41.417  37.414   0.874
40541W        W 8959   0.364   4.229   2.311
40542W        W 8960  12.727  41.477   2.867
40543W        W 8961   6.313  34.543   1.868
40544W        W 8962  34.999  21.220  13.001
40545W        W 8963  18.579   6.267   1.738
40546W        W 8964  33.034   2.225   1.849
40547W        W 8965  22.229  24.128  12.895
40548W        W 8966  17.675  11.269  13.323
40549W        W 8967  11.841  23.205  13.311
40550W        W 8968  12.852  14.649   3.336
40551W        W 8969   4.925  13.704   1.720
40552W        W 8970  29.635   5.693   2.252
40553W        W 8971   6.798  40.469  11.124
40554W        W 8972  35.374   7.884   1.712
40555W        W 8973  38.955  14.648   3.838
40556W        W 8974   9.156  22.629  12.445
40557W        W 8975  17.653  22.102  10.533
40558W        W 8976  33.112   6.361  14.825
40559W        W 8977  42.314  16.202  12.515
40560W        W 8978   2.343   1.767   5.231
40561W        W 8979  17.756  14.742  12.835
40562W        W 8980  31.567   4.340   3.648
40563W        W 8981  41.311   6.315   2.226
40564W        W 8982  17.247  33.508   0.923
40565W        W 8983   3.456   0.303   0.843
40566W        W 8984  28.578   3.871   0.815
40567W        W 8985   7.263  18.251   1.341
40568W        W 8986   0.816  21.035  11.005
40569W        W 8987  10.347   9.834  12.006
40570W        W 8988  31.447  41.485   1.438
40571W        W 8989  31.986  26.475  10.889
40572W        W 8990  10.183   9.395  11.416
40573W        W 8991   2.344  35.589  11.053
40574W        W 8992   4.937  31.104  11.551
40575W        W 8993  12.805   8.876   3.214
40576W        W 8994   8.881  35.410  14.490
40577W        W 8995  29.602  28.653   4.264
40578W        W 8996  33.880  27.987  12.549
40579W        W 8997  10.813  27.666  12.431
40580W        W 8998  19.265  43.390  14.435
40581W        W 8999   4.386  27.484   0.304
40582W        W 9000  22.575  43.404  13.053
40583W        W 9001   2.924  16.576  10.444
40584W        W 9002  16.209  19.168  10.990
40585W        W 9003   5.757  28.540  14.345
40586W        W 9004  41.501  37.563  12.490
40587W        W 9005  41.479  40.957   5.687
40588W        W 9006  13.622  16.210  11.518
40589W        W 9007  21.260  14.285   4.124
40590W        W 9008  30.557  14.612   4.285
40591W        W 9009  42.394   9.882  11.378
40592W        W 9010  21.157  20.053   3.166
40593W        W 9011  41.039   9.837   2.374
40594W        W 9012  31.409  15.214  14.279
40595W        W 9013   4.342  31.607  12.038
40596W        W 9014   7.296  27.052   4.307
40597W        W 9015  42.929  34.981  14.485
40598W        W 9016  32.074  11.665  11.461
40599W        W 9017  32.993  19.746  12.870
40600W        W 9018  40.951   0.819   1.358
40601W        W 9019  38.549  33.456   1.448
40602W        W 9020  34.973  30.920  11.039
40603W        W 9021  31.061  38.522  10.459
40604W        W 9022  21.632  35.493   4.340
40605W        W 9023   5.775  31.028   3.222
40606W        W 9024  12.705   7.699  11.487
40607W        W 9025  23.240  15.239  12.886
40608W        W 9026  10.736  11.354   1.733
40609W        W 9027   1.332  39.317   4.226
40610W        W 9028  42.010   1.807   2.855
40611W        W 9029   2.962  35.909  13.999
40612W        W 9030  27.028  40.843  13.962
40613W        W 9031  17.086  18.703   3.698
40614W        W 9032  13.789  21.180   0.797
40615W        W 9033   0.909  35.447  14.816
40616W        W 9034  38.335  35.887   0.913
40617W        W 9035   2.445   4.826   3.194
40618W        W 9036  27.142  34.373  14.855
40619W        W 9037   2.265   7.705   3.150
40620W        W 9038  40.930  43.331   4.688
40621W        W 9039  22.217   9.214  11.893
40622W        W 9040  14.337  13.276   3.305
40623W        W 9041  44.862  41.532   4.201
40624W        W 9042   1.967  34.042   2.737
40625W        W 9043  37.839   5.777  14.910
40626W        W 9044  31.085  35.110   4.236
40627W        W 9045   5.251  11.703  12.450
40628W        W 9046  31.011  19.630   1.226
40629W        W 9047  43.977  15.240  13.828
40630W        W 9048   4.736  35.921  11.105
40631W        W 9049  44.941  24.196   4.257
40632W        W 9050  14.741  28.525   4.213
40633W        W 9051  38.359   8.736  13.886
40634W        W 9052  40.317  44.317   0.823
40635W        W 9053  29.095  42.289   4.783
40636W        W 9054   1.932  42.839   4.137
40637W        W 9055  27.518  30.605  13.521
40638W        W 9056  35.074  19.556  11.895
40639W        W 9057  23.997  34.480  14.923
40640W        W 9058  19.780   5.699  11.123
40641W        W 9059  29.109  32.449   3.659
40642W        W 9060  12.195  31.008   0.470
40643W        W 9061   0.258  13.837  10.614
40644W        W 9062   7.314  21.165   0.377
40645W        W 9063  42.029   7.858  12.065
40646W        W 9064  26.973   7.735  10.982
40647W        W 9065  23.042   1.335  13.831
40648W        W 9066  22.666  29.626  12.001
40649W        W 9067   6.889  41.876  14.019
40650W        W 9068   0.856  12.705  11.441
40651W        W 9069   4.721  11.705   4.144
40652W        W 9070  26.144  34.485  14.404
40653W        W 9071  23.647  40.352   0.254
40654W        W 9072   7.284  29.095   3.756
40655W        W 9073  32.036  25.990   3.252
40656W        W 9074  28.462  11.132   3.223
40657W        W 9075  37.523  14.764  11.913
40658W        W 9076  23.231  15.597   2.389
40659W        W 9077   3.260  34.452   4.755
40660W        W 9078  19.173  29.019  10.991
40661W        W 9079  14.226  42.403   0.310
40662W        W 9080   2.392  16.253  13.510
40663W        W 9081  15.199  21.704  12.427
40664W        W 9082  43.330  29.555  12.025
40665W        W 9083  42.375  20.095  14.770
40666W        W 9084  10.260   8.702   3.791
40667W        W 9085   7.224  14.688   1.762
40668W        W 9086  38.514  33.950   2.661
40669W        W 9087  13.761   5.246  11.432
40670W        W 9088  18.160  34.547   4.205
40671W        W 9089  18.550  16.643  10.572
40672W        W 9090  13.644  17.674   4.244
40673W        W 9091  22.531  20.594  13.389
40674W        W 9092  25.478   5.843  14.287
40675W        W 9093  29.959  44.809   2.787
40676W        W 9094  43.416  25.649  13.486
40677W        W 9095  28.154  32.392   4.212
40678W        W 9096  20.580  38.341   5.177
40679W        W 9097   9.873   4.888   1.279
40680W        W 9098   2.905  38.427  11.076
40681W        W 9099  13.770   1.382   2.271
40682W        W 9100   9.265  15.225  12.375
40683W        W 9101  32.599  42.338  12.966
40684W        W 9102   5.289  13.653  12.430
40685W        W 9103   9.690  39.005  12.360
40686W        W 9104  37.087  41.534   4.306
40687W        W 9105  31.492  17.572  14.840
40688W        W 9106  38.368  12.808   0.858
40689W        W 9107  35.091  32.010   0.952
40690W        W 9108  22.613  19.708  10.539
40691W        W 9109  16.150   5.921   2.883
40692W        W 9110  42.857  18.201  14.875
40693W        W 9111  18.200  39.370  10.979
40694W        W 9112  18.596  28.518  12.875
40695W        W 9113  29.523  43.781   4.221
40696W        W 9114  13.281   7.210  13.979
40697W        W 9115  34.599   3.809   2.251
40698W        W 9116  30.991  10.838   4.785
40699W        W 9117  17.151  38.037  13.026
40700W        W 9118  42.881  32.923   2.754
40701W        W 9119  29.455  37.057  14.947
40702W        W 9120   4.439  24.131   3.820
40703W        W 9121   3.728   0.425  12.996
40704W        W 9122  19.151   5.903   0.356
40705W        W 9123   6.400  19.695   0.267
40706W        W 9124  33.092  41.926  11.918
40707W        W 9125   8.816   7.261  11.973
40708W        W 9126  28.113  10.668  13.916
40709W        W 9127  38.001  26.204  12.999
40710W        W 9128   0.419  44.285  11.948
40711W        W 9129  32.457  21.626  14.405
40712W        W 9130  20.624  33.508  12.871
40713W        W 9131   6.309   0.744   2.734
40714W        W 9132  29.065  39.915  13.823
40715W        W 9133   8.768  20.603  10.605
40716W        W 9134  24.706  19.645   4.719
40717W        W 9135  35.097  25.577  12.519
40718W        W 9136  43.766  21.035  14.302
40719W        W 9137  14.672  19.222  12.441
40720W        W 9138   6.862  33.975  11.077
40721W        W 9139  17.798  39.846   2.788
40722W        W 9140  20.592  21.711   1.776
40723W        W 9141   2.803  31.116  10.415
40724W        W 9142  40.497  42.504   2.886
40725W        W 9143   7.174  23.206  14.496
40726W        W 9144  41.885   3.225  13.910
40727W        W 9145  30.586  27.613   2.813
40728W        W 9146  25.714   0.967  14.008
40729W        W 9147  41.482  40.840   4.772
40730W        W 9148  10.822  33.466   4.214
40731W        W 9149   1.433  31.562   1.893
40732W        W 9150  35.935  25.469   3.232
40733W        W 9151  38.849  35.421   1.239
40734W        W 9152  37.563  35.974  11.467
40735W        W 9153  15.195  21.171  10.450
40736W        W 9154  34.604  35.479   1.814
40737W        W 9155  33.079  12.346  11.087
40738W        W 9156  26.018   3.271   0.741
40739W        W 9157  32.095   2.941   2.716
40740W        W 9158   3.910  17.566  14.910
40741W        W 9159  32.636  42.839  10.939
40742W        W 9160  13.720  17.247   2.371
40743W        W 9161  22.557   4.729  10.520
40744W        W 9162  21.540   1.959   2.191
40745W        W 9163   5.833  27.573  10.433
40746W        W 9164  25.663  22.235   4.203
40747W        W 9165  22.030  22.218  11.552
40748W        W 9166  37.363  25.049  10.963
40749W        W 9167  28.504   1.401   1.804
40750W        W 9168  31.495   1.817  12.841
40751W        W 9169  11.727  44.004   3.800
40752W        W 9170  44.363   3.277  11.981
40753W        W 9171  43.453  44.340   9.949
40754W        W 9172  32.444   7.713   4.218
40755W        W 9173  11.657  13.306   2.721
40756W        W 9174  18.295  17.680  12.063
40757W        W 9175  13.164   4.776   3.669
40758W        W 9176  10.818   9.238  12.540
40759W        W 9177  29.608  24.977  12.489
40760W        W 9178  40.915   1.872   3.229
40761W        W 9179  19.714  44.419   2.802
40762W        W 9180  18.672  29.126   2.699
40763W        W 9181  30.025  18.221  12.063
40764W        W 9182   9.650  28.033   3.272
40765W        W 9183  13.641  20.624  10.434
40766W        W 9184  39.471  32.042  14.458
40767W        W 9185  26.700  35.390  11.555
40768W        W 9186  15.783  19.597   1.337
40769W        W 9187   6.307  42.842   0.417
40770W        W 9188   6.786  14.181   4.813
40771W        W 9189  21.250  42.390  14.938
40772W        W 9190  14.140  39.541  12.024
40773W        W 9191  29.997   2.326  11.377
40774W        W 9192  31.042  17.648   1.305
40775W        W 9193  10.258  31.474  13.941
40776W        W 9194   3.403   3.718   1.817
40777W        W 9195   0.493  24.198  13.865
40778W        W 9196   0.410  13.804   0.473
40779W        W 9197  44.945  32.101   4.613
40780W        W 9198   9.736  21.671  14.818
40781W        W 9199   8.379  12.784   2.759
40782W        W 9200  26.494  39.870   1.427
40783W        W 9201   7.332   8.260   1.820
40784W        W 9202  23.204  20.142   1.863
40785W        W 9203   8.660  28.965  14.845
40786W        W 9204  33.957  24.566   2.785
40787W        W 9205  11.640   8.354   1.285
40788W        W 9206   1.294   4.427  11.602
40789W        W 9207  32.598  10.257   3.270
40790W        W 9208  18.286  32.516   3.296
40791W        W 9209  22.560  43.789   1.406
40792W        W 9210  18.125  27.967  13.429
40793W        W 9211   5.416   2.801  11.864
40794W        W 9212  20.137  41.441   1.394
40795W        W 9213  35.372  16.610   3.323
40796W        W 9214   6.324  19.685  11.117
40797W        W 9215   3.339   0.753   2.762
40798W        W 9216  33.967  22.198   3.240
40799W        W 9217   3.837  38.008  10.946
40800W        W 9218  15.635   6.746  10.914
40801W        W 9219  27.582  30.042  13.377
40802W        W 9220  24.075  19.043  11.078
40803W        W 9221  31.518  17.611  12.027
40804W        W 9222   9.292  27.596   2.391
40805W        W 9223  14.263  11.146   0.817
40806W        W 9224  36.420  33.519   9.931
40807W        W 9225  22.201  38.941  13.441
40808W        W 9226  11.154  25.088   0.439
40809W        W 9227   6.792  30.096   1.405
40810W        W 9228   9.282  39.936   4.222
40811W        W 9229  30.137  43.766  11.575
40812W        W 9230  18.095   3.864  11.559
40813W        W 9231  32.132  38.997  13.823
40814W        W 9232  26.553  16.279   1.316
40815W        W 9233  40.873  10.326   4.625
40816W        W 9234  31.041  37.418  12.564
40817W        W 9235  27.026  24.688   3.377
40818W        W 9236  39.975  42.388  14.458
40819W        W 9237  14.611  29.099   4.256
40820W        W 9238  42.788   8.212   0.373
40821W        W 9239  33.384  20.703   1.746
40822W        W 9240  10.375   5.427  10.509
40823W        W 9241  35.907  30.638  13.959
40824W        W 9242  12.610  28.441  14.766
40825W        W 9243  22.084  38.501  12.434
40826W        W 9244  12.767  24.993  14.022
40827W        W 9245  10.858  21.199   3.809
40828W        W 9246   7.744  23.098  10.611
40829W        W 9247  23.036   6.887   3.260
40830W        W 9248  44.004   3.815  11.000
40831W        W 9249  14.332  23.590   2.761
40832W        W 9250  15.145  11.696   0.839
40833W        W 9251  35.061   9.217  11.583
40834W        W 9252  27.051  16.728  12.361
40835W        W 9253  16.762  26.077  13.463
40836W        W 9254  20.538   2.775   0.871
40837W        W 9255   4.370  17.225  12.987
40838W        W 9256   5.915   7.685   0.802
40839W        W 9257  36.490  19.062  13.906
40840W        W 9258  30.099  42.969  14.299
40841W        W 9259  15.656  40.515   5.312
40842W        W 9260   5.856  14.681   2.230
40843W        W 9261  25.110  28.932   1.370
40844W        W 9262  27.507   6.247  11.909
40845W        W 9263  14.157  34.448   2.385
40846W        W 9264  42.446  15.658   2.728
40847W        W 9265  35.440  36.469   1.877
40848W        W 9266  32.579   8.294   0.743
40849W        W 9267  20.555  10.213   4.783
40850W        W 9268  34.081  16.259  12.039
40851W        W 9269  15.714   4.935   4.745
40852W        W 9270  18.141  30.942   2.741
40853W        W 9271  16.572  36.845   0.349
40854W        W 9272   0.850  23.046   0.425
40855W        W 9273  26.068  41.841  10.574
40856W        W 9274  44.904  13.185  12.869
40857W        W 9275  26.006  12.154  14.404
40858W        W 9276  19.607  10.325   0.809
40859W        W 9277   9.709   7.772   2.691
40860W        W 9278  35.040   5.889   4.227
40861W        W 9279  10.186  19.220  11.378
40862W        W 9280  29.486  11.779   2.775
40863W        W 9281  34.983  44.485  11.596
40864W        W 9282  24.502   7.398  14.866
40865W        W 9283  43.433  43.506  13.928
40866W        W 9284  19.184  39.009   1.349
40867W        W 9285   3.884  12.303   3.298
40868W        W 9286  44.502   1.929  14.894
40869W        W 9287  12.800   6.234  12.039
40870W        W 9288  22.108  39.343   0.902
40871W        W 9289  30.097   0.957   3.709
40872W        W 9290  42.419  26.059   3.224
40873W        W 9291  43.935  20.642   0.315
40874W        W 9292   1.752   6.893  14.031
40875W        W 9293  26.566   9.758   0.746
40876W        W 9294  20.618  39.062  12.490
40877W        W 9295  25.213  10.747   0.962
40878W        W 9296  15.174   9.355   3.822
40879W        W 9297   2.356  20.581   4.198
40880W        W 9298  44.974  34.904  12.895
40881W        W 9299  17.159  35.965   0.787
40882W        W 9300  18.113  11.202   2.245
40883W        W 9301  26.977  27.014  11.879
40884W        W 9302  43.786  16.229  11.557
40885W        W 9303  18.081  16.707  12.995
40886W        W 9304  21.564   3.754  12.063
40887W        W 9305  35.372  35.990  11.103
40888W        W 9306  12.333  41.932   0.349
40889W        W 9307  12.124   1.930   0.267
40890W        W 9308  22.713  38.566   1.864
40891W        W 9309  28.106   1.794  11.985
40892W        W 9310   1.405  41.941  14.330
40893W        W 9311  34.486  31.069  11.389
40894W        W 9312   4.725  38.873  14.290
40895W        W 9313  21.706  24.554   5.091
40896W        W 9314  12.143  15.816   0.312
40897W        W 9315  22.080  33.051   2.401
40898W        W 9316   2.929  31.997  14.938
40899W        W 9317  41.339  26.702  11.055
40900W        W 9318  42.484  30.560   0.401
40901W        W 9319   0.764   3.819  13.470
40902W        W 9320  44.304  37.436  13.845
40903W        W 9321  22.028  12.212  11.542
40904W        W 9322  14.623  18.748   1.369
40905W        W 9323  20.117  31.943  10.046
40906W        W 9324  43.330  27.147  12.950
40907W        W 9325   5.809  31.627   4.744
40908W        W 9326  21.026  33.939   4.615
40909W        W 9327   6.685  28.124   3.215
40910W        W 9328  20.626  41.862  12.530
40911W        W 9329   1.887   8.370   1.258
40912W        W 9330  33.426  18.115  12.911
40913W        W 9331  23.555  40.492   5.160
40914W        W 9332  23.574   2.883   1.818
40915W        W 9333  29.634   5.696  11.048
40916W        W 9334  36.543  34.003   3.316
40917W        W 9335  24.564   9.758  12.933
40918W        W 9336   7.902  20.570  14.510
40919W        W 9337  27.071  35.979  13.052
40920W        W 9338  37.403   5.823   4.211
40921W        W 9339   7.824  23.648   2.390
40922W        W 9340  41.361  43.507  12.559
40923W        W 9341  42.786   8.257  12.999
40924W        W 9342  18.279  33.108   3.795
40925W        W 9343  18.203   0.923  13.859
40926W        W 9344  18.156   2.385   3.337
40927W        W 9345  33.547  37.999  11.961
40928W        W 9346  35.897  30.131   4.705
40929W        W 9347  42.802  13.799   9.973
40930W        W 9348  21.621  44.328  11.952
40931W        W 9349  28.667  12.626   3.380
40932W        W 9350   9.192  27.644  14.342
40933W        W 9351  43.508  25.186  10.497
40934W        W 9352  14.747  32.081  14.855
40935W        W 9353  35.039   1.840   3.250
40936W        W 9354   1.238  29.158  11.544
40937W        W 9355   6.886   7.898   4.759
40938W        W 9356  36.529  19.613  13.504
40939W        W 9357  14.667   2.291   3.309
40940W        W 9358  22.245   3.341   3.648
40941W        W 9359  18.171  30.620   0.417
40942W        W 9360  44.399  22.138  10.551
40943W        W 9361   9.153  35.865   5.271
40944W        W 9362  28.941  36.525  11.601
40945W        W 9363  41.516  13.730   1.774
40946W        W 9364  38.330  44.469   2.355
40947W        W 9365  40.354  11.253   0.316
40948W        W 9366  13.599  28.535  11.498
40949W        W 9367  14.803  36.026   2.775
40950W        W 9368  27.473  40.486  13.433
40951W        W 9369  30.484  41.487   4.827
40952W        W 9370   2.814  21.544  13.520
40953W        W 9371  27.638  43.830  12.383
40954W        W 9372  37.897  17.089  12.355
40955W        W 9373  36.425  11.159  11.062
40956W        W 9374   8.394   7.708  12.518
40957W        W 9375   5.218  30.558   4.661
40958W        W 9376  20.246  36.912  14.032
40959W        W 9377  21.060  44.279  10.623
40960W        W 9378  29.977   7.767  10.053
40961W        W 9379  35.872   8.833  12.961
40962W        W 9380  10.325  26.969  11.098
40963W        W 9381  16.216  39.009  14.759
40964W        W 9382   9.856  40.472   1.908
40965W        W 9383  25.209  31.991   3.368
40966W        W 9384  29.980  15.164  14.887
40967W        W 9385   7.737  41.308   4.672
40968W        W 9386  29.580   7.696  10.889
40969W        W 9387  26.069  30.538   2.270
40970W        W 9388  17.694  14.640   3.221
40971W        W 9389  11.339  13.661  14.893
40972W        W 9390  14.772  10.741  12.534
40973W        W 9391  28.119  29.105   1.888
40974W        W 9392  40.053  18.257  13.363
40975W        W 9393   7.750  41.836   1.276
40976W        W 9394  44.399  10.756   2.308
40977W        W 9395  22.630   7.278  13.063
40978W        W 9396   7.862   9.836  12.874
40979W        W 9397  24.712  24.678   0.893
40980W        W 9398  40.048  42.974   4.708
40981W        W 9399  13.747  15.613  12.878
40982W        W 9400   9.261  12.195   3.752
40983W        W 9401   6.894   8.762   1.876
40984W        W 9402  37.847  35.102  11.075
40985W        W 9403  35.040  26.988   4.601
40986W        W 9404   5.328  32.992  13.051
40987W        W 9405  44.829  43.950   4.711
40988W        W 9406  33.594  18.280  13.948
40989W        W 9407  30.129   3.386   3.644
40990W        W 9408  28.452  15.792  13.959
40991W        W 9409  40.814  35.438  13.546
40992W        W 9410  26.165  29.582  14.813
40993W        W 9411  38.827  37.408   9.936
40994W        W 9412  31.620  28.179  12.831
40995W        W 9413  26.635  26.110  14.889
40996W        W 9414  44.982   3.838   0.244
40997W        W 9415   3.448  37.937   2.865
40998W        W 9416  27.505  27.161   3.326
40999W        W 9417  38.955  23.194  13.046
41000W        W 9418  26.979   5.862  11.009
41001W        W 9419   5.851  15.768  13.533
41002W        W 9420  23.571  13.140   4.149
41003W        W 9421  26.676   1.817   2.331
41004W        W 9422  13.655  31.476  14.978
41005W        W 9423  23.628  24.197   4.292
41006W        W 9424  28.435   8.298   9.993
41007W        W 9425  41.970  17.139   3.279
41008W        W 9426  20.138  21.515  14.832
41009W        W 9427  29.926  20.168   2.406
41010W        W 9428  24.173  13.129   2.830
41011W        W 9429  10.196  38.931  11.517
41012W        W 9430   9.231  16.634   2.749
41013W        W 9431  24.533  29.497  14.433
41014W        W 9432  18.718  11.190  12.385
41015W        W 9433   8.776   5.798  12.850
41016W        W 9434  33.559  31.985  11.527
41017W        W 9435  44.355  42.966   1.893
41018W        W 9436  34.615  44.926  12.016
41019W        W 9437  43.819  25.526  13.432
41020W        W 9438  37.544  41.882   4.689
41021W        W 9439   1.850  16.582   1.921
41022W        W 9440  36.964  25.129  11.981
41023W        W 9441  37.087  22.537   0.938
41024W        W 9442  21.192   2.843   1.432
41025W        W 9443   1.905  25.481  12.384
41026W        W 9444   1.412  22.709  10.559
41027W        W 9445  24.569  22.202   1.429
41028W        W 9446  33.546  36.866  14.412
41029W        W 9447   8.299  22.700   3.297
41030W        W 9448  27.454   7.760  13.800
41031W        W 9449  39.971  24.695  13.816
41032W        W 9450   9.349  41.011  12.044
41033W        W 9451  28.662  25.478  14.925
41034W        W 9452  12.756  27.975   4.635
41035W        W 9453  33.947  31.104   1.300
41036W        W 9454  41.916  30.164  11.939
41037W        W 9455   1.816  15.108  12.849
41038W        W 9456  11.821  10.186   0.422
41039W        W 9457  12.692   3.417  10.989
41040W        W 9458  16.723  36.419  13.434
41041W        W 9459  20.237  40.383   0.309
41042W        W 9460  37.064  37.431   4.172
41043W        W 9461  30.163   5.922  10.521
41044W        W 9462  36.425   5.867   2.287
41045W        W 9463  26.039  16.578  13.936
41046W        W 9464  27.032  10.286   2.821
41047W        W 9465  30.608  40.906   0.761
41048W        W 9466   0.777   0.391   0.350
41049W        W 9467  36.057  36.391  14.837
41050W        W 9468  22.081  21.121  10.471
41051W        W 9469  25.119  11.263  14.356
41052W        W 9470  34.399  26.649   2.888
41053W        W 9471  21.177   5.343  10.582
41054W        W 9472  15.784  39.966  12.989
41055W        W 9473  10.285  30.959   3.692
41056W        W 9474  31.569   2.961   0.848
41057W        W 9475  17.694   6.728  14.955
41058W        W 9476  41.834   1.785  12.496
41059W        W 9477  39.522  32.973   1.727
41060W        W 9478  32.951  38.468   2.274
41061W        W 9479  38.522  11.655   3.154
41062W        W 9480   5.697  28.558   2.230
41063W        W 9481  35.535  23.727   0.285
41064W        W 9482  37.877   2.736  11.890
41065W        W 9483   9.201   2.414  13.867
41066W        W 9484  39.443  36.096   2.191
41067W        W 9485  28.472  38.564   0.854
41068W        W 9486  22.240   2.865  13.823
41069W        W 9487   5.732   2.300  13.059
41070W        W 9488  34.602  19.624  10.607
41071W        W 9489  15.753   5.251   5.172
41072W        W 9490   3.857  16.754  13.538
41073W        W 9491  14.171  38.337   0.386
41074W        W 9492  29.170  32.946   3.728
41075W        W 9493  13.348  40.450   3.359
41076W        W 9494   0.279  43.815   4.254
41077W        W 9495  25.597  16.747  10.423
41078W        W 9496  26.164  13.731   0.409
41079W        W 9497   2.824  20.199   4.228
41080W        W 9498   3.442  42.365  12.353
41081W        W 9499  44.753  40.023  14.875
41082W        W 9500  31.141  39.469   1.859
41083W        W 9501   1.872  13.787   0.740
41084W        W 9502   9.253   3.888   2.789
41085W        W 9503  20.166  12.181   1.288
41086W        W 9504  12.273  12.841   1.929
41087W        W 9505  44.987  35.499  14.961
41088W        W 9506  27.670  23.598   3.379
41089W        W 9507   8.285  42.899  14.868
41090W        W 9508  11.728  28.594   2.845
41091W        W 9509  26.045  39.368  13.424
41092W        W 9510  37.040  35.009   2.792
41093W        W 9511   1.824  41.293   1.824
41094W        W 9512  38.829   8.707   2.771
41095W        W 9513   1.977  30.478   1.229
41096W        W 9514  14.161  17.741   3.209
41097W        W 9515  17.090  40.957  10.433
41098W        W 9516  30.096  32.435  12.840
41099W        W 9517  26.012   7.374   4.228
41100W        W 9518  37.926  10.802  13.915
41101W        W 9519  37.550  31.545  13.904
41102W        W 9520   8.822  17.614   0.255
41103W        W 9521   8.351  41.888  11.512
41104W        W 9522  22.235   5.760   0.434
41105W        W 9523  20.750  37.338  11.501
41106W        W 9524   5.395   3.224  13.447
41107W        W 9525  35.549  19.060   3.747
41108W        W 9526  12.157   3.352  11.049
41109W        W 9527  31.476  24.113   3.865
41110W        W 9528  43.375  36.951   3.842
41111W        W 9529  14.303  43.772  14.516
41112W        W 9530  26.975   4.263  11.584
41113W        W 9531   0.892   2.814  12.510
41114W        W 9532  18.171  44.439   1.810
41115W        W 9533  31.429  28.159   1.334
41116W        W 9534  43.008  12.305  14.486
41117W        W 9535   8.728  22.697  10.977
41118W        W 9536  27.981  13.176   4.285
41119W        W 9537  41.861  14.211  14.287
41120W        W 9538   7.375  10.856  12.528
41121W        W 9539  30.611  13.134  11.913
41122W        W 9540  36.944  26.087  10.558
41123W        W 9541  36.862  41.854  14.931
41124W        W 9542  15.819  41.355  14.470
41125W        W 9543  27.161   7.709   3.833
41126W        W 9544  14.104  35.067  13.985
41127W        W 9545  39.476  16.297  12.957
41128W        W 9546  32.427  24.495   1.731
41129W        W 9547   4.793  31.025   4.196
41130W        W 9548  20.728  29.556  13.874
41131W        W 9549  25.147  17.086  11.086
41132W        W 9550  36.992   1.956   3.336
41133W        W 9551   5.913   1.444   0.735
41134W        W 9552   3.782  44.891  12.510
41135W        W 9553   6.682  32.978  11.017
41136W        W 9554  30.149  24.498  13.897
41137W        W 9555  36.485  11.688   2.777
41138W        W 9556  18.282   8.309  13.348
41139W        W 9557  16.609   8.262   2.215
41140W        W 9558   6.710   4.328   0.257
41141W        W 9559  30.483  20.609  13.829
41142W        W 9560   7.826  14.694  10.983
41143W        W 9561  19.732  25.170  11.596
41144W        W 9562  14.152  26.011  14.400
41145W        W 9563  26.002  17.722  12.358
41146W        W 9564  10.220   2.906   1.725
41147W        W 9565  20.153  19.148  12.926
41148W        W 9566  39.338  28.631   2.739
41149W        W 9567  39.914  15.789   2.849
41150W        W 9568   7.767  19.093  12.881
41151W        W 9569  35.096  23.568  12.053
41152W        W 9570   7.908   1.897  13.506
41153W        W 9571  32.122   4.215   0.915
41154W        W 9572  10.197  33.979  13.874
41155W        W 9573  43.810  23.572  14.334
41156W        W 9574   9.308   2.381  12.892
41157W        W 9575  44.838  25.969  14.413
41158W        W 9576  30.061  10.314  12.545
41159W        W 9577   0.354  11.864   0.753
41160W        W 9578  21.036  40.412   1.213
41161W        W 9579   1.790  43.420  10.600
41162W        W 9580  17.077  15.272  10.574
41163W        W 9581  18.790  11.323   2.710
41164W        W 9582  19.643  32.454  12.392
41165W        W 9583  28.929   8.750  13.970
41166W        W 9584  10.208  43.834   4.241
41167W        W 9585  13.782  18.247   4.665
41168W        W 9586  33.992  14.828   1.852
41169W        W 9587  14.310   7.243   2.773
41170W        W 9588  19.175   1.937   4.134
41171W        W 9589   3.751  28.680   0.390
41172W        W 9590  30.111  18.286   2.674
41173W        W 9591  23.036  18.141   2.356
41174W        W 9592  24.667  13.619   3.841
41175W        W 9593  39.965  30.931   3.695
41176W        W 9594   4.741  36.876  10.495
41177W        W 9595   7.177  37.362  10.454
41178W        W 9596  38.865  21.035   2.840
41179W        W 9597  10.340  36.964  14.984
41180W        W 9598  36.866  44.322  12.571
41181W        W 9599  26.077  15.660   3.166
41182W        W 9600  15.294   1.960  13.467
41183W        W 9601  24.479   2.432  11.011
41184W        W 9602  21.644  33.568  11.588
41185W        W 9603  23.139  20.046  12.044
41186W        W 9604  32.445   4.292   3.261
41187W        W 9605  43.789  28.959  12.541
41188W        W 9606  18.748  20.755   2.867
41189W        W 9607   1.265  34.499  12.091
41190W        W 9608  16.205  16.300   1.270
41191W        W 9609  17.240  19.709  11.548
41192W        W 9610  13.669  39.884  11.923
41193W        W 9611  28.156  16.267   1.816
41194W        W 9612  27.503  44.287  13.058
41195W        W 9613  41.004  21.595  12.976
41196W        W 9614  12.310  12.766   3.255
41197W        W 9615  29.150  34.990   2.792
41198W        W 9616  33.067   7.873  13.332
41199W        W 9617  26.554  20.696   1.376
41200W        W 9618  20.172  33.026  12.565
41201W        W 9619  24.029  41.393   3.805
41202W        W 9620   9.882   1.943  14.441
41203W        W 9621  15.647  14.189   3.825
41204W        W 9622   8.395  25.187   2.896
41205W        W 9623   4.215  21.619   3.660
41206W        W 9624  31.616   5.848  12.407
41207W        W 9625  32.133  18.264   1.431
41208W        W 9626  39.897  24.024  14.797
41209W        W 9627  29.511  44.914   0.242
41210W        W 9628  22.572  16.706  13.898
41211W        W 9629  38.492   2.365  12.044
41212W        W 9630  44.478  43.823  10.469
41213W        W 9631  38.483  21.131   3.256
41214W        W 9632  27.150  14.327  10.499
41215W        W 9633   8.189  21.088   2.315
41216W        W 9634  20.180   8.828   0.950
41217W        W 9635  12.321   2.383   3.320
41218W        W 9636  33.592  27.679  14.899
41219W        W 9637   7.369  23.735  14.415
41220W        W 9638  43.466  39.940  12.365
41221W        W 9639   2.300  38.064  13.807
41222W        W 9640  13.773  28.138  11.862
41223W        W 9641  34.921  34.005  13.397
41224W        W 9642  32.052  20.169   2.206
41225W        W 9643   5.299  29.923   2.901
41226W        W 9644  21.621  33.971  12.067
41227W        W 9645  14.647  38.374  14.309
41228W        W 9646   0.299  41.825   1.839
41229W        W 9647   5.923  14.219   3.867
41230W        W 9648  42.418   0.754   0.821
41231W        W 9649   3.905  29.942   1.339
41232W        W 9650  15.750  19.655  10.012
41233W        W 9651  13.623  32.485   4.749
41234W        W 9652  10.267  31.051  11.867
41235W        W 9653  42.883  38.845  14.776
41236W        W 9654   0.379  32.891   3.381
41237W        W 9655  18.156  11.362   4.269
41238W        W 9656   1.298  14.642   1.352
41239W        W 9657   2.934  37.575   2.299
41240W        W 9658  23.238  17.644  12.527
41241W        W 9659  32.403  36.465   1.260
41242W        W 9660  29.460  17.239   4.236
41243W        W 9661  15.745  29.644  13.535
41244W        W 9662  28.186  28.173   0.307
41245W        W 9663  33.478  24.035   1.725
41246W        W 9664  12.658  37.060   3.746
41247W        W 9665  20.115  25.004   0.758
41248W        W 9666  27.976  16.123  12.980
41249W        W 9667  25.987  26.966  12.509
41250W        W 9668  43.478  21.082   9.939
41251W        W 9669   7.687  42.346   1.234
41252W        W 9670  25.703  21.622  13.997
41253W        W 9671  35.423  10.376   4.710
41254W        W 9672  43.853  39.415  11.385
41255W        W 9673  22.655  19.754   2.355
41256W        W 9674   5.198  35.993  12.489
41257W        W 9675  10.785  21.739  14.440
41258W        W 9676  24.025  26.076   2.681
41259W        W 9677  13.106  11.370   0.751
41260W        W 9678  28.518   5.255  14.873
41261W        W 9679  11.815  38.842   0.262
41262W        W 9680  27.653  33.526   1.897
41263W        W 9681  11.227  30.604   4.322
41264W        W 9682  44.903  19.111   4.329
41265W        W 9683   2.346   9.253  13.537
41266W        W 9684  12.336  40.956   0.442
41267W        W 9685  11.777  25.572   1.912
41268W        W 9686  30.451   0.311  13.500
41269W        W 9687   2.722  30.653   1.351
41270W        W 9688  10.204   9.849  13.823
41271W        W 9689  44.896  22.737   2.806
41272W        W 9690  19.752  21.610   4.236
41273W        W 9691  27.056  28.124   1.285
41274W        W 9692   3.800  35.476   0.274
41275W        W 9693  40.494  36.864  11.376
41276W        W 9694  14.275   5.232  13.986
41277W        W 9695  36.894   7.400   2.274
41278W        W 9696  12.792  21.027   2.877
41279W        W 9697   7.338  12.203   4.695
41280W        W 9698   2.389  22.603   1.851
41281W        W 9699  34.062  40.307   2.899
41282W        W 9700   6.297   4.430  10.471
41283W        W 9701  41.914  42.449   1.226
41284W        W 9702  16.702  26.515  12.352
41285W        W 9703  24.595  27.071   3.290
41286W        W 9704  37.896   7.899  10.578
41287W        W 9705  32.940  33.040   4.648
41288W        W 9706   7.802   0.284  14.813
41289W        W 9707  34.566  34.029  14.896
41290W        W 9708  30.038  10.279   0.833
41291W        W 9709  40.515  17.694  14.012
41292W        W 9710  22.664  44.304   4.239
41293W        W 9711  42.783  31.435   0.880
41294W        W 9712  37.355  12.759  12.884
41295W        W 9713  21.707  40.548   0.886
41296W        W 9714  29.607  26.075  13.479
41297W        W 9715   5.799  39.364   4.218
41298W        W 9716   0.308  25.111   0.245
41299W        W 9717  20.582  21.062  14.815
41300W        W 9718   4.941   3.863   4.312
41301W        W 9719  26.975  28.068   3.851
41302W        W 9720  39.332  24.145   2.770
41303W        W 9721  30.916  21.591   1.749
41304W        W 9722  42.980  29.081  13.000
41305W        W 9723   7.278  18.060   3.233
41306W        W 9724  10.765  24.037  13.375
41307W        W 9725  12.119  10.185   2.746
41308W        W 9726  40.931  39.425   3.741
41309W        W 9727  20.110  39.973  13.015
41310W        W 9728  17.596  41.463  13.895
41311W        W 9729  25.082  21.214   2.247
41312W        W 9730  19.207  24.625  14.359
41313W        W 9731  17.285  20.049  11.591
41314W        W 9732  29.604  17.192   9.990
41315W        W 9733  41.393   4.254   2.694
41316W        W 9734  14.196  39.470   3.251
41317W        W 9735  26.017   0.353   4.285
41318W        W 9736  22.998  20.619  13.516
41319W        W 9737  34.497  22.632   0.729
41320W        W 9738   6.419  28.024   3.249
41321W        W 9739   7.197   6.863  13.908
41322W        W 9740  38.429  27.184   3.305
41323W        W 9741   6.813  26.565  11.123
41324W        W 9742  42.497  29.505  12.418
41325W        W 9743  22.252  15.657   4.153
41326W        W 9744  43.336   2.756  13.860
41327W        W 9745  29.962  44.776  11.000
41328W        W 9746  19.071  40.334  11.420
41329W        W 9747  35.937   3.447   1.336
41330W        W 9748   9.339  32.502  13.933
41331W        W 9749  24.085   8.747   5.249
41332W        W 9750  41.308  22.181  13.402
41333W        W 9751  28.089  21.228   0.881
41334W        W 9752  11.698   6.370  11.527
41335W        W 9753  37.559  10.316   1.858
41336W        W 9754  34.436  28.014  12.861
41337W        W 9755   9.373  35.429  10.588
41338W        W 9756  38.073   3.317   3.667
41339W        W 9757  35.078  14.327  14.931
41340W        W 9758  39.355  14.299   5.271
41341W        W 9759   1.312  33.095   1.320
41342W        W 9760  18.722   7.694  12.574
41343W        W 9761  34.917  37.933  11.461
41344W        W 9762  18.711  10.718   1.794
41345W        W 9763  28.519  23.023  12.417
41346W        W 9764  34.936   6.370  14.916
41347W        W 9765  37.852  20.144   4.816
41348W        W 9766   1.297   9.678   3.207
41349W        W 9767  18.582  30.572   0.867
41350W        W 9768  29.552   8.241   4.182
41351W        W 9769  18.064   9.855   4.173
41352W        W 9770  17.183  42.806   3.774
41353W        W 9771  26.636  34.597  11.418
41354W        W 9772   0.388   5.351  10.910
41355W        W 9773  43.323   0.383  14.313
41356W        W 9774  33.529   8.233   1.317
41357W        W 9775  39.454  17.798   1.854
41358W        W 9776  32.597   4.853  10.917
41359W        W 9777  43.379  24.479   5.774
41360W        W 9778  34.112   6.412   1.730
41361W        W 9779  22.088  26.631   0.265
41362W        W 9780   8.344  38.065  12.021
41363W        W 9781  35.897  31.088   3.349
41364W        W 9782  26.477  26.104   4.809
41365W        W 9783   5.281  10.810  14.998
41366W        W 9784   1.444  28.983   0.377
41367W        W 9785  43.975  30.488   1.750
41368W        W 9786  26.189  11.633  12.040
41369W        W 9787  11.851  38.438   3.671
41370W        W 9788  39.501  20.662   3.240
41371W        W 9789  32.898   0.879   3.703
41372W        W 9790  18.549   9.264  13.847
41373W        W 9791  42.843  22.600   5.158
41374W        W 9792   1.401  43.961  12.493
41375W        W 9793  23.198  17.606   4.653
41376W        W 9794   8.316  10.312   0.867
41377W        W 9795  20.230  11.269  14.798
41378W        W 9796  36.935  43.997   1.345
41379W        W 9797  33.043   4.361  12.957
41380W        W 9798  36.500   4.312   2.875
41381W        W 9799  43.424  38.939   0.834
41382W        W 9800  35.856  28.490  12.890
41383W        W 9801  40.327  26.549  13.542
41384W        W 9802  16.296   4.784   3.736
41385W        W 9803  40.046   5.830  13.888
41386W        W 9804  10.282   4.382   0.242
41387W        W 9805  44.911   4.381  14.319
41388W        W 9806  10.153  27.600  10.936
41389W        W 9807  12.199  11.315   1.343
41390W        W 9808   6.724  44.463  13.791
41391W        W 9809   4.398  42.960  14.444
41392W        W 9810  17.578  31.036  12.577
41393W        W 9811  11.315  12.771  12.035
41394W        W 9812  39.342  40.457   3.829
41395W        W 9813   2.384  21.162   1.210
41396W        W 9814   9.242  22.518  13.421
41397W        W 9815  18.670  40.948   2.211
41398W        W 9816  31.944   4.817   1.874
41399W        W 9817   9.215   0.336   3.385
41400W        W 9818  17.680  36.545   3.385
41401W        W 9819  20.065   3.376   0.296
41402W        W 9820   1.469   4.809  11.967
41403W        W 9821   1.437   3.314  13.825
41404W        W 9822  18.178   9.160  13.905
41405W        W 9823  10.872  15.164  11.485
41406W        W 9824  42.311  21.238   0.936
41407W        W 9825  26.614  41.415  10.409
41408W        W 9826  14.261  25.562   1.446
41409W        W 9827  38.357   2.365   1.229
41410W        W 9828  12.216  41.362   0.476
41411W        W 9829  22.034  25.634   2.846
41412W        W 9830   6.408   3.412   3.830
41413W        W 9831  33.942  36.472   4.167
41414W        W 9832  16.703   4.448   0.436
41415W        W 9833   4.835   8.867   0.334
41416W        W 9834  35.520  40.862  12.080
41417W        W 9835   9.208  42.831  11.386
41418W        W 9836   6.757   2.295   3.787
41419W        W 9837   7.264  36.051  11.569
41420W        W 9838  19.231  42.927   0.800
41421W        W 9839   9.364  23.575   2.368
41422W        W 9840  34.380  39.338   4.118
41423W        W 9841   3.918   3.735  13.921
41424W        W 9842  38.819  28.985   1.694
41425W        W 9843   4.212  30.032  14.500
41426W        W 9844   1.443   9.250   0.777
41427W        W 9845  28.528  13.801  10.528
41428W        W 9846  42.987  12.124  13.514
41429W        W 9847  11.296  39.921  14.356
41430W        W 9848  21.754   6.812  13.795
41431W        W 9849  29.967   9.337   2.347
41432W        W 9850  29.652  24.686   1.215
41433W        W 9851  40.440  25.110  12.024
41434W        W 9852  42.779  27.505  12.014
41435W        W 9853  14.686  19.676   2.717
41436W        W 9854  34.896  36.023  12.046
41437W        W 9855  32.988  19.677   3.826
41438W        W 9856  19.060  42.337   0.275
41439W        W 9857  23.649   2.895   4.252
41440W        W 9858   0.395   5.413  12.503
41441W        W 9859  20.636  13.674   3.832
41442W        W 9860   2.835  28.127  11.563
41443W        W 9861   3.930  42.412  14.815
41444W        W 9862  17.201  14.251   3.762
41445W        W 9863   0.269  24.194   5.282
41446W        W 9864   1.888   9.845   2.337
41447W        W 9865  25.647  38.952  10.115
41448W        W 9866  44.389  37.525   3.767
41449W        W 9867  20.615  41.492   2.417
41450W        W 9868  30.927  17.297  11.084
41451W        W 9869  38.372  23.124  14.830
41452W        W 9870   3.757  28.984  13.361
41453W        W 9871  22.080   5.239   3.841
41454W        W 9872   2.956  32.540  13.427
41455W        W 9873  44.270  38.963  13.430
41456W        W 9874  10.787  22.033   3.739
41457W        W 9875   8.195   5.299  13.944
41458W        W 9876  39.505   7.225  14.439
41459W        W 9877  18.646  22.133   3.368
41460W        W 9878  44.378  16.180  12.496
41461W        W 9879  36.410  26.017  11.454
41462W        W 9880  42.993  33.565   4.647
41463W        W 9881  13.739  14.657  14.387
41464W        W 9882   2.818  13.779  14.022
41465W        W 9883  19.749  27.567   2.818
41466W        W 9884   8.334  40.505   3.307
41467W        W 9885  28.067  17.240  11.430
41468W        W 9886   6.295  24.201   2.785
41469W        W 9887  22.700  22.505   3.214
41470W        W 9888   3.255   4.415  14.954
41471W        W 9889  14.145  15.722  10.476
41472W        W 9890   7.270  27.139  13.911
41473W        W 9891  42.017  22.591   3.233
41474W        W 9892  40.889  14.621   0.865
41475W        W 9893  10.828  18.254   4.266
41476W        W 9894   0.313  33.051   0.298
41477W        W 9895  26.136   5.209  13.310
41478W        W 9896   7.789  22.544  10.888
41479W        W 9897  16.135  27.096   4.259
41480W        W 9898   9.868  42.391   1.898
41481W        W 9899   1.282  36.004   0.291
41482W        W 9900  30.985   5.798   0.883
41483W        W 9901   6.690  42.287  11.388
41484W        W 9902  36.041  36.498  10.080
41485W        W 9903  24.027  21.045  10.405
41486W        W 9904   2.879  40.021   0.360
41487W        W 9905  10.357  35.868  12.349
41488W        W 9906   2.851  17.174  10.514
41489W        W 9907  10.655  20.601  11.933
41490W        W 9908  22.164  18.632   2.849
41491W        W 9909  42.893  15.221   2.733
41492W        W 9910  27.519  10.711   1.926
41493W        W 9911  22.166   5.430  11.557
41494W        W 9912  26.121  15.097  13.405
41495W        W 9913   0.407  36.525   0.733
41496W        W 9914  33.894  20.683  14.390
41497W        W 9915   8.324  36.432   4.253
41498W        W 9916  35.089   2.858   2.396
41499W        W 9917   0.958  25.475   1.303
41500W        W 9918   5.429  22.008   0.831
41501W        W 9919  17.158   6.348   2.838
41502W        W 9920  26.536  38.395   0.348
41503W        W 9921  43.353   1.791   5.187
41504W        W 9922  30.164  44.772  12.065
41505W        W 9923  37.957  40.826   0.450
41506W        W 9924  22.253  13.770   2.233
41507W        W 9925  21.690  16.699   4.754
41508W        W 9926  32.488   0.932   0.915
41509W        W 9927  22.180  18.197  14.284
41510W        W 9928   4.275  28.498   2.820
41511W        W 9929  40.904  11.363   4.641
41512W        W 9930  34.426  37.995  10.487
41513W        W 9931  22.541  38.979   0.244
41514W        W 9932  44.421   9.832   3.363
41515W        W 9933  40.968  43.459   0.802
41516W        W 9934  13.721  23.699   3.686
41517W        W 9935  18.211   8.716   4.230
41518W        W 9936   4.204  23.027  12.514
41519W        W 9937  35.957  22.175   3.319
41520W        W 9938  15.795  38.017  14.760
41521W        W 9939   0.851   1.852  12.414
41522W        W 9940  19.232  37.965  10.594
41523W        W 9941   9.759  12.623  13.792
41524W        W 9942  29.105  39.947  12.831
41525W        W 9943  41.424  23.057  11.071
41526W        W 9944  27.045  40.372   2.415
41527W        W 9945  15.760   0.294  12.378
41528W        W 9946  13.299   5.434   1.777
41529W        W 9947  43.838  36.533  14.323
41530W        W 9948  21.515   7.672  13.313
41531W        W 9949  34.382   4.286   3.695
41532W        W 9950  35.447   1.835  13.358
41533W        W 9951  22.507  27.036  13.441
41534W        W 9952   4.226  11.341   4.254
41535W        W 9953   4.833  32.423   1.313
41536W        W 9954  42.358  36.551  11.523
41537W        W 9955   1.379  36.022   0.884
41538W        W 9956  31.499  43.996   4.748
41539W        W 9957   2.344  15.157  12.993
41540W        W 9958  30.090  15.697  11.072
41541W        W 9959  11.295  41.369  14.465
41542W        W 9960  44.755  22.246  11.057
41543W        W 9961  15.247   1.925  10.898
41544W        W 9962   3.759  14.324  13.959
41545W        W 9963  17.748   7.901  14.277
41546W        W 9964   8.866   4.354  14.015
41547W        W 9965  25.640   6.820  14.794
41548W        W 9966  36.911   4.309  11.039
41549W        W 9967  30.629  23.543   1.923
41550W        W 9968  30.659   4.341  10.922
41551W        W 9969  24.130  35.036  12.941
41552W        W 9970   2.913   5.401   3.826
41553W        W 9971  35.459  27.621  12.015
41554W        W 9972  28.465  40.043   3.296
41555W        W 9973   4.740  15.578  14.914
41556W        W 9974   9.227  26.558   0.868
41557W        W 9975   3.274  34.036   2.860
41558W        W 9976  31.643  18.286   3.648
41559W        W 9977  23.992  31.118  10.933
41560W        W 9978   6.815  29.969   4.200
41561W        W 9979  43.486  26.664  13.397
41562W        W 9980   7.829   7.901  14.516
41563W        W 9981  44.291  33.473   3.245
41564W        W 9982  13.120  28.019  10.911
41565W        W 9983   1.290  23.617  12.948
41566W        W 9984  42.965  44.792   0.957
41567W        W 9985  34.396  22.119  13.807
41568W        W 9986   2.769  19.254  11.567
41569W        W 9987   4.919  14.262  13.884
41570W        W 9988  33.012  19.745  10.486
41571W        W 9989  32.565  15.102   1.316
41572W        W 9990  42.323   9.652   0.430
41573W        W 9991  19.774  13.667  11.591
41574W        W 9992  10.208  13.167   2.369
41575W        W 9993   5.860  41.294   0.266
41576W        W 9994  34.443  21.686  10.620
41577W        W 9995   1.873  26.699   4.700
41578W        W 9996  39.451  40.973  11.518
41579W        W 9997  18.617  34.054   4.354
41580W        W 9998  37.553  11.287  11.425
41581W        W 9999  34.889  18.604   1.803
41582W        W10000  38.378   2.455  10.518
41583W        W10001  43.791  43.961  11.602
41584W        W10002  26.095   2.780   1.704
41585W        W10003  15.654  43.419   0.316
41586W        W10004  34.889  16.652   1.747
41587W        W10005  29.163  44.908   4.711
41588W        W10006  19.104   1.328  13.472
41589W        W10007  11.691  17.618  12.340
41590W        W10008  13.249   3.417   3.813
41591W        W10009  19.617   5.774   1.773
41592W        W10010  36.927  38.398   3.800
41593W        W10011  27.990  44.851  11.450
41594W        W10012  34.562  25.019  13.957
41595W        W10013  12.239  31.606  10.975
41596W        W10014  17.071  36.588   4.730
41597W        W10015   2.248  40.876   2.352
41598W        W10016   6.333   2.871   0.768
41599W        W10017  18.606   2.731  11.601
41600W        W10018   3.222  29.144   2.294
41601W        W10019   4.268  44.287  14.426
41602W        W10020  16.155  34.437   0.758
41603W        W10021   1.850  15.311   4.175
41604W        W10022  15.806   9.745   4.225
41605W        W10023  16.251  32.053  13.873
41606W        W10024  15.242  14.162   3.789
41607W        W10025   4.876  34.996   0.801
41608W        W10026  37.984  23.600  12.441
41609W        W10027  41.329  34.563   3.728
41610W        W10028  31.145  30.620   3.203
41611W        W10029  17.763  25.665   4.335
41612W        W10030   6.328  29.004  12.049
41613W        W10031  19.573  25.634   5.147
41614W        W10032   3.266  21.138   9.515
41615W        W10033  39.406  28.931  10.534
41616W        W10034   7.849   6.860   3.849
41617W        W10035  34.104  13.815   4.734
41618W        W10036   0.809  25.698   2.662
41619W        W10037  37.482  44.927  11.032
41620W        W10038  24.646  39.816   5.222
41621W        W10039  10.270  14.171  12.022
41622W        W10040   1.446  16.766  10.457
41623W        W10041  42.335  25.181  11.053
41624W        W10042  35.869   2.369  13.795
41625W        W10043   2.462  34.527  14.342
41626W        W10044  30.045  20.720  12.408
41627W        W10045  10.727  25.536  14.931
41628W        W10046  14.795  29.600  10.575
41629W        W10047  13.118   4.860  12.553
41630W        W10048  44.418  39.450  13.820
41631W        W10049  42.316   5.230  12.867
41632W        W10050   3.802  41.321  10.128
41633W        W10051  43.424  40.350   0.727
41634W        W10052  15.095   3.917   2.669
41635W        W10053  17.142  21.575   3.834
41636W        W10054   0.840   4.906   2.292
41637W        W10055  35.482  34.554  13.993
41638W        W10056   8.288  25.536   0.921
41639W        W10057  31.554  16.762  14.809
41640W        W10058  22.213  13.730  14.824
41641W        W10059  43.819  11.251   4.261
41642W        W10060  28.993   9.302  12.965
41643W        W10061  43.872  36.005  11.490
41644W        W10062  33.071  30.611   4.300
41645W        W10063  43.848   9.859   2.710
41646W        W10064  21.128  22.079   2.229
41647W        W10065  38.997  32.915   2.295
41648W        W10066   9.322  37.461   1.834
41649W        W10067  22.192  12.692   1.838
41650W        W10068   3.897  11.185   0.764
41651W        W10069  38.391  29.468  11.949
41652W        W10070  18.642  26.457   5.199
41653W        W10071  24.158  23.170   1.745
41654W        W10072  26.533  20.677  14.869
41655W        W10073  38.075  10.695  11.116
41656W        W10074  39.344  18.203   1.370
41657W        W10075   5.889   2.356  14.932
41658W        W10076  26.682   3.827   0.771
41659W        W10077   5.755  22.090   2.232
41660W        W10078  22.606  41.515  11.073
41661W        W10079  33.940  23.589   2.210
41662W        W10080  23.522  41.802  13.792
41663W        W10081  28.082  37.532  12.912
41664W        W10082  34.059  34.001  10.576
41665W        W10083  15.594   4.772  11.984
41666W        W10084  16.605  39.373   1.751
41667W        W10085  28.976   9.728  11.492
41668W        W10086  23.039  38.442   3.384
41669W        W10087  27.103  42.798   2.324
41670W        W10088  28.074  43.448   2.753
41671W        W10089  44.909  16.663   3.870
41672W        W10090  24.150   0.456   0.262
41673W        W10091  30.070  17.099  11.397
41674W        W10092  17.699  36.581  11.444
41675W        W10093  11.329   3.388  12.879
41676W        W10094  18.668  43.992   1.262
41677W        W10095  18.544  27.519  13.024
41678W        W10096   3.233  33.562  10.619
41679W        W10097  41.409  25.159  12.829
41680W        W10098   8.262   5.823   4.836
41681W        W10099   1.297   0.932   0.359
41682W        W10100  28.970  28.666   1.869
41683W        W10101  28.139  29.062   0.868
41684W        W10102  32.068  35.423  11.024
41685W        W10103   9.338  37.846  13.914
41686W        W10104  35.534  24.649  11.880
41687W        W10105   7.734   8.400  12.853
41688W        W10106  24.636  38.423  12.522
41689W        W10107  31.544  37.382  11.107
41690W        W10108  40.832  30.476   2.841
41691W        W10109  37.883   5.209   0.828
41692W        W10110  32.611  43.504  10.910
41693W        W10111   0.352   1.372   2.843
41694W        W10112  42.904  31.595  14.496
41695W        W10113  44.463  17.295   0.316
41696W        W10114  40.932  29.662   0.873
41697W        W10115  38.026   1.439  12.568
41698W        W10116  24.977  43.878  14.030
41699W        W10117   4.300  32.886   0.370
41700W        W10118   8.688  42.885   3.639
41701W        W10119  25.650   9.245  14.006
41702W        W10120  33.019  13.114  11.499
41703W        W10121  30.414  44.350  12.067
41704W        W10122  28.068  19.047  10.898
41705W        W10123   3.401  30.584   1.310
41706W        W10124  23.200  28.677   1.435
41707W        W10125  29.945  11.805   4.263
41708W        W10126  42.902  31.523  13.481
41709W        W10127  11.819  39.961   4.657
41710W        W10128  15.751  25.490   4.119
41711W        W10129   0.859  24.092  13.422
41712W        W10130  22.719  12.209  12.356
41713W        W10131  22.514  14.600  14.021
41714W        W10132  43.963  29.557   4.731
41715W        W10133  14.203  30.131  14.502
41716W        W10134  32.503  29.132   0.779
41717W        W10135  10.291  19.704  10.089
41718W        W10136   5.906   3.250  14.412
41719W        W10137  38.067  32.036   5.214
41720W        W10138  28.449  16.101   0.937
41721W        W10139  10.800  35.447  10.905
41722W        W10140  22.688  23.179   0.305
41723W        W10141  28.988   5.337  10.639
41724W        W10142  27.460  26.208   3.255
41725W        W10143  26.169  34.863   4.241
41726W        W10144  31.508  16.230   2.858
41727W        W10145   0.251  25.477  12.428
41728W        W10146   7.829  15.147   3.288
41729W        W10147   0.269  29.133  10.414
41730W        W10148   3.885  38.457   4.774
41731W        W10149   4.806  15.669   1.247
41732W        W10150  39.343  11.315  10.628
41733W        W10151  30.977  26.172  13.818
41734W        W10152  31.072  38.957   2.718
41735W        W10153  28.456  44.267  11.061
41736W        W10154  17.691  35.957   4.149
41737W        W10155  38.950  17.723  13.803
41738W        W10156  28.043  43.835  10.467
41739W        W10157  23.177  19.264   2.811
41740W        W10158  17.201  29.645   3.832
41741W        W10159  30.502   6.782  11.874
41742W        W10160  43.490  35.935   0.261
41743W        W10161  22.225  33.914  14.490
41744W        W10162  19.115  20.208   1.753
41745W        W10163  37.521  38.858  10.948
41746W        W10164  44.994  10.304   0.851
41747W        W10165  35.599  15.261  10.570
41748W        W10166  15.290  37.067   3.742
41749W        W10167  33.578  40.527   3.731
41750W        W10168  11.857  13.612  11.103
41751W        W10169  27.045  40.352   0.285
41752W        W10170  12.701   5.362   3.828
41753W        W10171  37.517   1.745  10.504
41754W        W10172  35.456  28.120  14.933
41755W        W10173  20.090  22.096  11.960
41756W        W10174  21.040  32.478  11.865
41757W        W10175  40.973  37.869   0.276
41758W        W10176  13.641  15.784   1.388
41759W        W10177  25.633  37.571   3.365
41760W        W10178   3.389  25.085   9.990
41761W        W10179   1.421  12.842  10.559
41762W        W10180  33.933  13.668  10.959
41763W        W10181  16.201  28.656   4.164
41764W        W10182   5.713  23.720   3.669
41765W        W10183  42.317  16.299  10.936
41766W        W10184  24.134  31.025   4.796
41767W        W10185  25.022  36.405  13.508
41768W        W10186   7.188  23.074   2.776
41769W        W10187  11.770  19.593  13.864
41770W        W10188  34.400  27.041   3.319
41771W        W10189   0.746  37.351  14.382
41772W        W10190  23.541  36.541  12.861
41773W        W10191  28.551  37.461  14.915
41774W        W10192   4.904   5.263   4.125
41775W        W10193  22.204  41.022  14.322
41776W        W10194  28.547  31.057  10.893
41777W        W10195  38.965   1.794   0.794
41778W        W10196   1.852  22.136   3.715
41779W        W10197   2.834   8.236   2.813
41780W        W10198  11.367  38.459   2.208
41781W        W10199  36.067  22.646   4.837
41782W        W10200  30.133  36.070   0.436
41783W        W10201   7.316  13.221   1.839
41784W        W10202  43.010   2.341   0.364
41785W        W10203  33.416  44.308  13.996
41786W        W10204  39.550  15.197  14.996
41787W        W10205   6.393  20.253   2.407
41788W        W10206  29.127  27.611   2.800
41789W        W10207   1.294  29.128   4.790
41790W        W10208   8.323   9.801  13.360
41791W        W10209  21.203  11.861   4.166
41792W        W10210  32.954  29.101   1.240
41793W        W10211  17.611   3.948   4.302
41794W        W10212  42.492  20.212   3.671
41795W        W10213  18.128  44.793  11.414
41796W        W10214   4.840  39.858  14.291
41797W        W10215  44.863  19.273   1.276
41798W        W10216  41.395   6.244  11.455
41799W        W10217  29.496   1.361  14.341
41800W        W10218  10.201  25.497   0.428
41801W        W10219  10.286  40.538   0.308
41802W        W10220  37.355  27.074   1.416
41803W        W10221  28.060  26.516  12.850
41804W        W10222  41.044  17.267  12.438
41805W        W10223  23.018  26.510  13.436
41806W        W10224  24.066  19.155  13.029
41807W        W10225  16.566  21.632   4.613
41808W        W10226  43.493   8.214  10.490
41809W        W10227  37.487   4.698  10.455
41810W        W10228  40.825  33.485   2.244
41811W        W10229  36.466  25.668  11.082
41812W        W10230  42.300  14.619   3.241
41813W        W10231  38.548  27.569   1.804
41814W        W10232  29.163  27.060  13.993
41815W        W10233  32.607  38.833  14.308
41816W        W10234  35.577  27.452   2.306
41817W        W10235  26.195   4.850  14.028
41818W        W10236  34.556  12.290  13.451
41819W        W10237  30.415   0.427  13.860
41820W        W10238  43.415  18.073  12.918
41821W        W10239   6.756  28.477  11.511
41822W        W10240  42.962   5.401   4.780
41823W        W10241   9.316  27.112   2.774
41824W        W10242  17.557  35.387   3.370
41825W        W10243  28.636  22.103   3.293
41826W        W10244  13.649  26.466  12.861
41827W        W10245  14.775  17.693  12.370
41828W        W10246  40.027  15.133   4.612
41829W        W10247  26.107   2.452   4.764
41830W        W10248  22.135  44.828   2.365
41831W        W10249  44.279  43.382   3.676
41832W        W10250  17.083  16.791  13.859
41833W        W10251  18.747  36.870  11.603
41834W        W10252   6.714  34.470  11.931
41835W        W10253  28.539  32.980   3.754
41836W        W10254  39.856   8.219  10.633
41837W        W10255  18.596   9.853  12.887
41838W        W10256  12.673  23.630  12.533
41839W        W10257  30.423  33.588   0.765
41840W        W10258   0.276  44.345  14.898
41841W        W10259  42.421   4.937  12.572
41842W        W10260   2.430   2.816  12.547
41843W        W10261  38.045  18.679   2.767
41844W        W10262  42.291  29.941  13.384
41845W        W10263  44.977  25.538   3.160
41846W        W10264  27.092  44.447   4.707
41847W        W10265  15.712  16.681   4.290
41848W        W10266  42.964  20.241   3.789
41849W        W10267  43.437   0.786  14.940
41850W        W10268  36.074  31.027   0.745
41851W        W10269  33.596   9.714   4.706
41852W        W10270  12.189  20.193   4.642
41853W        W10271   5.388   0.755   4.639
41854W        W10272  19.111   3.909   0.414
41855W        W10273  11.254  43.840   4.241
41856W        W10274   7.801  26.181  14.455
41857W        W10275  36.351  34.506  11.400
41858W        W10276  40.549  40.304   9.983
41859W        W10277  26.012  21.025  11.068
41860W        W10278  25.147  44.315   4.263
41861W        W10279   9.825  17.753  14.490
41862W        W10280  37.414  10.841  12.464
41863W        W10281  25.671  34.026   2.689
41864W        W10282  15.660  14.692  14.781
41865W        W10283  34.956  29.963  14.893
41866W        W10284   4.818  14.721  12.952
41867W        W10285   6.240  37.844   2.766
41868W        W10286  37.946  13.315  11.590
41869W        W10287  21.538  35.982  10.983
41870W        W10288   4.725  40.375  13.850
41871W        W10289  21.151   6.293  11.986
41872W        W10290   8.710  16.739  12.862
41873W        W10291  36.045   0.330  13.548
41874W        W10292   4.870  17.189  11.900
41875W        W10293  17.152  36.523   3.222
41876W        W10294  29.560  18.055   1.858
41877W        W10295  41.010   9.643   1.806
41878W        W10296  15.257  17.657   3.169
41879W        W10297  28.520  32.943  14.989
41880W        W10298  44.505  33.450   1.893
41881W        W10299  22.235  22.195  10.928
41882W        W10300  17.151  12.626   4.237
41883W        W10301  31.904  12.782  13.944
41884W        W10302  27.618  26.663  10.125
41885W        W10303  10.187  42.338   0.398
41886W        W10304  12.353   7.211  11.532
41887W        W10305  40.028  40.352   4.685
41888W        W10306  30.102  12.292   4.270
41889W        W10307  16.097  30.986   3.349
41890W        W10308  37.979  27.144  10.643
41891W        W10309  11.742  21.221   0.266
41892W        W10310   0.480  16.658  10.601
41893W        W10311   0.481  20.239  14.300
41894W        W10312   9.706   8.712  13.465
41895W        W10313  28.012  15.778   4.623
41896W        W10314  25.556  19.208  14.336
41897W        W10315  28.615   4.234   0.358
41898W        W10316  38.985  21.243  12.525
41899W        W10317  26.077  24.185  14.794
41900W        W10318   8.273  12.137  12.463
41901W        W10319   5.903   8.222   4.222
41902W        W10320  41.428   7.367   1.880
41903W        W10321  30.555   1.936  14.760
41904W        W10322  11.163  14.127   4.279
41905W        W10323  35.944  41.832  13.023
41906W        W10324  14.232   0.823   4.342
41907W        W10325  30.996  36.998  14.405
41908W        W10326  17.132   7.758  12.993
41909W        W10327  39.012   7.184   3.736
41910W        W10328  16.197  41.812  11.096
41911W        W10329  13.300   5.709  14.513
41912W        W10330  24.572  43.284  12.902
41913W        W10331  27.535   7.691  11.905
41914W        W10332  29.424   7.848   9.443
41915W        W10333  27.141   6.713  12.914
41916W        W10334  20.093  21.697   4.702
41917W        W10335   3.280  13.811   4.725
41918W        W10336  17.199  23.712  13.835
41919W        W10337  18.565  42.364   0.308
41920W        W10338  22.106  11.665   2.818
41921W        W10339  31.096  42.002   4.140
41922W        W10340  16.106  14.189  14.969
41923W        W10341  26.107   8.675   2.418
41924W        W10342  28.055  37.058  10.587
41925W        W10343  14.210   3.815  10.891
41926W        W10344  13.726  31.572  11.431
41927W        W10345  31.629  11.303  10.432
41928W        W10346  15.758  14.212  11.486
41929W        W10347  25.072  25.489  14.471
41930W        W10348  18.739  16.119  10.532
41931W        W10349   1.882  38.537  14.974
41932W        W10350  36.456   0.884   3.200
41933W        W10351  29.162  36.059  12.012
41934W        W10352  30.035  32.117   3.245
41935W        W10353   2.946  42.526  14.471
41936W        W10354  34.874  33.583  14.279
41937W        W10355  24.703  39.986  10.106
41938W        W10356  24.652  25.569  13.910
41939W        W10357  27.671   2.741  12.511
41940W        W10358  10.665   7.381  14.004
41941W        W10359  14.304  20.579  11.472
41942W        W10360  17.706  16.600  13.064
41943W        W10361  37.387  44.812   1.286
41944W        W10362   3.836  34.593  11.956
41945W        W10363  44.373   5.821   0.798
41946W        W10364   7.792  23.550  12.876
41947W        W10365  34.527   7.280   3.808
41948W        W10366   5.865  25.172  14.828
41949W        W10367   4.450  32.102   0.900
41950W        W10368  25.145  44.403   2.276
41951W        W10369  13.665  34.921  14.836
41952W        W10370   4.214  43.831   1.834
41953W        W10371  32.056   9.817  12.900
41954W        W10372  37.849  21.057   4.215
41955W        W10373  29.473   2.830   3.773
41956W        W10374  12.797  17.194  11.890
41957W        W10375  23.574   4.354  12.841
41958W        W10376  35.008  25.650   1.266
41959W        W10377  40.433  19.780   0.958
41960W        W10378  12.127  16.767  11.034
41961W        W10379  10.174  14.156   4.149
41962W        W10380  39.810  30.491  13.842
41963W        W10381  24.544  32.423  14.408
41964W        W10382  27.950  35.016   3.726
41965W        W10383  10.832  21.705   4.135
41966W        W10384  35.961  38.922   4.838
41967W        W10385  26.974  16.297   0.350
41968W        W10386  22.194   5.393  14.457
41969W        W10387  37.438  40.862   2.239
41970W        W10388  43.298  27.092  13.805
41971W        W10389   7.379  25.597  11.076
41972W        W10390  34.601  37.385   3.299
41973W        W10391  12.725  11.792   2.770
41974W        W10392  31.571   0.481   1.852
41975W        W10393  15.795  32.971   3.230
41976W        W10394  31.059  36.422  11.537
41977W        W10395  17.578   6.255   0.863
41978W        W10396  32.921  29.589  12.922
41979W        W10397  43.425  14.339   3.767
41980W        W10398  21.143  43.815   5.289
41981W        W10399  29.018  16.112   0.911
41982W        W10400  41.953  36.479   4.211
41983W        W10401   9.355  12.701   1.722
41984W        W10402  23.603   8.781   3.360
41985W        W10403  44.891   2.830   3.310
41986W        W10404  37.552  22.224  14.004
41987W        W10405   9.674  32.078   1.914
41988W        W10406  18.251  34.932   1.212
41989W        W10407  33.941  35.903  13.033
41990W        W10408  28.500  41.302   1.847
41991W        W10409  29.577  39.011   1.730
41992W        W10410  44.436   9.683  10.922
41993W        W10411  18.772  34.398   3.847
41994W        W10412   9.841   9.643  12.408
41995W        W10413  44.333  22.629   2.378
41996W        W10414  17.193  33.097  10.933
41997W        W10415  17.799  33.878  13.871
41998W        W10416  23.991  32.104   2.808
41999W        W10417  33.988  18.285   0.457
42000W        W10418  25.162   1.894   2.703
42001W        W10419   1.862  38.399  14.428
42002W        W10420  32.051   9.164   0.903
42003W        W10421  17.745  21.044   4.124
42004W        W10422  37.049  39.524   0.924
42005W        W10423  12.160  16.617  13.038
42006W        W10424  22.524  34.026   3.667
42007W        W10425  28.022   1.748   1.708
42008W        W10426  16.660  27.577   4.193
42009W        W10427   3.759  35.098  12.923
42010W        W10428  32.415  20.718  11.991
42011W        W10429   3.307  14.254   3.748
42012W        W10430   1.370  41.365   0.287
42013W        W10431  20.267  40.861  12.045
42014W        W10432  32.998  36.497  14.937
42015W        W10433  29.434  39.841  11.422
42016W        W10434  10.248  19.644   0.315
42017W        W10435  21.173  36.962  11.906
42018W        W10436   4.281  14.102  11.871
42019W        W10437  21.243  38.004  14.759
42020W        W10438   0.369  11.245  12.858
42021W        W10439   6.413  25.138   0.346
42022W        W10440  24.601   6.404   2.697
42023W        W10441   5.831  31.990   2.214
42024W        W10442   5.701  37.538   3.671
42025W        W10443  33.537  22.207  10.093
42026W        W10444  24.077  32.559  11.943
42027W        W10445  39.498  27.015  13.863
42028W        W10446  20.226   9.168   1.805
42029W        W10447   6.850  43.396   1.757
42030W        W10448  23.588  17.219   3.710
42031W        W10449  40.908  16.716   3.754
42032W        W10450  40.018  18.227  11.918
42033W        W10451   5.891   0.758  14.911
42034W        W10452  44.352  44.331  14.771
42035W        W10453   7.822   0.766  11.929
42036W        W10454  26.070  33.380   1.703
42037W        W10455   0.447  33.468   2.843
42038W        W10456   1.390  31.984  14.811
42039W        W10457   0.980  19.576   1.727
42040W        W10458  23.563  12.136  12.074
42041W        W10459  37.577  36.015   1.412
42042W        W10460  10.269  15.663  14.979
42043W        W10461   9.183   9.302   1.784
42044W        W10462  35.450  35.446  14.321
42045W        W10463  15.613  21.572  11.405
42046W        W10464  10.856  33.106  13.936
42047W        W10465   0.475   2.343   1.707
42048W        W10466  37.549  16.743   4.239
42049W        W10467  34.996  24.621  11.923
42050W        W10468   2.432   1.320   0.733
42051W        W10469  35.407   6.406  11.104
42052W        W10470   2.880   4.237   3.645
42053W        W10471   0.877  14.602  12.000
42054W        W10472  26.604   8.222   3.254
42055W        W10473  28.940  27.009  13.536
42056W        W10474  22.611  14.830   0.869
42057W        W10475   1.913  14.598   3.288
42058W        W10476  41.972  40.877  10.607
42059W        W10477  44.958  16.096  12.850
42060W        W10478  12.175  26.592  12.872
42061W        W10479  43.484  16.261  13.347
42062W        W10480  32.493   4.913   0.291
42063W        W10481  13.247  30.073  12.451
42064W        W10482  20.661   1.844   0.452
42065W        W10483  43.433  11.251   3.760
42066W        W10484   6.249   8.666  10.644
42067W        W10485  24.544  44.826   0.265
42068W        W10486  38.999   3.351   4.241
42069W        W10487  43.318  31.406  11.051
42070W        W10488  37.496  40.918  11.989
42071W        W10489  39.009  43.320   3.636
42072W        W10490  44.954  22.108   5.718
42073W        W10491  41.024   4.415  13.007
42074W        W10492  22.693  41.418   4.708
42075W        W10493  15.314  41.291   2.272
42076W        W10494  41.414  15.707   1.287
42077W        W10495  14.668  22.723   3.704
42078W        W10496  12.735  41.385   1.341
42079W        W10497  35.896  41.941   4.745
42080W        W10498  26.192  40.801  10.492
42081W        W10499  15.666  27.471   3.181
42082W        W10500  40.398  19.542   1.303
42083W        W10501  11.364  21.663   3.740
42084W        W10502  19.634  14.613   4.658
42085W        W10503  19.634   1.367   4.658
42086W        W10504  26.665  33.466  11.536
42087W        W10505  24.699  27.489   2.238
42088W        W10506  21.077  37.975  12.909
42089W        W10507  11.183   9.376   0.287
42090W        W10508  31.598  12.739  11.578
42091W        W10509  19.091  18.105  14.374
42092W        W10510  26.508   7.682  14.760
42093W        W10511  16.685  15.282  10.532
42094W        W10512  30.581  14.758  12.390
42095W        W10513  41.532  13.331   4.807
42096W        W10514  11.806  10.852  10.642
42097W        W10515  29.996  29.979   2.772
42098W        W10516   2.416  40.451  11.863
42099W        W10517  10.809  10.200  14.817
42100W        W10518  21.102  19.722   4.765
42101W        W10519  15.110   9.210   4.339
42102W        W10520  20.637  13.720  14.954
42103W        W10521  42.392  37.559  10.985
42104W        W10522  43.399   5.908   9.928
42105W        W10523  40.403  28.156  14.760
42106W        W10524  11.819  11.303   1.771
42107W        W10525  25.207  31.118   0.267
42108W        W10526  26.675  41.473  11.099
42109W        W10527   7.800   4.723  10.017
42110W        W10528  34.430  21.067  14.823
42111W        W10529   9.367  25.470  12.539
42112W        W10530  44.399  31.020   2.358
42113W        W10531   4.820  16.258   0.829
42114W        W10532  42.798   4.752   1.291
42115W        W10533  22.720  13.690   0.839
42116W        W10534   6.421  36.549  11.939
42117W        W10535  40.972  40.892   2.382
42118W        W10536  26.680  19.692  13.819
42119W        W10537   2.891  40.862   4.680
42120W        W10538  30.629  25.217   1.752
42121W        W10539   3.809  12.337  12.551
42122W        W10540  44.384   5.385   3.352
42123W        W10541  39.879   7.196   1.933
42124W        W10542  41.819  31.908  12.088
42125W        W10543  44.394  37.916   4.339
42126W        W10544   1.898  35.598   1.776
42127W        W10545  13.726   7.358   4.271
42128W        W10546  31.465  39.505  12.080
42129W        W10547   1.421  43.284  13.013
42130W        W10548  31.644  34.955   1.883
42131W        W10549  34.591  37.936   1.218
42132W        W10550   1.834   6.370  12.512
42133W        W10551  37.455  31.994  14.913
42134W        W10552  10.792   4.733   1.263
42135W        W10553  23.725  28.002   1.270
42136W        W10554   2.898  33.504  14.817
42137W        W10555  24.485   6.234   1.376
42138W        W10556  17.303  38.333   0.427
42139W        W10557  17.178  22.620   0.431
42140W        W10558  33.012  29.494  13.850
42141W        W10559  40.500   8.252  12.086
42142W        W10560  31.462   4.381  11.031
42143W        W10561   9.749  18.065   0.408
42144W        W10562  30.493  33.613   0.309
42145W        W10563  17.177  21.134  10.531
42146W        W10564  38.498   3.225   4.131
42147W        W10565  38.401  27.652   0.756
42148W        W10566  43.883  37.528  11.376
42149W        W10567   4.840  44.335   1.789
42150W        W10568   1.237   3.724   3.842
42151W        W10569  28.497  32.942  13.915
42152W        W10570  40.348   5.737   1.267
42153W        W10571  41.801  37.940  10.492
42154W        W10572  28.508  19.160  11.976
42155W        W10573  25.996   9.685   3.728
42156W        W10574  34.587  11.788  12.006
42157W        W10575  12.849  31.915  12.994
42158W        W10576   6.684  27.173  12.517
42159W        W10577  24.221  35.094  14.409
42160W        W10578   6.890   1.333  13.040
42161W        W10579   2.844  17.148  12.954
42162W        W10580   2.808  43.017  11.581
42163W        W10581  11.360  34.023   3.324
42164W        W10582  36.571   3.431   0.270
42165W        W10583  16.161  24.638  14.957
42166W        W10584  29.010  14.236  11.076
42167W        W10585  10.824   4.789   1.875
42168W        W10586  44.892  39.476   2.407
42169W        W10587  39.044  19.533   4.715
42170W        W10588  39.397  11.787   0.463
42171W        W10589  33.019  31.971   4.643
42172W        W10590  38.527  43.378  14.764
42173W        W10591  34.436   4.851   0.338
42174W        W10592  12.628  26.657  14.954
42175W        W10593  36.933  31.058   4.788
42176W        W10594  22.240  36.369   4.120
42177W        W10595   0.750  40.008   3.718
42178W        W10596  13.649  29.000   2.899
42179W        W10597  10.727  39.046  13.954
42180W        W10598   2.816   7.888   2.884
42181W        W10599  29.944  32.573  14.509
42182W        W10600  28.558   7.837  14.287
42183W        W10601  27.152  24.201   0.413
42184W        W10602  24.186  28.135  13.870
42185W        W10603  10.848  39.350  12.422
42186W        W10604  42.852  39.434  11.372
42187W        W10605  36.434  23.570   2.882
42188W        W10606  30.527  38.963   1.870
42189W        W10607  33.126  39.419   1.715
42190W        W10608   3.876  24.150   2.902
42191W        W10609   1.885  20.033   1.935
42192W        W10610  38.447  23.624   3.643
42193W        W10611  11.765   5.412   2.872
42194W        W10612  14.203  16.713  12.416
42195W        W10613  20.147   4.406  13.434
42196W        W10614   6.741  43.443  12.354
42197W        W10615  31.063   2.910  13.444
42198W        W10616  30.950  41.364   3.197
42199W        W10617  42.488  29.944   1.446
42200W        W10618   1.745  10.823   2.780
42201W        W10619   5.361  22.639   0.921
42202W        W10620  43.840   5.389  14.982
42203W        W10621   2.289  41.798  10.432
42204W        W10622  42.460  44.292   2.353
42205W        W10623  26.064  32.065  14.806
42206W        W10624  42.486  12.801  14.834
42207W        W10625  31.530  39.845  14.424
42208W        W10626  44.273  27.566   0.451
42209W        W10627   1.936   4.767   1.792
42210W        W10628  41.891  44.266   3.672
42211W        W10629  22.545  11.252   2.368
42212W        W10630  26.693   7.323   5.796
42213W        W10631  32.929  43.514  10.538
42214W        W10632  31.617  36.976   0.245
42215W        W10633  34.951  19.200  14.376
42216W        W10634  30.499   3.252   3.767
42217W        W10635   5.427  40.549   4.819
42218W        W10636  25.563  44.304  13.942
42219W        W10637   1.760  29.458   1.720
42220W        W10638  21.577  31.520  14.492
42221W        W10639  15.800   9.757  11.901
42222W        W10640  18.683  28.063  11.424
42223W        W10641  23.600  42.832  12.571
42224W        W10642  43.300  34.094   3.267
42225W        W10643  13.670  17.210  12.055
42226W        W10644  37.372  24.555   3.306
42227W        W10645  21.072  22.703  10.424
42228W        W10646  22.510  42.878   0.450
42229W        W10647  36.874   7.339  13.548
42230W        W10648  17.737  43.503   2.800
42231W        W10649  30.615  41.490   1.368
42232W        W10650  34.929   6.231  12.088
42233W        W10651  11.773  12.853  11.426
42234W        W10652  19.708  27.044  10.578
42235W        W10653  32.101   4.412   3.314
42236W        W10654   5.277   0.898   1.781
42237W        W10655  41.854  24.980   1.884
42238W        W10656  18.054  16.766  13.872
42239W        W10657   1.390   2.848  13.804
42240W        W10658  20.579  39.354  12.527
42241W        W10659   4.399  42.430  12.549
42242W        W10660  28.588  18.220  10.904
42243W        W10661   3.307  33.463   1.371
42244W        W10662  42.300  10.826  13.876
42245W        W10663   2.438   0.840   4.744
42246W        W10664  34.423  28.003  10.956
42247W        W10665  36.956  32.084   4.753
42248W        W10666  21.526  36.070   0.328
42249W        W10667  30.146   8.663   0.475
42250W        W10668  11.280  13.121  14.409
42251W        W10669   9.269  34.597  12.466
42252W        W10670  27.663  25.531   4.304
42253W        W10671  26.539   8.818  10.640
42254W        W10672   6.426  22.690   0.964
42255W        W10673   3.835  11.835   4.658
42256W        W10674  34.971  37.549  11.952
42257W        W10675  42.972  24.584  13.353
42258W        W10676  42.961  20.565  11.497
42259W        W10677   5.354  14.116  13.868
42260W        W10678  22.623  12.354  11.121
42261W        W10679  25.642  10.182  11.938
42262W        W10680  10.678  29.157  10.497
42263W        W10681  16.723   5.856  10.560
42264W        W10682  24.669  25.707   4.158
42265W        W10683  18.775  19.556  12.552
42266W        W10684  41.931  14.615   0.853
42267W        W10685  16.602  12.827  11.119
42268W        W10686  40.445   1.839   0.844
42269W        W10687  13.198  26.661  10.539
42270W        W10688  10.357   8.763   5.264
42271W        W10689  37.975   7.744  13.425
42272W        W10690  25.644  16.631   3.364
42273W        W10691  31.937  43.930  11.115
42274W        W10692  24.005  16.804  13.969
42275W        W10693  30.049  11.202  13.986
42276W        W10694  26.957  39.332   4.132
42277W        W10695  36.066  28.553  12.572
42278W        W10696   5.837  44.485  12.359
42279W        W10697  36.894  30.058  12.945
42280W        W10698  43.929  24.089   4.771
42281W        W10699   1.338  17.103   2.821
42282W        W10700  26.055  30.020  11.608
42283W        W10701  35.966  41.018  11.506
42284W        W10702   0.286   9.823   2.239
42285W        W10703  29.651  27.507   0.327
42286W        W10704  37.000  18.100  13.396
42287W        W10705  33.929  26.141   4.731
42288W        W10706  38.449  17.248   0.751
42289W        W10707  42.996  43.463  12.978
42290W        W10708   6.685  19.642  12.370
42291W        W10709  30.003  15.664  12.358
42292W        W10710  33.076  26.138   3.182
42293W        W10711  20.532  17.693   3.176
42294W        W10712  27.987   1.809   2.224
42295W        W10713  44.916  23.526   4.794
42296W        W10714  15.593  40.803   3.307
42297W        W10715  36.842   1.919   1.437
42298W        W10716  27.103  10.841   1.394
42299W        W10717  16.078   3.752   2.307
42300W        W10718  12.282  14.711   1.255
42301W        W10719  17.103   9.835   4.695
42302W        W10720  12.197  12.357   4.803
42303W        W10721   6.692  28.053   2.683
42304W        W10722   1.750  27.059  13.416
42305W        W10723   9.840  39.842  11.562
42306W        W10724   5.432  39.454  14.849
42307W        W10725  29.660  20.706   4.336
42308W        W10726   6.768   0.420   1.242
42309W        W10727  15.099  21.570  11.563
42310W        W10728  19.227  32.903   3.868
42311W        W10729  42.009  31.554  11.539
42312W        W10730  25.111  27.983   3.201
42313W        W10731  26.520   5.439  10.404
42314W        W10732  24.032  40.318  12.516
42315W        W10733  31.984  34.603  12.085
42316W        W10734  28.494  27.589   0.878
42317W        W10735   6.195  40.847  14.385
42318W        W10736   8.779  32.627  14.329
42319W        W10737  27.071  24.660  12.966
42320W        W10738  26.158  23.707   0.465
42321W        W10739   0.295   1.838  10.416
42322W        W10740  26.179   0.400  13.878
42323W        W10741  20.039  17.119  14.009
42324W        W10742   3.289   5.751  12.511
42325W        W10743  35.908  11.247   2.840
42326W        W10744  37.577  19.586  12.424
42327W        W10745  36.358  25.069   0.758
42328W        W10746  14.696  44.355   4.781
42329W        W10747  42.355  13.695   3.183
42330W        W10748   0.924  41.842   5.282
42331W        W10749  24.985  32.548   1.280
42332W        W10750  41.336  30.571  10.924
42333W        W10751  42.829  12.154   1.435
42334W        W10752  14.752  22.148  13.508
42335W        W10753  34.926   0.295   3.835
42336W        W10754   6.415  33.397  12.029
42337W        W10755  34.585  25.080   5.278
42338W        W10756  12.755   3.858  10.958
42339W        W10757  17.301   8.659  12.017
42340W        W10758   9.829  19.218  12.499
42341W        W10759  37.582  37.540   1.389
42342W        W10760  34.950   3.410   0.432
42343W        W10761  22.231  20.544   2.708
42344W        W10762  35.525  43.875  14.788
42345W        W10763   8.360  34.571   3.364
42346W        W10764   1.834  15.187  13.938
42347W        W10765  14.795  41.292   3.350
42348W        W10766  20.699   3.821  13.427
42349W        W10767  41.476  40.951  12.937
42350W        W10768  17.255  31.111   1.840
42351W        W10769  25.664  40.362  11.599
42352W        W10770  40.047  21.221   0.315
42353W        W10771  18.676  15.140  14.894
42354W        W10772  11.131  34.612  14.382
42355W        W10773  33.493  21.733   1.345
42356W        W10774   6.196  21.675  11.989
42357W        W10775   2.734  10.869  12.016
42358W        W10776  36.071   5.728  13.818
42359W        W10777  36.486  29.076  10.551
42360W        W10778   4.242  11.727   1.886
42361W        W10779  32.991  27.571   3.677
42362W        W10780   1.856  24.091  14.479
42363W        W10781  28.614  19.577  11.523
42364W        W10782   6.252  10.733  11.570
42365W        W10783  21.242  26.469   3.153
42366W        W10784   0.971  44.970  11.026
42367W        W10785  37.545  36.409  10.428
42368W        W10786  15.167  17.252   0.433
42369W        W10787  41.499  43.435   2.307
42370W        W10788  10.317  10.686  14.302
42371W        W10789  19.714  23.539  14.849
42372W        W10790  41.358  40.420   0.929
42373W        W10791  13.116  15.133  10.492
42374W        W10792  36.015   7.814  13.857
42375W        W10793  14.158  31.976   0.468
42376W        W10794  19.231  16.764  13.375
42377W        W10795   7.682  31.515   2.384
42378W        W10796  32.914  19.196  10.998
42379W        W10797  21.146  27.555   1.322
42380W        W10798  34.396   5.832   4.340
42381W        W10799   6.422  34.052   4.798
42382W        W10800  38.878  42.408  13.348
42383W        W10801  18.175   3.737  14.376
42384W        W10802  40.375  36.424  14.439
42385W        W10803  42.315  36.917   4.823
42386W        W10804  35.963  21.532  10.972
42387W        W10805  20.725  36.890   2.238
42388W        W10806   2.778  31.958  12.350
42389W        W10807  30.929   4.364  12.067
42390W        W10808   7.668  14.280   0.333
42391W        W10809   4.350  32.559   4.122
42392W        W10810  34.499  36.532  13.425
42393W        W10811  36.364  35.004   4.256
42394W        W10812  29.094  21.752   0.475
42395W        W10813   0.881  17.688   2.333
42396W        W10814   1.455  25.105  13.539
42397W        W10815  19.754  37.478  14.348
42398W        W10816  33.911  18.675   2.378
42399W        W10817  37.372  26.490  10.905
42400W        W10818  29.164  27.543   3.842
42401W        W10819  21.685  19.742  12.054
42402W        W10820  25.205  40.798   4.298
42403W        W10821  26.576   2.863   3.794
42404W        W10822  27.595  19.691  13.949
42405W        W10823  21.075  10.213  13.922
42406W        W10824   1.731  12.238  10.468
42407W        W10825  37.446   0.836  11.528
42408W        W10826  19.640  13.343  14.968
42409W        W10827   4.303   4.913  10.520
42410W        W10828  13.159  40.978  10.410
42411W        W10829  29.133  16.201  13.430
42412W        W10830  13.801  12.281  14.868
42413W        W10831  35.104  31.121  12.458
42414W        W10832  32.076  35.038  11.042
42415W        W10833  16.137  10.816  11.097
42416W        W10834  43.347   8.206  11.067
42417W        W10835  27.020   6.741  13.548
42418W        W10836   1.830  37.362   0.369
42419W        W10837  30.502  29.097   2.389
42420W        W10838  44.284   0.751  12.486
42421W        W10839  12.801  13.759   0.444
42422W        W10840   3.836  25.190  13.946
42423W        W10841   7.379  11.765   2.251
42424W        W10842  24.643  38.362   1.751
42425W        W10843  18.599  44.474   4.770
42426W        W10844  16.291  26.648   0.412
42427W        W10845   9.647  28.165  12.000
42428W        W10846  13.836   1.291   3.666
42429W        W10847  21.632  28.600  12.043
42430W        W10848   2.288  23.199  14.311
42431W        W10849   6.780   8.332  13.948
42432W        W10850  43.345  39.010   9.536
42433W        W10851  26.065  39.538  10.638
42434W        W10852  39.842   5.421   4.813
42435W        W10853   4.338   4.443  11.539
42436W        W10854  35.992   3.313   0.959
42437W        W10855  17.157  34.059   2.251
42438W        W10856  44.864  14.697  12.052
42439W        W10857  18.618  16.243   1.831
42440W        W10858  37.510  19.680  11.607
42441W        W10859  23.644  19.227   4.772
42442W        W10860  21.038  30.073  10.945
42443W        W10861  24.072  42.817   1.923
42444W        W10862  30.996   3.350   2.234
42445W        W10863  38.975   5.912   4.173
42446W        W10864   9.714  18.073  13.312
42447W        W10865   8.360   4.768   4.780
42448W        W10866  44.908  28.652  14.925
42449W        W10867   7.730   4.740  12.416
42450W        W10868   9.201   4.901   0.273
42451W        W10869  30.648  18.674  14.894
42452W        W10870  42.835  28.668  14.782
42453W        W10871   2.912  37.865  14.914
42454W        W10872  16.132  18.736  13.390
42455W        W10873  32.011   2.816   3.810
42456W        W10874  11.830  30.076  11.121
42457W        W10875   2.289  19.205   1.908
42458W        W10876   9.760   0.323  13.388
42459W        W10877  27.013  25.092  12.532
42460W        W10878  30.123  25.153  11.964
42461W        W10879  19.610  41.889   5.294
42462W        W10880   2.418   0.871  13.908
42463W        W10881  40.460   6.770   3.256
42464W        W10882  11.308   2.849   4.606
42465W        W10883   3.379  31.074   1.417
42466W        W10884  33.044  22.520   0.823
42467W        W10885   3.385  36.400  11.468
42468W        W10886  28.048  19.693   4.694
42469W        W10887  21.634  36.571   4.153
42470W        W10888  16.761  24.070  14.315
42471W        W10889  40.478  17.268   4.175
42472W        W10890   7.737   4.365   0.772
42473W        W10891  31.018   2.233  13.960
42474W        W10892  42.323  35.879  14.782
42475W        W10893  28.182  37.031   3.768
42476W        W10894  13.248  31.571   0.841
42477W        W10895  43.342  40.476  11.864
42478W        W10896   6.912  11.688   3.701
42479W        W10897  18.614  37.038   0.777
42480W        W10898  11.245  16.110  13.404
42481W        W10899  27.071  23.547  13.887
42482W        W10900  37.939  11.647  11.496
42483W        W10901  15.726   1.907  14.868
42484W        W10902   9.328  44.913  14.463
42485W        W10903  13.778  13.825  14.914
42486W        W10904  16.097  21.107  10.602
42487W        W10905   1.354   8.231  14.860
42488W        W10906  18.716  43.402   3.846
42489W        W10907  23.608  40.054   0.306
42490W        W10908  44.493  26.138  14.867
42491W        W10909  30.580  16.617  12.840
42492W        W10910  20.033  41.940   2.321
42493W        W10911  36.873  27.633  10.954
42494W        W10912  24.056  24.092   2.261
42495W        W10913  24.227  33.438  10.951
42496W        W10914   3.816   1.737  12.021
42497W        W10915   6.291  29.530   2.234
42498W        W10916  40.855  18.743  11.940
42499W        W10917   3.365  41.019  13.468
42500W        W10918  20.530  14.748  11.423
42501W        W10919   4.813  31.407  13.018
42502W        W10920  25.133  12.346   3.734
42503W        W10921  34.431  25.586  12.483
42504W        W10922  10.244  38.350   0.739
42505W        W10923   1.239   3.906   0.373
42506W        W10924  12.802  27.590   0.740
42507W        W10925  38.948  13.612   0.824
42508W        W10926   1.430  13.813   4.768
42509W        W10927  22.158  36.935   4.613
42510W        W10928  43.297   7.188  12.960
42511W        W10929  14.232  17.167  12.447
42512W        W10930   0.802  43.866  14.943
42513W        W10931   5.310  36.365  11.473
42514W        W10932  43.955  36.011   3.337
42515W        W10933   3.893  27.060   4.748
42516W        W10934  15.099  43.836  14.370
42517W        W10935  34.574  15.171  14.427
42518W        W10936  43.305   6.288   2.222
42519W        W10937  38.888  11.140  11.989
42520W        W10938   2.961  21.604   0.433
42521W        W10939  10.259  18.125   2.687
42522W        W10940   0.410  32.472  14.402
42523W        W10941  15.223  30.021  10.411
42524W        W10942  37.544  37.455   4.145
42525W        W10943   4.753  19.770  12.372
42526W        W10944  21.161  25.189   3.148
42527W        W10945  39.892   0.923  14.333
42528W        W10946  34.042  34.948  13.887
42529W        W10947  13.314   7.295  10.450
42530W        W10948  13.727  24.551  11.460
42531W        W10949  17.207   2.275   3.804
42532W        W10950  23.180  12.209  12.339
42533W        W10951  11.203  31.065   4.147
42534W        W10952  31.953  22.087   3.158
42535W        W10953  17.284  25.974   3.373
42536W        W10954   8.817  11.804  14.384
42537W        W10955  42.314  35.527  10.562
42538W        W10956  39.827   2.272  13.969
42539W        W10957  42.922  32.085   0.461
42540W        W10958  35.542  39.495  10.142
42541W        W10959  17.685  18.244   0.270
42542W        W10960  30.090  33.537  11.514
42543W        W10961  30.420  25.699   3.233
42544W        W10962  37.958  17.230   1.394
42545W        W10963  43.960   1.927   0.292
42546W        W10964  33.494  31.014   0.410
42547W        W10965  37.913  44.924   4.641
42548W        W10966   5.228  28.936   1.833
42549W        W10967  11.816  40.893  11.112
42550W        W10968  26.063  43.366  12.544
42551W        W10969   3.758  24.512  13.308
42552W        W10970   6.720  43.312   0.806
42553W        W10971  18.266   9.264   3.306
42554W        W10972  26.525  33.383   5.183
42555W        W10973  23.232   8.836   1.771
42556W        W10974  27.690   6.757   2.684
42557W        W10975  33.066  43.355  13.834
42558W        W10976   7.736  23.115  11.949
42559W        W10977  21.669  28.158   1.295
42560W        W10978  18.725  13.728   2.703
42561W        W10979  33.611  34.106  12.372
42562W        W10980  17.630  12.186  12.878
42563W        W10981  22.563  34.495   3.642
42564W        W10982  39.319  34.380   1.440
42565W        W10983  42.842  39.050   3.216
42566W        W10984  19.117  31.988   0.732
42567W        W10985   4.442  31.596  10.525
42568W        W10986   5.286  30.015  14.331
42569W        W10987   3.731  33.971   1.878
42570W        W10988   8.689  43.409  11.543
42571W        W10989  18.743  27.945   0.854
42572W        W10990   4.225  15.110   4.188
42573W        W10991  32.032  33.557  10.640
42574W        W10992  42.514  39.910   0.335
42575W        W10993  36.843  33.034  13.992
42576W        W10994   5.292   3.448  14.885
42577W        W10995   7.691  40.892   1.899
42578W        W10996   9.878  19.561  11.052
42579W        W10997  42.339  25.605   2.333
42580W        W10998  33.124   3.350  12.915
42581W        W10999  38.041   5.435   3.164
42582W        W11000  25.014   6.823  12.529
42583W        W11001   6.342  40.857   0.736
42584W        W11002  42.495   3.713   3.672
42585W        W11003   7.194  24.706   2.879
42586W        W11004  31.032  39.939  12.350
42587W        W11005  17.226   2.938   4.136
42588W        W11006  33.023  36.973  10.962
42589W        W11007  10.764  39.986  14.329
42590W        W11008  33.021  35.478  11.897
42591W        W11009  13.822   0.458  12.040
42592W        W11010  34.019   3.438  15.000
42593W        W11011   5.329  32.963  13.838
42594W        W11012  25.542  31.505   2.362
42595W        W11013   7.788   8.886   1.232
42596W        W11014   6.360  23.523   5.130
42597W        W11015  38.563  25.179  12.914
42598W        W11016  24.218   2.418   2.874
42599W        W11017  18.574  38.412   1.810
42600W        W11018  39.055  38.008  14.432
42601W        W11019  39.041  36.463   0.839
42602W        W11020   4.335  12.828   4.827
42603W        W11021   6.250  14.222   0.404
42604W        W11022  15.298  10.191  14.503
42605W        W11023  36.941  26.659  10.944
42606W        W11024  37.058   8.796   0.263
42607W        W11025  23.711   7.875   1.396
42608W        W11026   6.425  40.970   0.245
42609W        W11027  15.183  12.262   4.739
42610W        W11028  28.098   6.861  13.050
42611W        W11029  44.397  16.809  13.522
42612W        W11030   7.189  39.501  12.855
42613W        W11031  31.094  31.486  12.977
42614W        W11032  21.681  11.173  14.929
42615W        W11033   6.771  35.460  12.367
42616W        W11034  40.953  18.777   1.697
42617W        W11035   1.407  29.166  13.352
42618W        W11036  30.603  29.514   4.155
42619W        W11037  26.977  17.276   2.794
42620W        W11038  28.169  26.204  14.312
42621W        W11039  12.801  19.666  14.396
42622W        W11040  16.165   7.880   1.746
42623W        W11041  33.059  23.573   0.425
42624W        W11042  21.099  30.116   3.776
42625W        W11043  11.369   2.385  14.297
42626W        W11044  23.611  12.744   4.272
42627W        W11045  42.447  28.953  11.415
42628W        W11046   2.305  44.987   2.354
42629W        W11047  12.844   1.260   3.279
42630W        W11048  29.650   0.278  14.469
42631W        W11049  34.420  30.061  12.920
42632W        W11050  32.425   2.884  11.510
42633W        W11051  17.795  21.549   0.951
42634W        W11052  24.979  39.525  11.892
42635W        W11053  36.041  16.225  11.394
42636W        W11054  16.121   9.795   4.323
42637W        W11055   0.424   8.821  11.551
42638W        W11056  36.545  38.453   4.251
42639W        W11057  26.554  28.480  11.860
42640W        W11058  10.643  27.455  10.604
42641W        W11059   4.900  11.744   0.955
42642W        W11060  36.458  31.507   3.228
42643W        W11061  44.002  24.517  13.416
42644W        W11062   2.320  34.002  10.496
42645W        W11063  19.190  25.984   1.440
42646W        W11064   3.871   0.490   3.318
42647W        W11065  36.862  22.686  13.453
42648W        W11066   7.863  16.279  11.083
42649W        W11067  12.692  31.530   4.326
42650W        W11068  37.418  11.733   0.727
42651W        W11069  31.501   9.824  10.632
42652W        W11070  23.174  40.505   2.810
42653W        W11071   5.894   4.838  11.418
42654W        W11072  42.322  14.610  13.501
42655W        W11073  17.623   3.406   2.372
42656W        W11074  38.504  30.141   4.290
42657W        W11075  38.516   8.801   2.781
42658W        W11076  43.920   4.711   1.252
42659W        W11077  13.748  38.393  14.952
42660W        W11078  25.577  12.245  10.981
42661W        W11079  25.090  30.631  13.366
42662W        W11080  38.923  37.406  13.314
42663W        W11081  19.651  22.187   2.704
42664W        W11082   5.259  35.887  12.844
42665W        W11083  10.294  12.693  12.050
42666W        W11084   7.414  11.270   1.838
42667W        W11085  25.065  37.999  12.962
42668W        W11086   1.292  34.596  13.884
42669W        W11087  24.202  39.064   9.489
42670W        W11088  11.182   2.422  11.109
42671W        W11089  22.250  19.737   3.744
42672W        W11090  21.221  14.192   1.235
42673W        W11091  13.193   7.358  13.026
42674W        W11092  38.052  44.467  10.043
42675W        W11093   9.832  42.404   4.193
42676W        W11094  16.757  38.843   0.946
42677W        W11095  28.644  14.735   1.324
42678W        W11096  35.507  35.549  10.963
42679W        W11097  42.789  33.072  10.932
42680W        W11098  28.642  11.293  11.462
42681W        W11099  13.690  26.977  12.834
42682W        W11100  37.554  42.883   1.899
42683W        W11101  28.162  16.138   4.631
42684W        W11102  14.823   0.885   4.226
42685W        W11103  29.513  14.231  12.365
42686W        W11104  23.690   7.193  14.335
42687W        W11105  42.827  44.330  10.522
42688W        W11106  43.305  13.837  11.418
42689W        W11107   9.792  39.376   2.393
42690W        W11108  37.889  29.424   4.314
42691W        W11109  26.577  17.663   3.373
42692W        W11110  42.342  10.305   1.816
42693W        W11111  38.889  23.709   4.607
42694W        W11112  25.133   9.668  10.105
42695W        W11113  10.185  13.191   5.096
42696W        W11114  27.606  13.195   4.145
42697W        W11115   8.397  15.727  14.455
42698W        W11116  36.046  37.866  13.916
42699W        W11117   2.865  41.945  14.966
42700W        W11118  27.648   7.891  11.053
42701W        W11119   0.358   8.256  14.992
42702W        W11120   1.864  20.688   4.354
42703W        W11121  14.184  42.354   1.700
42704W        W11122  18.207  14.788  12.877
42705W        W11123  24.035  24.701   2.314
42706W        W11124   1.332  11.858   1.758
42707W        W11125   9.326  44.377  12.879
42708W        W11126  20.644  36.469  13.321
42709W        W11127  33.907  19.239  12.867
42710W        W11128  10.719   2.938  13.401
42711W        W11129   5.747   2.844   0.806
42712W        W11130   3.219   4.799   4.267
42713W        W11131  42.855  17.783  10.522
42714W        W11132   7.710  20.754  13.915
42715W        W11133   5.222  26.612  11.113
42716W        W11134  18.743  36.388  11.509
42717W        W11135  15.237  38.385  10.501
42718W        W11136  34.547   7.779   1.353
42719W        W11137   5.916   5.424   1.367
42720W        W11138   3.238  20.541  11.037
42721W        W11139  36.079   6.762  11.520
42722W        W11140  35.536  30.985  11.542
42723W        W11141  38.011  35.029   3.381
42724W        W11142  28.467  40.985  13.379
42725W        W11143  16.715   7.201  13.503
42726W        W11144  35.057   6.322  14.359
42727W        W11145   1.333  25.094   1.720
42728W        W11146  35.924  40.474   0.910
42729W        W11147  15.214  33.026   2.371
42730W        W11148  21.203  30.617  13.814
42731W        W11149   2.303  28.138   2.223
42732W        W11150  40.914  41.489  10.491
42733W        W11151  24.704  37.384   4.661
42734W        W11152   0.819  35.004  10.616
42735W        W11153  19.701  21.746  12.896
42736W        W11154  15.270  29.013  10.965
42737W        W11155  42.450  28.166   1.801
42738W        W11156  29.499  43.495   4.320
42739W        W11157  34.559  41.826  13.518
42740W        W11158  18.264  42.019  11.423
42741W        W11159   2.870  39.523   1.896
42742W        W11160  43.304   6.191   4.797
42743W        W11161  34.894   5.764  12.459
42744W        W11162  32.592  21.100  11.931
42745W        W11163  21.540   2.933  11.561
42746W        W11164  42.853  11.193   3.642
42747W        W11165  28.500  25.012   0.752
42748W        W11166  42.463  19.100   0.865
42749W        W11167   5.331  31.548   4.734
42750W        W11168  24.044   4.876   0.785
42751W        W11169   7.677  17.706   4.288
42752W        W11170  27.487  17.270  11.595
42753W        W11171  24.032   8.697   0.445
42754W        W11172  28.533   2.918  12.997
42755W        W11173  21.175  38.384   5.237
42756W        W11174  19.281   8.793   3.668
42757W        W11175  38.845  12.751  10.089
42758W        W11176  43.957  35.093  12.976
42759W        W11177  28.640  25.990  14.461
42760W        W11178  39.531  36.510   3.680
42761W        W11179   3.247  12.806  11.947
42762W        W11180  35.913  31.465   2.196
42763W        W11181  17.638   7.262  14.334
42764W        W11182   5.199  20.140  12.897
42765W        W11183  24.678  25.002  10.407
42766W        W11184  32.933  25.525   3.683
42767W        W11185  27.955  39.016  14.511
42768W        W11186  26.963  30.499  10.987
42769W        W11187  38.566   3.254  12.088
42770W        W11188  13.753  44.477  10.496
42771W        W11189   0.900  21.546   1.708
42772W        W11190   9.299   0.316   3.762
42773W        W11191  13.693  43.887   1.924
42774W        W11192   2.311  38.023  11.047
42775W        W11193  13.176  37.467   1.430
42776W        W11194   2.925   5.757  14.410
42777W        W11195  41.995  35.381  12.982
42778W        W11196  16.214  39.018  13.372
42779W        W11197   8.778  16.308   3.198
42780W        W11198   9.328  21.157   1.898
42781W        W11199  39.360  42.875   1.825
42782W        W11200  34.578  14.673  11.084
42783W        W11201  13.124  27.094   0.807
42784W        W11202  15.295  16.194  13.957
42785W        W11203  44.769   5.724  13.361
42786W        W11204  22.549  11.175  12.845
42787W        W11205   9.376   0.870   5.221
42788W        W11206  41.305   8.389   4.219
42789W        W11207   3.363   2.417   4.335
42790W        W11208  42.482  28.496   0.291
42791W        W11209  33.109   7.668   2.668
42792W        W11210  35.968  44.971   2.828
42793W        W11211  31.057  36.958   3.322
42794W        W11212  40.949   0.274   1.434
42795W        W11213   4.774  17.712  14.968
42796W        W11214  25.527  15.678  11.393
42797W        W11215   2.365  43.324   3.725
42798W        W11216  12.288  32.398   1.885
42799W        W11217  31.576  19.637   4.188
42800W        W11218  14.161   3.264   3.835
42801W        W11219  23.115   2.948   3.322
42802W        W11220   8.280  43.823   3.310
42803W        W11221  42.395  39.521  12.898
42804W        W11222  28.990  39.334  10.936
42805W        W11223   0.847  16.218  14.491
42806W        W11224  33.046  12.179   0.857
42807W        W11225  44.886  21.617  10.623
42808W        W11226  36.361  12.708   3.154
42809W        W11227   8.162   2.901  11.480
42810W        W11228   8.168  31.546  11.393
42811W        W11229  37.975   3.796  14.911
42812W        W11230   3.933  22.681   4.331
42813W        W11231  40.923  30.503  10.910
42814W        W11232  19.720  22.692   2.757
42815W        W11233  43.343  16.668   2.755
42816W        W11234  12.330  18.713  10.517
42817W        W11235   5.810  26.108   1.282
42818W        W11236   4.730  37.862   4.167
42819W        W11237   7.278  16.085   3.630
42820W        W11238  35.388  25.583  13.006
42821W        W11239  11.750  43.458   0.432
42822W        W11240   9.878  39.992  11.913
42823W        W11241  31.958  13.689  11.991
42824W        W11242  17.784  39.029  12.067
42825W        W11243  17.681  36.895   3.633
42826W        W11244  38.381  42.028   0.803
42827W        W11245  30.536   6.750   1.711
42828W        W11246   7.757  13.309   4.344
42829W        W11247   2.464  38.819   3.272
42830W        W11248  34.876  40.989  10.458
42831W        W11249  13.625  17.767   3.202
42832W        W11250   1.819   2.417  10.566
42833W        W11251  41.829  44.822  11.376
42834W        W11252  15.307  26.590  14.987
42835W        W11253  31.612  34.400   0.955
42836W        W11254  43.362  43.407   4.617
42837W        W11255  17.570  10.243  11.899
42838W        W11256  15.315  44.964   3.640
42839W        W11257  30.977  32.023   3.698
42840W        W11258  20.042  21.635  13.892
42841W        W11259  32.994  42.900   1.899
42842W        W11260  30.525  23.010  10.567
42843W        W11261  17.120  37.558  10.969
42844W        W11262  15.584  30.422  13.472
42845W        W11263  10.369  41.378  13.943
42846W        W11264   8.310  41.853   0.456
42847W        W11265  41.393  11.637  12.932
42848W        W11266  39.549  22.061   0.879
42849W        W11267  33.532   0.922   0.821
42850W        W11268   5.355  44.870   0.279
42851W        W11269   9.880   0.408   2.309
42852W        W11270  19.106  10.636  14.410
42853W        W11271  29.033  34.073   2.828
42854W        W11272  21.243  26.195   0.383
42855W        W11273  35.469  43.278   2.784
42856W        W11274  38.325  24.557   1.236
42857W        W11275  10.670  10.322   2.893
42858W        W11276  26.081  18.599  13.493
42859W        W11277  27.585  44.965  11.961
42860W        W11278  22.662  23.183  10.980
42861W        W11279   3.948  29.131  14.979
42862W        W11280  37.853  41.877   1.726
42863W        W11281   7.328  24.009  11.564
42864W        W11282   6.383  36.591   0.887
42865W        W11283  33.004  37.850   0.817
42866W        W11284   2.839  40.002  11.513
42867W        W11285  34.448  11.775   2.370
42868W        W11286  22.107  20.752   3.844
42869W        W11287  42.789  42.460  13.532
42870W        W11288  40.354  40.928  13.979
42871W        W11289   1.333  19.625  12.934
42872W        W11290  40.448  34.381   1.895
42873W        W11291  28.627   1.796   3.733
42874W        W11292  15.247  24.525   3.848
42875W        W11293  18.660  13.247   1.433
42876W        W11294  44.338  35.555   1.303
42877W        W11295   0.760  40.485   0.424
42878W        W11296  15.168  30.501  10.922
42879W        W11297  41.535   2.276  11.980
42880W        W11298  39.955  27.453   3.707
42881W        W11299   4.427  34.871   2.755
42882W        W11300  23.679  44.768   3.239
42883W        W11301  35.452   1.451  13.827
42884W        W11302  38.866  19.572   4.314
42885W        W11303  44.904  24.668  11.012
42886W        W11304  44.919  44.793  14.277
42887W        W11305  34.615  28.973  14.948
42888W        W11306  30.983  39.400   4.679
42889W        W11307   8.272  36.586  11.872
42890W        W11308  30.550  17.654  10.629
42891W        W11309   6.367  21.657   4.154
42892W        W11310  37.025   0.412  13.464
42893W        W11311   4.807  15.666  11.517
42894W        W11312  38.832  20.116   3.642
42895W        W11313  41.011  35.060  13.053
42896W        W11314  19.720  15.226  12.513
42897W        W11315   2.894  37.010  11.912
42898W        W11316  14.260  31.932  11.855
42899W        W11317  29.045  30.909   3.772
42900W        W11318  14.132  30.600  12.906
42901W        W11319  13.221   9.309  13.364
42902W        W11320  17.260  21.039  11.053
42903W        W11321  33.957  19.598   4.231
42904W        W11322   9.813  22.547  13.419
42905W        W11323   9.311  42.308  14.505
42906W        W11324  20.082  11.641   2.416
42907W        W11325   1.845  24.686   1.367
42908W        W11326   6.793   6.197  12.400
42909W        W11327  18.642  18.639   1.853
42910W        W11328  23.212  15.205   0.420
42911W        W11329  26.628  22.030   2.847
42912W        W11330  21.177  44.461   0.314
42913W        W11331  14.785  28.963   1.854
42914W        W11332   6.313  24.697   3.192
42915W        W11333  12.284  16.660   1.410
42916W        W11334  18.566   0.897   1.393
42917W        W11335  38.037  35.533   2.289
42918W        W11336  26.023  39.470  14.833
42919W        W11337  15.322  37.858   3.851
42920W        W11338  32.534  37.030  12.437
42921W        W11339  24.993   5.278  11.476
42922W        W11340  44.322   8.220  11.104
42923W        W11341  37.982  25.034   4.182
42924W        W11342  30.546  26.580  14.026
42925W        W11343  22.094   7.758  13.030
42926W        W11344  11.144  23.212   2.406
42927W        W11345  43.363   8.699  12.425
42928W        W11346  40.389  44.888  12.909
42929W        W11347   9.737  22.682   4.138
42930W        W11348  33.918  35.533   4.631
42931W        W11349   4.937  31.528  10.458
42932W        W11350  26.467  32.453  14.325
42933W        W11351  43.982  25.209  13.856
42934W        W11352  30.652   3.729  14.803
42935W        W11353  24.582  14.794  14.511
42936W        W11354  24.564  42.810  14.314
42937W        W11355   3.423  16.802  14.978
42938W        W11356   1.912  44.895   3.204
42939W        W11357  33.874  41.526   1.392
42940W        W11358  18.122  10.329   0.258
42941W        W11359  20.675  21.263   4.207
42942W        W11360   7.258  12.744   2.243
42943W        W11361  37.410  41.954   2.317
42944W        W11362   5.319  32.494   2.738
42945W        W11363   7.766  27.973  12.905
42946W        W11364  29.490   4.326   0.731
42947W        W11365  26.126   3.317  14.793
42948W        W11366  37.924  34.500   1.266
42949W        W11367   7.786   6.862   3.379
42950W        W11368  18.087  28.045  12.979
42951W        W11369   7.702   3.449   3.148
42952W        W11370  24.171  17.142   1.379
42953W        W11371   9.312  44.873   3.644
42954W        W11372   5.763  35.544   2.729
42955W        W11373  39.018  20.668   4.713
42956W        W11374  15.085  10.204  11.461
42957W        W11375  25.969  11.783   1.915
42958W        W11376  41.332   3.810   2.665
42959W        W11377  10.279   8.181  12.369
42960W        W11378  16.645  37.884  11.947
42961W        W11379  21.057  40.006  12.969
42962W        W11380  19.178  12.647   0.355
42963W        W11381   3.712   8.846   1.724
42964W        W11382  44.936   1.777   2.778
42965W        W11383  17.609   0.435  10.628
42966W        W11384  43.468  20.183   1.711
42967W        W11385  24.220   7.789   4.354
42968W        W11386  31.956  21.517   1.726
42969W        W11387  17.110  26.626  11.993
42970W        W11388  34.953   5.737  10.131
42971W        W11389  40.800   8.729   4.658
42972W        W11390  31.407  40.373   0.399
42973W        W11391  26.503   6.855  10.435
42974W        W11392  28.490  17.109  10.105
42975W        W11393   6.784  31.637  13.019
42976W        W11394  23.197  26.099  12.470
42977W        W11395  39.976   3.934  12.961
42978W        W11396  27.590  32.019   1.785
42979W        W11397  10.786   2.833  12.859
42980W        W11398   5.766  15.095   3.290
42981W        W11399  30.965  14.771   1.425
42982W        W11400  29.464  27.964   4.694
42983W        W11401  37.986  43.878  12.979
42984W        W11402   3.280  38.927  11.584
42985W        W11403  12.664  37.377   3.370
42986W        W11404  18.778  42.811   3.156
42987W        W11405   3.215  21.037  11.914
42988W        W11406  39.906  38.852  14.989
42989W        W11407  26.160  18.156  10.907
42990W        W11408  20.581  34.113   3.307
42991W        W11409  16.208  19.663   3.679
42992W        W11410  41.292  38.862   5.142
42993W        W11411   2.796   6.740  13.013
42994W        W11412  39.376  13.760   0.893
42995W        W11413  10.239   2.810   4.657
42996W        W11414  12.206  39.322   3.205
42997W        W11415  40.461   5.391  13.944
42998W        W11416  34.602  26.077   1.880
42999W        W11417  13.627  24.036   1.215
43000W        W11418   5.349  12.247  14.486
43001W        W11419  29.428  43.283  12.959
43002W        W11420   7.802  28.971  13.978
43003W        W11421   7.288  12.717   1.886
43004W        W11422   5.722  31.520   1.904
43005W        W11423  39.919  44.334   4.615
43006W        W11424   1.242  22.162  14.404
43007W        W11425   6.393   8.217   2.341
43008W        W11426  43.392   6.865   0.922
43009W        W11427  33.545  44.988   9.985
43010W        W11428  13.818  19.074   1.927
43011W        W11429  29.522   3.369  11.895
43012W        W11430  23.587   7.321  13.358
43013W        W11431  18.545  22.620   1.697
43014W        W11432  34.565  14.336   4.754
43015W        W11433   7.796  10.219   2.677
43016W        W11434   2.826  22.690   4.797
43017W        W11435  16.685  23.987  11.463
43018W        W11436  31.576  39.386  13.869
43019W        W11437  16.676  40.836   4.166
43020W        W11438  28.136  19.100   3.265
43021W        W11439  34.042  14.742  11.929
43022W        W11440   7.847  25.090   4.823
43023W        W11441   0.746  36.079   0.784
43024W        W11442  10.814  24.154  14.294
43025W        W11443   6.786  26.981   4.287
43026W        W11444  15.718  21.195  11.468
43027W        W11445   1.740  19.703   2.261
43028W        W11446  29.481  11.140   3.158
43029W        W11447  15.625  42.972   1.776
43030W        W11448   0.271  20.125  12.984
43031W        W11449  36.402  43.485   3.174
43032W        W11450  26.161  17.762  13.319
43033W        W11451  37.900  38.564  14.452
43034W        W11452  13.808   0.401  14.452
43035W        W11453  19.088  34.496  12.978
43036W        W11454   9.302  29.461   2.333
43037W        W11455  17.211  19.685   5.321
43038W        W11456   5.765  23.007  13.465
43039W        W11457   9.820  15.197  11.438
43040W        W11458  15.206  30.480  11.494
43041W        W11459  41.844  22.639  12.430
43042W        W11460  20.063  39.900   4.618
43043W        W11461  36.391   2.386   2.685
43044W        W11462   1.939  23.572   3.767
43045W        W11463   9.671   2.819  14.810
43046W        W11464  31.490  33.054   0.306
43047W        W11465  37.407  34.499   2.215
43048W        W11466  39.548   4.261  12.884
43049W        W11467  23.000  13.704   3.851
43050W        W11468  15.123  20.572   4.265
43051W        W11469  32.064  44.862   4.759
43052W        W11470  29.527  40.829   1.819
43053W        W11471  19.698   5.210   1.239
43054W        W11472   9.643  11.135   4.242
43055W        W11473   1.810   8.378   4.824
43056W        W11474  15.254  11.809  11.377
43057W        W11475  40.988  37.339   1.815
43058W        W11476  28.449  15.321   0.315
43059W        W11477  23.659  17.189   4.640
43060W        W11478  26.135  18.214   4.745
43061W        W11479   1.842  16.258   2.662
43062W        W11480  27.660   3.387  13.862
43063W        W11481  32.394  37.453  14.434
43064W        W11482  28.596   8.885   4.147
43065W        W11483  17.771  33.529   1.696
43066W        W11484  41.487  35.401   4.281
43067W        W11485  22.535  17.174  11.436
43068W        W11486  12.694  17.082  14.399
43069W        W11487  20.755  35.458  12.395
43070W        W11488  32.979   1.415   0.322
43071W        W11489   1.327  44.992   4.764
43072W        W11490  44.890  27.504   0.753
43073W        W11491  19.219  36.044  14.845
43074W        W11492  29.026  19.724  14.417
43075W        W11493  41.392   9.292  12.569
43076W        W11494   2.774  11.282  13.061
43077W        W11495   4.412  18.547   3.217
43078W        W11496  39.992  25.502   4.325
43079W        W11497  15.167  41.938  13.986
43080W        W11498   8.288  26.974   1.224
43081W        W11499  10.846  39.318  14.492
43082W        W11500   1.382  28.472  13.486
43083W        W11501  26.687   4.821  10.426
43084W        W11502   3.906  23.666  12.046
43085W        W11503   1.926   0.744  11.545
43086W        W11504  22.031  27.583   3.181
43087W        W11505   4.257  15.682  12.006
43088W        W11506  22.082  39.501  14.943
43089W        W11507   8.775  42.977  12.464
43090W        W11508   5.408   8.360  13.055
43091W        W11509  16.145   3.441  12.881
43092W        W11510  34.499  22.236  12.823
43093W        W11511  37.061  20.029   0.392
43094W        W11512   6.324  39.526  11.376
43095W        W11513  39.392  14.763   0.762
43096W        W11514  28.148  22.516   0.477
43097W        W11515  36.511   7.280  10.931
43098W        W11516   6.417  42.014  11.576
43099W        W11517  22.094  33.892   2.677
43100W        W11518   3.217  28.057   1.306
43101W        W11519  12.619   1.461  10.523
43102W        W11520  44.277   3.426  10.003
43103W        W11521  32.420  21.229   1.931
43104W        W11522  44.787  16.240  10.992
43105W        W11523  19.176   0.441  14.774
43106W        W11524  30.913  23.720  10.013
43107W        W11525  15.148  25.656   3.764
43108W        W11526  23.502  13.223   3.844
43109W        W11527   0.281  28.581   0.807
43110W        W11528  42.830  25.169  11.578
43111W        W11529  11.726   9.795  13.491
43112W        W11530  27.503  25.173   0.911
43113W        W11531   3.301  15.155  10.468
43114W        W11532  44.980  31.949   0.330
43115W        W11533  18.664  35.939   2.269
43116W        W11534  13.219  22.051  12.053
43117W        W11535  17.655  10.831   0.298
43118W        W11536  23.604  24.202   2.661
43119W        W11537   0.844  19.280   0.940
43120W        W11538  39.990   3.728   4.783
43121W        W11539   9.800   6.197   2.304
43122W        W11540  43.815  26.039  13.478
43123W        W11541   2.901  27.187  10.509
43124W        W11542   0.426  23.984   3.198
43125W        W11543  44.953  40.313  11.959
43126W        W11544  13.149  22.030  13.931
43127W        W11545  34.514  27.137  10.547
43128W        W11546   1.369  18.777   0.364
43129W        W11547  26.692  26.992  13.956
43130W        W11548  27.979  31.975  14.836
43131W        W11549   8.229  42.944  10.518
43132W        W11550  12.813  43.765  11.427
43133W        W11551  30.025  32.990   4.691
43134W        W11552  11.703  38.888  14.999
43135W        W11553  26.647  15.085   3.158
43136W        W11554  30.546  13.334   4.217
43137W        W11555  32.637  32.022   4.622
43138W        W11556   2.368  34.447  13.371
43139W        W11557  41.372   2.883   4.642
43140W        W11558  27.013  27.066   0.300
43141W        W11559  29.483  38.073   1.784
43142W        W11560  23.498  14.180  10.536
43143W        W11561  28.082  25.567   0.336
43144W        W11562  14.300  18.280  11.492
43145W        W11563  23.530  34.995   3.260
43146W        W11564  21.212  40.944   3.194
43147W        W11565   4.859  30.515  14.998
43148W        W11566  17.754   0.887  10.435
43149W        W11567  24.098  37.521   1.217
43150W        W11568  18.094   8.346  10.457
43151W        W11569  35.453  40.023  12.446
43152W        W11570  25.664  19.592   9.931
43153W        W11571  41.330  14.655   3.363
43154W        W11572  15.724  24.637  12.001
43155W        W11573   4.863   6.834   1.325
43156W        W11574  31.060  31.008  14.493
43157W        W11575  40.824   0.480   1.744
43158W        W11576  29.541   4.791  12.985
43159W        W11577  12.635  19.243  13.399
43160W        W11578  38.838  33.089  12.984
43161W        W11579  16.572  18.290  11.444
43162W        W11580   5.870   8.269  11.538
43163W        W11581   0.333   2.825   4.307
43164W        W11582   9.713   1.746   0.937
43165W        W11583   6.735  30.955   2.833
43166W        W11584  10.780   6.680   4.240
43167W        W11585   5.749  33.472   1.226
43168W        W11586  29.135   4.746  14.027
43169W        W11587  11.139  19.109   3.161
43170W        W11588  27.583   3.726   4.210
43171W        W11589  24.201   6.838  11.973
43172W        W11590  43.979  28.663   3.172
43173W        W11591  29.452  14.174   3.677
43174W        W11592  25.527  24.022   0.293
43175W        W11593  22.210  30.994   0.934
43176W        W11594  22.066  44.437   1.233
43177W        W11595  17.305  40.434  12.961
43178W        W11596  11.806   2.420   1.291
43179W        W11597  43.824  24.987  13.478
43180W        W11598   2.950  11.331  12.504
43181W        W11599  21.748  17.126   1.802
43182W        W11600  33.082  30.572  13.510
43183W        W11601   3.340  21.525  12.922
43184W        W11602   0.364  42.010  12.998
43185W        W11603  40.943   1.800   0.305
43186W        W11604  11.628  40.028  13.382
43187W        W11605  26.623  24.592  13.360
43188W        W11606  41.010   1.752   3.866
43189W        W11607  14.810  37.871  14.289
43190W        W11608  24.184  27.058  13.500
43191W        W11609  10.691  19.045  11.586
43192W        W11610  15.771  10.866   2.837
43193W        W11611  26.638  30.921  12.393
43194W        W11612  37.883  19.104  13.384
43195W        W11613   8.815  33.432  10.482
43196W        W11614  28.571  30.491  11.063
43197W        W11615   0.250  23.639   4.139
43198W        W11616  39.894  29.940   0.951
43199W        W11617  39.434  15.132   1.935
43200W        W11618   5.388  10.187  12.439
43201W        W11619  28.567   7.909   3.149
43202W        W11620  21.246  39.934   1.736
43203W        W11621  41.791  21.748  14.391
43204W        W11622  37.915  21.559   4.677
43205W        W11623   7.393  12.324   2.792
43206W        W11624   4.864   7.223   5.222
43207W        W11625  16.259  38.547  10.601
43208W        W11626  13.701  44.841   2.831
43209W        W11627  36.454  32.008   4.658
43210W        W11628  25.501  44.860   1.826
43211W        W11629  41.973  16.797  12.364
43212W        W11630  34.387  28.051  11.914
43213W        W11631  20.530  19.283  11.522
43214W        W11632  42.965  10.257   4.669
43215W        W11633   7.389  35.870  10.910
43216W        W11634  16.720  37.370   1.897
43217W        W11635  35.506   6.886  12.056
43218W        W11636  37.946  41.879  13.322
43219W        W11637  43.991  10.849  14.478
43220W        W11638  39.521   9.851   2.795
43221W        W11639  11.804  31.618   3.724
43222W        W11640  24.724  37.987  12.979
43223W        W11641  36.931  15.697  11.106
43224W        W11642  43.830  41.426   5.161
43225W        W11643  26.049  21.605   4.675
43226W        W11644  15.205  13.758  11.386
43227W        W11645  18.548  22.626  11.068
43228W        W11646  13.721   8.682   4.265
43229W        W11647  28.534  30.938   2.197
43230W        W11648  22.598  23.630   2.187
43231W        W11649  32.022   3.396   1.220
43232W        W11650  14.247  12.840   1.796
43233W        W11651  19.685  16.256   3.732
43234W        W11652  35.046  17.127   0.871
43235W        W11653  18.635  23.606   0.835
43236W        W11654  14.219  15.698   5.128
43237W        W11655  35.367  17.559  11.391
43238W        W11656  13.699  28.667   0.907
43239W        W11657   8.698   8.161  14.874
43240W        W11658   5.860   5.862  10.904
43241W        W11659  16.781  14.757  14.282
43242W        W11660   2.925  12.826   2.662
43243W        W11661  15.191  39.527  12.359
43244W        W11662  40.334  37.420  12.859
43245W        W11663  35.069  43.363   3.697
43246W        W11664   9.668  32.058  11.125
43247W        W11665  43.325  13.743   3.767
43248W        W11666  39.440  39.048  13.960
43249W        W11667  15.253  41.292  11.010
43250W        W11668   5.309  20.057   2.288
43251W        W11669  29.072  41.531  10.911
43252W        W11670   5.403  30.573  12.373
43253W        W11671   4.942   9.335  13.317
43254W        W11672  38.527  10.369   3.736
43255W        W11673  11.729  15.649   3.646
43256W        W11674  41.455   8.797  11.094
43257W        W11675  44.287  16.646  14.294
43258W        W11676   0.883  30.055   2.243
43259W        W11677  10.282  32.121  13.477
43260W        W11678  24.709   1.732   0.893
43261W        W11679  27.140  28.053   4.285
43262W        W11680  20.658  33.086   0.325
43263W        W11681  12.221  35.899  12.849
43264W        W11682  33.565   5.359   0.433
43265W        W11683  38.565  44.775   2.332
43266W        W11684  28.983   9.704   4.598
43267W        W11685   3.396  33.423  12.555
43268W        W11686  11.711  34.059  14.012
43269W        W11687  28.475  26.668   4.241
43270W        W11688  15.622  13.314  13.804
43271W        W11689  37.411   7.196   3.756
43272W        W11690  39.028   6.704  14.904
43273W        W11691  28.974  36.988  13.514
43274W        W11692  18.660   4.789   3.856
43275W        W11693  33.467  27.007  11.413
43276W        W11694  41.508  35.060  14.868
43277W        W11695   6.871  36.386   0.476
43278W        W11696  36.520  35.508   1.754
43279W        W11697  29.981  12.232  13.019
43280W        W11698  33.082  36.383  10.410
43281W        W11699   4.900  32.552   3.380
43282W        W11700  21.548   4.357  12.867
43283W        W11701  16.744   0.347   1.342
43284W        W11702  30.068  37.418   4.159
43285W        W11703  11.314  41.012   3.700
43286W        W11704  19.662   7.229   3.274
43287W        W11705  35.603  44.454  14.374
43288W        W11706  24.693   2.754   0.914
43289W        W11707  20.217  35.991  12.928
43290W        W11708  27.481  25.153   4.805
43291W        W11709  24.002   8.274  13.351
43292W        W11710   3.932   1.409  14.014
43293W        W11711  30.461  35.942  11.438
43294W        W11712  22.167  23.129  13.827
43295W        W11713  25.548  18.205   1.892
43296W        W11714   3.714  13.185   3.347
43297W        W11715  41.387  40.515  13.512
43298W        W11716   9.808  33.474   0.334
43299W        W11717   9.671  34.037  12.502
43300W        W11718  37.000  42.944   3.229
43301W        W11719  40.017  24.146   4.268
43302W        W11720  20.668   9.769  11.910
43303W        W11721  21.708  24.164  11.956
43304W        W11722  43.813  27.063   1.363
43305W        W11723  19.672  11.235  14.880
43306W        W11724   1.930  21.696   4.820
43307W        W11725  18.771  44.456  12.001
43308W        W11726  32.552  27.114   1.915
43309W        W11727  43.489   6.239   1.402
43310W        W11728  34.025  23.151   0.251
43311W        W11729   9.313  11.749   3.304
43312W        W11730  22.224  31.940  13.525
43313W        W11731  20.133   2.842  11.933
43314W        W11732  40.379  15.241   4.149
43315W        W11733  43.459  37.444   5.189
43316W        W11734  26.524  29.437  14.395
43317W        W11735  38.537   0.881   0.466
43318W        W11736  27.584  40.998   4.657
43319W        W11737  11.714  26.530   1.316
43320W        W11738  34.502  26.971   3.774
43321W        W11739  38.457  20.625  12.901
43322W        W11740  19.754  18.755  10.624
43323W        W11741  19.638  37.021  13.890
43324W        W11742  31.995  11.171  14.801
43325W        W11743  38.984  26.663  14.839
43326W        W11744   1.278   5.838  12.825
43327W        W11745  27.147   7.300  12.845
43328W        W11746  21.521  22.535   3.801
43329W        W11747  29.152  24.490   3.800
43330W        W11748  24.709  28.113   2.378
43331W        W11749  37.582  31.140  14.972
43332W        W11750  14.224  30.038   4.794
43333W        W11751  25.066   5.865  14.895
43334W        W11752  38.361  13.603   4.171
43335W        W11753   8.381  37.494  11.414
43336W        W11754  35.886  36.976   0.799
43337W        W11755  39.905   1.419   0.906
43338W        W11756  35.533  23.107  12.554
43339W        W11757  16.750  27.046  11.920
43340W        W11758  14.664  40.021  11.460
43341W        W11759  14.183  10.840  12.900
43342W        W11760   5.413  32.933  12.375
43343W        W11761  30.148  35.585  11.116
43344W        W11762  12.151  29.014   4.625
43345W        W11763   3.439  23.127  12.563
43346W        W11764  43.288  25.043   2.875
43347W        W11765  17.666  42.833  13.031
43348W        W11766  15.182  39.997   4.288
43349W        W11767   0.361  35.069   3.311
43350W        W11768  37.833  15.666   0.289
43351W        W11769  29.080   3.795  12.051
43352W        W11770  20.765   9.863   2.301
43353W        W11771  18.549  19.581   3.685
43354W        W11772  38.479  26.484  13.464
43355W        W11773  28.183  38.991   2.195
43356W        W11774  16.079  28.462   3.718
43357W        W11775  29.033   3.916   0.370
43358W        W11776  40.978  29.591  12.359
43359W        W11777  10.876  40.440  11.964
43360W        W11778  42.013   4.782   9.982
43361W        W11779   3.766  34.001   3.306
43362W        W11780  25.010   1.283   4.794
43363W        W11781  34.043  41.820   4.750
43364W        W11782  31.140  24.527  13.426
43365W        W11783  44.798   6.316   1.298
43366W        W11784  11.836  32.132   5.283
43367W        W11785  20.757  40.855   5.228
43368W        W11786  39.454  14.699  12.493
43369W        W11787   0.420  38.948   3.365
43370W        W11788  25.635  22.595  13.016
43371W        W11789  23.614  25.655  14.892
43372W        W11790  17.122  16.293   1.221
43373W        W11791  10.209  43.355   3.644
43374W        W11792  27.573  30.582  11.937
43375W        W11793  24.045  22.113   1.262
43376W        W11794  41.460  29.632  13.949
43377W        W11795  37.550   0.417  10.029
43378W        W11796  43.875  33.073  13.923
43379W        W11797  10.845  28.655   0.787
43380W        W11798  32.513  29.058  14.774
43381W        W11799  32.469   5.788  12.966
43382W        W11800  23.219  10.141   2.266
43383W        W11801  27.626  20.173   3.372
43384W        W11802   1.360  32.955  13.062
43385W        W11803  36.889  23.211  11.418
43386W        W11804   1.784  17.556   1.778
43387W        W11805  37.884   8.703   3.862
43388W        W11806  32.992   7.670   3.809
43389W        W11807   5.778  42.497   2.721
43390W        W11808  22.101  38.443   1.905
43391W        W11809  23.564  38.907   1.884
43392W        W11810  35.419   8.276   4.743
43393W        W11811  42.297  38.421  10.938
43394W        W11812  22.632  16.718  11.024
43395W        W11813   7.677  30.589   9.949
43396W        W11814   4.280   9.771   0.729
43397W        W11815  33.454  30.524  14.467
43398W        W11816   4.390  16.219  10.458
43399W        W11817   1.793  11.822   1.835
43400W        W11818  36.927  32.945  11.477
43401W        W11819   3.915  25.645  14.814
43402W        W11820  21.709  33.601  14.940
43403W        W11821  28.575  20.742  12.443
43404W        W11822  23.666  20.627  11.459
43405W        W11823  35.048   9.873   2.407
43406W        W11824   0.414   2.767   1.793
43407W        W11825  26.152  10.289  12.992
43408W        W11826  20.062  23.995  14.845
43409W        W11827  20.603  30.914  11.961
43410W        W11828   0.777   8.710   1.335
43411W        W11829  34.577   4.722   3.371
43412W        W11830  26.542  36.004   3.184
43413W        W11831  24.098  35.910   2.670
43414W        W11832  40.541  27.147  14.430
43415W        W11833   5.352  21.064  13.523
43416W        W11834  33.592  22.137  14.959
43417W        W11835   3.452   2.756   0.380
43418W        W11836  13.716  30.597  14.310
43419W        W11837   1.394  26.160   0.789
43420W        W11838   9.678  23.048  13.343
43421W        W11839  12.712   3.774  14.798
43422W        W11840  24.027  12.191   0.483
43423W        W11841  33.517  17.267  10.551
43424W        W11842  11.803  43.891   0.917
43425W        W11843  12.665  30.010   4.303
43426W        W11844  12.815  13.211  11.481
43427W        W11845   0.751  31.532   4.241
43428W        W11846   9.265  18.085  14.301
43429W        W11847  36.025  15.709   0.419
43430W        W11848  35.481   3.728   4.779
43431W        W11849  18.637  23.521   5.197
43432W        W11850  33.483  42.384  14.961
43433W        W11851  27.511  30.015  12.485
43434W        W11852  34.529   9.677  13.376
43435W        W11853  18.078  27.044  13.318
43436W        W11854   5.898  15.100   0.298
43437W        W11855  16.300  22.092   2.319
43438W        W11856  28.585   0.318   2.309
43439W        W11857  15.262  31.137  14.979
43440W        W11858  42.803  16.594   1.403
43441W        W11859  25.635  25.075   1.212
43442W        W11860  38.888  44.977  12.868
43443W        W11861  29.081  36.053   3.324
43444W        W11862  14.167  44.861   1.418
43445W        W11863  32.421  35.590  10.512
43446W        W11864   0.915  26.462  12.838
43447W        W11865  26.615  43.275  14.891
43448W        W11866  29.542  10.816   4.610
43449W        W11867  34.588  18.665  13.038
43450W        W11868  43.994  23.122  12.400
43451W        W11869  11.784  23.530   3.646
43452W        W11870  16.767  34.595  12.569
43453W        W11871  32.608  24.014  12.461
43454W        W11872   4.226  33.524   4.291
43455W        W11873   8.865  39.540  12.403
43456W        W11874  27.178  10.861   4.697
43457W        W11875  41.379  32.061  13.020
43458W        W11876  20.105  16.235  12.921
43459W        W11877   2.336   9.343   1.801
43460W        W11878  26.634  42.452  11.410
43461W        W11879  28.659  21.664   3.227
43462W        W11880   9.714  20.257   2.286
43463W        W11881  44.353  39.512   9.453
43464W        W11882  12.846  43.427   0.830
43465W        W11883  13.779   7.328  13.003
43466W        W11884  29.603   0.923   2.848
43467W        W11885  11.816  27.446  10.434
43468W        W11886  37.502  41.956  10.964
43469W        W11887  44.341   7.748   1.836
43470W        W11888  27.585  16.764   3.678
43471W        W11889  28.546  36.391  11.007
43472W        W11890  31.128  20.214   1.707
43473W        W11891  15.688  26.160  12.571
43474W        W11892  32.626  35.105   2.287
43475W        W11893  14.136  40.903  14.976
43476W        W11894  19.133  20.240   4.229
43477W        W11895  20.187  35.574  12.862
43478W        W11896  29.458  18.090   5.173
43479W        W11897  22.236  42.340  12.895
43480W        W11898  34.896  35.571  14.820
43481W        W11899  22.518  33.097  11.071
43482W        W11900  26.030  21.633   4.167
43483W        W11901  36.974  27.494  14.362
43484W        W11902  32.946   2.286  10.421
43485W        W11903  42.942  40.983  12.891
43486W        W11904  24.123  42.515  14.352
43487W        W11905   7.260  30.009   1.728
43488W        W11906  42.834   8.772  14.801
43489W        W11907  38.455  19.636  10.625
43490W        W11908  16.578  23.501  12.355
43491W        W11909  26.630  17.159  12.911
43492W        W11910  28.675  30.054  14.434
43493W        W11911  40.378  25.042   0.349
43494W        W11912  38.563  44.350  12.062
43495W        W11913  28.012  33.385   1.867
43496W        W11914  24.484  43.318  13.858
43497W        W11915   7.190   2.283   1.426
43498W        W11916  14.112  24.619  10.504
43499W        W11917  10.283   4.895   1.258
43500W        W11918  38.383  31.619  12.377
43501W        W11919   3.330  15.710   3.659
43502W        W11920  39.849  19.042  11.064
43503W        W11921  38.401   4.805   1.795
43504W        W11922  40.415  28.956   2.356
43505W        W11923  31.508  19.751   0.321
43506W        W11924  27.689  21.106   1.934
43507W        W11925  28.127  34.908   1.310
43508W        W11926  35.369   6.352  11.896
43509W        W11927  31.059  42.963   2.283
43510W        W11928  33.896  42.946   0.757
43511W        W11929  38.409  12.693   1.824
43512W        W11930  17.181   4.311  11.439
43513W        W11931  10.213  10.828  11.430
43514W        W11932  39.065  41.367  13.517
43515W        W11933   0.949   2.367   2.752
43516W        W11934  31.095  34.937   2.216
43517W        W11935  34.960  17.115  12.947
43518W        W11936  29.954  26.989   0.812
43519W        W11937   6.214  14.719   1.229
43520W        W11938  26.537  16.666  10.630
43521W        W11939  26.108   6.898   0.803
43522W        W11940  21.054  31.099   0.772
43523W        W11941  22.248   9.851   1.757
43524W        W11942  40.051  40.320   2.859
43525W        W11943  24.629  12.239   2.705
43526W        W11944   6.374  27.171  12.365
43527W        W11945  28.561   0.902   2.358
43528W        W11946  20.700  15.661   4.799
43529W        W11947  15.745   5.756  10.639
43530W        W11948  25.003  27.605   0.803
43531W        W11949  12.655  43.347  14.913
43532W        W11950  20.029  33.535  13.053
43533W        W11951  10.249   0.930  12.997
43534W        W11952  23.595  19.156  11.888
43535W        W11953  25.164  43.296  14.407
43536W        W11954  17.699   0.408  11.925
43537W        W11955   4.266  42.308   1.229
43538W        W11956   4.351   2.793  12.386
43539W        W11957  25.635  25.482   0.910
43540W        W11958  22.222  28.993  12.078
43541W        W11959  18.074   3.302  10.532
43542W        W11960  32.131  14.246  12.414
43543W        W11961  23.733  16.758   0.345
43544W        W11962  36.365  41.341  14.327
43545W        W11963  30.656  31.584  14.760
43546W        W11964  36.376  26.469   2.348
43547W        W11965  26.518  34.544  13.882
43548W        W11966  36.512  10.675   1.435
43549W        W11967  20.159  14.302   2.258
43550W        W11968  35.083   2.951  11.000
43551W        W11969  18.732  12.301   3.257
43552W        W11970  22.107  11.328  11.532
43553W        W11971  10.748  21.683   4.734
43554W        W11972   6.882  15.329   1.406
43555W        W11973   1.848  20.574   2.227
43556W        W11974  34.436  30.145   4.319
43557W        W11975  42.811  42.787  10.451
43558W        W11976  44.458   5.206   4.137
43559W        W11977   9.858  24.664   3.856
43560W        W11978  44.782  15.286  10.556
43561W        W11979  44.762  39.840  13.511
43562W        W11980  43.813   3.238   2.196
43563W        W11981  26.173   0.414  11.547
43564W        W11982   0.971  32.042  12.543
43565W        W11983   0.872   7.270  12.406
43566W        W11984  25.572  12.626  13.465
43567W        W11985  19.162  18.781   3.769
43568W        W11986  43.959   3.737  12.342
43569W        W11987  30.958  29.077   0.270
43570W        W11988  16.077  38.495  13.829
43571W        W11989   1.427   1.839   1.252
43572W        W11990   6.722  34.941  10.634
43573W        W11991  26.152   0.276   3.236
43574W        W11992  16.276  26.636   3.847
43575W        W11993  12.779  40.974   2.757
43576W        W11994  23.089  17.295   1.281
43577W        W11995  13.260  12.315  10.895
43578W        W11996   0.899  10.756  13.418
43579W        W11997  12.798  27.134   4.337
43580W        W11998  21.566  36.550  13.436
43581W        W11999   5.422  24.666   2.807
43582W        W12000  26.019  13.647  13.045
43583W        W12001  34.945  44.950   3.159
43584W        W12002  20.215   2.345   3.380
43585W        W12003  36.467  13.310   0.384
43586W        W12004  31.564   6.185   1.851
43587W        W12005  17.743  25.555  13.375
43588W        W12006   8.255   7.878   4.645
43589W        W12007  39.457   4.299  14.299
43590W        W12008  19.264  41.875  13.055
43591W        W12009  25.986   3.238   0.252
43592W        W12010  23.113  28.095  12.850
43593W        W12011  22.668   7.355   5.198
43594W        W12012  20.129  38.561  11.492
43595W        W12013  20.054  25.541   1.313
43596W        W12014  10.836  34.570   3.178
43597W        W12015  26.674  43.437   4.644
43598W        W12016  33.090  14.293  10.909
43599W        W12017  22.235  39.036  11.125
43600W        W12018  25.065  43.353  11.508
43601W        W12019   2.264   4.775  10.025
43602W        W12020   3.821   6.367   2.805
43603W        W12021  27.077   5.798  14.958
43604W        W12022  36.554  38.334   1.872
43605W        W12023  19.705  44.335   0.390
43606W        W12024  42.997  40.923   2.317
43607W        W12025  15.129  36.902  10.993
43608W        W12026  12.149  34.879   1.400
43609W        W12027   7.773  24.115   1.403
43610W        W12028  27.448  30.637  12.838
43611W        W12029  41.492  13.289   1.846
43612W        W12030  27.525  22.007   1.849
43613W        W12031  14.296  32.473  11.520
43614W        W12032  22.523   5.806   3.756
43615W        W12033  14.146  31.105   0.450
43616W        W12034  17.126  22.008   4.808
43617W        W12035  21.729  27.107   0.808
43618W        W12036  15.250  36.576  14.314
43619W        W12037   2.903  40.333   2.193
43620W        W12038  32.077   2.243   0.824
43621W        W12039  18.639  28.176  14.882
43622W        W12040  39.413  38.028  11.495
43623W        W12041  12.783   9.746   4.190
43624W        W12042   5.250  42.002  13.539
43625W        W12043  32.396   7.689  14.824
43626W        W12044  33.946  44.875   4.658
43627W        W12045   3.933   2.350   2.806
43628W        W12046  35.025  30.628  13.385
43629W        W12047  16.184  34.112   1.283
43630W        W12048  38.556  15.229   3.745
43631W        W12049   4.720  40.320   4.136
43632W        W12050  36.584  39.533   9.673
43633W        W12051   4.891  35.929   2.380
43634W        W12052  39.524   0.382  11.544
43635W        W12053  23.676  19.159  10.513
43636W        W12054  11.838  17.674  11.972
43637W        W12055  42.390  29.956  12.411
43638W        W12056  32.121   2.928  11.023
43639W        W12057  25.128  25.049   0.966
43640W        W12058   3.885  41.817   2.279
43641W        W12059  25.091  33.908  14.930
43642W        W12060  33.987  40.024  13.004
43643W        W12061  33.900  13.250  11.073
43644W        W12062  32.929   5.252  13.944
43645W        W12063  32.912   0.382   0.767
43646W        W12064   4.744  19.241   4.229
43647W        W12065  31.480  31.012   0.453
43648W        W12066  16.201  17.303  10.070
43649W        W12067  37.031  15.102   1.368
43650W        W12068  43.984  22.559   1.243
43651W        W12069  23.132  31.923  14.475
43652W        W12070   9.272   3.459  13.837
43653W        W12071  36.375  35.918   4.645
43654W        W12072  37.886  40.042  10.906
43655W        W12073  19.090   2.743  12.006
43656W        W12074   2.314  44.483   3.778
43657W        W12075  15.755   5.831  13.403
43658W        W12076  32.423  37.930   2.402
43659W        W12077   8.740   9.218   2.818
43660W        W12078  31.579   1.885   0.774
43661W        W12079  27.546   9.329  13.928
43662W        W12080  12.802  19.617   2.394
43663W        W12081   0.270  11.848  14.486
43664W        W12082  44.389   5.736  10.632
43665W        W12083   0.477  26.051   2.385
43666W        W12084  18.757   7.722  13.844
43667W        W12085  29.648  31.587  12.002
43668W        W12086  32.052  41.342  13.914
43669W        W12087  11.148   0.285   4.233
43670W        W12088  17.676   4.915  12.851
43671W        W12089  34.548   2.305   4.818
43672W        W12090  27.010  13.108   4.246
43673W        W12091   5.795  44.396   4.310
43674W        W12092  25.610  17.208  14.766
43675W        W12093  24.987   5.783   4.652
43676W        W12094  10.781   8.692   4.287
43677W        W12095   3.766   4.726   4.792
43678W        W12096   9.793  20.219   3.189
43679W        W12097  42.996  13.817  11.975
43680W        W12098   6.409  32.441   4.223
43681W        W12099  16.104  43.824   4.180
43682W        W12100  11.365  39.023  11.005
43683W        W12101  31.646   8.175   2.884
43684W        W12102  21.536   2.909  10.913
43685W        W12103  38.479  26.191   4.136
43686W        W12104  28.593  14.314   4.240
43687W        W12105  39.903  23.726  11.896
43688W        W12106  44.402   7.411  13.997
43689W        W12107  38.924  40.376   5.102
43690W        W12108  28.555   3.222   4.240
43691W        W12109   7.691   9.854  12.407
43692W        W12110  44.809  25.689   1.232
43693W        W12111  44.419  36.479  12.050
43694W        W12112  24.646  25.502   0.244
43695W        W12113  44.976  33.497  10.099
43696W        W12114   8.176   1.940   3.337
43697W        W12115   2.814  15.817   5.198
43698W        W12116  15.694  11.266  11.422
43699W        W12117  30.636  20.616  14.398
43700W        W12118  38.539  16.318   4.145
43701W        W12119  17.078  13.837  10.465
43702W        W12120  33.044  17.085  12.940
43703W        W12121  37.883  10.295   4.309
43704W        W12122  42.806   5.401  13.902
43705W        W12123  42.832  20.261  12.914
43706W        W12124  19.706  31.069   0.420
43707W        W12125  36.007  10.832   4.346
43708W        W12126  14.128   4.778  11.012
43709W        W12127  35.872  31.942  14.458
43710W        W12128  30.998  12.826   1.822
43711W        W12129   6.788  19.139  12.537
43712W        W12130  39.921  41.893   0.412
43713W        W12131  20.740  12.658  11.483
43714W        W12132   6.818  29.544  11.438
43715W        W12133  33.620  20.040  14.355
43716W        W12134  36.063  42.808   3.250
43717W        W12135  34.459  25.608   3.805
43718W        W12136  16.688  20.714  14.338
43719W        W12137  25.964   1.380   2.872
43720W        W12138  42.353  39.883   2.259
43721W        W12139  26.117   9.781  14.364
43722W        W12140  28.444  31.581  11.440
43723W        W12141   0.404   3.908  13.994
43724W        W12142  22.540  39.015   0.948
43725W        W12143  21.568  11.743   3.648
43726W        W12144  30.068   3.364  14.460
43727W        W12145  29.930   0.287   3.184
43728W        W12146  40.342  36.844   2.216
43729W        W12147   2.271  11.810   2.741
43730W        W12148  25.005  39.029   1.243
43731W        W12149  10.303   3.911  13.518
43732W        W12150  30.941  39.517  14.372
43733W        W12151  38.863   5.436   0.743
43734W        W12152   7.712  12.156  14.320
43735W        W12153  22.018  25.594   3.239
43736W        W12154   1.959  28.648  13.013
43737W        W12155  41.963  21.680   0.380
43738W        W12156  18.270   1.922   0.755
43739W        W12157  10.291  12.672   1.405
43740W        W12158  31.624  21.678   2.719
43741W        W12159  13.649   6.184   5.802
43742W        W12160   3.268   7.773  13.804
43743W        W12161   1.263  31.117   0.443
43744W        W12162  36.919  34.055  14.295
43745W        W12163  36.521  23.234  13.895
43746W        W12164   9.756  16.737   1.220
43747W        W12165  14.678  40.546  13.811
43748W        W12166  26.106   0.758   0.904
43749W        W12167  13.647  18.092   3.263
43750W        W12168  23.636  37.576  12.839
43751W        W12169  30.069  37.579  12.577
43752W        W12170   6.392  12.138   0.741
43753W        W12171  22.641  27.009  10.970
43754W        W12172  20.532  32.552  13.474
43755W        W12173  25.172  37.959   1.246
43756W        W12174  28.030  20.536   1.753
43757W        W12175  23.555  38.010   2.329
43758W        W12176  10.789  44.795  13.519
43759W        W12177   9.182  36.514  13.530
43760W        W12178   1.343  11.672  12.504
43761W        W12179  18.128  21.561   4.321
43762W        W12180   5.908  24.577  11.886
43763W        W12181  20.730  27.670  13.449
43764W        W12182  31.067  14.303  11.550
43765W        W12183  13.632  24.518  14.958
43766W        W12184  27.125  20.763   2.676
43767W        W12185   7.740  39.971   0.466
43768W        W12186   4.935   6.322  10.641
43769W        W12187  23.164  19.158  13.440
43770W        W12188   0.775  35.104  11.880
43771W        W12189   6.388   1.953   4.708
43772W        W12190   3.746  21.651   1.903
43773W        W12191  11.698  36.348  12.917
43774W        W12192   1.257  11.817   3.365
43775W        W12193  29.474  22.716  13.992
43776W        W12194  11.242  18.615  11.550
43777W        W12195  16.152   9.684  14.492
43778W        W12196  42.448  31.151   0.286
43779W        W12197  35.992  36.507   3.731
43780W        W12198  15.103  13.615   0.880
43781W        W12199  18.667   6.690  11.555
43782W        W12200   9.835  35.501   2.687
43783W        W12201  41.515  12.734   2.870
43784W        W12202  17.762   5.201  12.469
43785W        W12203  18.640  31.072  14.426
43786W        W12204  24.039  18.682   3.757
43787W        W12205   0.351  24.532  12.530
43788W        W12206  25.218  11.738   1.728
43789W        W12207  18.132   7.206   2.807
43790W        W12208   5.365   0.447   3.274
43791W        W12209  22.072  34.598   3.158
43792W        W12210  11.170  13.826   4.249
43793W        W12211  23.569  13.114   4.826
43794W        W12212   3.242  28.994  12.552
43795W        W12213  22.652  14.105   1.702
43796W        W12214  30.035  27.556  14.894
43797W        W12215  20.748  15.583   2.370
43798W        W12216  21.703  27.449  11.036
43799W        W12217  30.453   1.771  14.028
43800W        W12218  38.014  39.921  11.430
43801W        W12219  39.529  15.211   3.299
43802W        W12220  40.871  32.511   0.780
43803W        W12221  21.568   2.776   0.297
43804W        W12222  20.558   5.898   0.920
43805W        W12223  24.635  40.463  11.488
43806W        W12224  11.650  26.602   2.309
43807W        W12225  16.800  23.503  10.632
43808W        W12226  36.440  20.644   1.733
43809W        W12227  27.491   0.441   3.832
43810W        W12228  44.498  19.053   2.860
43811W        W12229   4.429  32.446  12.475
43812W        W12230  16.675  40.953   3.632
43813W        W12231  16.150  42.348  14.418
43814W        W12232  18.623  11.145   9.448
43815W        W12233  12.340  17.161  10.614
43816W        W12234  34.042  39.510  14.494
43817W        W12235   8.400  16.637   4.132
43818W        W12236  30.997  44.365  12.864
43819W        W12237  17.240  29.482   5.163
43820W        W12238  11.647  30.953   0.251
43821W        W12239  34.112  10.378   0.864
43822W        W12240  32.511  43.361   1.210
43823W        W12241   0.908  30.088   1.324
43824W        W12242  44.358  39.417   0.377
43825W        W12243  12.637  14.669   0.938
43826W        W12244  25.021  42.950   1.894
43827W        W12245  43.472  39.440  11.512
43828W        W12246  23.187  36.891  14.472
43829W        W12247  20.595  19.726   2.338
43830W        W12248  14.184   8.895   1.290
43831W        W12249  32.081  43.380  14.503
43832W        W12250  31.012  39.359   3.358
43833W        W12251  43.444  34.910   1.702
43834W        W12252   5.883  19.140  11.064
43835W        W12253  24.636  11.639  13.448
43836W        W12254  19.099  17.634   0.945
43837W        W12255  15.632   1.377  11.970
43838W        W12256  31.599  31.432  11.924
43839W        W12257  16.211  43.794  12.841
43840W        W12258  36.957  12.773  11.583
43841W        W12259  27.101  18.258   4.777
43842W        W12260  21.755   3.786   3.702
43843W        W12261  39.986  16.628  14.430
43844W        W12262   5.813  14.253   1.251
43845W        W12263   0.267  32.546   1.853
43846W        W12264   6.195  42.368   4.633
43847W        W12265  15.703  14.157   3.190
43848W        W12266  32.952  35.853  11.543
43849W        W12267  15.115  15.793  10.613
43850W        W12268  43.867  19.661   3.208
43851W        W12269   0.815  26.193   0.892
43852W        W12270   0.964  35.106   2.804
43853W        W12271  35.563  25.543   1.238
43854W        W12272  36.357  10.170  13.412
43855W        W12273  24.038  37.846  13.964
43856W        W12274  36.512  30.917  13.837
43857W        W12275  13.261  25.496   1.824
43858W        W12276  18.651  28.661  14.496
43859W        W12277  26.603  20.747  11.576
43860W        W12278  34.077  24.219  11.900
43861W        W12279  30.096   1.970   4.680
43862W        W12280  11.622  13.810  11.898
43863W        W12281  33.594  24.042   1.358
43864W        W12282  30.658  39.950  14.772
43865W        W12283   3.946  18.245   4.611
43866W        W12284  30.448  43.765   2.726
43867W        W12285  19.597   6.378   0.348
43868W        W12286  10.643  18.159  14.377
43869W        W12287  20.206   3.269  11.555
43870W        W12288  20.198  18.197  12.857
43871W        W12289  38.413  10.164   2.714
43872W        W12290  44.303  24.666   1.711
43873W        W12291  13.811  36.873   0.825
43874W        W12292  18.187  32.630   2.741
43875W        W12293  42.319  44.903   3.373
43876W        W12294  30.534  39.559   0.838
43877W        W12295  28.938  23.571  12.372
43878W        W12296  26.112  43.435   1.360
43879W        W12297  20.207   8.877   5.211
43880W        W12298   2.234  11.805  11.022
43881W        W12299  44.997  40.313  14.449
43882W        W12300  26.197   1.383  11.388
43883W        W12301  20.535  44.283  13.816
43884W        W12302  20.084   5.250  13.964
43885W        W12303   1.354  24.164  13.056
43886W        W12304  41.991  18.576  13.436
43887W        W12305  39.420  32.546   2.246
43888W        W12306  20.586  16.662   1.754
43889W        W12307  38.897  43.777  10.904
43890W        W12308  29.438  41.845   2.205
43891W        W12309  41.791  13.803  13.331
43892W        W12310   1.304  23.072  14.842
43893W        W12311  44.754  37.435   2.670
43894W        W12312  17.084  38.944  12.474
43895W        W12313  41.833  23.019   3.680
43896W        W12314  27.021   6.918  11.018
43897W        W12315  28.439  19.770  11.032
43898W        W12316   6.303   0.919   3.799
43899W        W12317  23.078  17.209  12.377
43900W        W12318  19.184  12.648  10.999
43901W        W12319  26.015   1.803  11.506
43902W        W12320  26.649  11.304   3.737
43903W        W12321  27.454  12.132  13.051
43904W        W12322  41.790  13.663   1.274
43905W        W12323  12.245  19.165  11.606
43906W        W12324  21.038  15.313  14.864
43907W        W12325   7.707  21.552  11.604
43908W        W12326  33.081  10.661  13.031
43909W        W12327   1.789  39.963   4.834
43910W        W12328  25.640  15.602  14.969
43911W        W12329  21.513  35.447  10.506
43912W        W12330   2.773  15.648  14.327
43913W        W12331  32.605   1.815   0.754
43914W        W12332  12.316  25.684   4.283
43915W        W12333  43.847  35.106   3.151
43916W        W12334  37.457   4.428   0.398
43917W        W12335  11.695  16.238   3.236
43918W        W12336  10.371  21.530   2.347
43919W        W12337  18.177  38.917   1.301
43920W        W12338  11.316  10.782   4.174
43921W        W12339  11.796  44.367   3.736
43922W        W12340  29.571  18.218  12.566
43923W        W12341  25.987  41.339   3.146
43924W        W12342  41.498  30.118   1.289
43925W        W12343  20.615  38.342  11.531
43926W        W12344  22.551   1.793  12.841
43927W        W12345  23.211  25.506  14.315
43928W        W12346   4.747  25.658   4.739
43929W        W12347  20.207  28.962   4.296
43930W        W12348  14.708  10.717   0.953
43931W        W12349  44.840  23.519   5.799
43932W        W12350   4.888  26.486   4.831
43933W        W12351  25.630  19.104  10.936
43934W        W12352  34.444  13.781  10.505
43935W        W12353  16.130  16.603   0.917
43936W        W12354   8.900  23.648  14.777
43937W        W12355  29.139  33.596   4.137
43938W        W12356  27.472   9.273   3.294
43939W        W12357  37.433  12.309   4.284
43940W        W12358  13.114  22.996  10.437
43941W        W12359   7.838   5.322  14.853
43942W        W12360   8.317   3.868   2.824
43943W        W12361  39.527  14.760   2.887
43944W        W12362  36.978  21.691   1.351
43945W        W12363  10.349  19.549   3.303
43946W        W12364  35.483  12.847   3.774
43947W        W12365  33.545  17.307   3.767
43948W        W12366  33.470  15.720   0.785
43949W        W12367  35.906  14.209  13.952
43950W        W12368  14.236  30.924  12.485
43951W        W12369  20.634   9.377   4.355
43952W        W12370   6.866  39.913   0.464
43953W        W12371   0.892  43.950   0.954
43954W        W12372  41.524  10.678  12.546
43955W        W12373  42.482   8.285   3.648
43956W        W12374   5.288  31.625  14.504
43957W        W12375  21.024  38.476   5.669
43958W        W12376   0.397  21.542  13.524
43959W        W12377   4.806  16.620  14.378
43960W        W12378  12.753   4.425  14.026
43961W        W12379  25.681   7.680   4.276
43962W        W12380  23.170  32.006   0.424
43963W        W12381  38.339  31.992   2.753
43964W        W12382  12.357  12.733  13.386
43965W        W12383  22.561  11.363   2.696
43966W        W12384  28.546   3.441  11.953
43967W        W12385  44.271  26.117   4.809
43968W        W12386  43.947  15.256   4.823
43969W        W12387   7.177  27.605   0.909
43970W        W12388  20.618  44.958  10.575
43971W        W12389  23.202  19.770   4.622
43972W        W12390  19.170  13.249  12.846
43973W        W12391   0.778  11.818   1.779
43974W        W12392  11.626  38.371  11.092
43975W        W12393  44.279   5.762   1.733
43976W        W12394  29.629  37.930  11.129
43977W        W12395  36.380  27.175  13.441
43978W        W12396  18.750   8.354   1.299
43979W        W12397  39.399   2.790  14.851
43980W        W12398  16.809  24.077   4.195
43981W        W12399  27.547   5.780   4.235
43982W        W12400  37.570  20.242  12.360
43983W        W12401  24.150  18.695   5.227
43984W        W12402   5.201  42.870   1.371
43985W        W12403  42.971   0.411  12.503
43986W        W12404  34.427  43.814   4.311
43987W        W12405   4.833   6.343  13.961
43988W        W12406   1.843   4.410   1.367
43989W        W12407   7.181  21.698  12.409
43990W        W12408  41.386  38.551   5.190
43991W        W12409  43.020  14.691  10.445
43992W        W12410  14.677   3.308   3.746
43993W        W12411  24.622  30.070   0.309
43994W        W12412  40.012  35.021   0.402
43995W        W12413  40.901  38.836   3.218
43996W        W12414   7.784   4.942   5.310
43997W        W12415  23.054  14.103  14.966
43998W        W12416   8.198  25.480   3.184
43999W        W12417  34.579  42.894  12.997
44000W        W12418  40.418   0.430   1.264
44001W        W12419  39.393  42.347   0.367
44002W        W12420  19.281  27.941  14.436
44003W        W12421  28.015  30.940   1.365
44004W        W12422  37.409  35.521   4.275
44005W        W12423  13.248  35.881   2.766
44006W        W12424   6.703  18.566  13.833
44007W        W12425  11.301  33.128  14.912
44008W        W12426  21.522  25.698   4.142
44009W        W12427  40.336  10.275  13.834
44010W        W12428  34.035   4.248  11.921
44011W        W12429  12.298  34.083  10.977
44012W        W12430  18.054  21.519  10.994
44013W        W12431  32.032  38.497  12.515
44014W        W12432  14.187   7.185   5.245
44015W        W12433  21.234   4.925  14.312
44016W        W12434  41.889  41.950  13.054
44017W        W12435  24.016  39.065  10.001
44018W        W12436   9.294  29.446  14.015
44019W        W12437   8.279  10.804   2.222
44020W        W12438   4.728   2.383   3.161
44021W        W12439  36.521  42.796  13.044
44022W        W12440  34.937  34.393   3.818
44023W        W12441   8.862  24.215  13.004
44024W        W12442   5.244  23.230   1.818
44025W        W12443   2.768  40.029   4.196
44026W        W12444  29.953  44.931   0.826
44027W        W12445  24.108  19.736  10.627
44028W        W12446  34.083  42.937  13.461
44029W        W12447  20.696  43.451   0.741
44030W        W12448  43.888  38.846  12.359
44031W        W12449  18.123  37.561   4.289
44032W        W12450  14.198  17.718  13.368
44033W        W12451  31.546  25.587   4.285
44034W        W12452   1.281  43.455  12.417
44035W        W12453  40.486  42.785  11.955
44036W        W12454   2.338   2.368   1.876
44037W        W12455  39.416  42.372   3.184
44038W        W12456  40.859  17.628  12.012
44039W        W12457   3.312  32.541  10.481
44040W        W12458  14.302   6.324   9.999
44041W        W12459  29.440   0.890  10.091
44042W        W12460  11.721  24.010  11.872
44043W        W12461  16.618  24.534  12.078
44044W        W12462  25.658  37.084   1.304
44045W        W12463   7.278   9.152  13.975
44046W        W12464  35.040  21.247  12.417
44047W        W12465  32.051  42.922   4.752
44048W        W12466  36.888  16.683  12.530
44049W        W12467   2.420   1.277  12.851
44050W        W12468   3.218  26.654  12.567
44051W        W12469  37.396  42.311   1.238
44052W        W12470   4.221  41.488  14.013
44053W        W12471   6.400  17.285   9.997
44054W        W12472  27.669   5.933   1.450
44055W        W12473  26.651  30.046  11.920
44056W        W12474  36.945  26.561   3.671
44057W        W12475   5.768  26.518  10.941
44058W        W12476   2.380  24.486  10.600
44059W        W12477  12.721   8.826  13.028
44060W        W12478  35.103  12.726   0.442
44061W        W12479  27.039  44.843   2.330
44062W        W12480  18.582   0.330  12.478
44063W        W12481  14.308  44.461  12.469
44064W        W12482   0.337  42.778  14.326
44065W        W12483  22.247   5.417  12.046
44066W        W12484  26.603  10.154  13.456
44067W        W12485  40.961  38.012   1.808
44068W        W12486  21.516  18.065   1.260
44069W        W12487  23.046  39.831   1.710
44070W        W12488   8.664  44.472  10.415
44071W        W12489   8.244  34.461   0.786
44072W        W12490  20.229  44.849   2.306
44073W        W12491  30.164  26.019   3.651
44074W        W12492  15.654  17.791   0.353
44075W        W12493   7.682  15.161  13.795
44076W        W12494   9.249   5.919   3.646
44077W        W12495  11.799  40.333   3.660
44078W        W12496   3.789  42.485   0.779
44079W        W12497   4.700  37.402   1.784
44080W        W12498  28.482  15.199  10.635
44081W        W12499  41.934  35.084   9.936
44082W        W12500  29.546   6.236   2.222
44083W        W12501  20.628   1.860   0.796
44084W        W12502  34.946  27.947  11.552
44085W        W12503  18.768  29.160  13.883
44086W        W12504   4.716  41.426  13.930
44087W        W12505   1.426  17.767   3.846
44088W        W12506  36.479  25.125   4.228
44089W        W12507  14.292  40.379  13.548
44090W        W12508  41.368  31.047   2.188
44091W        W12509   9.654  23.144   2.827
44092W        W12510  31.068   6.206   4.768
44093W        W12511  15.765  30.514  11.523
44094W        W12512  33.925  11.819   4.252
44095W        W12513   4.757   3.784  12.572
44096W        W12514   3.388  40.381   3.269
44097W        W12515  31.904  22.037  10.586
44098W        W12516  13.144  18.601   2.273
44099W        W12517   9.856   7.260   3.346
44100W        W12518   4.850  30.957   4.649
44101W        W12519  23.672  39.046   3.322
44102W        W12520  29.643  31.433   0.766
44103W        W12521  29.940  40.861   3.194
44104W        W12522   0.326  32.501  13.043
44105W        W12523  42.923  42.979   4.825
44106W        W12524  23.070  20.727   1.770
44107W        W12525  27.473  36.025   0.844
44108W        W12526  38.046  23.195   3.286
44109W        W12527  10.150  21.569  13.396
44110W        W12528  12.294  18.136   4.722
44111W        W12529  40.984  40.362  13.494
44112W        W12530  31.016   4.408   4.227
44113W        W12531  21.633  26.093   4.352
44114W        W12532   6.736  31.928   2.747
44115W        W12533  43.896  10.732  12.894
44116W        W12534  34.983  44.856  13.052
44117W        W12535  18.141  39.830   4.697
44118W        W12536  17.283  16.729   0.850
44119W        W12537   1.336  21.080   1.794
44120W        W12538  34.504  25.708   4.815
44121W        W12539   9.211  41.364  13.930
44122W        W12540   5.326  15.740   2.837
44123W        W12541  38.928  21.134   4.816
44124W        W12542   0.365  19.645   1.932
44125W        W12543   7.283  38.480  13.056
44126W        W12544  13.821  31.499  10.634
44127W        W12545  18.190  37.405   3.832
44128W        W12546   3.288  32.919  14.350
44129W        W12547  12.334  39.869   2.767
44130W        W12548   0.823   4.297   1.725
44131W        W12549  11.745  13.341  12.065
44132W        W12550  35.063  41.865   2.240
44133W        W12551  10.170  18.169   3.232
44134W        W12552  39.389  39.998   3.196
44135W        W12553  39.010  29.486  11.560
44136W        W12554  43.983   1.467  14.977
44137W        W12555   9.238  25.640  11.922
44138W        W12556  39.973  35.887  13.849
44139W        W12557  26.563  17.275   0.915
44140W        W12558  28.068   6.713  13.964
44141W        W12559  15.632  11.308   1.778
44142W        W12560  37.546   1.460  13.546
44143W        W12561  19.702  32.582  11.499
44144W        W12562   3.321   6.913  14.771
44145W        W12563  17.104  27.195   0.414
44146W        W12564  24.552   5.413   1.731
44147W        W12565  15.169  23.103  14.891
44148W        W12566   8.821  22.556   2.327
44149W        W12567  38.539  19.127  12.074
44150W        W12568   1.427  20.611   0.445
44151W        W12569  16.227  12.331  14.383
44152W        W12570  43.896  21.253  10.055
44153W        W12571   3.282  30.068  12.534
44154W        W12572  18.653   7.333   3.161
44155W        W12573  10.204   7.721  14.781
44156W        W12574   7.221  38.473   3.361
44157W        W12575  17.213  30.139   2.186
44158W        W12576  41.030  30.413  14.810
44159W        W12577  31.646  41.031  12.953
44160W        W12578  18.590  13.116  14.940
44161W        W12579  17.762   8.765  12.911
44162W        W12580  37.887   9.210   4.696
44163W        W12581  33.533  14.194  14.505
44164W        W12582   7.855  21.586   0.315
44165W        W12583  14.120  24.100  11.377
44166W        W12584  33.530  17.564  13.057
44167W        W12585  34.390   2.848   3.381
44168W        W12586  15.317   2.725   1.431
44169W        W12587  34.892  17.253   4.784
44170W        W12588  19.086  41.803  14.952
44171W        W12589  10.359  17.212  12.422
44172W        W12590   8.826  28.116  14.510
44173W        W12591  43.298  23.603  11.945
44174W        W12592  32.136  43.341  12.085
44175W        W12593  25.215  29.481  13.979
44176W        W12594  33.394  19.540  11.573
44177W        W12595  31.543  30.151  13.326
44178W        W12596   9.765  37.554   3.795
44179W        W12597  10.714   2.228  13.333
44180W        W12598  36.378  42.948  11.533
44181W        W12599  21.181  23.169  12.462
44182W        W12600   6.213  21.625  11.612
44183W        W12601  10.370   1.935  11.127
44184W        W12602  12.799  20.265  10.577
44185W        W12603  37.572  16.617  10.416
44186W        W12604  28.028  16.193   3.319
44187W        W12605  10.840  27.017  10.435
44188W        W12606  12.669   8.390  12.438
44189W        W12607  20.096  24.560   1.352
44190W        W12608  44.390  26.065   0.362
44191W        W12609  27.001  14.743  12.959
44192W        W12610   7.886  41.371   4.232
44193W        W12611   7.229  40.844  11.399
44194W        W12612   4.750  21.723   0.744
44195W        W12613  37.512  24.167  13.028
44196W        W12614  13.683  35.453   1.931
44197W        W12615  11.806  40.397   4.824
44198W        W12616  27.491  27.653   3.784
44199W        W12617  22.063  20.596  12.003
44200W        W12618  22.672  38.916   2.886
44201W        W12619  42.914  20.195  10.536
44202W        W12620   5.280  23.556   3.867
44203W        W12621  34.405  42.788   3.276
44204W        W12622  31.603   8.828  12.073
44205W        W12623  19.723  32.938   1.721
44206W        W12624  42.367  11.739  11.026
44207W        W12625  39.011  12.845   0.396
44208W        W12626  13.602  15.651   3.227
44209W        W12627  30.165  13.838   1.220
44210W        W12628  34.873  33.550  11.900
44211W        W12629  17.097  20.246   3.150
44212W        W12630   0.302  29.094  12.564
44213W        W12631   6.912  26.684  14.979
44214W        W12632  17.753  10.768  11.393
44215W        W12633  12.140  13.814  13.522
44216W        W12634  43.971  15.740  11.059
44217W        W12635  28.481  34.077  13.983
44218W        W12636  22.999  39.335   3.267
44219W        W12637  18.178  26.992   1.288
44220W        W12638  24.651  25.182  12.974
44221W        W12639  12.686  18.079   3.330
44222W        W12640   0.801  39.915  14.844
44223W        W12641   5.870  25.203   4.774
44224W        W12642  17.307  42.317   2.309
44225W        W12643   0.285  37.862  13.001
44226W        W12644  31.066   7.219   1.450
44227W        W12645  29.105  39.397   3.239
44228W        W12646   1.386  22.746   3.640
44229W        W12647  31.123  24.155   2.791
44230W        W12648  34.382  38.356   4.794
44231W        W12649  34.993  19.215  10.490
44232W        W12650  32.031  22.038  10.044
44233W        W12651  27.546  18.159  12.575
44234W        W12652  14.195   7.287  12.447
44235W        W12653  16.748  29.630   4.144
44236W        W12654  42.899  10.371   4.303
44237W        W12655   4.740  26.584  11.534
44238W        W12656  14.720  29.018  10.558
44239W        W12657  28.133  44.786   2.760
44240W        W12658  24.592  20.115   2.306
44241W        W12659  16.196   1.418   3.312
44242W        W12660  35.947  37.058   4.349
44243W        W12661  34.965  33.058   3.662
44244W        W12662  35.911   6.798   1.266
44245W        W12663   3.760  37.951  14.851
44246W        W12664  44.758  14.188   3.641
44247W        W12665  36.553  31.984  13.895
44248W        W12666  30.144  37.085  13.902
44249W        W12667  30.516  32.062   4.818
44250W        W12668  43.941  12.823  12.910
44251W        W12669   7.713  43.348   4.686
44252W        W12670  42.416   3.881   2.228
44253W        W12671  32.110   9.387  13.895
44254W        W12672  13.664  34.110   0.335
44255W        W12673  21.713   6.727   0.858
44256W        W12674  10.719  40.985   0.887
44257W        W12675  13.228  14.162  13.498
44258W        W12676   5.326   2.316  12.573
44259W        W12677  10.773  35.891   3.718
44260W        W12678  36.933  33.079   0.438
44261W        W12679  24.219  32.057  14.972
44262W        W12680  41.371   8.696  13.532
44263W        W12681  27.954  16.178  13.932
44264W        W12682  14.269  11.312   3.151
44265W        W12683  32.580  42.512   1.314
44266W        W12684  42.005  32.603  11.920
44267W        W12685  26.569  17.597   1.256
44268W        W12686   2.467   3.719  13.505
44269W        W12687  40.843   6.875   3.220
44270W        W12688  23.095  30.423   0.367
44271W        W12689   0.757  20.749  11.460
44272W        W12690  41.528   4.807   1.399
44273W        W12691  30.118  43.792   4.207
44274W        W12692  20.110  27.134  13.465
44275W        W12693  24.986  40.847   0.789
44276W        W12694  42.872  20.672   0.908
44277W        W12695  38.451  15.243   2.221
44278W        W12696   1.292  30.970   2.213
44279W        W12697  16.586  42.318  10.956
44280W        W12698  12.250   2.826   0.275
44281W        W12699  37.377   5.326   4.707
44282W        W12700  35.897  40.875  10.979
44283W        W12701  44.424  24.124   4.267
44284W        W12702   9.738  24.563   4.189
44285W        W12703  17.281  13.155   1.707
44286W        W12704  21.697  39.865  11.977
44287W        W12705  39.064  33.503   2.402
44288W        W12706   3.258  13.128   0.446
44289W        W12707  17.073  39.811  10.610
44290W        W12708   9.754  27.475   4.171
44291W        W12709  30.640  12.671  11.545
44292W        W12710   2.858   4.372  11.069
44293W        W12711   5.408  15.256  11.590
44294W        W12712  20.244  19.132  13.836
44295W        W12713  21.025  26.028   9.996
44296W        W12714  13.180  35.378  14.021
44297W        W12715  16.236  38.870   4.156
44298W        W12716  39.459  38.411  10.483
44299W        W12717  15.202   0.864   1.809
44300W        W12718  12.702   0.264  11.915
44301W        W12719   3.423   2.415  13.941
44302W        W12720   9.242   5.751  14.932
44303W        W12721  22.673  32.068  10.982
44304W        W12722  10.796  29.982  14.465
44305W        W12723  14.779  33.389  12.348
44306W        W12724  39.444  38.846   2.772
44307W        W12725  39.066  38.443   5.158
44308W        W12726  36.902  34.114  13.807
44309W        W12727  27.561  33.085   1.788
44310W        W12728   7.802  33.037  11.861
44311W        W12729  26.083  26.060  13.982
44312W        W12730   5.221  18.732   1.762
44313W        W12731  27.976   8.781   2.899
44314W        W12732  31.436   7.728  13.801
44315W        W12733  26.128  29.537  13.414
44316W        W12734  16.110   3.214   4.663
44317W        W12735   9.233  26.508  12.503
44318W        W12736  37.495  20.219   5.261
44319W        W12737  16.196  28.107   0.849
44320W        W12738  32.612  16.257   4.189
44321W        W12739  20.225  34.388   0.318
44322W        W12740  12.856  21.097   0.325
44323W        W12741  24.063  34.022  11.540
44324W        W12742  39.553  19.604   1.231
44325W        W12743  14.829  35.062   2.258
44326W        W12744   5.254  31.902   2.828
44327W        W12745  16.313   5.743  10.626
44328W        W12746  20.728  35.426   4.662
44329W        W12747  21.203  43.375   4.183
44330W        W12748   0.428  31.979   4.692
44331W        W12749  13.712  24.213  13.417
44332W        W12750  14.173  11.798  13.425
44333W        W12751  15.683   1.847  11.946
44334W        W12752   3.273  10.765  13.337
44335W        W12753  41.459  32.393  14.937
44336W        W12754  41.836  44.822  12.393
44337W        W12755   7.353  26.057   2.737
44338W        W12756  26.648  23.591   0.940
44339W        W12757   1.434  22.232  11.897
44340W        W12758  23.646  19.567  14.800
44341W        W12759  14.815  16.802   1.788
44342W        W12760   7.850  32.037   3.762
44343W        W12761  10.190   6.770   4.196
44344W        W12762  25.489   4.315  10.515
44345W        W12763  22.113  19.598  12.992
44346W        W12764   4.355   8.405   4.802
44347W        W12765  40.026  34.024   0.442
44348W        W12766  29.922  40.040   2.847
44349W        W12767  16.072  13.113  13.825
44350W        W12768  21.043  36.019  12.932
44351W        W12769  21.529  11.644  12.967
44352W        W12770  20.582  21.720   4.116
44353W        W12771  23.588  20.092   4.313
44354W        W12772   8.766   8.401   0.893
44355W        W12773   9.313  30.501  13.805
44356W        W12774  34.878  26.193  14.368
44357W        W12775  21.143   3.255   2.808
44358W        W12776  39.978  30.518  12.083
44359W        W12777  32.058  43.294   4.636
44360W        W12778  10.349  16.636   1.323
44361W        W12779  15.310  23.108  13.877
44362W        W12780  29.011   3.851  14.843
44363W        W12781  17.683  41.401   4.250
44364W        W12782  32.929   6.804  14.390
44365W        W12783  17.604  35.500  12.418
44366W        W12784   0.932  44.489   2.213
44367W        W12785  24.987  22.708   4.134
44368W        W12786   3.907  30.603   1.913
44369W        W12787  36.423  42.798   0.292
44370W        W12788  35.413  38.557  12.903
44371W        W12789  13.107  26.011   4.757
44372W        W12790  25.680   4.344  12.375
44373W        W12791  37.345  22.109  13.027
44374W        W12792  24.552  26.147   4.296
44375W        W12793  44.406  19.600  14.917
44376W        W12794  31.415  10.187   3.756
44377W        W12795  35.918  18.644   1.791
44378W        W12796  22.069  40.465  14.344
44379W        W12797  33.396  21.100   3.259
44380W        W12798  13.682  36.535   4.791
44381W        W12799   4.263  15.778   4.141
44382W        W12800   5.306  12.351  13.027
44383W        W12801   3.915  22.007   5.182
44384W        W12802  23.190   8.319   4.707
44385W        W12803  36.358  31.569   3.701
44386W        W12804  19.669  12.759   2.222
44387W        W12805   4.228  29.563   4.652
44388W        W12806   2.957  43.404   0.274
44389W        W12807  24.073  20.741  12.992
44390W        W12808  30.585  12.702   4.616
44391W        W12809  17.624   0.759   0.951
44392W        W12810  17.697   0.808  14.888
44393W        W12811  19.156  11.680   9.659
44394W        W12812  37.540  22.510  14.930
44395W        W12813  15.254  17.195   0.949
44396W        W12814   3.750   9.210  11.037
44397W        W12815  40.457  25.045   4.684
44398W        W12816  25.539  26.057   4.609
44399W        W12817  27.064  29.554   4.191
44400W        W12818   2.414  35.858  13.988
44401W        W12819  16.588  28.184   1.795
44402W        W12820  37.892  31.442  12.406
44403W        W12821   0.873  40.807   4.199
44404W        W12822  20.109  17.111  11.914
44405W        W12823  43.295  12.131   5.253
44406W        W12824  35.596  10.671  11.475
44407W        W12825   9.804  32.522  11.889
44408W        W12826  42.388  36.876  14.987
44409W        W12827  39.065  23.719   4.262
44410W        W12828   3.956  44.407  13.471
44411W        W12829   2.837  32.059   1.852
44412W        W12830  38.441  14.154   2.745
44413W        W12831  28.103  19.039   1.906
44414W        W12832  15.593  15.100   0.464
44415W        W12833  18.115   3.278   3.778
44416W        W12834  17.710  30.158   0.747
44417W        W12835  34.588  24.511  10.991
44418W        W12836  40.489  42.452  14.819
44419W        W12837  44.857  29.480  10.923
44420W        W12838  42.351  25.572   2.760
44421W        W12839   1.333  10.377  10.505
44422W        W12840  15.611  24.212   3.844
44423W        W12841   5.413  42.802  10.020
44424W        W12842  43.789  43.425  13.452
44425W        W12843  15.315  33.061  10.937
44426W        W12844  31.563  43.895  11.878
44427W        W12845   3.810  26.116  10.494
44428W        W12846  25.013  41.818  14.490
44429W        W12847  41.963   3.808   3.371
44430W        W12848  18.655  23.098   0.857
44431W        W12849  37.996  33.979   0.850
44432W        W12850  31.627  33.046   4.166
44433W        W12851  34.055  22.563  11.402
44434W        W12852  24.025   1.387  13.028
44435W        W12853  13.197  42.792   0.446
44436W        W12854  36.041  12.331   0.844
44437W        W12855   8.777  43.812   1.450
44438W        W12856  18.183  44.902   4.642
44439W        W12857  31.580  17.232   3.354
44440W        W12858  10.812  21.733   2.199
44441W        W12859  29.592  32.449  12.830
44442W        W12860  33.494   2.286  11.598
44443W        W12861  31.918   9.152  13.457
44444W        W12862   9.723  38.990   1.234
44445W        W12863  34.073  25.008   2.409
44446W        W12864  41.409  10.719   0.769
44447W        W12865  35.370  38.569   3.677
44448W        W12866  31.582  32.418  12.476
44449W        W12867  36.932  43.861  11.000
44450W        W12868  34.914  17.650   3.670
44451W        W12869   0.465  19.545   4.213
44452W        W12870  11.797  16.259   2.312
44453W        W12871  20.225  43.375   0.381
44454W        W12872  21.047  36.474   1.769
44455W        W12873  29.023   8.251   3.672
44456W        W12874   5.820  12.675   2.664
44457W        W12875  30.645  14.313   3.269
44458W        W12876   1.906  39.822  11.611
44459W        W12877  23.551  42.855  11.444
44460W        W12878   3.922  42.330  13.990
44461W        W12879  18.704  21.239  13.933
44462W        W12880  23.998  32.078   1.407
44463W        W12881  43.372   6.881   1.773
44464W        W12882  21.724  28.629  10.421
44465W        W12883  43.962  34.447   4.124
44466W        W12884  42.924  40.879  11.439
44467W        W12885  23.583  34.994  11.391
44468W        W12886   0.294  15.715   4.694
44469W        W12887  41.858  23.627  13.795
44470W        W12888   0.470  18.701  11.866
44471W        W12889   6.226   4.315   3.734
44472W        W12890   5.391  17.092   9.964
44473W        W12891   1.820  43.848   1.931
44474W        W12892  20.042  44.844   0.446
44475W        W12893  38.364  26.632   0.797
44476W        W12894  16.188  32.468   0.921
44477W        W12895   6.388  43.815  12.579
44478W        W12896  36.347   5.743   3.366
44479W        W12897  24.138  17.242   2.358
44480W        W12898  34.000   0.915  10.611
44481W        W12899   0.764  28.098   5.161
44482W        W12900   6.369  19.086  14.784
44483W        W12901  23.563  29.057  13.990
44484W        W12902  21.520  21.248   4.621
44485W        W12903   6.379   9.884   4.647
44486W        W12904   5.417  13.706   4.606
44487W        W12905  17.229   5.783   0.336
44488W        W12906  25.547  21.069  13.334
44489W        W12907  11.258  20.175  10.455
44490W        W12908  12.832  13.754  11.950
44491W        W12909  14.106  34.894  14.458
44492W        W12910  32.141  23.714  13.968
44493W        W12911   5.768  30.519  13.794
44494W        W12912   4.251  37.909  13.026
44495W        W12913  13.824  30.030   4.732
44496W        W12914  40.887   2.405   3.238
44497W        W12915  34.990  15.240   4.834
44498W        W12916   5.351  20.130  14.395
44499W        W12917  20.089   7.342  14.806
44500W        W12918  30.604  43.359  11.544
44501W        W12919  12.712  35.496   3.744
44502W        W12920  42.914  24.028   1.218
44503W        W12921  42.318  32.033  14.796
44504W        W12922  43.944  22.526   3.682
44505W        W12923  28.185  11.832  13.017
44506W        W12924  11.349  18.098  12.379
44507W        W12925  16.612  28.575   1.822
44508W        W12926   9.870  30.118  14.446
44509W        W12927  18.757  24.670   0.746
44510W        W12928  21.253  42.010  10.551
44511W        W12929  40.939  31.067   4.142
44512W        W12930  32.408  23.135   3.254
44513W        W12931  20.068  31.938   2.852
44514W        W12932  30.060   8.169   4.736
44515W        W12933  23.698   7.861  13.917
44516W        W12934   8.862  16.174  12.458
44517W        W12935  13.246  22.025   3.175
44518W        W12936  12.326  29.665  11.556
44519W        W12937  32.595  25.998   2.841
44520W        W12938  24.030   6.707  13.504
44521W        W12939  32.585  34.611   1.448
44522W        W12940   8.375   8.816   1.776
44523W        W12941  29.462  37.858   0.318
44524W        W12942  38.956  19.723   9.954
44525W        W12943  43.499  12.322   0.250
44526W        W12944  36.889  28.479   4.244
44527W        W12945  16.682   7.192   0.378
44528W        W12946   8.335  13.668   3.650
44529W        W12947  44.359  39.997   1.801
44530W        W12948  34.484  17.110   0.839
44531W        W12949  20.731  41.788   2.295
44532W        W12950  27.537  36.851  10.479
44533W        W12951  15.804  24.095   3.190
44534W        W12952  30.101  41.531   1.231
44535W        W12953  29.127  40.386  14.354
44536W        W12954  13.621   0.834  12.485
44537W        W12955   8.285  11.205   1.772
44538W        W12956  29.980   8.866  10.582
44539W        W12957   5.330  24.102  11.426
44540W        W12958   5.261  33.496  11.456
44541W        W12959   7.698  18.253  10.983
44542W        W12960  33.079  19.673   4.195
44543W        W12961  25.667  23.009  12.395
44544W        W12962  16.159  35.408  14.278
44545W        W12963  34.011  15.761   0.913
44546W        W12964  43.488  44.431  12.028
44547W        W12965   0.309  33.932   1.233
44548W        W12966   8.687  31.085  14.287
44549W        W12967  41.841  24.226  10.122
44550W        W12968  38.001  11.221   4.310
44551W        W12969  38.437  16.627  13.374
44552W        W12970  37.428  30.508  14.007
44553W        W12971  41.451  35.444   2.678
44554W        W12972  35.860  12.320  12.487
44555W        W12973  40.976  13.285  12.913
44556W        W12974  21.731  29.497  14.331
44557W        W12975  27.019  11.858   2.376
44558W        W12976  22.636  16.672  14.278
44559W        W12977  13.831  43.279  10.530
44560W        W12978   6.905  40.871  14.799
44561W        W12979  41.807  12.300   2.347
44562W        W12980  37.428   9.785  13.804
44563W        W12981  13.821  23.648   2.884
44564W        W12982  43.960  14.594   4.699
44565W        W12983  12.154   8.404   0.418
44566W        W12984  32.136  27.578   5.134
44567W        W12985  15.772  29.153   4.312
44568W        W12986  23.603  12.825  14.867
44569W        W12987   5.931  10.334   2.667
44570W        W12988  26.500  10.254  10.120
44571W        W12989  33.423   2.314  12.440
44572W        W12990  40.978  13.146   2.309
44573W        W12991  30.035  31.529   0.445
44574W        W12992   5.700  37.392   1.227
44575W        W12993  32.529  25.103   2.863
44576W        W12994  20.079  39.030  13.989
44577W        W12995   5.213   6.903   0.396
44578W        W12996   3.941   8.779  11.931
44579W        W12997  30.435  21.254  11.447
44580W        W12998  16.291  25.600  10.914
44581W        W12999  42.429   0.469  11.092
44582W        W13000  42.421  11.251   4.204
44583W        W13001  41.383  19.094  14.894
44584W        W13002  32.012   3.256   2.204
44585W        W13003  35.402  42.424   1.427
44586W        W13004  20.173   7.343   5.260
44587W        W13005  17.139  10.660  11.993
44588W        W13006  21.636  36.547  10.421
44589W        W13007  37.920  33.927  14.807
44590W        W13008  27.147  29.479  10.622
44591W        W13009  35.077  11.705   1.766
44592W        W13010  32.434  39.944   1.376
44593W        W13011  25.674   6.765   0.770
44594W        W13012  40.879  17.128  13.348
44595W        W13013   4.711  33.068  12.838
44596W        W13014   0.908  23.103  13.836
44597W        W13015  42.877  14.627  12.483
44598W        W13016   0.351  18.199  11.101
44599W        W13017  38.418  23.122   2.186
44600W        W13018  15.650   3.845   3.355
44601W        W13019  34.398  28.950   1.918
44602W        W13020   1.972  38.893   1.738
44603W        W13021   0.406  23.644  13.866
44604W        W13022  20.097  37.997   0.310
44605W        W13023   2.273  15.764  11.912
44606W        W13024  26.474  25.014   4.603
44607W        W13025  11.693  12.278  13.990
44608W        W13026  25.615   7.886   3.386
44609W        W13027  28.618  43.473   0.462
44610W        W13028   9.771  29.085  13.017
44611W        W13029  27.661  20.262   4.687
44612W        W13030  10.310  14.223  11.082
44613W        W13031  16.301  31.543   2.864
44614W        W13032  14.616  25.169   3.349
44615W        W13033  26.603  32.139  12.072
44616W        W13034  25.636  24.081   2.875
44617W        W13035  21.240   4.343   1.308
44618W        W13036   3.379  44.915   3.764
44619W        W13037  43.864  21.254  12.473
44620W        W13038   2.331  30.561   2.761
44621W        W13039   6.184  11.184   0.766
44622W        W13040  13.705  18.592   3.641
44623W        W13041  18.066   6.779   1.318
44624W        W13042  39.537  21.231   2.673
44625W        W13043  19.252  41.359  10.544
44626W        W13044  24.118  31.896   0.791
44627W        W13045  24.213  28.506   4.334
44628W        W13046   6.220  42.915   1.847
44629W        W13047  17.785   2.787  12.849
44630W        W13048  34.112  10.272  10.518
44631W        W13049  24.630   2.932   3.755
44632W        W13050  19.265   5.436   2.730
44633W        W13051  33.593  27.683   4.259
44634W        W13052  13.767  44.299   0.916
44635W        W13053  26.013  21.664  12.501
44636W        W13054  26.622  41.364  14.834
44637W        W13055  18.717  39.862  10.441
44638W        W13056  29.556  31.951   1.226
44639W        W13057  20.255  34.912   3.271
44640W        W13058  20.231  34.588   4.179
44641W        W13059  27.613  19.575   4.291
44642W        W13060  26.194  29.588   4.243
44643W        W13061   4.808  16.798  12.062
44644W        W13062   1.333  33.086   3.861
44645W        W13063  14.705  13.132   0.477
44646W        W13064  40.482  30.484   4.647
44647W        W13065  43.848  30.605   3.173
44648W        W13066  38.353  33.032  10.991
44649W        W13067  35.102   5.892   0.431
44650W        W13068  17.247   4.224  14.437
44651W        W13069  40.890  13.225   4.701
44652W        W13070  24.128  18.086   0.886
44653W        W13071   7.716  19.544  10.599
44654W        W13072  13.179   5.282   2.861
44655W        W13073  39.348  30.014   0.861
44656W        W13074  10.273  19.564  13.430
44657W        W13075   7.844  14.243   5.097
44658W        W13076   3.388  16.627   3.771
44659W        W13077   1.435  16.088   3.786
44660W        W13078   9.206  23.707  11.037
44661W        W13079  20.060  18.257   4.238
44662W        W13080  25.003  39.961  12.947
44663W        W13081   5.839   0.795  12.467
44664W        W13082  25.060  13.258  12.351
44665W        W13083  34.050  21.083  13.375
44666W        W13084  39.412  30.045  14.911
44667W        W13085  15.234  16.305  11.021
44668W        W13086   5.813  39.949   2.838
44669W        W13087  26.129  42.348  11.584
44670W        W13088  23.012  10.339  14.763
44671W        W13089  30.960  27.172   1.383
44672W        W13090  25.006  43.498  10.916
44673W        W13091  31.114  17.183   0.895
44674W        W13092   8.664  28.941   2.834
44675W        W13093   0.961  26.640   2.282
44676W        W13094  23.044  15.222   0.854
44677W        W13095  35.461  38.847  13.456
44678W        W13096  18.124  42.889   3.865
44679W        W13097  20.108  37.028  14.471
44680W        W13098  31.070  14.177  10.435
44681W        W13099   6.382  14.722   3.343
44682W        W13100  14.757   3.357  13.402
44683W        W13101  35.900   3.935   1.335
44684W        W13102   0.432  23.114   1.694
44685W        W13103  14.213  28.483   0.945
44686W        W13104  39.902  10.288  11.490
44687W        W13105  43.285  16.209   0.810
44688W        W13106  14.742  38.841  10.590
44689W        W13107  34.471   2.318   0.340
44690W        W13108  10.266   3.885   2.874
44691W        W13109  19.143  15.604   1.723
44692W        W13110   3.308  18.587   0.836
44693W        W13111  35.923  40.335  10.944
44694W        W13112   4.253   5.203  14.333
44695W        W13113  18.080   6.391   1.315
44696W        W13114  33.506  35.023  10.434
44697W        W13115   5.403  31.539  13.413
44698W        W13116  27.648  22.213  12.902
44699W        W13117   4.211  16.147  11.027
44700W        W13118  31.982  29.974  12.039
44701W        W13119  14.805  38.352   2.310
44702W        W13120  18.617  19.250   2.796
44703W        W13121  12.146  40.799   2.858
44704W        W13122   3.891  28.519   0.938
44705W        W13123   3.364  24.185  10.524
44706W        W13124   2.315  39.033  10.460
44707W        W13125  10.257  44.921   3.870
44708W        W13126  41.899  42.819  13.817
44709W        W13127  42.904  14.200  11.870
44710W        W13128   6.182  27.112  12.040
44711W        W13129   4.816  37.921  14.299
44712W        W13130  21.713  36.389   3.246
44713W        W13131  23.124  11.150   1.763
44714W        W13132  18.238  27.472   2.813
44715W        W13133  38.989  34.889   2.224
44716W        W13134   0.923  43.992  11.932
44717W        W13135  12.697  17.619  12.439
44718W        W13136  42.412  24.541  11.987
44719W        W13137  16.742  44.452  10.538
44720W        W13138  41.371   8.779   1.331
44721W        W13139   7.297  37.929   0.869
44722W        W13140  39.011  14.801   3.224
44723W        W13141   7.222  31.415  14.931
44724W        W13142  26.645  44.467   2.828
44725W        W13143  21.601  18.660  13.009
44726W        W13144  28.104  10.322  12.882
44727W        W13145  38.371  40.458   0.740
44728W        W13146  23.023  24.102   1.247
44729W        W13147  12.334  28.440   2.254
44730W        W13148  13.160  32.062  14.346
44731W        W13149  44.385  39.444  14.513
44732W        W13150  40.876  35.368   2.375
44733W        W13151  30.580  34.993  13.339
44734W        W13152  30.439  31.113   3.871
44735W        W13153  43.849   2.779   0.878
44736W        W13154  41.807  23.059   3.257
44737W        W13155  16.736  23.522  12.022
44738W        W13156  33.419   5.709   3.251
44739W        W13157  44.293  28.006  10.909
44740W        W13158  36.531  21.058  10.463
44741W        W13159  33.008   6.224   2.842
44742W        W13160   4.825  13.124  10.970
44743W        W13161  10.809  35.965   2.874
44744W        W13162   9.220  19.681   0.477
44745W        W13163  18.265  35.448   1.302
44746W        W13164  37.015  27.676   4.286
44747W        W13165   7.179  10.795  14.492
44748W        W13166  30.920  27.557   1.377
44749W        W13167  20.170  36.882  11.859
44750W        W13168  30.146  35.453   3.711
44751W        W13169  21.178  24.522  11.554
44752W        W13170  31.025  24.196   1.828
44753W        W13171  40.500  21.185   4.711
44754W        W13172   6.341  43.803  11.098
44755W        W13173   1.794  31.489   4.227
44756W        W13174  26.144  43.339   4.274
44757W        W13175  39.454  10.663   1.354
44758W        W13176  40.987  20.619   3.814
44759W        W13177  34.479  20.154  12.022
44760W        W13178   4.713  15.663   3.783
44761W        W13179  12.669   5.909   0.731
44762W        W13180  42.346  41.311  12.890
44763W        W13181  22.157  31.067  13.319
44764W        W13182   1.411  38.526  10.963
44765W        W13183   0.450  19.048   0.886
44766W        W13184  28.968  10.226   4.243
44767W        W13185  29.036  44.378   0.365
44768W        W13186   5.858  28.470   0.894
44769W        W13187  33.466  41.818  12.376
44770W        W13188  27.068  18.712   0.852
44771W        W13189  28.640  11.156   1.315
44772W        W13190  37.580  28.624  14.279
44773W        W13191   8.664   9.662   1.411
44774W        W13192  34.047  12.213  14.437
44775W        W13193  33.090  42.302   1.261
44776W        W13194  40.443  39.485  11.908
44777W        W13195  11.276  41.921   0.448
44778W        W13196   2.381  10.373   0.400
44779W        W13197  41.913   0.789  10.960
44780W        W13198  13.170  21.192  13.977
44781W        W13199  40.352  16.603  14.776
44782W        W13200  16.115  21.131   2.869
44783W        W13201  32.441  42.287   0.959
44784W        W13202   0.837  16.732   2.183
44785W        W13203  21.571   1.310  13.364
44786W        W13204  40.054  27.013  12.914
44787W        W13205  22.580  18.072  13.408
44788W        W13206  10.378  32.527   1.707
44789W        W13207  24.562  34.457   3.869
44790W        W13208   3.286  24.076   4.222
44791W        W13209  29.028  28.660   0.961
44792W        W13210  30.548  15.168   1.253
44793W        W13211  10.169  28.964  13.443
44794W        W13212  36.988  13.808   1.897
44795W        W13213  19.728  12.692   0.346
44796W        W13214  34.025  38.399   0.892
44797W        W13215   6.226   8.682   3.252
44798W        W13216   2.905  40.920  11.488
44799W        W13217  35.873   1.772   0.450
44800W        W13218  28.113  44.318   3.717
44801W        W13219  42.788   2.817  12.559
44802W        W13220  25.099  22.568  11.897
44803W        W13221  23.199  28.582   2.224
44804W        W13222  26.951   6.244  14.468
44805W        W13223  22.011  36.378   3.786
44806W        W13224   6.392   0.480  13.507
44807W        W13225  15.622  38.337   0.437
44808W        W13226  36.492  40.389   2.207
44809W        W13227   9.742   9.339   4.688
44810W        W13228   9.667  10.825  11.857
44811W        W13229  17.191  14.670  13.329
44812W        W13230   5.330   1.850  13.353
44813W        W13231  16.734   8.673  14.828
44814W        W13232   9.292  26.071  14.882
44815W        W13233  13.268  13.324   0.402
44816W        W13234  30.982  40.941   2.755
44817W        W13235   7.823   2.926   1.816
44818W        W13236  25.078  42.891  13.817
44819W        W13237  16.687  35.100  13.985
44820W        W13238   9.170   0.319  13.506
44821W        W13239   1.938  40.053   1.901
44822W        W13240  21.754  42.956   3.754
44823W        W13241  44.323  38.334  12.043
44824W        W13242  14.140  26.577   0.914
44825W        W13243  25.211  44.821   1.898
44826W        W13244  14.119  10.374   4.252
44827W        W13245   9.773  24.497  10.621
44828W        W13246  39.330   1.386  10.446
44829W        W13247  43.353  37.347  12.473
44830W        W13248  39.936  35.880   3.735
44831W        W13249  40.415  18.767  10.994
44832W        W13250  22.113   2.917   4.151
44833W        W13251  23.577  43.947  11.490
44834W        W13252   0.339  23.633  13.350
44835W        W13253  43.969  25.515  12.044
44836W        W13254  27.143  14.816  10.437
44837W        W13255  10.646  24.164   1.910
44838W        W13256   3.351  42.997  14.984
44839W        W13257  31.579  25.205   2.844
44840W        W13258  17.784   3.941   1.397
44841W        W13259   3.266  27.118  10.529
44842W        W13260  14.744  34.558   1.879
44843W        W13261  38.887  38.856   2.720
44844W        W13262  37.901  32.115  10.412
44845W        W13263  14.185   7.796   3.381
44846W        W13264  38.489  40.883  12.472
44847W        W13265   4.398  27.621  13.942
44848W        W13266  24.508  41.421   2.738
44849W        W13267  16.660  36.039  10.475
44850W        W13268  19.262   6.393   2.375
44851W        W13269   9.825   0.439   1.867
44852W        W13270  15.322  34.019  11.455
44853W        W13271  13.610  27.600   0.255
44854W        W13272   5.810  31.987   0.312
44855W        W13273  21.591  24.145   4.818
44856W        W13274  20.260  13.632   2.886
44857W        W13275  25.139   3.313   0.955
44858W        W13276  39.398  20.751   1.915
44859W        W13277  43.793  37.541   3.675
44860W        W13278  38.542  18.255  11.982
44861W        W13279  18.712  26.470  13.026
44862W        W13280   2.956  20.594  11.973
44863W        W13281  22.132  12.612  14.355
44864W        W13282   8.752  44.869  10.494
44865W        W13283  14.784  24.200   0.453
44866W        W13284  36.960  28.940  10.539
44867W        W13285  42.398  10.637  12.355
44868W        W13286  15.301   9.813   0.816
44869W        W13287  29.547   9.296  11.425
44870W        W13288  30.158  32.948  13.358
44871W        W13289  29.106   5.350  13.388
44872W        W13290   5.369   0.424  12.960
44873W        W13291  42.894  41.859   4.147
44874W        W13292  15.314  28.022  12.838
44875W        W13293  31.569  17.073   1.877
44876W        W13294   9.649   2.910   0.393
44877W        W13295  42.461  27.097  10.575
44878W        W13296   5.835  22.739   0.468
44879W        W13297   1.466  40.920   1.450
44880W        W13298  12.670  36.474  13.852
44881W        W13299  38.060  12.360  12.373
44882W        W13300  15.126  42.294  12.555
44883W        W13301  18.565  17.094  12.427
44884W        W13302  13.836  18.057  13.827
44885W        W13303  24.683  36.444  14.296
44886W        W13304  39.464  14.743   2.224
44887W        W13305  27.691  10.249   2.247
44888W        W13306  41.512  34.002   1.320
44889W        W13307  23.014  24.721   0.300
44890W        W13308   0.813  32.504  13.514
44891W        W13309  23.233   0.271   4.622
44892W        W13310   6.399  42.862   4.216
44893W        W13311   5.206  21.039  12.558
44894W        W13312  13.238  13.214   3.835
44895W        W13313  28.593   1.794  11.445
44896W        W13314  12.270   2.728   4.266
44897W        W13315  43.515  34.554  12.370
44898W        W13316  18.196   9.824   2.711
44899W        W13317  32.914  41.988   4.659
44900W        W13318  37.403  14.808   2.356
44901W        W13319  44.344   5.275   1.336
44902W        W13320  27.164  32.440   3.691
44903W        W13321  18.163  33.391  14.378
44904W        W13322   1.405  35.456  14.445
44905W        W13323  13.834  22.998   4.233
44906W        W13324   0.396  32.912  12.388
44907W        W13325   6.411  22.240  13.806
44908W        W13326   1.954  10.281   1.780
44909W        W13327  19.554  39.906   3.800
44910W        W13328  23.704  15.611  10.428
44911W        W13329  36.006  25.714   5.139
44912W        W13330  38.512  24.637   1.746
44913W        W13331   1.913  30.996   4.804
44914W        W13332  14.226   4.418  13.411
44915W        W13333  28.526   3.777  13.382
44916W        W13334  22.054   6.272  13.906
44917W        W13335  14.815  32.444  13.369
44918W        W13336  28.535   6.207  11.515
44919W        W13337   8.370  19.245  13.064
44920W        W13338  16.596  23.506  14.365
44921W        W13339  19.544  44.430   3.668
44922W        W13340  41.874  20.588  12.373
44923W        W13341  36.869  18.274   2.380
44924W        W13342  37.488  18.283   0.362
44925W        W13343   5.701  30.490  14.841
44926W        W13344  43.477  28.016  10.046
44927W        W13345  14.793   2.774   1.272
44928W        W13346  13.779  34.481   2.808
44929W        W13347  19.155  44.796   2.828
44930W        W13348  10.831   3.893  13.830
44931W        W13349  21.689  18.271  11.576
44932W        W13350  19.045  25.009   3.262
44933W        W13351  22.232  18.647  10.445
44934W        W13352  16.258  25.963   0.799
44935W        W13353   2.829  43.317   1.863
44936W        W13354  12.242  31.917   1.295
44937W        W13355  40.022  25.963  11.899
44938W        W13356   3.323  30.508  14.023
44939W        W13357  37.511   5.279  12.411
44940W        W13358  31.935  25.658  12.867
44941W        W13359  38.391  13.206   0.253
44942W        W13360  38.850  33.920  10.039
44943W        W13361  37.951   5.865  13.451
44944W        W13362  13.614   2.317   4.628
44945W        W13363  21.139   3.408   1.278
44946W        W13364  20.757  11.212  11.568
44947W        W13365  24.073  31.633  10.621
44948W        W13366  30.546  42.328  12.000
44949W        W13367  41.520  12.694  11.978
44950W        W13368   6.722  30.996  11.393
44951W        W13369  35.096  14.644  12.851
44952W        W13370  41.839  44.836  13.020
44953W        W13371  24.599  28.598  13.046
44954W        W13372  42.864  31.977  14.418
44955W        W13373   9.878   2.807   3.740
44956W        W13374  16.783  16.151  12.489
44957W        W13375   4.383  20.116   2.673
44958W        W13376  17.728  43.878  12.484
44959W        W13377  20.120  27.172   3.689
44960W        W13378  44.274  10.710   0.735
44961W        W13379  40.469   2.761  11.112
44962W        W13380   4.730   1.323   4.773
44963W        W13381  16.782  12.135  12.956
44964W        W13382  29.126  36.393  14.411
44965W        W13383  34.375   0.436  14.027
44966W        W13384  26.576  31.085  12.002
44967W        W13385  12.714  10.643  13.960
44968W        W13386  42.842  43.015  14.794
44969W        W13387  21.681  32.947   0.775
44970W        W13388  41.389  32.523   1.850
44971W        W13389  16.179  14.615   3.272
44972W        W13390  38.976  12.218   2.298
44973W        W13391  22.695   2.366   1.305
44974W        W13392  30.118  38.074  14.013
44975W        W13393  29.992   3.411   2.347
44976W        W13394  18.694   2.749   0.821
44977W        W13395  37.899  41.040   3.689
44978W        W13396   7.314  43.467  14.011
44979W        W13397  13.210  35.431   2.183
44980W        W13398  26.679  18.247  10.085
44981W        W13399  33.959  42.513   3.280
44982W        W13400  15.115  26.154   0.756
44983W        W13401   4.273  41.461   0.409
44984W        W13402   6.366   9.343  12.963
44985W        W13403   1.446  17.108  14.953
44986W        W13404  29.547  28.619  13.377
44987W        W13405  23.509  22.020   2.268
44988W        W13406  27.569  15.240   2.232
44989W        W13407  10.765  23.503  14.501
44990W        W13408   7.745   3.831  11.398
44991W        W13409  19.220  39.829  13.415
44992W        W13410  16.162  21.242  13.315
44993W        W13411  43.340   3.770  13.463
44994W        W13412   2.314  38.403  11.515
44995W        W13413  27.974  33.086  13.887
44996W        W13414  10.790   6.813  11.476
44997W        W13415  39.038  43.411  11.416
44998W        W13416  23.100  11.701   1.360
44999W        W13417  43.505  17.243   0.382
45000W        W13418   6.238  27.972   2.779
45001W        W13419  20.528  11.673  13.537
45002W        W13420   0.794  25.482  13.022
45003W        W13421  43.405  10.828  13.914
45004W        W13422  17.768  27.116  13.312
45005W        W13423   6.426  25.077  14.935
45006W        W13424  31.487  35.555   0.750
45007W        W13425   4.390  37.842  11.456
45008W        W13426  26.997   4.873  14.320
45009W        W13427  35.056   4.349  12.354
45010W        W13428  36.426  13.749   2.330
45011W        W13429  10.812  44.917  11.549
45012W        W13430  19.272  19.780   0.770
45013W        W13431   4.328  34.486   0.930
45014W        W13432  12.341  21.174   2.835
45015W        W13433  26.056   5.866  11.083
45016W        W13434  14.322  14.654  14.428
45017W        W13435  14.622  35.427  12.846
45018W        W13436  19.709  26.130   1.846
45019W        W13437  23.676   0.852  11.907
45020W        W13438  38.060   4.334   4.277
45021W        W13439  40.974  23.603   2.191
45022W        W13440  42.493  42.310  13.958
45023W        W13441  19.148  24.618  14.882
45024W        W13442  26.205   9.736  13.396
45025W        W13443  42.420   7.347  13.904
45026W        W13444  40.449  15.190  13.012
45027W        W13445  24.610  25.195  14.783
45028W        W13446  24.000  17.281  12.391
45029W        W13447  43.940  10.741   3.280
45030W        W13448  34.444  41.536   1.747
45031W        W13449  24.617  10.343  14.943
45032W        W13450  10.218  26.061   4.698
45033W        W13451  34.022  11.674   1.240
45034W        W13452  22.583  40.976   2.278
45035W        W13453  20.181   7.252  12.488
45036W        W13454   6.710  11.715   0.961
45037W        W13455  19.674  41.986  13.805
45038W        W13456  40.524  30.029  14.795
45039W        W13457  43.892   3.933  14.808
45040W        W13458  13.842  25.486  14.436
45041W        W13459  37.430   5.228  14.002
45042W        W13460  12.775   9.707   3.673
45043W        W13461  23.580  40.868  12.879
45044W        W13462   1.339   2.423   3.772
45045W        W13463  44.480  19.191   1.240
45046W        W13464   3.935   2.806  14.776
45047W        W13465  34.946  41.945   4.123
45048W        W13466  13.341  14.786  12.577
45049W        W13467  11.177  41.523   2.761
45050W        W13468  36.055  20.040  11.872
45051W        W13469   1.832  29.948   0.788
45052W        W13470  27.981  10.348   2.237
45053W        W13471  38.859   3.729   2.888
45054W        W13472  30.519  34.046  10.889
45055W        W13473  43.293  17.201  14.276
45056W        W13474   6.300  33.520   5.269
45057W        W13475  19.602   1.349  10.469
45058W        W13476  43.888  41.295   2.697
45059W        W13477   9.661  15.784  14.389
45060W        W13478  27.658  20.658  13.899
45061W        W13479  19.206  39.943   1.286
45062W        W13480  24.084   5.393   4.210
45063W        W13481  43.393   1.356  14.908
45064W        W13482  18.758  10.353  13.792
45065W        W13483  24.992  31.004  11.509
45066W        W13484  36.075  14.679  10.545
45067W        W13485  44.421  14.233   9.445
45068W        W13486  32.002   0.471  12.426
45069W        W13487  43.999   9.194   2.699
45070W        W13488  28.570  13.744  14.823
45071W        W13489  12.843   4.328  14.903
45072W        W13490  35.531  18.293   3.355
45073W        W13491  23.201   9.326  10.996
45074W        W13492  22.082  28.178  10.487
45075W        W13493  42.473  40.037   2.840
45076W        W13494  33.546   7.409  13.369
45077W        W13495  37.384  36.070  12.930
45078W        W13496  41.297  22.720   1.834
45079W        W13497  30.475  30.523  14.508
45080W        W13498  31.056  18.567  12.897
45081W        W13499  33.050  15.305  10.407
45082W        W13500  35.559  17.656   1.318
45083W        W13501   3.432  33.543  12.952
45084W        W13502  33.523  12.131  14.803
45085W        W13503  30.621  38.357   0.419
45086W        W13504   6.287  10.207  11.493
45087W        W13505   7.878  24.552  14.861
45088W        W13506  28.931  36.999  11.965
45089W        W13507  10.673  34.944   3.744
45090W        W13508  43.455  21.183   1.428
45091W        W13509  38.043  38.035   9.463
45092W        W13510   5.427  14.618   1.394
45093W        W13511  13.794   9.320   2.283
45094W        W13512   0.413  29.631   4.172
45095W        W13513  21.641   4.262   4.354
45096W        W13514  13.666  39.326  13.533
45097W        W13515  11.741  22.133  13.917
45098W        W13516  27.037  13.308   0.274
45099W        W13517  15.721  16.096   0.781
45100W        W13518  27.190   2.777   2.798
45101W        W13519  38.552  37.346   1.212
45102W        W13520  25.097  20.052  11.448
45103W        W13521   3.413  13.186  11.919
45104W        W13522  22.096  13.290  11.894
45105W        W13523  23.683  28.035  10.943
45106W        W13524  19.204  27.486   3.651
45107W        W13525  24.566  30.475   0.759
45108W        W13526  38.398  29.531   0.303
45109W        W13527   0.433   6.816  13.402
45110W        W13528   1.935  38.451  13.045
45111W        W13529  34.517  24.715  13.481
45112W        W13530  30.918  23.628  12.944
45113W        W13531  11.336   4.939   2.835
45114W        W13532  27.577  22.521  13.974
45115W        W13533   1.396  33.064   4.161
45116W        W13534   4.931  14.720  11.587
45117W        W13535  23.543  41.393  12.870
45118W        W13536  16.804   0.866  14.432
45119W        W13537   4.790  27.660  14.784
45120W        W13538  23.636  20.227  14.311
45121W        W13539  29.135  10.228   3.195
45122W        W13540   1.344   6.856   1.218
45123W        W13541  14.172   9.814   1.906
45124W        W13542  39.440  19.152  14.969
45125W        W13543  38.027  11.145  13.918
45126W        W13544  43.930  20.731   3.641
45127W        W13545  39.365  44.918   1.254
45128W        W13546   0.258  14.219   0.832
45129W        W13547  15.280   5.756  10.490
45130W        W13548   8.190   3.417  10.906
45131W        W13549  34.091  11.635   4.597
45132W        W13550  43.379  33.064   0.461
45133W        W13551  19.774  17.623   1.362
45134W        W13552  13.125  17.270  12.052
45135W        W13553  37.901  37.896   5.175
45136W        W13554  32.942  25.685   2.315
45137W        W13555  19.607  14.626   9.650
45138W        W13556   8.793  12.151  10.571
45139W        W13557  33.568  23.203   2.727
45140W        W13558  33.121  10.743   3.168
45141W        W13559  27.615   5.203   1.264
45142W        W13560  32.573   7.744  13.347
45143W        W13561  35.062  35.036  14.390
45144W        W13562  25.198  35.946   3.713
45145W        W13563   3.447  25.055  13.013
45146W        W13564   5.696  30.032  12.003
45147W        W13565  44.979  25.620  13.478
45148W        W13566  24.070   6.209  11.446
45149W        W13567  30.518   3.266  14.507
45150W        W13568  22.636  11.176  14.955
45151W        W13569   6.893  33.557  13.392
45152W        W13570   2.412  39.518   4.778
45153W        W13571   3.244  27.047  11.374
45154W        W13572  14.679   3.267  10.588
45155W        W13573  24.138  34.608   1.346
45156W        W13574   8.846  23.017  14.294
45157W        W13575  42.456  35.911  10.514
45158W        W13576  11.359  28.180  14.903
45159W        W13577  35.855  27.113  11.898
45160W        W13578   9.364  34.039  14.368
45161W        W13579  20.257   5.199  11.596
45162W        W13580  37.538  36.553   1.277
45163W        W13581  42.391  27.464  10.503
45164W        W13582  22.580  33.040  10.130
45165W        W13583  19.660   7.693   5.112
45166W        W13584   1.853   0.312  12.878
45167W        W13585  21.172  26.006  11.406
45168W        W13586  20.693  14.278   5.121
45169W        W13587   0.455  37.513  10.964
45170W        W13588   4.287  20.167  13.909
45171W        W13589  31.482   4.402  12.986
45172W        W13590   3.952  21.129  11.572
45173W        W13591  16.113  39.324  10.537
45174W        W13592  16.654  17.207   1.746
45175W        W13593   0.381  43.452  12.846
45176W        W13594  28.176  20.674  11.609
45177W        W13595  43.912  40.046   3.633
45178W        W13596   1.776  44.914   0.742
45179W        W13597  21.025  44.421  14.462
45180W        W13598  27.154  18.784   0.452
45181W        W13599  43.280   0.444  11.128
45182W        W13600   7.698  41.330   0.413
45183W        W13601  14.171  42.912  10.151
45184W        W13602   9.293  32.393  10.474
45185W        W13603  17.133  39.376  12.357
45186W        W13604  33.982  37.366   9.976
45187W        W13605  44.450  35.414  12.084
45188W        W13606  30.542  36.507   3.692
45189W        W13607  26.558  33.093  13.859
45190W        W13608  16.239  37.867  11.869
45191W        W13609  35.957  23.224   3.838
45192W        W13610  33.104  35.880   0.950
45193W        W13611  26.191   5.715  13.515
45194W        W13612  15.793  26.023   2.732
45195W        W13613  30.084  12.804   1.860
45196W        W13614  27.689  27.472  11.955
45197W        W13615  39.846  16.091   3.355
45198W        W13616  22.147   2.895  13.467
45199W        W13617  40.862  29.575   4.132
45200W        W13618   9.806  24.085   3.319
45201W        W13619  38.852  41.969  12.969
45202W        W13620  27.082   1.734  13.532
45203W        W13621  42.390  11.238   5.257
45204W        W13622  36.879  34.089  12.858
45205W        W13623   3.721  19.554   3.849
45206W        W13624  18.182  38.530  10.640
45207W        W13625  40.948  43.942   2.725
45208W        W13626  22.716  24.682   3.153
45209W        W13627  18.244   5.926   0.259
45210W        W13628   5.394  14.596  12.507
45211W        W13629  42.358  11.847   5.315
45212W        W13630  35.958  32.986  14.882
45213W        W13631   4.339  18.697   0.324
45214W        W13632  33.624  33.022  14.976
45215W        W13633  42.856  32.077  14.028
45216W        W13634  43.289  39.981   4.344
45217W        W13635  44.769  41.002   5.668
45218W        W13636  32.608  18.074   4.250
45219W        W13637   8.325  37.002  10.415
45220W        W13638   2.727  32.134   2.182
45221W        W13639  25.501  26.483   2.738
45222W        W13640  20.164  27.962  12.907
45223W        W13641  19.264  43.483  14.844
45224W        W13642  13.802  35.092  11.521
45225W        W13643  39.546  12.292   1.790
45226W        W13644  39.987  40.976   2.789
45227W        W13645  19.616   9.764  14.770
45228W        W13646  43.788  22.609  11.036
45229W        W13647  28.518  24.556  10.600
45230W        W13648  38.415  35.857  14.433
45231W        W13649  30.957  10.283  14.774
45232W        W13650  30.065   3.869  12.353
45233W        W13651  35.583  27.180   3.817
45234W        W13652   7.340   1.391   4.182
45235W        W13653  12.732   5.408   2.363
45236W        W13654  28.977   1.743  10.541
45237W        W13655  29.481  22.649   4.700
45238W        W13656  14.306  15.322   2.320
45239W        W13657  22.550   0.928   2.316
45240W        W13658  29.057  26.513  12.441
45241W        W13659  13.235  40.949  14.030
45242W        W13660  36.904  36.373  10.456
45243W        W13661  26.569  14.107  14.454
45244W        W13662  18.186  27.941  12.024
45245W        W13663   5.692  26.638   4.198
45246W        W13664  17.205  19.108  14.424
45247W        W13665   9.238  30.924   4.616
45248W        W13666  31.937  32.135  14.408
45249W        W13667  18.253  27.503  12.412
45250W        W13668  36.030  29.597  13.057
45251W        W13669   9.882  10.270   3.334
45252W        W13670  13.836  20.531   1.713
45253W        W13671  28.132  11.356  14.294
45254W        W13672  12.147  42.905  11.940
45255W        W13673  15.193  25.017  12.483
45256W        W13674   5.753   4.447  12.445
45257W        W13675  15.303   8.306  14.395
45258W        W13676  13.221  35.068   4.813
45259W        W13677  19.774   9.262  13.883
45260W        W13678  41.956  38.356   0.783
45261W        W13679   5.312   8.226  14.999
45262W        W13680   9.748   5.884   3.709
45263W        W13681  36.375  32.055  14.308
45264W        W13682  15.138  10.709   0.950
45265W        W13683  41.798  37.957   4.727
45266W        W13684  39.554   7.805   0.370
45267W        W13685  22.245   4.399  14.004
45268W        W13686   9.212  24.026   3.247
45269W        W13687  42.021  34.573   1.300
45270W        W13688  27.119  40.468  12.902
45271W        W13689  36.964  15.171   4.291
45272W        W13690  28.625  22.507  13.336
45273W        W13691  14.320  44.937   0.745
45274W        W13692  30.013  29.430  10.572
45275W        W13693  42.812  13.729   1.882
45276W        W13694  18.213  29.611   3.866
45277W        W13695  12.162   2.885   2.279
45278W        W13696  16.203   2.934  11.971
45279W        W13697  35.101  14.732   3.826
45280W        W13698  39.550   5.764  12.905
45281W        W13699   7.811  25.619  12.823
45282W        W13700  39.388  38.341  12.562
45283W        W13701   8.380  17.795   0.819
45284W        W13702  16.265  30.916  11.374
45285W        W13703  10.150  23.675   0.924
45286W        W13704  42.508  24.041  10.088
45287W        W13705  10.378  34.390   4.249
45288W        W13706   1.908   2.829   1.694
45289W        W13707  28.612  15.269   1.928
45290W        W13708   0.403  27.623  11.470
45291W        W13709  42.815  12.126  10.921
45292W        W13710  35.093  42.976  10.058
45293W        W13711  23.988  25.025  11.481
45294W        W13712   2.725  13.702  11.887
45295W        W13713  16.707  30.129   4.302
45296W        W13714  36.473   7.746   0.276
45297W        W13715  33.411  42.779   2.320
45298W        W13716  13.177  16.306   3.308
45299W        W13717  21.262  28.512  13.810
45300W        W13718  10.260  44.284   4.790
45301W        W13719  42.875  19.683  14.472
45302W        W13720  14.325  11.149  14.794
45303W        W13721  17.729  37.005   1.885
45304W        W13722  38.394  26.987  13.345
45305W        W13723   1.832  20.143   2.369
45306W        W13724  19.232   1.390   0.332
45307W        W13725   3.459   1.834   4.609
45308W        W13726  19.616  28.002  11.587
45309W        W13727   6.751  16.586  13.927
45310W        W13728  12.835  15.257  13.914
45311W        W13729  16.197  19.748  14.361
45312W        W13730  10.370  30.984  11.127
45313W        W13731  36.961  22.521   3.260
45314W        W13732   1.271  20.041  12.883
45315W        W13733  42.972  17.068   2.745
45316W        W13734  13.699   2.399   1.810
45317W        W13735   7.862  35.000  12.846
45318W        W13736  18.664  37.378  10.572
45319W        W13737  34.089  13.303  12.050
45320W        W13738   9.357  17.709  13.880
45321W        W13739  43.832  32.090   1.233
45322W        W13740  12.208  40.975   1.831
45323W        W13741   2.764  30.578   3.761
45324W        W13742  30.960  22.051   4.718
45325W        W13743  28.526  14.617   3.290
45326W        W13744  30.994   8.689   3.831
45327W        W13745  30.952  13.824  11.986
45328W        W13746  44.845  42.902  14.015
45329W        W13747  12.164  35.532   4.204
45330W        W13748   2.842  37.942   2.215
45331W        W13749  33.405  10.765  12.915
45332W        W13750   8.833  27.687   3.758
45333W        W13751  38.991  34.534  14.384
45334W        W13752   1.876  15.670   9.949
45335W        W13753  18.725  26.578   4.630
45336W        W13754  10.251  22.716  13.028
45337W        W13755  34.016  41.837   1.787
45338W        W13756   6.689   9.382  12.520
45339W        W13757  20.679  32.116   4.787
45340W        W13758  25.166  13.618   2.220
45341W        W13759   5.230   5.420  13.948
45342W        W13760  22.580   3.215  13.794
45343W        W13761  38.051   7.730  12.370
45344W        W13762  18.747  17.189  11.599
45345W        W13763   9.344  38.900  12.349
45346W        W13764   0.969  15.641   2.682
45347W        W13765  39.058   7.801   1.269
45348W        W13766  40.490  42.802   5.143
45349W        W13767  10.368  13.192  11.049
45350W        W13768   9.865  44.333  10.017
45351W        W13769  15.653   3.243  14.783
45352W        W13770  43.852  34.584  13.385
45353W        W13771  41.442   3.792   1.317
45354W        W13772  37.544  10.325  12.059
45355W        W13773  43.838  19.710   3.797
45356W        W13774  15.163  14.615   0.429
45357W        W13775   4.322   8.272   3.678
45358W        W13776  28.472  18.729   2.783
45359W        W13777  19.647  12.838  14.028
45360W        W13778   1.755  44.482   1.918
45361W        W13779  32.506   0.400   1.834
45362W        W13780  31.067   8.734   4.231
45363W        W13781   8.693  41.487   0.253
45364W        W13782  17.141  26.044   0.381
45365W        W13783  40.424  27.666   4.656
45366W        W13784  38.434   6.243  13.370
45367W        W13785  35.021  28.008  12.390
45368W        W13786  38.897  10.211   4.786
45369W        W13787  26.169  18.562  11.519
45370W        W13788  43.458  31.426  12.853
45371W        W13789   1.753  17.095   0.770
45372W        W13790  41.446  35.540   2.271
45373W        W13791   4.229  27.690  12.343
45374W        W13792  38.488  32.526  11.455
45375W        W13793  28.604  32.902   0.356
45376W        W13794  28.648  29.049   2.291
45377W        W13795  29.576  25.580  12.938
45378W        W13796  11.300   1.318  10.478
45379W        W13797   8.319   8.177  14.027
45380W        W13798  21.076   9.326   2.394
45381W        W13799  40.536  13.198   4.115
45382W        W13800  18.674  28.498   3.187
45383W        W13801  34.404  14.723  10.579
45384W        W13802   6.776  41.026  11.565
45385W        W13803  27.994  19.131   3.783
45386W        W13804  25.478  20.752  14.759
45387W        W13805  29.454   3.439   4.223
45388W        W13806  19.735   9.877   1.388
45389W        W13807  29.990  34.546   3.338
45390W        W13808  20.229  12.286  11.023
45391W        W13809   5.319   5.896  12.559
45392W        W13810  43.393  42.984  10.461
45393W        W13811   2.921  38.980   1.338
45394W        W13812  22.690  19.242  13.884
45395W        W13813  14.689  13.276   1.342
45396W        W13814  39.008  17.303  13.834
45397W        W13815  25.131  24.633  14.960
45398W        W13816  12.693   0.866  11.491
45399W        W13817  19.612  33.906   2.220
45400W        W13818  21.734  26.203   2.783
45401W        W13819  32.452  26.161   0.385
45402W        W13820  15.589  16.145   0.346
45403W        W13821  16.172  19.109  13.869
45404W        W13822  15.127   9.168  13.856
45405W        W13823  31.055  20.602  11.541
45406W        W13824   3.873  14.146  12.388
45407W        W13825  38.931   4.876  10.990
45408W        W13826  14.692  42.828   3.826
45409W        W13827  21.124  33.433  11.898
45410W        W13828   7.303   9.367  14.319
45411W        W13829  13.761  38.511  14.443
45412W        W13830  31.614  44.294  10.507
45413W        W13831   1.473  27.544   4.203
45414W        W13832  12.159  22.172  10.460
45415W        W13833  18.650  20.224  11.529
45416W        W13834  16.660  28.184   0.839
45417W        W13835  11.703  28.491   1.397
45418W        W13836  10.384  13.200  12.413
45419W        W13837   9.195  10.260  10.470
45420W        W13838  34.937  32.039   1.717
45421W        W13839  28.977  25.474  10.889
45422W        W13840  41.849  16.182  13.458
45423W        W13841  28.625  39.402  14.898
45424W        W13842   7.821  20.593   1.306
45425W        W13843  37.862  34.383  11.382
45426W        W13844  10.193  35.597   0.923
45427W        W13845  20.217  11.653   1.806
45428W        W13846  36.074   9.262   3.344
45429W        W13847   7.379   1.772   1.893
45430W        W13848  29.592  19.698  12.843
45431W        W13849  31.446   9.778  14.881
45432W        W13850  41.961  24.984  14.019
45433W        W13851  18.622  15.315  12.953
45434W        W13852  33.949  11.267  14.424
45435W        W13853  41.832   7.821  11.613
45436W        W13854   9.780  21.066  13.023
45437W        W13855  43.437   8.735  14.465
45438W        W13856  30.575  30.449  12.079
45439W        W13857  37.989  24.992  13.793
45440W        W13858  34.533  28.484   4.237
45441W        W13859   2.319  13.122  14.018
45442W        W13860  40.517  28.571   3.256
45443W        W13861   1.429  38.990   3.200
45444W        W13862   6.384  27.535  14.018
45445W        W13863  18.581  34.044  14.811
45446W        W13864   4.416  35.528  11.052
45447W        W13865  43.460  12.290   3.692
45448W        W13866  28.637  39.547  14.454
45449W        W13867   6.717   5.862   2.738
45450W        W13868  16.294   1.865  12.083
45451W        W13869  28.564  30.444   3.824
45452W        W13870   3.781  13.345   1.902
45453W        W13871  17.061  10.294   1.826
45454W        W13872  13.313  18.783   0.353
45455W        W13873  27.461  40.974   2.777
45456W        W13874  15.208  24.987  11.402
45457W        W13875  20.646  39.995   4.141
45458W        W13876  33.576  32.912   9.989
45459W        W13877  38.858  32.142  12.838
45460W        W13878  41.513   0.347   4.174
45461W        W13879  22.747  13.789  14.897
45462W        W13880  43.864  41.364  12.996
45463W        W13881  14.661  29.056   3.254
45464W        W13882  24.174  35.980   5.183
45465W        W13883  37.446  17.194   1.231
45466W        W13884   6.290  12.318   4.716
45467W        W13885  21.519  35.423   4.800
45468W        W13886   3.859  17.574   2.220
45469W        W13887   0.386   6.310  13.515
45470W        W13888  39.909  28.439  13.856
45471W        W13889  40.822  38.052   3.662
45472W        W13890  23.103  30.104  14.351
45473W        W13891   0.332  37.982  14.367
45474W        W13892  17.176  36.035  12.501
45475W        W13893  13.180  19.777   9.990
45476W        W13894  31.548   2.886   1.336
45477W        W13895   2.461   7.182   3.200
45478W        W13896  14.742  11.195  13.444
45479W        W13897  30.628  22.162   0.411
45480W        W13898   3.898   2.341  13.348
45481W        W13899  36.931  21.512   1.853
45482W        W13900  40.321  15.263   1.734
45483W        W13901   7.669   0.280  11.938
45484W        W13902  12.253  24.497  11.970
45485W        W13903  35.578  37.882  11.550
45486W        W13904  17.294  43.823   2.791
45487W        W13905  21.541  44.359   0.865
45488W        W13906  34.047   3.724  10.596
45489W        W13907  39.486   4.702  13.410
45490W        W13908  43.380  27.471  13.902
45491W        W13909  35.054  20.176   2.411
45492W        W13910  44.388   4.805   0.962
45493W        W13911   0.954  31.455  11.945
45494W        W13912   3.894  14.793   1.251
45495W        W13913  28.084  13.203   4.668
45496W        W13914   0.274  28.045  13.311
45497W        W13915  25.526  35.423   3.761
45498W        W13916  13.837  29.453   1.432
45499W        W13917  35.596  15.232  13.475
45500W        W13918   4.314   7.912   4.317
45501W        W13919   5.794   6.711   3.697
45502W        W13920  32.011  32.400  10.551
45503W        W13921  38.945   2.896  11.573
45504W        W13922  42.982   8.683  13.530
45505W        W13923  38.953  24.515  12.935
45506W        W13924  19.755   6.354  14.515
45507W        W13925   0.828  11.629  14.491
45508W        W13926  29.175  41.297  12.417
45509W        W13927  11.175  40.799   3.158
45510W        W13928  27.180  35.888   1.756
45511W        W13929  17.127  18.070   1.329
45512W        W13930   1.308   9.765   2.270
45513W        W13931  20.242  24.621  14.003
45514W        W13932  18.709  32.054   0.886
45515W        W13933  41.516  30.996   2.749
45516W        W13934  18.675  41.521  10.640
45517W        W13935  10.861  20.158   4.706
45518W        W13936  42.360   6.241   3.793
45519W        W13937   7.176  26.551  13.402
45520W        W13938  18.617  31.150   4.298
45521W        W13939   2.284  19.653  12.537
45522W        W13940  23.211  41.514   1.710
45523W        W13941  19.178  35.086   2.711
45524W        W13942  42.817   4.734   3.728
45525W        W13943  34.482  34.071  10.405
45526W        W13944  36.974  14.245  12.088
45527W        W13945  36.029  33.026   1.731
45528W        W13946  31.114  14.788  12.921
45529W        W13947  21.031  41.524  13.945
45530W        W13948  23.994  14.219  11.561
45531W        W13949  17.701  38.568  13.403
45532W        W13950  34.053  43.367  10.514
45533W        W13951  22.620  18.676  12.875
45534W        W13952  19.734  25.642   2.803
45535W        W13953   0.776  38.357  14.876
45536W        W13954  34.441   0.922   2.324
45537W        W13955   0.428  10.347  14.940
45538W        W13956  33.994  36.537  12.083
45539W        W13957  37.039  24.193   2.410
45540W        W13958   5.376  35.061  12.528
45541W        W13959  13.672  32.920  11.039
45542W        W13960  23.600  12.186  10.622
45543W        W13961   1.802  15.213  10.501
45544W        W13962  31.152  27.951   2.379
45545W        W13963  17.087  14.132   4.277
45546W        W13964  39.961  10.252   2.240
45547W        W13965  10.840  44.756  14.305
45548W        W13966  26.521   7.354   0.357
45549W        W13967  19.123  20.675   0.287
45550W        W13968   3.855   9.647   1.341
45551W        W13969   7.223  21.691   1.933
45552W        W13970   9.304  14.770  14.025
45553W        W13971  36.973  28.102   3.652
45554W        W13972  10.192   7.274  11.927
45555W        W13973  42.425  25.647  14.992
45556W        W13974   1.842  32.897  13.535
45557W        W13975  28.158  40.363   5.149
45558W        W13976  21.729  40.984  14.925
45559W        W13977  10.653   7.769  12.436
45560W        W13978  26.201  20.697   3.318
45561W        W13979   3.806  27.591   1.877
45562W        W13980  35.397  13.347  10.521
45563W        W13981  43.403  22.685  14.847
45564W        W13982  10.375  38.467  10.996
45565W        W13983  14.716  22.218   3.261
45566W        W13984  13.266  36.431   1.782
45567W        W13985  38.527  11.835  13.327
45568W        W13986   8.877  30.457  12.458
45569W        W13987  29.566  25.158   2.716
45570W        W13988  36.951  44.897  13.499
45571W        W13989  41.418   7.805   2.841
45572W        W13990  43.998  43.001   1.413
45573W        W13991  18.738  33.113  13.442
45574W        W13992   6.427  17.743   2.358
45575W        W13993  18.225  13.606  14.367
45576W        W13994  37.840  13.124   4.327
45577W        W13995  16.195   0.280   4.713
45578W        W13996  42.450  30.027   2.379
45579W        W13997  43.356  12.280   4.832
45580W        W13998  12.187  44.415  12.830
45581W        W13999   1.432  18.754  14.394
45582W        W14000  15.674   5.712   3.717
45583W        W14001  30.952  32.450  13.350
45584W        W14002  29.569  33.417  10.075
45585W        W14003  26.207   8.162  11.555
45586W        W14004  26.504  38.980   4.761
45587W        W14005  38.510  12.701  11.570
45588W        W14006   9.687  17.653   2.736
45589W        W14007  43.471   2.827   2.365
45590W        W14008  14.647  14.703  10.595
45591W        W14009   5.775   0.323   4.218
45592W        W14010   8.706  37.940  12.536
45593W        W14011  16.787  40.546  11.513
45594W        W14012  33.022  11.718   1.928
45595W        W14013  19.561  22.549   4.124
45596W        W14014  30.641  20.179  10.427
45597W        W14015  33.390   9.299   4.826
45598W        W14016   9.839  43.503   0.961
45599W        W14017  43.898  23.086   0.309
45600W        W14018   8.175  35.978   1.447
45601W        W14019  10.222  44.978   4.185
45602W        W14020  37.909  17.061   3.298
45603W        W14021  32.614  31.992  10.934
45604W        W14022  17.792  31.046  10.973
45605W        W14023  18.787   8.323  10.953
45606W        W14024  23.059  13.223   4.700
45607W        W14025  10.846  24.639  12.980
45608W        W14026  36.888  31.533   4.193
45609W        W14027  28.109  33.926   0.396
45610W        W14028  37.015   3.359   3.640
45611W        W14029  28.060   0.267   4.146
45612W        W14030  25.518   1.455   0.483
45613W        W14031  32.622  40.370  10.544
45614W        W14032   4.232  32.910  11.528
45615W        W14033  10.775  26.148   4.192
45616W        W14034  17.247   8.808  10.033
45617W        W14035  34.446  31.501  12.895
45618W        W14036  32.921  33.051  12.904
45619W        W14037  19.252  21.664   2.256
45620W        W14038  35.365  12.638  14.472
45621W        W14039  35.904  17.598   4.666
45622W        W14040  41.491  26.594   1.240
45623W        W14041   1.929  40.819  11.977
45624W        W14042   5.416  19.093   1.722
45625W        W14043  13.832   4.337   0.812
45626W        W14044  27.089  33.546  11.549
45627W        W14045  35.922   0.461   0.325
45628W        W14046  27.551  24.227  11.503
45629W        W14047  26.529  27.474  11.933
45630W        W14048  23.490  29.544   4.329
45631W        W14049  18.566  35.381   1.402
45632W        W14050   1.966   4.311  12.055
45633W        W14051  19.180  42.286  11.889
45634W        W14052  20.639  25.476   1.211
45635W        W14053  16.659   0.747  10.599
45636W        W14054  32.988  21.667   3.222
45637W        W14055  42.506  23.633   4.127
45638W        W14056  21.694  43.788   1.448
45639W        W14057   1.865  24.496   2.265
45640W        W14058  33.967  29.978   3.246
45641W        W14059  20.614   8.830   2.383
45642W        W14060  24.206  35.519   0.402
45643W        W14061  43.768   2.431   1.271
45644W        W14062  41.494  23.047   3.213
45645W        W14063  42.960   7.369   3.838
45646W        W14064   5.362   8.873  13.884
45647W        W14065  43.397  28.965   0.341
45648W        W14066   7.239  29.482   3.670
45649W        W14067  12.646   5.392   0.307
45650W        W14068  38.352   9.181  14.403
45651W        W14069  22.702  32.931   3.320
45652W        W14070  24.092  18.215   2.387
45653W        W14071  26.203   7.755   2.237
45654W        W14072   4.368  27.125  14.996
45655W        W14073  34.519   1.444  13.871
45656W        W14074   6.701   0.795  14.820
45657W        W14075   3.253   8.346  12.414
45658W        W14076   1.301  10.173  11.419
45659W        W14077  16.620  41.376   3.233
45660W        W14078  25.090  42.891   3.270
45661W        W14079  26.600  34.520  10.577
45662W        W14080  34.962  21.622  14.507
45663W        W14081  43.888  26.511  10.983
45664W        W14082  30.456  16.298  14.341
45665W        W14083  10.236  27.144  12.391
45666W        W14084  13.798  12.254  13.849
45667W        W14085  30.148  39.554  12.078
45668W        W14086   6.908  31.904  10.053
45669W        W14087  40.015  26.522   1.258
45670W        W14088  19.642  26.475   3.331
45671W        W14089  40.499  19.071  12.515
45672W        W14090  21.710  29.041   1.241
45673W        W14091  20.588  28.952  13.811
45674W        W14092  14.723  32.085   0.905
45675W        W14093   6.287   7.250   4.823
45676W        W14094  29.137  41.429  12.835
45677W        W14095  35.058  40.875  14.418
45678W        W14096  38.420   9.745  14.982
45679W        W14097   7.788  20.144  13.438
45680W        W14098   4.242  42.977   9.949
45681W        W14099  33.497  39.413  10.109
45682W        W14100  29.993  31.025   3.722
45683W        W14101  17.590  15.757  14.779
45684W        W14102  14.630  40.999   2.901
45685W        W14103  23.016  16.726   1.346
45686W        W14104  11.273   8.290  13.432
45687W        W14105  18.765  38.856  13.392
45688W        W14106   4.819  43.381   3.302
45689W        W14107  17.638  43.443   3.242
45690W        W14108  36.949   9.150  13.329
45691W        W14109  29.051  20.186  13.972
45692W        W14110  41.813  41.804  14.913
45693W        W14111  28.071   2.754   1.819
45694W        W14112  14.269  33.941   0.430
45695W        W14113  23.112  42.399  14.359
45696W        W14114   7.746  23.693  13.834
45697W        W14115  43.324   2.876  13.414
45698W        W14116  29.024  12.194  11.509
45699W        W14117  32.494   1.797   0.309
45700W        W14118   3.890  42.856  14.810
45701W        W14119  11.261  33.065   1.418
45702W        W14120   2.260  17.767  12.963
45703W        W14121  16.238  39.995  13.444
45704W        W14122  20.161  33.383  12.392
45705W        W14123  31.647   1.845   1.717
45706W        W14124  18.572  19.599  14.854
45707W        W14125  26.034  27.950  14.776
45708W        W14126  25.134   4.897   1.718
45709W        W14127  20.530  12.630   1.366
45710W        W14128  20.675   9.879  14.471
45711W        W14129  40.897  15.730  11.078
45712W        W14130  33.911   2.776  13.443
45713W        W14131  36.904  34.401   1.805
45714W        W14132   2.843  18.265  14.903
45715W        W14133  40.950  29.499  11.487
45716W        W14134   3.252   1.378   2.778
45717W        W14135  20.226  42.865   1.392
45718W        W14136  25.148  15.638  12.858
45719W        W14137   5.725  22.239   4.211
45720W        W14138  28.520  45.000   3.248
45721W        W14139  20.623  24.976  11.610
45722W        W14140  17.094  41.878  14.961
45723W        W14141  22.119  10.743   4.599
45724W        W14142  11.133  36.951   4.340
45725W        W14143   3.332  28.994   1.835
45726W        W14144   0.952   6.186  14.777
45727W        W14145  15.792  20.057  14.302
45728W        W14146  42.847  27.682  12.825
45729W        W14147   9.177   7.753  14.390
45730W        W14148   7.369   3.218   2.870
45731W        W14149  20.039  42.924   3.264
45732W        W14150  13.642  42.007  13.036
45733W        W14151  42.006  14.623   3.379
45734W        W14152  19.738  15.795  12.823
45735W        W14153  40.008   1.915  12.994
45736W        W14154   4.350  28.521  12.420
45737W        W14155  32.117  15.259  12.072
45738W        W14156  26.185   8.253   1.368
45739W        W14157  35.084  17.129  10.958
45740W        W14158   1.943  20.199  13.864
45741W        W14159  14.265  35.439  12.401
45742W        W14160   4.435  10.199   4.835
45743W        W14161  43.860   1.476  10.493
45744W        W14162  13.198  20.665  14.816
45745W        W14163  10.219  19.741   1.237
45746W        W14164  11.668   9.675  14.881
45747W        W14165  29.653   8.727   1.376
45748W        W14166  15.294  23.642  13.390
45749W        W14167  36.372  35.377  11.041
45750W        W14168  42.497  30.022   3.824
45751W        W14169  35.394   2.869  11.866
45752W        W14170   6.229  11.346  12.000
45753W        W14171  19.043  15.129  11.059
45754W        W14172   4.382   2.313  11.947
45755W        W14173  14.708  43.390   4.669
45756W        W14174  28.437  43.810   4.320
45757W        W14175  18.608   2.306  10.418
45758W        W14176  40.944  29.557  12.983
45759W        W14177  10.330   8.820   0.938
45760W        W14178  31.005  10.727  14.313
45761W        W14179  35.602  12.855   1.234
45762W        W14180  16.196  14.655  14.487
45763W        W14181  15.656  18.132   0.398
45764W        W14182  29.001  37.938   2.873
45765W        W14183  15.188   7.888   5.648
45766W        W14184  23.490  15.205  13.041
45767W        W14185  25.218   8.393   2.234
45768W        W14186   1.435  28.469  14.966
45769W        W14187  30.511   6.309   2.261
45770W        W14188   9.385  34.539   0.461
45771W        W14189  44.416  21.719   9.986
45772W        W14190   7.199  39.029  13.931
45773W        W14191  33.893   0.822   1.356
45774W        W14192   5.424  32.984  10.627
45775W        W14193  38.506  40.342   2.390
45776W        W14194  39.415   3.892   0.895
45777W        W14195   2.776  43.404   2.296
45778W        W14196  11.160  43.500  10.478
45779W        W14197  40.415  33.464   1.321
45780W        W14198   5.893  40.818   3.728
45781W        W14199  29.504  15.593  11.519
45782W        W14200   8.819  42.016   3.778
45783W        W14201  28.184   0.854   2.894
45784W        W14202  16.715  30.134  12.536
45785W        W14203  40.874  22.152   4.341
45786W        W14204   2.786  14.274  12.930
45787W        W14205  13.311  24.003  10.597
45788W        W14206   1.430  30.443   2.851
45789W        W14207  19.192  12.337  14.450
45790W        W14208  43.801   2.261  13.407
45791W        W14209  36.515  44.452  10.909
45792W        W14210  24.136  43.841   1.248
45793W        W14211  16.197  27.534  13.446
45794W        W14212   0.319   9.716  13.317
45795W        W14213  15.115  18.783   3.662
45796W        W14214  35.975  14.775  11.977
45797W        W14215  31.522  44.942  12.352
45798W        W14216  35.981   8.764   4.222
45799W        W14217  11.783  21.254   2.708
45800W        W14218  43.827  44.893   1.879
45801W        W14219  35.472   7.295   2.679
45802W        W14220  31.540  25.214   1.262
45803W        W14221  15.083  30.556   3.686
45804W        W14222  22.564  11.806  10.080
45805W        W14223  26.035  19.273   2.882
45806W        W14224  27.152  16.082   4.732
45807W        W14225  23.002  42.854  11.419
45808W        W14226  39.854  28.030  13.925
45809W        W14227   5.764  38.045  12.371
45810W        W14228  15.280   1.400   1.390
45811W        W14229  42.504  36.444  13.889
45812W        W14230  21.235  27.169   4.607
45813W        W14231  39.552  38.488  13.420
45814W        W14232  41.844  38.370  10.928
45815W        W14233   3.345   9.824  12.560
45816W        W14234  23.579  36.951  10.508
45817W        W14235  25.173  33.973  13.994
45818W        W14236   7.305  42.780   0.457
45819W        W14237  42.393  12.671   0.892
45820W        W14238   3.772   2.776  11.042
45821W        W14239  14.716  23.987  14.318
45822W        W14240  11.689   1.870  11.055
45823W        W14241  30.926  43.404  13.841
45824W        W14242  35.005   5.742   3.643
45825W        W14243   6.836  28.529   1.257
45826W        W14244  42.875   0.973  10.432
45827W        W14245  40.049  41.834  13.539
45828W        W14246  14.109  14.187   2.321
45829W        W14247  32.609  37.850   4.738
45830W        W14248  44.760  35.504   2.296
45831W        W14249   3.940  42.874   4.217
45832W        W14250  15.204  20.532   1.437
45833W        W14251  30.126  31.980   1.396
45834W        W14252  44.329  10.641   4.345
45835W        W14253  38.001  22.052  11.377
45836W        W14254  30.109   6.708   4.179
45837W        W14255  27.532  18.167  13.350
45838W        W14256   0.744  39.959  12.024
45839W        W14257   3.381  34.415   1.746
45840W        W14258   6.322  29.971  12.848
45841W        W14259  34.459  43.299   0.842
45842W        W14260  20.528  29.927   1.307
45843W        W14261  27.940   6.348  11.895
45844W        W14262  36.887  37.007  13.866
45845W        W14263  31.925  44.799  14.836
45846W        W14264  19.080   5.406  14.022
45847W        W14265  12.236  36.010   1.932
45848W        W14266  42.879   0.844   2.891
45849W        W14267   1.424  41.296  10.491
45850W        W14268  14.263  40.305   0.962
45851W        W14269  27.084  42.370  12.933
45852W        W14270  29.579  20.697   4.837
45853W        W14271  39.903  38.504   2.382
45854W        W14272  14.313  43.768  13.483
45855W        W14273  28.601  14.714  10.543
45856W        W14274  29.955  14.181  12.434
45857W        W14275  35.884  33.089   4.151
45858W        W14276  38.489   6.753   3.648
45859W        W14277  14.328   7.391  10.121
45860W        W14278  27.158  25.588  12.898
45861W        W14279  34.891  28.653  12.376
45862W        W14280  12.733  29.128  12.500
45863W        W14281  20.703  20.559   1.294
45864W        W14282  12.693  40.479  13.794
45865W        W14283  10.659  14.168   0.772
45866W        W14284  33.545  32.420   1.923
45867W        W14285  43.508  22.222  14.908
45868W        W14286  13.704  24.091  10.591
45869W        W14287  12.650  14.158  13.494
45870W        W14288  25.577  10.644   3.189
45871W        W14289   0.917  40.983  10.936
45872W        W14290  24.136  13.693  13.901
45873W        W14291  26.679  42.027   4.649
45874W        W14292  33.897   0.253  12.977
45875W        W14293  24.665   6.415  11.513
45876W        W14294  44.314   4.699  14.992
45877W        W14295  42.022  15.190  14.970
45878W        W14296  17.189  34.529   9.930
45879W        W14297  20.524  19.064  11.884
45880W        W14298   8.161   7.683  10.540
45881W        W14299  29.001  35.410   0.874
45882W        W14300   6.741  21.113  11.985
45883W        W14301  20.228  13.185  10.438
45884W        W14302  32.414  10.334   0.317
45885W        W14303  40.870  40.873   3.655
45886W        W14304   2.858  41.999  13.939
45887W        W14305  37.999  12.159  13.972
45888W        W14306  19.201  41.858  11.604
45889W        W14307  18.609  42.309  14.294
45890W        W14308  21.245  26.664   1.239
45891W        W14309  35.541   2.281  12.833
45892W        W14310  43.864   6.825  10.979
45893W        W14311   7.700  35.397   3.314
45894W        W14312   2.893   2.904   3.269
45895W        W14313  27.463   6.684   0.286
45896W        W14314  18.567  40.799   0.346
45897W        W14315  25.097   7.353  10.432
45898W        W14316  41.352   4.438  10.577
45899W        W14317   4.756  16.098  11.048
45900W        W14318   0.924  42.412  13.804
45901W        W14319  22.239  31.457   2.210
45902W        W14320  38.549  35.443   1.713
45903W        W14321   4.247  20.721   2.843
45904W        W14322  27.641  10.355  13.998
45905W        W14323   6.829  44.886  12.391
45906W        W14324  33.063  37.402  11.007
45907W        W14325  24.530   8.296  11.488
45908W        W14326   9.305  35.395   2.770
45909W        W14327   4.441  17.715  13.468
45910W        W14328  36.588   9.755  14.001
45911W        W14329   6.415  16.677   3.803
45912W        W14330  28.179  38.447   3.856
45913W        W14331  21.207  41.456  12.991
45914W        W14332  33.459  10.841   2.397
45915W        W14333  13.186  25.080  11.569
45916W        W14334  18.051  21.176  11.081
45917W        W14335  28.597  31.067  11.468
45918W        W14336   8.714   6.376  13.955
45919W        W14337   2.923  17.212  13.482
45920W        W14338  34.410  12.654  12.535
45921W        W14339  40.513  32.488  13.457
45922W        W14340   9.738  28.519   3.694
45923W        W14341  29.020  21.598   4.781
45924W        W14342  27.489  37.940  10.408
45925W        W14343  18.678   1.280   1.737
45926W        W14344  43.809  16.788  12.485
45927W        W14345  27.665   2.887  13.320
45928W        W14346  41.825   8.861   1.233
45929W        W14347  14.600  11.337  14.874
45930W        W14348   8.371  17.069  13.997
45931W        W14349  29.490   4.862   1.384
45932W        W14350  17.300  35.989   3.802
45933W        W14351  24.524  16.294  10.430
45934W        W14352   6.278  15.683   3.315
45935W        W14353  41.532  21.178   2.752
45936W        W14354  40.935  17.301  10.472
45937W        W14355   9.181  41.789  14.411
45938W        W14356  42.001  17.185   1.254
45939W        W14357   8.687  35.090  13.052
45940W        W14358  23.078  10.141  11.097
45941W        W14359  21.522   9.370   2.212
45942W        W14360  14.797  17.085   0.953
45943W        W14361  23.677  31.592   0.941
45944W        W14362  28.065  22.743  13.913
45945W        W14363  33.073  31.487   2.207
45946W        W14364   5.798  11.258  14.277
45947W        W14365  37.972  12.764  14.008
45948W        W14366  20.196  27.477   1.746
45949W        W14367  18.693  11.191   5.761
45950W        W14368  16.255  30.092  13.955
45951W        W14369   1.426  34.560  14.491
45952W        W14370  32.451  21.650   2.227
45953W        W14371  25.220  26.144  14.843
45954W        W14372  40.354  33.080   2.789
45955W        W14373   8.664   0.809  10.979
45956W        W14374   3.932  10.235   1.369
45957W        W14375  43.490  36.099  10.091
45958W        W14376  37.061   3.762   3.834
45959W        W14377   5.303  22.037  13.853
45960W        W14378  31.432  43.931  10.567
45961W        W14379  13.635   5.911   0.302
45962W        W14380  27.599  16.774   2.794
45963W        W14381  26.050  43.905   0.817
45964W        W14382   9.365  40.847   0.816
45965W        W14383  34.383  10.689   2.790
45966W        W14384  22.677  23.015  14.370
45967W        W14385   4.342   6.705  10.914
45968W        W14386   7.854  43.863  13.949
45969W        W14387   3.947  29.494  12.001
45970W        W14388  31.912  37.551  14.006
45971W        W14389  10.840  40.816   3.659
45972W        W14390  15.805  34.065  12.457
45973W        W14391  20.035  23.046  10.061
45974W        W14392  20.714   1.761   2.199
45975W        W14393  32.073  25.087   1.394
45976W        W14394  23.494  13.620   3.213
45977W        W14395  12.229  19.652   1.805
45978W        W14396  36.036  24.485  14.465
45979W        W14397  13.815  44.433  13.030
45980W        W14398  33.622   2.334   1.294
45981W        W14399  33.482  37.007  13.934
45982W        W14400  33.128  17.705   2.189
45983W        W14401  32.577  11.627  13.390
45984W        W14402  33.025  37.879   1.926
45985W        W14403   8.821  32.907  11.487
45986W        W14404  19.627  44.452   2.240
45987W        W14405  16.676   0.330   0.798
45988W        W14406  35.393   3.749  13.023
45989W        W14407  35.862  29.135   0.387
45990W        W14408  32.924  30.983   1.898
45991W        W14409  39.841   7.865  13.363
45992W        W14410  30.542  41.001  11.497
45993W        W14411  32.580   5.845  13.504
45994W        W14412  37.449   5.707   3.842
45995W        W14413  25.545   9.285   4.325
45996W        W14414  18.734   0.876   9.994
45997W        W14415  30.072  19.641  10.897
45998W        W14416  28.980  33.894   0.833
45999W        W14417   8.358   3.301  11.488
46000W        W14418  30.529  15.224   0.879
46001W        W14419  22.551  34.433   3.193
46002W        W14420   1.869  18.243  12.435
46003W        W14421  16.584  27.644   3.324
46004W        W14422  36.949  19.544  11.083
46005W        W14423  30.105  37.408   1.755
46006W        W14424  21.639  10.859   4.832
46007W        W14425   4.428  35.987   1.394
46008W        W14426   2.853  36.878   1.762
46009W        W14427   6.361  38.472  13.324
46010W        W14428   8.676  28.145   3.751
46011W        W14429  33.084  35.466  14.821
46012W        W14430   5.785  11.756   0.403
46013W        W14431  27.629   5.353   4.238
46014W        W14432  16.797  21.513   4.301
46015W        W14433  35.999  44.934  11.526
46016W        W14434  17.637   1.915   1.697
46017W        W14435   9.258   5.436  13.855
46018W        W14436  18.625  19.750  14.430
46019W        W14437   1.303  28.580  11.885
46020W        W14438  37.939   4.237  14.327
46021W        W14439   8.220   1.379   0.875
46022W        W14440  25.523  40.924  11.072
46023W        W14441  15.270  10.189  12.348
46024W        W14442   0.469  38.827  10.888
46025W        W14443  21.539  44.888  14.342
46026W        W14444   8.873  30.517   1.370
46027W        W14445   8.885  14.287  14.377
46028W        W14446  44.431  37.926  12.384
46029W        W14447  20.716  20.644   4.239
46030W        W14448  13.760   3.920  13.061
46031W        W14449  33.956  19.725   0.843
46032W        W14450   4.865  32.935  13.796
46033W        W14451  13.189  15.254  11.421
46034W        W14452  41.850   0.787   3.866
46035W        W14453  10.321  23.636  11.961
46036W        W14454  20.138  30.594   3.182
46037W        W14455   3.845   4.259  10.552
46038W        W14456  17.110  19.186   2.872
46039W        W14457  25.564  22.728   1.440
46040W        W14458   7.757   7.381  11.089
46041W        W14459  44.886   9.297   3.199
46042W        W14460  24.992  36.497  11.859
46043W        W14461  34.484  42.484  10.437
46044W        W14462  25.174  39.489  11.003
46045W        W14463  40.378  43.361  11.374
46046W        W14464  19.141  42.513  14.909
46047W        W14465  41.891  12.139  12.843
46048W        W14466   8.865   5.841  14.780
46049W        W14467  18.583  25.574   5.219
46050W        W14468  16.307  43.803   3.743
46051W        W14469   4.393  38.871   3.643
46052W        W14470   5.267  42.920   3.764
46053W        W14471   6.223  43.432   1.375
46054W        W14472  11.865   6.742  11.111
46055W        W14473  30.909  11.793   4.720
46056W        W14474  22.609  10.832  10.449
46057W        W14475  28.938  20.576   0.440
46058W        W14476  20.259   4.226  10.547
46059W        W14477  33.977  20.161  11.059
46060W        W14478  19.736   3.831  14.294
46061W        W14479  18.586  28.096   1.271
46062W        W14480  17.730  11.180  13.889
46063W        W14481  28.143  16.759  13.918
46064W        W14482  28.120   5.233   1.320
46065W        W14483  30.909  18.200   5.186
46066W        W14484  10.320  23.611   3.345
46067W        W14485  44.964  34.528   4.299
46068W        W14486  36.009   9.664  14.453
46069W        W14487  44.819  37.018  11.926
46070W        W14488  11.667  10.364   3.751
46071W        W14489  24.211  27.494   1.451
46072W        W14490   7.323   9.218  12.561
46073W        W14491  14.161  13.337  14.445
46074W        W14492   7.850  13.694   2.803
46075W        W14493   6.722  24.028   3.792
46076W        W14494   3.283  33.607   0.470
46077W        W14495  28.480   2.908  11.020
46078W        W14496  12.787  39.051  14.868
46079W        W14497  23.996  30.641   3.146
46080W        W14498  26.661   9.717  10.091
46081W        W14499  31.511  40.859  13.344
46082W        W14500  21.173  35.418   2.320
46083W        W14501  19.174  42.409   2.866
46084W        W14502  19.603  10.750   4.688
46085W        W14503  31.064  36.065  11.058
46086W        W14504  37.508   4.383  12.063
46087W        W14505  21.253  21.227  12.874
46088W        W14506  21.242  34.864  11.503
46089W        W14507   2.401  26.698  13.851
46090W        W14508  34.383   7.231   3.309
46091W        W14509  42.409  18.684  10.508
46092W        W14510   4.929  15.628  13.838
46093W        W14511  41.996  12.726  14.965
46094W        W14512  31.983  15.150   4.267
46095W        W14513  10.329   5.324  14.925
46096W        W14514  25.530  27.034  13.360
46097W        W14515  16.209  11.211   3.842
46098W        W14516  11.731  16.769  10.992
46099W        W14517  21.650  19.661   0.919
46100W        W14518  42.280  23.579  11.457
46101W        W14519  41.497  21.072  12.884
46102W        W14520  31.057  11.804  10.989
46103W        W14521  13.123   2.348   1.919
46104W        W14522  16.606  34.436   3.780
46105W        W14523   0.943  23.067   9.652
46106W        W14524  15.609  43.421  12.440
46107W        W14525   2.784   4.927   3.331
46108W        W14526  31.991   5.219   2.701
46109W        W14527  25.192   2.944   3.639
46110W        W14528  24.005  35.025   1.907
46111W        W14529   4.259  14.307  11.390
46112W        W14530  14.778  12.161   2.837
46113W        W14531  41.871  10.195   0.439
46114W        W14532  21.032  32.446  14.030
46115W        W14533  28.507  22.730  14.010
46116W        W14534  13.279  34.111  11.085
46117W        W14535  32.039  37.838  12.859
46118W        W14536  10.789  37.048  12.458
46119W        W14537  15.212  23.595  14.299
46120W        W14538  32.071  20.679   5.277
46121W        W14539  19.198  39.366   1.910
46122W        W14540  41.854   3.360  13.371
46123W        W14541  25.033   5.427  10.962
46124W        W14542  19.658   2.860  11.487
46125W        W14543  33.932  32.033  11.888
46126W        W14544  27.498  26.953  11.017
46127W        W14545  16.145  30.583   4.127
46128W        W14546   3.297   9.663  10.508
46129W        W14547  35.505  30.657   1.910
46130W        W14548  44.922  17.691  14.315
46131W        W14549  42.448   6.294   1.431
46132W        W14550  32.958   9.273   2.382
46133W        W14551  43.985   5.885   1.695
46134W        W14552  31.579  16.163   1.830
46135W        W14553  20.105   4.439  13.803
46136W        W14554  12.220  28.929   0.843
46137W        W14555  26.689  27.689  10.013
46138W        W14556  18.099  16.572  14.462
46139W        W14557  35.030   4.870  14.392
46140W        W14558  37.974   0.417  12.050
46141W        W14559   6.254  31.990  11.529
46142W        W14560   5.723  20.651   3.849
46143W        W14561  11.823   5.419  11.404
46144W        W14562   8.726  17.126   3.166
46145W        W14563  26.671  21.624   2.713
46146W        W14564  21.599  35.446  11.872
46147W        W14565  27.598  14.674  12.034
46148W        W14566  30.543  27.667   0.261
46149W        W14567  10.768  42.412   4.715
46150W        W14568  39.924  13.671   1.235
46151W        W14569   3.793  35.996   0.939
46152W        W14570  13.186  26.967  13.958
46153W        W14571  34.440  26.463  11.038
46154W        W14572  39.989  23.010   0.403
46155W        W14573  23.237  20.746   4.799
46156W        W14574  43.831  43.509   1.740
46157W        W14575  20.677  32.930  13.326
46158W        W14576  30.549  31.134  13.892
46159W        W14577  41.856  22.059   2.180
46160W        W14578   3.887  41.454  10.484
46161W        W14579   2.793  44.380  14.316
46162W        W14580  39.995  38.514  12.013
46163W        W14581   8.327  17.786   0.484
46164W        W14582  19.775  17.578   3.697
46165W        W14583  29.639   8.308   4.739
46166W        W14584  43.888  17.696  12.344
46167W        W14585  42.339  13.202   0.455
46168W        W14586  20.226  28.076  10.527
46169W        W14587  41.982  10.864   1.331
46170W        W14588   5.886  38.523   0.850
46171W        W14589  14.641  12.789  14.481
46172W        W14590   0.291  24.598  11.418
46173W        W14591   1.787  17.651   3.671
46174W        W14592  40.822   1.916  12.850
46175W        W14593  29.920  11.331   0.953
46176W        W14594  22.634  35.522  13.996
46177W        W14595  24.148  33.520  12.396
46178W        W14596  13.808  10.296   3.838
46179W        W14597  25.104  25.075  12.578
46180W        W14598  15.320  28.975  14.383
46181W        W14599  43.899  22.637  13.320
46182W        W14600  10.383   7.389   1.269
46183W        W14601  20.205   4.841   3.362
46184W        W14602  34.493  42.472  13.457
46185W        W14603  28.118  19.101   4.315
46186W        W14604  14.116  18.213   4.166
46187W        W14605  36.090  34.055  14.847
46188W        W14606  21.060   4.358   1.932
46189W        W14607  43.906   5.194  11.427
46190W        W14608  42.293  32.055  10.571
46191W        W14609  39.044  17.802  12.439
46192W        W14610  23.544   8.281  13.929
46193W        W14611  18.720  29.590  13.883
46194W        W14612  42.472  26.588  14.835
46195W        W14613  13.828  35.490   0.762
46196W        W14614   1.428   0.808  13.984
46197W        W14615  25.473   4.908   2.706
46198W        W14616  17.125   2.419  14.968
46199W        W14617  33.012  43.808   3.153
46200W        W14618  23.044   4.248  12.059
46201W        W14619  17.634  18.781   3.767
46202W        W14620  16.244  21.520  14.308
46203W        W14621  24.607  34.916   1.717
46204W        W14622   7.756   0.340   1.784
46205W        W14623  29.519  10.685  11.027
46206W        W14624  31.448  33.610  12.949
46207W        W14625   4.349  33.996   1.931
46208W        W14626  20.081  26.619  12.857
46209W        W14627  10.221  43.995  13.980
46210W        W14628  17.556  27.686   2.861
46211W        W14629  44.887  11.787   0.357
46212W        W14630  18.762  43.283   4.823
46213W        W14631  22.213  21.263   0.402
46214W        W14632  23.607   8.244  10.413
46215W        W14633   2.789  17.083  11.517
46216W        W14634  17.272  34.411   4.766
46217W        W14635  23.704  32.560   3.192
46218W        W14636  30.567  34.112  11.463
46219W        W14637  24.991  13.657  10.586
46220W        W14638  38.511  28.126   2.289
46221W        W14639   1.461  39.448   2.344
46222W        W14640  19.072  37.438  13.393
46223W        W14641  14.109  44.916   0.404
46224W        W14642  29.625   5.337  13.808
46225W        W14643  44.932  40.388  10.547
46226W        W14644  10.178  30.988   0.381
46227W        W14645  12.184   9.845  11.545
46228W        W14646   9.218  14.191   3.647
46229W        W14647  37.943  19.181   3.693
46230W        W14648  43.438   2.787   3.751
46231W        W14649  32.398   3.937   1.331
46232W        W14650  21.193  39.831   5.612
46233W        W14651  30.036  36.381  10.591
46234W        W14652  42.421  19.149   2.403
46235W        W14653   8.289   9.213  11.056
46236W        W14654   3.336  20.674  11.463
46237W        W14655  22.120   6.849  10.582
46238W        W14656   5.411   3.402  14.439
46239W        W14657   7.772  26.523  14.895
46240W        W14658  18.184   8.774   3.245
46241W        W14659  10.649  36.518  14.418
46242W        W14660   5.832  38.515  10.604
46243W        W14661   5.702  22.139   1.873
46244W        W14662  11.134  40.877   4.688
46245W        W14663   6.210  17.735  11.559
46246W        W14664  14.280  41.015   4.290
46247W        W14665   1.782  43.496  14.371
46248W        W14666  17.565  20.576   0.736
46249W        W14667  11.358  18.732  14.006
46250W        W14668  39.822  31.151   4.130
46251W        W14669  36.978  15.122  13.443
46252W        W14670  14.817  29.454  11.999
46253W        W14671  21.247  15.307  11.005
46254W        W14672  34.557  18.176  10.404
46255W        W14673  27.457  31.470   3.755
46256W        W14674   7.403  33.008  10.545
46257W        W14675  38.987  31.402   2.746
46258W        W14676  23.990   7.247   1.908
46259W        W14677  38.006   7.222   0.910
46260W        W14678  43.446  28.085  13.827
46261W        W14679  35.394  35.876   4.134
46262W        W14680  23.563  26.092  12.026
46263W        W14681   7.787  14.610  12.454
46264W        W14682  39.934  28.170   2.811
46265W        W14683  41.488  26.159  10.537
46266W        W14684   6.382  44.961   3.369
46267W        W14685  43.829  26.501  11.525
46268W        W14686  33.118  31.958   1.729
46269W        W14687  44.450   3.349  10.965
46270W        W14688  38.397  17.245  13.060
46271W        W14689  23.115  20.615   3.152
46272W        W14690  34.019  22.503   0.427
46273W        W14691  30.131  16.162  12.446
46274W        W14692   2.371  28.152   3.778
46275W        W14693  25.710  15.764  10.947
46276W        W14694   9.791   6.857  11.611
46277W        W14695  36.487   3.907   1.334
46278W        W14696   4.220  27.656  14.412
46279W        W14697  33.430  20.665   0.341
46280W        W14698  22.142  24.169  10.979
46281W        W14699  30.105  36.870  10.983
46282W        W14700  25.067  14.647  14.833
46283W        W14701  19.551  24.558   2.819
46284W        W14702  41.505   3.223  13.036
46285W        W14703  32.031  17.613   2.793
46286W        W14704  31.551  43.270  11.386
46287W        W14705   9.685  13.202   1.857
46288W        W14706  22.057  36.430  10.446
46289W        W14707   4.295  24.607  12.349
46290W        W14708  26.052   2.294   2.368
46291W        W14709  17.748  32.949   4.627
46292W        W14710   6.813  18.650   3.843
46293W        W14711   5.275  16.241   3.354
46294W        W14712  17.092  44.928   3.174
46295W        W14713  40.964   5.802  11.062
46296W        W14714  17.567  35.575   3.781
46297W        W14715   2.391  29.595   2.293
46298W        W14716   2.330  13.122   1.236
46299W        W14717  34.008  26.135  11.373
46300W        W14718  12.152  39.898   0.822
46301W        W14719  11.256  20.123  13.410
46302W        W14720  26.072  31.959   1.270
46303W        W14721   4.748  30.490  11.981
46304W        W14722  16.154  42.868  12.492
46305W        W14723  14.277  18.673   5.273
46306W        W14724  16.722  13.311   5.177
46307W        W14725  39.932  44.290  13.804
46308W        W14726  18.758   7.320   1.737
46309W        W14727  34.376  15.814   5.143
46310W        W14728  14.771  16.258   1.724
46311W        W14729  34.975  37.534   4.163
46312W        W14730  22.658  11.329   4.167
46313W        W14731  10.168   0.854   3.381
46314W        W14732   0.376  27.631   1.332
46315W        W14733  42.374   5.351  13.338
46316W        W14734  28.931  38.364  11.604
46317W        W14735  44.280  17.247  14.284
46318W        W14736  22.714  43.452  11.541
46319W        W14737   0.422  27.627   0.285
46320W        W14738  29.588  33.406  12.082
46321W        W14739  39.879  10.695   4.185
46322W        W14740  23.568  42.878   2.726
46323W        W14741  30.911  20.131  10.447
46324W        W14742  41.836  10.656  12.905
46325W        W14743   0.892  44.854  14.916
46326W        W14744  39.891  11.804   4.664
46327W        W14745  41.351  36.870   3.373
46328W        W14746  44.832   6.887   0.288
46329W        W14747  16.756   9.795   4.776
46330W        W14748  21.630  14.329   2.374
46331W        W14749  33.036  32.539   4.260
46332W        W14750  43.774  35.360  11.451
46333W        W14751   1.407  40.036  14.427
46334W        W14752  17.701  42.016   4.665
46335W        W14753   9.668  37.528  14.938
46336W        W14754   2.827  13.284  12.954
46337W        W14755   0.747  30.147   3.198
46338W        W14756  24.164   4.892  11.965
46339W        W14757   8.869  29.113  11.474
46340W        W14758  24.144  13.726  11.038
46341W        W14759  17.592  24.597  11.949
46342W        W14760  35.027   1.316   0.966
46343W        W14761  23.079   4.786  12.573
46344W        W14762  31.920  27.569   1.860
46345W        W14763   3.917  11.757   4.176
46346W        W14764  13.294  42.460  14.895
46347W        W14765  42.505   9.345   3.336
46348W        W14766  24.509   7.392  12.056
46349W        W14767  20.088   3.748  13.819
46350W        W14768  36.003   2.771   2.746
46351W        W14769   6.335  19.041   0.430
46352W        W14770  21.698  38.947  14.355
46353W        W14771  13.121   8.875  13.381
46354W        W14772  36.465  43.930   1.871
46355W        W14773  36.092  40.850  13.335
46356W        W14774   1.283   2.915   2.713
46357W        W14775   5.909  32.944  14.333
46358W        W14776  28.661  21.684  10.565
46359W        W14777  32.913  31.500   1.275
46360W        W14778  21.637  25.672   5.233
46361W        W14779  25.686  16.813   4.168
46362W        W14780  20.236   2.442   3.849
46363W        W14781  43.488   9.325   0.815
46364W        W14782  44.456   5.369   1.935
46365W        W14783  40.370  23.197   0.916
46366W        W14784  23.050  13.258  11.012
46367W        W14785  35.590  42.859   0.465
46368W        W14786  17.657  22.506  10.479
46369W        W14787  26.991  39.539   4.804
46370W        W14788   9.688  36.916   4.121
46371W        W14789  34.415  15.817  12.888
46372W        W14790  31.639   9.740  14.467
46373W        W14791  28.546   0.970   0.785
46374W        W14792  10.730  23.648   1.695
46375W        W14793   8.304  40.889  14.875
46376W        W14794   4.344  21.726  10.567
46377W        W14795  40.455  30.015   0.479
46378W        W14796  32.466   1.825   1.236
46379W        W14797  29.017   8.749  11.870
46380W        W14798  21.627   0.355  12.001
46381W        W14799  30.983  17.066   1.258
46382W        W14800  37.555  25.613  12.392
46383W        W14801  23.698  28.491   3.821
46384W        W14802  22.032  26.054  12.080
46385W        W14803  44.984  43.800   3.784
46386W        W14804   5.705  40.533   0.795
46387W        W14805  25.031   8.227  13.349
46388W        W14806  21.253   3.345  13.000
46389W        W14807  18.640   2.758  11.910
46390W        W14808  31.952  15.268  13.378
46391W        W14809   3.287  33.038   2.220
46392W        W14810  14.593  19.590   5.184
46393W        W14811   7.215  13.124   3.710
46394W        W14812   8.727  32.129  10.511
46395W        W14813   4.275  25.163  12.062
46396W        W14814  37.908   3.783   3.630
46397W        W14815  40.421  43.441  14.768
46398W        W14816  36.997   8.851  12.444
46399W        W14817   3.774  23.091   1.369
46400W        W14818  44.395  39.915   0.768
46401W        W14819  27.958  25.141  14.783
46402W        W14820  41.359  37.533  14.977
46403W        W14821   5.783  12.132  13.494
46404W        W14822  42.958   7.679  14.503
46405W        W14823  30.081  30.541   1.295
46406W        W14824  41.384  12.678  11.125
46407W        W14825   1.426  44.828  11.382
46408W        W14826  27.065  23.059   1.708
46409W        W14827   1.971  26.062  12.379
46410W        W14828  32.006  23.560   1.343
46411W        W14829  29.017   1.765   2.399
46412W        W14830  37.998  23.603  10.474
46413W        W14831  40.473  22.524   2.238
46414W        W14832  36.390  38.844  10.511
46415W        W14833  23.230  31.609  11.032
46416W        W14834  38.845   1.456   0.959
46417W        W14835  19.716  35.069  11.947
46418W        W14836  42.295  38.922  10.967
46419W        W14837  24.086  17.730   3.375
46420W        W14838  13.344  27.946   2.303
46421W        W14839  29.548  28.131   2.279
46422W        W14840   3.329  35.457   2.259
46423W        W14841  15.208   5.860  14.770
46424W        W14842   2.272  16.108   1.329
46425W        W14843  40.409  17.202  10.600
46426W        W14844  37.470  21.753   4.634
46427W        W14845   4.756  34.601  13.336
46428W        W14846   3.839  24.548   0.317
46429W        W14847  28.091  21.135   0.284
46430W        W14848  28.543  24.505   0.401
46431W        W14849  13.194  12.269   3.223
46432W        W14850  29.567   7.707  10.572
46433W        W14851   7.310  10.180   0.909
46434W        W14852  33.881  33.097   0.866
46435W        W14853   8.665  20.522  10.012
46436W        W14854  33.383  29.516   0.466
46437W        W14855  42.313  21.059  12.351
46438W        W14856   1.921  42.003  13.923
46439W        W14857  41.299  32.020   1.709
46440W        W14858  43.988   2.232  13.924
46441W        W14859   6.905  37.567  13.327
46442W        W14860  14.771  32.037   4.117
46443W        W14861  41.026  22.733   3.188
46444W        W14862  41.839  40.546   4.756
46445W        W14863  25.180  37.928   1.916
46446W        W14864  37.494   5.776  10.511
46447W        W14865  26.180  33.458  14.423
46448W        W14866  14.654  39.349   3.271
46449W        W14867   6.339   9.238  13.358
46450W        W14868  26.562  27.667   4.611
46451W        W14869  26.094  17.252  12.019
46452W        W14870   0.917  21.250  14.779
46453W        W14871  41.303  44.458  13.959
46454W        W14872  21.544   0.448   0.772
46455W        W14873  41.947  12.714  11.517
46456W        W14874  15.664  31.574   2.220
46457W        W14875  36.505  25.618   3.724
46458W        W14876   3.440  39.823   3.318
46459W        W14877  29.078  15.303   3.349
46460W        W14878  24.611   4.749  10.476
46461W        W14879  32.962  18.268   4.814
46462W        W14880  23.230  10.712  14.788
46463W        W14881  27.578  31.566  12.887
46464W        W14882  22.572   9.244   3.386
46465W        W14883  42.427  42.904  14.402
46466W        W14884  38.540  19.234   4.166
46467W        W14885  40.400   9.305  14.346
46468W        W14886  11.712  17.119  13.810
46469W        W14887  19.712  42.970   3.652
46470W        W14888   5.315   0.767   4.171
46471W        W14889   4.299  20.621   4.142
46472W        W14890   4.363  38.875  14.011
46473W        W14891  24.535   0.809   1.346
46474W        W14892  34.077  18.632  12.378
46475W        W14893  16.277   7.877  11.473
46476W        W14894  13.733   5.384  14.771
46477W        W14895  15.740  25.528  14.424
46478W        W14896  27.585  40.966  11.431
46479W        W14897  38.368   3.719   4.320
46480W        W14898  44.880  17.123   1.276
46481W        W14899  15.310   3.871   0.787
46482W        W14900  41.384   6.845   1.891
46483W        W14901  41.428  14.314   2.337
46484W        W14902  31.133   9.846   3.350
46485W        W14903  41.522  38.367   2.188
46486W        W14904  29.652  26.510  13.826
46487W        W14905   8.712  19.119   1.406
46488W        W14906  21.111  26.548   2.740
46489W        W14907   2.758   1.317   0.464
46490W        W14908  32.933  24.175   2.297
46491W        W14909  10.748  11.332  12.447
46492W        W14910   8.732   7.802  13.884
46493W        W14911   6.348  22.009   1.793
46494W        W14912  19.738   9.820   1.754
46495W        W14913  22.075  25.509  13.845
46496W        W14914   8.876   3.276  14.468
46497W        W14915  29.533  18.202  13.859
46498W        W14916   8.819  44.996  11.504
46499W        W14917  29.113   0.258   4.695
46500W        W14918  21.685  15.102   1.450
46501W        W14919  21.569  17.659  13.342
46502W        W14920  28.140  12.175   0.950
46503W        W14921  16.189  40.867   1.262
46504W        W14922  35.470  15.090   1.774
46505W        W14923  32.089  26.204  13.469
46506W        W14924   7.801   6.901   2.878
46507W        W14925  32.541  31.455   4.342
46508W        W14926  24.042   2.454  11.559
46509W        W14927  17.771  10.198   1.829
46510W        W14928  36.075  33.047   2.795
46511W        W14929  31.541  43.419   4.735
46512W        W14930  17.224  24.574   0.277
46513W        W14931   2.740   1.405  11.026
46514W        W14932  36.890  39.352   2.354
46515W        W14933  42.844   0.816   0.784
46516W        W14934  44.868  11.167   4.289
46517W        W14935  25.200  19.094   2.887
46518W        W14936  17.576   8.386  11.388
46519W        W14937  37.020  23.051   1.739
46520W        W14938  11.854  10.827   1.811
46521W        W14939   1.879   4.838  10.516
46522W        W14940  39.339  31.073   1.917
46523W        W14941  25.666  27.957  11.007
46524W        W14942  16.709  30.616  13.466
46525W        W14943  37.904  26.569  11.968
46526W        W14944  34.461  12.850  13.971
46527W        W14945  38.952  41.417   9.973
46528W        W14946  18.706   9.767   3.226
46529W        W14947  19.155  20.088   2.737
46530W        W14948  25.166   7.760  12.503
46531W        W14949   4.436  18.163  13.318
46532W        W14950  10.383   9.792   2.188
46533W        W14951   8.366   8.693  13.443
46534W        W14952  43.936   0.838  14.002
46535W        W14953  19.161  40.943   4.249
46536W        W14954  33.588  42.363  13.460
46537W        W14955  12.685  31.937  13.912
46538W        W14956  27.006  30.653   3.749
46539W        W14957  18.569  15.215   3.707
46540W        W14958  41.787  30.567   9.942
46541W        W14959  41.424  24.624   1.785
46542W        W14960  31.065   1.774  10.532
46543W        W14961  19.720  31.082  10.625
46544W        W14962  28.443  31.465   1.255
46545W        W14963  44.877   8.233  11.530
46546W        W14964  28.032   9.810   0.260
46547W        W14965  24.628  27.449  11.593
46548W        W14966  19.040  13.308  11.087
46549W        W14967  29.616  23.523  13.523
46550W        W14968  43.000  26.191   1.351
46551W        W14969  32.066  33.957  13.809
46552W        W14970  30.528  22.044   1.768
46553W        W14971  19.726  42.937   1.780
46554W        W14972  25.632  32.997   1.268
46555W        W14973  27.017   8.900  14.502
46556W        W14974  42.817   2.834  11.977
46557W        W14975   4.212   5.764  14.279
46558W        W14976  33.901  30.563   0.913
46559W        W14977   8.401   2.290   3.692
46560W        W14978  38.977  43.507  14.977
46561W        W14979  28.660   6.185  12.364
46562W        W14980  20.150  43.927   4.209
46563W        W14981  36.476  12.857   0.291
46564W        W14982  21.193  31.615   0.780
46565W        W14983   6.773  21.623   3.347
46566W        W14984  34.924  27.587  10.908
46567W        W14985  39.007  22.620  14.804
46568W        W14986  10.730   3.764   4.791
46569W        W14987  19.647  41.446  14.958
46570W        W14988  17.708  41.381  13.540
46571W        W14989  35.576   4.827  11.093
46572W        W14990  24.616   6.182  12.357
46573W        W14991  34.000  36.354  11.467
46574W        W14992  36.487  32.621   4.670
46575W        W14993  12.119  13.239  14.772
46576W        W14994  37.418  37.482  11.963
46577W        W14995  38.362  16.604   0.798
46578W        W14996  17.267  33.919   2.668
46579W        W14997  39.942  36.454  13.521
46580W        W14998  14.664   0.387  14.759
46581W        W14999  25.589  34.592   0.796
46582W        W15000  36.438  23.045  10.583
46583W        W15001  28.932   4.413  14.819
46584W        W15002  34.611  40.327  13.796
46585W        W15003   8.352   7.216   4.779
46586W        W15004  41.873  17.169   1.832
46587W        W15005   2.937  35.078   1.314
46588W        W15006  33.920  41.310   3.741
46589W        W15007  19.099  36.436   1.810
46590W        W15008  19.093  29.160   1.285
46591W        W15009  11.737   7.736  14.288
46592W        W15010  28.452  28.602   2.723
46593W        W15011  36.534  12.240   4.672
46594W        W15012  38.422  15.102   3.171
46595W        W15013  23.061  19.587  12.977
46596W        W15014   2.848  25.632  11.406
46597W        W15015  24.670   0.486   4.773
46598W        W15016  21.149  30.639  14.288
46599W        W15017  39.997  13.679   2.663
46600W        W15018  42.354  24.211   1.364
46601W        W15019   2.439   5.902   0.462
46602W        W15020   2.834  18.288   2.762
46603W        W15021  38.014   1.964   2.182
46604W        W15022   5.323  14.188  11.601
46605W        W15023  32.047  21.132   1.917
46606W        W15024  20.105  41.351  11.428
46607W        W15025  21.735   9.760  13.530
46608W        W15026  23.643  43.833  11.880
46609W        W15027  37.863  28.667   0.935
46610W        W15028  33.507  32.891   0.943
46611W        W15029   1.304   6.678  10.558
46612W        W15030   1.887  22.642  14.882
46613W        W15031  22.719  29.015  10.488
46614W        W15032  19.153  14.102   9.439
46615W        W15033  10.175  32.968  14.311
46616W        W15034  12.128  23.103  10.951
46617W        W15035  11.646  42.515   4.672
46618W        W15036  40.411  37.946   4.779
46619W        W15037  12.815   6.771  12.836
46620W        W15038  33.498  22.055  14.441
46621W        W15039  27.446  29.634   1.861
46622W        W15040  38.913  28.138  12.457
46623W        W15041  42.782   7.282   3.342
46624W        W15042  23.096  10.145  14.292
46625W        W15043   4.944  30.081  13.982
46626W        W15044  19.091  34.429  14.958
46627W        W15045   4.284   2.437  14.030
46628W        W15046  22.182  27.586  11.527
46629W        W15047  34.009  33.949   4.222
46630W        W15048   0.300  16.192  12.420
46631W        W15049  41.966   3.456   2.256
46632W        W15050  34.499  23.669   3.201
46633W        W15051  19.739  19.759  13.441
46634W        W15052  35.018  29.659   3.660
46635W        W15053   7.306  33.454   3.328
46636W        W15054   9.777  24.090   2.795
46637W        W15055  37.470  34.873  14.453
46638W        W15056  24.653  33.013  13.060
46639W        W15057  29.652  39.031  14.310
46640W        W15058  22.520   5.714  11.474
46641W        W15059   1.336   5.816  10.510
46642W        W15060  22.052   8.180   4.266
46643W        W15061  19.094  20.524  11.528
46644W        W15062   1.800  19.592  10.442
46645W        W15063   0.401  11.344  10.953
46646W        W15064  19.695  27.121   3.644
46647W        W15065   5.245   9.311  12.901
46648W        W15066   8.405  38.966  11.449
46649W        W15067  32.617  37.929   4.198
46650W        W15068  10.146  19.181   4.128
46651W        W15069  41.520  37.057   0.848
46652W        W15070  29.530  40.943   0.840
46653W        W15071  40.957   6.828  11.102
46654W        W15072  38.445  14.248   4.312
46655W        W15073  16.278  31.989   1.794
46656W        W15074   1.427  43.918  12.955
46657W        W15075  21.679  15.275   3.823
46658W        W15076  27.189  32.613   1.759
46659W        W15077   4.910   8.365  11.025
46660W        W15078  11.337  35.530   3.819
46661W        W15079   1.464  17.080   3.739
46662W        W15080  30.507  15.718  14.010
46663W        W15081  15.621  35.889  13.444
46664W        W15082  42.974  41.898   3.717
46665W        W15083  42.817  31.093  11.555
46666W        W15084  28.016   8.287  12.552
46667W        W15085  32.487  13.830   1.847
46668W        W15086  15.591  19.223   3.223
46669W        W15087  41.436  24.190   4.252
46670W        W15088  13.794   8.769  11.467
46671W        W15089  11.728  24.482  10.489
46672W        W15090   6.381  41.316   2.402
46673W        W15091  19.058  33.896  13.951
46674W        W15092  38.481   3.219  12.507
46675W        W15093  32.535  23.161   1.831
46676W        W15094  35.899  25.555  14.471
46677W        W15095  21.182  12.196   2.719
46678W        W15096  20.599  23.216   3.686
46679W        W15097  30.076   8.216  10.607
46680W        W15098  28.155   3.803  13.953
46681W        W15099   6.845   4.872   0.480
46682W        W15100  29.151   5.808   2.353
46683W        W15101  17.711   8.873   1.929
46684W        W15102  18.054  40.821  12.033
46685W        W15103  41.017  34.395   4.670
46686W        W15104  44.415  36.428   3.791
46687W        W15105  25.562  21.105   4.828
46688W        W15106   0.477  22.589  10.417
46689W        W15107  23.664  40.515   0.856
46690W        W15108  25.004  11.369  11.859
46691W        W15109  32.570   8.788  10.633
46692W        W15110  43.493  43.314  12.382
46693W        W15111  44.765  13.613  11.013
46694W        W15112  19.698  32.923  11.967
46695W        W15113  36.849  12.704  10.441
46696W        W15114  38.847   6.331   0.451
46697W        W15115  12.338  34.007  14.872
46698W        W15116  25.549   2.846   4.317
46699W        W15117  31.530  23.146   1.229
46700W        W15118  21.621  23.005   2.359
46701W        W15119  27.946   2.391   3.148
46702W        W15120   1.418  15.173  10.985
46703W        W15121  40.474  44.312  13.867
46704W        W15122  21.733  33.087  14.983
46705W        W15123  38.069  36.041   4.669
46706W        W15124  38.348  23.051  12.352
46707W        W15125   2.290   6.921   4.128
46708W        W15126   5.377   7.750   1.210
46709W        W15127  43.415  41.402  13.923
46710W        W15128  25.546  44.916  13.512
46711W        W15129  11.248  41.887  13.382
46712W        W15130  32.972  34.540   3.296
46713W        W15131  18.244  43.830  12.032
46714W        W15132  23.510   0.461  11.899
46715W        W15133  22.665  35.584  14.471
46716W        W15134  32.134   5.374  11.508
46717W        W15135  18.688  25.093   5.259
46718W        W15136  18.295  16.755  14.790
46719W        W15137  43.862  17.164  11.554
46720W        W15138  21.217  36.863  13.966
46721W        W15139  26.053  41.466   0.440
46722W        W15140  37.078  29.148  12.068
46723W        W15141  32.637  35.555   1.891
46724W        W15142  26.197  23.137   2.404
46725W        W15143   7.190  26.591  14.893
46726W        W15144  27.042  19.251  13.929
46727W        W15145   9.709  21.536   4.123
46728W        W15146  31.473  19.044  13.840
46729W        W15147  35.572  38.559   2.733
46730W        W15148  28.494   5.384   0.894
46731W        W15149  12.837  31.912   1.446
46732W        W15150  27.172  23.008   3.254
46733W        W15151  41.864  38.419  14.305
46734W        W15152   3.856  30.960  11.890
46735W        W15153  15.256   0.257   0.393
46736W        W15154  44.871   0.823   0.405
46737W        W15155  34.436  41.300   3.635
46738W        W15156  20.247  13.231  14.019
46739W        W15157  28.542  15.682   1.910
46740W        W15158   7.380  20.263  10.403
46741W        W15159  38.329  21.697   2.294
46742W        W15160  13.331  30.477   3.671
46743W        W15161  32.136  27.556  10.425
46744W        W15162  30.154  24.989   2.742
46745W        W15163  18.067   0.900   4.179
46746W        W15164  35.088  25.040  11.516
46747W        W15165  23.566   0.884  10.953
46748W        W15166  28.151  16.588  10.643
46749W        W15167  12.658  13.284   3.838
46750W        W15168   8.297   6.244   3.763
46751W        W15169  30.430   7.834   4.347
46752W        W15170  38.030   9.741   1.718
46753W        W15171  43.342   6.184  12.909
46754W        W15172  44.962  14.136   5.100
46755W        W15173  37.360  21.594   2.902
46756W        W15174  28.510  31.948   3.793
46757W        W15175  26.063  38.350  12.353
46758W        W15176   0.320   6.420   1.446
46759W        W15177  31.579  25.610   3.684
46760W        W15178  26.526  42.373   2.186
46761W        W15179  24.166  30.562  12.825
46762W        W15180  36.096   7.226   0.952
46763W        W15181  39.441  34.024   2.257
46764W        W15182  32.117  19.580  11.884
46765W        W15183  15.325  28.623   0.367
46766W        W15184  36.475  18.760   0.421
46767W        W15185   7.247  10.707   0.321
46768W        W15186  20.606  14.789  14.811
46769W        W15187  42.295  10.838   1.723
46770W        W15188  25.980  40.923   0.867
46771W        W15189  26.677   5.758  12.495
46772W        W15190  18.789   3.299  13.850
46773W        W15191   1.316  36.898   3.279
46774W        W15192  27.056  29.664  12.905
46775W        W15193  11.804   8.742  14.765
46776W        W15194  34.052  22.657  14.020
46777W        W15195  10.259  15.164   4.136
46778W        W15196  27.119  39.323   2.409
46779W        W15197  29.477  44.953   1.398
46780W        W15198  42.911   4.387   4.347
46781W        W15199  12.738  40.903   4.164
46782W        W15200  30.499  26.078   2.305
46783W        W15201  22.043  22.090  14.377
46784W        W15202  43.991  12.754   1.930
46785W        W15203  37.904  39.941  10.130
46786W        W15204   7.820  35.491   3.725
46787W        W15205  32.622   6.788   4.638
46788W        W15206  29.032  23.083   3.208
46789W        W15207  43.498  13.658  10.961
46790W        W15208  34.012  36.482  14.919
46791W        W15209   1.304  39.492  11.016
46792W        W15210  38.357  12.664   4.613
46793W        W15211  31.086  25.092  10.527
46794W        W15212  28.946  22.205  12.962
46795W        W15213   7.725  30.993   3.638
46796W        W15214  14.227  39.885   4.207
46797W        W15215  32.627  18.681  13.527
46798W        W15216  14.756  15.259   0.472
46799W        W15217   2.440  44.386   0.400
46800W        W15218   9.811  15.625  13.469
46801W        W15219  42.969  36.563   0.767
46802W        W15220  23.592  34.021   0.791
46803W        W15221  29.125   6.217  12.862
46804W        W15222   3.449  27.545   3.361
46805W        W15223  37.560  19.564   2.888
46806W        W15224   2.325  25.655  10.456
46807W        W15225  41.792   6.738  10.403
46808W        W15226  42.003  41.839  10.546
46809W        W15227  16.692   8.401   4.217
46810W        W15228  28.454  16.259   3.805
46811W        W15229   7.218  12.343  10.446
46812W        W15230  33.978   1.889   2.678
46813W        W15231  43.858  40.330  10.524
46814W        W15232   0.910  28.160   4.602
46815W        W15233   0.982  15.611   5.152
46816W        W15234  35.565   1.884  12.428
46817W        W15235   2.418  37.047  11.950
46818W        W15236  25.001  32.119   0.251
46819W        W15237  26.037   7.287  12.399
46820W        W15238  27.593  29.152  11.129
46821W        W15239  25.042  38.564  10.954
46822W        W15240  10.707  14.136   3.278
46823W        W15241  16.167  40.341   4.754
46824W        W15242  20.073  28.173  10.917
46825W        W15243   7.861  29.489  14.408
46826W        W15244  41.969  20.087   4.607
46827W        W15245  39.049  37.439   3.368
46828W        W15246   1.415  20.660  13.961
46829W        W15247  27.646  40.011  12.521
46830W        W15248  33.576  27.462   2.763
46831W        W15249  23.029  10.257   3.665
46832W        W15250  10.853  21.546  11.423
46833W        W15251  13.197  26.144   1.299
46834W        W15252  10.155   2.385  10.467
46835W        W15253  44.466  31.023  14.910
46836W        W15254   2.882  25.682   1.769
46837W        W15255  41.027  13.745   4.136
46838W        W15256  34.492  22.041   2.765
46839W        W15257  16.709   3.397   4.339
46840W        W15258  23.051   3.350   0.423
46841W        W15259  16.597  17.280   3.853
46842W        W15260   3.812  31.942   3.158
46843W        W15261  17.741   6.710   1.217
46844W        W15262  28.168  17.653  10.518
46845W        W15263  22.702  35.885   2.722
46846W        W15264  17.271  23.571   3.335
46847W        W15265  19.625  27.543  11.067
46848W        W15266  21.666  40.872  13.926
46849W        W15267   9.760  40.397  11.945
46850W        W15268  40.425   8.901  10.522
46851W        W15269  42.513  40.547   2.783
46852W        W15270  34.488   7.845  12.522
46853W        W15271   5.921  38.463   3.290
46854W        W15272  31.640  25.602  13.403
46855W        W15273  40.534  44.405   4.155
46856W        W15274   2.385   8.337  11.890
46857W        W15275  16.761  12.719   3.266
46858W        W15276  23.609  25.049  11.033
46859W        W15277  22.028  11.201  14.862
46860W        W15278   2.792  41.484  13.335
46861W        W15279  33.400  43.958   4.794
46862W        W15280  35.428  27.672   4.202
46863W        W15281   6.329   5.226   1.756
46864W        W15282  26.569   0.793  13.454
46865W        W15283  22.118   3.383  14.404
46866W        W15284  39.318   8.885  10.922
46867W        W15285   3.404  22.586  11.857
46868W        W15286  28.570   2.803  11.503
46869W        W15287  11.319  19.181   1.741
46870W        W15288   0.358  32.559   0.822
46871W        W15289  44.819  26.509   0.443
46872W        W15290  33.895   5.271  13.548
46873W        W15291  10.351  33.030   1.235
46874W        W15292  15.763   7.752   4.143
46875W        W15293  34.048  16.129   3.726
46876W        W15294  27.143  30.540  10.644
46877W        W15295   3.846   9.777  11.061
46878W        W15296  34.422  30.966   3.341
46879W        W15297  12.628   7.706   4.296
46880W        W15298  23.573   2.364   0.926
46881W        W15299  26.062  13.615   4.759
46882W        W15300   4.267  26.986  13.937
46883W        W15301   8.295  33.119  12.890
46884W        W15302  17.175   7.791   4.738
46885W        W15303  10.644  36.880   3.663
46886W        W15304  26.075  38.019  11.513
46887W        W15305  27.943  13.226   3.759
46888W        W15306  37.492   9.174   3.283
46889W        W15307  29.128  17.599  11.482
46890W        W15308  27.132   0.410  13.963
46891W        W15309  21.092  44.357   4.310
46892W        W15310  23.068  29.479   2.827
46893W        W15311  40.307  20.058  14.456
46894W        W15312   7.266  34.525   4.344
46895W        W15313  28.514  27.075  11.468
46896W        W15314  13.695  14.178   2.802
46897W        W15315  44.504  16.083  13.314
46898W        W15316  27.991  10.875   2.278
46899W        W15317  20.761   5.273  14.437
46900W        W15318  38.827  25.589   1.399
46901W        W15319  31.946  28.015   2.191
46902W        W15320  23.165   0.833  10.603
46903W        W15321  27.678   7.827  12.952
46904W        W15322  19.770  31.577   2.806
46905W        W15323  37.491  42.870  14.504
46906W        W15324  10.240   1.312  14.935
46907W        W15325  11.271  31.006  11.058
46908W        W15326  24.618  16.768  13.358
46909W        W15327  11.672  22.175  11.912
46910W        W15328  32.121  33.449   4.331
46911W        W15329  28.172  20.060   3.658
46912W        W15330  42.999  17.759  12.077
46913W        W15331  35.492  32.078   3.823
46914W        W15332   1.976  11.721  12.520
46915W        W15333  13.265  15.123  14.290
46916W        W15334   9.197   3.851  13.855
46917W        W15335   3.241  29.999   4.117
46918W        W15336  19.771  24.560  12.570
46919W        W15337  27.692  29.652   2.302
46920W        W15338  30.093   9.184   0.416
46921W        W15339  34.879  32.018   3.197
46922W        W15340  11.856  16.624  13.882
46923W        W15341  39.061   1.951  10.486
46924W        W15342  17.298   3.338  14.861
46925W        W15343  37.382  36.994   1.900
46926W        W15344  34.579  25.171  13.363
46927W        W15345   1.412   8.725  12.877
46928W        W15346  32.975  21.605  12.367
46929W        W15347   1.751  43.287  12.021
46930W        W15348  41.472  44.477  11.928
46931W        W15349   3.244  22.216   1.813
46932W        W15350  16.751   6.251   0.962
46933W        W15351  15.818   6.291   4.140
46934W        W15352  11.747   2.836   0.295
46935W        W15353  25.145  29.130   3.688
46936W        W15354  17.271   5.780  12.383
46937W        W15355  16.604  37.974   1.398
46938W        W15356  37.840  12.296  10.595
46939W        W15357  27.032   1.751   2.405
46940W        W15358   4.779  25.104  13.545
46941W        W15359  35.095  32.922   1.710
46942W        W15360   2.814   8.883  14.372
46943W        W15361  12.641   7.287  14.511
46944W        W15362  16.180   0.987   4.222
46945W        W15363   4.896  36.356   1.378
46946W        W15364   9.731   9.685  14.365
46947W        W15365  37.481  27.500   3.686
46948W        W15366  29.163  35.377   3.783
46949W        W15367  41.929  30.157   2.748
46950W        W15368  30.539  15.583  10.950
46951W        W15369  20.040  33.085   3.750
46952W        W15370  39.943  21.062  10.609
46953W        W15371  29.608   6.261  14.327
46954W        W15372  40.797  37.470  11.493
46955W        W15373  41.353  20.209   4.707
46956W        W15374   3.352  21.031   3.306
46957W        W15375   4.321  44.910   3.214
46958W        W15376  35.562  29.498  14.337
46959W        W15377  27.611  29.113  12.356
46960W        W15378  36.477   1.771   0.380
46961W        W15379  25.189  23.580  14.877
46962W        W15380   9.187  14.214  11.097
46963W        W15381  23.057  26.966   4.113
46964W        W15382  29.532  26.038  14.915
46965W        W15383  41.955  29.578   0.360
46966W        W15384  21.035   1.754   2.839
46967W        W15385   1.365  41.901   2.247
46968W        W15386  39.407  38.958  10.105
46969W        W15387   8.755   7.733   2.878
46970W        W15388  27.982  23.153  12.073
46971W        W15389  36.406  35.086   1.763
46972W        W15390  31.632  25.498  13.809
46973W        W15391   5.324  20.120  10.625
46974W        W15392  14.735  14.679   4.645
46975W        W15393  10.871  31.608   2.312
46976W        W15394  20.229  21.232   4.317
46977W        W15395  12.856  28.596  13.049
46978W        W15396   8.705  20.547   2.320
46979W        W15397  32.085  18.087  10.982
46980W        W15398  44.415  23.126  14.971
46981W        W15399  10.677  37.915  12.866
46982W        W15400   7.186  25.062  10.548
46983W        W15401  21.731  39.008  14.964
46984W        W15402  26.090  21.728  14.794
46985W        W15403  27.652  10.378  14.382
46986W        W15404  21.124  39.525   3.693
46987W        W15405  23.560  26.683  13.048
46988W        W15406  36.363   8.394  10.623
46989W        W15407   3.335   4.222   3.366
46990W        W15408  25.114   3.429  12.379
46991W        W15409  11.251  31.429  14.499
46992W        W15410  37.349   3.223  12.427
46993W        W15411   9.231  39.064  10.136
46994W        W15412  14.182   3.429  13.050
46995W        W15413  32.000  17.629   2.323
46996W        W15414  40.437  30.119   3.802
46997W        W15415  30.629  39.376   2.768
46998W        W15416  10.726  40.052   2.718
46999W        W15417  44.914  15.251   4.214
47000W        W15418  19.774  34.466  14.486
47001W        W15419  21.121  37.342   2.718
47002W        W15420   8.178  43.906  10.988
47003W        W15421  44.348  44.860  12.385
47004W        W15422  24.992   3.875  14.971
47005W        W15423  35.019  36.070   3.761
47006W        W15424  27.649   2.959  14.444
47007W        W15425  25.614  31.942   1.374
47008W        W15426   6.266   2.882   2.265
47009W        W15427  27.039  16.175  13.887
47010W        W15428  14.759  44.442   1.309
47011W        W15429  27.132   7.339   3.675
47012W        W15430  14.253  33.593   3.319
47013W        W15431   2.325  22.690   9.665
47014W        W15432  32.554   4.894  13.805
47015W        W15433  18.784  36.511  14.980
47016W        W15434  23.224  20.188   0.873
47017W        W15435  18.097  21.088   1.370
47018W        W15436  21.734  39.387  14.847
47019W        W15437  32.479  23.669  10.491
47020W        W15438  42.370   6.206   1.749
47021W        W15439  10.879  32.126   5.252
47022W        W15440  28.075   5.816   1.448
47023W        W15441  19.223   1.883   2.178
47024W        W15442  11.161  11.293   4.753
47025W        W15443  41.944  43.332  11.906
47026W        W15444  43.508  33.498  10.498
47027W        W15445   3.413  27.620   4.345
47028W        W15446  21.722   0.939  11.491
47029W        W15447   2.788   1.483  11.502
47030W        W15448   1.810   8.334   3.738
47031W        W15449  39.404   9.284  13.515
47032W        W15450  19.567  18.777   0.787
47033W        W15451   6.368  16.709   4.254
47034W        W15452   3.423  34.428  14.898
47035W        W15453   5.203   7.818   4.733
47036W        W15454   7.339  44.761   0.262
47037W        W15455  19.628   5.250   1.717
47038W        W15456  15.202  14.763  12.505
47039W        W15457  27.494  33.544   4.215
47040W        W15458  10.180  44.262  14.379
47041W        W15459  18.637   6.877   3.678
47042W        W15460  27.019  30.455  13.954
47043W        W15461  42.282   9.744   3.346
47044W        W15462   0.819   9.885   4.766
47045W        W15463  22.015   2.424  12.407
47046W        W15464  35.389   9.748   4.745
47047W        W15465  31.988  40.375   5.127
47048W        W15466  25.012  20.740   0.322
47049W        W15467  40.037   5.917  13.526
47050W        W15468   0.784  44.385   4.174
47051W        W15469  33.614   7.693   1.745
47052W        W15470  31.445  40.345  14.945
47053W        W15471  32.578   1.977  14.381
47054W        W15472   1.382  40.949   2.234
47055W        W15473  13.267  18.613   5.133
47056W        W15474  20.189  27.509   2.318
47057W        W15475   3.878   5.889   2.278
47058W        W15476  44.439  43.943   2.765
47059W        W15477   6.312  32.970  14.493
47060W        W15478  21.608  12.756   2.765
47061W        W15479  39.044   3.727  11.438
47062W        W15480  24.194  24.706  12.860
47063W        W15481  33.006   9.364   0.421
47064W        W15482  40.041  33.470  13.363
47065W        W15483  21.534   8.174   3.734
47066W        W15484   9.800  44.399   0.297
47067W        W15485  39.005  27.659  14.886
47068W        W15486  26.064   8.824   4.622
47069W        W15487  40.391  28.085   9.973
47070W        W15488  15.729  29.468   0.836
47071W        W15489  12.338  41.002   4.185
47072W        W15490  30.554  40.871   3.283
47073W        W15491   0.289  31.075   3.855
47074W        W15492  24.025  41.376   2.394
47075W        W15493  37.834  24.679  14.759
47076W        W15494  17.770  12.843  14.395
47077W        W15495  40.868  12.132   1.387
47078W        W15496  20.569  32.900  13.962
47079W        W15497  12.724  22.162  10.436
47080W        W15498   1.898  32.119   0.728
47081W        W15499   0.759   8.162   3.781
47082W        W15500  35.942  17.711   0.793
47083W        W15501   4.360  27.595   2.412
47084W        W15502  12.286   0.427   4.183
47085W        W15503  31.956  35.358  10.511
47086W        W15504  37.509  24.542   4.175
47087W        W15505  38.010   8.800   1.244
47088W        W15506  13.648  29.443  14.985
47089W        W15507   4.266  36.392  14.360
47090W        W15508   9.762  34.968  12.920
47091W        W15509  29.965  33.083   4.210
47092W        W15510  43.938  42.331  11.531
47093W        W15511  41.404  14.780  12.954
47094W        W15512  40.355  43.777  13.831
47095W        W15513  13.336   5.726   3.343
47096W        W15514  20.726  11.363  12.978
47097W        W15515  30.101  34.052   2.900
47098W        W15516  25.544  34.996   1.845
47099W        W15517   9.318  11.338  13.912
47100W        W15518  17.642  11.717   1.311
47101W        W15519  19.243   2.448  14.930
47102W        W15520  39.910  44.822   4.770
47103W        W15521  14.632   5.865  12.897
47104W        W15522  25.628  39.400   1.295
47105W        W15523  23.559  17.697  13.920
47106W        W15524   1.840  17.087   1.244
47107W        W15525   4.325  30.959  11.440
47108W        W15526  12.189  35.955   4.640
47109W        W15527  10.209  27.599   0.949
47110W        W15528   3.896  34.996   2.788
47111W        W15529   8.671  18.596  12.406
47112W        W15530  13.643   5.259   9.520
47113W        W15531  43.414  40.900   3.180
47114W        W15532  32.392  35.584  12.495
47115W        W15533  36.964  17.164   4.793
47116W        W15534   0.407  26.102  13.344
47117W        W15535  27.024   9.162  14.858
47118W        W15536   8.208  38.347  14.025
47119W        W15537  36.926  13.333  14.463
47120W        W15538  44.451   1.381   4.257
47121W        W15539  12.296   4.292   0.839
47122W        W15540  11.766  25.682  12.876
47123W        W15541   9.874  19.080  12.001
47124W        W15542  18.656   4.816   2.208
47125W        W15543  15.177  12.840   3.331
47126W        W15544  28.579  23.230   3.379
47127W        W15545  13.123  23.240  12.422
47128W        W15546  19.238   6.799   1.785
47129W        W15547  12.726  32.418   4.185
47130W        W15548  40.901  13.332   0.427
47131W        W15549   4.352  18.787  13.364
47132W        W15550   9.719  35.953   0.328
47133W        W15551  16.237  44.477   0.751
47134W        W15552   4.822  27.492   3.734
47135W        W15553  40.030  23.016  10.446
47136W        W15554  26.206   1.962   2.787
47137W        W15555  43.284  38.508   9.991
47138W        W15556   8.886  16.567   3.707
47139W        W15557  13.614  37.472   2.187
47140W        W15558  26.064  43.477  14.841
47141W        W15559  25.016  16.772  12.443
47142W        W15560  39.000  26.500   5.269
47143W        W15561  14.600  31.092  12.545
47144W        W15562  26.051  41.409   4.742
47145W        W15563   5.863  31.625   1.237
47146W        W15564  12.292  21.101   2.239
47147W        W15565   3.379  27.951   4.836
47148W        W15566  38.972  40.437  12.034
47149W        W15567   1.939  35.062   2.356
47150W        W15568   1.816  17.775  14.861
47151W        W15569   9.153  23.703   0.825
47152W        W15570  12.220  32.508  10.550
47153W        W15571  21.644  23.125  11.073
47154W        W15572  24.491  25.624  12.023
47155W        W15573  32.992  13.632   4.748
47156W        W15574  13.715  36.871  14.327
47157W        W15575  12.125  32.006   2.788
47158W        W15576  44.365  41.349   9.999
47159W        W15577  24.026  15.246   0.424
47160W        W15578  37.041  16.770   4.615
47161W        W15579  17.791  38.423  14.376
47162W        W15580  34.462  21.677  13.023
47163W        W15581  13.723  22.014  12.960
47164W        W15582   2.380  36.444  14.773
47165W        W15583  26.522  42.380   0.349
47166W        W15584  22.547  38.559  13.029
47167W        W15585  32.044  39.438   0.365
47168W        W15586  28.478  21.679   1.259
47169W        W15587  37.354  32.048   3.220
47170W        W15588   5.315  16.726   1.436
47171W        W15589  28.595   1.410  10.539
47172W        W15590  28.977  26.984  11.105
47173W        W15591  21.037   0.353  14.510
47174W        W15592  28.017  40.867  12.514
47175W        W15593   8.251   5.336   2.284
47176W        W15594  25.681  16.580   3.823
47177W        W15595  42.892  26.996   0.748
47178W        W15596  40.043   6.872   3.301
47179W        W15597   7.893   5.696  13.394
47180W        W15598  16.637  37.075  11.565
47181W        W15599  21.175  32.039   3.832
47182W        W15600  28.949  29.516  14.434
47183W        W15601  22.706  22.075  13.329
47184W        W15602  35.938   5.219   1.789
47185W        W15603  42.492   1.419   3.858
47186W        W15604  23.571   4.777  13.352
47187W        W15605  40.456  26.503  11.517
47188W        W15606  25.091  32.969  10.458
47189W        W15607  17.794  24.092   2.239
47190W        W15608   1.407  15.276   3.824
47191W        W15609  44.821  16.121   2.890
47192W        W15610   1.451   5.704   4.727
47193W        W15611  13.264   2.416  12.530
47194W        W15612  29.473   0.383  13.528
47195W        W15613  18.228  32.503  14.956
47196W        W15614  20.617   3.427   4.723
47197W        W15615  31.113  28.671   3.150
47198W        W15616  15.790  21.711  10.441
47199W        W15617  37.033  34.914  10.406
47200W        W15618  31.094  28.653  13.052
47201W        W15619  35.404  13.640  12.839
47202W        W15620  26.084   5.890   2.354
47203W        W15621   5.917  31.087  14.496
47204W        W15622  22.528  33.950  12.864
47205W        W15623  13.700   3.825   2.296
47206W        W15624  15.710  12.178   1.765
47207W        W15625  17.556  23.633  12.931
47208W        W15626  29.605  37.040   1.290
47209W        W15627  37.008   3.740  13.912
47210W        W15628   8.361  37.425   4.707
47211W        W15629  44.983  27.668  10.483
47212W        W15630  35.031   1.772  12.994
47213W        W15631  10.328  35.403  13.519
47214W        W15632  21.036   9.705  12.448
47215W        W15633   9.334  28.133   0.331
47216W        W15634  43.293  39.851  11.868
47217W        W15635  32.032  36.512  13.060
47218W        W15636   8.220  11.248   4.277
47219W        W15637  21.740  13.259   1.863
47220W        W15638  42.312  23.576   4.791
47221W        W15639  43.866  41.369   3.371
47222W        W15640  28.555  32.911   3.353
47223W        W15641  32.929  43.791  12.904
47224W        W15642  24.225  15.166   3.851
47225W        W15643  23.194  22.688  13.834
47226W        W15644   1.390  18.265   0.967
47227W        W15645  36.876  14.304  10.899
47228W        W15646  26.464  37.908   2.374
47229W        W15647   3.356   3.295  13.375
47230W        W15648  36.561  11.269   2.896
47231W        W15649  28.023  30.635   2.404
47232W        W15650   1.248  42.281  10.547
47233W        W15651  43.848   9.769  12.906
47234W        W15652  38.491   3.947   1.210
47235W        W15653  25.170   4.421  14.988
47236W        W15654  24.546  18.240   2.838
47237W        W15655  16.693  36.941  13.885
47238W        W15656  24.571  42.859   4.122
47239W        W15657  26.201  33.892  14.768
47240W        W15658  43.783  31.106  14.999
47241W        W15659   2.385  35.546  12.551
47242W        W15660  16.678  28.502  14.906
47243W        W15661  24.486  15.087  10.949
47244W        W15662  22.543  14.768   2.834
47245W        W15663  39.406  14.208  13.370
47246W        W15664  33.395  26.552   4.259
47247W        W15665  11.754  40.390  13.401
47248W        W15666  29.027  39.490   1.322
47249W        W15667  23.734   5.777   4.790
47250W        W15668   7.890  23.192  14.363
47251W        W15669  40.035  15.094  12.017
47252W        W15670  33.034  32.629   3.820
47253W        W15671   7.691   4.388  13.859
47254W        W15672   4.733  36.465  10.900
47255W        W15673  18.769  35.387   2.743
47256W        W15674   0.808  10.723  11.593
47257W        W15675  42.014  39.560  12.097
47258W        W15676  38.912  11.630   1.254
47259W        W15677  13.809  39.345  11.371
47260W        W15678  20.068  31.639  13.795
47261W        W15679  34.415  30.914   1.731
47262W        W15680  27.096   0.947  11.944
47263W        W15681  19.090   6.228   3.146
47264W        W15682  38.035   6.914   3.633
47265W        W15683  25.024  14.232  10.583
47266W        W15684  32.953   8.882   3.693
47267W        W15685   4.354  35.597  13.005
47268W        W15686  34.000  39.514  11.875
47269W        W15687   7.687  14.782  13.987
47270W        W15688   2.728  22.658   1.909
47271W        W15689  39.969  42.466  13.391
47272W        W15690  11.297  22.011   3.756
47273W        W15691  34.878  13.334  12.937
47274W        W15692  24.639   8.758   3.176
47275W        W15693   3.882  22.590  12.477
47276W        W15694  44.923  38.059  13.026
47277W        W15695   0.839  43.395   1.233
47278W        W15696  35.962  10.285  14.896
47279W        W15697  17.706  13.626  11.484
47280W        W15698  25.507  27.024  12.965
47281W        W15699   2.815  40.431  12.399
47282W        W15700  20.546  41.523   2.752
47283W        W15701   8.229  20.752  14.878
47284W        W15702  35.066   2.275   2.272
47285W        W15703  42.405  22.587  13.884
47286W        W15704  36.450  12.705  11.020
47287W        W15705   1.269  11.765   4.689
47288W        W15706  35.486  20.737  13.957
47289W        W15707  28.023  36.422   0.852
47290W        W15708  23.509   3.871   3.153
47291W        W15709  27.081  31.014   0.794
47292W        W15710  44.968  13.806   5.135
47293W        W15711  21.748  38.470  13.523
47294W        W15712   7.675  42.355  11.100
47295W        W15713  24.018   3.888  13.528
47296W        W15714  44.306  39.321   4.744
47297W        W15715   1.370  44.936  13.372
47298W        W15716  19.666  31.916  12.530
47299W        W15717  39.810  30.640  11.124
47300W        W15718   3.901  22.553  14.980
47301W        W15719   2.911   1.922   2.371
47302W        W15720  16.166  24.218  14.494
47303W        W15721   4.393  38.502  11.030
47304W        W15722   8.776   5.290  12.063
47305W        W15723  26.055  22.688  12.089
47306W        W15724  33.985   4.358  11.568
47307W        W15725  24.694  39.493  11.063
47308W        W15726  43.836  10.169   9.985
47309W        W15727  25.662  23.055   1.401
47310W        W15728  27.941   3.281   2.408
47311W        W15729  27.963  23.022  12.373
47312W        W15730  28.490  38.924   1.796
47313W        W15731  42.988   9.809   3.218
47314W        W15732  29.477  40.404  14.424
47315W        W15733  43.769  39.999  13.845
47316W        W15734   0.436  37.893  11.969
47317W        W15735  44.942  21.141   4.706
47318W        W15736  23.081  28.473   4.285
47319W        W15737  41.011  23.148   0.854
47320W        W15738  35.070   5.308   0.776
47321W        W15739  31.511  23.124  12.941
47322W        W15740  39.918  19.123   2.385
47323W        W15741  21.556  38.507   5.280
47324W        W15742  33.468  30.016  12.065
47325W        W15743   7.406  14.208   1.403
47326W        W15744  29.953  19.759   0.938
47327W        W15745  21.155   4.216   0.961
47328W        W15746  38.952  31.089  14.777
47329W        W15747  30.591  33.516  12.973
47330W        W15748  26.112   0.792  13.424
47331W        W15749   7.269  41.302  13.024
47332W        W15750  14.785  34.063   3.224
47333W        W15751  15.125  32.433  10.459
47334W        W15752   6.727  33.126  12.043
47335W        W15753  17.295   2.329  14.405
47336W        W15754  28.027  42.985  13.943
47337W        W15755  18.242  38.421  11.403
47338W        W15756  16.166   1.749  14.450
47339W        W15757   8.164  15.146   4.744
47340W        W15758  16.273  18.094  12.509
47341W        W15759   0.369   2.343  11.502
47342W        W15760   9.267  33.414   3.695
47343W        W15761  12.353  30.046   4.351
47344W        W15762   8.406  40.473   3.811
47345W        W15763  40.549   3.381   0.270
47346W        W15764  22.688  21.732   2.669
47347W        W15765  36.004  29.074   3.677
47348W        W15766  23.723  10.267   1.902
47349W        W15767  22.645  17.204   4.136
47350W        W15768  12.832  38.442   4.308
47351W        W15769  22.728  44.476  10.553
47352W        W15770   5.834  34.558  12.522
47353W        W15771  10.329   7.265   4.703
47354W        W15772  12.135   0.430  14.937
47355W        W15773  34.093  25.068   4.731
47356W        W15774  19.549  20.527   0.908
47357W        W15775  18.601  14.741   0.888
47358W        W15776  21.737  13.798  10.594
47359W        W15777  29.013  20.209  12.507
47360W        W15778   8.236  26.672   1.218
47361W        W15779  41.457   4.908   4.289
47362W        W15780  29.611  40.359   3.274
47363W        W15781  31.137  21.256  13.425
47364W        W15782  14.737  33.879  14.373
47365W        W15783  23.026  10.222   0.374
47366W        W15784  35.554  34.033  14.353
47367W        W15785  18.167  44.778  10.902
47368W        W15786  39.036  35.941   3.333
47369W        W15787  33.906  24.684  13.903
47370W        W15788   4.327  12.297  12.824
47371W        W15789  20.226  10.322   4.627
47372W        W15790  29.079  19.186  10.407
47373W        W15791   5.359   0.748  14.867
47374W        W15792  23.145   8.851   0.772
47375W        W15793  16.724  15.315  13.388
47376W        W15794  20.035  28.945  12.458
47377W        W15795  19.674  38.441   2.359
47378W        W15796  10.279   2.799  13.529
47379W        W15797  17.733  20.054  13.058
47380W        W15798  28.032   7.227  13.814
47381W        W15799   5.798  20.748  12.411
47382W        W15800  11.216  15.664  10.474
47383W        W15801   9.198  13.327   3.229
47384W        W15802   4.341  16.699   0.922
47385W        W15803  35.956  27.689   2.221
47386W        W15804  27.983   4.328   9.958
47387W        W15805  15.202   7.189   3.370
47388W        W15806   9.310  30.652   5.286
47389W        W15807  28.619   2.893   2.720
47390W        W15808  11.226  13.140   0.327
47391W        W15809  29.572  21.176   4.736
47392W        W15810   8.793  22.220  12.057
47393W        W15811   7.723  30.047   0.412
47394W        W15812  44.386  19.721  10.485
47395W        W15813   9.334   6.892   0.783
47396W        W15814  38.538   4.354   4.352
47397W        W15815  33.910  26.128   1.778
47398W        W15816   9.693  11.159   0.734
47399W        W15817  30.133  29.621   0.872
47400W        W15818  14.172   2.791   4.640
47401W        W15819   6.422   1.831   0.744
47402W        W15820   7.838  40.006  12.974
47403W        W15821  19.777  11.678   5.138
47404W        W15822  39.874  24.228   2.383
47405W        W15823  38.508  28.144  14.820
47406W        W15824  39.355  19.041  10.615
47407W        W15825  12.695   3.902  11.471
47408W        W15826  13.220  18.052   1.249
47409W        W15827  17.199   9.367  13.853
47410W        W15828   5.816  42.460  12.964
47411W        W15829   1.243  22.215  13.918
47412W        W15830  42.866  37.542   2.306
47413W        W15831  20.601  43.430  12.823
47414W        W15832  17.734  35.039  13.877
47415W        W15833  21.544   9.205   4.651
47416W        W15834  15.674  15.219  10.986
47417W        W15835  21.129  28.623  12.562
47418W        W15836   0.380  32.416  11.019
47419W        W15837  42.396  39.031   4.828
47420W        W15838  15.730  13.846   4.615
47421W        W15839  41.308  42.388  14.308
47422W        W15840   2.331  23.584   2.759
47423W        W15841  15.163   0.417  14.292
47424W        W15842  17.145  20.551  11.110
47425W        W15843  21.135  10.274   0.840
47426W        W15844  15.216  27.992   2.241
47427W        W15845   3.313  36.978   3.324
47428W        W15846   9.867  21.089  14.457
47429W        W15847  36.867  22.196  14.403
47430W        W15848  18.065  32.575  13.967
47431W        W15849  33.892  22.693  12.384
47432W        W15850  42.973  42.830   2.405
47433W        W15851  43.333   1.737  13.880
47434W        W15852  18.628  44.000   2.272
47435W        W15853  28.668  39.935  12.993
47436W        W15854  27.635  18.099   0.482
47437W        W15855  35.524  34.379   4.267
47438W        W15856  34.093  44.342   1.307
47439W        W15857  22.241  30.434   4.177
47440W        W15858  10.781  12.640  12.443
47441W        W15859  37.070  14.731   4.739
47442W        W15860  25.539  22.650   1.797
47443W        W15861  11.648  41.925   3.214
47444W        W15862   7.906  40.906  13.517
47445W        W15863  18.659   0.843  12.880
47446W        W15864  22.722  35.043  12.550
47447W        W15865   7.403  33.065  12.018
47448W        W15866  10.204  29.109   0.813
47449W        W15867  24.643  38.896  14.759
47450W        W15868  44.796  24.201  13.394
47451W        W15869   9.360  22.221  10.941
47452W        W15870   5.734  44.382  14.794
47453W        W15871   3.924  18.207  10.477
47454W        W15872  36.348   3.386  11.598
47455W        W15873  44.290  27.665  10.584
47456W        W15874  37.350  31.924  10.444
47457W        W15875  29.121  31.541   0.809
47458W        W15876   3.842  42.956  14.020
47459W        W15877  35.898  37.412   5.205
47460W        W15878  29.641   0.460   3.274
47461W        W15879  14.793  27.482  11.882
47462W        W15880  43.503  39.322   1.302
47463W        W15881  40.360  22.705   5.143
47464W        W15882   9.868  39.051  14.291
47465W        W15883  27.473  25.003   0.357
47466W        W15884  18.751  42.301   0.728
47467W        W15885   5.729  24.615   3.272
47468W        W15886  30.133  24.657   3.740
47469W        W15887  23.180  12.217   0.732
47470W        W15888   9.860  10.365  14.403
47471W        W15889  40.405  32.558  10.495
47472W        W15890  24.169   0.282  10.480
47473W        W15891  21.515  16.114   4.221
47474W        W15892   5.873  14.260   2.879
47475W        W15893  36.923  42.325  12.563
47476W        W15894   2.263  20.730  14.002
47477W        W15895  27.654  27.465  14.477
47478W        W15896  43.879  11.202   9.610
47479W        W15897  25.551  25.114  12.511
47480W        W15898   9.752   2.341   4.758
47481W        W15899  36.077  20.684   2.393
47482W        W15900  12.152  11.649  10.419
47483W        W15901  37.351  15.621   2.888
47484W        W15902  28.681  14.313   0.410
47485W        W15903  44.831  18.674   3.832
47486W        W15904   1.774   5.201  12.341
47487W        W15905  39.876  30.029   2.204
47488W        W15906  40.974  19.575  12.855
47489W        W15907  20.618  18.771   1.861
47490W        W15908  32.589   1.856   1.836
47491W        W15909   2.334  27.132  11.034
47492W        W15910  19.630  24.144  12.543
47493W        W15911   7.381  25.108  11.466
47494W        W15912  43.989  44.403  13.548
47495W        W15913   2.238   0.391   2.337
47496W        W15914  17.564  32.907  10.437
47497W        W15915  38.561   3.783  14.935
47498W        W15916  10.638  24.588  13.466
47499W        W15917  33.036  11.192   1.707
47500W        W15918  24.119  13.218  12.485
47501W        W15919  11.688  41.508  14.890
47502W        W15920   4.364  28.575   1.706
47503W        W15921  18.598  18.141   1.895
47504W        W15922  34.567  27.586   4.247
47505W        W15923  23.039  41.411  13.452
47506W        W15924  19.255  26.500  12.479
47507W        W15925  29.641  22.244   3.159
47508W        W15926  38.058  15.089   1.710
47509W        W15927  27.491   2.339  12.888
47510W        W15928  43.332  27.523  12.868
47511W        W15929  18.624   3.916  12.458
47512W        W15930  35.997   9.278  12.922
47513W        W15931  38.014   2.335  12.896
47514W        W15932   8.700  17.576  14.768
47515W        W15933  13.735  25.087   1.768
47516W        W15934  19.182  20.049  11.950
47517W        W15935  40.462  26.180  14.376
47518W        W15936  11.179   3.781   0.450
47519W        W15937  29.157  41.369  14.940
47520W        W15938  23.638   8.872   4.643
47521W        W15939  24.183  14.168   3.754
47522W        W15940  16.307   1.472  14.311
47523W        W15941  17.205  28.150   0.962
47524W        W15942  14.619   4.371  14.787
47525W        W15943  11.189  24.646  13.379
47526W        W15944  33.560  32.557  14.759
47527W        W15945   7.182  35.411   4.670
47528W        W15946  16.780  33.111   1.345
47529W        W15947  35.534  10.685   2.870
47530W        W15948  30.009   6.823   0.279
47531W        W15949   4.389  36.571  11.520
47532W        W15950   4.786  32.997   4.322
47533W        W15951  28.568  22.241  10.895
47534W        W15952  32.615  36.420   3.677
47535W        W15953  26.702  12.704   3.226
47536W        W15954  19.039  22.607  12.397
47537W        W15955  25.680  29.484   0.956
47538W        W15956  30.049  17.567   1.400
47539W        W15957   4.339  33.051  14.824
47540W        W15958   3.347  43.491   1.361
47541W        W15959  44.774  11.205   4.648
47542W        W15960  10.320   3.892   1.385
47543W        W15961   1.908  40.337   2.767
47544W        W15962   9.167   4.276  10.472
47545W        W15963  43.503  37.881  13.810
47546W        W15964  11.818  41.339   1.337
47547W        W15965  17.118  15.116  12.873
47548W        W15966   0.784  26.494  13.972
47549W        W15967  41.388  15.129  12.069
47550W        W15968  18.235  23.030   2.850
47551W        W15969  29.955  21.742  10.550
47552W        W15970  28.455  16.191   2.897
47553W        W15971  34.074  20.112  13.486
47554W        W15972   9.333   1.399  10.492
47555W        W15973  35.573  29.586   1.282
47556W        W15974   7.909   2.297   1.310
47557W        W15975  29.111   7.399  12.823
47558W        W15976  18.250  27.137   2.739
47559W        W15977   9.774  33.025  12.909
47560W        W15978   9.785  16.714  12.511
47561W        W15979  11.163  17.586  13.937
47562W        W15980  15.225  20.611  14.003
47563W        W15981  18.567  42.823  10.599
47564W        W15982  37.964  22.612   2.723
47565W        W15983  41.398  11.629  12.568
47566W        W15984  15.818   3.325   1.338
47567W        W15985  44.867  15.111  12.481
47568W        W15986  14.172  11.743   5.110
47569W        W15987  32.553  38.861   0.785
47570W        W15988  44.284  22.747  11.003
47571W        W15989  23.649   9.374   0.362
47572W        W15990  37.406  18.581  10.947
47573W        W15991  15.112  20.056  13.050
47574W        W15992  40.818   3.400   1.930
47575W        W15993  19.695   1.241  11.885
47576W        W15994  43.425  28.041   1.854
47577W        W15995  26.098   3.423  13.496
47578W        W15996  41.879  17.574  14.843
47579W        W15997   9.669   0.783   3.758
47580W        W15998   0.454  43.431  10.555
47581W        W15999  31.484  44.925  14.286
47582W        W16000  39.838  12.665   2.271
47583W        W16001   1.945  14.213  11.079
47584W        W16002   3.433  11.253  13.415
47585W        W16003  33.563  32.990  12.036
47586W        W16004  18.633  36.027   3.218
47587W        W16005  15.645  24.168  12.385
47588W        W16006   3.222  24.014  14.822
47589W        W16007  27.525  26.471  11.461
47590W        W16008  34.575   6.285  14.998
47591W        W16009  12.360  41.390   4.633
47592W        W16010  38.063  22.195   1.288
47593W        W16011  11.313   8.736  13.486
47594W        W16012   7.787  37.916   4.694
47595W        W16013  30.161  37.359  14.455
47596W        W16014  29.576  31.560   4.265
47597W        W16015  30.924  18.108  10.122
47598W        W16016  24.679  26.527  10.567
47599W        W16017   1.478  22.074   2.744
47600W        W16018  17.632  38.499   0.474
47601W        W16019  27.083  37.987   1.848
47602W        W16020   9.844  19.202  14.991
47603W        W16021  13.337   5.788   4.706
47604W        W16022  21.665  35.033  10.626
47605W        W16023   2.442   9.341   4.768
47606W        W16024  21.590   8.165  11.567
47607W        W16025  26.087   6.809   0.357
47608W        W16026  27.170  22.502   9.948
47609W        W16027  15.587  26.695  11.390
47610W        W16028  18.170  12.632   0.278
47611W        W16029   2.292  39.928   1.445
47612W        W16030  11.297  43.295   1.323
47613W        W16031  15.154  25.182  12.973
47614W        W16032  29.544  18.130  11.536
47615W        W16033  30.505  42.383   4.347
47616W        W16034  13.247  34.475  13.999
47617W        W16035  18.613  39.835   3.353
47618W        W16036  14.772   4.321  14.503
47619W        W16037  35.453  23.710  14.428
47620W        W16038  13.106  32.926   2.769
47621W        W16039  20.162  20.529  12.946
47622W        W16040  34.990   0.489  13.379
47623W        W16041  32.497  41.486   2.333
47624W        W16042  29.456  14.204   0.356
47625W        W16043  25.070   3.873   1.400
47626W        W16044   8.886  33.907  12.909
47627W        W16045  15.686  19.168   3.827
47628W        W16046   8.727  38.432   0.943
47629W        W16047  14.817  37.576   1.360
47630W        W16048   6.841  27.602   1.787
47631W        W16049  16.175   6.429  13.027
47632W        W16050  16.771  38.038  12.442
47633W        W16051  18.058  14.262   2.681
47634W        W16052  16.796  13.765  10.639
47635W        W16053   0.883  11.830   1.319
47636W        W16054  28.619  41.360  12.052
47637W        W16055  22.032   1.350   1.371
47638W        W16056  35.505   8.837   4.115
47639W        W16057  40.024  18.691   2.813
47640W        W16058  38.402  27.948  12.828
47641W        W16059  13.760  36.912  10.487
47642W        W16060  23.048  33.526   3.257
47643W        W16061  10.788   5.727   4.766
47644W        W16062  39.344  11.681  11.955
47645W        W16063   2.437  16.678  13.488
47646W        W16064   7.910   1.464   2.352
47647W        W16065   9.670  44.893   3.300
47648W        W16066  34.374  36.583  13.818
47649W        W16067   8.220   4.437  11.017
47650W        W16068  38.410   5.296  12.072
47651W        W16069  14.138  37.448   0.731
47652W        W16070   5.268   9.811   3.744
47653W        W16071  38.007   7.201  14.002
47654W        W16072  31.018  23.196   3.215
47655W        W16073  37.582  17.198  11.868
47656W        W16074  29.589   4.277  14.503
47657W        W16075   1.407   0.402   3.746
47658W        W16076  14.331  29.577   0.875
47659W        W16077   2.904  31.516   3.778
47660W        W16078  32.441  23.642   2.900
47661W        W16079   4.273  37.947  14.448
47662W        W16080  18.606   1.779  13.037
47663W        W16081   7.336  19.745   2.234
47664W        W16082   8.271  42.484   3.339
47665W        W16083  41.884  42.345  14.978
47666W        W16084   6.683  38.963  11.921
47667W        W16085  44.770   5.420   3.181
47668W        W16086  14.751  20.575   3.716
47669W        W16087  14.590   2.426  13.356
47670W        W16088  30.526  44.870   0.276
47671W        W16089   1.832  22.601   0.273
47672W        W16090  22.699  24.147   1.881
47673W        W16091   9.195  26.114   3.802
47674W        W16092  43.394  26.510   1.753
47675W        W16093   5.333  21.592  11.489
47676W        W16094   4.384  19.723  12.544
47677W        W16095   8.162   0.366   0.964
47678W        W16096  32.118  35.980  14.944
47679W        W16097  29.042   0.885   1.350
47680W        W16098  23.113  24.584   3.797
47681W        W16099   5.354   4.396  13.881
47682W        W16100  20.263   7.776   0.316
47683W        W16101  24.587  16.658  12.545
47684W        W16102  29.474  42.421   0.293
47685W        W16103  17.713  35.897   3.688
47686W        W16104  25.647  33.615   0.851
47687W        W16105   3.787  31.441  11.915
47688W        W16106  13.844  21.580   0.472
47689W        W16107  21.684  32.100   1.324
47690W        W16108  36.432  13.788   1.788
47691W        W16109  17.248  36.454  13.458
47692W        W16110  39.949  12.143  14.331
47693W        W16111   7.845  25.565   3.725
47694W        W16112  16.580  34.545  14.768
47695W        W16113   1.874  36.083   2.269
47696W        W16114  13.294  14.599   1.850
47697W        W16115  30.103   9.336   3.285
47698W        W16116   2.966   9.832  12.463
47699W        W16117   9.657  13.648  10.968
47700W        W16118   0.959  19.151   9.987
47701W        W16119  21.615  14.705  13.473
47702W        W16120  21.548  20.254  10.516
47703W        W16121   5.387  18.661  12.351
47704W        W16122  26.096  17.598  14.421
47705W        W16123  19.624  36.050   1.230
47706W        W16124  25.564  12.337  11.606
47707W        W16125  34.546  24.177  11.374
47708W        W16126  13.210   2.304   4.347
47709W        W16127  14.778  42.857  13.509
47710W        W16128  37.910  20.697   3.720
47711W        W16129  18.740   6.405  14.809
47712W        W16130  36.395  41.993   0.930
47713W        W16131   8.243  41.812  14.380
47714W        W16132  10.877  28.526  13.877
47715W        W16133  26.983  28.105  13.864
47716W        W16134  18.630  18.081   3.295
47717W        W16135  37.415  28.053  13.851
47718W        W16136   3.726  34.037  11.388
47719W        W16137  22.653   1.740   9.987
47720W        W16138  25.557  14.646   0.246
47721W        W16139  14.205   4.874   3.800
47722W        W16140  32.500  25.542  14.945
47723W        W16141   0.836  30.502  14.333
47724W        W16142  21.641  40.546   1.812
47725W        W16143  17.098  39.554   4.260
47726W        W16144   4.832  36.537  13.796
47727W        W16145  27.065  31.477   4.685
47728W        W16146   3.882  27.098   1.836
47729W        W16147  36.904   7.835  13.838
47730W        W16148  32.470  41.443   2.791
47731W        W16149  28.560  36.403  12.924
47732W        W16150  10.752   0.948   0.894
47733W        W16151  38.559  23.571  12.077
47734W        W16152   7.375   2.269   4.782
47735W        W16153  41.857  23.676  11.536
47736W        W16154   3.761   5.904  14.453
47737W        W16155   8.832   9.193   0.829
47738W        W16156  12.260  29.578  11.086
47739W        W16157  14.099  25.675   0.889
47740W        W16158  44.333  21.606   1.327
47741W        W16159  12.745  44.461  11.935
47742W        W16160   7.855  37.982   0.935
47743W        W16161  23.008  25.015  11.117
47744W        W16162  21.102  14.651  12.027
47745W        W16163  38.974  41.880   3.355
47746W        W16164  30.423  44.303   5.144
47747W        W16165  13.757  37.485   5.264
47748W        W16166  34.930  11.816  10.422
47749W        W16167  14.616  17.165   3.645
47750W        W16168  36.932  17.237   0.438
47751W        W16169  14.171  13.222   1.858
47752W        W16170   0.452  24.058  14.512
47753W        W16171  22.044  12.661   4.735
47754W        W16172  16.201  28.044  13.455
47755W        W16173  28.566  13.732  13.011
47756W        W16174   3.296  17.752   3.775
47757W        W16175  28.593  29.617   2.415
47758W        W16176  30.537   7.788   3.719
47759W        W16177  32.522  44.811  14.436
47760W        W16178   6.328   6.265   0.293
47761W        W16179  34.387  36.039  14.946
47762W        W16180   0.946  22.079   0.759
47763W        W16181  22.723   5.729  10.930
47764W        W16182  11.172  34.595  12.486
47765W        W16183  35.466  27.008  13.527
47766W        W16184  44.803  43.333  13.011
47767W        W16185   5.892  32.400  14.783
47768W        W16186   1.376   5.262  11.091
47769W        W16187  40.358  38.016   2.765
47770W        W16188  34.892  24.128  13.994
47771W        W16189  11.817  31.134  10.975
47772W        W16190  16.799  29.933  10.983
47773W        W16191   0.853  10.291   4.648
47774W        W16192  32.076  40.398   0.261
47775W        W16193  40.455  18.742  11.916
47776W        W16194  17.704  39.471  12.539
47777W        W16195  41.957  16.100  11.443
47778W        W16196   9.806  33.003   0.799
47779W        W16197   8.680  22.135   1.738
47780W        W16198   8.212  27.978   3.834
47781W        W16199  13.279  28.481   1.274
47782W        W16200  13.606   8.313  12.029
47783W        W16201  40.340  26.517  11.975
47784W        W16202  23.082  37.885   0.944
47785W        W16203  43.930  41.533   0.859
47786W        W16204   0.801  41.032  12.855
47787W        W16205  28.506  40.922   1.847
47788W        W16206  22.067  29.943   3.257
47789W        W16207  16.099  33.484   0.869
47790W        W16208   8.778   0.788   0.250
47791W        W16209  11.867  24.104  12.854
47792W        W16210  37.837  37.341  14.774
47793W        W16211  24.220   1.448   4.274
47794W        W16212  40.860   4.792   1.278
47795W        W16213  24.507  28.559   3.819
47796W        W16214   4.835   2.239  10.924
47797W        W16215  13.320  25.680   3.807
47798W        W16216  23.560  17.130   0.886
47799W        W16217  28.102  21.626   2.672
47800W        W16218  17.690  23.030   3.674
47801W        W16219  41.921  25.641  12.480
47802W        W16220  42.370  12.144   4.325
47803W        W16221  38.985  17.721   1.728
47804W        W16222   1.778  40.523   3.766
47805W        W16223  21.219  29.930  13.797
47806W        W16224  21.707  40.931  11.952
47807W        W16225   6.183  30.454   0.315
47808W        W16226  40.314   0.314  12.862
47809W        W16227   7.172   2.419  10.965
47810W        W16228  27.051  39.030   1.718
47811W        W16229  24.048  30.004   2.279
47812W        W16230   2.871  34.042   4.616
47813W        W16231   3.955  21.057   4.280
47814W        W16232  24.668  21.582  13.992
47815W        W16233  43.944   5.409   3.364
47816W        W16234  32.010  40.836   0.325
47817W        W16235   0.807  36.446  14.869
47818W        W16236  17.227  34.047  10.472
47819W        W16237  18.264  23.721   0.287
47820W        W16238   1.380  18.289   4.232
47821W        W16239  34.594  25.646   0.437
47822W        W16240  24.644  24.038   1.710
47823W        W16241  27.507  31.429   2.863
47824W        W16242  15.275   8.753   4.281
47825W        W16243   6.344  43.878  14.464
47826W        W16244  13.627   4.787  10.935
47827W        W16245   8.384  41.468  13.958
47828W        W16246  21.133  13.326   1.393
47829W        W16247  17.592  12.711   3.869
47830W        W16248  43.887  24.712  12.902
47831W        W16249   1.768  12.845  13.339
47832W        W16250  32.518  11.849  14.328
47833W        W16251  34.895  26.996  11.108
47834W        W16252  34.516  44.896   1.408
47835W        W16253  20.686   6.772   1.843
47836W        W16254  25.597  23.539  14.512
47837W        W16255  37.843  23.682   2.363
47838W        W16256   9.176  19.723   4.706
47839W        W16257  10.639  30.042  14.831
47840W        W16258   1.972   1.938   3.749
47841W        W16259  19.206  44.458   2.835
47842W        W16260  25.080   2.731   0.938
47843W        W16261  41.499   5.883  10.456
47844W        W16262  22.163   0.923   1.256
47845W        W16263   8.764  26.500  13.333
47846W        W16264  32.139   3.861  11.912
47847W        W16265  14.613  15.119  13.484
47848W        W16266  36.590  29.034  12.544
47849W        W16267   4.727  26.539  14.360
47850W        W16268  43.935   6.192   4.731
47851W        W16269  26.076   3.887  14.335
47852W        W16270  19.275   4.276   0.746
47853W        W16271  21.036  24.610   1.809
47854W        W16272  25.630  25.139  13.504
47855W        W16273  20.217  15.660   3.651
47856W        W16274  43.322  24.163  13.458
47857W        W16275   0.386  12.659  12.420
47858W        W16276  16.209  36.467  12.044
47859W        W16277  24.535  40.395   1.432
47860W        W16278  21.669  25.533  13.978
47861W        W16279  25.134  33.491   2.192
47862W        W16280  39.825  37.462  13.974
47863W        W16281  42.286  17.146  10.622
47864W        W16282  19.112   5.331   4.685
47865W        W16283  14.774  41.419   4.150
47866W        W16284  36.075   1.909   1.273
47867W        W16285  44.502  16.079   3.848
47868W        W16286   2.457  19.095   0.334
47869W        W16287  33.945  37.869  13.005
47870W        W16288  27.030  26.039   1.229
47871W        W16289   8.881   6.791  10.925
47872W        W16290  26.626  43.316  12.035
47873W        W16291   1.898  28.621  13.448
47874W        W16292  16.690   4.902   1.328
47875W        W16293   7.266  19.206  13.005
47876W        W16294   8.725  30.556   1.841
47877W        W16295  10.731  23.162   2.214
47878W        W16296   9.234  42.475  11.076
47879W        W16297  25.559  13.635   1.701
47880W        W16298   4.808  32.043  12.000
47881W        W16299  17.279  14.696  11.038
47882W        W16300   5.363  44.485  14.818
47883W        W16301  13.112  19.572  11.998
47884W        W16302  24.046  21.230   9.999
47885W        W16303  14.704  20.176   2.837
47886W        W16304   2.922   5.408  13.840
47887W        W16305  16.696   7.768  12.520
47888W        W16306  18.695  13.187  10.954
47889W        W16307  27.942   0.749   2.402
47890W        W16308  24.562   7.781   0.248
47891W        W16309  36.417  24.002  14.014
47892W        W16310  25.201  10.352   0.732
47893W        W16311  16.786  35.888   2.901
47894W        W16312  35.415   0.930   0.299
47895W        W16313   3.917   6.283   9.944
47896W        W16314  17.779  31.466  11.903
47897W        W16315  41.799   4.827   1.815
47898W        W16316  10.878  23.704   0.814
47899W        W16317   8.832  11.185  10.421
47900W        W16318  32.981  32.098  11.112
47901W        W16319   6.897   6.243  13.013
47902W        W16320  44.350  14.724  12.882
47903W        W16321  37.414  40.878  10.462
47904W        W16322   0.963  11.691  10.505
47905W        W16323   5.898  35.490   3.667
47906W        W16324  34.369  10.159   2.724
47907W        W16325   4.821  40.886   0.394
47908W        W16326  35.888  24.660  10.985
47909W        W16327  30.113  18.243  14.846
47910W        W16328  18.570   4.727  11.431
47911W        W16329  44.258  15.779   0.396
47912W        W16330  39.843  24.677   2.733
47913W        W16331  16.105  15.310  13.872
47914W        W16332  34.092  27.958   2.784
47915W        W16333  32.956   4.933   0.875
47916W        W16334   3.893  30.078  13.448
47917W        W16335  21.110  29.570   5.263
47918W        W16336  21.597  38.849   3.187
47919W        W16337  41.885  14.288  11.544
47920W        W16338  36.465  12.227   4.116
47921W        W16339  36.061  40.429   2.217
47922W        W16340   3.303  31.000  12.416
47923W        W16341  11.777  29.427  12.509
47924W        W16342  15.260  44.813  14.446
47925W        W16343  42.784   7.755  14.923
47926W        W16344  30.028  24.111  14.935
47927W        W16345  32.511  19.549  13.854
47928W        W16346  12.669  35.557  13.995
47929W        W16347  16.281  44.420  12.035
47930W        W16348  18.781  17.237   2.701
47931W        W16349  37.900   5.287  13.976
47932W        W16350  28.590  43.510   2.307
47933W        W16351  23.135  13.757  12.967
47934W        W16352   2.346  39.044   0.756
47935W        W16353  28.151   0.886  14.857
47936W        W16354  43.335  42.306   2.750
47937W        W16355  43.283  12.172  10.960
47938W        W16356  44.803   3.771   3.806
47939W        W16357  31.073   6.213  12.483
47940W        W16358  17.154   3.948  14.998
47941W        W16359  40.888  38.858  14.822
47942W        W16360  16.799   3.286  11.125
47943W        W16361  17.227  36.953   2.734
47944W        W16362  30.952   5.811  13.501
47945W        W16363   1.334  43.821   2.689
47946W        W16364   3.356  32.888  12.368
47947W        W16365  21.542  14.155  12.899
47948W        W16366  15.606  33.131  12.445
47949W        W16367   9.885  19.130   4.795
47950W        W16368  14.208  33.454  11.421
47951W        W16369  17.614  14.315  14.961
47952W        W16370  27.164  32.471   3.184
47953W        W16371  28.510  39.488   4.297
47954W        W16372  13.841  34.084   4.688
47955W        W16373  39.966  26.999  13.324
47956W        W16374   6.855  21.197   1.217
47957W        W16375   2.759   8.765  12.891
47958W        W16376  14.699  22.247   2.333
47959W        W16377   2.954  36.981  12.351
47960W        W16378  38.424  13.650   4.642
47961W        W16379  36.439  38.858   2.797
47962W        W16380  12.321  13.691  12.424
47963W        W16381   3.267   1.450   1.430
47964W        W16382  23.001  42.894  10.531
47965W        W16383  10.341  27.165   1.866
47966W        W16384  43.905  12.313  13.017
47967W        W16385  20.255  44.391  11.881
47968W        W16386  21.610  36.897  11.073
47969W        W16387  44.763  23.650  11.394
47970W        W16388  14.618  23.586   3.365
47971W        W16389  19.570  29.050  12.073
47972W        W16390  10.684  13.317  11.046
47973W        W16391  43.374  34.949   0.746
47974W        W16392  23.024  35.859  13.008
47975W        W16393   4.715  44.985   2.693
47976W        W16394  35.016   6.754   2.406
47977W        W16395   6.807  12.768   0.244
47978W        W16396  35.854  28.678  14.466
47979W        W16397  38.015  41.415   9.937
47980W        W16398  38.411  43.931   3.796
47981W        W16399  26.568   4.244   0.339
47982W        W16400   6.245   5.210   2.401
47983W        W16401  40.974   7.712  11.865
47984W        W16402  18.774  18.222  12.920
47985W        W16403   5.832  22.057   1.342
47986W        W16404   6.323  35.591  15.000
47987W        W16405  19.535  35.386  14.420
47988W        W16406  33.508  18.580   2.696
47989W        W16407   2.724  10.828  14.965
47990W        W16408  26.650  38.981  13.462
47991W        W16409  35.880  36.879   9.635
47992W        W16410  26.005  20.657  13.517
47993W        W16411  18.634   7.707  11.090
47994W        W16412  25.064   5.212   0.802
47995W        W16413  42.860   5.335   0.457
47996W        W16414   0.909   0.967  10.613
47997W        W16415   2.435   6.745  14.302
47998W        W16416  40.868  41.354   4.812
47999W        W16417   8.368  16.080   2.369
48000W        W16418  34.078  42.984   3.271
48001W        W16419  16.252  14.679  12.864
48002W        W16420   2.917  31.598   2.320
48003W        W16421  10.306  21.134   4.638
48004W        W16422  29.581   2.455  13.924
48005W        W16423  26.042  37.920   4.809
48006W        W16424   5.793   7.299  11.471
48007W        W16425   7.364  15.157  14.411
48008W        W16426   4.777   1.910   3.291
48009W        W16427  13.702  41.434   0.805
48010W        W16428  25.181  25.690   4.345
48011W        W16429  23.184  10.773  12.357
48012W        W16430  34.116   6.870  14.864
48013W        W16431  26.579   6.422  13.062
48014W        W16432  36.907  28.481  11.401
48015W        W16433   7.407   5.729  14.953
48016W        W16434  26.195   5.913   4.211
48017W        W16435  23.580  32.567   2.892
48018W        W16436  27.135  34.028  12.438
48019W        W16437   5.305  37.340  14.989
48020W        W16438   3.435  44.898  13.907
48021W        W16439   8.229   9.889   2.862
48022W        W16440  22.544   0.777  12.991
48023W        W16441  39.447   3.277   0.940
48024W        W16442   3.822  25.064   5.102
48025W        W16443  40.504   5.690   0.401
48026W        W16444  14.306  42.352   3.211
48027W        W16445  28.650   2.429   3.693
48028W        W16446  19.280  19.139   3.686
48029W        W16447   6.267  42.421  12.019
48030W        W16448  34.465  33.573  10.560
48031W        W16449  21.686  31.959   3.171
48032W        W16450  33.925   5.335  14.810
48033W        W16451   4.426  43.847   3.728
48034W        W16452  13.745   1.273   4.264
48035W        W16453  40.859  15.579   4.597
48036W        W16454   5.249  38.974  14.990
48037W        W16455  40.820  41.396  12.553
48038W        W16456   5.912   8.290   2.825
48039W        W16457  32.998  33.589  13.385
48040W        W16458  17.728  21.627   4.329
48041W        W16459  12.711  16.578  10.418
48042W        W16460  25.537  32.065   2.687
48043W        W16461  31.003   6.405   0.774
48044W        W16462  42.488  40.908   1.879
48045W        W16463   1.464  15.329   4.679
48046W        W16464   3.233  33.538  12.036
48047W        W16465  22.569  17.635   0.299
48048W        W16466  11.863  19.056  12.376
48049W        W16467   9.706  41.380  10.623
48050W        W16468  27.641   7.192   4.719
48051W        W16469  42.295  26.004  14.800
48052W        W16470   2.780  40.472  14.438
48053W        W16471  30.145  29.575  12.441
48054W        W16472  20.699  22.556  13.522
48055W        W16473  37.559  20.648  13.983
48056W        W16474  32.967  43.319   1.314
48057W        W16475  18.124  15.126  14.383
48058W        W16476  29.088   9.769  10.910
48059W        W16477  37.567  15.109  10.959
48060W        W16478   1.455  32.988  11.396
48061W        W16479  11.251   5.201   0.785
48062W        W16480  10.639  38.957   3.787
48063W        W16481  40.977  41.531   2.255
48064W        W16482  28.451  33.415   1.251
48065W        W16483  31.568   2.453  11.579
48066W        W16484  18.074  17.063   4.608
48067W        W16485   4.434  24.070  10.601
48068W        W16486  34.964  18.602  14.788
48069W        W16487  15.240  31.022  10.951
48070W        W16488  18.641  33.037   3.219
48071W        W16489   5.291  28.636   4.838
48072W        W16490  25.514  43.932  13.537
48073W        W16491  27.466  10.250  11.445
48074W        W16492  35.507  28.178  12.091
48075W        W16493  30.975  40.949   4.706
48076W        W16494  30.072  39.032  11.962
48077W        W16495  11.651  29.561   0.284
48078W        W16496  22.167   4.422   4.189
48079W        W16497  41.513  32.093  13.383
48080W        W16498  30.095  24.479   4.147
48081W        W16499  43.997   9.881  13.321
48082W        W16500  12.286   6.419  14.981
48083W        W16501  11.147  37.087  11.574
48084W        W16502  26.682  34.479   4.320
48085W        W16503   6.850  23.563  10.571
48086W        W16504  29.508   8.226  11.864
48087W        W16505   5.732  21.683   1.220
48088W        W16506   5.786  14.106   1.863
48089W        W16507  15.300  27.078  13.357
48090W        W16508   0.299  17.250   2.347
48091W        W16509  22.237  19.160  14.425
48092W        W16510   4.242  14.272   3.302
48093W        W16511  19.055  40.446   4.129
48094W        W16512  39.809  34.951  12.079
48095W        W16513   0.947  26.048   0.299
48096W        W16514   8.720  23.651  14.438
48097W        W16515  25.217  20.678  12.366
48098W        W16516  43.500  20.044   4.775
48099W        W16517  12.738   2.281  14.934
48100W        W16518  40.006  27.497  12.444
48101W        W16519  25.537   7.375  14.989
48102W        W16520   2.346  33.067   2.262
48103W        W16521  26.965  24.502  12.349
48104W        W16522  38.060  16.130  10.453
48105W        W16523  35.012  31.641  10.517
48106W        W16524  21.565  42.429  11.093
48107W        W16525  23.200  17.136   2.706
48108W        W16526  24.042  24.708  10.456
48109W        W16527   8.326  19.650   2.823
48110W        W16528  22.626  38.540   3.317
48111W        W16529   4.735  23.682  11.382
48112W        W16530  34.994  25.003   4.681
48113W        W16531  10.287  18.551  12.390
48114W        W16532  37.988  41.355  10.602
48115W        W16533  24.610  22.611   4.714
48116W        W16534  28.529  39.007  14.782
48117W        W16535  43.002   1.353  11.430
48118W        W16536   4.745   2.448   3.788
48119W        W16537  43.510   5.439   1.836
48120W        W16538  29.068  29.433  12.510
48121W        W16539  35.086  10.189  13.547
48122W        W16540  43.944  38.996   2.808
48123W        W16541  33.429  17.106  11.885
48124W        W16542  29.017  20.716  10.564
48125W        W16543  39.345  12.348  10.482
48126W        W16544   0.409  12.240  10.600
48127W        W16545  25.039  37.401  12.906
48128W        W16546  10.681   4.745   0.816
48129W        W16547  14.795  11.635  14.282
48130W        W16548  26.199  33.116   3.676
48131W        W16549  26.586  23.683  14.839
48132W        W16550  34.466  16.762   3.174
48133W        W16551  29.144  11.321   1.770
48134W        W16552  24.029  20.218  13.954
48135W        W16553  11.635  40.307  14.299
48136W        W16554  23.510  39.970   1.863
48137W        W16555  36.362  18.620   4.344
48138W        W16556   3.223  42.967   4.671
48139W        W16557  14.295  35.557   3.866
48140W        W16558  18.237  17.142  13.438
48141W        W16559  23.232  24.153   0.758
48142W        W16560  42.395  13.130  12.863
48143W        W16561  24.093  41.416   3.166
48144W        W16562   4.261   0.964  14.801
48145W        W16563  12.836   2.861  13.345
48146W        W16564  38.943  29.623  13.902
48147W        W16565  32.965  39.367  14.870
48148W        W16566  29.927   9.777   1.900
48149W        W16567  17.574  35.547  14.496
48150W        W16568   6.195  24.551  13.999
48151W        W16569   9.773  22.682   0.964
48152W        W16570  36.948  17.742  11.123
48153W        W16571  40.314  42.985   0.273
48154W        W16572  12.753  18.227   0.753
48155W        W16573  44.960  40.377   4.139
48156W        W16574  43.516  27.636   1.864
48157W        W16575   1.468  40.990  13.498
48158W        W16576  29.113  40.835   2.378
48159W        W16577  20.664  19.721  13.439
48160W        W16578  39.501   1.772  14.779
48161W        W16579   2.726  32.415  11.429
48162W        W16580  37.419  27.056  14.481
48163W        W16581  39.871  21.678   2.359
48164W        W16582   7.339  20.061   2.715
48165W        W16583   1.842  28.974   1.717
48166W        W16584  44.997   4.929   1.250
48167W        W16585  27.157  36.967  14.334
48168W        W16586  32.522  44.837  11.895
48169W        W16587  25.144   7.756   4.177
48170W        W16588  33.946   3.227   3.299
48171W        W16589  19.541  24.484  13.374
48172W        W16590   5.829  37.411   4.681
48173W        W16591  44.500  31.618   0.352
48174W        W16592  33.083  33.100   4.317
48175W        W16593  30.505  35.063  13.018
48176W        W16594   0.969  31.148   2.819
48177W        W16595   7.179   3.758   4.622
48178W        W16596  18.625  40.001   2.356
48179W        W16597  10.249   3.434   0.921
48180W        W16598  11.224   7.785   1.304
48181W        W16599  32.404  26.544  11.933
48182W        W16600   8.261  19.207  11.100
48183W        W16601  39.889  28.042  14.316
48184W        W16602   8.869   7.291  13.047
48185W        W16603  39.035  27.449   4.714
48186W        W16604  21.236   8.208  11.597
48187W        W16605   3.888  42.386  10.619
48188W        W16606  11.153  19.685   4.706
48189W        W16607  18.580  19.751  10.022
48190W        W16608  20.148  31.043  12.997
48191W        W16609  31.969  21.187   2.758
48192W        W16610   4.389  39.481   2.358
48193W        W16611  38.477  25.038  10.485
48194W        W16612  34.583  15.218  13.482
48195W        W16613   0.306   8.883  14.764
48196W        W16614  10.670  44.272  11.553
48197W        W16615  29.927   1.394  14.900
48198W        W16616  23.214  37.070   4.627
48199W        W16617  36.026   0.895   0.951
48200W        W16618  40.955  15.741   1.866
48201W        W16619  20.609  34.429  12.473
48202W        W16620  14.746  29.025   0.967
48203W        W16621  43.385  37.060   2.740
48204W        W16622  36.932  37.026   3.185
48205W        W16623  30.051  33.486  13.855
48206W        W16624  11.747   5.819  10.891
48207W        W16625  14.601  22.190  13.871
48208W        W16626  29.620  20.233   2.375
48209W        W16627  26.645  19.617   2.239
48210W        W16628  14.713   6.337   3.240
48211W        W16629  19.268  28.084  12.541
48212W        W16630   2.943  12.160   2.239
48213W        W16631  44.813  25.170   0.254
48214W        W16632  36.531  42.480   1.310
48215W        W16633  14.626  30.045   0.482
48216W        W16634  12.122  20.750   0.782
48217W        W16635  13.768   5.214   9.940
48218W        W16636  16.250  24.560  12.401
48219W        W16637  14.248  30.429   2.743
48220W        W16638  34.473  16.663   3.752
48221W        W16639  28.681  19.075   1.383
48222W        W16640  34.906  32.559   0.774
48223W        W16641  14.154  19.103  12.359
48224W        W16642   6.881  35.360   4.326
48225W        W16643  28.185  31.119   0.934
48226W        W16644  16.698   1.463  14.348
48227W        W16645  24.170  29.552  11.427
48228W        W16646  41.384  37.034   4.334
48229W        W16647   9.861  28.056   1.265
48230W        W16648  42.842  27.689   2.815
48231W        W16649  20.627  30.597  12.983
48232W        W16650  20.164  27.050  14.382
48233W        W16651  21.034  18.103   0.770
48234W        W16652  10.331  19.604  12.883
48235W        W16653  11.742  41.370  13.449
48236W        W16654  42.032  34.463  14.814
48237W        W16655  35.970   7.906  11.968
48238W        W16656  28.474  44.900  11.611
48239W        W16657  27.143   6.786   0.849
48240W        W16658  40.017  38.043  11.473
48241W        W16659  19.586  19.778   1.871
48242W        W16660  40.038  31.540  14.408
48243W        W16661  18.730  26.995  14.919
48244W        W16662  29.077  38.443  14.438
48245W        W16663  25.073  35.868  13.346
48246W        W16664  43.803  21.630  10.476
48247W        W16665   1.436   4.931  14.506
48248W        W16666  32.621   2.276   0.444
48249W        W16667  39.523   5.236   0.808
48250W        W16668  27.479  29.628  11.475
48251W        W16669  24.521  27.092  14.807
48252W        W16670  21.170  29.011  10.547
48253W        W16671   2.809  25.144  14.930
48254W        W16672  18.558  30.038   4.822
48255W        W16673  11.622  28.577   0.398
48256W        W16674  22.574  36.029   2.241
48257W        W16675  33.051  34.384   0.816
48258W        W16676  24.552  43.438   4.714
48259W        W16677  30.520  43.361  10.407
48260W        W16678   8.358  20.706  10.906
48261W        W16679  24.999  33.625  14.355
48262W        W16680  33.888  16.226   3.367
48263W        W16681  22.196  25.648  11.065
48264W        W16682  24.703  31.137  12.929
48265W        W16683   8.707  16.622   2.376
48266W        W16684   8.236   9.871  14.306
48267W        W16685  37.573  28.558   3.729
48268W        W16686  44.814  16.241   0.746
48269W        W16687  10.187  29.489   4.328
48270W        W16688  10.870  33.380   3.763
48271W        W16689  17.767  23.169  14.005
48272W        W16690  10.828  35.882  11.529
48273W        W16691  10.163  12.358  10.584
48274W        W16692  27.540   8.842  12.375
48275W        W16693  13.239  25.021   0.463
48276W        W16694   4.740   2.831  14.339
48277W        W16695  11.136  27.099   4.150
48278W        W16696   4.798   3.860   0.368
48279W        W16697  36.951   6.281  13.525
48280W        W16698  18.114  12.616  13.359
48281W        W16699  19.232  24.160  11.023
48282W        W16700  13.179  34.577  14.982
48283W        W16701  15.265  41.808  10.585
48284W        W16702   5.404  42.351  13.993
48285W        W16703  37.422  12.775  14.440
48286W        W16704  18.577  22.504   2.666
48287W        W16705  13.719  26.127   4.639
48288W        W16706  29.559  37.345   3.718
48289W        W16707  31.050  26.599   1.361
48290W        W16708   7.359  38.857   3.842
48291W        W16709   2.853  25.987  11.384
48292W        W16710   9.153  40.358   3.703
48293W        W16711  15.628  14.748   1.842
48294W        W16712   3.222  21.124   5.168
48295W        W16713  26.144   1.796   0.878
48296W        W16714  31.127   8.803   4.614
48297W        W16715  22.050  24.068  12.534
48298W        W16716   9.235   2.808   3.276
48299W        W16717  30.144  44.441   1.923
48300W        W16718   3.736  13.233   3.761
48301W        W16719  32.417  25.184  12.387
48302W        W16720  22.744  43.797   3.211
48303W        W16721  44.812  29.956  12.572
48304W        W16722   3.828   2.828  13.037
48305W        W16723  11.738  26.967   4.612
48306W        W16724   9.294  35.881   2.670
48307W        W16725  35.001  27.685  13.861
48308W        W16726  22.683  25.603   4.127
48309W        W16727  29.042  17.151   1.762
48310W        W16728  40.049  39.887  12.367
48311W        W16729  32.063   2.862   3.183
48312W        W16730  40.535  26.156   4.664
48313W        W16731  10.171  22.058   1.369
48314W        W16732  12.660  24.031  14.807
48315W        W16733  43.956  38.352   2.747
48316W        W16734  41.815   0.439   3.756
48317W        W16735  15.195  39.531  10.473
48318W        W16736  25.144  43.859  11.091
48319W        W16737   7.771   4.299   2.740
48320W        W16738  22.741  35.964   1.722
48321W        W16739  36.915   3.422  12.942
48322W        W16740  24.037  20.570   3.715
48323W        W16741  21.056  22.626   0.728
48324W        W16742  13.805   6.758   5.700
48325W        W16743  13.196  29.529   0.900
48326W        W16744  31.107  21.074   9.966
48327W        W16745  43.495  30.033  14.029
48328W        W16746  38.567  22.610  11.942
48329W        W16747  11.240   1.422  11.891
48330W        W16748   8.219  17.194   1.820
48331W        W16749   4.292  44.494   0.395
48332W        W16750  31.506  35.082  11.464
48333W        W16751  24.565  40.952   1.823
48334W        W16752  29.506   9.307   2.758
48335W        W16753   8.862  40.472  12.041
48336W        W16754  43.308   2.293  13.492
48337W        W16755  32.929   7.903  10.585
48338W        W16756  35.063  29.066   4.249
48339W        W16757  23.562  20.672   1.868
48340W        W16758  10.169  14.103   2.741
48341W        W16759  18.624  14.315   0.313
48342W        W16760  17.800  17.234   2.682
48343W        W16761   0.478  29.459   3.242
48344W        W16762  41.797   6.236   1.340
48345W        W16763  22.689  25.096   5.188
48346W        W16764   1.352  42.426   0.916
48347W        W16765  36.417  39.476   1.790
48348W        W16766  13.781  34.950   3.157
48349W        W16767  17.573  22.188   3.762
48350W        W16768   9.869  21.130  11.999
48351W        W16769  17.653  34.390  12.466
48352W        W16770  29.439  25.698   1.809
48353W        W16771  44.492   0.859   0.469
48354W        W16772  33.401   5.860  12.057
48355W        W16773  11.289  10.655  13.357
48356W        W16774   9.392  23.017  11.050
48357W        W16775  38.945   1.751  12.507
48358W        W16776   0.382  15.291  12.536
48359W        W16777   6.845  22.589  11.884
48360W        W16778  28.156  21.049  13.323
48361W        W16779  30.913  19.732   2.883
48362W        W16780  23.648  38.333   2.836
48363W        W16781  32.444  30.635   3.380
48364W        W16782  33.005  38.943  11.043
48365W        W16783  10.187  20.106  14.447
48366W        W16784  11.220  14.803   2.193
48367W        W16785  36.568   1.309  10.466
48368W        W16786  39.940  29.607   2.799
48369W        W16787  13.612  42.297   3.701
48370W        W16788  38.483  35.993   2.291
48371W        W16789  31.620   4.800  14.873
48372W        W16790   7.804   9.377   2.735
48373W        W16791  43.352  41.786   3.147
48374W        W16792  11.839  24.079  10.991
48375W        W16793  27.617  28.518  12.879
48376W        W16794  35.530  17.175   4.197
48377W        W16795   2.462   1.910   2.302
48378W        W16796  33.077  25.577  11.054
48379W        W16797  12.709   9.316   1.433
48380W        W16798  32.076  24.555  13.949
48381W        W16799  16.611  37.435   0.259
48382W        W16800  42.356  40.407  11.612
48383W        W16801  29.538  24.150  11.952
48384W        W16802  31.475  38.530   1.214
48385W        W16803   2.772  14.613  12.069
48386W        W16804  14.134  44.350  13.492
48387W        W16805  11.257  31.008  12.002
48388W        W16806  15.204  20.600  12.381
48389W        W16807   7.894  23.129   3.647
48390W        W16808  21.100  26.158   5.140
48391W        W16809  44.933  26.683   1.243
48392W        W16810  35.876  15.317  12.518
48393W        W16811   1.483  18.126   0.298
48394W        W16812  16.290  22.544  11.965
48395W        W16813  26.998   3.871  12.976
48396W        W16814  23.158  22.612  12.380
48397W        W16815  35.101  34.510  10.439
48398W        W16816  21.585   4.849  10.435
48399W        W16817  29.963  36.053   4.831
48400W        W16818  12.817  35.428   1.784
48401W        W16819  30.610  25.614  13.452
48402W        W16820  38.489  37.440  12.007
48403W        W16821   1.243   7.693   1.270
48404W        W16822  40.908  27.630  14.834
48405W        W16823   0.861  16.225   3.694
48406W        W16824  40.452  17.606  14.765
48407W        W16825   8.250  20.053  12.547
48408W        W16826   2.260  39.420  12.852
48409W        W16827   2.948  36.554   3.344
48410W        W16828  11.336  13.816  12.886
48411W        W16829  20.717   5.436  14.765
48412W        W16830  24.503  39.462  14.976
48413W        W16831  39.520  21.535   0.922
48414W        W16832  10.798  14.208  11.886
48415W        W16833   1.468  33.404   1.273
48416W        W16834  23.634  28.139  10.569
48417W        W16835  40.014  42.900  13.844
48418W        W16836  18.216  13.680  14.765
48419W        W16837   7.309  41.394  14.420
48420W        W16838  15.143  10.272   1.757
48421W        W16839  41.395  31.063   0.282
48422W        W16840  10.834  25.101  14.898
48423W        W16841   8.800  28.934   3.690
48424W        W16842  17.183  39.037  10.580
48425W        W16843  28.980   3.744   2.386
48426W        W16844  39.381   9.662   0.376
48427W        W16845  42.361  35.367   0.772
48428W        W16846  41.341  28.096  14.792
48429W        W16847  18.149  12.675   3.832
48430W        W16848  10.818  37.850   1.443
48431W        W16849  26.043  34.049   4.154
48432W        W16850  33.545  44.944   3.385
48433W        W16851  36.480  16.235  11.433
48434W        W16852  22.050  28.041  14.440
48435W        W16853  12.622  22.574  12.940
48436W        W16854  43.993  16.685   4.222
48437W        W16855  12.699  34.971   4.794
48438W        W16856  37.337  19.577  10.467
48439W        W16857  22.007   0.943  10.527
48440W        W16858  28.041  30.033  11.028
48441W        W16859  12.734  13.826  12.551
48442W        W16860  18.597  11.810   0.418
48443W        W16861  26.159  32.618   2.258
48444W        W16862  10.149   5.346  13.966
48445W        W16863  18.170   8.375  12.553
48446W        W16864   5.902   7.237  13.943
48447W        W16865  13.112  33.025  13.992
48448W        W16866  15.293  13.130  11.396
48449W        W16867   5.699  39.958  12.514
48450W        W16868  38.481  26.961   2.710
48451W        W16869  28.631  11.174   0.264
48452W        W16870  38.032  14.198   1.368
48453W        W16871   9.867  14.653   0.359
48454W        W16872  11.225  27.562  10.988
48455W        W16873  13.211  33.990  13.345
48456W        W16874  13.796   5.278   0.258
48457W        W16875   9.219   7.809   2.322
48458W        W16876  33.497  37.369   2.370
48459W        W16877  29.985  30.605  14.898
48460W        W16878   2.732  42.471   1.323
48461W        W16879   7.376  31.953  11.124
48462W        W16880  28.547  18.578  12.900
48463W        W16881  40.547  30.428   0.462
48464W        W16882  14.241  43.347   1.846
48465W        W16883  30.422  33.898   3.261
48466W        W16884  36.510   5.763  13.994
48467W        W16885  31.999  44.389  12.047
48468W        W16886   6.273  26.001  13.053
48469W        W16887  12.159   1.788  11.465
48470W        W16888  33.108   4.870   0.273
48471W        W16889  34.985  34.930  13.935
48472W        W16890  12.777  21.185  13.899
48473W        W16891  25.126  28.637  12.053
48474W        W16892  36.087  23.725  10.893
48475W        W16893  28.938  24.017  12.344
48476W        W16894  30.930  27.077   3.760
48477W        W16895  27.978  40.470  14.801
48478W        W16896  15.753  30.636  11.056
48479W        W16897  32.030  31.932   5.133
48480W        W16898  22.173  17.170  10.903
48481W        W16899   2.878   8.179  10.931
48482W        W16900   9.226  14.189   4.645
48483W        W16901  12.790  27.545  12.065
48484W        W16902  10.159   1.249   1.380
48485W        W16903  32.464  21.699  13.529
48486W        W16904  16.297  42.447  10.908
48487W        W16905  26.188   9.276   3.727
48488W        W16906   0.863  25.092   3.222
48489W        W16907  21.072  23.614   2.809
48490W        W16908   7.344  12.268   1.769
48491W        W16909  21.512   9.790   4.690
48492W        W16910  10.358  13.211   1.432
48493W        W16911  37.045  25.206   1.215
48494W        W16912  13.182  19.078   4.174
48495W        W16913  18.552  25.180   3.780
48496W        W16914  23.132  41.835   4.628
48497W        W16915   4.439  32.965   4.153
48498W        W16916   5.370  23.003   4.819
48499W        W16917  35.048  10.827  11.553
48500W        W16918  16.239  35.981   3.759
48501W        W16919  28.642  30.632   1.834
48502W        W16920   7.256  33.909  11.028
48503W        W16921  11.199  43.433  13.965
48504W        W16922  41.509   7.216   2.801
48505W        W16923  38.514   5.732  12.068
48506W        W16924   3.789  16.674   2.840
48507W        W16925  15.719  35.510   1.870
48508W        W16926  38.822  26.628   1.903
48509W        W16927   1.311  24.493   3.691
48510W        W16928  44.338  37.343  11.563
48511W        W16929  31.446  31.436  13.056
48512W        W16930   2.954   5.749   3.713
48513W        W16931  36.496  41.352   5.318
48514W        W16932   4.385  18.295   0.911
48515W        W16933  14.713  43.431  14.439
48516W        W16934  41.022   5.251   1.931
48517W        W16935   0.412  16.283  10.993
48518W        W16936  41.434   1.973  13.025
48519W        W16937   6.841   1.949  14.022
48520W        W16938   1.445  36.506  11.550
48521W        W16939  18.666   5.376  13.817
48522W        W16940  23.508  31.999  12.833
48523W        W16941  36.919   4.242   2.237
48524W        W16942  44.894  26.531   2.792
48525W        W16943  44.409  33.127   0.819
48526W        W16944  15.193  19.107   0.249
48527W        W16945   6.739  20.691  11.955
48528W        W16946   9.284  33.561  13.379
48529W        W16947   8.849  22.035  13.999
48530W        W16948  14.238  21.192   1.930
48531W        W16949  15.273   4.216  13.373
48532W        W16950  44.896   3.760   2.311
48533W        W16951  27.581  42.300  10.461
48534W        W16952  35.512  14.686  13.860
48535W        W16953  17.730  25.617   1.757
48536W        W16954  34.415  31.104  13.042
48537W        W16955   4.387  25.709  11.602
48538W        W16956  11.202  42.485  12.571
48539W        W16957   9.149  22.157   2.401
48540W        W16958  34.434   9.760   2.701
48541W        W16959  22.025  40.944   3.725
48542W        W16960  36.441  34.397   1.867
48543W        W16961   3.785  20.208  13.407
48544W        W16962  19.634  36.591   1.380
48545W        W16963  16.752  11.295   1.923
48546W        W16964  33.501  43.829   0.821
48547W        W16965   1.894  33.602   2.318
48548W        W16966  10.692  17.147  10.023
48549W        W16967  15.578  17.228  12.381
48550W        W16968   9.210   6.728  10.466
48551W        W16969  35.062   9.306   0.952
48552W        W16970  39.846   4.778  10.582
48553W        W16971  42.435  27.578  13.528
48554W        W16972  38.947  39.414   0.456
48555W        W16973  15.129   6.801  13.866
48556W        W16974  43.471  39.906  14.873
48557W        W16975   3.248  29.506  13.036
48558W        W16976  24.599  42.482  14.840
48559W        W16977  12.145  20.743   2.291
48560W        W16978  29.004   7.672   2.847
48561W        W16979   4.894  38.424  10.424
48562W        W16980  38.544  28.960  14.856
48563W        W16981   3.452   4.223  12.062
48564W        W16982  40.488  36.069  10.614
48565W        W16983  32.969  40.464   0.892
48566W        W16984  29.640   7.336  10.591
48567W        W16985  11.244  31.424  11.430
48568W        W16986  11.272  43.819   2.736
48569W        W16987   1.366  23.162   3.213
48570W        W16988  30.578   8.340  13.790
48571W        W16989  37.898  40.800   2.726
48572W        W16990  42.450  16.153  12.084
48573W        W16991  28.576  15.665  14.477
48574W        W16992  17.714  12.120  12.563
48575W        W16993  42.303   8.880   3.717
48576W        W16994   5.884  26.997  10.483
48577W        W16995  41.829  33.082   2.801
48578W        W16996  33.988   4.698  14.333
48579W        W16997  20.068  23.993   1.811
48580W        W16998  22.160   8.326   2.359
48581W        W16999  41.375   4.263  14.894
48582W        W17000  25.658  13.662  13.017
48583W        W17001   0.865  21.634   5.132
48584W        W17002  36.900  30.991   0.900
48585W        W17003  18.195  20.587   0.449
48586W        W17004  25.997  34.958   3.840
48587W        W17005  20.559  37.507  11.056
48588W        W17006   2.361   4.377   2.753
48589W        W17007  22.008  44.499  11.084
48590W        W17008  40.039  36.463   4.735
48591W        W17009  36.969   7.694   4.236
48592W        W17010   3.728  30.612   5.162
48593W        W17011  40.361  15.756   5.273
48594W        W17012  40.990  10.720  13.898
48595W        W17013  25.218  27.070  11.860
48596W        W17014   4.729  18.222   4.214
48597W        W17015   3.718  12.290   1.875
48598W        W17016  38.560  41.017  10.408
48599W        W17017  39.988  34.979   3.248
48600W        W17018  32.437  36.972   3.714
48601W        W17019  10.737  29.482  11.517
48602W        W17020  12.689  25.169  10.617
48603W        W17021  35.359  22.070   1.248
48604W        W17022  37.832  20.231   1.821
48605W        W17023  15.709  39.436  12.470
48606W        W17024   9.751  37.475  13.472
48607W        W17025  26.076  13.673   4.351
48608W        W17026  13.248  24.721  12.990
48609W        W17027   8.367   1.879   0.313
48610W        W17028  34.449  37.454  14.778
48611W        W17029  17.248  23.044   2.784
48612W        W17030  23.133  20.676  14.793
48613W        W17031  39.434  39.325   2.400
48614W        W17032  18.251  15.727  12.532
48615W        W17033  11.267  36.842  13.382
48616W        W17034  41.432  11.262  13.052
48617W        W17035  20.725   7.176  11.401
48618W        W17036  12.617  43.963  12.541
48619W        W17037  40.828  38.006  10.483
48620W        W17038  37.467  30.922  12.572
48621W        W17039  28.582  33.418   0.430
48622W        W17040  27.542  36.456  13.493
48623W        W17041  17.756  11.812  13.425
48624W        W17042  37.918  19.131   1.282
48625W        W17043  28.126  44.330   1.740
48626W        W17044  36.485   3.772   4.756
48627W        W17045  29.611  15.743   4.259
48628W        W17046  43.860  21.518   4.141
48629W        W17047   4.426  44.496   2.361
48630W        W17048  12.314  14.790  14.908
48631W        W17049  17.076  12.191   4.277
48632W        W17050  34.546   3.902  13.378
48633W        W17051  31.996  12.121   2.856
48634W        W17052  21.188  36.096  10.567
48635W        W17053  19.115  20.727  14.934
48636W        W17054  18.560  22.210   2.351
48637W        W17055  21.643  35.034  12.028
48638W        W17056   3.361  20.611   0.918
48639W        W17057  10.872   5.293   3.315
48640W        W17058   7.897  44.431   0.381
48641W        W17059  37.889  36.409  11.556
48642W        W17060   0.269  24.974  14.933
48643W        W17061  22.239  31.942  14.283
48644W        W17062  37.434   5.693  13.499
48645W        W17063  23.624  29.949  14.834
48646W        W17064  27.522  19.663   0.900
48647W        W17065  32.545  19.161  11.119
48648W        W17066   1.801   8.744   4.128
48649W        W17067  31.460  41.879  12.916
48650W        W17068  35.456  17.705  12.353
48651W        W17069   9.292  18.058  11.606
48652W        W17070  40.452   5.197   3.869
48653W        W17071   8.740  26.610  11.954
48654W        W17072  10.708   7.769   0.407
48655W        W17073   5.834  38.926  11.068
48656W        W17074  19.275   5.799  11.898
48657W        W17075  16.177  20.239  12.431
48658W        W17076  37.580  30.944  12.084
48659W        W17077  31.562  13.840   4.722
48660W        W17078  27.106  42.313   3.262
48661W        W17079   0.363   1.971  13.328
48662W        W17080  37.426  27.065  12.883
48663W        W17081   0.329  29.142  13.952
48664W        W17082  40.357  28.575  13.379
48665W        W17083  21.082  24.109  13.796
48666W        W17084  27.154   0.774   0.758
48667W        W17085  36.515  34.603   4.621
48668W        W17086  24.210  16.200  10.958
48669W        W17087  27.105  21.717   0.272
48670W        W17088  12.725   9.720  13.512
48671W        W17089   6.707  32.046   1.773
48672W        W17090  19.538   0.304  12.992
48673W        W17091  33.550  17.666  14.477
48674W        W17092  37.027  41.959  12.071
48675W        W17093  36.046  31.463  13.325
48676W        W17094   2.832  44.892   2.812
48677W        W17095  22.573  40.310  10.133
48678W        W17096  38.363  16.309  14.009
48679W        W17097   8.362  38.501  13.512
48680W        W17098  10.717  18.719  14.832
48681W        W17099   5.229  40.476  14.313
48682W        W17100  42.816  27.464  11.441
48683W        W17101  10.842  12.832  11.499
48684W        W17102   4.914  43.513   2.855
48685W        W17103   9.331  38.351  11.482
48686W        W17104  32.995  13.636   2.738
48687W        W17105   6.705  38.053   0.795
48688W        W17106  32.897  37.067   3.761
48689W        W17107  32.492  18.268   2.288
48690W        W17108  36.045  20.623   3.707
48691W        W17109  28.993  16.654   3.646
48692W        W17110   3.289   2.747   4.321
48693W        W17111  38.426  34.034   1.401
48694W        W17112  43.338  17.262  12.579
48695W        W17113   0.419  39.499   2.189
48696W        W17114   1.255   0.833  14.494
48697W        W17115   5.721  39.979  13.053
48698W        W17116   9.344  19.283  10.537
48699W        W17117  29.106  25.069  10.909
48700W        W17118  25.497  16.644   2.887
48701W        W17119  29.145   6.783  12.003
48702W        W17120  32.483  36.477  12.084
48703W        W17121  19.047  19.164   4.647
48704W        W17122   5.334  22.536   3.636
48705W        W17123   7.823  28.934   1.821
48706W        W17124  29.559  11.764   5.146
48707W        W17125  37.479  39.902  11.590
48708W        W17126  36.400  33.384   2.367
48709W        W17127  10.653   2.882   3.816
48710W        W17128  13.169  19.205   0.868
48711W        W17129   6.391  24.023   0.421
48712W        W17130  19.656  12.345   2.734
48713W        W17131   7.827  38.461   4.668
48714W        W17132  18.651   8.667   4.623
48715W        W17133  32.635   9.307   3.851
48716W        W17134   8.373  11.818   0.389
48717W        W17135   9.337  37.076  13.409
48718W        W17136  14.299   4.890   0.940
48719W        W17137  24.094  37.504  10.512
48720W        W17138  13.302  11.827  11.898
48721W        W17139  18.186  42.838   2.841
48722W        W17140  10.260   3.447   4.200
48723W        W17141  13.135  42.896  10.475
48724W        W17142  43.505   4.763   0.801
48725W        W17143  44.316  24.013  10.070
48726W        W17144   9.388  42.992   3.797
48727W        W17145  20.217  11.218   2.789
48728W        W17146   1.945  19.564   1.834
48729W        W17147   7.823  15.762  11.081
48730W        W17148  20.754  27.123   1.450
48731W        W17149  27.159  20.253  14.936
48732W        W17150  19.099  23.581   5.274
48733W        W17151  26.581   2.902  13.879
48734W        W17152   7.287   7.223   0.373
48735W        W17153  11.691  28.119   2.416
48736W        W17154  44.987  40.438  12.510
48737W        W17155   0.929  32.524  14.507
48738W        W17156  44.461  41.533   4.829
48739W        W17157  34.555  11.287  14.503
48740W        W17158  13.770  12.812   1.420
48741W        W17159   2.748  33.397  10.428
48742W        W17160   8.885  27.556   0.279
48743W        W17161  29.454  10.204  13.965
48744W        W17162   7.855  28.023   3.374
48745W        W17163  43.840  19.682  13.979
48746W        W17164   8.178  36.510   3.807
48747W        W17165  33.444   7.406  10.493
48748W        W17166  30.021  15.111   2.204
48749W        W17167  39.363  19.284  13.832
48750W        W17168  30.503   7.172  13.880
48751W        W17169  24.146  17.231   0.944
48752W        W17170  26.534  44.353  11.552
48753W        W17171   5.722  33.905   2.220
48754W        W17172  42.783  12.247  11.484
48755W        W17173   2.254  32.971  11.372
48756W        W17174  14.786  28.173   3.670
48757W        W17175   7.878  13.678  10.946
48758W        W17176  24.149  43.805   0.408
48759W        W17177   5.383  24.000   2.690
48760W        W17178  39.967   4.295  14.401
48761W        W17179  42.881  22.061   4.781
48762W        W17180  11.706  16.090  13.818
48763W        W17181  43.275   9.806  13.028
48764W        W17182   1.775  35.019  10.575
48765W        W17183  25.704  20.072  14.915
48766W        W17184  19.773  33.124  11.594
48767W        W17185  26.088  25.983  10.561
48768W        W17186  31.635   5.353  13.933
48769W        W17187   2.335  42.319  11.111
48770W        W17188  33.569  44.922   0.475
48771W        W17189  33.392  21.100   0.371
48772W        W17190  29.071   7.350  14.839
48773W        W17191  19.081  43.510   0.434
48774W        W17192   2.376  15.115  13.308
48775W        W17193  36.521  16.636   2.699
48776W        W17194  29.131  29.155  14.299
48777W        W17195  10.681  38.830   4.730
48778W        W17196  37.383  12.623  13.356
48779W        W17197  44.910  14.734   2.205
48780W        W17198  44.322  28.473   3.682
48781W        W17199  17.592  30.157   2.348
48782W        W17200  35.538   0.790   0.824
48783W        W17201  38.890  30.659  10.440
48784W        W17202  44.980   8.701   3.324
48785W        W17203  30.151  26.588  11.593
48786W        W17204  22.734  32.570   0.288
48787W        W17205   0.310  16.275  12.964
48788W        W17206  43.287   9.226  12.841
48789W        W17207  18.716  10.871  14.761
48790W        W17208  42.955  34.993   4.804
48791W        W17209  21.611  37.527  14.960
48792W        W17210  23.196   6.336  11.986
48793W        W17211  17.251  32.133  13.354
48794W        W17212  38.468  28.064   3.366
48795W        W17213  33.115  37.551   5.209
48796W        W17214  15.800  23.231  12.574
48797W        W17215  34.550   7.269   1.777
48798W        W17216  42.378  21.517  11.508
48799W        W17217  12.672  28.506   3.841
48800W        W17218  35.503  41.366   4.148
48801W        W17219  39.490  24.594  12.513
48802W        W17220  26.654  30.920   0.376
48803W        W17221  43.930  14.711   2.853
48804W        W17222   1.306  36.943   1.438
48805W        W17223  28.665  10.831   1.339
48806W        W17224   6.262   4.209  13.471
48807W        W17225  25.204  37.083   1.932
48808W        W17226  22.703   2.424  14.993
48809W        W17227  25.696   8.361   1.724
48810W        W17228  10.684  15.766  12.952
48811W        W17229  10.345  14.617  12.936
48812W        W17230  32.896  19.165  10.617
48813W        W17231  21.062  34.105   3.687
48814W        W17232  20.111  26.155  14.337
48815W        W17233  28.628  25.126  12.905
48816W        W17234  25.114  19.753  13.820
48817W        W17235  38.539  33.495  13.980
48818W        W17236   5.292  22.116   1.930
48819W        W17237  32.569   5.858   3.297
48820W        W17238   7.189  22.218  12.515
48821W        W17239  35.581  14.768  14.925
48822W        W17240  30.973  12.724   3.637
48823W        W17241   1.428  29.931  14.456
48824W        W17242  17.180   6.791  13.324
48825W        W17243  37.936   2.366  12.016
48826W        W17244  33.025  39.358  10.935
48827W        W17245  17.274   6.286   3.708
48828W        W17246  29.644   6.799   0.800
48829W        W17247  38.003  20.553  11.450
48830W        W17248   8.331  29.940   3.697
48831W        W17249  22.522  11.805  14.314
48832W        W17250  43.855   6.713   0.458
48833W        W17251  33.009  27.664   0.355
48834W        W17252   3.297  14.326  10.452
48835W        W17253  11.721  14.139   3.336
48836W        W17254  15.728   4.940   9.486
48837W        W17255  14.783  12.769   1.752
48838W        W17256  23.225  10.662  11.555
48839W        W17257  31.575  26.962   0.928
48840W        W17258   4.330  14.828  13.888
48841W        W17259  38.859  14.321  13.456
48842W        W17260   2.356  17.205   2.881
48843W        W17261  13.640   9.699  10.896
48844W        W17262  42.352  37.952   1.302
48845W        W17263  15.321  37.355   4.172
48846W        W17264  13.738  34.377   4.238
48847W        W17265  18.580   4.387   2.340
48848W        W17266  43.346  19.585   3.844
48849W        W17267  17.158   4.389  13.324
48850W        W17268   8.172  38.876  10.930
48851W        W17269  43.973  41.978   3.857
48852W        W17270  17.700  11.817   4.207
48853W        W17271  17.665  32.017  10.506
48854W        W17272   8.787  15.139   1.819
48855W        W17273  19.609  43.317   4.212
48856W        W17274  15.209  39.410  11.936
48857W        W17275  15.697  37.979  13.885
48858W        W17276  21.196   7.708   3.256
48859W        W17277  12.842   1.350  14.347
48860W        W17278  15.100  43.801  11.022
48861W        W17279  21.744  24.030   3.842
48862W        W17280   3.329  16.807  11.462
48863W        W17281  35.580  42.948  14.929
48864W        W17282  37.525  22.064   2.786
48865W        W17283  42.910  21.177  11.062
48866W        W17284   9.172  14.296  14.479
48867W        W17285   9.847  22.084   0.943
48868W        W17286  36.040  43.270   0.934
48869W        W17287  23.181  38.913  13.905
48870W        W17288   5.346  17.248  13.836
48871W        W17289  42.341  23.672   1.742
48872W        W17290  13.801  39.984   1.264
48873W        W17291   4.280  11.214  11.984
48874W        W17292  31.058  27.646  12.040
48875W        W17293   2.958  32.042   2.841
48876W        W17294   0.915  21.037   0.807
48877W        W17295  12.233  21.592   4.124
48878W        W17296  17.135  32.581   0.884
48879W        W17297  23.203   5.233   4.826
48880W        W17298   2.420   5.851   3.231
48881W        W17299  13.192   6.196   5.289
48882W        W17300  42.448  40.920   0.955
48883W        W17301  35.064  33.128  11.007
48884W        W17302  29.949  14.826  14.948
48885W        W17303  13.838   8.663  13.477
48886W        W17304  37.857  18.590  14.765
48887W        W17305   5.716  26.105  11.599
48888W        W17306   3.798  24.671   3.196
48889W        W17307  18.189  24.007  13.051
48890W        W17308   1.394   2.862  10.541
48891W        W17309  38.459  40.831  11.002
48892W        W17310  42.824  35.498   3.769
48893W        W17311   5.823  27.995  11.492
48894W        W17312   1.281   1.759  11.456
48895W        W17313   6.762  35.539   1.747
48896W        W17314  25.127  15.760  10.036
48897W        W17315  29.519  44.983  12.484
48898W        W17316  19.242  31.528   2.233
48899W        W17317  18.164   7.672   0.416
48900W        W17318  17.153  28.505   1.319
48901W        W17319  19.079  29.570  12.075
48902W        W17320  14.279   0.912   0.942
48903W        W17321  37.951  21.627  13.410
48904W        W17322  35.987  32.429   4.721
48905W        W17323  32.933  42.870  11.431
48906W        W17324  28.450   0.823  10.455
48907W        W17325  20.643  41.329  14.427
48908W        W17326  43.279  38.350  14.307
48909W        W17327  40.885  16.283   3.202
48910W        W17328   9.800  30.044  13.383
48911W        W17329  10.182  24.036   5.170
48912W        W17330  35.947   7.866  14.364
48913W        W17331  41.000  30.033  11.066
48914W        W17332  15.665   4.850  14.924
48915W        W17333   8.268  35.497  10.489
48916W        W17334  10.820  26.031  10.506
48917W        W17335   4.221   0.780  11.563
48918W        W17336  13.253  40.805  13.060
48919W        W17337  36.882   4.823  14.017
48920W        W17338  20.557  13.701   4.817
48921W        W17339  28.104  11.793  11.605
48922W        W17340  28.028  24.579  14.775
48923W        W17341  21.098  23.039   4.192
48924W        W17342   3.247  24.019   3.850
48925W        W17343  31.915  44.305  10.623
48926W        W17344  24.162   5.199   0.762
48927W        W17345  43.491  28.669  12.388
48928W        W17346  28.585  37.030   1.447
48929W        W17347  21.241  43.481  14.832
48930W        W17348  15.607  43.439   4.819
48931W        W17349   6.769  31.062  10.439
48932W        W17350  33.952  16.313  10.444
48933W        W17351   5.204  31.108   4.172
48934W        W17352   6.791  36.088  10.903
48935W        W17353   1.475  14.317  14.009
48936W        W17354  29.056  33.969  14.795
48937W        W17355  21.744   5.224   4.351
48938W        W17356   8.666  24.044  13.857
48939W        W17357  32.972  41.962  14.482
48940W        W17358   7.308  25.124   1.275
48941W        W17359   4.356  24.129  14.956
48942W        W17360  28.010  12.832   2.880
48943W        W17361  27.158  16.648   0.438
48944W        W17362  16.211   3.844   4.827
48945W        W17363  43.801  44.849  12.496
48946W        W17364  30.036  22.010   4.293
48947W        W17365   1.441   9.302  11.014
48948W        W17366  34.112  26.675   4.645
48949W        W17367  29.428  31.551   2.879
48950W        W17368   5.359  40.417  14.860
48951W        W17369  32.971   1.399   4.701
48952W        W17370  36.450  33.040   4.196
48953W        W17371   9.270  34.902   1.739
48954W        W17372  34.483  44.903  13.350
48955W        W17373  31.584  22.739  11.529
48956W        W17374  20.076  35.586   0.821
48957W        W17375  36.436  12.280   1.807
48958W        W17376  24.092   2.932   2.218
48959W        W17377  14.805  23.546   4.627
48960W        W17378  32.408   1.951  10.605
48961W        W17379  32.549   9.786   3.868
48962W        W17380  27.944  14.203  14.973
48963W        W17381   0.253  43.022  11.548
48964W        W17382  42.877  31.447  13.855
48965W        W17383   6.387  18.097   2.277
48966W        W17384  32.416   8.841  13.025
48967W        W17385   4.386   6.200  13.920
48968W        W17386  16.579  28.111   3.773
48969W        W17387  24.054  26.087  11.016
48970W        W17388  10.663  15.701   1.399
48971W        W17389  30.142   2.244   2.340
48972W        W17390  24.674  28.580  11.431
48973W        W17391   0.986  30.097  14.845
48974W        W17392  17.773  12.731  14.965
48975W        W17393  31.066  12.762   4.664
48976W        W17394  37.544  15.680   1.779
48977W        W17395   6.403  24.165  11.072
48978W        W17396   7.795  21.188  14.957
48979W        W17397  22.190   5.733  14.424
48980W        W17398  33.533  12.709   0.434
48981W        W17399  27.501  15.246   1.376
48982W        W17400  10.809  14.224   1.415
48983W        W17401  16.248  25.189  12.437
48984W        W17402   4.838   3.307  12.896
48985W        W17403  41.981  43.513   0.331
48986W        W17404  21.591  12.196   1.914
48987W        W17405  30.093  23.189   3.842
48988W        W17406  21.675  25.054  13.943
48989W        W17407  27.986  19.568   4.176
48990W        W17408  29.459  32.460   3.159
48991W        W17409   2.875  24.590   3.372
48992W        W17410  20.645  24.161  14.357
48993W        W17411  43.014  42.028  14.940
48994W        W17412   8.389  27.989   1.211
48995W        W17413  10.219  33.102  13.535
48996W        W17414  27.990  25.003   9.988
48997W        W17415  13.665  21.105  14.416
48998W        W17416  44.800  38.857   1.933
48999W        W17417   0.409  39.921  11.410
49000W        W17418   2.336  18.295   3.354
49001W        W17419   0.978   7.802   1.263
49002W        W17420  10.873  30.484   1.840
49003W        W17421  10.820  15.166   3.277
49004W        W17422  19.152  37.873   2.785
49005W        W17423   8.805  30.020  13.031
49006W        W17424  34.014  14.100   0.389
49007W        W17425  30.058  30.035   4.136
49008W        W17426   9.869  14.277   3.756
49009W        W17427  20.107  29.444   1.433
49010W        W17428  24.665  35.963  14.017
49011W        W17429  13.266  44.004  13.063
49012W        W17430  25.215   4.312   4.268
49013W        W17431  41.465  22.558   5.113
49014W        W17432  22.710  44.496   0.440
49015W        W17433   8.706  13.174   4.703
49016W        W17434  27.054  14.771  13.344
49017W        W17435  10.835  36.538   4.283
49018W        W17436   1.303  25.996   0.427
49019W        W17437  32.951  12.699   1.282
49020W        W17438  36.515  35.492  14.302
49021W        W17439  19.752  28.994  12.909
49022W        W17440  41.010   3.454   0.374
49023W        W17441   3.917  34.447   1.922
49024W        W17442  20.650  36.372   3.249
49025W        W17443  15.093  37.993  13.905
49026W        W17444  14.638  39.427  10.572
49027W        W17445  27.089  34.110   0.426
49028W        W17446   6.255   5.891  13.796
49029W        W17447   2.772  20.611   4.154
49030W        W17448  11.127   5.756  13.027
49031W        W17449   0.482   2.920   1.272
49032W        W17450  12.119  22.141   4.837
49033W        W17451  35.974  39.839   5.679
49034W        W17452  11.160  29.494   3.277
49035W        W17453  41.332  28.990  11.477
49036W        W17454   1.390  35.893   2.271
49037W        W17455  14.171   2.723   2.903
49038W        W17456  34.537  42.508  12.992
49039W        W17457  15.325  19.083  12.362
49040W        W17458  24.158   1.953  11.408
49041W        W17459  13.318   7.223  11.102
49042W        W17460  23.591   5.320   3.188
49043W        W17461  22.096   5.224   0.768
49044W        W17462  10.246  15.194   2.680
49045W        W17463  10.240   6.250  11.023
49046W        W17464  22.065   9.177  12.545
49047W        W17465  10.718  26.534   0.747
49048W        W17466  24.721  13.316  13.004
49049W        W17467  13.623   0.386  12.476
49050W        W17468   1.769  18.260  14.830
49051W        W17469   2.944   9.240   2.801
49052W        W17470  40.457  18.629  12.347
49053W        W17471   2.865  44.480  11.029
49054W        W17472  31.953  25.704   4.639
49055W        W17473  22.556  39.516   0.474
49056W        W17474  12.755  41.417   0.434
49057W        W17475  38.329  43.887  14.935
49058W        W17476  26.609  15.182   0.834
49059W        W17477  43.463  17.663  12.373
49060W        W17478  44.776   7.243   1.293
49061W        W17479  16.258  28.476  13.021
49062W        W17480  18.697   5.330  14.453
49063W        W17481  22.728   1.897   2.737
49064W        W17482  19.079  21.169  14.926
49065W        W17483  12.123  12.127  12.457
49066W        W17484  34.961   8.854   0.787
49067W        W17485  16.164  44.350   3.348
49068W        W17486   4.355  32.088   3.335
49069W        W17487   3.251  10.762   3.194
49070W        W17488  17.154  25.106   4.719
49071W        W17489  28.643  39.397  11.053
49072W        W17490  16.249   3.303  12.547
49073W        W17491   7.402  44.328  12.990
49074W        W17492  10.705  42.887   1.789
49075W        W17493  28.089  43.861  13.443
49076W        W17494  31.974  16.160   2.397
49077W        W17495  21.555  23.501  13.522
49078W        W17496  30.556  11.334  11.053
49079W        W17497   0.925  12.121   1.281
49080W        W17498  28.087  42.517   3.148
49081W        W17499  40.020  19.558   3.701
49082W        W17500  42.971  41.923   1.776
49083W        W17501  39.423  15.154   0.401
49084W        W17502   4.930  28.046  10.637
49085W        W17503  43.420  29.578  14.963
49086W        W17504   8.782  20.661  14.509
49087W        W17505  41.405  36.096   2.356
49088W        W17506  44.296  30.618  13.876
49089W        W17507  27.657   4.939  11.533
49090W        W17508  19.547  22.995   3.630
49091W        W17509  27.163  28.489  14.944
49092W        W17510  29.053  25.081  12.988
49093W        W17511   5.919  33.487   0.466
49094W        W17512  21.620  22.741   0.742
49095W        W17513  43.907  21.234   2.880
49096W        W17514  22.009   6.688   3.218
49097W        W17515  28.179  15.602  10.485
49098W        W17516   2.422   4.313  11.591
49099W        W17517  10.828   2.962  14.436
49100W        W17518  12.150  39.056   1.349
49101W        W17519  32.424  19.150  12.463
49102W        W17520  33.497  36.471  13.841
49103W        W17521  25.146  44.929  12.856
49104W        W17522  20.662  34.545  10.487
49105W        W17523  28.512  44.421   2.205
49106W        W17524  19.653   6.896   3.635
49107W        W17525   4.744  31.582   4.180
49108W        W17526  39.324  14.628  10.898
49109W        W17527  35.461  38.973   5.245
49110W        W17528  23.689  29.600  10.509
49111W        W17529  43.972  37.859   4.234
49112W        W17530  36.939  36.593  11.451
49113W        W17531  22.022  41.847  11.129
49114W        W17532  13.307  22.042   4.353
49115W        W17533   9.873  11.682  14.806
49116W        W17534  28.678  31.638  13.419
49117W        W17535  38.435  21.124  12.387
49118W        W17536  17.067   2.770  12.994
49119W        W17537  22.009  15.624  10.963
49120W        W17538  34.993  43.310  12.828
49121W        W17539  34.013  33.084  14.327
49122W        W17540  24.071  18.576  10.901
49123W        W17541  25.557  41.815   2.667
49124W        W17542   1.378   8.207  12.090
49125W        W17543  33.005  40.949   2.416
49126W        W17544  27.466  36.888   1.796
49127W        W17545  27.692  12.751   2.211
49128W        W17546   8.743  30.522   0.446
49129W        W17547  24.999  32.509   2.311
49130W        W17548  28.671  13.809   4.303
49131W        W17549  16.765  13.250  10.502
49132W        W17550  18.702  19.160   4.661
49133W        W17551  20.066  33.024   4.817
49134W        W17552  41.822  30.049  13.796
49135W        W17553  11.858  42.905   2.348
49136W        W17554  43.301  11.253   1.742
49137W        W17555  21.201   4.225  13.468
49138W        W17556  16.102  23.079   2.667
49139W        W17557   3.811  32.509   2.894
49140W        W17558   4.904  13.624  10.940
49141W        W17559  40.016  40.457   3.369
49142W        W17560   9.165  38.938   4.728
49143W        W17561  32.584  24.633  14.286
49144W        W17562  40.355  34.590  12.436
49145W        W17563  38.058  35.039   1.262
49146W        W17564  20.136  26.041   2.717
49147W        W17565  29.575   6.338  14.980
49148W        W17566  33.442  33.876   9.973
49149W        W17567  43.474  29.640   4.750
49150W        W17568  17.131  24.088   1.863
49151W        W17569  15.233  42.384   0.900
49152W        W17570  15.769   2.863   1.741
49153W        W17571  21.644  36.075  11.564
49154W        W17572  17.648  14.102   9.921
49155W        W17573  36.402  31.999   3.159
49156W        W17574  37.433  15.585  11.028
49157W        W17575  36.081  33.383   1.733
49158W        W17576  31.942  12.723  14.330
49159W        W17577  12.746  22.995  12.442
49160W        W17578   3.387  30.535  12.388
49161W        W17579  35.553  29.014  11.874
49162W        W17580  27.043   3.877  13.929
49163W        W17581  25.692  12.133  14.786
49164W        W17582  14.136  28.101   4.717
49165W        W17583  18.052  12.736   2.772
49166W        W17584  43.970  22.692  11.609
49167W        W17585  39.815  19.545   1.224
49168W        W17586  22.134  23.140   4.122
49169W        W17587  13.262  29.613   0.312
49170W        W17588  31.065  21.149   1.926
49171W        W17589  18.601  36.984   0.439
49172W        W17590  25.156   6.242   1.707
49173W        W17591  25.626  26.136  13.928
49174W        W17592  35.430  25.600   3.797
49175W        W17593  19.061  25.624  14.284
49176W        W17594   3.247  42.472  14.458
49177W        W17595  30.631  44.414   0.945
49178W        W17596  27.119  24.042   0.945
49179W        W17597  15.752  39.959   0.476
49180W        W17598   5.787  36.944   4.355
49181W        W17599  11.677  25.219   4.671
49182W        W17600   7.357  36.042  10.446
49183W        W17601  17.740   4.867   2.860
49184W        W17602  18.667  14.136   0.866
49185W        W17603   0.864  17.290  10.557
49186W        W17604  19.162  34.917   3.337
49187W        W17605   6.306  27.181   4.232
49188W        W17606   8.735  18.084   3.785
49189W        W17607  26.501  29.068   3.169
49190W        W17608   3.913  34.986  10.983
49191W        W17609  44.849  39.890   0.834
49192W        W17610   4.332  27.078   0.800
49193W        W17611  32.571  29.064  11.522
49194W        W17612   9.655  14.187  14.975
49195W        W17613  12.220  20.535   1.445
49196W        W17614  31.954  35.434  11.895
49197W        W17615  38.534   4.285   1.352
49198W        W17616   3.885  36.024  13.478
49199W        W17617  24.672  11.756   3.785
49200W        W17618  25.483   7.702   2.709
49201W        W17619  11.369  42.400   1.289
49202W        W17620  44.481  31.431   3.318
49203W        W17621  41.812  43.360  10.554
49204W        W17622  30.067   0.854   4.299
49205W        W17623  42.868  33.393  14.466
49206W        W17624  26.483   3.274   0.348
49207W        W17625  13.797  33.113   4.209
49208W        W17626  39.907  39.499   1.291
49209W        W17627   6.703  12.155  13.522
49210W        W17628   3.459  16.233  11.493
49211W        W17629  27.647  43.990  13.340
49212W        W17630   7.336  22.606  11.028
49213W        W17631  34.436  19.712   3.187
49214W        W17632  40.420  19.103   4.663
49215W        W17633  18.655   0.378   4.700
49216W        W17634  23.664  31.142   2.362
49217W        W17635   6.703  12.735  10.998
49218W        W17636   9.378  31.404  14.331
49219W        W17637  14.339  22.248   4.243
49220W        W17638  33.916  10.359   2.782
49221W        W17639   3.951  43.988   1.230
49222W        W17640  21.198  39.991  10.898
49223W        W17641  33.482  25.034   3.171
49224W        W17642  12.626  23.618  12.931
49225W        W17643   0.759  28.162   1.723
49226W        W17644   6.737  22.543   4.722
49227W        W17645  27.583   8.249  11.585
49228W        W17646  26.137  10.644   4.681
49229W        W17647   2.366   8.404  14.012
49230W        W17648  22.233   6.299  12.877
49231W        W17649  17.234  32.516  11.093
49232W        W17650  11.165  19.716  12.934
49233W        W17651  15.644  38.929   3.220
49234W        W17652  43.908   2.310   0.420
49235W        W17653   7.250  34.921   2.210
49236W        W17654  31.992  28.488   0.835
49237W        W17655   8.897   2.286  11.390
49238W        W17656  17.600  27.547   1.404
49239W        W17657  39.021  19.248  13.959
49240W        W17658   6.204   4.911   0.775
49241W        W17659  29.089  37.357   1.248
49242W        W17660  17.097  21.535   2.357
49243W        W17661  23.530   1.919   2.210
49244W        W17662   8.360   0.415   3.294
49245W        W17663   1.463   1.373   2.211
49246W        W17664  38.498   0.774  12.532
49247W        W17665  16.624   3.765  11.059
49248W        W17666  12.203  22.697   4.316
49249W        W17667  33.006   0.932  13.059
49250W        W17668  31.003  10.812  13.027
49251W        W17669  13.811  22.550   3.266
49252W        W17670   4.292  42.341   0.409
49253W        W17671   0.483   6.370  11.519
49254W        W17672  44.995  40.352  14.999
49255W        W17673  36.989  31.135   3.630
49256W        W17674  22.726   2.736   2.328
49257W        W17675  22.249  21.663   3.811
49258W        W17676  44.864  33.923  12.940
49259W        W17677  43.885  31.014  12.535
49260W        W17678  44.943   2.237   1.354
49261W        W17679  16.267  30.517   2.845
49262W        W17680  19.669  10.246   1.285
49263W        W17681   3.833   3.411  10.109
49264W        W17682  26.073  31.496   0.815
49265W        W17683   0.335  40.924  14.887
49266W        W17684  28.532  31.935   2.766
49267W        W17685  35.359  37.836  10.567
49268W        W17686  17.652  23.028   3.370
49269W        W17687  13.812  38.559  12.074
49270W        W17688  34.521  31.479  14.383
49271W        W17689  26.150   6.184   1.370
49272W        W17690  21.554  11.674  14.978
49273W        W17691  26.975   5.284   2.714
49274W        W17692  27.641   3.797   1.407
49275W        W17693  35.561  23.987  14.824
49276W        W17694  41.999   0.380  11.386
49277W        W17695  17.764  32.102   2.780
49278W        W17696  23.198   3.787  10.962
49279W        W17697   2.239  27.983   1.398
49280W        W17698  26.606  10.740  11.961
49281W        W17699  42.943  25.502  10.899
49282W        W17700  31.542  21.257   1.418
49283W        W17701  43.430  37.414  13.434
49284W        W17702  26.613  16.152  11.915
49285W        W17703  36.895  24.129   1.850
49286W        W17704  27.063  13.700  10.926
49287W        W17705  33.001   1.811  13.973
49288W        W17706  33.018  23.220   2.725
49289W        W17707  35.070  39.848  10.974
49290W        W17708   2.453  24.091  10.974
49291W        W17709  10.222   0.920  14.860
49292W        W17710  23.703  18.136  13.008
49293W        W17711  14.705   8.867   3.808
49294W        W17712  26.675   0.938   1.744
49295W        W17713  24.040  20.722  14.854
49296W        W17714  12.119  39.890  11.479
49297W        W17715  15.801   1.792   0.431
49298W        W17716  43.813  12.213   1.385
49299W        W17717  41.334  16.297   4.259
49300W        W17718  27.942  36.097   2.704
49301W        W17719  13.606  25.143   4.817
49302W        W17720  15.202  35.956  14.759
49303W        W17721   1.374  13.294  13.813
49304W        W17722  28.664  36.095  10.530
49305W        W17723  31.610  12.313  12.972
49306W        W17724  32.044  24.216   4.300
49307W        W17725  38.838  38.831   4.287
49308W        W17726  18.720  32.633  14.433
49309W        W17727  31.490  33.497   2.266
49310W        W17728  44.504  36.942   2.706
49311W        W17729   6.383   9.162   0.273
49312W        W17730  37.857  17.159   2.670
49313W        W17731  32.976   4.220  14.887
49314W        W17732   5.231  39.402  13.364
49315W        W17733   8.316  19.765  12.864
49316W        W17734  34.439  43.889  11.377
49317W        W17735  16.641  18.246   3.153
49318W        W17736  43.468  20.766  13.343
49319W        W17737  44.309  39.391   0.735
49320W        W17738  43.325  44.282   3.652
49321W        W17739  39.410  16.198  12.007
49322W        W17740   0.882  39.515   1.788
49323W        W17741  41.507   5.408   3.639
49324W        W17742  42.513   1.766  13.382
49325W        W17743  23.076  22.069  13.875
49326W        W17744  35.506  36.978  13.494
49327W        W17745  13.213  12.697  12.574
49328W        W17746  30.484   2.401   1.223
49329W        W17747  41.354  23.021   5.296
49330W        W17748  43.843  24.185  14.328
49331W        W17749  17.704   6.903   0.249
49332W        W17750  13.732  35.598  12.075
49333W        W17751  23.650   3.913  14.322
49334W        W17752  36.073  32.900  10.922
49335W        W17753   7.227  26.039   3.231
49336W        W17754  17.297  11.868   3.332
49337W        W17755  18.591  22.061  10.939
49338W        W17756  21.232  30.147  10.449
49339W        W17757  37.992  42.897   0.850
49340W        W17758  16.793   9.282  13.808
49341W        W17759  28.021  22.712   1.427
49342W        W17760  10.667  17.118   0.427
49343W        W17761   5.384  29.925  11.892
49344W        W17762  13.142   1.416   2.766
49345W        W17763   3.444   9.694   4.159
49346W        W17764  13.313  23.017  14.493
49347W        W17765  10.286  44.492   1.228
49348W        W17766  16.708  21.692  10.606
49349W        W17767  35.417   2.369   3.265
49350W        W17768   3.219  20.184   5.271
49351W        W17769   5.215  13.330   2.387
49352W        W17770  37.080  17.136  12.857
49353W        W17771   7.291   2.853  14.908
49354W        W17772  32.051  13.785   1.739
49355W        W17773  36.449  41.856  12.407
49356W        W17774  44.324  22.712   3.158
49357W        W17775   7.808  32.406  13.008
49358W        W17776  15.252   3.803   4.197
49359W        W17777   5.373  10.307  13.334
49360W        W17778   9.315  19.720  11.529
49361W        W17779  42.316  11.283   1.388
49362W        W17780  25.102  24.039   1.286
49363W        W17781  24.595  38.538   2.349
49364W        W17782   5.782   6.760  13.318
49365W        W17783  38.333   4.818   3.762
49366W        W17784  13.331  40.830   3.271
49367W        W17785  24.705  12.174  12.989
49368W        W17786  37.490  41.523   1.446
49369W        W17787  13.132  22.527  13.506
49370W        W17788  26.661  10.812  13.935
49371W        W17789  14.743  24.538  13.326
49372W        W17790  28.151  21.123   3.379
49373W        W17791  28.491  42.466  13.027
49374W        W17792  20.562  28.929   2.888
49375W        W17793   0.879  23.553   4.741
49376W        W17794   7.179  24.615  14.021
49377W        W17795   8.276  11.821   1.717
49378W        W17796  33.046  42.515  10.609
49379W        W17797  15.646  37.338   3.747
49380W        W17798  27.033   1.443  11.021
49381W        W17799   9.339  18.069   3.377
49382W        W17800  11.133   7.237   2.813
49383W        W17801   3.755  35.548  13.001
49384W        W17802   8.814  32.954   3.831
49385W        W17803  41.304  11.801  10.981
49386W        W17804  18.250   5.415  11.856
49387W        W17805  19.687  14.726  11.512
49388W        W17806  24.656  26.151  11.587
49389W        W17807  26.628  42.811  14.947
49390W        W17808  20.183  15.703   3.352
49391W        W17809   3.380  26.529  11.534
49392W        W17810  25.971  10.155   4.812
49393W        W17811  44.310  18.790   3.735
49394W        W17812  14.311  20.713  13.871
49395W        W17813   2.720   0.862  12.008
49396W        W17814  35.398  28.001  11.393
49397W        W17815  28.508  35.008   2.222
49398W        W17816  12.685  25.099   1.710
49399W        W17817  43.884  32.893  11.932
49400W        W17818  24.655  38.485   9.533
49401W        W17819  44.776  36.366  10.415
49402W        W17820  36.891  10.289   1.374
49403W        W17821  32.965  23.190   1.266
49404W        W17822   0.856  39.494  11.545
49405W        W17823  20.627  32.569  11.977
49406W        W17824  25.964  11.267   1.366
49407W        W17825  27.097  10.209   3.372
49408W        W17826  13.830  36.035   1.425
49409W        W17827  14.757  17.653   1.336
49410W        W17828  42.942   7.879   4.737
49411W        W17829  13.611  33.403  11.540
49412W        W17830  19.554  34.981  13.903
49413W        W17831  25.515  17.559  13.978
49414W        W17832  37.937  15.170  10.551
49415W        W17833   4.705  38.935  10.521
49416W        W17834   2.364  24.085  14.003
49417W        W17835  33.061  42.920   1.285
49418W        W17836  11.336  30.009  12.095
49419W        W17837  24.513  29.513   2.678
49420W        W17838  31.032  33.919   2.274
49421W        W17839  25.144  26.486  11.021
49422W        W17840  39.890  24.008   0.788
49423W        W17841   5.837  40.007   0.816
49424W        W17842  25.524  23.024   1.859
49425W        W17843  29.538  39.821   5.266
49426W        W17844  33.994  16.268   1.820
49427W        W17845  15.696  42.033  11.089
49428W        W17846  21.666   0.885   3.828
49429W        W17847  25.108   4.844   4.236
49430W        W17848  23.639  21.513   1.856
49431W        W17849  39.411   2.272   2.669
49432W        W17850  14.182  44.797  10.934
49433W        W17851  39.887  25.687  11.492
49434W        W17852  44.828  14.609   1.340
49435W        W17853  41.881  40.454  13.522
49436W        W17854  29.945  22.043   3.710
49437W        W17855  13.615  24.680  14.430
49438W        W17856   0.815   4.384  13.453
49439W        W17857  32.083   8.878  14.367
49440W        W17858  38.838  25.497  14.402
49441W        W17859  28.182  11.814  14.948
49442W        W17860  36.895  19.647   3.317
49443W        W17861  44.827  15.322   0.314
49444W        W17862  25.966  18.775  14.964
49445W        W17863   4.293   1.362  11.115
49446W        W17864  43.410  14.126  10.544
49447W        W17865  41.350  40.419  11.912
49448W        W17866  17.254  44.981  10.914
49449W        W17867  25.978  36.471  12.927
49450W        W17868   4.224  33.089  12.912
49451W        W17869  36.989   8.275   1.790
49452W        W17870  38.432  36.498   2.394
49453W        W17871  41.527   7.903  14.398
49454W        W17872   9.823  29.918   4.290
49455W        W17873  19.712  26.085   1.266
49456W        W17874  29.931   3.714  14.855
49457W        W17875  27.580   3.418  14.374
49458W        W17876  32.499  20.096  10.470
49459W        W17877   7.677  36.431   2.689
49460W        W17878   4.872   2.390   2.208
49461W        W17879  33.008  19.096   0.840
49462W        W17880  38.356  28.636   2.271
49463W        W17881  17.622  34.117  13.058
49464W        W17882   5.876  13.291  12.564
49465W        W17883   0.971  30.908   4.679
49466W        W17884  13.815  11.362   0.934
49467W        W17885  15.260  37.448  14.986
49468W        W17886  21.160  19.577  10.632
49469W        W17887   0.966  11.350   3.281
49470W        W17888   0.313  22.676  10.125
49471W        W17889  25.547  34.409  10.909
49472W        W17890  36.506  14.588  10.631
49473W        W17891  29.023  23.708  12.895
49474W        W17892   4.754  11.327  12.490
49475W        W17893  32.020  23.070   2.800
49476W        W17894  42.479  19.209   4.607
49477W        W17895  42.444  37.342   2.902
49478W        W17896   6.333  35.043   2.903
49479W        W17897  12.252   3.878   2.733
49480W        W17898  26.035   4.427   1.716
49481W        W17899  43.858  36.349  14.028
49482W        W17900   5.811  10.664   2.855
49483W        W17901   5.891   7.199   0.298
49484W        W17902  23.514  30.555  14.486
49485W        W17903   7.765  30.973   3.382
49486W        W17904  14.740  36.034  14.446
49487W        W17905  28.645  19.051   1.889
49488W        W17906  14.234  41.490   2.829
49489W        W17907  37.540  19.537  13.883
49490W        W17908  27.126  21.026   0.327
49491W        W17909  31.428  17.739  13.930
49492W        W17910  39.857  42.375   0.243
49493W        W17911  44.800  28.651  13.808
49494W        W17912  34.493  13.686  13.023
49495W        W17913  22.742  39.460   3.721
49496W        W17914  34.530  43.813   3.753
49497W        W17915  32.906   4.439   4.636
49498W        W17916  24.596   7.678  12.974
49499W        W17917  12.170   3.870   3.273
49500W        W17918  16.129  17.209  14.015
49501W        W17919  12.181  35.946   4.228
49502W        W17920  16.591  12.616  12.966
49503W        W17921  10.216  27.029   2.373
49504W        W17922   7.411   8.367   2.284
49505W        W17923  13.786  19.773   4.309
49506W        W17924   8.730  35.867   3.288
49507W        W17925   0.779  39.973   4.817
49508W        W17926  13.209  44.492  12.985
49509W        W17927  26.530  11.246  12.023
49510W        W17928  27.503  35.050   2.281
49511W        W17929  40.323  31.143   4.799
49512W        W17930  34.615  16.197  10.413
49513W        W17931  29.502   1.879  13.922
49514W        W17932   6.279   4.834  11.916
49515W        W17933  29.431  25.975   2.792
49516W        W17934  30.031  11.171   3.301
49517W        W17935  43.999  10.770  10.512
49518W        W17936  40.409  25.617   2.226
49519W        W17937  43.892  40.926   5.593
49520W        W17938  23.230  44.954  14.319
49521W        W17939  18.097  35.603   0.904
49522W        W17940  11.809   8.212   1.733
49523W        W17941  16.239  16.588   1.694
49524W        W17942  35.967  33.542  13.030
49525W        W17943   0.846   3.876  14.373
49526W        W17944  12.226  33.036  11.007
49527W        W17945  10.144  18.777   3.348
49528W        W17946  18.591  38.480   2.236
49529W        W17947  30.605   5.361   4.758
49530W        W17948   5.227  26.535  13.048
49531W        W17949  31.578  11.783   1.222
49532W        W17950  23.515   6.815  11.947
49533W        W17951   3.768  32.978   2.762
49534W        W17952  15.240  27.050   0.946
49535W        W17953   4.826   8.673   2.354
49536W        W17954  18.290  33.098  12.396
49537W        W17955  39.315  11.770   1.739
49538W        W17956   9.299  31.968  13.500
49539W        W17957   5.301  29.101   4.607
49540W        W17958   1.937  42.912  11.482
49541W        W17959  17.257   3.884  13.346
49542W        W17960  36.868   9.767  11.049
49543W        W17961  25.204   3.302   4.703
49544W        W17962   6.803   1.430  14.909
49545W        W17963  29.993  32.395   1.871
49546W        W17964  38.926  25.529   4.246
49547W        W17965   5.425  10.666  12.899
49548W        W17966  37.887  28.620  11.419
49549W        W17967  19.152  21.089   2.716
49550W        W17968  37.955  34.082  13.946
49551W        W17969  19.145  15.162  13.367
49552W        W17970  37.526   8.753  13.860
49553W        W17971  39.511  28.132   2.410
49554W        W17972  33.585  37.509   0.386
49555W        W17973   9.720  20.576  11.911
49556W        W17974  17.152  39.808   4.230
49557W        W17975  32.405  40.467   4.148
49558W        W17976  38.359   8.823   0.427
49559W        W17977   9.646  30.081  14.775
49560W        W17978  10.298   1.290   4.788
49561W        W17979  12.634   5.899  11.570
49562W        W17980  24.125   9.831   2.238
49563W        W17981  28.014  37.033  11.945
49564W        W17982  33.102  38.552  11.396
49565W        W17983  44.317   7.174   0.840
49566W        W17984   1.264  17.682   2.293
49567W        W17985  44.414  24.057  10.476
49568W        W17986  40.805  40.850   1.339
49569W        W17987  32.637  15.143  14.921
49570W        W17988  35.536  10.829   0.960
49571W        W17989   9.214  20.687  13.878
49572W        W17990  23.516  27.017  11.891
49573W        W17991  33.452  14.231  11.427
49574W        W17992  17.162  13.618  13.021
49575W        W17993  17.613   2.361  12.508
49576W        W17994  43.810  24.976  10.548
49577W        W17995  24.498  30.125   2.314
49578W        W17996   4.780  23.104  14.888
49579W        W17997  31.521  28.964   4.762
49580W        W17998  21.668  44.966  13.460
49581W        W17999  12.756  42.931  12.852
49582W        W18000  17.756  36.923  13.354
49583W        W18001  23.710  31.964   4.604
49584W        W18002  36.989  23.511  13.005
49585W        W18003  11.796  29.469  13.985
49586W        W18004  31.120  35.388  12.942
49587W        W18005  16.659   2.409  11.591
49588W        W18006  16.202  25.190  12.010
49589W        W18007  36.463  11.651  13.380
49590W        W18008  44.904   4.351  12.478
49591W        W18009  41.462  26.506   2.760
49592W        W18010  41.451  40.035  12.348
49593W        W18011  29.109   4.272   0.342
49594W        W18012   4.229  20.102  12.539
49595W        W18013   4.827  36.924  11.099
49596W        W18014  30.162  26.154   0.461
49597W        W18015  18.128  18.268  11.084
49598W        W18016  25.480  32.562   2.816
49599W        W18017  22.526  32.989   3.865
49600W        W18018  14.819  43.380  14.788
49601W        W18019  37.047   7.844  12.974
49602W        W18020  13.135  40.378   2.715
49603W        W18021  31.639  27.127  10.935
49604W        W18022  30.949  31.117   0.832
49605W        W18023  20.747  24.072   1.931
49606W        W18024  12.671  37.348  10.475
49607W        W18025  13.694  13.624   3.680
49608W        W18026  28.554  36.980  13.383
49609W        W18027   7.686  17.651  10.893
49610W        W18028  39.917   1.272   1.420
49611W        W18029  13.223  10.299  13.410
49612W        W18030   4.244  25.172  13.958
49613W        W18031  22.657  32.515  14.812
49614W        W18032  15.285  40.458   3.366
49615W        W18033  17.070   5.922  14.429
49616W        W18034  15.739  17.278   3.346
49617W        W18035  11.669  17.085  11.424
49618W        W18036  12.678   0.463   2.786
49619W        W18037  11.298  27.146  14.989
49620W        W18038  16.578  41.997   3.793
49621W        W18039  37.035  35.521  14.361
49622W        W18040   8.269  33.546   1.416
49623W        W18041  30.457   0.881  13.003
49624W        W18042  21.152  34.469   3.362
49625W        W18043   4.805  36.018  10.581
49626W        W18044  26.969   0.481   0.727
49627W        W18045  42.892   4.276  14.996
49628W        W18046  15.678  32.635   2.359
49629W        W18047  24.191  32.633  13.335
49630W        W18048  16.672  31.508   3.216
49631W        W18049  32.059  41.494   2.183
49632W        W18050   7.406  24.203  11.055
49633W        W18051  22.536  16.769  12.377
49634W        W18052  39.351  20.265   3.768
49635W        W18053   1.388  43.421   4.182
49636W        W18054  18.158  20.624   3.234
49637W        W18055  33.539   6.763   4.614
49638W        W18056  31.463  40.811   2.695
49639W        W18057  29.657   6.781  14.776
49640W        W18058   3.716   9.221   4.709
49641W        W18059  15.644  12.169  11.985
49642W        W18060  43.310  33.051  11.940
49643W        W18061  23.170  24.199  11.451
49644W        W18062  11.251   9.761  14.996
49645W        W18063  12.160  11.272  14.379
49646W        W18064  22.673   6.753   3.855
49647W        W18065   6.334  16.747   3.267
49648W        W18066   6.806   4.357   4.252
49649W        W18067  41.863  31.101  13.051
49650W        W18068  21.665  10.640   1.213
49651W        W18069  21.045  42.439   2.799
49652W        W18070  11.701  11.222   2.825
49653W        W18071  32.046  31.989  14.031
49654W        W18072   6.352  24.645   3.810
49655W        W18073  29.150   2.940  11.476
49656W        W18074  44.501  38.009   3.163
49657W        W18075  20.734  19.616   1.816
49658W        W18076  33.925  26.162   2.198
49659W        W18077  32.033  39.441   3.677
49660W        W18078  44.902  26.095  12.044
49661W        W18079  11.736  40.991   2.249
49662W        W18080  36.966  19.266  10.897
49663W        W18081  30.616  34.394  13.024
49664W        W18082  38.857  11.310   0.843
49665W        W18083  13.760  24.994  12.554
49666W        W18084  10.788  39.487  14.935
49667W        W18085  26.023  36.574   3.244
49668W        W18086  29.648  25.109   2.344
49669W        W18087  32.441   7.231   2.728
49670W        W18088  34.404  12.641   2.831
49671W        W18089  40.803  40.465   2.298
49672W        W18090  41.890  11.153  13.044
49673W        W18091  39.444  42.369   1.705
49674W        W18092   5.787  41.449  11.919
49675W        W18093  36.918  32.583  10.567
49676W        W18094   7.277  21.092   2.290
49677W        W18095  43.795  38.076   3.798
49678W        W18096  15.144  42.799  13.534
49679W        W18097  16.721  34.559   2.706
49680W        W18098  22.066   0.297  11.496
49681W        W18099  22.506  14.132   0.395
49682W        W18100  23.560  32.519   0.916
49683W        W18101  16.646  21.151   3.265
49684W        W18102  16.598  12.257   1.395
49685W        W18103   8.379  25.661   1.755
49686W        W18104   7.415  16.093   4.335
49687W        W18105  39.478  24.159   0.861
49688W        W18106  33.417   3.785  11.005
49689W        W18107  31.022  13.681   2.398
49690W        W18108  25.502  36.471   0.471
49691W        W18109  17.120  21.552  13.509
49692W        W18110  11.268  28.136  10.423
49693W        W18111  40.444  15.148  11.377
49694W        W18112  34.041  22.132  12.433
49695W        W18113   5.933  40.907  12.956
49696W        W18114  42.421  36.522   0.901
49697W        W18115   3.388  27.022  11.890
49698W        W18116  21.228  32.636  12.350
49699W        W18117  20.187  27.176   2.762
49700W        W18118   9.177  38.915   3.340
49701W        W18119  31.451   8.318   3.842
49702W        W18120  26.968  16.636   1.696
49703W        W18121  41.947  33.078   4.649
49704W        W18122   1.251  37.531   0.760
49705W        W18123  22.542  41.440   9.479
49706W        W18124  36.382  17.135   5.202
49707W        W18125  16.200  35.417  13.349
49708W        W18126  13.299  38.541  10.951
49709W        W18127  24.026  23.091   3.341
49710W        W18128  29.559   4.848  11.889
49711W        W18129  15.809   8.327   1.745
49712W        W18130  18.211  39.394   0.282
49713W        W18131  38.950   0.828   2.813
49714W        W18132   6.854  19.536  14.832
49715W        W18133  25.618   2.372   1.220
49716W        W18134   6.873  41.359   2.695
49717W        W18135  22.701  30.084  13.903
49718W        W18136   7.261  16.242   1.850
49719W        W18137  39.019  39.976   3.738
49720W        W18138  34.010   7.357   0.878
49721W        W18139  15.754   0.415   0.413
49722W        W18140  32.556  26.055   3.692
49723W        W18141  41.435   5.335   2.366
49724W        W18142   8.864  31.609   1.860
49725W        W18143  15.725  38.967  14.876
49726W        W18144  24.088  38.050   4.274
49727W        W18145  33.482  13.817  12.096
49728W        W18146  43.839  23.591   5.207
49729W        W18147  20.261  38.019  14.910
49730W        W18148  34.477  37.054  10.152
49731W        W18149  42.814  32.007   4.334
49732W        W18150  29.998  16.708   1.778
49733W        W18151  31.117  31.920  11.610
49734W        W18152  24.659  33.904  10.595
49735W        W18153  43.466  14.131  14.444
49736W        W18154  22.572  26.137  10.580
49737W        W18155  34.565   9.297  14.277
49738W        W18156  17.063  39.971   1.780
49739W        W18157   7.668  25.063   2.224
49740W        W18158   3.915  33.512  13.811
49741W        W18159  22.550   0.354   4.627
49742W        W18160   2.815  31.524   0.817
49743W        W18161  20.269  11.187   0.429
49744W        W18162  30.494   4.922  11.960
49745W        W18163   9.672   8.766   3.864
49746W        W18164  30.983  25.190  13.515
49747W        W18165  18.181  24.227  11.966
49748W        W18166   5.885  21.099   1.849
49749W        W18167  19.166  21.098  13.015
49750W        W18168  39.007  11.277   2.702
49751W        W18169   4.221   2.302   2.328
49752W        W18170  25.089  41.939  13.038
49753W        W18171   9.838   4.239  11.505
49754W        W18172  43.427  19.568   1.740
49755W        W18173  39.486  29.081   3.832
49756W        W18174  18.632  20.127   3.820
49757W        W18175  29.048  30.932   1.923
49758W        W18176  25.572  38.841   3.361
49759W        W18177  34.983  29.001  14.855
49760W        W18178  29.951  12.338   0.878
49761W        W18179  44.374  35.972  10.975
49762W        W18180   9.383  21.249  12.524
49763W        W18181  22.040  33.471   0.386
49764W        W18182  28.935  42.336  11.423
49765W        W18183  16.735  16.314  14.285
49766W        W18184  27.681  22.652   1.221
49767W        W18185   8.404   1.810   3.739
49768W        W18186   0.344  13.645   5.138
49769W        W18187  34.513  29.118  10.462
49770W        W18188  33.009  10.351   0.290
49771W        W18189  24.636   4.432  13.028
49772W        W18190  10.823  18.181  13.793
49773W        W18191  41.419  22.682  10.890
49774W        W18192  25.041  20.688  13.058
49775W        W18193  40.419  14.601   2.840
49776W        W18194  11.696  18.180   0.299
49777W        W18195   7.901   3.295  13.999
49778W        W18196  18.658  15.759   1.820
49779W        W18197  16.293  22.731  10.556
49780W        W18198  19.771  36.935  13.309
49781W        W18199  27.196  39.380   0.253
49782W        W18200  26.495   4.447  13.447
49783W        W18201  25.152  14.790   3.260
49784W        W18202   3.792   2.894   4.299
49785W        W18203  35.514  39.809   1.768
49786W        W18204  42.417   6.192   4.819
49787W        W18205  37.498  18.562   3.385
49788W        W18206  20.119  14.105   5.092
49789W        W18207  22.718   9.715  12.863
49790W        W18208  22.043  28.958  12.498
49791W        W18209  41.397  23.546   0.891
49792W        W18210   4.894  26.003  12.956
49793W        W18211   6.878   4.779  13.008
49794W        W18212  40.475  20.189   0.752
49795W        W18213  10.346  41.004   4.737
49796W        W18214  14.821   5.206  11.508
49797W        W18215   3.801  10.832  14.279
49798W        W18216  14.248  29.949   3.654
49799W        W18217  22.707  44.001   2.226
49800W        W18218  37.872  24.216   0.363
49801W        W18219  23.046   5.875  14.488
49802W        W18220  33.570  26.087   4.257
49803W        W18221  28.111  36.452  12.545
49804W        W18222  40.311  26.544   1.323
49805W        W18223   4.782  16.773  10.471
49806W        W18224  34.606   5.394   4.777
49807W        W18225  29.946  23.547   2.292
49808W        W18226  33.017   9.655  11.468
49809W        W18227  41.889  40.342  11.884
49810W        W18228  41.482  14.643  11.529
49811W        W18229  23.522  41.038   0.472
49812W        W18230  18.096   9.271   2.730
49813W        W18231   6.250  44.356  11.577
49814W        W18232  19.557  15.271   3.698
49815W        W18233   0.473  31.036   1.827
49816W        W18234  13.184  35.926  11.421
49817W        W18235  35.977   3.262  11.528
49818W        W18236  41.463  35.562  12.442
49819W        W18237  35.472  36.043  13.836
49820W        W18238  22.591  14.129   4.323
49821W        W18239  44.954  42.889  13.334
49822W        W18240  42.820   3.794  13.003
49823W        W18241  30.477  31.421  13.062
49824W        W18242  43.953  20.689  12.530
49825W        W18243  33.018   1.880   2.800
49826W        W18244  28.019  10.734  14.496
49827W        W18245  39.927  22.519  11.498
49828W        W18246  14.708  43.277   0.358
49829W        W18247   1.883  39.842   2.788
49830W        W18248  43.849  16.236   3.856
49831W        W18249   7.754  37.506  10.116
49832W        W18250  35.467   5.373   2.221
49833W        W18251   9.318   5.779  10.452
49834W        W18252  10.369   2.963   2.344
49835W        W18253  16.288   0.438  11.437
49836W        W18254  32.609  25.170   0.390
49837W        W18255  41.836   7.277   0.837
49838W        W18256   6.911  35.373   3.221
49839W        W18257   6.270  35.453   1.861
49840W        W18258  10.847  42.960  13.523
49841W        W18259  19.657   5.433  12.943
49842W        W18260  42.414  16.185  13.866
49843W        W18261  30.031  27.503   1.733
49844W        W18262  44.845  39.420  13.902
49845W        W18263  22.082  44.502   4.732
49846W        W18264   8.856  26.654   3.384
49847W        W18265  37.380  40.860   3.294
49848W        W18266  21.663  43.300  10.549
49849W        W18267  32.463   2.259  13.536
49850W        W18268  31.013  26.072   1.709
49851W        W18269  27.982  14.749   3.293
49852W        W18270   2.883  24.496   0.892
49853W        W18271  12.625  37.437   4.771
49854W        W18272  22.508  25.609   0.246
49855W        W18273   6.349  10.345  13.318
49856W        W18274   5.908  38.559  11.547
49857W        W18275  37.581  17.787  13.335
49858W        W18276  32.142   2.725   4.665
49859W        W18277  21.201  14.322  13.987
49860W        W18278  20.571   7.727   1.794
49861W        W18279  13.781  15.728  11.067
49862W        W18280  30.011   2.737  13.903
49863W        W18281  37.438   6.256   2.355
49864W        W18282  25.150  21.051   0.434
49865W        W18283  10.830  23.211  10.632
49866W        W18284  28.144   9.862  11.578
49867W        W18285  14.124   9.260   2.400
49868W        W18286   3.381   1.360  13.482
49869W        W18287   9.647  26.011  13.792
49870W        W18288  20.116  11.639  12.871
49871W        W18289  22.581  30.081  11.940
49872W        W18290  38.478   0.949   1.357
49873W        W18291  16.308  23.196   3.342
49874W        W18292  30.470  21.134   0.344
49875W        W18293  11.701   7.276  12.561
49876W        W18294  11.357  27.533   1.241
49877W        W18295  14.821  19.711  11.059
49878W        W18296  28.183   9.807  10.539
49879W        W18297  30.962   2.462   4.136
49880W        W18298  26.167  37.015  12.902
49881W        W18299  16.801   8.703   2.671
49882W        W18300  21.755   2.386  12.958
49883W        W18301  24.144  18.726   0.468
49884W        W18302   1.451   3.458  13.407
49885W        W18303  42.914  24.017   4.755
49886W        W18304   0.372  32.966   4.790
49887W        W18305   1.237  42.812   3.324
49888W        W18306   8.307  23.095  13.511
49889W        W18307  11.293  33.914   2.419
49890W        W18308  33.578   1.332   1.274
49891W        W18309  43.428   1.948   4.173
49892W        W18310  15.117  23.603   4.291
49893W        W18311  23.065  36.422   4.643
49894W        W18312   5.870   2.865  11.550
49895W        W18313  39.873  23.528   4.819
49896W        W18314   4.429   1.893   1.249
49897W        W18315  13.172  22.546   2.763
49898W        W18316   6.408  28.964   2.741
49899W        W18317  27.609   1.289   2.769
49900W        W18318  26.123  31.426  12.945
49901W        W18319  30.553  36.009  12.417
49902W        W18320  16.180  36.447  14.508
49903W        W18321  13.111  32.611  12.893
49904W        W18322  37.881  35.874   5.176
49905W        W18323  41.972  29.464   1.697
49906W        W18324   1.342  42.832  11.570
49907W        W18325  37.436  16.309  13.460
49908W        W18326  36.417  12.664   1.351
49909W        W18327  19.263   2.886  12.482
49910W        W18328  20.109  23.219   3.239
49911W        W18329  43.916  36.519  14.868
49912W        W18330  41.844   0.374   2.783
49913W        W18331   7.752  24.082   3.366
49914W        W18332   6.877   5.425  11.895
49915W        W18333   2.960  17.695  14.367
49916W        W18334  21.202  31.072   1.235
49917W        W18335  37.912   3.876  12.019
49918W        W18336  42.477  33.966   0.267
49919W        W18337  27.058  30.148   3.759
49920W        W18338  37.858  40.908  13.017
49921W        W18339  27.545   4.745   4.134
49922W        W18340   0.454  23.017   9.949
49923W        W18341  33.958  19.722   1.365
49924W        W18342  26.122  24.706   0.856
49925W        W18343   2.428  33.578  12.016
49926W        W18344   6.822  19.715   2.679
49927W        W18345  12.772  43.838  13.062
49928W        W18346  41.343  35.523   1.332
49929W        W18347   4.211  33.481   3.824
49930W        W18348  37.433   2.373  14.015
49931W        W18349  40.383   1.397   3.788
49932W        W18350  29.646  19.205   2.688
49933W        W18351  37.569  37.454  10.484
49934W        W18352   1.436  40.454   3.854
49935W        W18353  25.039  35.361   1.268
49936W        W18354  17.221  15.282   0.764
49937W        W18355  25.010  37.490  11.995
49938W        W18356  37.422   6.822  11.414
49939W        W18357  39.927  32.009  12.855
49940W        W18358  25.705  28.527  11.529
49941W        W18359  44.331   7.802  11.894
49942W        W18360   3.931  19.589  12.846
49943W        W18361  37.395  14.132  11.554
49944W        W18362  25.000   8.783  11.013
49945W        W18363  13.197  38.072   0.741
49946W        W18364  21.519  33.051  10.635
49947W        W18365  34.443  14.108   2.230
49948W        W18366  12.809  25.185  14.378
49949W        W18367  20.173  16.780   2.322
49950W        W18368  17.080   5.211  12.899
49951W        W18369  13.309  40.340  11.881
49952W        W18370  40.028  33.480   2.265
49953W        W18371  42.032   2.308   3.761
49954W        W18372  21.631  44.393  12.901
49955W        W18373  12.756  21.144  14.403
49956W        W18374   0.829  31.090  11.601
49957W        W18375  23.122  21.063   3.245
49958W        W18376   6.419   7.337  13.484
49959W        W18377   9.202   8.798   5.096
49960W        W18378   3.300   6.314   2.255
49961W        W18379  21.604  24.179  13.924
49962W        W18380  28.943  30.577  12.961
49963W        W18381  37.443  21.245  10.914
49964W        W18382   3.448  33.465   2.236
49965W        W18383  42.290  12.752  10.550
49966W        W18384   8.380  18.075   3.191
49967W        W18385  38.872  37.832   3.785
49968W        W18386  40.508  43.338   1.352
49969W        W18387   9.322  15.661  13.372
49970W        W18388   5.798   0.891   0.770
49971W        W18389  31.577  41.864  11.448
49972W        W18390   1.748   1.386   4.768
49973W        W18391   0.318  25.077   1.795
49974W        W18392  26.111  30.570  13.320
49975W        W18393   4.326   5.760  11.451
49976W        W18394  36.923  40.439  14.429
49977W        W18395  24.691  23.594   4.612
49978W        W18396  19.072  26.607  13.046
49979W        W18397  30.430  21.524   1.874
49980W        W18398  35.597  28.669  13.980
49981W        W18399  23.167  12.261   0.356
49982W        W18400  14.629   1.876  12.445
49983W        W18401  12.234  38.032  10.511
49984W        W18402  17.754   4.820  10.599
49985W        W18403  19.711  11.707   9.525
49986W        W18404  23.716   7.706  13.016
49987W        W18405  35.554  13.155  12.001
49988W        W18406  40.384   6.864   1.718
49989W        W18407  31.985  23.617  10.089
49990W        W18408   3.454  42.495   2.368
49991W        W18409  19.063  43.950  13.829
49992W        W18410  11.178   5.880  13.849
49993W        W18411  44.433  13.676   1.244
49994W        W18412   7.889  25.470   1.371
49995W        W18413  11.813   0.389   1.244
49996W        W18414   0.414  39.317   1.247
49997W        W18415   2.473  28.645   4.159
49998W        W18416   4.746  39.876  13.509
49999W        W18417  40.454   4.257   2.385
50000W        W18418  30.444  40.985  13.414
50001W        W18419  36.350  43.914   4.835
50002W        W18420   2.417  29.575  11.513
50003W        W18421  20.208  26.657   1.696
50004W        W18422  27.592  35.601   1.425
50005W        W18423   6.686  38.059   1.271
50006W        W18424  16.113  31.986   0.788
50007W        W18425   3.370  20.685  11.896
50008W        W18426  36.949  31.037   2.759
50009W        W18427  33.050  33.115   1.818
50010W        W18428  44.830  10.307  13.006
50011W        W18429  33.470  32.911   2.686
50012W        W18430  34.082  44.463   0.920
50013W        W18431  28.031  12.165  10.072
50014W        W18432  44.949  22.103  13.997
50015W        W18433   4.386  43.861   0.263
50016W        W18434   7.252  34.951   1.838
50017W        W18435  34.612  34.038   2.685
50018W        W18436  15.605  10.725   3.699
50019W        W18437   6.698  15.750   3.828
50020W        W18438  42.503   7.839  10.953
50021W        W18439  22.009   2.320  11.587
50022W        W18440  34.558  10.182   0.333
50023W        W18441  19.628  35.404  14.026
50024W        W18442  41.972  10.329  10.596
50025W        W18443   5.897  29.095  13.518
50026W        W18444   0.341  14.823  11.376
50027W        W18445  23.107  29.580  13.512
50028W        W18446  13.679  35.603  14.514
50029W        W18447  38.031  25.665  10.644
50030W        W18448  40.935   3.926   4.740
50031W        W18449  44.989   6.832  12.965
50032W        W18450  14.265   4.909   4.724
50033W        W18451  29.968  12.270  11.890
50034W        W18452  42.868  16.267   0.321
50035W        W18453  44.391  31.928   1.438
50036W        W18454  27.453  38.032  14.467
50037W        W18455  24.582  27.978   2.775
50038W        W18456  22.181  30.119   2.876
50039W        W18457   0.349  42.854   2.762
50040W        W18458  11.316  33.972  14.452
50041W        W18459   6.776   0.825   1.872
50042W        W18460   9.279  12.182  10.919
50043W        W18461  11.283  36.518  13.987
50044W        W18462  21.188  35.972  12.565
50045W        W18463  16.652  33.928  13.528
50046W        W18464  35.490   2.260  14.844
50047W        W18465  13.194  41.429  12.003
50048W        W18466  19.193  31.975  12.406
50049W        W18467  39.816  18.221  14.831
50050W        W18468  32.463   2.413  12.017
50051W        W18469   4.245   9.325  12.939
50052W        W18470   1.777  23.136   9.582
50053W        W18471  29.058   4.809   3.690
50054W        W18472  15.604  16.703   2.373
50055W        W18473  22.180  12.335  13.490
50056W        W18474  24.055   3.440  10.537
50057W        W18475  35.997  38.872  10.428
50058W        W18476   4.903  24.617   0.863
50059W        W18477  40.967   0.744  11.007
50060W        W18478  31.476  44.445  11.862
50061W        W18479  33.455   5.416  14.370
50062W        W18480  28.551  41.825   1.872
50063W        W18481   7.272   9.186   4.769
50064W        W18482  42.339  41.838   4.158
50065W        W18483  35.519   0.452   1.337
50066W        W18484  23.060   4.384  14.900
50067W        W18485   9.839  36.365  11.948
50068W        W18486  14.799  40.045  13.794
50069W        W18487   4.430   0.391   0.391
50070W        W18488  31.563   6.277   2.670
50071W        W18489  28.614  18.641   1.918
50072W        W18490  25.067  34.411   0.904
50073W        W18491  44.326   9.680   4.774
50074W        W18492  27.527  14.165   2.844
50075W        W18493  40.509  27.107  14.024
50076W        W18494  24.124  21.624   1.316
50077W        W18495  19.601   5.760  10.545
50078W        W18496   0.884   4.257   2.308
50079W        W18497  14.297  37.961  14.472
50080W        W18498  11.305  34.992   2.212
50081W        W18499   6.188  37.535   1.384
50082W        W18500   6.405   3.921  10.439
50083W        W18501  11.158  25.061  11.401
50084W        W18502  11.219   2.928  12.946
50085W        W18503  26.580  16.239  12.850
50086W        W18504  20.162  37.845   3.646
50087W        W18505  41.357   8.195   0.784
50088W        W18506  44.265  35.049   2.699
50089W        W18507  14.823  39.456  11.082
50090W        W18508   5.744   1.923   1.386
50091W        W18509  33.501  30.513  11.985
50092W        W18510  42.455  38.069  11.526
50093W        W18511  34.922  28.157  13.928
50094W        W18512  36.446  34.429   0.333
50095W        W18513  15.234   5.714  10.995
50096W        W18514  38.524  21.664  14.449
50097W        W18515   4.213  31.057   4.296
50098W        W18516  35.546   8.761  11.871
50099W        W18517   3.357   9.226  12.373
50100W        W18518  18.675  38.866  10.095
50101W        W18519   8.843  36.059   2.800
50102W        W18520  27.145  11.682  13.313
50103W        W18521  20.126  20.550  12.077
50104W        W18522   5.742  23.989   3.859
50105W        W18523  43.341  39.353  11.104
50106W        W18524  14.324  39.894  14.983
50107W        W18525  12.127  22.510  10.615
50108W        W18526  41.343  23.183   2.183
50109W        W18527  40.368  33.124   1.761
50110W        W18528  11.358   6.268  11.110
50111W        W18529   8.774  32.597   1.289
50112W        W18530  14.607  18.072  11.913
50113W        W18531  32.937  33.875   4.605
50114W        W18532  40.797  16.579   4.756
50115W        W18533   0.332  15.590   0.334
50116W        W18534  10.813  34.540  12.835
50117W        W18535  39.360  32.012   1.448
50118W        W18536   8.814  34.036  11.562
50119W        W18537  16.771   7.880   1.827
50120W        W18538   7.830   3.803   0.297
50121W        W18539   4.855  37.922   2.419
50122W        W18540  16.185   5.687   4.125
50123W        W18541   3.726  13.229   0.259
50124W        W18542  33.937  15.765   1.882
50125W        W18543  23.527  10.191  11.902
50126W        W18544  13.263  41.940  11.611
50127W        W18545  18.770   4.942   3.317
50128W        W18546   3.846   7.314   2.757
50129W        W18547  41.947  24.542  11.889
50130W        W18548  19.102  23.012  14.472
50131W        W18549  16.299  44.963   4.726
50132W        W18550   8.690  29.059   0.891
50133W        W18551   6.353   0.807   5.148
50134W        W18552   2.939  34.943   4.667
50135W        W18553  24.544  41.927  12.493
50136W        W18554   6.183  43.005  10.987
50137W        W18555  10.843  21.147  11.587
50138W        W18556  34.087  27.598  14.498
50139W        W18557  33.444  26.202   3.751
50140W        W18558  18.286  31.058  10.999
50141W        W18559  35.981  43.434  13.028
50142W        W18560  28.088   2.808  11.012
50143W        W18561  19.246   9.251  12.427
50144W        W18562  18.548  38.053   3.300
50145W        W18563  19.246   7.317  13.994
50146W        W18564   4.733  25.970  11.046
50147W        W18565   8.674  27.690  13.456
50148W        W18566  25.074   1.472  12.903
50149W        W18567  14.798   8.379  10.487
50150W        W18568  43.012  37.889   5.202
50151W        W18569   1.441  14.666  11.898
50152W        W18570  24.200  42.967  12.888
50153W        W18571  17.189   1.877  13.800
50154W        W18572  26.527  41.009  12.489
50155W        W18573  10.781  10.313  10.938
50156W        W18574  40.458   8.290   1.310
50157W        W18575  17.650  18.063   2.184
50158W        W18576  20.590  30.501   3.169
50159W        W18577  33.918  36.899   3.825
50160W        W18578   8.264  36.488  12.381
50161W        W18579   3.455  38.995   4.322
50162W        W18580  38.930  27.136  14.292
50163W        W18581  31.472  39.436   2.217
50164W        W18582  28.130   8.281  13.478
50165W        W18583  26.144  35.887   3.203
50166W        W18584  22.706  33.982   0.442
50167W        W18585   8.860  15.325   3.796
50168W        W18586  38.498  35.474   0.316
50169W        W18587  22.051   7.832   2.730
50170W        W18588   5.388   0.979  11.591
50171W        W18589  26.613  34.986  14.955
50172W        W18590  33.090  23.697   2.839
50173W        W18591  43.876  34.544  13.036
50174W        W18592  31.505  13.761   2.281
50175W        W18593  33.447  11.324   3.653
50176W        W18594  35.963  31.023  12.354
50177W        W18595   8.663  10.169   3.777
50178W        W18596  15.708  16.315  13.503
50179W        W18597   1.902  17.631  11.856
50180W        W18598  43.863  30.091   1.928
50181W        W18599  33.525  43.957  11.077
50182W        W18600  29.446  39.035   5.317
50183W        W18601  24.144  42.019  14.408
50184W        W18602  43.499   3.943   1.443
50185W        W18603  31.058  23.145  13.981
50186W        W18604  19.267  36.562   4.167
50187W        W18605   8.658  40.915   3.367
50188W        W18606  37.062   7.193  10.986
50189W        W18607  10.364   6.387  11.406
50190W        W18608   7.256  20.562   1.240
50191W        W18609  44.926   2.841   1.369
50192W        W18610  44.349   2.246  11.482
50193W        W18611   6.830  10.823   0.739
50194W        W18612   2.425  18.067   0.312
50195W        W18613  12.353  11.803  14.772
50196W        W18614   5.407  34.477   1.391
50197W        W18615  37.423  15.750  12.044
50198W        W18616  36.896  24.664  12.510
50199W        W18617   8.890   5.232  11.087
50200W        W18618  13.285  11.753  13.001
50201W        W18619  42.925  27.971  13.429
50202W        W18620   6.835  36.422   2.408
50203W        W18621  42.002  40.971   2.705
50204W        W18622  24.583  29.124   3.229
50205W        W18623  27.085  23.096   3.691
50206W        W18624  36.993   1.311   3.376
50207W        W18625  11.226  39.036   3.354
50208W        W18626  29.158   7.879   3.237
50209W        W18627  12.314  11.189  11.487
50210W        W18628  40.801  16.241  11.985
50211W        W18629  34.593  13.137  13.918
50212W        W18630  16.142  39.880  10.582
50213W        W18631   1.951   5.281  14.440
50214W        W18632   0.401  24.151   0.891
50215W        W18633  41.511  14.654  12.050
50216W        W18634  20.037  14.221  12.013
50217W        W18635   1.939  38.993  14.032
50218W        W18636   3.407   2.940  10.612
50219W        W18637  22.076   0.862  11.123
50220W        W18638  13.778  43.338  13.468
50221W        W18639  11.175  10.868   0.845
50222W        W18640   7.255  10.839   4.348
50223W        W18641  29.601  41.504   1.448
50224W        W18642   0.883  14.748  13.425
50225W        W18643  30.566  24.537  11.102
50226W        W18644  11.781  24.507   0.763
50227W        W18645  37.372  38.931  13.811
50228W        W18646  27.453  12.742  10.949
50229W        W18647  43.958   4.235  10.903
50230W        W18648  30.629  13.275  13.811
50231W        W18649  25.216  36.905   0.328
50232W        W18650  41.994  24.177  10.966
50233W        W18651  16.642  39.515  13.940
50234W        W18652   5.711  40.897   1.922
50235W        W18653  41.886  23.071   4.196
50236W        W18654  24.159  28.451   3.749
50237W        W18655  27.673  27.610  12.996
50238W        W18656  44.891  27.563   2.841
50239W        W18657  33.476  26.956  14.407
50240W        W18658  19.067  25.655   0.338
50241W        W18659  10.690   1.945  13.381
50242W        W18660  30.617  38.404   3.154
50243W        W18661  30.471  35.395  11.385
50244W        W18662  18.738  32.120   1.714
50245W        W18663  32.414   7.353  11.001
50246W        W18664  41.880  28.595  13.950
50247W        W18665  38.032  37.364   3.202
50248W        W18666  31.625  38.501   2.279
50249W        W18667  20.723  44.881  14.322
50250W        W18668  35.486  23.052  14.426
50251W        W18669  23.209   2.229   4.772
50252W        W18670  29.454   1.813   2.760
50253W        W18671  34.902  22.520   9.955
50254W        W18672  15.627  25.643   0.255
50255W        W18673  19.285  14.816   3.853
50256W        W18674  27.631  28.022  14.771
50257W        W18675  15.672   6.418   2.892
50258W        W18676  20.062  29.172  13.453
50259W        W18677  30.481  39.825   4.318
50260W        W18678  40.501   9.285   4.207
50261W        W18679  33.121  37.501  13.823
50262W        W18680  25.068  29.616   4.657
50263W        W18681  26.096  28.596  14.283
50264W        W18682  37.994   2.290  11.527
50265W        W18683  33.400  19.125   0.395
50266W        W18684  41.914  18.056  14.405
50267W        W18685  44.370  20.706   4.217
50268W        W18686   7.335  18.076   1.787
50269W        W18687  28.536  12.837  11.604
50270W        W18688  38.425   0.760  14.482
50271W        W18689  30.010  18.733  13.954
50272W        W18690  28.022  29.942   4.288
50273W        W18691  34.921  26.048  12.914
50274W        W18692  42.940   5.765  12.867
50275W        W18693  29.084  20.740  11.051
50276W        W18694   4.748   4.308  14.928
50277W        W18695  20.117  26.971   0.947
50278W        W18696  31.544  39.488  11.129
50279W        W18697  42.017  43.008  13.409
50280W        W18698   6.872  13.230   2.748
50281W        W18699   0.466  11.661   4.730
50282W        W18700  17.117   2.340   4.236
50283W        W18701   9.652  29.933  10.541
50284W        W18702  16.761  38.823  12.962
50285W        W18703  40.932  42.420  11.028
50286W        W18704   2.410  27.018   2.842
50287W        W18705  35.422  42.942   1.744
50288W        W18706  35.534  31.626   0.431
50289W        W18707  21.515  15.760   0.768
50290W        W18708  13.735  26.609   0.936
50291W        W18709   5.710  15.310  10.601
50292W        W18710  15.290  34.416  14.825
50293W        W18711  38.356   7.346  11.464
50294W        W18712  37.837  13.351   0.841
50295W        W18713  17.084  14.139  10.060
50296W        W18714  20.211  22.568   0.297
50297W        W18715  40.049  31.107   2.217
50298W        W18716   3.747  36.492   3.647
50299W        W18717   3.889  36.870  11.093
50300W        W18718   0.801  36.549  14.484
50301W        W18719  34.062   6.778   0.347
50302W        W18720   0.749  27.585  12.497
50303W        W18721  29.552  15.103   4.776
50304W        W18722  16.290   7.398  14.919
50305W        W18723  21.197  31.929   5.197
50306W        W18724   8.273  39.029   4.621
50307W        W18725   5.885  42.284  11.988
50308W        W18726  15.704   9.194   0.295
50309W        W18727  19.197  21.206   0.467
50310W        W18728  15.319  13.788  10.597
50311W        W18729  39.319   2.943   4.762
50312W        W18730   0.408  30.417  10.919
50313W        W18731  25.208  10.276   3.794
50314W        W18732  32.407  27.499   1.335
50315W        W18733   8.231  27.489  14.814
50316W        W18734  29.171  34.499  12.906
50317W        W18735  35.418  23.707  11.518
50318W        W18736   8.725   5.245   4.710
50319W        W18737   0.812  18.148   2.178
50320W        W18738  37.005  29.043  12.868
50321W        W18739  37.065  22.507  13.925
50322W        W18740   5.320   9.259  10.532
50323W        W18741   6.294  34.105   2.818
50324W        W18742  24.508  36.040   0.964
50325W        W18743  27.536   3.754   3.761
50326W        W18744  30.106  37.009   0.823
50327W        W18745  36.544   6.190   1.745
50328W        W18746   9.162   8.820   1.363
50329W        W18747  42.827  38.032  14.444
50330W        W18748  26.532  41.525  10.057
50331W        W18749  27.588  42.289  12.432
50332W        W18750  39.057  31.564   0.333
50333W        W18751  30.039  36.488   0.376
50334W        W18752  14.610  24.137  10.532
50335W        W18753   5.798  43.316   3.781
50336W        W18754  18.781  23.229   2.783
50337W        W18755  26.105  30.984   0.305
50338W        W18756  39.315  27.991  14.030
50339W        W18757  22.228  31.633   3.709
50340W        W18758  28.959   5.311   3.360
50341W        W18759   0.987  15.224  14.977
50342W        W18760  12.139   5.710   0.774
50343W        W18761  29.606  24.205  10.407
50344W        W18762  43.822  20.617   0.830
50345W        W18763  26.533  39.354   4.666
50346W        W18764   7.359  33.971   2.818
50347W        W18765  41.476   0.972  14.287
50348W        W18766  39.382  19.722   2.818
50349W        W18767   5.820  34.055  11.984
50350W        W18768   4.267  17.643  12.835
50351W        W18769  37.544  30.503  11.504
50352W        W18770  13.348  20.129  14.406
50353W        W18771  15.756   6.762   0.824
50354W        W18772   5.341  38.458   0.256
50355W        W18773   8.863  27.102   3.816
50356W        W18774   5.397   3.856   1.379
50357W        W18775   5.732  19.774   1.764
50358W        W18776  13.815  16.159  14.007
50359W        W18777  27.472  19.713  11.063
50360W        W18778   8.791  20.148  11.528
50361W        W18779   6.302   6.916   0.963
50362W        W18780  18.616  38.074  11.460
50363W        W18781  12.648   7.836   0.305
50364W        W18782  42.788  27.575   2.272
50365W        W18783  23.154  35.097  13.546
50366W        W18784  13.329   4.233   0.730
50367W        W18785  31.592  21.086   2.390
50368W        W18786  18.596  41.380   3.860
50369W        W18787  29.158  42.808  11.381
50370W        W18788  37.571  13.220  14.856
50371W        W18789  35.896  10.843   3.358
50372W        W18790  43.309  34.416  10.540
50373W        W18791  36.934  42.311  11.601
50374W        W18792  27.988  21.512  12.340
50375W        W18793   5.436  36.374  11.970
50376W        W18794  36.463   9.881  14.342
50377W        W18795  16.676  39.975   2.205
50378W        W18796  21.146   6.322  12.943
50379W        W18797  22.566  39.826  11.569
50380W        W18798  28.660  19.281  10.630
50381W        W18799  15.691  18.276   0.811
50382W        W18800   9.217  41.469   1.714
50383W        W18801  29.643  27.147  13.836
50384W        W18802  44.970  21.139   2.885
50385W        W18803  42.820  38.352   5.159
50386W        W18804  21.702   1.900   0.388
50387W        W18805  16.106   2.776   4.815
50388W        W18806  22.580  17.770  12.480
50389W        W18807   7.336  29.054  11.995
50390W        W18808  26.023  40.331  10.964
50391W        W18809  37.453  44.003   1.354
50392W        W18810  19.661  21.523   5.165
50393W        W18811  29.016  32.107  10.413
50394W        W18812  44.764  21.537  14.817
50395W        W18813  17.067   2.785   3.867
50396W        W18814  40.815  42.815  12.005
50397W        W18815  18.758   6.385   4.695
50398W        W18816   5.856  17.100   0.959
50399W        W18817  25.671  25.172  14.294
50400W        W18818  22.242   8.778   2.244
50401W        W18819   6.322  40.023   4.724
50402W        W18820  13.224   6.403  14.471
50403W        W18821  30.541  28.489   3.211
50404W        W18822  39.461   0.346   1.823
50405W        W18823  20.659  43.838   4.179
50406W        W18824  19.132  40.938   2.744
50407W        W18825  34.931  16.087   1.421
50408W        W18826   2.455  27.116   1.723
50409W        W18827   9.669  16.628   4.770
50410W        W18828  22.702   5.386  10.519
50411W        W18829  13.194  22.603  10.428
50412W        W18830  37.479  23.166   0.339
50413W        W18831  10.760  24.637   1.405
50414W        W18832   2.258   0.394  10.014
50415W        W18833  15.176  38.920   1.249
50416W        W18834  18.278  13.739  13.482
50417W        W18835  24.491   5.828   3.325
50418W        W18836  28.604  36.976  13.950
50419W        W18837   0.807   9.318   4.349
50420W        W18838  14.318  29.953  13.466
50421W        W18839  20.030  25.086  13.484
50422W        W18840  39.420  19.589  11.965
50423W        W18841  36.918  42.894  11.462
50424W        W18842  27.112  30.654   1.826
50425W        W18843  38.892   0.432   0.360
50426W        W18844  38.495  22.065   4.311
50427W        W18845  17.187  24.564  12.489
50428W        W18846   5.926  44.994   2.895
50429W        W18847   9.777  23.571   2.690
50430W        W18848  39.474  24.052  11.861
50431W        W18849  38.873  33.442   4.795
50432W        W18850  25.598  10.702  13.046
50433W        W18851  17.107  44.994  13.358
50434W        W18852  23.565  14.824  14.830
50435W        W18853   5.222   7.357   0.456
50436W        W18854  17.226  18.785  10.016
50437W        W18855  14.339  21.235   0.960
50438W        W18856  22.079  12.857   0.464
50439W        W18857  11.657  39.499  10.605
50440W        W18858   1.883  24.076   3.716
50441W        W18859  20.639  27.114  13.915
50442W        W18860  32.453  11.177   3.720
50443W        W18861  15.093  10.191   2.356
50444W        W18862   3.888  24.026  14.759
50445W        W18863  23.535  16.101  13.337
50446W        W18864  13.253  33.908   4.628
50447W        W18865  14.145  33.393  13.793
50448W        W18866   6.695   8.707   1.327
50449W        W18867  25.969   7.704   4.615
50450W        W18868  44.461  14.591   0.808
50451W        W18869  34.893  27.115  13.916
50452W        W18870  31.583  32.579   1.287
50453W        W18871  34.013  12.346   3.701
50454W        W18872  18.718  41.518  13.975
50455W        W18873   0.402  36.037  10.498
50456W        W18874  35.037  43.969   3.649
50457W        W18875  26.601  35.955  14.513
50458W        W18876  30.934   2.942  13.990
50459W        W18877  34.070  43.406   0.386
50460W        W18878   1.794  36.502  13.947
50461W        W18879  42.939  34.993  11.917
50462W        W18880   0.849  12.827   1.360
50463W        W18881  31.906  13.157   1.373
50464W        W18882  44.381  31.061  13.384
50465W        W18883  22.571  16.252   2.814
50466W        W18884  39.409  23.984   4.655
50467W        W18885  35.414   8.784  13.412
50468W        W18886  37.033  41.496   2.839
50469W        W18887  18.620  32.937   4.265
50470W        W18888   3.906   8.301   2.735
50471W        W18889  28.466  42.010   0.284
50472W        W18890  21.244   5.423   1.424
50473W        W18891  28.024   0.971   5.108
50474W        W18892  31.990  25.562  14.489
50475W        W18893  42.346  20.167   0.461
50476W        W18894  23.014   0.978  13.516
50477W        W18895   3.372  12.823  14.915
50478W        W18896  32.492  19.072   3.796
50479W        W18897   6.888  24.144  11.422
50480W        W18898   9.736  16.291   3.267
50481W        W18899  24.490  23.517   0.438
50482W        W18900  36.059  39.347  12.070
50483W        W18901  38.452  26.686   2.779
50484W        W18902  32.101   3.812  13.839
50485W        W18903  11.711  30.094   4.272
50486W        W18904  20.762  24.487  14.947
50487W        W18905  35.044  24.041  11.104
50488W        W18906   9.822  15.202   2.821
50489W        W18907  40.821  10.352  11.861
50490W        W18908  44.981  29.498  13.835
50491W        W18909   5.806  40.958  14.496
50492W        W18910  18.685  17.300   3.379
50493W        W18911  42.328  36.506  11.000
50494W        W18912  21.177  28.494  13.396
50495W        W18913  24.180  15.802  11.013
50496W        W18914  23.144   8.368  10.525
50497W        W18915   9.704   1.945   2.795
50498W        W18916  37.852   8.876   2.382
50499W        W18917  13.620  13.768   2.679
50500W        W18918  11.864  24.637   1.779
50501W        W18919   8.346  20.126  12.039
50502W        W18920  40.910   0.890  13.532
50503W        W18921  35.000  30.962   2.199
50504W        W18922  16.221  16.259   0.908
50505W        W18923  38.996  34.078   3.801
50506W        W18924  14.635  40.909  11.890
50507W        W18925   8.842  23.496   0.861
50508W        W18926   4.383  38.405  11.976
50509W        W18927  24.996  19.603  12.341
50510W        W18928  32.465  17.692   0.301
50511W        W18929  37.520  43.021  12.413
50512W        W18930  28.657  38.506  14.893
50513W        W18931  12.264  15.175  11.082
50514W        W18932   7.739  18.698  10.539
50515W        W18933   4.417  26.696  14.328
50516W        W18934  18.756  26.185  13.414
50517W        W18935  26.990  27.162   1.764
50518W        W18936  35.384  39.993   2.349
50519W        W18937  10.846  20.193   0.431
50520W        W18938  37.076  43.768  14.471
50521W        W18939  43.417  27.158  11.557
50522W        W18940  10.716  20.647   4.282
50523W        W18941  36.097   2.266   2.277
50524W        W18942  38.835   7.835   0.833
50525W        W18943  18.630  39.426   2.199
50526W        W18944   2.342  42.955   1.230
50527W        W18945  24.591  11.234  11.583
50528W        W18946  14.787  21.154  13.985
50529W        W18947   4.867  14.275  14.931
50530W        W18948  14.339   6.287  12.985
50531W        W18949  22.180  23.736   0.463
50532W        W18950  31.956  34.471   0.448
50533W        W18951  14.612  19.671   0.327
50534W        W18952   2.822  36.877   2.232
50535W        W18953  38.414  42.965   4.351
50536W        W18954  40.876  13.309   3.644
50537W        W18955  36.042  26.192  10.437
50538W        W18956  36.499  35.875  13.009
50539W        W18957  11.855   4.392  13.533
50540W        W18958  14.127  20.559  14.281
50541W        W18959  13.316   8.877   3.177
50542W        W18960   4.384  34.985  11.888
50543W        W18961  35.500  14.335   0.895
50544W        W18962  37.414  26.178  11.425
50545W        W18963  37.569  23.009  13.952
50546W        W18964  25.967  39.972  12.947
50547W        W18965  18.120  12.124  14.965
50548W        W18966  28.573  26.669   1.435
50549W        W18967  38.515  10.705  12.094
50550W        W18968   0.323   6.750   4.173
50551W        W18969   0.374  17.778   3.185
50552W        W18970  21.235  38.415   3.346
50553W        W18971  29.620   6.721   2.700
50554W        W18972  20.163  33.990  13.408
50555W        W18973   6.769  22.508  13.547
50556W        W18974  15.590  44.995  13.338
50557W        W18975   5.268  24.974   2.773
50558W        W18976  37.482  12.770   3.707
50559W        W18977   4.446  24.601   4.137
50560W        W18978  12.810  43.306  13.876
50561W        W18979  41.949  39.436   4.652
50562W        W18980  27.015  21.256   2.327
50563W        W18981  19.222  26.962   2.363
50564W        W18982  30.005  27.510   2.273
50565W        W18983  16.300  34.523  10.451
50566W        W18984  37.033  17.627   4.741
50567W        W18985  19.086  37.364   1.294
50568W        W18986  24.006  34.381   0.821
50569W        W18987   7.761  40.314  14.349
50570W        W18988  20.599   8.807   1.269
50571W        W18989  28.003   6.339  12.372
50572W        W18990  12.289  39.995  13.060
50573W        W18991  11.751  12.330  10.073
50574W        W18992   4.363  23.536  14.894
50575W        W18993  42.484  42.850  14.855
50576W        W18994  18.762  13.626   3.851
50577W        W18995  40.014   8.386  11.473
50578W        W18996  19.676  24.176  13.351
50579W        W18997  35.412  32.067  12.501
50580W        W18998  17.204  44.433  10.609
50581W        W18999   3.380  44.398   1.795
50582W        W19000  14.266  12.793   3.373
50583W        W19001  28.644  25.015  14.970
50584W        W19002  26.502  38.036  14.396
50585W        W19003  39.536   0.910   2.242
50586W        W19004  20.710   1.798  13.841
50587W        W19005  44.856  34.485   0.250
50588W        W19006   8.767  31.417   3.700
50589W        W19007   6.821  34.480   3.321
50590W        W19008  37.537  27.979   3.680
50591W        W19009  22.603  25.999  12.842
50592W        W19010  26.510  44.339   1.357
50593W        W19011   6.816  19.602  13.925
50594W        W19012  17.135  26.580  14.996
50595W        W19013  20.037  16.634   3.154
50596W        W19014  30.032  36.056  11.025
50597W        W19015  24.628  41.398   2.364
50598W        W19016   9.865   6.259  11.544
50599W        W19017  13.235   8.880   5.134
50600W        W19018  13.742  14.333   2.261
50601W        W19019  42.860  40.805   5.745
50602W        W19020  13.340   1.442  12.040
50603W        W19021  43.279  16.812  12.452
50604W        W19022   6.845  24.538   1.778
50605W        W19023  14.235  23.149   4.607
50606W        W19024  11.191  28.964   4.815
50607W        W19025  31.529  19.238  14.808
50608W        W19026  17.768  12.707  14.010
50609W        W19027  20.621   5.918  12.567
50610W        W19028  28.436  24.521  14.807
50611W        W19029  38.058  39.510  12.511
50612W        W19030  26.964  34.962   3.773
50613W        W19031  29.115   9.228  14.937
50614W        W19032  31.034  32.994   2.219
50615W        W19033  44.894  21.658  12.988
50616W        W19034  38.052  18.156  14.332
50617W        W19035   9.244   0.901  11.544
50618W        W19036  10.256  15.605  13.927
50619W        W19037  27.520   1.953   0.756
50620W        W19038  35.972   1.241   4.279
50621W        W19039  32.070  19.592  10.016
50622W        W19040   8.300  35.519  12.565
50623W        W19041  41.360  14.314  10.504
50624W        W19042  22.229  36.505  11.452
50625W        W19043   2.924  36.448  14.514
50626W        W19044  14.731   1.848  13.977
50627W        W19045  16.251  42.503  13.984
50628W        W19046   1.733  20.137  11.601
50629W        W19047   2.231  24.618  13.816
50630W        W19048  31.898  15.671   1.736
50631W        W19049   2.854  14.251   4.138
50632W        W19050   6.298  31.146  14.959
50633W        W19051  37.046  35.038   2.284
50634W        W19052   1.254  25.963   3.290
50635W        W19053  29.625  21.044   4.124
50636W        W19054  41.804  29.946  11.054
50637W        W19055  37.491  44.288  14.912
50638W        W19056  22.088  40.046   0.348
50639W        W19057  20.133  18.083  11.902
50640W        W19058  10.680  33.921   0.766
50641W        W19059  28.164  30.632  12.962
50642W        W19060  23.545  32.448   0.418
50643W        W19061   3.235  34.075  11.081
50644W        W19062  13.813  44.440  11.565
50645W        W19063  20.060  36.915   3.730
50646W        W19064  30.000   2.744   4.202
50647W        W19065  11.306  34.907   0.900
50648W        W19066  36.898   0.869  12.424
50649W        W19067  26.474  40.874   2.394
50650W        W19068  24.697  34.879  12.992
50651W        W19069  24.481  27.572  12.015
50652W        W19070  37.988  12.719   2.780
50653W        W19071  37.891   0.478   1.909
50654W        W19072  32.008  24.218   3.217
50655W        W19073  12.692  42.363  14.488
50656W        W19074  39.991  14.667  13.473
50657W        W19075  41.484  18.144   0.350
50658W        W19076  10.704  32.999   4.807
50659W        W19077  39.442  33.420   2.305
50660W        W19078   1.285   7.816   3.846
50661W        W19079  10.212  27.093  13.502
50662W        W19080   6.375  44.967  12.373
50663W        W19081   3.931  33.531   2.215
50664W        W19082  24.150  32.898   3.695
50665W        W19083  23.731  27.179   1.767
50666W        W19084  31.445  43.495  14.296
50667W        W19085  33.879  44.438   2.333
50668W        W19086  36.864   9.850  12.923
50669W        W19087  39.931  14.604  12.380
50670W        W19088   1.369  22.532   0.910
50671W        W19089  12.362  36.082  11.582
50672W        W19090   1.843  24.136  14.019
50673W        W19091  14.186  11.288   0.279
50674W        W19092  25.038  29.921   3.784
50675W        W19093  24.482  18.712  11.098
50676W        W19094  39.338  27.969  14.942
50677W        W19095   1.478  25.668   2.851
50678W        W19096   0.956   5.202  13.380
50679W        W19097  10.320   3.285   5.086
50680W        W19098   7.215  31.610  10.905
50681W        W19099   0.831  14.244  14.824
50682W        W19100   6.850  33.562  11.115
50683W        W19101  18.072  36.944  11.030
50684W        W19102  42.485   5.822   4.321
50685W        W19103   7.249  26.064   0.864
50686W        W19104  31.406   2.722   0.417
50687W        W19105   6.350   2.464  12.059
50688W        W19106  31.517   6.278  14.873
50689W        W19107   4.299  16.693  12.349
50690W        W19108   8.224  35.547  12.949
50691W        W19109  34.419  30.459   1.756
50692W        W19110   5.311  31.513  11.036
50693W        W19111  42.798  32.104   4.696
50694W        W19112  11.686  40.391   0.740
50695W        W19113  43.900  21.147  14.824
50696W        W19114  16.213  44.992  12.966
50697W        W19115  27.665   0.271  10.568
50698W        W19116  33.896  13.210   3.352
50699W        W19117   3.418  17.076  13.318
50700W        W19118  32.412  31.955  12.841
50701W        W19119  39.519   6.875   1.773
50702W        W19120   3.442  17.196   3.146
50703W        W19121  21.038  20.643   1.761
50704W        W19122  37.384  13.821  11.982
50705W        W19123  18.633  23.508  12.497
50706W        W19124   0.865  22.237  12.355
50707W        W19125   0.854  17.276  12.452
50708W        W19126   2.873  32.409  10.482
50709W        W19127   7.753  31.410   1.929
50710W        W19128  44.916  19.280   3.340
50711W        W19129  38.437  32.101  10.147
50712W        W19130  25.101  40.836   2.858
50713W        W19131  13.650  14.310  13.531
50714W        W19132  30.509  43.969   1.302
50715W        W19133  22.698  31.151   3.298
50716W        W19134  35.872  24.628  10.563
50717W        W19135  14.653  39.504  14.476
50718W        W19136  22.147  33.589   1.929
50719W        W19137  26.139  35.595  13.361
50720W        W19138  25.984  26.049  12.558
50721W        W19139   6.304  38.027  12.082
50722W        W19140  42.337  24.685  12.911
50723W        W19141  41.823  27.565   0.244
50724W        W19142  31.041   9.202  12.895
50725W        W19143  13.801  26.537   4.293
50726W        W19144  34.023  32.595   4.609
50727W        W19145  43.482  41.532   9.645
50728W        W19146  44.754  19.082  13.448
50729W        W19147   8.778  16.149  11.074
50730W        W19148   4.281  37.516   4.836
50731W        W19149   4.313  42.869   1.697
50732W        W19150  34.393  23.589  13.801
50733W        W19151  19.077   4.234  12.341
50734W        W19152  43.791  43.835  14.914
50735W        W19153  42.911  36.421  12.439
50736W        W19154  15.606   7.895  10.642
50737W        W19155  41.798  43.819  12.910
50738W        W19156  12.782  39.322  14.019
50739W        W19157  29.172   9.644  12.889
50740W        W19158  41.312  19.189  12.904
50741W        W19159  25.589  14.242  11.553
50742W        W19160  17.067  10.635   2.801
50743W        W19161   7.193  31.628   0.278
50744W        W19162  11.293   9.757   4.135
50745W        W19163   7.387  18.658  14.893
50746W        W19164  25.962  44.906  12.898
50747W        W19165  29.555  33.532  10.909
50748W        W19166  25.567  13.710   3.201
50749W        W19167  15.629  24.028   0.833
50750W        W19168   7.360  28.600   2.390
50751W        W19169  37.981  22.251  12.884
50752W        W19170  34.940  21.729   0.465
50753W        W19171  26.541  30.033  10.621
50754W        W19172   5.311  15.635   4.261
50755W        W19173  20.539  23.182  11.129
50756W        W19174  18.092   0.922   1.408
50757W        W19175   0.961  15.168  11.594
50758W        W19176   2.332  33.067   1.213
50759W        W19177  22.588  29.644   3.301
50760W        W19178  14.169  41.975  10.960
50761W        W19179   2.876  15.106   0.742
50762W        W19180  34.459  41.024  13.054
50763W        W19181  14.740  36.529  12.953
50764W        W19182  34.984  28.435   0.770
50765W        W19183  22.219  18.088  13.922
50766W        W19184  21.157  16.620   4.161
50767W        W19185  26.143  15.616  11.591
50768W        W19186  31.455  32.001  14.369
50769W        W19187  20.708  35.868   1.424
50770W        W19188  30.036  13.343  13.969
50771W        W19189   4.206  10.837   4.682
50772W        W19190  28.078  12.122   1.406
50773W        W19191   6.810   0.904  10.460
50774W        W19192  42.913  33.560  13.457
50775W        W19193   4.799  33.954  13.337
50776W        W19194  36.411   0.803  10.944
50777W        W19195   1.834  12.163  14.950
50778W        W19196  17.657   2.320   4.679
50779W        W19197  26.981  15.133   3.349
50780W        W19198  40.447  37.010   3.194
50781W        W19199   6.386  18.634   5.254
50782W        W19200   2.724  20.578  12.349
50783W        W19201   1.943   7.720  12.900
50784W        W19202  11.647   6.841   0.298
50785W        W19203  25.150  32.522   3.644
50786W        W19204  20.680   3.229   4.153
50787W        W19205   3.782  33.617   1.400
50788W        W19206  22.191  20.579   2.320
50789W        W19207  10.713  22.193   2.193
50790W        W19208  27.952  21.535  10.973
50791W        W19209  17.180  21.620  10.465
50792W        W19210  39.409  42.853  14.985
50793W        W19211  44.339  23.143   4.304
50794W        W19212  37.350   3.266   2.766
50795W        W19213  24.011   0.754  11.552
50796W        W19214  17.585  43.351   0.395
50797W        W19215   0.973  41.972  11.582
50798W        W19216  11.850  15.624  12.860
50799W        W19217  27.955  28.951   1.430
50800W        W19218  40.423  37.442  12.021
50801W        W19219  42.009  29.537  10.996
50802W        W19220  14.287  34.387   4.345
50803W        W19221  41.880   1.867  11.500
50804W        W19222   8.844  29.080  11.113
50805W        W19223  16.578  38.446  10.441
50806W        W19224   4.341   2.424  11.023
50807W        W19225   1.735   8.399  13.803
50808W        W19226   0.777   9.672   2.692
50809W        W19227  42.305  42.816   3.191
50810W        W19228  24.121  43.896  13.378
50811W        W19229  12.305  11.759   4.631
50812W        W19230  18.186  43.851  14.855
50813W        W19231  24.670   7.302   4.212
50814W        W19232  39.498  22.187   0.421
50815W        W19233  40.876  15.627   0.254
50816W        W19234  13.831  36.998   4.834
50817W        W19235  42.484  22.043  12.524
50818W        W19236  36.483   2.259  10.594
50819W        W19237  25.475  39.931   4.117
50820W        W19238  13.781   0.839  10.595
50821W        W19239  19.253  22.652  11.984
50822W        W19240  17.685  27.970   3.700
50823W        W19241   0.975  33.576   5.135
50824W        W19242  31.023   4.235  11.591
50825W        W19243   6.424   8.330   4.836
50826W        W19244   5.834  42.867  12.043
50827W        W19245  40.530  22.650   3.709
50828W        W19246  21.217  30.980  13.440
50829W        W19247  31.087  20.268  11.577
50830W        W19248  16.655  42.388  10.591
50831W        W19249  29.457  29.491  14.782
50832W        W19250  32.407   3.459  12.958
50833W        W19251  28.953  23.582  11.445
50834W        W19252  42.944  25.500  13.992
50835W        W19253  37.351  17.211   2.362
50836W        W19254  38.474  40.329   1.415
50837W        W19255  16.301  17.225  11.508
50838W        W19256  25.119   4.833   0.773
50839W        W19257  44.381  40.425   4.690
50840W        W19258  23.057  32.077  13.935
50841W        W19259  28.524  17.303   0.938
50842W        W19260  39.824   9.683  10.980
50843W        W19261  20.069  42.397  14.483
50844W        W19262  15.798   1.438  14.412
50845W        W19263   1.754  33.484  14.379
50846W        W19264   5.263   5.769   4.324
50847W        W19265  37.855  39.062   2.277
50848W        W19266   4.260   9.319   3.634
50849W        W19267   9.774   7.701   4.347
50850W        W19268  41.430  19.661  10.635
50851W        W19269   9.887  12.836  10.906
50852W        W19270   0.897   4.447   0.866
50853W        W19271  29.665   2.369   0.457
50854W        W19272  17.299  30.009   0.461
50855W        W19273  34.554  43.476   2.380
50856W        W19274  31.915  31.034   2.362
50857W        W19275   9.166  25.084  11.508
50858W        W19276  26.540  11.708   5.092
50859W        W19277  40.856  26.058  13.036
50860W        W19278  16.610  13.315   0.463
50861W        W19279  39.991  36.987  10.408
50862W        W19280   1.404  27.489   0.948
50863W        W19281  18.210  28.544  13.315
50864W        W19282  36.405   5.841   1.783
50865W        W19283  21.201  10.713  13.412
50866W        W19284   4.396  25.617  14.484
50867W        W19285  25.139  13.143  10.405
50868W        W19286  43.284  19.731  10.442
50869W        W19287  41.907   3.894   1.770
50870W        W19288  41.832  32.426   0.246
50871W        W19289   3.329  29.159  13.859
50872W        W19290   2.360   4.211  11.101
50873W        W19291   6.800  37.855  13.409
50874W        W19292  19.278  13.705  11.030
50875W        W19293  29.157  28.105  13.043
50876W        W19294  15.680  12.197  14.396
50877W        W19295  37.569  24.703   0.339
50878W        W19296  40.348  12.352   4.236
50879W        W19297  35.866  31.483  14.960
50880W        W19298  38.355  19.559   4.812
50881W        W19299   8.817   7.281  14.458
50882W        W19300  31.989  31.472  12.479
50883W        W19301   8.344  44.901   0.740
50884W        W19302  39.880  27.576   0.459
50885W        W19303  25.041  25.508  11.883
50886W        W19304  24.587  30.497   1.819
50887W        W19305   7.756  22.227  10.404
50888W        W19306  33.945  24.029   3.727
50889W        W19307   7.826  30.649   4.322
50890W        W19308  33.479   2.264   2.314
50891W        W19309  12.640  42.505  14.772
50892W        W19310   0.434  41.965   3.837
50893W        W19311   6.406  34.921   0.468
50894W        W19312  12.282  15.679   3.156
50895W        W19313  22.715   6.202   0.312
50896W        W19314  31.428  31.604  11.081
50897W        W19315  32.998  14.218   2.312
50898W        W19316  40.843  43.879   1.738
50899W        W19317  37.892  23.040  12.522
50900W        W19318  27.125  30.471   5.087
50901W        W19319  14.246  19.050   3.384
50902W        W19320  38.014  15.722  10.496
50903W        W19321  41.020  36.387   4.295
50904W        W19322  23.086  33.392   1.880
50905W        W19323  34.425  19.271  13.492
50906W        W19324  11.328  22.998  14.980
50907W        W19325  31.424  13.176   4.800
50908W        W19326  20.073  14.309   3.185
50909W        W19327  10.814  37.366   2.182
50910W        W19328  25.136   8.804   4.784
50911W        W19329  37.841  20.072   4.152
50912W        W19330   2.933  31.540  12.576
50913W        W19331  36.986  25.666   3.724
50914W        W19332  12.216  12.778  12.940
50915W        W19333  23.599  16.583   1.287
50916W        W19334  11.184   2.764  12.511
50917W        W19335   6.809  35.887  14.338
50918W        W19336  20.240  33.996  14.278
50919W        W19337  43.357  43.401   3.336
50920W        W19338  39.381   5.779  13.911
50921W        W19339  41.856  13.842   2.832
50922W        W19340   5.430  12.166   2.321
50923W        W19341  35.093  21.599  10.488
50924W        W19342  44.835  32.949   3.190
50925W        W19343  15.202   9.813   3.683
50926W        W19344   8.173   5.277  11.077
50927W        W19345  17.587  14.689   1.340
50928W        W19346  34.606  39.934  13.992
50929W        W19347  16.711  20.156   3.201
50930W        W19348  43.292  39.822   4.785
50931W        W19349  39.037  14.741   0.967
50932W        W19350  41.857  40.402   1.842
50933W        W19351   9.151  23.238   3.766
50934W        W19352  31.511  35.992   4.662
50935W        W19353  36.402   4.787  11.055
50936W        W19354  15.709   6.677   4.337
50937W        W19355  37.886  25.542  13.947
50938W        W19356   7.670  20.703  12.012
50939W        W19357  18.126  39.399  10.414
50940W        W19358   9.282  21.607   2.872
50941W        W19359  35.064  25.711  12.948
50942W        W19360  24.003   5.410  14.923
50943W        W19361  19.570  34.078   1.903
50944W        W19362  33.592  15.679  11.976
50945W        W19363  16.746  30.153   1.918
50946W        W19364  40.797  36.593   1.922
50947W        W19365   1.347  32.602   0.260
50948W        W19366  13.820  39.016   0.916
50949W        W19367  20.687  44.943  13.884
50950W        W19368  10.788   8.291  12.429
50951W        W19369  42.458   7.732  12.443
50952W        W19370  13.791  25.043  11.452
50953W        W19371   1.814  29.065   3.331
50954W        W19372  11.820   3.247   4.137
50955W        W19373  22.727  35.960  13.456
50956W        W19374  26.580  10.337   0.814
50957W        W19375  23.146   8.889  14.807
50958W        W19376  38.507  11.210   0.474
50959W        W19377  39.833  25.487   3.310
50960W        W19378  20.173  36.887   1.806
50961W        W19379  28.029  13.175   0.879
50962W        W19380  19.045  14.660   5.634
50963W        W19381  35.892  15.277  14.495
50964W        W19382  10.344   7.756   2.828
50965W        W19383  35.597  21.593   0.313
50966W        W19384  11.365   0.989  13.044
50967W        W19385   3.430  38.986   4.746
50968W        W19386  18.209  20.233   0.365
50969W        W19387  28.118  30.160  11.975
50970W        W19388  29.010  27.462   2.413
50971W        W19389  41.474  42.515  11.393
50972W        W19390  30.048  16.126  10.991
50973W        W19391  26.082  12.215  11.418
50974W        W19392  44.368  26.197  12.873
50975W        W19393  11.848  41.820   3.761
50976W        W19394  44.471   1.869   2.729
50977W        W19395  41.525  12.642  14.429
50978W        W19396  32.110  36.066  12.065
50979W        W19397  27.595  14.733  10.898
50980W        W19398  27.555   4.798  10.403
50981W        W19399   6.686  24.716  14.380
50982W        W19400  30.040  29.554   2.233
50983W        W19401  30.011  17.730   0.906
50984W        W19402  35.093   0.265  10.049
50985W        W19403  18.121   5.323  12.442
50986W        W19404  13.682  11.729  10.644
50987W        W19405  21.247  15.105  11.422
50988W        W19406   6.872   4.762   4.261
50989W        W19407  13.757  22.507  14.492
50990W        W19408   2.859   1.797   0.930
50991W        W19409   0.836   7.178   9.926
50992W        W19410  44.976   3.740  13.949
50993W        W19411  38.407  34.010  12.086
50994W        W19412  27.090   6.254   2.674
50995W        W19413   5.303  12.349  14.846
50996W        W19414   3.328  12.319  14.982
50997W        W19415  43.967  35.571  14.446
50998W        W19416  44.265   7.692  11.116
50999W        W19417  26.014  31.067   1.290
51000W        W19418  10.240  22.523   4.631
51001W        W19419  13.651  23.047  13.983
51002W        W19420  17.097  13.205  10.017
51003W        W19421   1.445  24.668   1.756
51004W        W19422  35.421  41.938   0.277
51005W        W19423  10.280  27.102   0.783
51006W        W19424   4.800  39.950  14.832
51007W        W19425  23.736  24.587   2.289
51008W        W19426   9.351  26.702   4.335
51009W        W19427  34.567  17.290  12.544
51010W        W19428  44.877  23.208  12.541
51011W        W19429  43.482  13.642   0.957
51012W        W19430  38.869  28.082  13.983
51013W        W19431  30.561  32.005  12.998
51014W        W19432  13.638  15.262  14.463
51015W        W19433   2.819  39.929   3.278
51016W        W19434  15.782  42.026   3.374
51017W        W19435  31.035  25.522  10.590
51018W        W19436  16.126  42.940  10.472
51019W        W19437  38.034  25.606   3.238
51020W        W19438  23.088  25.046  11.519
51021W        W19439  22.549  24.551  11.972
51022W        W19440  18.057  31.569   2.387
51023W        W19441  14.226  41.425  11.103
51024W        W19442  32.476  38.917  11.560
51025W        W19443  12.208  18.651   4.170
51026W        W19444  29.021  18.628   0.389
51027W        W19445  22.121  42.930  13.349
51028W        W19446  31.036  39.314   0.843
51029W        W19447   6.335  24.721   0.817
51030W        W19448  30.961  12.256   1.728
51031W        W19449   3.424  13.624  13.865
51032W        W19450  15.330   1.862  10.511
51033W        W19451  22.718  27.969  11.510
51034W        W19452   2.395  39.871  11.966
51035W        W19453  34.054  17.789  10.572
51036W        W19454  44.330   7.704  14.913
51037W        W19455  26.491  32.021  11.600
51038W        W19456  10.871  33.995  12.908
51039W        W19457  22.690  37.443   1.339
51040W        W19458   2.859   5.286  11.586
51041W        W19459  40.392   7.370   0.299
51042W        W19460   0.394  19.658  12.870
51043W        W19461  16.781  39.326   0.360
51044W        W19462  23.625  44.470  14.455
51045W        W19463   4.705  30.617   3.793
51046W        W19464  23.993  15.696  10.405
51047W        W19465  27.494  41.909  11.381
51048W        W19466  44.880  31.507   4.799
51049W        W19467  37.548  15.241   3.679
51050W        W19468  25.111  13.736  14.363
51051W        W19469  17.611  22.210   1.701
51052W        W19470  21.088  40.352   5.200
51053W        W19471  17.744  41.327  14.402
51054W        W19472  19.586  11.762  11.386
51055W        W19473  37.844  24.677   2.745
51056W        W19474  18.139  32.044   2.704
51057W        W19475   5.344   4.750   3.281
51058W        W19476  37.010  10.224   2.736
51059W        W19477  29.040  44.990  10.644
51060W        W19478  33.124   1.812   1.234
51061W        W19479  12.326  27.942   1.363
51062W        W19480   2.739   0.403   3.246
51063W        W19481   1.745  43.376   0.870
51064W        W19482  44.887  16.675  10.913
51065W        W19483  10.774   9.864  10.520
51066W        W19484  40.473  24.096   3.156
51067W        W19485  18.711  16.247   3.336
51068W        W19486  38.414   2.770   4.204
51069W        W19487   9.831  20.272   0.909
51070W        W19488  35.478  18.081  14.998
51071W        W19489  36.400  18.090  11.087
51072W        W19490  23.164  41.299  10.576
51073W        W19491  26.172  10.700   1.212
51074W        W19492  20.097   6.915   2.725
51075W        W19493  44.860  15.592  11.464
51076W        W19494   9.155  35.089  12.943
51077W        W19495  26.606  41.838   1.330
51078W        W19496  33.599  16.290  12.077
51079W        W19497  12.362  24.154   1.388
51080W        W19498  18.170  18.147   2.785
51081W        W19499   0.316  18.781   2.197
51082W        W19500  43.297  23.152   2.250
51083W        W19501  34.375  23.140   0.792
51084W        W19502   2.782   5.208   3.288
51085W        W19503  38.431   1.754  14.426
51086W        W19504  30.567  35.376   1.284
51087W        W19505  22.182  25.516  14.410
51088W        W19506   4.926  29.509  14.359
51089W        W19507  19.714  32.396   4.824
51090W        W19508  17.292  34.564  10.475
51091W        W19509  36.416  36.491   1.262
51092W        W19510  29.967   0.290   0.475
51093W        W19511  41.891  38.386   5.770
51094W        W19512  17.702  13.221   4.280
51095W        W19513  24.051  20.234  10.521
51096W        W19514  44.900  36.538   1.866
51097W        W19515  40.898  43.925  10.501
51098W        W19516   9.199  26.164   4.134
51099W        W19517  44.935  29.002  12.487
51100W        W19518  26.117  36.097   0.817
51101W        W19519  31.924  21.246  12.568
51102W        W19520  34.531  43.851  13.476
51103W        W19521   3.394   2.424  14.437
51104W        W19522  43.373   6.198  11.051
51105W        W19523  35.479  42.830  10.928
51106W        W19524  22.530  18.267  10.893
51107W        W19525  23.658   9.822  14.802
51108W        W19526   8.754  30.484  13.523
51109W        W19527  36.570  13.134   1.914
51110W        W19528  22.146  29.579   4.178
51111W        W19529  19.666  37.933   0.767
51112W        W19530  22.177   5.434   2.840
51113W        W19531  30.128  38.839  11.099
51114W        W19532  27.499  27.990   0.888
51115W        W19533  42.315  14.108   4.707
51116W        W19534  16.764  14.596  13.318
51117W        W19535  22.706  20.079   3.683
51118W        W19536  36.386  32.019   3.777
51119W        W19537   8.671  43.420  12.430
51120W        W19538  35.874   2.923  14.858
51121W        W19539  17.586   3.812  10.519
51122W        W19540  41.796  27.453  13.500
51123W        W19541  33.959   8.303   2.736
51124W        W19542   7.273  23.491   4.137
51125W        W19543  40.915  37.923   3.253
51126W        W19544  24.691  21.652  12.877
51127W        W19545   2.762  26.997   4.215
51128W        W19546  31.008  32.512  14.927
51129W        W19547  20.726  37.899   2.682
51130W        W19548  30.477   0.842  11.028
51131W        W19549   6.405  31.641  12.943
51132W        W19550  32.605  18.271  14.958
51133W        W19551  26.024  14.775   0.416
51134W        W19552  16.630  17.276  10.982
51135W        W19553  18.198  34.993  10.437
51136W        W19554  18.580  27.995  14.439
51137W        W19555  43.338  22.645  12.438
51138W        W19556  41.858  18.111   3.808
51139W        W19557  23.236  39.363   2.765
51140W        W19558  42.288   5.307  11.420
51141W        W19559  33.955  10.873   2.713
51142W        W19560  19.674  15.708   2.356
51143W        W19561  32.031  21.649   2.282
51144W        W19562  11.657  34.427   3.730
51145W        W19563  42.850  33.488  11.609
51146W        W19564  11.797  16.787  13.348
51147W        W19565   0.343  43.512   1.324
51148W        W19566  29.133   8.287  12.938
51149W        W19567  41.368  40.994  12.578
51150W        W19568   7.677  30.156  13.931
51151W        W19569   5.846  23.054  11.997
51152W        W19570  11.363  27.690  13.373
51153W        W19571  40.369  35.481   2.680
51154W        W19572  19.673  25.194   1.229
51155W        W19573  27.625   1.252   3.634
51156W        W19574  39.509  19.638   3.303
51157W        W19575  44.940  20.766  14.898
51158W        W19576  23.623  22.600   4.192
51159W        W19577   7.783   4.754  13.463
51160W        W19578   8.841   6.315   3.154
51161W        W19579   1.404  42.841   4.680
51162W        W19580  38.834  34.529  11.069
51163W        W19581  33.075  43.514   4.234
51164W        W19582  34.983  40.496  10.063
51165W        W19583  11.137  24.095  14.400
51166W        W19584   6.233  24.032   3.301
51167W        W19585  39.420  20.233  10.454
51168W        W19586  18.658  36.935   4.309
51169W        W19587  14.171   5.377  11.031
51170W        W19588  13.273  35.957   4.308
51171W        W19589  43.983  15.768  13.055
51172W        W19590  23.584   0.928  12.451
51173W        W19591  16.571  19.772   0.422
51174W        W19592  23.212  34.429   3.837
51175W        W19593  25.163  16.123   0.353
51176W        W19594  39.014  16.697  10.481
51177W        W19595  41.832  44.400   4.312
51178W        W19596  32.601  38.855  13.843
51179W        W19597  42.308  31.069  11.407
51180W        W19598  44.418  30.516  12.501
51181W        W19599   6.702  30.148  14.514
51182W        W19600   0.823  16.756   4.310
51183W        W19601  36.436  42.030   3.357
51184W        W19602  29.048  10.641   0.784
51185W        W19603  39.320  26.536  12.399
51186W        W19604   2.810  39.348  11.602
51187W        W19605   2.900  15.629   3.343
51188W        W19606  13.344  36.907   2.286
51189W        W19607  12.219   4.814  10.451
51190W        W19608  30.917  15.636  11.096
51191W        W19609  42.421  28.559   3.671
51192W        W19610  18.634  28.162  10.457
51193W        W19611  16.735   5.220  14.355
51194W        W19612  37.404  24.155   3.683
51195W        W19613  42.857  27.493   0.930
51196W        W19614  34.954  34.890   0.833
51197W        W19615  21.575  26.031  12.499
51198W        W19616   4.397  28.569  10.902
51199W        W19617  27.975  13.602  12.463
51200W        W19618  36.063  14.328   3.660
51201W        W19619  22.584  13.606   1.409
51202W        W19620   5.324  27.136  14.340
51203W        W19621  30.082   3.222  11.377
51204W        W19622   2.726  28.585  11.567
51205W        W19623  38.051  29.458   4.675
51206W        W19624  28.138  29.012   3.375
51207W        W19625  17.292  26.632   3.666
51208W        W19626  34.954  25.037  10.404
51209W        W19627  15.579  12.712  10.576
51210W        W19628   9.320  11.672  10.495
51211W        W19629  16.200  26.190  11.981
51212W        W19630  38.405  40.935  11.612
51213W        W19631   7.800  20.681  14.846
51214W        W19632  41.820  23.538   3.833
51215W        W19633  21.253  35.595  12.844
51216W        W19634  18.103  28.149   0.471
51217W        W19635  31.013  10.198  11.459
51218W        W19636  23.573   1.244  11.373
51219W        W19637  20.206  20.689   0.739
51220W        W19638   3.273  44.355  14.413
51221W        W19639  11.732  13.112   0.420
51222W        W19640  13.162   7.848   4.159
51223W        W19641  22.678  23.986  10.468
51224W        W19642  11.203   0.972  10.941
51225W        W19643  16.605  34.000  13.813
51226W        W19644  36.536  21.663  14.306
51227W        W19645  42.332  28.483  14.844
51228W        W19646  17.720  28.930  14.967
51229W        W19647  11.180  13.185   4.704
51230W        W19648   2.871  25.024   1.342
51231W        W19649  40.335  42.009  10.419
51232W        W19650  23.220  30.115  10.635
51233W        W19651  30.647   2.948  14.431
51234W        W19652  26.067  35.060   0.800
51235W        W19653  35.402  40.884   4.169
51236W        W19654  22.166  14.317   2.277
51237W        W19655  26.996  19.694   1.756
51238W        W19656   4.444  32.521  11.022
51239W        W19657  18.604  13.271   1.890
51240W        W19658  20.560  10.294   2.864
51241W        W19659  25.160  29.984  12.362
51242W        W19660  26.142  21.632  13.532
51243W        W19661   4.389   3.441  14.408
51244W        W19662  26.547  40.052   0.784
51245W        W19663   2.231  11.207   4.195
51246W        W19664  15.178  38.336   0.478
51247W        W19665  26.205   1.308   0.293
51248W        W19666  21.575  36.921   3.288
51249W        W19667  22.075   8.685  10.643
51250W        W19668  30.451   3.911  12.037
51251W        W19669  37.843  23.585  10.092
51252W        W19670  12.630  10.159   3.317
51253W        W19671   7.331  36.376   0.929
51254W        W19672  44.904   9.386   0.936
51255W        W19673  27.644   8.669   2.372
51256W        W19674  23.560  25.655   4.807
51257W        W19675  30.544  37.847  11.872
51258W        W19676  21.653  17.250  11.989
51259W        W19677  35.038  32.936  11.410
51260W        W19678   9.222  37.436  12.535
51261W        W19679  43.511  19.095  11.503
51262W        W19680  40.875  15.233   1.264
51263W        W19681  32.925  30.937   3.204
51264W        W19682  15.631  23.577  10.908
51265W        W19683  33.504  30.941   1.902
51266W        W19684  13.692   7.725  10.904
51267W        W19685  14.294  24.487   3.157
51268W        W19686  22.158   0.377  12.427
51269W        W19687  16.719  20.082  11.866
51270W        W19688  41.505  15.292  14.988
51271W        W19689  36.881  17.734   3.158
51272W        W19690  40.842  30.560   0.889
51273W        W19691   5.245  16.159   2.402
51274W        W19692   9.691  22.682   0.446
51275W        W19693   1.800  10.855  10.897
51276W        W19694   8.169  42.935  12.359
51277W        W19695  14.618  38.874  10.913
51278W        W19696  12.620  13.253   2.289
51279W        W19697  34.023  14.179   4.172
51280W        W19698  18.133  44.503   1.288
51281W        W19699  41.355  23.527  14.992
51282W        W19700  33.936  24.004   1.375
51283W        W19701   9.234   5.359   4.154
51284W        W19702  35.440  12.328   4.715
51285W        W19703  30.081   2.304  14.821
51286W        W19704  38.443  44.962   3.218
51287W        W19705  20.057  16.238   3.373
51288W        W19706  21.075   2.741   4.267
51289W        W19707  12.854  39.986  12.542
51290W        W19708   3.937  33.417   0.270
51291W        W19709   5.697  27.498  11.454
51292W        W19710  35.602  28.655   0.827
51293W        W19711  32.549  15.810  14.437
51294W        W19712   6.847  12.306   4.746
51295W        W19713  29.623   1.407   1.883
51296W        W19714   5.352  11.139  12.339
51297W        W19715   1.876  13.826  11.035
51298W        W19716   5.818  17.695  14.301
51299W        W19717  34.985  23.129  10.561
51300W        W19718  27.613  27.635   1.344
51301W        W19719  31.624  21.559  12.421
51302W        W19720  16.674   5.883   2.750
51303W        W19721   3.405   1.795   1.346
51304W        W19722  22.513   9.317   1.234
51305W        W19723  26.512  26.646  10.965
51306W        W19724  19.232  25.662  10.054
51307W        W19725   4.793  39.825   4.665
51308W        W19726  18.206  44.455   3.174
51309W        W19727  27.678  36.364   3.778
51310W        W19728  38.451  43.296   3.745
51311W        W19729  23.095  23.051  14.806
51312W        W19730  43.787  32.898   4.245
51313W        W19731  39.851  38.982  12.475
51314W        W19732   2.356  21.532  11.970
51315W        W19733   2.801  41.980  11.905
51316W        W19734  17.772  37.857  14.415
51317W        W19735  33.586  27.543  12.014
51318W        W19736  40.462   4.420  13.965
51319W        W19737   1.281  16.630   3.659
51320W        W19738  18.762  34.032  10.570
51321W        W19739  18.229   0.360  11.983
51322W        W19740  27.495  34.001   2.740
51323W        W19741  13.810   1.287  12.428
51324W        W19742  40.870  16.663  12.438
51325W        W19743  28.017  41.825   0.322
51326W        W19744  30.068  31.420   4.650
51327W        W19745  25.617  17.719  10.469
51328W        W19746  18.656  11.803  11.396
51329W        W19747  29.598  41.381  11.076
51330W        W19748  26.462  28.456  13.536
51331W        W19749  32.452   3.300  13.509
51332W        W19750  42.014  28.529  14.811
51333W        W19751   3.901  18.729  13.530
51334W        W19752   0.371  29.437   0.849
51335W        W19753  29.644  21.570  12.866
51336W        W19754  28.608  15.602   0.399
51337W        W19755  12.722   4.229   4.131
51338W        W19756  10.338  32.550   0.455
51339W        W19757  20.581  43.405  11.026
51340W        W19758  17.197  22.657  10.441
51341W        W19759  36.982  38.344   0.737
51342W        W19760  41.786  32.053  14.296
51343W        W19761   6.714  42.371  12.880
51344W        W19762   4.867  33.903   3.226
51345W        W19763  30.039  40.817   1.813
51346W        W19764  28.103  41.522   4.688
51347W        W19765  37.543  43.991   0.755
51348W        W19766  27.450   2.416  14.973
51349W        W19767  38.413  16.311   2.819
51350W        W19768  39.844   2.827  11.433
51351W        W19769   2.336   0.290   3.385
51352W        W19770  14.317  36.354   1.355
51353W        W19771  33.024  11.708   0.426
51354W        W19772  43.504  43.273  13.459
51355W        W19773  19.717  32.557  13.977
51356W        W19774  30.618  41.360   0.796
51357W        W19775  22.171  23.658  12.440
51358W        W19776  24.150  20.722   1.823
51359W        W19777  13.810  26.524  11.960
51360W        W19778  22.745  26.687  13.419
51361W        W19779  43.807   2.330  11.426
51362W        W19780   3.348  19.780  13.515
51363W        W19781   7.811  44.902   3.643
51364W        W19782  41.533  22.554  14.419
51365W        W19783  25.163  16.684   1.296
51366W        W19784  14.675   7.752   4.265
51367W        W19785  32.436  29.926   2.285
51368W        W19786  42.993  26.667  10.636
51369W        W19787   4.433  28.639   0.878
51370W        W19788  36.479  11.651  12.552
51371W        W19789  37.512  17.142  12.342
51372W        W19790   9.730  12.290   0.805
51373W        W19791  40.988  31.425   3.186
51374W        W19792  30.051  31.057   0.776
51375W        W19793  15.232   8.164   0.942
51376W        W19794  32.485  24.210  10.893
51377W        W19795  35.416  12.117  12.350
51378W        W19796  15.284  10.792  12.971
51379W        W19797  25.124  14.677  10.506
51380W        W19798  41.908  17.610   0.939
51381W        W19799  39.066  28.142  14.438
51382W        W19800  32.477  40.874  14.771
51383W        W19801  28.097  22.563   3.707
51384W        W19802  43.315  44.873   3.247
51385W        W19803  23.684   0.819  10.460
51386W        W19804  26.988  44.273  11.427
51387W        W19805  40.325  40.873  11.982
51388W        W19806  21.713  25.686  14.505
51389W        W19807  37.006  33.410   3.174
51390W        W19808  20.552  31.127   1.229
51391W        W19809   2.842  37.392   3.803
51392W        W19810  27.035  42.850  11.906
51393W        W19811  24.202  38.022  12.987
51394W        W19812  25.654  20.103  13.475
51395W        W19813  17.243  39.451  14.924
51396W        W19814  28.556  33.546   2.274
51397W        W19815  13.280  22.028   3.650
51398W        W19816  21.746  38.833  12.013
51399W        W19817   5.262  29.491  14.839
51400W        W19818  37.366  24.592  12.527
51401W        W19819  10.271  44.861   2.827
51402W        W19820   0.480  16.697   4.206
51403W        W19821  36.882  42.510   0.810
51404W        W19822   2.932  35.546  10.944
51405W        W19823  21.703  42.385  11.371
51406W        W19824  41.907  25.970   2.745
51407W        W19825   8.187  32.571   2.232
51408W        W19826   7.371   8.776  10.892
51409W        W19827   5.419  37.996  12.361
51410W        W19828   9.251  33.897   2.367
51411W        W19829   2.372  15.276   4.230
51412W        W19830  38.065  24.190   1.272
51413W        W19831  32.126  32.924  12.829
51414W        W19832  14.743   2.907   1.784
51415W        W19833  42.417  23.237   1.852
51416W        W19834   1.276   6.214  11.491
51417W        W19835   5.335  27.943   1.727
51418W        W19836   2.369   0.374  14.865
51419W        W19837  23.131  21.574  14.963
51420W        W19838  10.179   1.339  11.410
51421W        W19839  44.787  19.098   4.656
51422W        W19840  26.184   4.346  10.426
51423W        W19841  31.646  39.008  14.903
51424W        W19842   6.720  40.051  13.932
51425W        W19843  32.106   6.365  13.391
51426W        W19844  13.208  36.945   0.289
51427W        W19845  19.682   5.851   2.839
51428W        W19846   7.198  22.223   3.243
51429W        W19847   4.251  35.891   4.624
51430W        W19848  38.838  22.081  10.091
51431W        W19849  30.625  37.925   1.394
51432W        W19850  31.590  38.433  11.520
51433W        W19851  20.161  13.796   2.347
51434W        W19852   0.250  24.980   0.811
51435W        W19853   5.422  35.912   3.703
51436W        W19854  41.526  40.467   5.105
51437W        W19855  25.976  23.518  11.945
51438W        W19856  10.146   6.356  14.826
51439W        W19857  16.791  10.139   3.215
51440W        W19858  16.645  39.035  12.372
51441W        W19859   7.783  34.044   3.631
51442W        W19860  25.700  32.959  13.890
51443W        W19861  43.438  27.166   1.424
51444W        W19862  28.544   3.878   3.643
51445W        W19863   7.873  36.044  11.600
51446W        W19864  42.886  31.635  12.895
51447W        W19865   6.856   0.844   4.239
51448W        W19866  38.333   0.934  10.550
51449W        W19867  39.387   8.304  12.917
51450W        W19868  25.521  25.091  14.974
51451W        W19869  28.137  25.696   4.270
51452W        W19870  22.649   5.696  13.371
51453W        W19871  19.104  32.934   1.924
51454W        W19872  36.025  11.778  14.488
51455W        W19873  22.099  15.276  14.323
51456W        W19874  18.572  11.761   1.313
51457W        W19875   4.420  14.143   3.630
51458W        W19876   5.426  22.192   3.217
51459W        W19877  19.110  20.756   3.824
51460W        W19878   5.313  25.499   4.145
51461W        W19879  34.606   2.847   2.719
51462W        W19880  31.132  28.966  12.538
51463W        W19881  20.062  39.999   1.265
51464W        W19882  11.340  18.576   0.257
51465W        W19883  28.460  12.662  14.784
51466W        W19884  23.044  13.189  12.569
51467W        W19885  36.870   9.846  11.373
51468W        W19886  25.136  28.163   0.836
51469W        W19887  32.437  33.457   4.611
51470W        W19888  23.075   9.835   2.412
51471W        W19889  41.433  37.343   4.220
51472W        W19890  21.718  15.201  14.924
51473W        W19891  21.719  42.508  11.862
51474W        W19892  37.074  24.129   3.772
51475W        W19893  39.921  20.745  14.805
51476W        W19894  44.476   6.232   5.304
51477W        W19895  20.536  24.488   2.316
51478W        W19896   3.881  14.121  10.005
51479W        W19897  24.017   7.409   2.779
51480W        W19898  12.663  44.393   1.836
51481W        W19899  13.726   6.841  13.462
51482W        W19900  24.193   1.738  14.464
51483W        W19901  20.214  31.527   4.786
51484W        W19902  30.049   3.302   1.253
51485W        W19903  28.554  11.789  11.400
51486W        W19904  44.954  11.132   2.692
51487W        W19905  33.087   4.408  12.028
51488W        W19906  28.473  21.183  10.611
51489W        W19907  10.730  21.741   2.861
51490W        W19908   0.947  31.448  10.891
51491W        W19909  22.240  40.407   2.788
51492W        W19910  12.741  23.179  14.873
51493W        W19911  42.299  30.630  11.416
51494W        W19912   6.288  35.551  10.046
51495W        W19913  29.940  11.797  14.498
51496W        W19914  36.008  41.536   3.146
51497W        W19915   7.313   9.241   0.442
51498W        W19916  18.752  31.501   3.796
51499W        W19917  29.463  37.074   4.821
51500W        W19918  12.742  16.133   0.456
51501W        W19919  32.518  34.400  11.536
51502W        W19920   5.360   8.247  10.514
51503W        W19921  31.436  23.038  12.446
51504W        W19922  18.250  18.650  13.792
51505W        W19923  12.277  25.965  13.537
51506W        W19924  12.791  40.943  11.077
51507W        W19925  29.654   8.688   4.270
51508W        W19926  32.420  28.087   2.213
51509W        W19927  44.333   3.862  11.506
51510W        W19928  29.957  41.387  14.302
51511W        W19929   5.894  42.881  10.913
51512W        W19930  24.629  11.143  11.956
51513W        W19931  31.614  20.131   3.216
51514W        W19932  23.201   3.320  13.934
51515W        W19933   8.318  41.331   0.737
51516W        W19934   1.276  18.191  13.324
51517W        W19935  22.041   1.769   3.347
51518W        W19936  35.942   6.799  13.526
51519W        W19937  44.261   6.213  11.452
51520W        W19938  13.246  26.987  11.073
51521W        W19939  23.558  44.929   1.391
51522W        W19940  29.998  36.930  11.525
51523W        W19941  15.169  43.467   0.278
51524W        W19942  28.952   8.802  12.862
51525W        W19943  35.389  17.651   1.787
51526W        W19944  13.222  25.601  12.983
51527W        W19945  41.312   0.475   2.266
51528W        W19946  13.270  36.376   4.116
51529W        W19947  44.312   2.243   0.880
51530W        W19948   0.803   9.830   0.296
51531W        W19949  14.239  17.562   1.275
51532W        W19950  11.369  18.140  13.031
51533W        W19951  30.056   9.394  11.998
51534W        W19952  32.028  27.110  13.804
51535W        W19953  38.528  41.405  12.462
51536W        W19954   2.300  39.003   4.804
51537W        W19955  11.760   2.894  12.864
51538W        W19956  24.610  11.772  14.943
51539W        W19957  37.986   8.885   0.766
51540W        W19958  19.235  36.438   0.248
51541W        W19959  13.269  23.099   1.849
51542W        W19960  24.580  44.787   1.748
51543W        W19961   5.359  43.818  13.333
51544W        W19962  15.640  41.882  12.544
51545W        W19963  42.823  39.462  12.957
51546W        W19964   5.796  26.697   2.807
51547W        W19965  34.497   1.740  11.476
51548W        W19966  35.366   3.376   2.663
51549W        W19967   9.264  43.947   0.474
51550W        W19968  28.117  16.173  12.385
51551W        W19969  11.665   5.356   4.604
51552W        W19970  35.050   4.344  10.633
51553W        W19971  25.475   1.433  13.833
51554W        W19972   0.859   4.853   0.418
51555W        W19973  33.050   5.305   3.650
51556W        W19974  14.293  27.615   3.784
51557W        W19975  40.304  14.314  12.480
51558W        W19976   7.909  44.458  12.510
51559W        W19977  41.340   7.264   3.369
51560W        W19978  20.122  30.440   2.180
51561W        W19979  33.585   2.280  14.972
51562W        W19980  22.558  10.213  13.323
51563W        W19981   4.203  23.016  13.485
51564W        W19982  19.066  36.043   1.435
51565W        W19983  27.156  29.041   3.176
51566W        W19984  27.505   4.740  12.494
51567W        W19985  39.559  26.696   0.753
51568W        W19986  15.172  37.509   4.803
51569W        W19987  33.894  25.132  14.342
51570W        W19988  17.071  12.196   0.762
51571W        W19989  38.899  32.627  11.507
51572W        W19990  24.505  29.037  14.970
51573W        W19991  22.017  41.955  12.522
51574W        W19992   4.248   2.885   4.701
51575W        W19993  33.129  11.789  14.282
51576W        W19994  13.714  17.558   0.951
51577W        W19995  25.138  30.438   1.420
51578W        W19996  35.881  31.427   3.826
51579W        W19997   8.901  44.359  11.060
51580W        W19998  29.498  40.044  11.092
51581W        W19999   7.192   0.880  13.330
51582W        W20000   6.921  13.790  13.506
51583W        W20001   6.335  32.614  12.846
51584W        W20002  15.777  31.438  10.411
51585W        W20003  18.586  23.984  10.987
51586W        W20004  39.498  14.096   2.403
51587W        W20005  43.869  20.236  11.520
51588W        W20006  44.308  14.187  13.339
51589W        W20007  27.561  42.960  14.006
51590W        W20008  44.266  21.058   4.255
51591W        W20009  17.728  44.370  13.901
51592W        W20010  38.511  13.839  12.502
51593W        W20011   1.868  14.819   2.247
51594W        W20012  40.497  12.272   0.383
51595W        W20013   1.296  35.896   2.771
51596W        W20014  23.984  32.904  12.926
51597W        W20015  41.964  38.821  12.840
51598W        W20016  28.045   5.426  12.047
51599W        W20017  29.025  30.070   0.322
51600W        W20018  29.425   7.206   2.779
51601W        W20019  25.165  43.414   2.748
51602W        W20020  19.616  18.661  13.468
51603W        W20021  34.574   4.860   1.872
51604W        W20022   2.271  37.885  13.049
51605W        W20023  31.954  36.980   4.298
51606W        W20024  18.154   5.707   3.244
51607W        W20025   1.828  37.358   4.781
51608W        W20026  12.634  14.810  12.366
51609W        W20027  26.149  10.766   3.354
51610W        W20028  35.907  21.237   1.229
51611W        W20029  44.296  31.898   4.286
51612W        W20030  36.074   4.277  10.436
51613W        W20031  31.446  17.291  11.034
51614W        W20032  15.616  37.564  13.334
51615W        W20033  39.820   7.897   4.292
51616W        W20034  34.413  37.576  12.395
51617W        W20035   3.711   0.262  12.097
51618W        W20036  27.028  44.833   3.182
51619W        W20037  15.127  30.159   2.271
51620W        W20038  44.825  29.157   1.241
51621W        W20039   4.935  18.767   2.741
51622W        W20040  20.210  29.084   0.357
51623W        W20041  17.246  24.998   3.287
51624W        W20042  10.179   4.725   3.313
51625W        W20043  43.804  22.531  12.530
51626W        W20044  37.048  18.554   2.807
51627W        W20045  13.119  12.813   0.432
51628W        W20046  31.916  27.141  11.954
51629W        W20047  29.498  39.331   2.730
51630W        W20048  36.964  40.869   3.349
51631W        W20049   7.679  39.999  10.967
51632W        W20050   4.232   7.789   1.358
51633W        W20051  24.653  10.719   4.678
51634W        W20052  25.981  15.747  12.951
51635W        W20053  14.753  30.575  14.962
51636W        W20054  28.546   5.296  11.863
51637W        W20055   7.249  40.432  11.500
51638W        W20056   6.362  25.147   0.846
51639W        W20057   9.209   9.709  10.988
51640W        W20058  34.518  10.724  11.577
51641W        W20059  27.564  35.885  10.509
51642W        W20060   8.891  12.272  12.373
51643W        W20061   1.912  18.723   2.352
51644W        W20062   7.761  13.653  13.043
51645W        W20063  11.352  23.141  11.611
51646W        W20064  36.937   4.775  11.482
51647W        W20065  34.054  11.268  13.359
51648W        W20066   1.327  11.321  11.928
51649W        W20067   8.326   4.447   4.757
51650W        W20068   8.217   8.279   4.747
51651W        W20069  15.213  19.575  11.550
51652W        W20070  43.834  36.092  12.538
51653W        W20071   2.814  39.375  13.971
51654W        W20072  35.468  22.500   1.822
51655W        W20073  44.487  27.681  11.876
51656W        W20074   1.477  17.134   2.359
51657W        W20075  43.008  33.023  14.846
51658W        W20076   5.290  14.184   1.927
51659W        W20077  11.274  27.454   0.286
51660W        W20078   8.248   2.375  11.915
51661W        W20079  17.120  17.218   3.202
51662W        W20080  33.468  22.569  10.637
51663W        W20081  23.563  23.558  11.393
51664W        W20082   0.899   6.749   3.231
51665W        W20083  14.608  25.155  14.910
51666W        W20084  33.007   8.326  14.772
51667W        W20085  24.657   4.853  13.539
51668W        W20086  20.041  41.903  14.429
51669W        W20087  11.276  23.030   1.794
51670W        W20088  10.350  41.880  13.480
51671W        W20089   9.871  42.473   1.257
51672W        W20090  33.899  29.125  12.426
51673W        W20091   0.491   0.803  13.518
51674W        W20092  19.714  18.117   2.899
51675W        W20093  27.642  41.388  14.818
51676W        W20094   8.888  37.036  12.991
51677W        W20095  20.037  36.399  12.484
51678W        W20096  25.504  42.932  12.883
51679W        W20097   6.687  38.502   4.262
51680W        W20098   9.848  17.271   2.407
51681W        W20099  15.270  22.583  11.528
51682W        W20100  28.971  12.263  13.340
51683W        W20101  25.618   7.382  11.539
51684W        W20102  42.857   9.872  11.542
51685W        W20103  28.657  23.539  14.373
51686W        W20104  25.990  23.546  14.856
51687W        W20105  30.567  39.405  13.335
51688W        W20106  13.226  28.667  10.902
51689W        W20107  41.434  33.513   1.767
51690W        W20108  44.463  20.044  11.858
51691W        W20109  25.128  39.967  14.802
51692W        W20110  19.205  33.493   4.140
51693W        W20111  34.953  21.165  14.022
51694W        W20112  24.581  43.293  12.409
51695W        W20113  22.032   9.746  14.826
51696W        W20114  10.283  39.017   4.311
51697W        W20115  31.957  17.126   2.209
51698W        W20116   3.897   3.862  13.318
51699W        W20117  22.069   1.397  11.866
51700W        W20118  11.227  39.041   0.304
51701W        W20119  30.643  12.724  10.943
51702W        W20120   7.876  26.535  11.478
51703W        W20121   3.924  16.803   1.236
51704W        W20122  40.994  43.967   3.339
51705W        W20123  39.014  14.607  12.550
51706W        W20124  38.411  19.166  12.944
51707W        W20125  28.573  16.205   2.222
51708W        W20126   9.669  41.438  12.353
51709W        W20127   3.443  12.253   4.128
51710W        W20128  12.301  27.011   3.220
51711W        W20129  27.197  22.734  12.366
51712W        W20130   8.655  21.021   5.181
51713W        W20131  38.568   1.245   3.187
51714W        W20132  18.148  35.921  10.527
51715W        W20133   5.291  15.639  13.366
51716W        W20134  19.282  32.965   4.254
51717W        W20135   1.976  13.681   1.334
51718W        W20136  24.197  13.634  14.319
51719W        W20137  17.572  28.483   1.305
51720W        W20138  27.963  24.550   1.292
51721W        W20139  37.942  24.054  13.367
51722W        W20140  31.936  37.551  10.898
51723W        W20141  24.045  44.352   5.123
51724W        W20142   6.761   8.282   2.384
51725W        W20143  26.012  17.148   2.891
51726W        W20144  41.439   1.877   3.385
51727W        W20145  21.122  13.217  13.812
51728W        W20146  22.728  31.119  11.413
51729W        W20147   2.277  41.953   2.691
51730W        W20148  39.471  11.643  13.489
51731W        W20149  25.680  11.359  13.479
51732W        W20150   9.323   4.804  10.019
51733W        W20151   0.405  12.706   1.931
51734W        W20152   2.426  13.622  14.019
51735W        W20153  33.415  37.409   3.277
51736W        W20154  43.970  21.619  12.559
51737W        W20155  25.979   8.879   5.711
51738W        W20156  24.589  42.293  14.019
51739W        W20157  23.092  41.875   2.801
51740W        W20158  43.329   9.745  14.768
51741W        W20159   2.429   5.308  11.875
51742W        W20160   6.905  36.465   1.302
51743W        W20161  26.023  18.596  10.436
51744W        W20162  38.530  17.277   2.842
51745W        W20163  34.987   5.371   0.416
51746W        W20164  32.909  23.993   2.852
51747W        W20165  40.498  27.503  14.363
51748W        W20166  17.197   3.835  13.984
51749W        W20167   2.433   5.827  11.387
51750W        W20168  31.896   3.801   3.865
51751W        W20169  34.878   1.308  13.909
51752W        W20170   8.372  12.172  10.499
51753W        W20171  25.530  15.636   3.338
51754W        W20172  35.944  22.714  14.496
51755W        W20173   1.343   0.452   2.300
51756W        W20174  40.459   0.780  11.557
51757W        W20175   3.868   0.776   1.886
51758W        W20176  15.276  12.266   1.748
51759W        W20177   5.249  11.171  11.605
51760W        W20178   0.828  10.296   2.225
51761W        W20179  40.396  28.623  10.480
51762W        W20180  10.648  34.876   4.818
51763W        W20181  19.177  44.878  11.436
51764W        W20182  27.136  31.025  13.815
51765W        W20183  28.441  15.682   3.739
51766W        W20184  44.365   1.473  12.059
51767W        W20185  39.359   2.247  12.380
51768W        W20186  41.826  30.006   3.666
51769W        W20187  37.370  11.232  13.539
51770W        W20188   4.348  24.161   1.325
51771W        W20189  15.298  24.636  12.077
51772W        W20190  28.551  20.677   0.835
51773W        W20191  41.489  26.100   0.268
51774W        W20192   6.902  38.327   3.353
51775W        W20193  41.847  29.963   1.795
51776W        W20194   0.434   7.907   3.655
51777W        W20195  27.446  40.004   2.882
51778W        W20196  16.583  42.861   3.251
51779W        W20197  10.191  17.229   2.860
51780W        W20198  15.302  11.343   0.413
51781W        W20199  43.324  36.025   5.217
51782W        W20200  19.628   5.820   4.784
51783W        W20201  40.901  22.019   3.162
51784W        W20202  14.252   6.771  13.032
51785W        W20203   7.841  22.224   3.158
51786W        W20204  38.994   8.684   1.831
51787W        W20205   4.740  26.578  12.580
51788W        W20206  15.127  34.944   2.301
51789W        W20207  42.306   6.239  13.540
51790W        W20208  36.899  31.984  12.049
51791W        W20209   6.799  14.322   0.259
51792W        W20210  20.643  41.344  12.966
51793W        W20211  36.027   4.297   4.118
51794W        W20212   7.390  39.451  11.414
51795W        W20213  12.324   0.414  10.590
51796W        W20214  31.988  35.006  12.545
51797W        W20215   6.817  13.620   4.328
51798W        W20216   4.209   4.727   1.410
51799W        W20217   1.293  18.731  11.126
51800W        W20218  36.593  12.135   2.844
51801W        W20219  38.924  38.339   1.441
51802W        W20220  43.828   2.762   4.643
51803W        W20221  41.359   4.916   0.906
51804W        W20222   4.272  23.184   4.154
51805W        W20223  25.596  44.833   3.215
51806W        W20224  36.544  31.917  10.940
51807W        W20225  41.505  34.371   4.341
51808W        W20226  30.528  18.663  11.881
51809W        W20227   1.251   3.714  10.505
51810W        W20228  26.460   3.293   2.855
51811W        W20229  38.500  19.228   2.875
51812W        W20230  15.722  24.012  13.454
51813W        W20231  24.198  42.954   2.748
51814W        W20232   1.477   2.363  13.961
51815W        W20233  35.944  24.145  12.029
51816W        W20234   0.932   2.829   2.789
51817W        W20235  25.055  38.560  13.917
51818W        W20236   0.255  32.614  10.426
51819W        W20237  29.923  15.167  13.372
51820W        W20238  24.077  35.888   0.427
51821W        W20239  42.356  25.497  12.507
51822W        W20240  13.241  11.695   0.746
51823W        W20241   7.741   4.887  13.058
51824W        W20242   4.825   3.392   1.746
51825W        W20243  22.694  14.755   3.856
51826W        W20244  44.322  34.397   1.339
51827W        W20245  11.843  44.955   2.396
51828W        W20246  21.750  42.468   4.756
51829W        W20247  31.018  15.579  10.498
51830W        W20248  42.353  17.192   0.317
51831W        W20249  12.357  18.587  12.440
51832W        W20250  27.105  33.895   1.351
51833W        W20251  13.143  38.537  14.947
51834W        W20252   8.845  25.537  10.554
51835W        W20253  32.963  15.175  14.383
51836W        W20254  32.136  19.761   3.376
51837W        W20255   2.929   3.833  14.501
51838W        W20256  10.866  27.522   4.162
51839W        W20257   8.716  33.385   4.683
51840W        W20258  29.134  11.179  10.458
51841W        W20259   2.814   7.183   3.363
51842W        W20260  42.958  34.046  12.842
51843W        W20261  43.282   3.339  11.557
51844W        W20262  16.254  27.980  14.383
51845W        W20263   8.678  27.000  14.357
51846W        W20264  22.133   3.417  13.914
51847W        W20265  11.631   2.284  14.495
51848W        W20266  21.235  12.218  11.444
51849W        W20267  40.356   4.942  12.418
51850W        W20268  11.249  21.524   2.682
51851W        W20269  18.742  13.117  10.409
51852W        W20270   1.369  42.837   0.761
51853W        W20271  13.659  40.930  10.573
51854W        W20272  42.789  15.818  12.950
51855W        W20273  17.608  35.604  14.029
51856W        W20274  12.717  24.650   1.398
51857W        W20275  12.663  14.097   4.322
51858W        W20276   3.748  32.501  11.967
51859W        W20277  21.108  42.298  13.931
51860W        W20278  17.165   0.906  14.276
51861W        W20279  24.067  10.858  14.465
51862W        W20280  28.084  32.488  12.045
51863W        W20281  34.603  17.573   1.406
51864W        W20282  19.134   3.254   3.649
51865W        W20283   7.889   6.869   0.914
51866W        W20284  15.816  13.642   1.861
51867W        W20285  16.768  42.356   3.315
51868W        W20286   9.172  25.698  13.492
51869W        W20287   9.766   9.674   4.218
51870W        W20288  34.431  18.114  12.895
51871W        W20289  17.772  28.059  13.910
51872W        W20290   2.792   7.792   1.789
51873W        W20291  16.191  44.350   2.376
51874W        W20292  44.309   4.889  12.382
51875W        W20293  38.970   3.820  10.421
51876W        W20294   6.745  17.251  10.638
51877W        W20295   2.336   4.743  14.369
51878W        W20296  26.142   6.244  14.386
51879W        W20297  41.487  11.728   1.410
51880W        W20298  39.061   6.754   1.851
51881W        W20299  35.565  19.544  13.920
51882W        W20300  15.294  38.446  14.788
51883W        W20301  22.719  22.043   4.297
51884W        W20302  26.505  16.232  13.798
51885W        W20303  20.182  20.204   1.930
51886W        W20304  15.704  43.474  12.895
51887W        W20305   5.765  37.943   0.863
51888W        W20306  27.528   4.722  13.935
51889W        W20307  17.695  34.943  12.977
51890W        W20308   7.320  33.968  10.621
51891W        W20309  21.660  17.696   3.331
51892W        W20310  29.127  34.869   1.220
51893W        W20311   6.304  29.962  11.512
51894W        W20312  30.574  32.902  14.336
51895W        W20313  22.212  42.317  10.510
51896W        W20314  44.850   5.904   1.396
51897W        W20315  45.000  10.280   2.709
51898W        W20316  32.511   5.891   2.329
51899W        W20317  36.899   1.435   2.891
51900W        W20318  28.111  35.526   3.834
51901W        W20319   3.831  43.895  12.866
51902W        W20320  28.941  42.903   3.815
51903W        W20321   9.746   1.782   1.836
51904W        W20322   0.747  10.280   1.769
51905W        W20323  25.519  19.234  12.849
51906W        W20324   0.271  40.308  12.092
51907W        W20325  19.197   8.873  14.868
51908W        W20326  37.496  33.408  13.332
51909W        W20327  24.645  33.452  11.915
51910W        W20328  29.573  35.509   0.875
51911W        W20329   0.773  42.864   2.685
51912W        W20330  31.423   3.385  13.795
51913W        W20331  34.392  10.310  13.519
51914W        W20332   8.894  24.037  10.944
51915W        W20333   1.958  38.918   0.940
51916W        W20334  41.352  20.697   4.204
51917W        W20335  17.136   5.268   2.319
51918W        W20336  36.907  24.541  11.448
51919W        W20337  35.564   9.210  12.012
51920W        W20338  27.944  27.987   1.788
51921W        W20339  32.437  40.996   2.356
51922W        W20340  20.045  26.553   1.328
51923W        W20341  19.582  10.168  13.859
51924W        W20342  22.666  36.898   3.809
51925W        W20343  17.172  13.620  10.943
51926W        W20344  28.057  22.733  14.307
51927W        W20345  34.908   9.765   4.773
51928W        W20346  40.375  16.194  13.958
51929W        W20347  24.156  42.363  13.431
51930W        W20348  27.447   1.437   4.134
51931W        W20349  36.956  23.204  12.950
51932W        W20350  36.498  16.272   2.699
51933W        W20351   6.198   3.295  12.394
51934W        W20352   2.928  24.720   4.827
51935W        W20353  24.106  12.325   2.859
51936W        W20354  13.273   1.350  11.062
51937W        W20355  29.656  36.386  14.929
51938W        W20356  10.205   5.919  13.024
51939W        W20357  41.820  24.200  13.464
51940W        W20358   7.882  23.206   2.293
51941W        W20359  19.539  26.009  12.093
51942W        W20360  32.475  34.897  13.047
51943W        W20361  11.808  15.159   4.335
51944W        W20362  29.172  25.074   4.667
51945W        W20363  21.219   1.324  12.063
51946W        W20364   6.359  19.737  13.329
51947W        W20365   1.800   3.272  12.463
51948W        W20366   5.364  39.857   3.825
51949W        W20367  19.613  17.290  14.340
51950W        W20368   0.299  43.498  11.419
51951W        W20369  21.643  30.434  10.913
51952W        W20370  17.652  24.129   2.671
51953W        W20371   7.180  39.549   4.126
51954W        W20372  24.155  38.439  14.921
51955W        W20373  40.526   6.424   4.183
51956W        W20374  19.091  14.271   0.735
51957W        W20375   1.430  36.511  12.458
51958W        W20376  30.604  36.921   1.342
51959W        W20377  10.750   5.294   1.841
51960W        W20378  34.997  24.183  13.500
51961W        W20379   2.724  41.521  12.923
51962W        W20380   7.825  33.922  12.858
51963W        W20381  23.009  31.143   3.751
51964W        W20382  15.119  21.065   1.925
51965W        W20383  24.007  27.172  10.520
51966W        W20384   2.811   4.887  10.417
51967W        W20385  39.035  17.639   9.987
51968W        W20386  31.568  39.811   4.351
51969W        W20387   0.875  19.669   1.292
51970W        W20388  17.256  14.671   2.807
51971W        W20389  27.197  44.767  12.443
51972W        W20390  28.018  14.636   4.304
51973W        W20391  15.753   3.784   5.282
51974W        W20392  28.618   4.795   1.311
51975W        W20393  32.458   8.877   4.611
51976W        W20394  22.222  42.330  14.412
51977W        W20395   3.839  23.591  10.507
51978W        W20396  16.697  32.402  10.566
51979W        W20397  10.733  37.909   4.259
51980W        W20398  43.870  26.995  13.904
51981W        W20399  44.887   2.964  12.473
51982W        W20400   9.708   2.782   3.229
51983W        W20401   5.242  21.523   1.282
51984W        W20402  30.001  17.130   0.767
51985W        W20403  11.163   2.396   2.362
51986W        W20404  35.483  36.492  12.573
51987W        W20405  31.922   0.374  14.977
51988W        W20406  43.335   4.757   0.389
51989W        W20407  12.735  15.145  10.443
51990W        W20408   7.832  17.689  12.369
51991W        W20409  39.409  14.732  11.494
51992W        W20410  34.442   7.818  10.956
51993W        W20411  44.819  26.533   4.617
51994W        W20412  13.330  13.194   0.913
51995W        W20413  16.143  24.012   2.183
51996W        W20414  37.442  23.496   4.806
51997W        W20415  10.848  28.048   4.694
51998W        W20416  33.548   6.703  10.618
51999W        W20417  33.463  38.975  13.524
52000W        W20418  40.031   9.297   0.287
52001W        W20419  43.497  24.211  11.021
52002W        W20420   9.326  39.378   0.447
52003W        W20421  43.777  42.400   0.899
52004W        W20422   3.823  13.339   2.718
52005W        W20423  27.446  44.335  10.465
52006W        W20424  21.706  18.081   0.903
52007W        W20425  14.650  18.174   1.882
52008W        W20426  30.058   9.287  13.506
52009W        W20427  40.034  40.549  12.914
52010W        W20428  37.398  14.210  12.387
52011W        W20429  41.494  28.079  12.951
52012W        W20430  37.912  30.980  14.328
52013W        W20431   7.756   4.292   1.838
52014W        W20432  42.380   1.414   4.775
52015W        W20433   4.742  42.480  13.984
52016W        W20434  27.133  19.714  12.488
52017W        W20435  21.602  10.243   1.782
52018W        W20436  17.295  32.567   1.871
52019W        W20437  30.938  44.338   3.852
52020W        W20438  44.817  15.820   9.948
52021W        W20439  24.010  34.441   3.278
52022W        W20440   7.794  33.623   2.768
52023W        W20441  36.462  27.644   3.352
52024W        W20442  18.733  35.504   0.806
52025W        W20443  44.855  14.216   3.283
52026W        W20444  15.275  27.943   4.625
52027W        W20445  43.804  23.174   0.956
52028W        W20446  32.516  26.601   1.904
52029W        W20447  42.932   9.177   0.302
52030W        W20448  17.075  36.463  10.972
52031W        W20449  32.523  26.639   2.251
52032W        W20450  11.128  10.154  13.330
52033W        W20451  26.953  43.933  13.387
52034W        W20452   6.912  42.385  10.894
52035W        W20453  35.943  27.117   1.260
52036W        W20454  37.931  18.784  14.497
52037W        W20455  13.737  25.563  10.590
52038W        W20456  32.922   4.216   2.325
52039W        W20457  44.992  31.058  10.520
52040W        W20458  10.312  21.220  12.381
52041W        W20459  10.856  22.248  13.414
52042W        W20460   5.837  37.049  11.012
52043W        W20461  11.647  20.716   4.213
52044W        W20462   4.410  40.528  11.516
52045W        W20463   4.322  32.634   2.359
52046W        W20464   5.370  39.856  11.021
52047W        W20465  32.454  22.746  14.494
52048W        W20466  34.465  20.041   0.801
52049W        W20467  28.566   1.447   1.234
52050W        W20468  36.399  34.378  14.502
52051W        W20469  12.848  33.521   1.751
52052W        W20470  40.996  34.536  13.459
52053W        W20471  37.521  28.062  14.445
52054W        W20472  10.723  25.503  12.474
52055W        W20473   1.806  39.914   0.746
52056W        W20474   5.892  10.236   3.328
52057W        W20475  20.558  17.775   0.406
52058W        W20476   8.306  44.425   2.726
52059W        W20477   3.218   4.237  14.409
52060W        W20478  42.779  37.870   4.158
52061W        W20479  24.125  12.615   1.299
52062W        W20480  41.913  15.781   1.860
52063W        W20481  23.686  36.363   0.438
52064W        W20482  15.739   8.182  12.461
52065W        W20483   2.924  19.183   3.657
52066W        W20484  37.335  32.106  10.955
52067W        W20485   9.728   6.296  13.359
52068W        W20486  37.403  18.778  11.991
52069W        W20487   1.261   9.672  11.041
52070W        W20488   9.647   8.727   1.783
52071W        W20489  11.709  24.144  13.884
52072W        W20490  39.903  43.367  11.574
52073W        W20491  26.015  40.512   3.371
52074W        W20492   0.454  40.010   4.254
52075W        W20493  43.925  36.972   3.211
52076W        W20494  44.265  43.363  11.038
52077W        W20495  15.740   2.255  14.442
52078W        W20496  24.184  35.590  10.522
52079W        W20497  36.940  17.239  13.833
52080W        W20498  23.646  23.578   3.244
52081W        W20499  30.016  28.134   0.754
52082W        W20500  39.464   3.423   1.862
52083W        W20501  32.024   5.881   2.782
52084W        W20502  35.014  36.547   0.745
52085W        W20503  31.535  41.379  11.424
52086W        W20504  39.056   5.739  14.889
52087W        W20505  36.543  34.921   4.835
52088W        W20506   4.261  18.102   4.752
52089W        W20507  30.489  23.600   1.376
52090W        W20508  39.530  24.197   4.252
52091W        W20509  33.020  21.230  13.019
52092W        W20510  19.086   7.337  12.479
52093W        W20511  13.290  19.742  10.451
52094W        W20512  34.597  20.213  11.589
52095W        W20513  27.525  41.844   1.443
52096W        W20514   8.305  10.193  11.982
52097W        W20515  28.655  32.493   0.390
52098W        W20516   8.232  43.844  14.285
52099W        W20517  12.845   8.769   4.158
52100W        W20518  29.936  39.935  14.365
52101W        W20519  40.509  40.010   1.332
52102W        W20520  15.146   8.825   1.407
52103W        W20521  13.703  18.641  11.405
52104W        W20522  20.217  20.647   1.437
52105W        W20523  44.384  44.007   1.793
52106W        W20524  17.132   8.355  14.356
52107W        W20525   1.278   6.216  12.075
52108W        W20526   3.302  43.946  14.957
52109W        W20527   4.840  25.964  14.419
52110W        W20528  18.567  34.907   5.160
52111W        W20529  22.096   4.751   2.294
52112W        W20530  10.171   4.777   2.352
52113W        W20531  41.473   8.331  10.524
52114W        W20532  30.505  19.096  10.560
52115W        W20533  38.357  43.919   0.351
52116W        W20534  23.664  39.822   5.301
52117W        W20535  33.966  24.623  11.531
52118W        W20536  24.512   8.701   3.672
52119W        W20537  18.644  13.203  11.875
52120W        W20538  32.115  28.100  13.442
52121W        W20539  19.201  31.474  10.971
52122W        W20540   0.342  27.476  14.909
52123W        W20541   8.893  16.175  14.339
52124W        W20542  18.099  11.633   1.257
52125W        W20543  37.014   4.756   1.252
52126W        W20544  38.035  21.703   2.834
52127W        W20545  21.693  23.004   1.339
52128W        W20546  14.288  19.707   0.940
52129W        W20547  28.503  18.559  14.828
52130W        W20548   8.742   6.712   1.344
52131W        W20549  24.055   6.198   1.401
52132W        W20550  26.696  34.466   3.381
52133W        W20551  36.494   6.702  14.846
52134W        W20552  22.516  38.856  10.521
52135W        W20553  30.578  10.718   4.147
52136W        W20554  32.083   0.971   4.811
52137W        W20555  31.438  34.872   4.601
52138W        W20556  12.141   0.821   3.193
52139W        W20557   0.436  34.963  12.533
52140W        W20558  36.540   2.416   3.835
52141W        W20559  19.100  43.365  13.344
52142W        W20560  32.024  15.300   1.238
52143W        W20561  37.473  10.205   4.700
52144W        W20562  44.327  40.338   2.339
52145W        W20563  10.703  22.638   3.333
52146W        W20564  44.864  38.499   4.758
52147W        W20565  32.598  44.894   4.354
52148W        W20566  28.941  23.985  10.891
52149W        W20567  11.262   4.421  13.400
52150W        W20568  20.619  19.250   1.415
52151W        W20569  31.913  23.640  11.509
52152W        W20570  19.669  11.257  10.603
52153W        W20571   2.244  18.159   4.191
52154W        W20572   2.934  14.233  13.473
52155W        W20573   0.955  11.769   4.216
52156W        W20574   0.812  22.524   4.743
52157W        W20575  18.177  30.442   1.217
52158W        W20576  25.587  28.604  12.038
52159W        W20577   0.451   7.314  14.960
52160W        W20578  39.912  18.790  10.912
52161W        W20579  28.520  35.433  11.597
52162W        W20580  27.461  31.152  11.916
52163W        W20581  30.996  36.893  12.559
52164W        W20582  23.137   3.871   0.760
52165W        W20583  22.187  20.744   0.455
52166W        W20584  12.331   3.218  13.816
52167W        W20585   2.879  13.281   2.409
52168W        W20586   6.343  18.569   1.790
52169W        W20587  11.257  35.473   0.336
52170W        W20588  13.737  44.868  10.628
52171W        W20589  29.063  27.665  11.108
52172W        W20590  40.040  39.014   0.918
52173W        W20591  19.608   7.902  11.068
52174W        W20592  22.061  22.656  13.459
52175W        W20593  30.084  17.632   4.773
52176W        W20594  40.312  32.968  12.924
52177W        W20595   6.791   6.692  12.573
52178W        W20596  29.651  43.923  14.847
52179W        W20597  23.617  39.820  12.505
52180W        W20598  24.019  35.972  13.890
52181W        W20599  11.260  13.246  12.970
52182W        W20600  17.598  37.547   3.344
52183W        W20601  44.893  12.692  12.041
52184W        W20602   4.778  15.229   4.784
52185W        W20603  20.065  25.532   2.414
52186W        W20604   2.772  20.265   1.408
52187W        W20605  36.859  28.993   3.671
52188W        W20606  16.717   2.298   2.720
52189W        W20607  44.847  29.112  11.908
52190W        W20608  23.616  25.537   0.438
52191W        W20609  14.134  44.798   1.839
52192W        W20610  13.116   6.404   4.756
52193W        W20611   5.202   7.686   4.329
52194W        W20612  26.507  18.674  12.851
52195W        W20613   9.870  38.905  11.955
52196W        W20614  30.659  15.768   2.243
52197W        W20615   0.352  25.511  10.464
52198W        W20616  27.650  23.566  13.986
52199W        W20617  36.371  36.855  14.433
52200W        W20618   4.854  14.220   2.381
52201W        W20619   0.844  11.306   2.887
52202W        W20620   9.264  38.989   1.924
52203W        W20621  25.978  15.142   2.362
52204W        W20622   0.770   8.333   1.384
52205W        W20623  43.354  40.400   0.342
52206W        W20624  19.185  18.735  12.470
52207W        W20625  12.794  40.849   3.204
52208W        W20626  27.996  39.537  13.310
52209W        W20627   3.447  43.909   1.797
52210W        W20628  16.316   2.387   2.183
52211W        W20629  17.252  42.872  14.844
52212W        W20630  28.140   6.901  11.595
52213W        W20631  43.398  38.525   1.215
52214W        W20632  27.099  16.090  11.577
52215W        W20633   1.455  18.251   1.311
52216W        W20634  20.717   1.455  14.278
52217W        W20635  44.926  18.253   3.247
52218W        W20636  33.488  31.137  14.878
52219W        W20637  16.592   4.922   2.314
52220W        W20638  37.360  20.270   3.766
52221W        W20639  23.068  33.942   4.669
52222W        W20640  19.192  42.416  14.005
52223W        W20641  25.969  13.758  12.440
52224W        W20642   1.950  40.431   4.831
52225W        W20643   1.891  33.620   2.850
52226W        W20644  23.553  39.326   1.853
52227W        W20645   3.453  10.875  14.440
52228W        W20646  27.617  34.534  13.424
52229W        W20647  44.484  26.530  12.907
52230W        W20648   8.237  28.010  13.988
52231W        W20649   0.473  22.513   1.766
52232W        W20650  19.041  34.080   4.219
52233W        W20651   4.941  42.851   2.324
52234W        W20652  23.235  25.474  11.918
52235W        W20653   2.233  22.009  11.120
52236W        W20654   8.315  10.235   1.872
52237W        W20655   1.339  24.706  11.607
52238W        W20656  13.245  16.691  13.961
52239W        W20657  41.914  35.396   3.275
52240W        W20658  18.205   0.340  13.329
52241W        W20659  33.434   3.797   2.758
52242W        W20660  39.413  44.394  13.528
52243W        W20661  13.771  42.427  11.581
52244W        W20662  13.620  35.906  13.351
52245W        W20663  15.735  15.244   1.387
52246W        W20664  33.131  13.265   3.163
52247W        W20665  10.176  39.052  10.093
52248W        W20666  29.092  15.750  14.870
52249W        W20667  40.440   8.783  11.892
52250W        W20668  19.673  23.212  14.328
52251W        W20669   5.387  43.767  10.485
52252W        W20670   0.792  43.438   4.775
52253W        W20671   7.334   7.357   4.634
52254W        W20672  20.687  39.451   0.824
52255W        W20673  36.092  34.925   0.770
52256W        W20674   4.259   1.301  13.499
52257W        W20675  42.390   2.400  12.516
52258W        W20676  32.576  42.993  12.949
52259W        W20677  24.225  29.163   1.741
52260W        W20678  19.649  12.635   3.672
52261W        W20679  31.992   2.283  11.016
52262W        W20680  29.550  39.357  13.529
52263W        W20681  36.884   5.782   4.675
52264W        W20682  37.958  23.131  10.510
52265W        W20683  20.213   2.373  11.990
52266W        W20684  10.231   4.818  14.866
52267W        W20685  18.749  11.825   3.283
52268W        W20686   8.398   2.388  14.290
52269W        W20687  23.995   0.341   4.631
52270W        W20688  10.288   2.798   2.804
52271W        W20689  36.095  33.513  14.031
52272W        W20690  21.151  11.862   3.272
52273W        W20691   3.770  30.136  10.491
52274W        W20692  34.003  17.103   3.275
52275W        W20693  33.992  34.882  10.643
52276W        W20694  36.887  44.496  14.978
52277W        W20695  25.111   7.705   2.394
52278W        W20696  41.508  23.047  13.827
52279W        W20697  29.938  34.908  12.476
52280W        W20698  35.466  17.708  14.499
52281W        W20699  34.609  34.602   0.309
52282W        W20700  34.969  42.494  13.827
52283W        W20701   9.759  20.749   3.815
52284W        W20702  35.366  41.043   3.711
52285W        W20703  43.389  40.528  11.451
52286W        W20704   2.275   5.408  13.496
52287W        W20705  21.527  37.868   4.824
52288W        W20706  32.139  16.812  11.914
52289W        W20707  24.490  11.131  14.345
52290W        W20708  33.530  34.417   0.797
52291W        W20709  40.965  17.267  14.501
52292W        W20710  22.224  41.316   2.842
52293W        W20711  37.536  44.788   2.794
52294W        W20712  26.469  11.649  13.534
52295W        W20713  36.430  14.304  13.959
52296W        W20714  23.225  25.516  11.055
52297W        W20715  44.962  26.013   1.749
52298W        W20716   4.772  39.513   9.945
52299W        W20717  41.029  26.204  11.507
52300W        W20718  11.348  16.805  12.441
52301W        W20719   1.805  29.045  10.446
52302W        W20720  24.571  11.231   1.225
52303W        W20721   0.827  33.960   2.892
52304W        W20722   7.373  41.511   3.757
52305W        W20723  24.632  26.113  10.515
52306W        W20724  30.978   3.228   3.733
52307W        W20725  11.784  25.531  11.373
52308W        W20726   9.352  34.476  10.640
52309W        W20727   6.295  14.689   4.803
52310W        W20728   2.385   1.779   4.284
52311W        W20729   5.419   5.328  14.458
52312W        W20730  30.619   4.249   4.150
52313W        W20731   0.381  12.749  14.828
52314W        W20732  12.612  33.599   0.744
52315W        W20733   0.322   6.862   2.781
52316W        W20734  39.875  39.024   4.171
52317W        W20735   4.821  14.761   4.684
52318W        W20736  28.981  30.592  11.463
52319W        W20737  31.917  23.718   0.428
52320W        W20738  38.336  29.160   0.358
52321W        W20739  36.379  11.752  13.816
52322W        W20740  30.550  35.989  14.385
52323W        W20741  21.239  30.034   2.217
52324W        W20742   1.921  42.358   0.306
52325W        W20743  35.493  10.830  14.337
52326W        W20744   9.244  23.552   2.885
52327W        W20745  11.716  18.764  13.816
52328W        W20746   4.751  10.378   1.707
52329W        W20747  20.226   4.343  14.300
52330W        W20748  11.307  15.181  13.804
52331W        W20749  38.407  39.808   0.777
52332W        W20750  26.082  38.554  12.033
52333W        W20751  13.245  19.598  12.547
52334W        W20752  40.313  15.661   1.294
52335W        W20753  28.024  39.458   4.203
52336W        W20754  21.185  30.624   3.329
52337W        W20755   0.749   8.301  10.999
52338W        W20756  11.727  33.100  12.441
52339W        W20757   7.773  41.475  11.026
52340W        W20758   2.760  13.283  10.954
52341W        W20759   6.813  38.383   0.775
52342W        W20760   3.374   1.910  12.825
52343W        W20761   7.739  41.490   5.312
52344W        W20762  15.116  17.107  13.939
52345W        W20763  11.352  42.811  13.899
52346W        W20764  24.195  33.954   3.215
52347W        W20765   6.269  14.695  13.478
52348W        W20766  11.322  25.210  12.914
52349W        W20767  38.469  39.485   0.760
52350W        W20768   1.480  23.082  10.995
52351W        W20769   6.289  31.925   3.287
52352W        W20770  27.562  37.024   3.647
52353W        W20771   5.850  40.427   1.852
52354W        W20772   6.203  29.668  14.435
52355W        W20773   2.724  36.525   1.888
52356W        W20774  25.539  34.427  12.420
52357W        W20775  23.209  11.341   4.280
52358W        W20776  31.486  42.842   3.233
52359W        W20777  34.112   6.246  13.512
52360W        W20778   2.861  26.575  12.905
52361W        W20779   6.753   7.202  13.352
52362W        W20780  26.590  41.392   3.284
52363W        W20781  22.103  29.123   0.856
52364W        W20782   1.946  19.757   4.626
52365W        W20783   8.313  36.063   1.749
52366W        W20784  38.474  26.613   3.340
52367W        W20785  31.617  37.379  11.497
52368W        W20786   4.328   6.278  11.928
52369W        W20787  30.499  25.989   1.334
52370W        W20788  39.520  17.779   4.321
52371W        W20789  14.801  25.624   2.727
52372W        W20790  40.476  24.092   1.305
52373W        W20791  30.097   0.970  10.961
52374W        W20792  36.026  17.285   4.339
52375W        W20793  19.234  37.408   4.725
52376W        W20794  15.811  17.228   1.412
52377W        W20795  20.157  22.124   4.145
52378W        W20796  41.923  33.475  14.860
52379W        W20797   9.865  10.651  13.984
52380W        W20798  15.260  14.176  11.011
52381W        W20799  38.822  42.814   2.368
52382W        W20800  42.825  30.465   0.423
52383W        W20801  23.649  11.331  14.809
52384W        W20802  40.002  23.663   4.234
52385W        W20803  24.555  31.486   3.661
52386W        W20804  31.981  30.009  13.509
52387W        W20805  13.815  28.067  10.573
52388W        W20806  19.640  20.703  10.405
52389W        W20807  21.063  35.418   4.774
52390W        W20808  30.559   1.806   3.656
52391W        W20809   4.941  34.464  12.915
52392W        W20810  36.542  38.368  10.610
52393W        W20811  18.581  41.470  13.000
52394W        W20812  43.801  42.821  12.901
52395W        W20813   6.737  10.675  13.017
52396W        W20814  42.482  41.507  10.994
52397W        W20815  17.079   5.765  13.444
52398W        W20816  32.140  16.619   3.818
52399W        W20817  28.104  35.064   2.389
52400W        W20818  12.733  23.188  14.007
52401W        W20819   9.826  25.633   3.240
52402W        W20820  37.394   3.291   2.231
52403W        W20821  15.609  36.572  13.802
52404W        W20822   6.225  44.463  10.966
52405W        W20823  12.793  32.094  14.802
52406W        W20824  29.516  29.990   0.261
52407W        W20825  10.759  31.067   1.241
52408W        W20826  24.491   8.303  14.419
52409W        W20827  21.025  12.662  11.124
52410W        W20828  25.136  15.791  13.911
52411W        W20829  33.035  16.087   2.786
52412W        W20830   0.254  17.120   3.328
52413W        W20831  14.295  43.283   2.224
52414W        W20832  25.701  31.953  12.360
52415W        W20833  12.777  37.873  13.415
52416W        W20834   7.705  11.360  11.885
52417W        W20835  38.438  34.010  14.905
52418W        W20836  36.469   2.395  12.460
52419W        W20837  21.069  41.875   1.323
52420W        W20838   2.830  17.687   3.828
52421W        W20839   7.774  24.662   2.400
52422W        W20840  33.388   1.749   3.813
52423W        W20841  17.596  20.546   2.898
52424W        W20842   6.863  38.077  14.407
52425W        W20843   7.190  21.148   1.774
52426W        W20844  31.925  11.141  11.494
52427W        W20845  13.271  37.079  11.114
52428W        W20846  32.919  27.008  12.913
52429W        W20847  11.867  20.611   2.277
52430W        W20848  30.537  31.021   5.267
52431W        W20849  41.986   0.339   1.794
52432W        W20850  21.663  23.051   0.442
52433W        W20851  32.918  27.521   4.236
52434W        W20852  43.393  15.126   2.738
52435W        W20853  24.058   4.796   2.215
52436W        W20854  33.129  21.626   2.333
52437W        W20855   1.366  21.044   1.309
52438W        W20856  28.947  42.801  14.336
52439W        W20857  22.997   2.730   4.720
52440W        W20858  23.130  12.148   2.683
52441W        W20859   1.791  10.867  14.284
52442W        W20860  32.628  28.100  13.440
52443W        W20861   4.879  27.991  11.910
52444W        W20862  26.142  16.744   1.892
52445W        W20863  25.142  38.514   0.337
52446W        W20864  25.095  27.527  11.055
52447W        W20865  35.953  32.918   0.754
52448W        W20866  36.842  33.093   2.903
52449W        W20867   5.310  43.810  10.959
52450W        W20868   5.877  44.371   0.877
52451W        W20869  42.961   3.261   3.355
52452W        W20870  42.823  39.026  13.456
52453W        W20871  14.675   2.375  13.958
52454W        W20872  40.966  21.200  13.482
52455W        W20873  27.459   0.333  11.908
52456W        W20874  20.565  35.370  13.993
52457W        W20875  24.657  30.655  10.553
52458W        W20876  24.211  37.861  11.101
52459W        W20877  36.885  38.049   4.278
52460W        W20878   5.370  35.529  14.498
52461W        W20879   4.252   0.891   0.417
52462W        W20880  16.181   2.233  11.954
52463W        W20881  22.596   6.701  10.555
52464W        W20882   8.259  28.666   2.321
52465W        W20883  44.909  42.320  12.522
52466W        W20884  38.983  28.494  13.392
52467W        W20885   7.205  28.454   1.911
52468W        W20886   0.260  10.834   2.716
52469W        W20887  10.775  16.747  14.786
52470W        W20888  43.369  31.471   0.479
52471W        W20889  10.641   2.770   0.932
52472W        W20890  34.444   8.207   0.780
52473W        W20891   6.210  15.260   3.820
52474W        W20892   3.378  27.108   1.823
52475W        W20893  31.150   7.367   2.385
52476W        W20894   2.284   8.281  11.101
52477W        W20895  11.194   7.382   0.806
52478W        W20896  31.067   8.854  14.493
52479W        W20897  14.608  29.567   4.227
52480W        W20898  32.633  14.169   5.119
52481W        W20899  26.471   5.406   0.293
52482W        W20900  32.064  31.955   2.276
52483W        W20901  20.739  17.686  13.353
52484W        W20902  39.319  27.691  14.420
52485W        W20903  34.381  14.136  14.826
52486W        W20904  30.000   8.215  12.462
52487W        W20905  18.768  36.374  12.533
52488W        W20906  39.965  17.255   1.368
52489W        W20907  13.128  35.969   5.292
52490W        W20908  40.875  38.884   4.165
52491W        W20909   2.811   6.894  12.093
52492W        W20910  31.080  28.077  11.495
52493W        W20911  39.002  10.776   0.840
52494W        W20912  29.599  41.401   0.795
52495W        W20913  26.480  42.367   2.719
52496W        W20914  33.091   9.797   2.800
52497W        W20915  27.052  30.432  14.808
52498W        W20916  11.670  40.329  12.563
52499W        W20917  27.548   6.816   2.248
52500W        W20918  23.729  43.458  13.384
52501W        W20919  20.034  42.005  10.455
52502W        W20920  43.866  31.973  12.959
52503W        W20921  35.854  39.434  13.797
52504W        W20922  30.131  16.183   4.150
52505W        W20923  28.622   2.317  11.977
52506W        W20924  10.276  18.094   0.391
52507W        W20925  29.092  16.200  14.469
52508W        W20926  37.950  44.900   3.779
52509W        W20927   1.345  15.744   4.731
52510W        W20928  11.133   9.880  10.992
52511W        W20929  23.079  15.739   4.265
52512W        W20930  15.811  38.363  10.156
52513W        W20931   2.434  25.620  12.379
52514W        W20932   8.670   1.859   4.264
52515W        W20933  30.448  23.703  13.536
52516W        W20934  35.475  14.642   1.807
52517W        W20935   8.693  18.689  13.466
52518W        W20936  27.137  21.667  14.318
52519W        W20937  44.368  28.979   5.242
52520W        W20938  11.787   0.436  11.521
52521W        W20939   0.776  37.526   0.937
52522W        W20940  10.635  28.533  12.477
52523W        W20941   5.709  10.646   3.866
52524W        W20942  14.630  27.944   1.774
52525W        W20943  42.316  12.349   2.297
52526W        W20944  38.414   6.708   2.327
52527W        W20945  31.449   4.396  14.927
52528W        W20946   1.470  29.460   4.314
52529W        W20947  23.034  18.777   3.711
52530W        W20948  21.710   1.255  11.386
52531W        W20949   7.734  33.550   3.667
52532W        W20950   6.187  13.719  11.435
52533W        W20951  32.910  23.138   2.359
52534W        W20952  30.454  10.728   2.823
52535W        W20953   7.768  31.523  13.013
52536W        W20954   4.733  26.646  10.456
52537W        W20955  44.372  41.823   2.355
52538W        W20956   9.713  13.785   3.204
52539W        W20957  36.857  36.455   2.889
52540W        W20958  37.428   0.402   2.194
52541W        W20959  15.100  41.508  13.388
52542W        W20960  21.134  14.739  11.103
52543W        W20961  15.764  40.814   2.693
52544W        W20962  39.066  41.403  11.512
52545W        W20963  35.949  11.731   4.765
52546W        W20964   0.270  13.276  13.367
52547W        W20965   9.251   4.262   1.718
52548W        W20966  42.935  16.075  13.516
52549W        W20967   1.818  11.210   0.365
52550W        W20968  24.640  40.836  14.816
52551W        W20969  38.828   8.846  13.491
52552W        W20970  36.066  42.471  12.845
52553W        W20971  27.012  17.071   3.203
52554W        W20972  37.073  29.098  14.009
52555W        W20973  25.629  16.653   1.912
52556W        W20974   9.721  36.423   0.751
52557W        W20975  15.317  32.504   4.626
52558W        W20976  20.764   6.836   2.273
52559W        W20977  34.389  44.813   4.198
52560W        W20978  29.451  23.165  13.820
52561W        W20979  21.631   3.940   0.930
52562W        W20980   0.776  28.641  14.760
52563W        W20981  31.509   5.750   1.250
52564W        W20982  36.845  29.966   4.201
52565W        W20983  16.698   2.784  11.049
52566W        W20984   1.964  35.062  12.835
52567W        W20985  30.918  10.755   0.474
52568W        W20986  43.428  25.121   0.864
52569W        W20987   6.921   3.864   3.819
52570W        W20988  22.019  20.671  14.279
52571W        W20989  11.290  33.902   2.696
52572W        W20990  36.987  15.269  13.990
52573W        W20991  13.202  30.530  12.421
52574W        W20992  25.096  39.814   4.156
52575W        W20993   0.474  11.188  11.499
52576W        W20994   5.821  33.549  10.912
52577W        W20995  24.010  30.638  11.476
52578W        W20996  26.128  39.332   4.315
52579W        W20997  41.310   9.290  12.076
52580W        W20998  44.871  26.979  14.285
52581W        W20999  10.254  22.520  10.495
52582W        W21000  38.496   0.955   4.716
52583W        W21001  15.101  34.079   0.844
52584W        W21002  40.450  28.650  10.904
52585W        W21003  38.964  32.013   3.360
52586W        W21004  10.794   5.790   3.310
52587W        W21005  22.072   4.343   2.412
52588W        W21006  14.096   2.439  14.014
52589W        W21007  20.054  28.664  12.463
52590W        W21008   2.346   4.935  12.445
52591W        W21009  18.103  27.609  10.960
52592W        W21010   0.321  28.047  14.849
52593W        W21011  20.622  10.753  13.036
52594W        W21012   5.361  23.625  12.985
52595W        W21013  15.112  21.051  13.328
52596W        W21014  21.164   8.864   0.860
52597W        W21015  21.748  14.788   0.919
52598W        W21016  13.147  33.604   2.284
52599W        W21017  13.304  16.279  14.452
52600W        W21018  42.512  11.137   3.748
52601W        W21019   6.282  11.167  12.907
52602W        W21020  27.528   9.865   5.789
52603W        W21021  42.330  18.627   2.217
52604W        W21022  25.178  37.372   5.238
52605W        W21023   5.275  28.061   2.204
52606W        W21024  20.207  30.107   2.771
52607W        W21025  25.989  33.010  13.544
52608W        W21026  10.853  21.106   3.220
52609W        W21027  28.042  15.221   0.840
52610W        W21028   7.911  11.772   2.693
52611W        W21029  34.106  11.835  12.575
52612W        W21030  43.411  19.762  13.365
52613W        W21031  15.150  18.678   2.231
52614W        W21032  22.722  29.036   4.247
52615W        W21033  37.357  37.979   3.240
52616W        W21034  13.209  39.449  14.847
52617W        W21035   0.456  44.408  13.827
52618W        W21036  33.524  12.227  14.322
52619W        W21037  42.023  15.733   3.672
52620W        W21038  14.654  26.065   1.831
52621W        W21039  16.211   6.778  11.115
52622W        W21040  12.614   3.219  13.976
52623W        W21041  27.005  40.848  10.419
52624W        W21042  10.334  44.988  14.352
52625W        W21043  36.037  41.536  11.536
52626W        W21044  44.451  17.664  12.350
52627W        W21045   3.743  23.704   1.773
52628W        W21046  31.630  39.061  11.455
52629W        W21047  11.640  13.250   3.800
52630W        W21048  18.223  36.908  14.337
52631W        W21049  11.335   4.434  10.473
52632W        W21050  17.762  21.738  14.023
52633W        W21051  26.656  34.383   1.238
52634W        W21052  20.586  26.131   9.961
52635W        W21053  15.601   9.234   0.835
52636W        W21054  43.883  17.779   4.615
52637W        W21055  39.905  15.218   1.380
52638W        W21056  42.393  44.775  13.461
52639W        W21057   2.264  25.013   4.316
52640W        W21058  20.092  16.583   0.739
52641W        W21059  42.464  19.106   4.136
52642W        W21060   1.760  37.831  14.288
52643W        W21061   6.240   3.245  11.448
52644W        W21062  41.441  14.588  14.302
52645W        W21063  16.316   3.786   4.118
52646W        W21064  25.057  39.398   0.257
52647W        W21065  24.991  28.598   3.384
52648W        W21066  39.998  34.043  14.304
52649W        W21067   1.381  24.051   1.780
52650W        W21068  10.704  34.403   1.252
52651W        W21069  10.878  10.331  13.906
52652W        W21070   0.328   0.330  14.908
52653W        W21071   2.829   7.677  13.454
52654W        W21072  41.466  17.726   4.270
52655W        W21073  30.567   9.691  13.509
52656W        W21074  26.659  24.537   3.375
52657W        W21075   2.750  26.592  13.413
52658W        W21076  14.759   5.804  14.824
52659W        W21077  28.636  36.406   4.649
52660W        W21078  26.955   3.724  13.396
52661W        W21079  23.617  17.076  13.833
52662W        W21080  40.865   2.873   4.698
52663W        W21081  10.645  14.138   4.250
52664W        W21082   5.828  40.413   1.394
52665W        W21083  12.791  32.447   2.707
52666W        W21084   6.835  20.156   0.799
52667W        W21085  16.127   8.227   4.633
52668W        W21086  10.384  35.525  14.846
52669W        W21087  44.799  12.689  12.569
52670W        W21088  39.487  25.216   0.957
52671W        W21089   8.775  42.836  12.031
52672W        W21090  15.578  12.852   5.093
52673W        W21091  24.692  41.460   4.132
52674W        W21092  31.921  40.370  11.427
52675W        W21093  35.964  44.280  14.965
52676W        W21094  44.913  22.552   3.833
52677W        W21095  38.844  44.467   1.925
52678W        W21096  42.867  22.154  14.382
52679W        W21097   1.888   6.392  14.784
52680W        W21098  16.130  25.015   0.423
52681W        W21099  25.632  15.192  10.496
52682W        W21100  26.507  33.074   3.283
52683W        W21101   6.843  26.543   5.216
52684W        W21102  27.033  35.405  11.391
52685W        W21103  31.944  18.646   3.270
52686W        W21104  34.092  39.818   0.264
52687W        W21105  35.559  29.577  12.558
52688W        W21106  44.835   0.794  12.503
52689W        W21107   3.873  23.689   4.333
52690W        W21108  20.591   5.333   3.870
52691W        W21109  32.936  38.931  14.873
52692W        W21110  16.114   3.295   1.240
52693W        W21111  28.438  38.907   2.403
52694W        W21112  29.085  33.401  13.826
52695W        W21113  28.007  41.996  14.470
52696W        W21114  19.754  12.255   1.848
52697W        W21115  41.800  15.790   0.303
52698W        W21116  42.336  13.139  14.876
52699W        W21117  18.640  40.923   0.942
52700W        W21118  13.136  42.886  13.884
52701W        W21119   2.285  15.152   3.355
52702W        W21120  32.022  26.542  13.876
52703W        W21121   7.415  14.755  10.635
52704W        W21122   3.296  22.210   0.901
52705W        W21123  42.409  42.514  12.010
52706W        W21124  38.822  36.876  14.766
52707W        W21125  41.929  37.858  13.493
52708W        W21126  19.579  15.624  10.601
52709W        W21127   1.933  35.420   4.685
52710W        W21128  30.988   6.696  12.983
52711W        W21129   9.857  43.485  14.899
52712W        W21130  38.055  19.089   4.281
52713W        W21131   6.733  24.166  13.017
52714W        W21132  18.696  44.945  14.408
52715W        W21133  26.665  28.646  12.489
52716W        W21134  24.015  31.402  12.825
52717W        W21135  15.699  21.102  12.047
52718W        W21136  18.236   3.221  10.083
52719W        W21137  10.755  39.436   1.872
52720W        W21138   3.824   5.300  13.485
52721W        W21139  25.686  36.981   3.738
52722W        W21140   0.306   2.942  14.284
52723W        W21141   3.820   4.703   3.774
52724W        W21142  33.425   5.844   1.448
52725W        W21143  25.588  29.111  10.014
52726W        W21144  26.165   6.844  10.895
52727W        W21145  19.092  26.143  14.761
52728W        W21146   6.316  21.149   3.237
52729W        W21147  10.201  42.940  11.004
52730W        W21148  12.197  12.753  14.825
52731W        W21149  36.538   6.890   0.274
52732W        W21150  39.403  37.867   4.707
52733W        W21151  15.686  21.167   3.702
52734W        W21152  25.180   3.927   4.141
52735W        W21153  42.810   9.880  12.936
52736W        W21154  13.658  18.731  12.037
52737W        W21155   5.427   6.807   2.188
52738W        W21156  41.446  19.553   1.320
52739W        W21157  24.663  15.629   4.801
52740W        W21158  36.502   1.862   3.303
52741W        W21159  27.473  14.665  11.435
52742W        W21160  21.524   0.361   4.204
52743W        W21161  34.102  28.463  13.489
52744W        W21162  12.355  42.420  14.777
52745W        W21163   1.796  37.865  11.450
52746W        W21164  41.829  15.289  13.957
52747W        W21165  14.610   6.394  14.782
52748W        W21166  31.571  23.042   2.274
52749W        W21167  42.900  13.716   4.133
52750W        W21168  40.358   3.770   1.344
52751W        W21169  24.131   7.772   2.891
52752W        W21170  20.555   9.285   3.675
52753W        W21171  41.979  37.378   1.432
52754W        W21172  11.777   1.809   1.908
52755W        W21173  16.794  12.274   4.211
52756W        W21174  35.381  24.153  11.610
52757W        W21175  36.978  30.524  12.885
52758W        W21176  33.989  24.618  12.983
52759W        W21177  34.873  40.463   4.148
52760W        W21178  15.674  17.195  11.956
52761W        W21179  43.850   0.356   2.187
52762W        W21180  40.490   7.371  12.520
52763W        W21181   9.657  18.085  11.009
52764W        W21182  16.090  10.314   0.370
52765W        W21183  32.633  29.615   3.853
52766W        W21184  38.539   3.440   2.276
52767W        W21185  30.941  27.012  11.911
52768W        W21186  42.019  39.445  14.464
52769W        W21187  29.636  21.750   4.313
52770W        W21188  23.701  38.529  11.489
52771W        W21189  15.635   2.965   4.265
52772W        W21190  21.667  18.258   0.273
52773W        W21191  10.745   7.761  12.021
52774W        W21192   7.401  35.905   3.847
52775W        W21193   7.195  14.801   2.290
52776W        W21194  17.195  42.321  14.763
52777W        W21195  14.327  21.571   0.954
52778W        W21196  22.730   6.209  13.330
52779W        W21197  23.157   2.877   4.226
52780W        W21198  24.634  11.694  14.374
52781W        W21199  30.057  19.259   3.361
52782W        W21200  44.302  12.781  13.453
52783W        W21201  28.560  41.370  14.359
52784W        W21202  44.312  34.494   1.760
52785W        W21203  10.249  27.054  11.483
52786W        W21204  11.788  42.523   3.319
52787W        W21205  33.526  18.581  11.576
52788W        W21206  18.650  13.330  12.424
52789W        W21207   9.860  20.160  13.530
52790W        W21208  28.157   5.421   2.814
52791W        W21209  13.827  42.498  11.870
52792W        W21210  43.772  31.062  11.481
52793W        W21211  16.097  21.704  13.350
52794W        W21212  18.185  16.218   1.260
52795W        W21213  35.893  26.964   0.907
52796W        W21214   1.351  42.411   3.859
52797W        W21215  44.788  38.912   4.679
52798W        W21216  28.444  21.143  11.425
52799W        W21217   9.697  11.751   2.683
52800W        W21218  10.829  10.312  12.409
52801W        W21219  24.501  20.573  14.820
52802W        W21220  11.345   6.384   2.767
52803W        W21221  16.306   9.797   2.845
52804W        W21222  19.179  11.763   5.669
52805W        W21223  16.156   0.382  14.422
52806W        W21224  41.321   4.272   0.901
52807W        W21225  12.347  15.727  12.041
52808W        W21226  30.434  22.046   4.751
52809W        W21227   0.966  29.997   4.815
52810W        W21228  42.997  19.572   4.669
52811W        W21229   7.303  12.338  14.290
52812W        W21230   6.250  37.893  13.431
52813W        W21231  38.340  14.272   3.259
52814W        W21232  19.200  40.419  10.596
52815W        W21233  14.759  21.601  11.561
52816W        W21234  11.127  33.022   4.838
52817W        W21235  17.783  31.102  11.531
52818W        W21236  20.526  29.605   4.184
52819W        W21237  12.297  39.016   2.687
52820W        W21238  30.506  25.214  10.952
52821W        W21239  30.647  23.689  13.877
52822W        W21240  40.401   3.235   4.309
52823W        W21241  43.454  12.204   0.791
52824W        W21242   2.781  31.098  11.934
52825W        W21243   7.795  38.853  10.454
52826W        W21244   0.793  20.689  13.348
52827W        W21245   2.434  23.191  11.029
52828W        W21246   1.905   0.461  13.407
52829W        W21247   5.731  35.531  10.943
52830W        W21248  14.748   0.461  11.018
52831W        W21249  43.881  21.142   0.872
52832W        W21250   0.432  19.087   3.326
52833W        W21251  35.013  41.892   0.812
52834W        W21252   7.676   8.384  13.950
52835W        W21253  20.252  29.002   2.419
52836W        W21254   9.227   1.360   4.613
52837W        W21255  37.858  31.584  13.439
52838W        W21256   4.273  19.707  12.908
52839W        W21257  30.621  44.389   2.270
52840W        W21258  18.067  33.083  14.363
52841W        W21259   7.701   8.901  11.468
52842W        W21260  32.137  24.061   2.868
52843W        W21261  20.600   0.359  13.493
52844W        W21262  24.607  33.567  10.405
52845W        W21263  43.888  19.773   2.253
52846W        W21264  31.525  21.549  13.374
52847W        W21265  28.129  21.535   1.427
52848W        W21266  42.967  35.858  14.988
52849W        W21267  44.320  29.499  13.005
52850W        W21268   5.339  22.699   4.285
52851W        W21269   1.867  35.411  12.500
52852W        W21270  14.672  20.678  14.764
52853W        W21271  21.757  44.902  10.560
52854W        W21272  14.641   3.426   3.174
52855W        W21273  22.508  21.110   2.837
52856W        W21274  14.222   2.405   0.959
52857W        W21275  29.517  20.692  11.478
52858W        W21276  32.028  30.459  13.903
52859W        W21277   7.781   2.435  13.840
52860W        W21278  14.102  23.177   1.339
52861W        W21279  10.180  17.693   4.806
52862W        W21280  19.542   3.427  14.490
52863W        W21281  40.399  36.988   2.792
52864W        W21282  34.586  21.255   1.767
52865W        W21283  24.577  11.193   4.343
52866W        W21284  33.912  18.058   1.796
52867W        W21285  12.809  32.568   1.888
52868W        W21286  29.549   9.852   0.459
52869W        W21287  37.389  16.168  12.497
52870W        W21288  40.051   9.877  14.414
52871W        W21289  36.870   0.769  11.067
52872W        W21290  15.798   9.321   2.721
52873W        W21291  39.315   9.700   4.185
52874W        W21292  42.436  32.437  14.864
52875W        W21293   9.696  22.507  10.482
52876W        W21294  14.690  34.893   1.377
52877W        W21295  29.567  12.253   4.276
52878W        W21296   4.857  20.029   2.833
52879W        W21297  16.651  15.227  11.514
52880W        W21298  14.112  12.259   2.204
52881W        W21299  33.421   5.754   2.760
52882W        W21300  30.997  10.637   2.851
52883W        W21301   8.671   6.275  14.929
52884W        W21302  28.045  41.954  10.512
52885W        W21303  10.352  42.512   2.727
52886W        W21304  37.361  33.918   2.201
52887W        W21305  14.314  24.486  13.962
52888W        W21306  32.972  42.475  14.796
52889W        W21307   2.799  23.539  12.420
52890W        W21308   8.820  40.394   2.373
52891W        W21309  15.260  21.660   1.887
52892W        W21310  34.397  23.690   4.268
52893W        W21311   5.320   5.278  11.876
52894W        W21312   3.875  20.624  12.026
52895W        W21313  30.645  13.179  11.551
52896W        W21314  42.846  26.646   0.309
52897W        W21315   2.434  11.351  14.887
52898W        W21316  25.133  17.576  10.961
52899W        W21317  27.578   7.249   4.267
52900W        W21318  12.823  28.601  10.428
52901W        W21319   0.966  17.566   4.146
52902W        W21320  23.521   7.846   0.358
52903W        W21321  34.008   7.196  11.571
52904W        W21322  40.911  32.477   4.340
52905W        W21323  24.481  17.178   3.853
52906W        W21324  19.718  21.661   3.170
52907W        W21325  44.869  31.110  13.525
52908W        W21326  12.753   6.732  11.510
52909W        W21327  22.716   0.765  10.905
52910W        W21328  13.700   5.349   3.644
52911W        W21329   1.874  27.032  12.361
52912W        W21330  22.665  28.475   3.649
52913W        W21331  39.544  34.984   2.185
52914W        W21332  32.140  41.857  14.906
52915W        W21333  17.160  18.065  14.886
52916W        W21334  37.834  34.612  12.832
52917W        W21335  25.206  32.962   3.202
52918W        W21336  19.615  43.007  12.833
52919W        W21337  21.720   2.736   1.868
52920W        W21338   6.727  34.384   4.309
52921W        W21339  22.142  34.867   2.234
52922W        W21340  30.999  34.416  12.345
52923W        W21341  25.076  38.002   4.608
52924W        W21342  19.709  10.856   1.755
52925W        W21343  43.857  12.119  13.986
52926W        W21344  10.815  38.865  14.463
52927W        W21345   5.882  32.488   0.883
52928W        W21346  33.955   5.309  10.454
52929W        W21347  21.048  14.107  12.840
52930W        W21348  24.677  23.656   2.718
52931W        W21349  21.156  16.102   3.751
52932W        W21350  43.811  30.655  13.454
52933W        W21351  30.136  12.698   0.315
52934W        W21352   2.396  23.496   3.727
52935W        W21353  16.635  25.499   3.738
52936W        W21354   3.346  12.225  10.987
52937W        W21355   7.744  34.499  11.967
52938W        W21356   7.269  14.768   4.709
52939W        W21357  20.599  38.538   3.674
52940W        W21358   2.251   5.193  10.911
52941W        W21359  13.765  39.047   1.893
52942W        W21360  22.601  33.992  13.370
52943W        W21361  34.411  29.173  12.881
52944W        W21362  35.992  42.870   1.383
52945W        W21363  33.465  12.669   9.966
52946W        W21364  37.928  38.900  11.610
52947W        W21365   5.900  40.501   0.439
52948W        W21366  10.657  33.875   1.409
52949W        W21367   4.409   2.860   0.328
52950W        W21368   7.412  38.541   0.481
52951W        W21369  44.368   7.693   9.978
52952W        W21370  43.946  20.685   3.378
52953W        W21371  36.977  36.982  11.081
52954W        W21372   4.306  30.099  10.627
52955W        W21373  40.306  30.079   1.379
52956W        W21374  31.088   0.423  11.124
52957W        W21375   0.755  41.038  10.493
52958W        W21376  41.839  30.951  13.799
52959W        W21377  37.474  11.837  11.892
52960W        W21378  32.408   9.362   0.854
52961W        W21379  39.380  30.079  11.048
52962W        W21380   7.830  23.106   0.313
52963W        W21381  24.599  38.508  10.111
52964W        W21382  22.190  42.356  13.931
52965W        W21383   3.396  36.009  11.582
52966W        W21384  44.847  16.177  12.568
52967W        W21385  32.614   2.825   3.854
52968W        W21386  25.967   9.826   1.306
52969W        W21387  26.043   2.863   2.289
52970W        W21388  25.020   7.249  11.022
52971W        W21389  43.852  24.715  14.796
52972W        W21390  24.058  10.699   4.301
52973W        W21391  27.131  39.837   1.395
52974W        W21392  34.508  41.813   1.419
52975W        W21393  16.568  25.072  12.353
52976W        W21394  18.184   8.189   1.881
52977W        W21395  37.040  26.490   0.763
52978W        W21396  37.861  10.186  10.477
52979W        W21397   2.393   5.710  13.891
52980W        W21398   8.366   7.232  10.565
52981W        W21399  15.091  18.668  12.864
52982W        W21400  21.164  28.057  13.976
52983W        W21401   9.680   3.392  13.880
52984W        W21402  40.382  18.694   2.189
52985W        W21403   4.762  44.880  10.527
52986W        W21404  10.262  28.473   2.794
52987W        W21405  42.903  36.521  13.409
52988W        W21406  38.900  25.605  14.780
52989W        W21407  17.305   0.470  14.448
52990W        W21408   1.778   2.837   0.430
52991W        W21409  22.112   5.869  12.500
52992W        W21410  37.513  14.681   1.852
52993W        W21411  36.046   6.832   4.776
52994W        W21412  37.352  43.486   2.274
52995W        W21413  29.465  10.866   0.868
52996W        W21414  30.541   8.666  14.357
52997W        W21415  40.818  24.499  12.363
52998W        W21416  41.450  18.058  12.841
52999W        W21417   5.219  41.972  13.891
53000W        W21418   1.823  25.156   1.898
53001W        W21419  41.887  12.733  14.503
53002W        W21420   7.311  40.410   5.321
53003W        W21421  37.033  13.127  14.807
53004W        W21422  27.659  19.154  12.866
53005W        W21423  43.381  32.475   0.334
53006W        W21424  15.606  17.305   2.391
53007W        W21425  19.187   1.373  10.966
53008W        W21426  13.763  32.416   2.266
53009W        W21427  34.488  38.891   1.235
53010W        W21428  29.074  30.548  13.492
53011W        W21429  21.682  28.627  13.405
53012W        W21430   7.321  36.972  12.992
53013W        W21431  20.064  10.813  11.080
53014W        W21432  37.469   3.441   4.702
53015W        W21433  27.094  27.952  11.520
53016W        W21434   3.724  29.427   2.207
53017W        W21435  33.532  19.778  14.485
53018W        W21436   7.223   6.895  11.118
53019W        W21437  19.069  31.568  10.439
53020W        W21438  41.378  25.028  14.308
53021W        W21439   7.858   3.283   3.662
53022W        W21440  33.600   5.233   4.227
53023W        W21441   4.748  37.476  14.369
53024W        W21442  24.124  19.632   0.841
53025W        W21443  17.562   7.792  11.092
53026W        W21444  17.626   0.349  10.940
53027W        W21445  14.221   8.315  13.927
53028W        W21446   5.413  33.921   1.428
53029W        W21447  37.038   0.349   2.796
53030W        W21448   1.405  29.964   3.173
53031W        W21449  16.744  18.159  13.524
53032W        W21450  28.030   5.417  13.800
53033W        W21451  22.601   6.868   2.216
53034W        W21452  36.980  25.526   2.760
53035W        W21453  37.358  29.448  10.475
53036W        W21454  14.299   8.214   3.323
53037W        W21455  21.126  34.891   4.115
53038W        W21456  44.332  12.180   5.116
53039W        W21457  39.047  35.565   4.258
53040W        W21458  15.278  43.400   0.841
53041W        W21459  30.471  22.712   2.811
53042W        W21460  14.273  16.742  14.299
53043W        W21461  20.678  26.155   0.939
53044W        W21462  15.624  33.887   2.667
53045W        W21463  16.634  30.631  12.545
53046W        W21464  22.619  43.369   1.919
53047W        W21465  24.545  14.832   0.296
53048W        W21466  31.117  42.346  12.881
53049W        W21467   9.391  17.107   5.183
53050W        W21468  15.134  35.888   3.191
53051W        W21469  28.082   4.920  11.429
53052W        W21470  29.558   1.808  12.986
53053W        W21471  26.091  19.229  12.978
53054W        W21472  28.077  40.359  12.860
53055W        W21473  14.101  38.955  11.574
53056W        W21474  32.462  35.961   1.899
53057W        W21475  22.141  33.541   2.715
53058W        W21476   7.681  12.686  11.490
53059W        W21477  35.952  22.166  12.913
53060W        W21478  21.146  15.785   2.350
53061W        W21479   9.711  38.948   4.144
53062W        W21480  38.483   2.916  12.860
53063W        W21481  29.616  13.680   0.798
53064W        W21482  37.881   3.737   2.357
53065W        W21483  38.534  34.602   4.786
53066W        W21484  38.330   5.304  13.034
53067W        W21485  27.528   4.392   2.830
53068W        W21486  33.099  26.699   2.857
53069W        W21487  18.630  18.254  13.487
53070W        W21488   8.744  26.691   2.316
53071W        W21489  26.584  36.403  12.541
53072W        W21490   4.213  14.711   4.268
53073W        W21491   0.832   3.354   3.321
53074W        W21492  30.022  19.712  13.436
53075W        W21493  26.520  25.471  13.519
53076W        W21494  13.741  21.723  14.428
53077W        W21495   0.844  13.128  11.427
53078W        W21496  23.088  27.050  13.927
53079W        W21497  44.920  20.056   0.806
53080W        W21498  13.319   7.905  14.935
53081W        W21499   4.929  38.408   0.470
53082W        W21500  25.168  22.179   2.208
53083W        W21501  16.266  19.078   4.339
53084W        W21502   2.381  32.142  12.529
53085W        W21503  36.370  11.258  10.560
53086W        W21504  27.628  35.494  13.893
53087W        W21505  13.333  20.191   1.787
53088W        W21506  25.685  27.052   3.676
53089W        W21507   1.822   3.247   3.849
53090W        W21508  41.377   7.781  14.917
53091W        W21509  21.138  33.049  14.421
53092W        W21510  26.156  22.683  12.512
53093W        W21511  40.911  36.872   4.805
53094W        W21512   6.728  40.820   2.774
53095W        W21513  12.692  24.149  14.453
53096W        W21514  12.647  28.039   3.852
53097W        W21515  27.123  10.205  15.000
53098W        W21516   9.166  14.818   1.247
53099W        W21517  43.818  16.112  12.499
53100W        W21518  19.620  23.118   2.677
53101W        W21519  37.060  19.044  13.381
53102W        W21520  23.573  29.101   4.255
53103W        W21521  22.057  33.575   3.803
53104W        W21522  20.530  41.323   1.732
53105W        W21523  40.924  29.619  14.019
53106W        W21524   9.199  44.852  10.890
53107W        W21525  12.755   7.215   2.671
53108W        W21526   4.757  12.704   4.304
53109W        W21527  35.104  33.008   4.816
53110W        W21528  15.116  41.874   3.320
53111W        W21529  33.014  16.567   1.210
53112W        W21530  12.772  40.001   4.306
53113W        W21531  30.081  13.667   0.406
53114W        W21532  15.690   4.335  10.161
53115W        W21533  29.110   9.692   4.310
53116W        W21534   8.387  44.871  10.974
53117W        W21535   2.394  13.801   1.775
53118W        W21536  22.157  11.774  14.882
53119W        W21537   1.391  35.367   2.749
53120W        W21538   5.801  12.152  12.882
53121W        W21539  44.324  34.869   1.794
53122W        W21540  41.019   0.362  14.951
53123W        W21541  26.462  13.832  14.849
53124W        W21542  17.648  23.090  12.448
53125W        W21543  25.581  23.664  14.770
53126W        W21544  21.526  31.492  13.804
53127W        W21545  14.668  31.136   4.725
53128W        W21546   0.432  40.046  13.417
53129W        W21547   5.907   6.252  12.949
53130W        W21548   5.753   8.355  10.992
53131W        W21549   5.896  15.768  14.001
53132W        W21550  17.121  32.116  14.896
53133W        W21551  25.615  23.681   4.729
53134W        W21552  11.773   0.451   3.180
53135W        W21553   7.359  18.668  13.894
53136W        W21554   5.375  40.425  10.532
53137W        W21555  24.610  38.378   3.216
53138W        W21556   9.644  35.048  14.906
53139W        W21557  11.169  38.491   3.768
53140W        W21558  13.198  20.166   2.286
53141W        W21559  24.113  30.085  13.827
53142W        W21560  15.624   1.962  13.930
53143W        W21561  25.595  18.768  10.411
53144W        W21562   1.936   0.438  14.830
53145W        W21563  37.920  16.728   1.349
53146W        W21564  13.637  16.784  14.987
53147W        W21565  28.442   9.315   0.292
53148W        W21566   3.426  18.643   1.230
53149W        W21567  44.988   5.250   1.330
53150W        W21568  20.747  36.514  12.827
53151W        W21569  10.140  40.454   1.444
53152W        W21570  33.892  20.107   4.826
53153W        W21571   0.841  18.643   4.806
53154W        W21572  18.243  38.041   0.943
53155W        W21573  25.516  42.939   4.286
53156W        W21574  44.783   5.251  12.453
53157W        W21575  40.963  12.344  10.632
53158W        W21576  14.805  11.129  12.506
53159W        W21577  39.027  16.733   4.282
53160W        W21578  40.863  14.735  12.488
53161W        W21579  37.834  26.056   1.926
53162W        W21580   4.939  18.679   3.335
53163W        W21581  18.083  38.352  12.346
53164W        W21582  34.578  36.425   4.235
53165W        W21583  32.401  18.186   3.230
53166W        W21584  44.435  26.978   2.188
53167W        W21585  40.426  30.441  13.487
53168W        W21586  15.091  19.099  11.405
53169W        W21587  33.024  25.555   4.291
53170W        W21588  11.329  32.972  12.487
53171W        W21589  16.587  44.964   1.719
53172W        W21590  26.484   4.823  12.505
53173W        W21591  26.047  43.863   4.785
53174W        W21592  28.518  35.409   0.299
53175W        W21593  29.162  22.126  10.411
53176W        W21594  36.989  38.529  13.994
53177W        W21595  44.362  29.058   2.400
53178W        W21596  43.325   5.743   3.786
53179W        W21597  21.211  13.174   4.133
53180W        W21598  24.542  30.642  11.473
53181W        W21599  26.045  43.006   4.344
53182W        W21600   1.431  22.206   0.250
53183W        W21601  26.642  38.832   5.164
53184W        W21602  20.186  33.611   3.826
53185W        W21603   7.821   2.828   2.303
53186W        W21604  16.243  24.527   2.330
53187W        W21605  37.836  13.165  14.389
53188W        W21606  19.679   7.778  13.982
53189W        W21607  20.656  16.073   4.220
53190W        W21608  29.030  28.672   2.796
53191W        W21609  24.673  10.802  11.033
53192W        W21610  30.027  33.126  11.951
53193W        W21611  36.071   0.341  14.280
53194W        W21612  42.404   6.311   0.384
53195W        W21613  17.662  30.120   0.437
53196W        W21614  16.808  11.739  13.346
53197W        W21615   4.230   7.276  14.015
53198W        W21616  21.054  42.866   3.179
53199W        W21617  27.505  28.601   1.387
53200W        W21618  11.142  28.168  12.930
53201W        W21619  15.092  38.876   2.832
53202W        W21620  18.559  31.058   3.811
53203W        W21621  42.923  44.977  11.510
53204W        W21622  21.614  43.827  14.500
53205W        W21623  37.910  26.965  13.405
53206W        W21624  33.511  15.091   0.302
53207W        W21625  38.016  34.970  13.997
53208W        W21626  12.228  29.441  10.607
53209W        W21627  27.584  42.013  13.329
53210W        W21628  25.541  33.481   1.907
53211W        W21629   9.858   8.857  14.870
53212W        W21630  21.651  38.535   1.806
53213W        W21631  28.096  20.038  12.096
53214W        W21632   7.289   9.375   2.231
53215W        W21633  42.885  18.571   3.169
53216W        W21634  35.853   9.808  12.891
53217W        W21635  36.971  35.893   3.870
53218W        W21636   3.240  18.639  12.953
53219W        W21637  44.355  14.670  13.817
53220W        W21638  41.434  25.500   2.830
53221W        W21639  37.832  29.014   5.198
53222W        W21640   1.467  32.545   2.684
53223W        W21641  28.610  18.126   4.225
53224W        W21642  35.370   5.389   1.315
53225W        W21643  31.082   9.366   3.319
53226W        W21644  38.050  38.562   9.519
53227W        W21645  40.423   5.325   4.215
53228W        W21646  27.465  42.448   0.845
53229W        W21647   1.890  42.777   0.928
53230W        W21648   2.779  44.793  11.931
53231W        W21649  29.111   4.447   0.897
53232W        W21650  17.238  16.243  13.381
53233W        W21651   9.322   7.704  10.571
53234W        W21652   2.901  42.011   2.690
53235W        W21653  14.750  22.550   4.629
53236W        W21654  29.448  34.996   1.422
53237W        W21655  22.172  38.438  11.065
53238W        W21656  44.001  42.989   4.613
53239W        W21657  13.774  26.069  13.433
53240W        W21658  38.441  37.398  13.010
53241W        W21659   3.272  17.608   2.389
53242W        W21660  16.699  10.149  14.006
53243W        W21661  37.891  30.573   2.714
53244W        W21662  34.409  39.520  13.412
53245W        W21663  32.588  27.662   0.827
53246W        W21664   6.764   8.838   2.895
53247W        W21665  28.162  39.374  10.027
53248W        W21666  19.534  28.078  12.080
53249W        W21667  20.684  11.795  11.477
53250W        W21668  32.074  34.369   2.402
53251W        W21669  14.763   4.837   1.391
53252W        W21670  25.186  39.864   4.821
53253W        W21671  16.113  44.308  12.465
53254W        W21672  36.885   3.257   0.254
53255W        W21673  41.969  15.765  10.044
53256W        W21674  39.342  27.630   4.229
53257W        W21675  10.648   0.276  10.940
53258W        W21676   1.959   3.779   3.714
53259W        W21677  18.560  17.613  14.413
53260W        W21678  23.563  27.528   1.818
53261W        W21679  15.156  34.027  12.348
53262W        W21680  13.719  40.896   4.125
53263W        W21681  42.840  30.089   2.816
53264W        W21682  18.686  34.506  12.494
53265W        W21683  34.469  44.812   0.767
53266W        W21684  36.442  26.982   4.330
53267W        W21685   8.314   7.173   2.742
53268W        W21686  25.616   1.378  10.911
53269W        W21687   6.388  16.798   0.794
53270W        W21688  29.524  13.763  14.845
53271W        W21689  43.996  37.375  14.964
53272W        W21690  16.595   6.380   2.402
53273W        W21691  19.138  25.992   5.235
53274W        W21692  40.950  31.526  12.565
53275W        W21693  37.054  32.541  13.891
53276W        W21694  44.362  14.321  10.010
53277W        W21695  13.824  35.538  11.416
53278W        W21696  29.516  33.525  13.876
53279W        W21697  29.661  27.962   1.377
53280W        W21698  39.885   8.200   0.419
53281W        W21699  36.365  23.990   1.768
53282W        W21700  37.422   4.724  10.986
53283W        W21701   8.254   3.843  12.358
53284W        W21702   1.801   4.924  12.417
53285W        W21703  17.173  10.833  14.823
53286W        W21704  40.924  21.036   4.635
53287W        W21705  19.084  12.721  10.592
53288W        W21706  23.677  30.591   1.792
53289W        W21707  29.106  18.200   4.646
53290W        W21708  19.089   7.319   3.193
53291W        W21709  18.252   5.714   2.418
53292W        W21710  31.008  15.724   4.282
53293W        W21711   0.463  19.718   3.339
53294W        W21712   2.844  24.664  13.796
53295W        W21713  33.424   9.285  10.579
53296W        W21714  24.511  41.930  13.508
53297W        W21715  34.007  40.358  12.070
53298W        W21716  29.616   0.960  11.938
53299W        W21717  42.319  24.107  12.422
53300W        W21718  29.067  23.122  13.471
53301W        W21719  28.004  12.829   0.823
53302W        W21720  16.208  21.264  11.948
53303W        W21721  25.966   7.176  11.601
53304W        W21722  24.166  11.271  12.833
53305W        W21723  31.006  16.578  14.991
53306W        W21724  20.646  18.099  12.523
53307W        W21725  26.686  13.835  10.484
53308W        W21726   2.302  21.100   2.802
53309W        W21727  16.158  20.268  10.642
53310W        W21728  29.118   2.316   2.888
53311W        W21729   2.285  22.171  13.380
53312W        W21730  32.929  15.804   4.658
53313W        W21731  12.287   7.331   0.280
53314W        W21732  28.655  39.846  11.996
53315W        W21733  39.500  14.696   3.248
53316W        W21734  15.315  26.537   0.408
53317W        W21735   7.226  22.200   2.805
53318W        W21736  17.189  24.564   2.777
53319W        W21737  13.680  41.304   2.399
53320W        W21738   5.759  28.466   1.390
53321W        W21739  14.174   3.378   1.427
53322W        W21740  30.587  19.119   1.263
53323W        W21741   2.263  33.512   3.731
53324W        W21742  25.583  13.605   2.714
53325W        W21743   5.252  39.857  11.533
53326W        W21744  24.574   4.888  12.435
53327W        W21745  18.598  30.074  11.033
53328W        W21746   5.322  43.919   4.767
53329W        W21747  30.470  37.032  12.552
53330W        W21748  18.161  13.188   1.348
53331W        W21749  15.270  13.122  12.983
53332W        W21750  42.415  39.340   5.270
53333W        W21751   9.705  35.044   0.921
53334W        W21752  10.826  44.928   3.859
53335W        W21753  41.818  16.659   1.840
53336W        W21754  22.131  39.017  11.458
53337W        W21755   2.901   0.881  11.512
53338W        W21756  30.503  44.821  14.940
53339W        W21757  17.253  36.966   0.387
53340W        W21758  16.692   2.808   2.767
53341W        W21759  22.589  26.662   3.156
53342W        W21760  35.359  38.469  13.430
53343W        W21761  36.068  30.569   1.768
53344W        W21762  11.777  34.500  11.963
53345W        W21763  22.136  12.218  13.967
53346W        W21764  33.109   2.402   1.402
53347W        W21765  21.545  10.722  10.907
53348W        W21766  42.516  23.100  11.992
53349W        W21767  10.378   8.244  14.795
53350W        W21768  41.789  30.918   1.418
53351W        W21769  29.966  41.830  11.913
53352W        W21770  35.067  34.606   0.303
53353W        W21771  34.389   4.405  13.936
53354W        W21772  42.375  15.138  12.574
53355W        W21773  43.360  43.803  14.993
53356W        W21774   4.214  24.103  13.446
53357W        W21775  16.315  15.632  11.373
53358W        W21776  13.331  34.976  11.405
53359W        W21777  24.032   6.765  14.281
53360W        W21778  11.153  41.376  14.817
53361W        W21779  23.691  34.997   2.238
53362W        W21780   7.827  25.477   3.191
53363W        W21781  16.685  38.870  14.348
53364W        W21782  28.651  10.289  12.447
53365W        W21783   8.174  40.910   0.912
53366W        W21784  40.508  13.294   3.159
53367W        W21785  28.099  30.550   2.881
53368W        W21786   6.845  32.549   1.336
53369W        W21787  25.167   2.376  11.423
53370W        W21788  31.563   2.304  13.952
53371W        W21789  32.080  29.610  13.891
53372W        W21790  38.491  30.448   2.332
53373W        W21791  44.261   9.821  13.477
53374W        W21792  14.203   8.804  13.435
53375W        W21793   5.242  16.118  12.506
53376W        W21794  13.340  14.619   1.401
53377W        W21795   4.293  18.288  11.863
53378W        W21796  21.023  33.908   4.281
53379W        W21797  26.578  39.439   2.871
53380W        W21798  16.683  32.586   0.822
53381W        W21799  14.807   2.891   0.309
53382W        W21800  24.591  31.497  11.580
53383W        W21801   4.378  14.773  14.907
53384W        W21802  20.241  30.516   1.920
53385W        W21803  22.565  35.103  13.414
53386W        W21804  41.491  42.524  13.850
53387W        W21805   2.369   9.886  12.891
53388W        W21806  39.052   4.835   5.302
53389W        W21807  34.893  18.280  10.905
53390W        W21808   8.174  43.959   4.339
53391W        W21809  14.156   3.787   2.379
53392W        W21810  25.535  20.177   2.416
53393W        W21811  11.138   0.955   0.807
53394W        W21812   4.836  28.662  12.869
53395W        W21813   6.297  31.499  13.802
53396W        W21814  18.589  26.679  13.837
53397W        W21815  24.085  10.300  13.510
53398W        W21816  15.769   3.927  11.916
53399W        W21817  25.594   0.970   4.147
53400W        W21818   3.774  36.360  14.948
53401W        W21819  41.933  34.596  13.041
53402W        W21820  12.149   4.296   4.173
53403W        W21821  39.402  19.641   3.749
53404W        W21822   6.424  11.323   0.310
53405W        W21823  17.567  13.733  12.012
53406W        W21824   8.857  21.746  13.023
53407W        W21825   4.406  36.559  11.916
53408W        W21826  13.603   0.912   2.882
53409W        W21827  32.099  39.372   3.201
53410W        W21828  24.117  43.368   0.407
53411W        W21829   1.344   2.788  13.333
53412W        W21830  22.110  21.051  14.474
53413W        W21831  19.124  25.981  11.881
53414W        W21832   8.768  13.699  10.636
53415W        W21833   1.819  31.436  12.507
53416W        W21834  41.033  44.334  11.523
53417W        W21835  11.201  14.236  13.449
53418W        W21836  12.243   4.934   4.231
53419W        W21837   3.439  38.028   0.823
53420W        W21838  16.737  35.094   3.339
53421W        W21839  36.420  25.703  13.982
53422W        W21840  36.459   9.299  11.964
53423W        W21841  18.687  13.220  13.807
53424W        W21842  30.467   4.388  12.422
53425W        W21843   3.304   0.946  14.836
53426W        W21844  29.073   7.884   4.798
53427W        W21845  12.670  30.531   0.308
53428W        W21846   4.745  19.633   3.824
53429W        W21847  17.156  10.352  10.957
53430W        W21848  34.002  12.184   0.451
53431W        W21849  23.167  16.743  12.961
53432W        W21850   4.866  37.410   4.274
53433W        W21851  31.032  22.708  10.430
53434W        W21852   1.469   3.219  14.922
53435W        W21853  42.418  20.218  14.425
53436W        W21854  23.561  20.058   2.859
53437W        W21855  40.465  35.107  10.943
53438W        W21856  14.113  32.930  11.470
53439W        W21857  17.063   4.785  11.422
53440W        W21858  10.166  14.194   5.133
53441W        W21859  14.266  43.476  13.371
53442W        W21860  23.047  15.141  10.578
53443W        W21861  15.817  18.663  10.624
53444W        W21862  26.149  16.289  14.866
53445W        W21863  17.236  27.195   0.742
53446W        W21864  31.418  15.134  12.891
53447W        W21865  36.372  36.846   2.841
53448W        W21866  28.477  41.380  13.321
53449W        W21867  17.131  24.480  13.967
53450W        W21868   5.419  38.989   3.298
53451W        W21869  23.672  18.718  13.430
53452W        W21870  12.284   4.733   0.794
53453W        W21871   6.364  30.062  10.626
53454W        W21872  30.047  27.096   2.771
53455W        W21873   7.813  44.817  11.425
53456W        W21874  19.102  21.543  13.057
53457W        W21875  17.087  25.636   1.753
53458W        W21876  38.536  23.022  10.630
53459W        W21877  17.065   5.832  11.983
53460W        W21878  32.062  13.225  13.391
53461W        W21879  11.297  35.591  11.116
53462W        W21880  25.075  33.602   1.409
53463W        W21881  22.656  42.348   3.741
53464W        W21882  40.508  43.783   2.671
53465W        W21883  17.297  24.524   3.310
53466W        W21884   0.743  13.796  13.868
53467W        W21885   5.802  14.112   3.243
53468W        W21886   8.268  42.485  13.529
53469W        W21887  16.655   1.739  14.846
53470W        W21888   8.316  35.100   3.203
53471W        W21889  10.757  19.656   5.223
53472W        W21890  43.408   6.301  13.380
53473W        W21891  17.583  31.569   0.335
53474W        W21892  34.905  29.495   4.740
53475W        W21893  14.626  28.620  13.368
53476W        W21894  28.976   3.711   3.382
53477W        W21895  20.219  18.740  12.863
53478W        W21896  15.659   9.353  14.464
53479W        W21897  36.929  29.932   2.777
53480W        W21898   8.887  16.640  13.354
53481W        W21899  39.936  41.912   4.811
53482W        W21900  21.610   1.889   2.855
53483W        W21901   7.337  26.042   1.907
53484W        W21902  38.935  17.715   0.460
53485W        W21903   4.310  17.190   4.142
53486W        W21904  41.522  37.548   0.370
53487W        W21905  15.585  30.126   2.821
53488W        W21906  24.147   7.196   3.349
53489W        W21907  38.023  19.189   2.344
53490W        W21908   2.357  41.945   3.812
53491W        W21909  32.093  43.400   0.810
53492W        W21910   3.310  15.205   1.368
53493W        W21911  23.519  36.349  10.494
53494W        W21912  29.021   1.933  14.896
53495W        W21913   6.336  28.653  12.485
53496W        W21914   9.662  31.153  11.033
53497W        W21915  40.883  44.809  14.411
53498W        W21916  38.351   9.857  10.938
53499W        W21917  34.035   4.255   2.882
53500W        W21918  38.844  13.643  14.910
53501W        W21919  29.666  21.628   0.897
53502W        W21920  29.551  19.751  14.424
53503W        W21921   1.343  35.443  12.384
53504W        W21922  38.384  26.599  14.013
53505W        W21923  18.257  32.015   3.862
53506W        W21924  39.337  35.930   3.776
53507W        W21925   9.334  41.463  13.466
53508W        W21926  43.347  26.119  11.028
53509W        W21927  24.682   5.925   1.918
53510W        W21928  21.592  44.386  13.807
53511W        W21929   4.942  23.493  12.524
53512W        W21930  44.872  29.983  13.056
53513W        W21931   0.276   4.250  14.834
53514W        W21932  15.724   3.869   4.324
53515W        W21933  21.098  13.810   1.906
53516W        W21934  29.002  28.599  14.382
53517W        W21935  42.512   7.838  13.376
53518W        W21936  37.832  44.778   4.270
53519W        W21937   7.878  25.099   3.244
53520W        W21938   9.180  42.469  12.091
53521W        W21939  10.202  22.654  14.014
53522W        W21940  42.021   8.276   4.602
53523W        W21941  24.999  43.381  12.380
53524W        W21942  26.029  17.694  14.007
53525W        W21943  39.035  37.910   2.216
53526W        W21944  17.758  10.266   4.277
53527W        W21945  29.638  19.118   0.335
53528W        W21946  29.920  42.291  14.814
53529W        W21947   5.924  42.323  13.955
53530W        W21948  32.099   6.191  14.775
53531W        W21949  41.815  36.402  10.955
53532W        W21950  21.085  35.043   0.375
53533W        W21951  39.341  13.313   2.411
53534W        W21952   7.339   2.783   4.763
53535W        W21953   2.900   9.393  10.404
53536W        W21954  30.564  12.183  13.866
53537W        W21955   0.979  13.134   3.304
53538W        W21956   2.945   1.968  14.509
53539W        W21957  12.624  26.024  11.571
53540W        W21958   8.774  15.641  10.991
53541W        W21959  40.358  34.371   2.267
53542W        W21960  40.006  31.935  14.814
53543W        W21961  42.290  37.008  13.410
53544W        W21962  16.170  16.141   3.184
53545W        W21963   2.809   9.672   3.184
53546W        W21964   4.314  25.122   3.228
53547W        W21965  29.054  44.372   3.289
53548W        W21966   4.338  35.968   1.816
53549W        W21967   3.353  29.955  13.368
53550W        W21968  26.198   1.423   4.197
53551W        W21969  23.499   2.788  14.923
53552W        W21970  20.617  21.517  11.031
53553W        W21971   0.282  26.585   1.309
53554W        W21972  27.063  27.659   2.246
53555W        W21973  36.956   6.194  14.474
53556W        W21974  13.795   5.883   9.476
53557W        W21975  12.723  35.098   2.851
53558W        W21976  19.226  40.493  13.325
53559W        W21977  29.536  12.854  11.941
53560W        W21978  11.289  14.261  14.907
53561W        W21979  29.997  28.496   3.787
53562W        W21980   3.921   5.755  12.081
53563W        W21981  20.167   4.879  11.457
53564W        W21982  21.226  26.559   1.889
53565W        W21983  43.976  44.437  14.998
53566W        W21984  16.195  40.873  10.577
53567W        W21985  20.034  22.747  12.057
53568W        W21986  35.509  33.106  12.966
53569W        W21987  38.488  28.011   1.854
53570W        W21988  38.938  28.597  11.022
53571W        W21989  21.092  13.791  11.898
53572W        W21990   1.798  18.156  11.937
53573W        W21991  42.316  32.468   0.878
53574W        W21992  29.664  41.512  10.533
53575W        W21993  32.475   8.670   3.772
53576W        W21994  37.553  22.703   1.347
53577W        W21995  24.163  40.868   1.422
53578W        W21996  17.128  11.840   0.909
53579W        W21997  34.494  15.757  11.041
53580W        W21998  32.616   0.411  14.995
53581W        W21999  32.423  37.336  10.913
53582W        W22000  14.280  21.646  11.977
53583W        W22001  23.089  11.293   3.174
53584W        W22002   4.865   3.304  14.386
53585W        W22003  37.415  21.721  11.593
53586W        W22004  40.999  22.206   2.747
53587W        W22005  15.200  41.023  12.853
53588W        W22006  37.441  40.433   0.435
53589W        W22007  32.564  18.788   0.395
53590W        W22008  35.868  26.688   3.299
53591W        W22009  35.462  44.467  11.965
53592W        W22010  36.509  17.151   4.229
53593W        W22011  30.048   9.672   4.699
53594W        W22012   3.720  10.382  11.511
53595W        W22013  37.870   0.414  12.463
53596W        W22014   4.217   8.739  11.457
53597W        W22015   2.829   7.837   3.200
53598W        W22016  42.780  12.651   3.287
53599W        W22017  17.265  26.680   5.100
53600W        W22018  13.666  10.785   1.886
53601W        W22019  19.121  43.343  12.857
53602W        W22020   6.307  27.649   0.800
53603W        W22021  19.554  17.695   4.694
53604W        W22022  18.662  24.026  12.896
53605W        W22023  40.021  14.618  13.821
53606W        W22024  41.002   1.963  14.811
53607W        W22025  27.003   1.248   4.607
53608W        W22026  23.518  29.447   3.643
53609W        W22027  14.225  19.551  11.586
53610W        W22028  20.568  26.993   4.313
53611W        W22029  14.640  13.697   3.750
53612W        W22030   8.276  18.741  11.440
53613W        W22031   3.867  33.880  10.483
53614W        W22032  14.317  42.322   3.712
53615W        W22033  44.500  24.988  11.381
53616W        W22034  29.516   7.736  12.877
53617W        W22035  21.256   6.206  10.528
53618W        W22036  33.549  44.987  11.058
53619W        W22037  28.932  43.927   1.694
53620W        W22038  42.362  39.520  14.325
53621W        W22039   4.822  32.024  12.445
53622W        W22040  24.683   7.230  12.898
53623W        W22041  17.756  37.970  13.054
53624W        W22042  29.923  35.070  10.459
53625W        W22043  18.070  32.501  12.925
53626W        W22044   7.192  14.313   0.811
53627W        W22045  28.022  19.710   1.839
53628W        W22046  15.200  23.723   4.627
53629W        W22047  14.801   3.764   2.683
53630W        W22048  25.522  10.247   4.692
53631W        W22049  23.016   1.328   4.752
53632W        W22050  15.655   1.267  10.535
53633W        W22051  32.094  30.432  13.513
53634W        W22052  22.523  12.689  14.380
53635W        W22053  18.583  22.088  13.014
53636W        W22054  20.211  24.211   3.725
53637W        W22055  30.020  44.945   2.242
53638W        W22056  42.783  14.307  10.979
53639W        W22057  21.250  25.578  13.004
53640W        W22058  40.815  20.042   1.303
53641W        W22059  22.177  16.661   0.473
53642W        W22060  39.975  30.118   1.928
53643W        W22061  20.717   4.901   3.843
53644W        W22062  17.124  39.485   3.166
53645W        W22063  42.921  30.437  13.064
53646W        W22064   8.185  35.949   4.349
53647W        W22065  24.620  30.471  13.312
53648W        W22066  37.980  17.755  11.909
53649W        W22067  22.996   6.398  11.489
53650W        W22068  11.663  16.750   1.350
53651W        W22069   6.184  39.062  11.500
53652W        W22070  30.578  15.796  12.862
53653W        W22071   8.276  40.441  13.814
53654W        W22072   6.842  11.359  13.904
53655W        W22073  41.493  10.730  11.014
53656W        W22074  31.007   9.675  12.979
53657W        W22075  18.277  29.143  10.913
53658W        W22076  41.312  36.040  10.956
53659W        W22077  33.953  31.048   0.435
53660W        W22078   5.731  37.379  14.772
53661W        W22079  13.147  11.251   1.448
53662W        W22080  15.733   9.192  12.446
53663W        W22081  24.589  32.561  11.991
53664W        W22082   5.262   2.395   4.228
53665W        W22083  36.503  34.430   2.329
53666W        W22084  40.039  20.097  13.035
53667W        W22085  12.657  40.413   3.633
53668W        W22086   8.879   8.337   4.666
53669W        W22087   0.303   6.419  10.474
53670W        W22088  34.560  44.303  10.605
53671W        W22089  22.101  30.040   0.435
53672W        W22090   8.212  35.467  14.468
53673W        W22091  12.172  30.568   4.634
53674W        W22092  28.999  38.375   0.323
53675W        W22093   9.204  10.291  11.081
53676W        W22094  41.940  22.735  11.580
53677W        W22095  35.010  44.000  13.312
53678W        W22096  41.904  16.693   0.362
53679W        W22097  20.243  16.158  12.456
53680W        W22098   7.315  43.364  14.471
53681W        W22099  22.093   7.406  12.410
53682W        W22100   9.671  22.595  11.429
53683W        W22101  37.376  13.247  12.978
53684W        W22102  18.708  15.228  13.488
53685W        W22103  38.502  20.690  14.888
53686W        W22104  33.575   2.729   3.162
53687W        W22105  41.395  27.532   0.320
53688W        W22106   9.767   2.416  11.068
53689W        W22107  15.711  42.319  10.626
53690W        W22108  36.480  36.391  13.803
53691W        W22109  20.721  16.169  12.890
53692W        W22110  10.200   4.330  13.347
53693W        W22111  25.560  36.484  10.931
53694W        W22112  18.777  29.635  14.895
53695W        W22113   8.208  25.673  12.391
53696W        W22114  27.472  18.545  11.890
53697W        W22115  12.280  36.912   1.744
53698W        W22116  30.510  44.937  14.391
53699W        W22117  37.442   0.267   4.778
53700W        W22118  17.147   0.850   1.803
53701W        W22119  36.033   2.778  13.548
53702W        W22120   4.808  28.612   0.750
53703W        W22121  33.429  22.603  13.984
53704W        W22122  37.017   1.355  12.427
53705W        W22123  34.927  27.657  14.826
53706W        W22124  21.160  42.327   3.375
53707W        W22125  16.630  21.094  11.089
53708W        W22126  39.329  27.978  11.917
53709W        W22127  27.019   9.174  11.572
53710W        W22128  14.597   7.366   0.962
53711W        W22129  15.148  30.986  12.520
53712W        W22130  31.527  43.924   1.793
53713W        W22131  36.387   8.773  13.883
53714W        W22132  19.761  21.206   0.835
53715W        W22133  27.185  36.064  12.463
53716W        W22134  23.600  10.830  11.005
53717W        W22135  31.151   3.941  11.015
53718W        W22136  37.920  33.880   2.281
53719W        W22137  36.510   3.366  11.988
53720W        W22138  44.757  40.360  11.518
53721W        W22139  40.483  28.509  14.293
53722W        W22140  29.143  27.529  14.404
53723W        W22141  39.381   8.322  11.946
53724W        W22142  13.828  30.072  12.390
53725W        W22143  13.609  32.980  12.379
53726W        W22144   6.802   2.239   0.768
53727W        W22145  17.151  20.052  13.452
53728W        W22146  27.540   6.302   1.720
53729W        W22147  44.775  41.460   4.784
53730W        W22148  29.994  42.487   1.331
53731W        W22149  42.520  32.502   2.856
53732W        W22150  13.293   7.257   4.815
53733W        W22151  35.371  28.980  14.994
53734W        W22152  32.525  20.736   2.835
53735W        W22153  13.336   8.204   4.288
53736W        W22154  41.866  39.015  13.373
53737W        W22155  27.609  32.116   0.463
53738W        W22156  11.751  15.712  12.344
53739W        W22157  40.884  27.059  12.856
53740W        W22158  23.109  24.498  11.966
53741W        W22159  30.421  23.202  10.921
53742W        W22160  23.543  34.419  12.931
53743W        W22161   2.744  15.580   4.719
53744W        W22162  38.016  11.238  14.761
53745W        W22163  30.151  31.558  14.408
53746W        W22164   5.409  30.639  10.632
53747W        W22165  37.982   3.728  10.509
53748W        W22166  34.071  16.120  14.481
53749W        W22167  13.755   3.736  13.309
53750W        W22168  33.065  42.409  11.975
53751W        W22169   3.229   4.861   0.748
53752W        W22170  11.268  12.325  14.004
53753W        W22171  27.664  38.825   4.206
53754W        W22172   5.363  12.353   3.199
53755W        W22173  38.898  11.728   1.762
53756W        W22174   7.295   9.351  10.597
53757W        W22175  44.888  27.166  10.627
53758W        W22176  24.623  18.276   1.258
53759W        W22177  31.984  22.123   4.256
53760W        W22178  25.191  27.466   3.380
53761W        W22179   8.877   9.794  10.421
53762W        W22180  24.015   5.412   0.309
53763W        W22181  31.988  14.604   3.753
53764W        W22182  34.405   5.223  10.486
53765W        W22183  39.415   6.799  13.045
53766W        W22184  35.070  39.475  11.041
53767W        W22185  18.263  29.453  11.537
53768W        W22186   3.910  35.503   3.227
53769W        W22187   0.452  17.644   4.336
53770W        W22188  23.586   1.411   2.363
53771W        W22189   9.358  15.799   3.328
53772W        W22190  29.923  33.556  11.100
53773W        W22191  23.060  21.696   1.286
53774W        W22192  39.888  42.375   0.935
53775W        W22193  19.267   6.790   4.302
53776W        W22194  34.884  18.098  11.943
53777W        W22195  11.802  29.954  14.771
53778W        W22196  44.457  36.512  14.477
53779W        W22197   9.785  13.637  13.416
53780W        W22198  42.903  13.650   4.776
53781W        W22199   3.925  38.379  13.428
53782W        W22200   1.928  11.234  11.005
53783W        W22201  36.419  34.997   3.316
53784W        W22202   6.310  32.422   1.394
53785W        W22203   8.695  12.755   0.849
53786W        W22204  44.500   8.664   0.291
53787W        W22205  15.654  15.323  11.978
53788W        W22206  23.201  43.381   4.750
53789W        W22207  23.611  38.333   3.679
53790W        W22208   3.316  28.614   3.284
53791W        W22209  44.296  23.627  10.548
53792W        W22210   2.922  37.876  12.033
53793W        W22211  17.078  16.199  10.623
53794W        W22212   1.290   5.824   0.335
53795W        W22213   4.356  43.977  12.458
53796W        W22214   0.494  22.091   2.392
53797W        W22215  36.469  26.019  12.965
53798W        W22216  36.547   7.725   4.696
53799W        W22217  41.006  18.223   4.627
53800W        W22218  32.415  35.398   3.773
53801W        W22219  42.477  20.594   3.300
53802W        W22220  31.518  13.629   0.867
53803W        W22221  10.247  19.660  13.959
53804W        W22222  24.500   0.945   1.907
53805W        W22223  35.919  11.151  14.816
53806W        W22224  31.638  37.840   4.720
53807W        W22225  17.655   9.682  12.479
53808W        W22226  23.513  13.765  11.556
53809W        W22227  38.942  22.007   1.756
53810W        W22228  32.944  18.615   0.480
53811W        W22229   3.336  33.585   3.680
53812W        W22230  19.176  41.931  13.541
53813W        W22231  14.112  27.580   4.598
53814W        W22232   9.833  14.121   1.861
53815W        W22233  17.100  33.383  14.343
53816W        W22234  32.996  22.600   3.792
53817W        W22235  30.981   9.769  14.958
53818W        W22236  40.347  18.741  12.967
53819W        W22237  31.052  25.531   0.739
53820W        W22238  43.993   3.402   1.403
53821W        W22239  36.364   0.290  12.557
53822W        W22240  34.589  31.068   3.649
53823W        W22241  12.689   1.362  12.505
53824W        W22242  37.937  21.197  10.055
53825W        W22243   8.744   2.869  13.001
53826W        W22244  30.557  16.268   4.236
53827W        W22245   9.274  43.430  12.015
53828W        W22246  21.566  28.173  13.517
53829W        W22247   8.302  18.716  10.431
53830W        W22248  32.625  39.971  14.395
53831W        W22249   5.265  13.613  11.078
53832W        W22250  34.121  18.250  11.425
53833W        W22251  40.025  12.301  12.010
53834W        W22252  15.765  14.723  13.923
53835W        W22253   3.416  13.338  14.356
53836W        W22254  23.498  15.824  12.394
53837W        W22255  34.565   9.872  12.380
53838W        W22256  11.831  36.498   0.261
53839W        W22257  14.135  40.359  12.400
53840W        W22258  29.081  27.014   2.331
53841W        W22259  18.784  40.437  10.891
53842W        W22260  13.694  44.448   2.222
53843W        W22261  36.490  35.021  14.314
53844W        W22262  25.217  16.763   4.707
53845W        W22263   5.272   7.303   2.370
53846W        W22264  26.964  28.629   2.223
53847W        W22265  41.533  16.155   3.783
53848W        W22266  39.829  23.566   0.366
53849W        W22267  20.131  15.809  12.829
53850W        W22268  33.122  11.650  11.980
53851W        W22269  38.385   1.427  10.592
53852W        W22270  43.851  29.644   0.304
53853W        W22271  34.092  28.059  10.532
53854W        W22272  37.342  44.491   5.288
53855W        W22273  36.354  30.643   1.407
53856W        W22274  20.644   2.838   3.766
53857W        W22275  25.691   3.829  12.483
53858W        W22276  39.492  15.325  10.955
53859W        W22277   2.342  34.066  14.030
53860W        W22278  20.210  10.876   0.928
53861W        W22279  29.629  13.197  13.418
53862W        W22280   8.804  29.943   1.360
53863W        W22281  13.126  42.807   4.287
53864W        W22282  39.866  21.208  12.852
53865W        W22283  27.459   6.388   3.296
53866W        W22284  43.964  13.265  12.558
53867W        W22285  21.751  42.831   2.903
53868W        W22286   6.247  29.606   3.847
53869W        W22287   5.395   3.863  13.494
53870W        W22288  25.652   5.792   0.406
53871W        W22289  26.613  38.501  10.935
53872W        W22290  14.659  41.472   1.301
53873W        W22291  33.962  11.626  12.047
53874W        W22292  20.130   5.341   3.341
53875W        W22293  25.708  10.654   3.647
53876W        W22294  21.078  12.766  14.434
53877W        W22295  34.954  35.023  13.430
53878W        W22296  28.169  30.065   4.606
53879W        W22297  21.606  17.194  14.797
53880W        W22298   9.197  18.050   3.728
53881W        W22299  13.827  10.211   1.699
53882W        W22300  41.500   7.252   3.849
53883W        W22301  44.773   8.362  11.880
53884W        W22302  10.316  21.187  12.920
53885W        W22303   6.843   0.746   0.461
53886W        W22304   1.925  25.061  14.504
53887W        W22305  17.204   5.844   0.805
53888W        W22306  37.842  39.013  12.882
53889W        W22307  41.440  22.025   0.256
53890W        W22308   5.757  18.674   4.316
53891W        W22309  33.429  40.385   0.808
53892W        W22310  27.038  25.471  12.498
53893W        W22311  40.545  13.281   4.651
53894W        W22312   7.337  41.473   2.204
53895W        W22313   8.173   8.733   2.307
53896W        W22314   8.278   6.331   0.346
53897W        W22315  11.755  36.098  13.493
53898W        W22316  17.153  21.727  14.330
53899W        W22317   6.397  19.144   0.902
53900W        W22318   2.365   3.289   3.632
53901W        W22319   8.713  37.564   3.378
53902W        W22320  27.006  25.594   0.952
53903W        W22321  32.015  32.928   1.400
53904W        W22322   9.337  22.194  13.376
53905W        W22323  18.551   5.255  10.960
53906W        W22324  28.996   7.801   4.212
53907W        W22325  32.963  29.544   0.388
53908W        W22326  33.882  43.880  14.464
53909W        W22327  18.647  26.462  14.372
53910W        W22328  34.370  36.465   1.866
53911W        W22329  29.578   1.974  10.575
53912W        W22330  12.211  37.087   2.190
53913W        W22331  13.732  35.892   3.191
53914W        W22332  37.980   9.651  11.506
53915W        W22333  42.795  27.447  14.279
53916W        W22334  42.890  15.660   0.282
53917W        W22335  16.748  35.581  10.426
53918W        W22336  18.790  27.156   3.366
53919W        W22337  42.404  24.230   3.325
53920W        W22338   2.771  30.605  13.968
53921W        W22339  19.077  33.936  13.414
53922W        W22340  43.277  23.601  10.889
53923W        W22341  32.523  29.114  12.908
53924W        W22342  30.559  41.977  13.519
53925W        W22343  35.031  29.031  11.444
53926W        W22344  18.776  24.590  12.486
53927W        W22345   3.230  33.593  13.364
53928W        W22346  41.954  11.702  11.444
53929W        W22347  28.156  36.036   0.422
53930W        W22348  43.894   4.402   2.867
53931W        W22349   8.682  33.075  12.533
53932W        W22350  19.609   0.981   4.731
53933W        W22351  37.556  42.411  11.496
53934W        W22352  17.264  11.675   2.748
53935W        W22353  10.139  27.088   3.237
53936W        W22354  41.948  39.414  10.597
53937W        W22355  21.262  10.353   5.184
53938W        W22356   8.845  42.880   0.916
53939W        W22357   5.193   1.874   5.201
53940W        W22358  16.290  42.857   1.795
53941W        W22359  42.784  10.331   1.246
53942W        W22360   7.742  24.622   1.841
53943W        W22361  11.183   0.818   0.365
53944W        W22362   5.399  33.508   1.401
53945W        W22363  25.122  21.090   4.637
53946W        W22364  19.175  35.886  14.376
53947W        W22365  38.501  29.482  14.767
53948W        W22366  25.641  42.463  14.323
53949W        W22367  43.513   6.756   4.640
53950W        W22368  44.759   0.858   2.289
53951W        W22369  29.021  15.806  11.378
53952W        W22370  39.507  16.150   1.901
53953W        W22371  36.413  33.501   0.825
53954W        W22372  44.359  37.393   2.713
53955W        W22373  24.515  43.282  11.979
53956W        W22374   4.332  17.783   1.278
53957W        W22375  21.118  33.948   0.885
53958W        W22376  21.587   5.429   3.785
53959W        W22377  37.469  26.559  12.077
53960W        W22378  11.258  33.492   2.365
53961W        W22379  40.353  38.328  12.421
53962W        W22380   4.437  13.287   3.725
53963W        W22381  24.091  13.791   2.371
53964W        W22382  14.599   6.881   2.222
53965W        W22383   9.279  33.957   1.428
53966W        W22384  38.002   7.223  10.986
53967W        W22385   5.851  40.896   4.232
53968W        W22386  20.618  24.583   9.949
53969W        W22387  13.187  33.595  13.396
53970W        W22388  24.188  30.425   0.848
53971W        W22389  27.447  19.754  14.311
53972W        W22390  25.604  20.225   1.378
53973W        W22391   2.753  44.813   4.248
53974W        W22392  18.205  44.805  14.408
53975W        W22393  19.226  39.026   3.703
53976W        W22394  36.550  36.902   2.362
53977W        W22395  30.119   8.253   2.750
53978W        W22396  33.412  20.219   0.962
53979W        W22397  19.174  41.829   3.797
53980W        W22398   8.728  24.126   0.783
53981W        W22399  19.102  24.662   2.374
53982W        W22400  42.796  28.590  12.534
53983W        W22401  37.383  44.401   1.350
53984W        W22402  25.710  16.081   3.813
53985W        W22403  25.153  29.536  13.525
53986W        W22404  37.381  20.099  11.454
53987W        W22405  17.753  24.615   2.721
53988W        W22406  37.409  21.033   0.808
53989W        W22407  39.459  22.672   1.722
53990W        W22408  15.232  11.237   0.957
53991W        W22409  25.523   8.344   1.229
53992W        W22410   3.928  32.069  10.573
53993W        W22411  25.509  13.162  10.971
53994W        W22412  15.600  18.766   2.847
53995W        W22413   0.755  35.572   4.237
53996W        W22414  22.028  17.610  10.524
53997W        W22415  38.015  15.090   4.245
53998W        W22416  36.574  42.326  10.415
53999W        W22417  38.901  13.762   1.797
54000W        W22418  42.334  13.122   3.182
54001W        W22419  13.305   7.341  11.502
54002W        W22420   0.390  33.956  10.614
54003W        W22421  31.027  42.865  13.923
54004W        W22422  28.017  33.033   4.705
54005W        W22423   6.372  37.006   4.354
54006W        W22424  27.489   6.843   3.760
54007W        W22425  23.549  14.205   2.881
54008W        W22426  13.777  27.516   3.310
54009W        W22427  18.066  16.580   3.182
54010W        W22428  19.609   5.417   2.805
54011W        W22429  19.123   6.884   2.291
54012W        W22430  17.131  30.481  11.115
54013W        W22431   7.895   1.886   2.669
54014W        W22432  41.910   0.834   1.224
54015W        W22433   5.375  34.092  11.602
54016W        W22434  32.565  37.444   0.481
54017W        W22435  41.933  17.728  10.640
54018W        W22436  17.117  33.129  10.469
54019W        W22437  36.571   2.394  13.979
54020W        W22438  38.539  13.220  11.442
54021W        W22439  17.281  19.589   4.641
54022W        W22440  24.053  31.625  11.028
54023W        W22441  22.099  13.695  11.407
54024W        W22442  35.106   3.838  14.939
54025W        W22443  40.832  18.168  11.382
54026W        W22444  26.530  20.654   0.754
54027W        W22445  41.854  41.907  12.554
54028W        W22446  38.928  24.144  11.920
54029W        W22447  10.138  42.990   4.260
54030W        W22448   1.770  15.251  12.346
54031W        W22449   9.379  22.998  14.478
54032W        W22450   1.312   5.819  12.539
54033W        W22451  21.541   5.416  13.857
54034W        W22452  31.926  24.677   4.146
54035W        W22453  12.695  38.054   4.350
54036W        W22454  26.987  20.260   3.205
54037W        W22455   3.798  23.573   4.787
54038W        W22456   6.258  41.028  10.141
54039W        W22457  42.877  35.460  11.057
54040W        W22458   4.783   4.743   3.640
54041W        W22459   3.758  12.197  13.318
54042W        W22460   7.714  15.720  14.300
54043W        W22461  29.541   7.203   9.517
54044W        W22462   7.779  29.071  14.513
54045W        W22463  30.430  16.269   0.781
54046W        W22464   4.710  16.120  13.828
54047W        W22465  21.146  14.647   3.704
54048W        W22466  35.568   3.800   1.340
54049W        W22467   9.207  10.805   4.666
54050W        W22468   0.834   2.337   4.697
54051W        W22469  14.609  37.993   0.399
54052W        W22470   0.979  18.248  11.865
54053W        W22471   1.263  43.279  14.029
54054W        W22472  44.290  26.616  13.324
54055W        W22473  13.774  19.125   0.881
54056W        W22474  42.350  35.547   2.349
54057W        W22475  10.735   0.768   3.316
54058W        W22476  30.148  36.964  13.361
54059W        W22477  18.060  20.699  12.435
54060W        W22478  38.026  38.893   9.659
54061W        W22479  16.269  25.542  10.530
54062W        W22480   1.283  42.291  13.853
54063W        W22481  35.910  18.589   3.713
54064W        W22482  34.378  30.620  14.914
54065W        W22483  10.382   0.300   4.629
54066W        W22484   2.822  11.726   1.237
54067W        W22485  35.091  35.559   1.273
54068W        W22486  14.778   4.854   4.666
54069W        W22487  26.002   7.892  14.848
54070W        W22488  41.881  20.666   1.737
54071W        W22489  41.467  35.510   1.870
54072W        W22490  13.127  43.766   1.930
54073W        W22491  42.289   3.719   4.193
54074W        W22492   5.381  34.517  11.489
54075W        W22493   0.389  30.116   4.736
54076W        W22494   1.413  14.189   1.889
54077W        W22495  22.638  22.694   5.281
54078W        W22496  39.887  36.485  11.955
54079W        W22497  42.472  33.437  14.773
54080W        W22498   7.249  11.740  13.338
54081W        W22499  29.591  35.062   2.747
54082W        W22500   5.737  30.611   0.811
54083W        W22501  15.684  44.489  13.546
54084W        W22502  39.910   6.912  13.846
54085W        W22503  22.661   4.799   4.279
54086W        W22504  11.350  32.142  14.381
54087W        W22505   5.326  32.058   4.124
54088W        W22506  38.517  28.491   0.908
54089W        W22507  36.546  34.415   1.253
54090W        W22508  19.609   7.740  13.460
54091W        W22509  42.936  28.116  14.950
54092W        W22510  25.048  32.058   5.191
54093W        W22511  32.055  24.229  11.992
54094W        W22512  41.872  13.671  12.363
54095W        W22513   2.277  12.270   1.365
54096W        W22514  40.498  30.115   4.355
54097W        W22515  13.286  32.046  10.644
54098W        W22516  13.345  26.624   1.762
54099W        W22517  34.603   2.787  12.548
54100W        W22518  42.948  39.507  11.869
54101W        W22519  33.418  13.687   2.818
54102W        W22520  11.809  21.574  11.979
54103W        W22521   9.220  25.071  14.441
54104W        W22522  22.185  10.651   1.745
54105W        W22523  39.463  20.656  14.010
54106W        W22524   3.913  21.755  10.416
54107W        W22525  20.633  18.088   3.263
54108W        W22526   2.792  29.961  11.962
54109W        W22527   8.257  11.779  10.538
54110W        W22528  39.557  16.617  12.462
54111W        W22529  22.611   7.871  13.981
54112W        W22530  12.252   4.304  12.045
54113W        W22531  19.065  36.396  14.949
54114W        W22532  19.639   0.278  10.525
54115W        W22533  20.671  43.885   0.904
54116W        W22534   4.425   6.816   0.765
54117W        W22535  20.177  24.173  14.512
54118W        W22536   7.181   0.459   3.782
54119W        W22537  24.724  42.504   4.674
54120W        W22538   9.885  12.200   1.888
54121W        W22539   0.762  39.871  11.074
54122W        W22540  39.954  29.942  10.928
54123W        W22541  31.092  38.024   0.959
54124W        W22542  15.323   4.356   4.240
54125W        W22543  30.600  27.621  11.945
54126W        W22544  25.472   6.752   1.434
54127W        W22545   1.933  33.459  11.868
54128W        W22546  30.123   1.402   2.310
54129W        W22547  12.771   5.326   3.362
54130W        W22548   9.758  40.916  13.468
54131W        W22549  30.121   5.728  11.418
54132W        W22550   2.411  43.923  12.917
54133W        W22551  15.760   3.903  13.356
54134W        W22552   0.939  27.505  11.503
54135W        W22553  31.906  36.492  13.361
54136W        W22554  29.499  27.692  13.505
54137W        W22555  14.138   6.332  14.390
54138W        W22556  20.104  44.454   1.815
54139W        W22557  31.637  35.932   1.930
54140W        W22558   4.437  31.937  10.428
54141W        W22559  19.204  22.094   1.259
54142W        W22560  23.151   7.289   4.728
54143W        W22561  35.877  29.499   2.338
54144W        W22562   6.426  37.484   4.777
54145W        W22563  20.583  25.544  11.443
54146W        W22564  42.851  22.050   2.318
54147W        W22565  22.621  10.849  12.064
54148W        W22566   2.303   4.849   0.880
54149W        W22567  17.070   5.894  10.069
54150W        W22568  35.371  39.823   0.413
54151W        W22569  35.103  38.920   4.168
54152W        W22570  14.597  22.726  14.497
54153W        W22571   9.738  10.278   2.810
54154W        W22572  41.917  15.595  13.509
54155W        W22573  41.831  12.718  13.808
54156W        W22574  30.974  22.661  12.066
54157W        W22575  40.407   1.786   5.113
54158W        W22576  25.087   9.180   0.376
54159W        W22577   9.293  20.231   2.190
54160W        W22578  21.157   2.837   3.841
54161W        W22579   9.367  12.319   0.471
54162W        W22580  31.624  12.311   4.779
54163W        W22581  19.707   2.236   2.181
54164W        W22582  43.423  10.181   3.716
54165W        W22583   3.897  21.743   1.238
54166W        W22584  18.766  21.556   0.317
54167W        W22585  13.147  14.714  13.812
54168W        W22586  24.172  35.462   4.730
54169W        W22587  38.951  44.832   0.338
54170W        W22588  15.119  18.118  13.499
54171W        W22589   6.219  23.135  13.958
54172W        W22590  36.846  33.522   2.365
54173W        W22591   7.279   9.313   3.812
54174W        W22592   4.701  19.601   2.239
54175W        W22593  38.965  22.739   4.241
54176W        W22594   8.183   8.400   3.149
54177W        W22595  34.996   8.821  12.454
54178W        W22596  15.198  19.256  13.379
54179W        W22597   1.274   7.196   2.694
54180W        W22598   2.240   6.358  13.442
54181W        W22599  13.243  32.103  14.813
54182W        W22600  34.916  19.600   3.686
54183W        W22601   2.392  28.024  12.988
54184W        W22602  16.197  37.431   1.278
54185W        W22603  21.602  13.682   0.740
54186W        W22604   8.160  11.821  11.388
54187W        W22605   4.212  43.483   4.642
54188W        W22606  27.626  42.377   2.269
54189W        W22607  22.080  28.082  11.035
54190W        W22608   9.188   8.842  12.548
54191W        W22609  30.623  19.571  11.470
54192W        W22610   5.780  20.242   2.364
54193W        W22611  35.473  13.619   1.852
54194W        W22612  38.954  35.097   0.448
54195W        W22613  42.787  42.962   3.282
54196W        W22614  25.204  26.065   0.433
54197W        W22615  44.399  40.835   2.215
54198W        W22616  20.555  33.064   4.771
54199W        W22617  16.137   7.811  10.916
54200W        W22618  25.207  37.035  13.484
54201W        W22619   3.263  28.168   5.245
54202W        W22620   3.828   2.920   3.722
54203W        W22621  34.004   2.391  11.387
54204W        W22622   0.971  19.219   4.831
54205W        W22623  42.306   8.671  14.787
54206W        W22624  34.874  42.815   2.865
54207W        W22625  31.429  34.011   4.260
54208W        W22626  21.144  39.839   1.355
54209W        W22627  22.222  13.613  14.314
54210W        W22628  20.736  13.839   5.313
54211W        W22629   1.836   4.840  14.381
54212W        W22630   8.216  16.117   3.856
54213W        W22631  31.437  27.155   3.267
54214W        W22632   4.806   1.941   4.122
54215W        W22633  35.411  23.097   1.444
54216W        W22634  40.426  39.339   1.866
54217W        W22635   4.875   9.354  14.298
54218W        W22636  24.535  38.011   4.345
54219W        W22637   1.272  13.663   0.923
54220W        W22638  37.925  32.037   0.478
54221W        W22639   9.272  40.018   2.847
54222W        W22640  30.448   3.283  13.532
54223W        W22641  40.883  22.739  12.506
54224W        W22642  32.556  35.457   0.347
54225W        W22643  42.311  44.321   1.896
54226W        W22644  22.229   6.896  14.454
54227W        W22645  14.796  40.921  13.431
54228W        W22646   2.373  44.262  14.377
54229W        W22647  26.966  27.602   0.373
54230W        W22648   8.775  38.853  10.442
54231W        W22649  18.242  41.370   2.295
54232W        W22650  15.823  24.717  13.050
54233W        W22651  18.055   1.287   4.695
54234W        W22652  24.615  38.831   1.741
54235W        W22653  20.076  44.476   2.253
54236W        W22654   2.323   3.763   2.899
54237W        W22655  18.187  32.093   1.310
54238W        W22656   2.795  28.612  12.462
54239W        W22657  15.728   8.169   0.268
54240W        W22658  19.653  26.575  10.146
54241W        W22659   9.230  14.597   4.256
54242W        W22660  13.727  42.939   1.221
54243W        W22661  34.026  21.050   2.835
54244W        W22662  32.971  20.219   4.627
54245W        W22663  19.613  19.763  14.359
54246W        W22664   2.749   4.430  12.886
54247W        W22665   7.711  40.997   0.902
54248W        W22666  36.397  24.148  11.996
54249W        W22667  32.942   1.375  11.587
54250W        W22668  15.589  12.216  14.895
54251W        W22669  26.664  20.733   3.736
54252W        W22670   7.266  29.042  14.476
54253W        W22671   6.283  16.635   1.290
54254W        W22672  34.077  28.645   0.272
54255W        W22673   4.272  38.424  14.779
54256W        W22674  42.795  20.597  12.441
54257W        W22675  23.577  38.520   4.775
54258W        W22676  37.922  42.356   1.703
54259W        W22677  43.793  16.713   0.910
54260W        W22678  44.896  12.642   5.779
54261W        W22679  33.020  43.368  14.992
54262W        W22680  23.562  21.179   3.353
54263W        W22681  39.924   8.763  10.937
54264W        W22682  30.556  21.037   5.132
54265W        W22683  29.111  18.596   1.346
54266W        W22684  23.111   5.241   3.640
54267W        W22685   2.730  14.185   0.425
54268W        W22686  16.722   1.309   4.830
54269W        W22687   7.870   2.384  13.408
54270W        W22688   0.910  44.828   0.938
54271W        W22689  28.999  44.935  13.012
54272W        W22690   0.878   7.304  13.841
54273W        W22691  21.257  29.625  12.441
54274W        W22692  37.970  36.504   3.864
54275W        W22693  18.790  34.964   3.751
54276W        W22694  39.478  12.211  12.893
54277W        W22695  44.956  40.002   3.832
54278W        W22696  31.967  28.119  14.440
54279W        W22697  10.346  15.803  10.124
54280W        W22698  24.060  27.553  10.978
54281W        W22699   9.727  14.305  10.516
54282W        W22700  40.831  21.157   2.364
54283W        W22701  17.105   5.376   4.795
54284W        W22702   0.818  43.911   0.364
54285W        W22703  36.850   1.403  14.500
54286W        W22704  12.282  39.975   2.294
54287W        W22705  34.461  13.695   0.283
54288W        W22706   4.431  44.462  10.435
54289W        W22707  42.797  43.513  11.512
54290W        W22708   2.469   4.273   4.608
54291W        W22709   8.858  23.518  11.986
54292W        W22710   7.689  43.377   3.305
54293W        W22711   2.930  38.501   3.365
54294W        W22712   2.265  16.287   2.225
54295W        W22713  27.080  11.293   3.224
54296W        W22714   9.708  37.445   4.730
54297W        W22715   2.926  17.159   3.717
54298W        W22716  36.976  29.056   3.147
54299W        W22717   9.746  25.139  10.908
54300W        W22718  30.599  43.340  12.498
54301W        W22719  27.514   7.326  14.787
54302W        W22720  25.567  14.126  12.014
54303W        W22721  15.634   8.180   3.655
54304W        W22722  20.763  34.103   2.879
54305W        W22723  35.088  12.849   4.725
54306W        W22724  44.267  39.926   4.287
54307W        W22725  42.289  41.883   2.734
54308W        W22726  19.164  12.310  14.898
54309W        W22727  24.225  15.762  11.601
54310W        W22728  12.255  43.458  12.546
54311W        W22729  42.517  28.940   1.428
54312W        W22730  42.286  19.758   3.744
54313W        W22731  23.080   7.842   2.273
54314W        W22732   8.848  18.600  11.371
54315W        W22733  40.351  26.050   2.761
54316W        W22734  20.554  12.118  12.064
54317W        W22735   0.309  18.224   2.199
54318W        W22736  31.571  44.987   2.738
54319W        W22737  10.702  41.817  14.850
54320W        W22738  35.989  44.362   3.650
54321W        W22739  32.430  27.650   4.213
54322W        W22740   9.656   6.298  12.861
54323W        W22741   6.193  11.660  11.492
54324W        W22742  44.399  16.130  10.007
54325W        W22743  25.614  36.583   4.306
54326W        W22744  35.965  14.662  11.029
54327W        W22745  29.542  11.853  13.324
54328W        W22746  15.795  13.845  14.857
54329W        W22747  41.865  43.306  12.498
54330W        W22748  41.327   2.441   4.293
54331W        W22749   3.450  34.097   0.412
54332W        W22750   0.445   1.800   3.303
54333W        W22751  43.019  11.216   4.818
54334W        W22752  25.060   4.337   0.323
54335W        W22753   6.207  36.515   3.185
54336W        W22754  35.461  23.198  10.463
54337W        W22755  39.389  20.589   3.789
54338W        W22756  41.339  44.932   2.859
54339W        W22757  28.125  41.439   0.875
54340W        W22758  29.662  11.758   4.178
54341W        W22759   7.830  35.904   3.867
54342W        W22760  26.627  26.458  13.334
54343W        W22761  35.932  26.120   2.792
54344W        W22762  36.409  12.644  10.592
54345W        W22763  41.922  22.032  13.420
54346W        W22764   5.737  37.024  13.031
54347W        W22765   1.331  12.262   0.471
54348W        W22766  40.450   2.919   3.330
54349W        W22767  25.488  21.117   1.914
54350W        W22768  40.950  36.866  13.863
54351W        W22769  17.109  19.655  12.568
54352W        W22770  26.958  35.081  12.924
54353W        W22771  43.441   3.349   1.314
54354W        W22772   6.201  32.599   0.391
54355W        W22773  32.071  38.396  14.380
54356W        W22774  18.127   2.766   0.768
54357W        W22775  28.021  34.117  13.407
54358W        W22776  39.367  38.480   3.664
54359W        W22777  42.328  25.704   1.829
54360W        W22778  23.574  33.623  10.473
54361W        W22779  24.611  38.870   5.286
54362W        W22780  17.778  13.173   1.856
54363W        W22781  30.558   5.209  11.060
54364W        W22782  39.044  18.263  11.416
54365W        W22783  11.322   8.662   4.758
54366W        W22784   0.311   7.838   0.831
54367W        W22785   2.816  10.191  12.013
54368W        W22786  25.176  33.528   3.286
54369W        W22787  28.148   6.224   0.458
54370W        W22788  12.314   1.764   1.917
54371W        W22789   2.422  35.364   4.714
54372W        W22790  26.148   5.788  14.419
54373W        W22791  42.805   8.870  12.877
54374W        W22792  28.458  36.895  11.872
54375W        W22793   3.232  41.017   3.360
54376W        W22794  33.554  44.945  10.567
54377W        W22795  34.008  30.031   0.963
54378W        W22796  42.833  42.280  11.374
54379W        W22797  38.842  14.307   0.399
54380W        W22798  43.372  40.918   0.371
54381W        W22799  33.069  15.148  11.382
54382W        W22800  24.042  24.633   4.223
54383W        W22801  23.019  22.745  14.420
54384W        W22802  24.118  11.692  12.843
54385W        W22803  36.449   0.358  10.469
54386W        W22804  40.844  41.023   0.902
54387W        W22805  25.560   0.886   0.895
54388W        W22806   2.943  21.135  11.953
54389W        W22807  10.865  25.583  13.361
54390W        W22808  17.695  22.731  12.002
54391W        W22809  26.471  32.526   2.307
54392W        W22810   7.411  29.132   4.231
54393W        W22811  41.808  10.211   2.235
54394W        W22812  16.284  19.603   2.770
54395W        W22813   3.907  21.602   9.527
54396W        W22814  12.713  38.487  12.866
54397W        W22815  39.944  24.605   4.710
54398W        W22816  44.458   4.774   5.199
54399W        W22817   3.384  24.511  12.530
54400W        W22818   9.761  14.288  14.452
54401W        W22819  21.159  15.681  13.339
54402W        W22820  39.544  32.414   1.278
54403W        W22821  10.867   6.389   4.629
54404W        W22822  12.134   9.227   3.195
54405W        W22823  26.545  33.952  11.869
54406W        W22824  18.136  30.486  11.962
54407W        W22825  38.542  16.262   2.351
54408W        W22826  21.136  35.416  11.509
54409W        W22827  17.672  32.406   4.727
54410W        W22828   0.786   3.864  10.423
54411W        W22829  15.312  25.689   3.269
54412W        W22830   0.443  13.668  14.355
54413W        W22831  37.547  19.543  12.004
54414W        W22832  44.277  24.209   5.270
54415W        W22833  27.029   8.818   0.411
54416W        W22834  28.448   8.293  13.914
54417W        W22835  28.185  28.458  12.372
54418W        W22836   1.442  24.569  11.961
54419W        W22837  31.602  24.629  10.435
54420W        W22838  13.254   4.409  13.858
54421W        W22839  39.325  22.191   2.300
54422W        W22840  44.771   8.864  11.055
54423W        W22841  40.923   9.795  13.443
54424W        W22842   7.767  32.973  14.948
54425W        W22843  34.564  36.485  12.499
54426W        W22844  20.159  29.007   1.446
54427W        W22845  36.554  41.887  12.080
54428W        W22846  41.949   5.225  14.280
54429W        W22847  42.511  41.499   4.119
54430W        W22848  37.046  25.483   3.277
54431W        W22849  20.743  42.911   2.215
54432W        W22850  23.197  43.967   2.223
54433W        W22851   3.810  37.504   0.864
54434W        W22852  25.109  10.837   4.261
54435W        W22853  42.397  36.517   2.364
54436W        W22854   4.243   4.822  11.090
54437W        W22855  44.485  14.680   2.850
54438W        W22856  19.208  12.796   2.351
54439W        W22857  21.204  43.988   4.725
54440W        W22858  13.193  32.401   1.367
54441W        W22859  28.175  19.171  13.796
54442W        W22860  27.588  21.048  11.983
54443W        W22861  32.950   8.374  11.603
54444W        W22862  30.929  30.092   1.308
54445W        W22863  31.596  30.470  13.477
54446W        W22864   7.750  29.976   3.245
54447W        W22865  17.118  35.477  13.502
54448W        W22866  31.094   6.189  10.445
54449W        W22867  37.006  35.077  14.403
54450W        W22868  26.629   7.268  12.040
54451W        W22869  21.747  15.263   3.204
54452W        W22870  28.074  18.102   3.169
54453W        W22871  43.785  17.268  12.868
54454W        W22872  19.113  43.767   0.839
54455W        W22873  15.651  18.660   1.861
54456W        W22874  13.235  11.668   3.661
54457W        W22875  33.002  40.364   4.235
54458W        W22876  10.235   0.272   0.918
54459W        W22877  10.727  21.247   1.372
54460W        W22878  33.094  28.465   2.298
54461W        W22879  23.586  13.741  14.761
54462W        W22880  24.130  38.984   0.438
54463W        W22881  12.129  32.114  14.340
54464W        W22882   2.856   5.811   4.738
54465W        W22883  16.773  12.287   3.690
54466W        W22884  29.532  12.334  11.113
54467W        W22885  22.534  35.444   3.184
54468W        W22886   2.432  19.213   3.357
54469W        W22887  43.359   1.309  13.373
54470W        W22888  29.059  13.238  12.554
54471W        W22889  19.124  16.709  14.978
54472W        W22890  18.136  21.208   0.375
54473W        W22891  20.640  33.404  13.325
54474W        W22892   8.738  22.533  13.880
54475W        W22893  23.017  44.450   1.907
54476W        W22894  34.369  30.943  13.365
54477W        W22895  21.548  18.717   3.352
54478W        W22896  10.639   0.366   2.758
54479W        W22897   7.288  26.091   4.136
54480W        W22898  44.970   5.753   2.857
54481W        W22899   6.280  27.115  13.534
54482W        W22900  30.018  30.581  13.392
54483W        W22901   7.199  20.037   1.405
54484W        W22902  33.614  40.872  14.300
54485W        W22903  18.242  24.044   4.160
54486W        W22904  43.470  12.287  11.526
54487W        W22905  12.672  32.936   1.283
54488W        W22906  11.810  42.983  13.060
54489W        W22907  12.708  38.045  11.869
54490W        W22908  40.515  44.398  13.005
54491W        W22909  33.918  43.475  13.036
54492W        W22910  33.926  35.438  11.896
54493W        W22911   6.895  12.695   2.302
54494W        W22912  18.708   8.785   4.255
54495W        W22913  42.385  40.833   3.215
54496W        W22914  36.908  16.665   0.957
54497W        W22915  31.590  20.070  10.446
54498W        W22916  33.398  43.427  11.467
54499W        W22917  23.089  33.550  13.483
54500W        W22918   5.819  37.038  10.447
54501W        W22919  43.479  39.894   3.168
54502W        W22920  39.492  36.973   2.211
54503W        W22921  35.944  20.682   0.915
54504W        W22922  17.631  25.189   3.866
54505W        W22923   1.324  25.152   0.846
54506W        W22924  23.182   5.874   4.602
54507W        W22925   2.353  16.648  10.587
54508W        W22926  34.483  35.882  14.475
54509W        W22927  35.886  31.076  10.928
54510W        W22928  40.801  32.905  13.391
54511W        W22929  30.447  18.196  14.998
54512W        W22930  39.851  27.673  11.958
54513W        W22931  21.061   0.896   2.750
54514W        W22932  42.882  11.667  12.346
54515W        W22933  41.990  21.226  10.524
54516W        W22934  11.239  24.649   3.188
54517W        W22935  11.248  36.859   2.221
54518W        W22936  27.585  42.983   4.244
54519W        W22937  28.483  25.015   4.714
54520W        W22938   1.477  30.442   3.290
54521W        W22939  22.549   1.737   0.876
54522W        W22940   6.807  13.765  14.410
54523W        W22941  30.161  18.193  10.425
54524W        W22942   2.446   0.791   1.343
54525W        W22943  17.572  37.952  11.488
54526W        W22944  33.104  20.763   3.791
54527W        W22945  43.952  21.099   1.694
54528W        W22946  30.632  29.426  14.467
54529W        W22947  15.102  44.802   0.384
54530W        W22948  21.714  38.847   0.855
54531W        W22949  24.138   6.857  10.897
54532W        W22950   7.210  23.179   3.643
54533W        W22951  34.011  32.076  14.499
54534W        W22952  17.631  25.186  12.839
54535W        W22953  14.170   2.456   2.270
54536W        W22954  23.044  15.603  10.930
54537W        W22955  43.304  33.491   1.298
54538W        W22956   5.324  32.578   3.265
54539W        W22957  36.943  29.493  12.889
54540W        W22958  33.089  11.285  13.944
54541W        W22959  36.543   3.938   3.833
54542W        W22960  24.582  43.836  14.901
54543W        W22961   3.906  40.806   4.832
54544W        W22962  27.196  24.549   4.321
54545W        W22963  25.974   6.742   1.709
54546W        W22964   1.961  31.968  13.411
54547W        W22965   1.896  41.789   2.411
54548W        W22966  29.604   0.323  10.939
54549W        W22967  33.545  22.711   5.092
54550W        W22968   6.724  12.664  14.368
54551W        W22969  42.919  39.500   0.292
54552W        W22970  39.355  28.024  11.531
54553W        W22971   3.890   7.669  11.109
54554W        W22972  44.426  30.436   4.726
54555W        W22973  12.225  34.602  14.469
54556W        W22974  32.406   7.907   2.181
54557W        W22975  11.166  44.439  12.090
54558W        W22976  30.095  19.247   2.898
54559W        W22977  14.329  26.016  11.443
54560W        W22978  37.517  10.725  12.930
54561W        W22979  20.139  30.079   0.776
54562W        W22980  25.539   6.736  11.377
54563W        W22981  34.972  20.245  14.330
54564W        W22982  42.819  37.537   1.417
54565W        W22983   1.398  17.785  14.764
54566W        W22984  44.277  20.714   9.537
54567W        W22985  42.833  12.276  10.570
54568W        W22986   7.766   7.375  14.298
54569W        W22987  21.096  26.119  12.564
54570W        W22988   5.248  41.352   1.821
54571W        W22989   0.755  33.457   2.380
54572W        W22990  35.520  27.058   2.756
54573W        W22991  13.698  37.858  13.803
54574W        W22992   6.211  27.096  12.961
54575W        W22993  11.841  39.343  14.383
54576W        W22994  25.974   2.735  12.909
54577W        W22995  29.924  23.014   2.687
54578W        W22996   4.222  40.378  14.964
54579W        W22997  17.769  25.677  10.958
54580W        W22998  30.158  44.460  10.485
54581W        W22999  26.600  34.569  14.348
54582W        W23000  42.312  14.176  14.480
54583W        W23001  39.934   7.779   2.295
54584W        W23002   3.445   9.722   0.915
54585W        W23003  36.534   3.880  11.441
54586W        W23004  43.930   9.241   4.693
54587W        W23005  39.536  33.955   1.737
54588W        W23006  37.960  24.483  12.424
54589W        W23007  22.249  13.145  13.917
54590W        W23008  39.978   6.394   1.730
54591W        W23009  35.092   9.319  11.906
54592W        W23010   9.160  33.470  10.499
54593W        W23011   9.729  17.201   0.930
54594W        W23012  30.918  42.458   2.352
54595W        W23013  16.700  24.983  11.422
54596W        W23014   4.776  40.831  14.769
54597W        W23015  28.563   9.841  14.506
54598W        W23016  39.880  39.543  13.463
54599W        W23017  11.302  13.322   2.754
54600W        W23018  21.228  28.550   4.814
54601W        W23019  43.800  13.247  11.565
54602W        W23020  13.347  20.209   0.892
54603W        W23021  21.228  44.286  14.003
54604W        W23022  33.586  19.703  14.897
54605W        W23023   8.167   2.342  10.544
54606W        W23024  39.823   3.422   1.388
54607W        W23025  24.568  17.067   4.344
54608W        W23026   7.738  13.716  13.998
54609W        W23027  35.371   5.438   4.292
54610W        W23028  27.187  31.456   3.734
54611W        W23029   6.224  39.982  12.073
54612W        W23030  22.083  36.894   3.309
54613W        W23031  14.318  12.714  11.978
54614W        W23032   8.189  43.948  12.384
54615W        W23033  28.047   8.734  11.095
54616W        W23034  44.467  25.088   3.363
54617W        W23035   1.333  10.743  11.880
54618W        W23036  26.132  39.534  14.309
54619W        W23037  38.834  12.851   4.781
54620W        W23038  35.062   6.239  11.542
54621W        W23039  40.037  42.325  12.375
54622W        W23040  40.477  15.140  14.761
54623W        W23041   7.367  39.956  12.450
54624W        W23042  10.862   7.877   1.741
54625W        W23043   8.307  41.001  10.590
54626W        W23044   1.864   6.390  13.863
54627W        W23045  16.800  36.491  11.917
54628W        W23046  36.991  34.378  14.807
54629W        W23047  43.279  10.213  11.128
54630W        W23048   4.749  15.644   1.875
54631W        W23049  17.129  16.232  14.006
54632W        W23050  20.765  20.166  11.518
54633W        W23051  28.971  26.546   3.245
54634W        W23052   8.297  30.555  12.448
54635W        W23053  37.020  29.064  14.317
54636W        W23054  13.273  15.139   4.219
54637W        W23055  15.592   2.341   0.770
54638W        W23056  44.973   5.330  12.843
54639W        W23057  38.893  17.699   2.316
54640W        W23058  43.445  35.089   0.376
54641W        W23059  35.074  17.724  10.542
54642W        W23060   0.931  15.314   4.342
54643W        W23061  33.515  11.734   2.280
54644W        W23062  10.330  22.732   4.316
54645W        W23063   3.425  26.640  11.897
54646W        W23064  37.546  25.588   1.317
54647W        W23065   9.369  42.916   3.266
54648W        W23066  18.117  19.214  14.942
54649W        W23067   2.722  14.094  13.828
54650W        W23068  19.162  12.278  10.489
54651W        W23069  43.008  18.266   4.319
54652W        W23070  27.136  18.656   3.308
54653W        W23071  25.585  30.530   4.239
54654W        W23072  40.313  32.113   4.796
54655W        W23073  14.736  25.571   3.380
54656W        W23074  14.608  20.589   4.652
54657W        W23075  29.477   4.392  11.552
54658W        W23076  18.709  18.736  12.036
54659W        W23077  22.653  29.052  14.892
54660W        W23078  20.527  10.306  13.920
54661W        W23079   7.724  34.501   2.238
54662W        W23080  38.040  36.915   1.845
54663W        W23081  19.153   1.438   3.713
54664W        W23082  17.775  14.785   4.830
54665W        W23083  38.861   2.935  12.036
54666W        W23084  10.251  37.860   2.178
54667W        W23085  11.362  43.837   4.695
54668W        W23086  40.010  22.599   1.230
54669W        W23087  31.544  17.579   0.793
54670W        W23088  32.608   8.791  11.924
54671W        W23089  44.815   7.870   2.274
54672W        W23090  15.685   2.261  10.917
54673W        W23091   3.321   3.779  14.377
54674W        W23092  18.748  43.837   0.417
54675W        W23093   0.311  21.751   0.756
54676W        W23094  22.039  44.835  13.435
54677W        W23095  38.391  17.758   2.703
54678W        W23096  41.939  24.643   1.381
54679W        W23097  17.074  19.100   0.417
54680W        W23098  23.178  24.182   3.726
54681W        W23099  27.960   1.238  14.457
54682W        W23100  16.138  18.739  11.084
54683W        W23101  41.377   1.758  14.868
54684W        W23102  28.645  24.126   4.210
54685W        W23103  26.647   1.341  10.560
54686W        W23104  44.483  39.832  11.582
54687W        W23105  29.066  24.158   1.414
54688W        W23106  25.649   7.272  13.483
54689W        W23107  16.774   9.218   4.621
54690W        W23108   2.283  27.172  13.431
54691W        W23109  27.542   7.355   2.705
54692W        W23110  26.626  14.338  14.948
54693W        W23111   7.689  13.326  12.828
54694W        W23112  29.433  14.153  14.409
54695W        W23113  13.781   8.192  13.381
54696W        W23114  10.663  41.042   0.418
54697W        W23115  17.229  25.605  13.838
54698W        W23116  35.074  16.212  13.832
54699W        W23117  28.133  22.050   0.875
54700W        W23118  27.035  10.704   2.233
54701W        W23119   1.790  16.090   2.326
54702W        W23120  23.089  40.839  11.531
54703W        W23121   3.805  27.079  14.892
54704W        W23122  28.016  27.468   1.925
54705W        W23123  16.192   1.480   4.706
54706W        W23124  25.973  37.363   0.958
54707W        W23125  35.901   5.364  12.500
54708W        W23126  11.245   5.832  14.375
54709W        W23127  31.036  11.276  12.924
54710W        W23128  43.363   8.325   2.274
54711W        W23129  15.650   8.310   2.193
54712W        W23130  28.536   7.846  13.989
54713W        W23131   8.380  28.668  13.328
54714W        W23132  33.591  13.820  12.567
54715W        W23133  25.642  41.040   3.635
54716W        W23134  26.050  28.993  11.584
54717W        W23135  18.691  40.365   1.343
54718W        W23136   2.818   0.292   4.719
54719W        W23137  43.292  21.519   2.400
54720W        W23138  23.999  12.797   2.234
54721W        W23139  28.015  11.845   3.772
54722W        W23140   4.394  26.154   4.289
54723W        W23141  41.376   1.450  12.525
54724W        W23142  44.785  24.158   1.890
54725W        W23143   0.875  21.020   1.702
54726W        W23144  18.763  19.682  13.882
54727W        W23145  17.648  32.136   3.308
54728W        W23146  36.584  37.393   3.759
54729W        W23147  16.107  10.677  13.858
54730W        W23148   1.389   7.839  14.375
54731W        W23149  41.375  20.537  12.981
54732W        W23150   7.843  14.690   1.696
54733W        W23151   4.765  42.988   4.255
54734W        W23152   7.313  35.995   1.803
54735W        W23153  17.704  10.227   0.848
54736W        W23154   8.798  29.634   3.192
54737W        W23155  25.033  43.810   0.448
54738W        W23156  10.179  38.429   2.751
54739W        W23157  24.018  13.305  14.814
54740W        W23158  42.021  15.767  14.822
54741W        W23159   4.335   2.728  11.979
54742W        W23160  41.926  42.922  14.352
54743W        W23161  11.772  13.141  11.398
54744W        W23162  41.995  11.863   3.629
54745W        W23163  29.472   8.826   1.857
54746W        W23164   5.268  21.067   0.416
54747W        W23165  42.335   8.893   1.700
54748W        W23166  19.272  15.169  14.310
54749W        W23167   9.283   3.450   3.808
54750W        W23168  18.069  43.407  13.871
54751W        W23169  41.499  22.158  11.034
54752W        W23170  38.370  22.728  11.026
54753W        W23171  34.478   2.266  13.969
54754W        W23172  20.081   1.778  11.482
54755W        W23173  25.511  20.222   3.663
54756W        W23174  19.734   4.400   4.227
54757W        W23175  40.926  30.440  10.552
54758W        W23176  18.257  23.107   4.633
54759W        W23177   7.818   2.257  11.045
54760W        W23178  29.599  16.089   1.896
54761W        W23179  22.143   6.363  12.547
54762W        W23180  17.145  19.570   3.863
54763W        W23181   5.249  28.064   3.343
54764W        W23182  23.039  42.879  12.970
54765W        W23183  17.269  18.677  14.493
54766W        W23184  19.258  36.502   0.786
54767W        W23185  18.224   5.400   1.887
54768W        W23186   5.719  38.054   4.246
54769W        W23187  13.297  13.725  14.401
54770W        W23188  33.024  16.783  13.898
54771W        W23189   1.338  30.429  11.998
54772W        W23190  37.844  29.985  10.524
54773W        W23191  20.108  27.547   0.295
54774W        W23192   8.867  12.730   1.923
54775W        W23193  10.355  33.975  13.472
54776W        W23194  20.087   5.855  14.501
54777W        W23195  40.941  26.142  13.929
54778W        W23196  14.710  27.480   4.660
54779W        W23197  30.632   7.246  12.496
54780W        W23198  27.493  29.985  12.985
54781W        W23199  13.688   9.322   3.248
54782W        W23200  23.013  24.606  10.989
54783W        W23201  17.101  17.561  10.951
54784W        W23202  29.479  27.009   2.281
54785W        W23203   5.225  12.145   4.154
54786W        W23204   6.284  41.413  14.368
54787W        W23205  31.611  28.502  11.120
54788W        W23206  23.055  25.596   2.677
54789W        W23207   4.848  44.505  11.964
54790W        W23208  22.138  12.166   4.261
54791W        W23209  25.623  35.576  13.853
54792W        W23210   9.336  14.100  12.395
54793W        W23211  33.030  13.311  12.992
54794W        W23212  15.657   8.168   3.376
54795W        W23213  31.966  42.909  12.889
54796W        W23214  38.067   0.900   1.211
54797W        W23215  15.763  20.546  12.932
54798W        W23216  28.118  22.050  11.917
54799W        W23217   7.790  22.161  14.780
54800W        W23218   2.388  16.687  14.939
54801W        W23219   1.466  30.131  12.042
54802W        W23220  18.088  19.172  12.525
54803W        W23221  39.852  28.030  14.933
54804W        W23222  14.782   4.322   4.757
54805W        W23223  31.980  44.480   0.776
54806W        W23224   5.795  35.014   4.273
54807W        W23225  19.638  37.514   4.126
54808W        W23226  34.948   2.237  13.536
54809W        W23227  13.141  28.182   1.310
54810W        W23228  25.106   9.862  13.962
54811W        W23229  12.739   4.316  12.479
54812W        W23230  33.454   7.886   2.321
54813W        W23231  25.090   5.220  14.425
54814W        W23232   0.286  20.734  14.464
54815W        W23233  16.150  11.842  14.380
54816W        W23234  31.903  20.121  12.071
54817W        W23235  14.617   9.283  10.890
54818W        W23236  25.475  36.456  12.892
54819W        W23237  16.786  28.550   4.298
54820W        W23238   3.751  41.487   3.236
54821W        W23239  13.117  16.683  14.326
54822W        W23240  38.456  43.870   4.129
54823W        W23241  37.938  42.009  10.411
54824W        W23242   3.350   4.944  11.047
54825W        W23243  38.531  22.698  12.540
54826W        W23244  15.103  30.135  13.047
54827W        W23245  41.322  41.383   3.375
54828W        W23246  43.516  22.655   4.675
54829W        W23247  19.269   9.171  12.087
54830W        W23248   1.917  25.478  13.806
54831W        W23249   6.746  28.502   2.188
54832W        W23250  31.582  28.973   3.172
54833W        W23251  32.068  23.081   1.846
54834W        W23252  17.612  30.602  10.490
54835W        W23253  27.558  19.758   3.810
54836W        W23254  36.039  43.415   0.280
54837W        W23255  19.110  30.932   3.175
54838W        W23256  10.705   6.292   2.274
54839W        W23257   0.456   7.842   1.898
54840W        W23258  30.627  31.965  13.849
54841W        W23259  23.204  21.635   4.135
54842W        W23260   0.248  41.311  10.955
54843W        W23261  35.569  39.012   1.869
54844W        W23262  11.179  28.010  11.074
54845W        W23263  39.421  34.451  13.014
54846W        W23264  11.181   5.293  11.418
54847W        W23265  33.924   4.404   1.365
54848W        W23266  28.931  11.296   0.830
54849W        W23267   9.866  43.810   2.199
54850W        W23268  28.548   9.668   4.232
54851W        W23269  26.554  36.443   1.843
54852W        W23270  26.122  22.708  11.497
54853W        W23271  35.492   2.420   4.317
54854W        W23272  32.428  20.556   1.237
54855W        W23273  33.893  11.335  10.445
54856W        W23274  43.797   1.860  11.450
54857W        W23275  44.771   2.293  13.344
54858W        W23276  21.243  12.709   4.793
54859W        W23277  30.011  33.513   4.229
54860W        W23278  30.456   5.194   3.178
54861W        W23279   7.679  21.114  14.425
54862W        W23280   7.188   6.214  10.614
54863W        W23281   7.788   9.229  11.084
54864W        W23282  43.967  38.495  10.644
54865W        W23283   1.969  36.896  14.497
54866W        W23284   1.386  11.140  13.316
54867W        W23285  14.627   9.380  14.922
54868W        W23286  22.660  31.426   1.210
54869W        W23287  35.997  37.397   1.319
54870W        W23288  31.042  27.048   0.747
54871W        W23289  16.576  38.447  11.595
54872W        W23290  36.467  33.015   2.827
54873W        W23291  32.605   9.184  12.929
54874W        W23292   3.289  34.459   1.398
54875W        W23293  41.971   0.896  13.879
54876W        W23294  16.746  31.075  14.367
54877W        W23295  26.053  28.081  12.878
54878W        W23296  15.814  30.585   4.670
54879W        W23297  27.490  23.576   1.805
54880W        W23298  43.952  19.163  12.465
54881W        W23299  44.869  11.754   2.250
54882W        W23300  35.495   2.225  10.477
54883W        W23301  13.106  36.402   1.415
54884W        W23302  26.529  37.966   1.731
54885W        W23303  42.349   7.235   2.186
54886W        W23304   2.240  19.229   5.088
54887W        W23305  42.434  38.410  14.373
54888W        W23306   1.401  12.216  11.868
54889W        W23307  11.789  31.903  11.032
54890W        W23308  15.304  33.468   2.272
54891W        W23309  13.634  16.271  10.503
54892W        W23310  17.299  42.009   4.630
54893W        W23311   3.248  36.037  12.841
54894W        W23312  39.914  35.594   2.715
54895W        W23313   8.799  24.706   1.445
54896W        W23314  34.060  41.823   3.340
54897W        W23315   2.443  29.651  10.979
54898W        W23316  37.050  39.057  14.904
54899W        W23317  10.288  34.586  10.074
54900W        W23318  13.699  44.909   2.333
54901W        W23319  35.901   3.227  12.977
54902W        W23320  34.086   4.715   1.909
54903W        W23321  30.467  30.435   4.661
54904W        W23322   3.838   7.369   5.214
54905W        W23323   1.786  28.616   1.249
54906W        W23324  10.382  38.463   4.158
54907W        W23325  17.213   5.437  14.425
54908W        W23326  11.653  36.567   4.619
54909W        W23327  44.943   6.225   4.642
54910W        W23328  37.545   2.732   4.338
54911W        W23329  35.102  44.301  10.021
54912W        W23330  30.445  38.487  12.944
54913W        W23331  26.984   4.436  12.969
54914W        W23332  30.461  23.646  12.843
54915W        W23333  26.568  19.238   1.388
54916W        W23334  24.187  38.517   0.748
54917W        W23335   6.414   0.301  11.858
54918W        W23336  23.195  20.242  14.929
54919W        W23337  30.010  10.811   2.739
54920W        W23338  41.003  30.044   2.902
54921W        W23339   0.285   1.291   0.440
54922W        W23340  25.543  38.867  12.353
54923W        W23341  31.615  39.448  10.563
54924W        W23342  14.224  34.892   0.880
54925W        W23343  38.515   1.244   0.397
54926W        W23344  22.563  25.069   3.862
54927W        W23345  28.184   1.376  11.577
54928W        W23346  18.788  24.656  14.808
54929W        W23347  31.520  30.976   3.799
54930W        W23348   9.820   8.721  14.420
54931W        W23349  35.084  20.717   4.286
54932W        W23350  38.467  12.660   2.266
54933W        W23351  35.973   8.798   1.814
54934W        W23352  31.410  18.789  12.456
54935W        W23353  19.258  35.505   2.336
54936W        W23354  35.028  12.623   2.355
54937W        W23355   5.844  33.439  13.923
54938W        W23356  34.119   0.351  12.037
54939W        W23357  39.895  24.602   1.232
54940W        W23358   4.432  40.048  11.858
54941W        W23359  24.009  23.033   4.680
54942W        W23360   5.407  29.611  14.007
54943W        W23361  25.981  18.749  12.431
54944W        W23362   6.792  32.916   3.679
54945W        W23363   0.755  20.239  11.069
54946W        W23364  15.215   2.853   4.343
54947W        W23365  28.672   5.874  14.972
54948W        W23366  28.933  42.506   4.354
54949W        W23367   6.242  41.474  12.536
54950W        W23368  32.438  19.577   4.206
54951W        W23369  22.596   3.829   0.763
54952W        W23370  34.445  30.076   2.896
54953W        W23371  44.898  42.829  14.482
54954W        W23372  16.630  26.513   1.387
54955W        W23373  11.694   0.935   2.268
54956W        W23374  43.978  20.529  12.057
54957W        W23375  12.825  41.423  14.385
54958W        W23376  15.083  26.993  12.035
54959W        W23377  39.532  29.504  10.605
54960W        W23378  17.177  37.367  12.871
54961W        W23379   6.237   7.727  14.992
54962W        W23380   8.667   8.354  13.311
54963W        W23381  19.268  35.582  10.440
54964W        W23382   1.483  19.078   1.379
54965W        W23383   3.870   7.257  13.456
54966W        W23384  39.367  44.294  10.487
54967W        W23385  20.694   3.709  12.920
54968W        W23386  18.053  30.982  14.431
54969W        W23387  39.006  33.584  10.464
54970W        W23388  41.859  17.125   4.129
54971W        W23389  42.028  33.081  13.960
54972W        W23390  36.027  35.473  10.447
54973W        W23391  31.050  41.470   2.796
54974W        W23392  44.406  25.480  11.392
54975W        W23393  40.978  28.945   0.735
54976W        W23394  32.004  14.812  14.833
54977W        W23395  24.223   4.861  12.991
54978W        W23396   3.343  21.591   2.330
54979W        W23397   1.421  13.715  14.838
54980W        W23398  42.296  26.144   1.920
54981W        W23399   7.819  39.554  10.422
54982W        W23400  24.490   7.838   1.890
54983W        W23401  28.656  25.501   3.680
54984W        W23402  28.044  10.362   1.707
54985W        W23403  20.185  11.143   3.366
54986W        W23404  21.754  19.551  10.912
54987W        W23405   2.721  13.153   1.327
54988W        W23406  19.082  18.776   2.230
54989W        W23407  13.320  15.581  12.934
54990W        W23408  36.896  36.094   2.185
54991W        W23409  35.431  35.947   4.692
54992W        W23410  18.112  27.542   3.720
54993W        W23411  37.908  14.312   5.176
54994W        W23412  30.948  43.002  11.927
54995W        W23413  39.889  20.076  13.948
54996W        W23414  13.755  24.089   3.242
54997W        W23415  44.827  33.889   2.410
54998W        W23416  34.465  24.173   2.733
54999W        W23417  27.961  31.458  11.590
55000W        W23418  26.176  11.131   2.393
55001W        W23419   7.287  35.425   0.836
55002W        W23420  14.104  39.868  12.862
55003W        W23421  20.641  41.942  10.984
55004W        W23422  22.193  18.160   0.787
55005W        W23423  33.530  32.043   0.310
55006W        W23424  15.768  42.363  11.610
55007W        W23425  20.069  36.463   3.261
55008W        W23426  34.543  16.316   4.328
55009W        W23427  32.393  27.181  14.423
55010W        W23428  30.571  24.981  14.833
55011W        W23429  42.473  16.178  12.846
55012W        W23430  24.645  40.998   3.366
55013W        W23431  19.613   4.765   2.799
55014W        W23432  25.501  39.543   2.822
55015W        W23433  11.681  37.397  10.530
55016W        W23434  27.020  41.909  13.931
55017W        W23435  42.483  15.158  10.464
55018W        W23436  23.092  31.011   1.924
55019W        W23437  42.285  30.651  14.324
55020W        W23438  44.467  28.492  12.936
55021W        W23439   5.234  27.658   3.329
55022W        W23440  40.901  15.604  11.427
55023W        W23441  43.011   4.934   5.163
55024W        W23442  22.697  24.594  14.969
55025W        W23443  39.549  15.171  14.369
55026W        W23444  15.292  11.300   4.130
55027W        W23445  10.215  33.945  11.959
55028W        W23446  19.100  15.804  13.309
55029W        W23447  16.246  18.658   0.835
55030W        W23448  39.485  29.052   0.813
55031W        W23449  40.820   8.388  10.547
55032W        W23450   5.356  36.060   2.286
55033W        W23451  15.713  18.683   5.190
55034W        W23452  39.974   5.843  14.807
55035W        W23453  15.719  28.456  13.807
55036W        W23454   6.903  23.129  10.450
55037W        W23455   6.309   0.404   2.344
55038W        W23456   5.919  41.518  11.107
55039W        W23457   5.252  27.651  10.613
55040W        W23458   5.822  41.508  13.522
55041W        W23459  16.123  36.904  12.579
55042W        W23460  12.694  24.072   2.777
55043W        W23461   4.338  32.030  14.874
55044W        W23462  28.061  28.972  14.838
55045W        W23463  29.015  11.365  12.401
55046W        W23464   9.277  39.465  11.053
55047W        W23465  14.691  14.153  10.418
55048W        W23466  34.504  42.878   4.639
55049W        W23467  23.594  37.375   4.149
55050W        W23468  32.043  26.548   1.795
55051W        W23469  38.473  27.517  12.535
55052W        W23470  28.491  23.178  11.030
55053W        W23471  42.866  39.881   0.271
55054W        W23472  42.812  26.534  13.389
55055W        W23473  13.147  42.802  11.019
55056W        W23474  11.731  44.427   9.985
55057W        W23475  12.745   0.926  12.529
55058W        W23476   3.771   1.332  14.989
55059W        W23477  23.611  43.369  12.429
55060W        W23478  32.489   1.395   2.326
55061W        W23479  34.977  25.160  10.993
55062W        W23480  23.699  30.607   3.243
55063W        W23481  19.643  15.634   4.607
55064W        W23482   9.660  41.797   2.403
55065W        W23483  23.120  15.713   0.879
55066W        W23484   6.211  15.615   1.386
55067W        W23485  44.457  28.030  11.453
55068W        W23486  29.018  21.611  11.375
55069W        W23487  43.503  28.616   4.217
55070W        W23488  30.569  16.148  11.593
55071W        W23489  25.599  29.092   0.379
55072W        W23490  35.036  12.191   4.161
55073W        W23491  37.555  26.978  10.456
55074W        W23492  22.076  31.021   3.322
55075W        W23493  35.978  10.216  12.363
55076W        W23494   6.287   7.877   2.369
55077W        W23495  18.104  10.259  13.426
55078W        W23496  33.943  39.533  11.049
55079W        W23497   9.308   0.839  12.419
55080W        W23498  31.910   8.818  11.004
55081W        W23499  27.661  41.037   1.294
55082W        W23500  21.172  32.105   4.798
55083W        W23501  33.568  15.703   4.305
55084W        W23502  44.909  30.446  10.520
55085W        W23503  30.122  18.590  10.932
55086W        W23504   0.890   0.859  12.083
55087W        W23505  22.536  27.461   4.201
55088W        W23506  35.440  29.472   1.747
55089W        W23507  33.968  27.537   3.263
55090W        W23508  14.226  14.624   2.332
55091W        W23509  32.393  36.054   3.688
55092W        W23510   1.237  44.929   0.843
55093W        W23511  13.821   1.864   1.790
55094W        W23512  29.527  24.112  12.562
55095W        W23513  32.886  30.634   2.731
55096W        W23514  26.076  33.465  13.509
55097W        W23515  21.522  11.227  13.446
55098W        W23516   7.187   9.819   4.825
55099W        W23517  44.966   4.846   3.196
55100W        W23518  34.417   3.217  11.408
55101W        W23519  34.396  27.066  11.007
55102W        W23520  15.657   7.371  14.776
55103W        W23521  13.723   9.377  12.366
55104W        W23522  18.221  37.901  12.938
55105W        W23523   4.888  11.229   3.758
55106W        W23524  18.564  38.848   0.267
55107W        W23525  34.033   3.942   3.158
55108W        W23526  23.230  40.845  13.053
55109W        W23527   3.931  10.860  13.039
55110W        W23528  44.000  35.578  12.056
55111W        W23529  13.145  24.661   1.448
55112W        W23530   2.441  26.185   0.321
55113W        W23531   5.802  12.817   1.272
55114W        W23532  30.552   8.801   0.439
55115W        W23533   5.781  17.077   2.803
55116W        W23534  30.572  40.480  14.293
55117W        W23535  24.046  13.704   4.332
55118W        W23536  15.758  32.015   0.452
55119W        W23537  34.557  28.674   3.335
55120W        W23538  33.992   7.232  13.513
55121W        W23539   2.759  38.829   3.272
55122W        W23540  12.219  17.201  13.379
55123W        W23541  44.877   4.920  13.494
55124W        W23542  33.432  14.638  14.308
55125W        W23543  42.394  32.480  13.961
55126W        W23544  42.875  26.145   0.840
55127W        W23545  41.355  35.553   0.427
55128W        W23546  23.113   5.280  10.447
55129W        W23547  43.798  21.720   5.758
55130W        W23548  12.320  12.810  13.978
55131W        W23549  33.126  10.336  14.342
55132W        W23550   2.895  22.996  11.416
55133W        W23551  34.500  23.633   1.819
55134W        W23552  39.453  17.656   1.404
55135W        W23553   2.338  43.924   3.634
55136W        W23554  15.623  15.107  12.971
55137W        W23555   9.776  35.931  10.942
55138W        W23556  12.793   8.383  13.463
55139W        W23557  37.536  43.950   4.826
55140W        W23558   4.299  33.575  12.016
55141W        W23559  17.115  30.550   1.423
55142W        W23560  19.207  13.636   4.712
55143W        W23561  15.186   3.817  11.422
55144W        W23562   3.216   5.412  11.457
55145W        W23563  38.429  32.042  13.885
55146W        W23564  26.518   2.820   3.155
55147W        W23565  30.416  40.968   4.341
55148W        W23566   6.918  34.990  12.393
55149W        W23567   8.771  27.949   3.231
55150W        W23568  20.554  22.530  14.488
55151W        W23569  32.602   7.343   3.301
55152W        W23570  11.166   6.323   2.356
55153W        W23571  43.480  15.240   4.329
55154W        W23572   6.273  44.498   2.802
55155W        W23573   9.272  30.987  14.410
55156W        W23574  27.453  26.643   0.392
55157W        W23575  30.136  34.006   1.696
55158W        W23576  22.224  40.433   0.893
55159W        W23577  11.243   5.262  13.828
55160W        W23578  43.957  44.442   2.345
55161W        W23579  34.940  15.133   2.721
55162W        W23580  25.195  24.111  11.525
55163W        W23581  13.273  26.488   0.914
55164W        W23582   0.290  11.793  10.460
55165W        W23583  43.767  22.131  13.011
55166W        W23584  39.885  19.102   4.325
55167W        W23585  24.586  14.320  13.934
55168W        W23586  19.606   9.771   4.308
55169W        W23587  39.920   2.799   4.668
55170W        W23588  28.556   6.760   4.287
55171W        W23589  30.485  19.584  12.488
55172W        W23590  37.509  22.012  14.773
55173W        W23591  34.026   9.232   4.637
55174W        W23592  21.247  11.373   4.785
55175W        W23593  17.671  42.348   3.841
55176W        W23594  29.515  10.345  11.608
55177W        W23595   0.870  38.559  11.951
55178W        W23596  38.461  15.716  11.387
55179W        W23597   9.357  31.110   4.234
55180W        W23598  14.137  34.103  14.759
55181W        W23599  33.429   7.865  11.122
55182W        W23600  39.863   2.363   2.755
55183W        W23601  11.701  28.611   4.749
55184W        W23602  17.159  28.002  14.380
55185W        W23603  35.856  25.206   1.814
55186W        W23604  19.567  27.102  12.994
55187W        W23605   0.978   1.317   4.803
55188W        W23606   7.314  35.869  14.765
55189W        W23607  24.051  36.882   3.256
55190W        W23608  26.563  36.351   2.705
55191W        W23609  15.721  42.372  13.502
55192W        W23610   9.263  16.671  13.547
55193W        W23611  12.788  19.224   2.308
55194W        W23612  31.483  28.010   0.358
55195W        W23613  14.806   0.875   3.385
55196W        W23614  40.529  33.032   0.406
55197W        W23615  14.728  44.259  13.061
55198W        W23616  29.993  15.822  12.832
55199W        W23617  42.515  40.483   3.200
55200W        W23618  36.898  28.176  12.525
55201W        W23619   6.398  42.353  13.027
55202W        W23620   8.328  15.175   1.708
55203W        W23621  10.785   9.362   3.164
55204W        W23622  34.053  21.191   0.764
55205W        W23623  43.923   1.923  10.962
55206W        W23624  43.773  11.247   1.782
55207W        W23625  11.740  23.541  12.395
55208W        W23626  10.296  40.955   3.334
55209W        W23627  10.841  33.946   2.770
55210W        W23628  24.485   8.756  10.630
55211W        W23629   4.342  18.688   2.902
55212W        W23630  19.640  13.144  13.919
55213W        W23631  31.127   8.392   2.242
55214W        W23632   4.886  25.178   3.207
55215W        W23633  44.465   5.793   2.235
55216W        W23634   0.915  11.292  13.956
55217W        W23635   0.897   1.907   2.767
55218W        W23636   9.742   6.870  10.510
55219W        W23637  14.788  37.917  13.972
55220W        W23638   4.306   3.889   0.362
55221W        W23639  36.008   5.754  11.086
55222W        W23640  37.431  12.675  10.995
55223W        W23641  11.273   8.706  12.856
55224W        W23642  40.466  22.536   1.415
55225W        W23643   5.862  16.786  14.835
55226W        W23644  12.301  23.027  12.029
55227W        W23645  30.021  34.109  11.885
55228W        W23646  13.154  15.237   0.791
55229W        W23647  24.492  35.047   3.681
55230W        W23648  12.279  13.688   1.840
55231W        W23649  31.643  34.502   4.207
55232W        W23650  22.728  39.961   3.779
55233W        W23651   3.367  35.472  14.357
55234W        W23652  38.326  30.975  14.449
55235W        W23653  31.017  24.620  11.880
55236W        W23654  41.960  31.095   4.714
55237W        W23655  30.424  32.893  14.860
55238W        W23656   7.864  17.288  14.799
55239W        W23657   1.371  44.454   2.842
55240W        W23658  18.789  14.763   4.629
55241W        W23659  17.204  23.109   0.294
55242W        W23660  13.659   6.325   3.784
55243W        W23661  44.765  25.143  12.836
55244W        W23662  31.445  14.632  12.027
55245W        W23663  16.647  41.920  11.490
55246W        W23664  14.604   6.278   2.404
55247W        W23665  37.430  13.840  10.532
55248W        W23666  28.004  40.901   2.277
55249W        W23667   8.310   4.230   0.277
55250W        W23668  18.199  32.436   2.255
55251W        W23669  27.168  13.750  13.441
55252W        W23670   0.379  14.136   2.376
55253W        W23671  14.706  28.621  11.087
55254W        W23672  19.158  33.514  11.440
55255W        W23673   8.282   6.679  11.902
55256W        W23674  19.658  42.897  10.025
55257W        W23675  17.109   8.705   3.705
55258W        W23676  23.578  40.898   3.673
55259W        W23677  24.528  10.151   2.237
55260W        W23678   3.855  39.962  13.947
55261W        W23679   7.379   7.878   2.398
55262W        W23680  30.455  42.337   2.200
55263W        W23681  41.878  13.152   4.601
55264W        W23682  44.382  43.289  14.398
55265W        W23683  31.148  19.612   2.257
55266W        W23684  11.336  40.871  13.048
55267W        W23685  44.871  17.572   3.652
55268W        W23686  22.006  33.906  11.525
55269W        W23687  34.015   2.467   2.239
55270W        W23688  25.038   3.232  11.611
55271W        W23689  23.026   9.161   0.483
55272W        W23690  19.719  11.628   4.325
55273W        W23691   0.318  36.491  14.367
55274W        W23692   7.251  26.528  13.802
55275W        W23693  24.212   6.705  12.918
55276W        W23694   8.334  16.711   2.238
55277W        W23695  35.853   3.887  11.952
55278W        W23696  42.999   8.168   0.742
55279W        W23697  18.729  39.397   3.365
55280W        W23698  29.998  29.561  10.999
55281W        W23699  30.984  33.482  11.061
55282W        W23700  29.528  35.383   3.684
55283W        W23701  18.102   2.314   2.295
55284W        W23702  33.451   4.914  13.846
55285W        W23703  17.267  13.121   2.309
55286W        W23704  24.506  34.074   4.160
55287W        W23705  42.281  15.303  12.085
55288W        W23706   9.335  18.248  11.878
55289W        W23707  34.404  16.605  14.509
55290W        W23708  12.814  18.125  10.976
55291W        W23709  21.718  41.947   4.723
55292W        W23710  39.961   2.786  11.111
55293W        W23711  29.469  32.117   2.735
55294W        W23712  28.118  38.515  13.871
55295W        W23713  33.587  25.060   0.825
55296W        W23714  39.912  22.518   0.941
55297W        W23715  18.765  40.510   2.232
55298W        W23716  31.402  22.060   4.641
55299W        W23717  31.057  41.363  10.516
55300W        W23718  29.565  17.237  11.977
55301W        W23719  21.019   4.270   2.675
55302W        W23720  24.062  25.044   4.190
55303W        W23721  25.121  34.428   0.346
55304W        W23722  10.724  13.236   4.692
55305W        W23723  10.367  34.422  10.492
55306W        W23724  10.238  42.305  11.966
55307W        W23725   9.162  30.954  13.437
55308W        W23726  30.553  33.887   4.254
55309W        W23727  21.735  31.907  11.007
55310W        W23728  20.542  37.360  13.058
55311W        W23729  17.642  12.199   5.199
55312W        W23730  34.489   3.396   0.251
55313W        W23731  32.009   3.450  10.059
55314W        W23732  10.813   6.216  11.893
55315W        W23733   8.236  28.625  10.959
55316W        W23734  29.059  28.117   3.200
55317W        W23735   7.705  10.863   4.132
55318W        W23736  14.274  24.631   2.389
55319W        W23737  15.185  30.629  12.044
55320W        W23738  16.308  39.035  10.897
55321W        W23739  43.863  40.518   3.253
55322W        W23740   6.287  24.486   4.187
55323W        W23741  39.874  20.202   2.758
55324W        W23742   5.804  43.949   0.811
55325W        W23743   2.931  40.887  14.852
55326W        W23744   1.856   7.762  12.428
55327W        W23745  38.341  44.779   1.409
55328W        W23746  44.896  39.440   3.146
55329W        W23747  31.979  38.903   0.368
55330W        W23748  34.057  21.532   3.344
55331W        W23749  27.107   4.434  12.445
55332W        W23750  43.278   6.911  12.892
55333W        W23751  12.219  33.618   1.854
55334W        W23752  36.407  33.007  11.990
55335W        W23753  30.072  40.980  11.537
55336W        W23754  20.769  21.108   3.274
55337W        W23755   0.946  18.605  13.405
55338W        W23756  24.523   7.702   2.355
55339W        W23757   3.896  25.170   0.748
55340W        W23758  11.705  40.897  11.480
55341W        W23759  34.893  12.254  11.486
55342W        W23760   1.356  13.769   3.248
55343W        W23761  41.823  18.174  11.902
55344W        W23762  10.722  36.431   3.826
55345W        W23763   0.747  37.440  13.045
55346W        W23764  13.171  14.320   3.777
55347W        W23765   0.474  30.528  11.482
55348W        W23766   9.234  19.577  10.137
55349W        W23767  35.432  17.259   2.369
55350W        W23768  14.248  30.958   4.126
55351W        W23769  44.851  27.688   2.268
55352W        W23770  15.248  40.028   0.955
55353W        W23771   7.181   6.416  11.437
55354W        W23772  29.521  43.304  13.318
55355W        W23773  21.754   2.752   1.418
55356W        W23774  17.572  20.688  13.313
55357W        W23775   6.283  38.862   4.754
55358W        W23776   0.438  14.148   3.652
55359W        W23777   3.235  37.002  11.912
55360W        W23778  22.548  15.124  11.057
55361W        W23779  14.832  19.251   4.147
55362W        W23780  31.107  16.708   1.257
55363W        W23781  40.962  13.601   2.668
55364W        W23782  18.765   6.777   1.855
55365W        W23783  29.103  20.723  13.338
55366W        W23784  17.220  10.298  12.511
55367W        W23785  18.639  28.963   1.226
55368W        W23786  26.686  18.568  11.981
55369W        W23787  25.211  31.540   1.767
55370W        W23788  18.790  26.182   4.611
55371W        W23789  38.043  24.060  10.585
55372W        W23790  16.273  14.245   0.738
55373W        W23791  29.961  12.737  12.445
55374W        W23792  42.961   0.940   1.928
55375W        W23793  30.049   8.810   1.361
55376W        W23794  32.518  28.109  12.994
55377W        W23795  42.497   4.424  12.841
55378W        W23796   0.313   5.872  13.033
55379W        W23797  14.283  20.169   1.791
55380W        W23798   2.898  34.481   0.249
55381W        W23799  30.979  24.093  10.447
55382W        W23800  42.946  14.194   1.434
55383W        W23801  28.087   4.850  12.496
55384W        W23802  33.879  22.184   4.133
55385W        W23803  11.306  14.115   3.347
55386W        W23804  24.567  17.614   2.880
55387W        W23805   5.921   1.943   1.727
55388W        W23806  33.388  34.447   4.640
55389W        W23807   5.230  24.132  10.541
55390W        W23808  37.043  17.638  14.850
55391W        W23809   2.310   0.845   1.931
55392W        W23810   1.957   1.916  12.914
55393W        W23811  22.252  35.555   4.612
55394W        W23812  41.320  36.408   3.320
55395W        W23813  32.408   7.673  11.073
55396W        W23814  33.478  41.523  13.928
55397W        W23815  28.553   9.231  13.352
55398W        W23816  43.417  26.123   4.813
55399W        W23817  36.043  43.850   3.848
55400W        W23818  11.129  20.751   4.786
55401W        W23819  29.147  38.459   1.854
55402W        W23820  27.553  11.859  13.049
55403W        W23821  20.098  43.444  14.853
55404W        W23822  39.396   8.857  14.974
55405W        W23823   4.889  36.363  12.018
55406W        W23824   7.830  22.106   4.631
55407W        W23825  16.658  19.575  13.332
55408W        W23826  42.967  44.864  12.379
55409W        W23827   7.802   6.421  14.512
55410W        W23828  19.675  10.865  12.528
55411W        W23829  14.707  22.628   0.425
55412W        W23830  28.181  32.471  14.989
55413W        W23831   8.233  43.452   3.721
55414W        W23832   9.305  18.582   0.419
55415W        W23833  22.718  20.541  10.104
55416W        W23834  24.524  41.472  11.915
55417W        W23835   6.745   8.702  13.829
55418W        W23836  27.064   5.395   1.885
55419W        W23837  38.985   0.752  14.439
55420W        W23838  18.191  21.178   0.884
55421W        W23839  12.697   1.363   0.950
55422W        W23840  21.091  16.080   2.295
55423W        W23841  17.729  31.095   4.683
55424W        W23842  38.339   7.766   0.902
55425W        W23843  33.947  28.531   4.194
55426W        W23844  43.330  35.596   3.291
55427W        W23845  34.008  41.013   3.850
55428W        W23846  29.949  30.931  12.871
55429W        W23847  11.347   1.379  12.881
55430W        W23848  17.791  29.620   0.932
55431W        W23849  38.571   8.888  14.344
55432W        W23850  31.962  28.529   2.835
55433W        W23851  24.478  16.586   1.731
55434W        W23852  43.770   3.881   3.335
55435W        W23853   1.816  13.832  12.440
55436W        W23854  18.627  15.760   0.781
55437W        W23855  24.111  28.555  12.961
55438W        W23856  27.608  26.617   2.705
55439W        W23857  23.716  28.546  12.862
55440W        W23858  42.788  19.249  11.530
55441W        W23859   9.774  43.963  12.508
55442W        W23860  35.424  36.386  11.007
55443W        W23861  39.488   2.235  11.945
55444W        W23862  36.470  38.924   1.857
55445W        W23863  38.525  41.490   1.794
55446W        W23864  33.405  44.852   2.771
55447W        W23865  37.356  33.959   1.714
55448W        W23866  15.717  11.154   2.787
55449W        W23867  43.002  11.735   3.206
55450W        W23868  32.060  12.719  14.834
55451W        W23869  11.168  24.641   2.409
55452W        W23870  15.133  24.020   4.152
55453W        W23871  43.362   6.351   0.467
55454W        W23872  33.492   8.758  10.060
55455W        W23873  42.938  32.970   3.223
55456W        W23874  37.927   6.366  11.490
55457W        W23875   1.823  12.234  13.341
55458W        W23876  35.367  10.375   2.775
55459W        W23877  33.594  28.589  12.977
55460W        W23878  43.839  31.998  14.501
55461W        W23879  29.513  39.412  10.614
55462W        W23880  14.269  42.902  11.874
55463W        W23881  33.619  38.509  12.504
55464W        W23882  40.420   9.844  12.068
55465W        W23883  29.171  25.531  11.443
55466W        W23884  17.777  29.439  14.951
55467W        W23885  26.120   2.424  13.460
55468W        W23886  13.751  11.368   1.345
55469W        W23887  43.405  10.757  12.063
55470W        W23888  41.304   2.313  14.483
55471W        W23889  38.468  34.907   4.247
55472W        W23890  35.384  13.634  11.935
55473W        W23891  39.924  22.227  10.506
55474W        W23892  18.296  31.054  12.524
55475W        W23893  12.341  27.063  14.943
55476W        W23894  14.279   9.178   0.921
55477W        W23895  39.940  11.291   3.203
55478W        W23896  15.654  23.226  11.507
55479W        W23897  42.329  29.592  12.959
55480W        W23898  16.708  16.795  13.847
55481W        W23899  18.751  34.573  12.850
55482W        W23900   1.274  17.200  14.282
55483W        W23901  18.125  31.145   1.243
55484W        W23902  24.561  30.528   2.784
55485W        W23903  10.295   7.749   0.955
55486W        W23904  33.429  41.019  10.412
55487W        W23905  28.060  33.098  12.506
55488W        W23906  28.156   3.265   3.189
55489W        W23907  44.377  44.889  12.877
55490W        W23908  44.416  15.664  11.913
55491W        W23909  27.053  16.111  14.288
55492W        W23910  35.997  25.497   1.879
55493W        W23911  36.043  33.047   3.344
55494W        W23912  32.626  17.094   3.656
55495W        W23913   3.218  43.372   0.965
55496W        W23914  23.223  42.941   2.804
55497W        W23915  12.748   6.748  14.844
55498W        W23916  44.005  34.024   0.423
55499W        W23917   2.272  28.116  12.074
55500W        W23918   8.672  21.047   0.410
55501W        W23919  18.247  15.112  13.893
55502W        W23920  42.527  17.686   0.444
55503W        W23921  38.326  38.954   2.827
55504W        W23922  35.390  42.951   4.760
55505W        W23923   1.969  23.537   2.383
55506W        W23924   4.929  31.477  12.468
55507W        W23925  40.910  38.935   1.769
55508W        W23926  17.678  28.589   3.745
55509W        W23927  13.701   5.261  10.979
55510W        W23928  38.940  20.220  12.021
55511W        W23929   7.847  44.771   0.406
55512W        W23930  43.951   7.352   3.716
55513W        W23931  36.391  23.528   1.707
55514W        W23932  41.484  18.123   0.942
55515W        W23933  10.741  38.458   1.910
55516W        W23934  43.920  24.678   0.890
55517W        W23935  13.655  24.482  12.974
55518W        W23936  16.166  11.314   4.344
55519W        W23937   4.318  13.337   4.748
55520W        W23938  44.340   3.399  12.946
55521W        W23939  19.276  32.569   3.233
55522W        W23940  41.975   1.977   3.804
55523W        W23941   8.682  36.371   5.137
55524W        W23942  32.518  31.914   4.115
55525W        W23943  12.238  27.662  12.374
55526W        W23944   7.705  36.587  13.015
55527W        W23945  33.071  26.042  12.357
55528W        W23946  43.456  28.002  12.470
55529W        W23947  33.955  40.355  14.423
55530W        W23948   7.896  10.305   3.206
55531W        W23949  38.505  24.126  10.909
55532W        W23950  13.661  22.238  13.467
55533W        W23951   3.812  31.544  10.437
55534W        W23952  26.957   8.368   2.219
55535W        W23953  30.018  44.982  13.446
55536W        W23954  19.630  43.966  13.865
55537W        W23955  11.681  23.158  10.483
55538W        W23956  10.252  33.545   2.691
55539W        W23957  41.791  33.081  11.525
55540W        W23958  19.079  26.158  10.522
55541W        W23959   5.226  35.017  14.968
55542W        W23960   0.255  27.585   2.324
55543W        W23961  41.851   9.747  14.975
55544W        W23962  17.674  37.845  11.975
55545W        W23963   0.282  29.027  14.923
55546W        W23964  44.860  41.494  14.760
55547W        W23965  30.523   7.305  12.018
55548W        W23966  25.552  26.673   2.258
55549W        W23967  39.869  37.883  14.785
55550W        W23968  10.339   6.235   3.726
55551W        W23969  32.932  30.554  10.985
55552W        W23970  30.657  43.489  11.009
55553W        W23971  24.508  40.367  14.956
55554W        W23972  38.974   1.266   4.836
55555W        W23973  36.906  31.069   3.306
55556W        W23974  10.693   0.387  13.423
55557W        W23975  35.095   5.438  13.982
55558W        W23976  43.368   5.717  12.414
55559W        W23977  27.539  15.669   5.268
55560W        W23978  35.076   6.747  14.958
55561W        W23979  34.597   2.433   3.827
55562W        W23980   5.732  34.093   0.738
55563W        W23981  42.851  28.174  11.969
55564W        W23982   1.741  23.013  14.315
55565W        W23983  17.231  29.463  12.054
55566W        W23984  34.403  43.825  12.425
55567W        W23985  31.121  30.933   2.276
55568W        W23986   9.242  24.201  12.552
55569W        W23987  12.316  44.760  13.324
55570W        W23988  37.939  13.763   1.773
55571W        W23989  30.004  38.531  11.498
55572W        W23990  32.994  41.008  11.044
55573W        W23991  30.640  30.917  12.530
55574W        W23992  21.213   1.848  13.347
55575W        W23993  18.616   6.402  12.835
55576W        W23994  42.446   7.669  12.914
55577W        W23995  13.162   3.255   4.635
55578W        W23996   2.919  26.559  14.983
55579W        W23997  40.892  30.977  10.995
55580W        W23998  24.563  10.836   3.750
55581W        W23999  41.401  41.398   2.398
55582W        W24000  35.880   5.839   3.638
55583W        W24001  16.706  43.839   1.933
55584W        W24002   6.818   3.268   1.360
55585W        W24003  31.899   5.781   3.806
55586W        W24004  29.575  11.313  10.427
55587W        W24005  11.751  14.759   4.290
55588W        W24006  20.244  34.093  11.086
55589W        W24007   5.771  41.903  10.617
55590W        W24008  41.944  36.910  12.432
55591W        W24009  25.076   3.230   1.311
55592W        W24010  39.415  30.612   4.726
55593W        W24011  33.018  34.954  12.912
55594W        W24012  42.373  34.933  13.319
55595W        W24013  30.005   6.849  12.517
55596W        W24014  24.026  18.213   1.402
55597W        W24015   9.188  41.531  10.510
55598W        W24016  14.604  10.193  11.128
55599W        W24017  35.379   8.768  14.814
55600W        W24018  13.155  33.490   4.747
55601W        W24019  40.307   9.865   4.168
55602W        W24020  21.531  10.250   3.746
55603W        W24021  18.197  15.227   1.284
55604W        W24022  21.264  41.988  13.514
55605W        W24023  20.250  23.086   1.882
55606W        W24024  27.086  27.677  11.997
55607W        W24025  19.044  41.917  10.553
55608W        W24026   3.346  15.724   0.278
55609W        W24027  18.185  19.564   3.843
55610W        W24028  39.527  40.438   3.230
55611W        W24029  31.593  19.243  10.971
55612W        W24030  37.941  30.072  12.935
55613W        W24031   7.226  42.395   4.637
55614W        W24032  17.763  37.906   0.741
55615W        W24033  42.014   7.266   2.273
55616W        W24034  18.225  36.405  13.857
55617W        W24035   9.692  29.002  11.608
55618W        W24036  38.468  25.640  12.951
55619W        W24037  38.417  29.980  12.460
55620W        W24038  37.342  19.130   3.694
55621W        W24039   6.277  20.254   4.674
55622W        W24040  26.968  10.348  13.957
55623W        W24041  36.960  10.709  11.580
55624W        W24042   0.455   5.197  12.884
55625W        W24043  24.205  29.106   3.828
55626W        W24044   6.881  11.178   0.863
55627W        W24045  36.020   4.403   2.703
55628W        W24046  35.526  22.147   2.662
55629W        W24047  39.061  25.177  12.442
55630W        W24048  26.128  35.085  14.762
55631W        W24049   6.769  25.148  11.416
55632W        W24050  12.235   0.269  10.944
55633W        W24051   0.318   7.766   2.819
55634W        W24052  11.773   4.896  14.004
55635W        W24053  21.757  25.050  11.960
55636W        W24054  17.284   5.298   3.276
55637W        W24055  37.023  37.076   4.701
55638W        W24056   6.390  37.351   0.422
55639W        W24057  42.306   1.809   2.385
55640W        W24058  25.045  32.415  10.551
55641W        W24059  27.983  23.140   1.392
55642W        W24060   8.210  36.067   3.349
55643W        W24061  39.351  26.091  13.021
55644W        W24062  20.113   5.720   4.745
55645W        W24063  29.163   6.737  10.155
55646W        W24064  19.125  41.936  11.938
55647W        W24065  35.955  18.129  13.973
55648W        W24066  19.220  44.329  11.428
55649W        W24067  17.068  26.664   1.863
55650W        W24068   1.870  42.343   3.668
55651W        W24069   1.961  14.277   3.777
55652W        W24070  26.644  27.446  11.128
55653W        W24071  14.138  43.923   1.227
55654W        W24072  30.536   8.779  13.019
55655W        W24073  14.797   1.821   4.229
55656W        W24074  36.021  22.670   1.228
55657W        W24075  26.992   9.169   4.302
55658W        W24076  19.686  40.357  11.037
55659W        W24077  31.995  23.224  13.992
55660W        W24078  14.825   9.729  10.988
55661W        W24079  14.659  43.410   4.134
55662W        W24080  13.842  36.348   2.304
55663W        W24081  15.110  13.178   3.637
55664W        W24082   2.948  42.775  10.454
55665W        W24083   3.386  10.736   4.328
55666W        W24084  39.364   2.940  12.050
55667W        W24085   6.909  13.128  13.006
55668W        W24086  26.532  19.629  13.452
55669W        W24087  40.519  38.926  14.499
55670W        W24088   3.219   3.264   2.259
55671W        W24089  29.164  31.461  10.584
55672W        W24090  17.578  12.837   5.178
55673W        W24091   7.793  37.381  10.474
55674W        W24092  16.779  15.188  12.400
55675W        W24093   9.258  18.620  14.975
55676W        W24094  30.541  23.608  11.964
55677W        W24095  31.897   9.212   4.183
55678W        W24096  30.530   5.836   3.767
55679W        W24097  41.956  34.093   4.774
55680W        W24098  23.664  17.665  14.857
55681W        W24099  37.374   4.372  13.956
55682W        W24100   9.810   1.286   1.898
55683W        W24101  19.217   0.363  12.403
55684W        W24102   2.288  25.568  11.021
55685W        W24103  18.785  12.164  12.570
55686W        W24104  38.341  22.501   0.828
55687W        W24105   3.334  17.790   1.360
55688W        W24106   1.926  37.032   2.397
55689W        W24107  36.971  26.201  13.927
55690W        W24108  42.353  12.262   3.692
55691W        W24109  17.726  21.226   0.409
55692W        W24110  14.615   8.396  11.571
55693W        W24111  32.885  28.958   3.241
55694W        W24112  25.055  28.004   2.801
55695W        W24113  40.497  44.432  14.453
55696W        W24114   9.356  36.029  10.995
55697W        W24115  13.146  34.467   4.153
55698W        W24116  39.425   0.445  12.040
55699W        W24117  33.083  12.341  14.452
55700W        W24118   6.731  34.887   0.743
55701W        W24119  43.301  32.433   4.609
55702W        W24120  19.586  27.481  14.291
55703W        W24121  21.543  15.698   1.413
55704W        W24122  23.197  42.441  13.390
55705W        W24123  35.409   0.281   0.440
55706W        W24124  42.381  40.326  13.812
55707W        W24125  35.991  10.278  11.560
55708W        W24126  43.452  34.954  12.036
55709W        W24127  14.749   9.395   0.900
55710W        W24128  10.784   5.872   0.449
55711W        W24129  38.917  31.978   4.749
55712W        W24130  11.291   1.447   1.703
55713W        W24131  13.150  25.983  12.453
55714W        W24132  37.391  14.125   4.335
55715W        W24133  38.430  22.196  10.952
55716W        W24134  25.136  13.234   3.209
55717W        W24135  26.470  40.973  11.566
55718W        W24136  25.055  33.061   4.258
55719W        W24137  42.815   4.843  13.413
55720W        W24138   3.386  36.045   3.240
55721W        W24139  41.805  41.975   1.313
55722W        W24140   3.845  16.770   0.384
55723W        W24141  16.112  41.987   3.243
55724W        W24142  16.693   7.800   3.871
55725W        W24143  30.087  18.725  13.351
55726W        W24144  39.986  20.757   2.297
55727W        W24145  38.886  44.306   1.366
55728W        W24146  11.776   2.293   2.372
55729W        W24147  33.490  10.148  13.456
55730W        W24148   9.681   8.169  14.008
55731W        W24149  24.051  37.433   0.923
55732W        W24150  41.919   1.379  10.597
55733W        W24151  29.929  31.903   4.251
55734W        W24152  18.280  28.985  10.467
55735W        W24153  30.036  13.612   2.393
55736W        W24154  21.138  38.389  13.390
55737W        W24155  17.737  29.034  11.856
55738W        W24156  15.266   8.248  13.407
55739W        W24157  25.667  22.146  12.994
55740W        W24158  30.113  32.044  12.982
55741W        W24159  30.618   1.343  12.565
55742W        W24160   3.896  37.056  10.589
55743W        W24161  41.834  22.679  14.286
55744W        W24162  27.167  22.562   3.733
55745W        W24163   7.850   2.854  11.478
55746W        W24164  21.555   6.287   0.908
55747W        W24165  33.479  39.002  10.509
55748W        W24166   9.353  11.325   1.713
55749W        W24167   1.968  44.814  13.334
55750W        W24168   3.241  14.264   2.281
55751W        W24169  12.223   6.684   4.694
55752W        W24170  42.525   9.334  14.380
55753W        W24171   7.747  42.391  12.001
55754W        W24172  23.496   2.834  12.387
55755W        W24173  26.495  14.737   1.265
55756W        W24174  16.091  11.330   4.691
55757W        W24175  17.687  15.670  14.400
55758W        W24176  41.518  23.611   2.255
55759W        W24177   5.707  16.602   2.865
55760W        W24178  25.483  15.131  12.501
55761W        W24179  42.377  33.432  11.447
55762W        W24180  11.169  24.539  14.379
55763W        W24181  35.415  19.235   2.198
55764W        W24182  25.061  27.577  10.412
55765W        W24183  13.755   9.850  11.464
55766W        W24184  20.145   6.188  12.411
55767W        W24185  34.421  32.587   2.215
55768W        W24186  14.171  33.000   0.371
55769W        W24187   8.351  14.687  14.347
55770W        W24188  29.075  27.692   4.296
55771W        W24189   6.689  20.636  11.612
55772W        W24190   8.767   5.348  10.480
55773W        W24191  30.026  28.177  12.888
55774W        W24192  36.846   2.352   4.250
55775W        W24193  15.618  22.619  14.891
55776W        W24194  41.377   4.833  10.474
55777W        W24195   0.798   2.258   0.366
55778W        W24196  36.384  32.131  11.542
55779W        W24197  34.413  23.224  14.799
55780W        W24198  27.611  22.548  12.032
55781W        W24199  42.029   3.748  14.776
55782W        W24200  42.394   4.736  12.980
55783W        W24201   6.803   6.327  10.497
55784W        W24202  19.111   5.366   0.964
55785W        W24203   2.306  30.464  10.956
55786W        W24204   4.765   2.410  13.485
55787W        W24205  29.141  44.290   0.865
55788W        W24206  44.913  24.092   3.758
55789W        W24207  40.364  37.427  14.278
55790W        W24208  12.266  25.527  12.836
55791W        W24209  29.016  31.527   0.293
55792W        W24210  35.441  28.978   4.270
55793W        W24211  10.245  31.556  12.548
55794W        W24212  28.160  22.037   4.830
55795W        W24213  29.485  23.237  11.416
55796W        W24214   7.339   0.430  13.046
55797W        W24215  17.074  14.742   0.910
55798W        W24216  21.603   9.879   1.255
55799W        W24217  36.350   4.383  13.936
55800W        W24218  19.234  22.671   2.197
55801W        W24219  10.310  29.477  12.342
55802W        W24220   6.787   9.386  10.559
55803W        W24221  16.616  33.461   4.183
55804W        W24222  27.575  33.952  11.582
55805W        W24223  28.044  14.095   1.870
55806W        W24224  19.667  13.702   4.661
55807W        W24225  14.219  32.140  14.006
55808W        W24226   0.287  20.743  12.985
55809W        W24227  22.229  18.254   3.754
55810W        W24228   7.358  10.183  14.789
55811W        W24229   3.261  17.760   4.289
55812W        W24230  15.192  16.230   2.720
55813W        W24231   1.952  40.331  11.907
55814W        W24232   2.836  25.007   4.749
55815W        W24233   7.874   7.290  13.501
55816W        W24234  43.321  40.919   5.631
55817W        W24235  29.651   3.713  11.039
55818W        W24236  18.207  39.000   0.752
55819W        W24237  42.500  38.477  11.518
55820W        W24238  43.366  15.210  12.073
55821W        W24239  40.493  21.705  11.058
55822W        W24240   4.732   9.771   0.888
55823W        W24241  43.426  31.125   4.814
55824W        W24242  11.274  24.529  12.867
55825W        W24243  29.013  23.177   2.872
55826W        W24244   7.199  30.067   0.457
55827W        W24245   9.762   8.313   2.886
55828W        W24246  37.567  42.902   2.749
55829W        W24247  44.913  40.023  12.563
55830W        W24248  10.797  36.494   2.188
55831W        W24249  34.375  40.413   1.330
55832W        W24250  13.197  37.361   4.823
55833W        W24251  18.564  33.446  11.950
55834W        W24252  27.454  25.703   0.922
55835W        W24253  40.512   9.783  14.500
55836W        W24254  19.242  40.446  13.804
55837W        W24255  23.135  27.524  13.952
55838W        W24256  17.287  17.577   0.477
55839W        W24257  43.344  43.986   0.267
55840W        W24258   5.208  41.537  14.934
55841W        W24259  43.968   9.689   0.936
55842W        W24260  16.617  37.367   3.311
55843W        W24261  30.106   1.267   3.351
55844W        W24262  40.015  40.008  10.610
55845W        W24263   7.870  11.199   3.320
55846W        W24264  34.044  19.769   2.699
55847W        W24265  14.250  28.631  11.896
55848W        W24266  29.585  24.068  14.435
55849W        W24267  34.018   1.928   1.822
55850W        W24268  30.990  19.225  11.104
55851W        W24269  27.105   3.234   4.802
55852W        W24270  39.012   7.698  13.941
55853W        W24271   1.322  16.783  11.568
55854W        W24272  37.028  28.089   3.317
55855W        W24273  40.533  26.107  13.937
55856W        W24274   4.902   8.288  14.004
55857W        W24275  10.158  28.062  12.940
55858W        W24276   4.869  15.250  11.999
55859W        W24277  22.250  39.899   0.831
55860W        W24278  31.943  31.063  12.996
55861W        W24279  22.034  29.543   0.776
55862W        W24280   9.682   7.392  13.027
55863W        W24281   3.348  41.024   4.605
55864W        W24282  14.719   7.715  13.039
55865W        W24283  37.862  37.521  13.841
55866W        W24284  22.512   4.937  12.834
55867W        W24285  32.542  21.220   3.165
55868W        W24286  26.493  25.480   1.734
55869W        W24287  44.935  33.912  11.596
55870W        W24288  42.518   6.410   0.889
55871W        W24289  16.276  16.238  12.460
55872W        W24290   4.394   6.341  14.780
55873W        W24291  38.374  26.032   1.819
55874W        W24292   1.914  17.144  14.817
55875W        W24293  24.070  17.107  12.958
55876W        W24294  35.018   3.300  13.449
55877W        W24295   0.349  43.928   3.864
55878W        W24296   1.299  41.324   1.217
55879W        W24297  32.605  41.304  12.862
55880W        W24298   2.314  14.674  14.881
55881W        W24299   3.331  24.161  11.111
55882W        W24300  29.636  41.497   3.332
55883W        W24301  17.687  44.461  11.606
55884W        W24302  15.741  41.812   4.271
55885W        W24303  37.984  34.453  14.513
55886W        W24304  15.307  11.670  12.532
55887W        W24305  30.643  23.621  11.422
55888W        W24306  38.824   3.418  14.889
55889W        W24307  38.543  21.749  11.524
55890W        W24308  16.670  10.828   2.708
55891W        W24309  29.171  28.997  13.387
55892W        W24310  41.304  18.119   2.758
55893W        W24311  35.902  23.674  13.502
55894W        W24312   7.324  22.162   2.374
55895W        W24313  38.454   9.775   4.679
55896W        W24314  40.919  25.476   4.345
55897W        W24315  10.286  20.708  10.898
55898W        W24316   3.956  20.652   1.828
55899W        W24317  32.463  25.556   4.167
55900W        W24318   5.688  19.074   4.295
55901W        W24319  30.971  24.044   4.207
55902W        W24320  16.137  24.117   1.449
55903W        W24321  40.336  10.294   0.252
55904W        W24322   6.774   0.855  10.961
55905W        W24323  17.104   9.727  11.059
55906W        W24324  26.117  30.631   2.829
55907W        W24325   1.453  34.035   1.912
55908W        W24326  24.641  16.645  10.450
55909W        W24327  14.738  17.113  10.044
55910W        W24328   4.212   7.391  12.382
55911W        W24329  18.159  23.004   2.307
55912W        W24330  35.876  17.118  12.879
55913W        W24331  19.746  37.847  13.512
55914W        W24332   8.170  37.082  12.504
55915W        W24333  18.169  28.559   2.858
55916W        W24334  26.570  43.953  10.432
55917W        W24335  41.936  18.286  13.008
55918W        W24336  18.606   7.171  13.045
55919W        W24337  19.565   1.330  14.000
55920W        W24338  43.278  37.016  11.974
55921W        W24339  42.437   5.744   1.274
55922W        W24340  33.556  31.905   4.685
55923W        W24341  15.706   6.209  13.504
55924W        W24342  25.011   2.457   2.849
55925W        W24343  36.555  22.625   2.846
55926W        W24344  31.130  31.987   2.371
55927W        W24345  30.000  14.654  12.542
55928W        W24346  44.410  18.120  10.044
55929W        W24347  36.352  27.973  12.900
55930W        W24348  20.613  31.144  10.985
55931W        W24349  24.185  29.524   3.230
55932W        W24350  25.087  28.967   4.315
55933W        W24351  41.889  33.618   0.406
55934W        W24352  39.557  40.895   3.201
55935W        W24353  26.687  14.614   3.272
55936W        W24354   0.283  26.526   0.463
55937W        W24355   4.841  44.298  10.412
55938W        W24356  25.653  10.712   1.255
55939W        W24357  24.057  42.383   0.834
55940W        W24358  13.604   2.334  13.803
55941W        W24359   2.721  33.507   0.328
55942W        W24360  32.960  15.680   3.385
55943W        W24361  24.587  20.703   3.853
55944W        W24362   6.829   3.849  12.824
55945W        W24363   8.818   3.821  10.489
55946W        W24364   4.936  36.857   2.878
55947W        W24365  13.684  24.603   1.910
55948W        W24366  43.940   7.378  14.025
55949W        W24367  22.663  23.713   3.736
55950W        W24368  44.404   7.227   3.684
55951W        W24369   5.853  31.929   3.728
55952W        W24370   2.839  36.080   0.251
55953W        W24371  39.337  26.645   2.775
55954W        W24372   3.847  27.563   3.291
55955W        W24373  10.227  20.558  11.906
55956W        W24374  40.018   7.385  12.546
55957W        W24375  40.343  39.905  10.930
55958W        W24376  32.053  35.859   3.303
55959W        W24377   9.867  18.564  11.507
55960W        W24378  21.194   4.853   3.362
55961W        W24379  16.780  21.047  12.859
55962W        W24380  11.726  37.509  12.482
55963W        W24381  37.911  19.145   0.858
55964W        W24382  10.299  34.004   2.251
55965W        W24383  11.739  37.573  13.518
55966W        W24384   7.728  26.547  14.390
55967W        W24385  32.886  37.079  12.574
55968W        W24386  41.458  30.460  12.018
55969W        W24387   9.210   6.267   1.239
55970W        W24388   6.211   3.312   1.812
55971W        W24389  23.034  32.540  13.459
55972W        W24390   2.386  33.563  12.390
55973W        W24391  27.535  41.421   4.604
55974W        W24392  26.955  36.553   1.887
55975W        W24393  41.883  17.644  11.511
55976W        W24394  15.238  42.825   2.297
55977W        W24395   8.823  24.660   2.378
55978W        W24396   3.306  40.336   0.454
55979W        W24397  24.216  14.320  13.350
55980W        W24398   5.872  42.801  11.556
55981W        W24399  26.655   0.441  13.884
55982W        W24400  28.139   9.379   2.805
55983W        W24401  10.715  38.933   0.444
55984W        W24402  17.260  15.095   2.899
55985W        W24403  27.604  43.907   1.870
55986W        W24404  40.897  20.066  12.886
55987W        W24405  29.522  41.894  13.017
55988W        W24406  15.245   0.953   1.394
55989W        W24407  39.345  11.214  13.413
55990W        W24408  17.621  30.983  14.858
55991W        W24409  23.084  40.484  13.308
55992W        W24410  23.727  22.691  13.793
55993W        W24411  17.727  14.132   9.640
55994W        W24412  37.901   8.795  11.968
55995W        W24413  22.108  16.198  11.613
55996W        W24414  44.347  23.137   5.616
55997W        W24415  15.585  31.032   1.885
55998W        W24416  28.676  36.499  12.559
55999W        W24417  38.989  42.837   1.431
56000W        W24418  21.087  33.111  10.898
56001W        W24419  27.628  37.927   4.343
56002W        W24420  41.794   1.312  12.867
56003W        W24421  17.704  37.403  12.836
56004W        W24422  31.920  21.565  14.852
56005W        W24423   3.806  29.568  14.771
56006W        W24424  38.998   1.404  12.434
56007W        W24425   3.872  33.130  11.051
56008W        W24426   8.369  23.104   4.320
56009W        W24427  29.125  32.593  14.833
56010W        W24428  39.514  41.504   2.294
56011W        W24429   4.337  35.987   4.351
56012W        W24430  33.954  19.573   4.627
56013W        W24431  39.437  32.016   4.764
56014W        W24432  30.641  21.244  10.577
56015W        W24433  44.423  22.227  12.092
56016W        W24434  32.611  43.446  13.843
56017W        W24435  17.232  26.681  14.006
56018W        W24436  38.511  39.353  11.407
56019W        W24437   5.795  24.593   4.647
56020W        W24438  10.265  43.983   3.757
56021W        W24439   9.154  41.386   0.363
56022W        W24440  32.953  43.764  14.433
56023W        W24441   4.431  43.319  13.804
56024W        W24442  21.594  26.636  13.374
56025W        W24443  29.446  21.073  10.573
56026W        W24444  41.438  37.841   2.359
56027W        W24445  39.923  14.152   0.317
56028W        W24446  12.118  23.592  14.023
56029W        W24447  22.658  26.629  12.827
56030W        W24448  12.679  13.166   2.759
56031W        W24449  14.803   6.798  13.028
56032W        W24450  22.021   3.252  11.613
56033W        W24451  43.394  24.650  12.845
56034W        W24452  26.613  26.201   4.300
56035W        W24453  19.144  23.663  12.501
56036W        W24454  37.036  37.529   0.324
56037W        W24455  25.681  31.564  14.823
56038W        W24456  35.947  16.782   3.795
56039W        W24457   4.388  33.383   0.257
56040W        W24458  41.361  43.503  14.836
56041W        W24459  31.147  23.195  14.855
56042W        W24460  11.245  42.862  11.507
56043W        W24461  28.560  32.002  11.584
56044W        W24462  31.539  26.194   0.400
56045W        W24463  18.130  34.984   2.771
56046W        W24464  33.890  23.047  11.012
56047W        W24465  33.587  33.567   1.287
56048W        W24466  40.864  40.881   5.802
56049W        W24467  42.886   0.350   1.368
56050W        W24468  31.905  40.939   4.771
56051W        W24469  20.181  15.305   0.756
56052W        W24470  33.961  31.608  11.057
56053W        W24471   3.214  21.757   5.182
56054W        W24472  27.686  33.412   1.273
56055W        W24473  14.218  24.500   1.778
56056W        W24474  23.549  24.531   3.338
56057W        W24475  19.774  15.256  11.459
56058W        W24476  33.453  31.045  13.543
56059W        W24477   2.411   2.284   0.474
56060W        W24478  18.272  28.964   3.826
56061W        W24479  29.933  20.123   4.242
56062W        W24480  26.499  27.971  10.572
56063W        W24481   3.253  31.529   1.246
56064W        W24482  25.617  27.110   2.412
56065W        W24483   9.876   2.368  12.832
56066W        W24484   7.776  36.910   1.835
56067W        W24485   0.921  31.471   3.647
56068W        W24486  28.662  29.612  14.281
56069W        W24487  28.995   8.342   5.132
56070W        W24488  21.115  28.434  14.891
56071W        W24489  26.164  25.471  14.774
56072W        W24490   8.897  42.408   0.362
56073W        W24491  35.546  30.542  14.810
56074W        W24492  11.289  25.567  11.006
56075W        W24493   5.283   2.405   1.214
56076W        W24494   8.310  18.068   4.241
56077W        W24495  10.153  31.998   4.197
56078W        W24496  38.433  17.164  11.964
56079W        W24497   9.664  41.443   2.777
56080W        W24498  26.174  13.261  11.568
56081W        W24499  26.564   1.794  14.383
56082W        W24500   3.729  27.590  11.011
56083W        W24501  44.410  23.045   1.873
56084W        W24502  23.221   2.404  13.987
56085W        W24503  26.630  30.520   1.396
56086W        W24504  43.392  17.096  10.464
56087W        W24505  12.816  23.130   1.823
56088W        W24506  35.901  36.054   1.800
56089W        W24507  36.054  33.986   1.812
56090W        W24508  35.004   3.829  12.966
56091W        W24509  21.167  25.644  11.481
56092W        W24510  34.568  28.661  14.458
56093W        W24511   1.937   5.865  11.996
56094W        W24512  11.700  12.652  12.864
56095W        W24513  15.267  43.784   1.393
56096W        W24514   0.351   8.238  11.543
56097W        W24515  43.865  39.965  13.364
56098W        W24516   9.305  20.677  14.412
56099W        W24517  31.634  31.418   2.304
56100W        W24518  43.919  19.186  14.014
56101W        W24519   4.779  28.974  13.361
56102W        W24520  26.630  12.833  13.459
56103W        W24521   0.900   2.351  11.511
56104W        W24522  18.557  43.504  13.883
56105W        W24523  39.469  42.465   4.337
56106W        W24524  43.777  27.514   4.282
56107W        W24525  13.191   0.285   0.252
56108W        W24526  12.721  32.135   0.733
56109W        W24527   4.377  34.925   4.831
56110W        W24528  26.592  26.170   2.383
56111W        W24529   8.830  43.769  10.632
56112W        W24530  39.343  26.649  10.897
56113W        W24531  20.070  32.563  11.536
56114W        W24532  24.602  27.460  14.843
56115W        W24533  23.530  20.753  14.382
56116W        W24534  19.550  43.839  10.501
56117W        W24535   0.877  19.123  12.094
56118W        W24536  18.579   4.775  13.396
56119W        W24537  25.193  16.771   0.460
56120W        W24538  31.604  20.747   0.362
56121W        W24539  21.527  43.868   1.879
56122W        W24540  33.986  13.201  11.409
56123W        W24541  32.625  11.837   0.265
56124W        W24542   7.839   5.337  10.968
56125W        W24543  30.062  27.476  10.565
56126W        W24544  15.627  11.129  11.120
56127W        W24545  43.312  31.905   2.200
56128W        W24546  17.183   1.436   2.680
56129W        W24547  44.976   1.841   4.831
56130W        W24548  29.138  27.035  12.019
56131W        W24549  18.138  18.177   0.912
56132W        W24550  23.602  26.547  10.581
56133W        W24551   9.855  28.147  12.887
56134W        W24552  11.341  21.194   2.363
56135W        W24553  15.204  33.962  14.514
56136W        W24554  11.695  20.553  10.970
56137W        W24555  18.626  37.479  13.991
56138W        W24556  30.462  12.251  12.877
56139W        W24557  12.319  19.083   0.453
56140W        W24558  34.604  20.758  14.836
56141W        W24559  20.215  44.835   4.128
56142W        W24560  24.620   1.961   4.789
56143W        W24561   7.697  40.365  12.347
56144W        W24562  26.024  42.486  11.932
56145W        W24563  12.197  31.106  14.802
56146W        W24564  36.928  11.351   2.731
56147W        W24565  34.991  27.990   0.440
56148W        W24566  24.557  17.629   3.712
56149W        W24567   1.830   3.781  12.496
56150W        W24568  42.807  17.183  12.864
56151W        W24569  27.624  30.104   3.332
56152W        W24570   9.839   3.237   0.768
56153W        W24571   8.866   5.276  13.470
56154W        W24572  38.017  41.453  13.535
56155W        W24573   6.740   6.714   1.267
56156W        W24574  33.561  10.781  12.482
56157W        W24575  33.568  23.653   4.161
56158W        W24576   6.311   9.205  10.643
56159W        W24577  44.383  28.167  12.950
56160W        W24578   5.317  28.006  14.009
56161W        W24579  35.604  35.591   4.706
56162W        W24580  28.643  38.460  10.601
56163W        W24581  22.061  23.640  14.386
56164W        W24582   8.745  11.331   1.220
56165W        W24583  38.895  28.658  10.627
56166W        W24584   6.898  28.489  13.034
56167W        W24585  28.455  44.958  12.414
56168W        W24586  20.696  31.447   1.847
56169W        W24587  30.074  44.443   4.221
56170W        W24588  26.062   7.844   4.174
56171W        W24589   3.890   4.827   4.202
56172W        W24590  33.407  33.564   0.359
56173W        W24591  26.582  29.441   0.293
56174W        W24592  17.205  12.828   3.666
56175W        W24593  27.972  42.475   1.844
56176W        W24594   3.435   4.875   3.318
56177W        W24595  36.437  43.776  15.000
56178W        W24596  29.035  39.516   4.626
56179W        W24597   6.787  29.489  14.456
56180W        W24598   2.229  26.535  10.587
56181W        W24599   2.415  18.639  11.979
56182W        W24600   6.410  16.314   4.631
56183W        W24601  44.338  39.427  14.821
56184W        W24602  14.202   5.771   4.787
56185W        W24603  12.177  26.619   4.778
56186W        W24604  29.156  44.405  13.794
56187W        W24605  33.464  18.113   1.426
56188W        W24606  36.989  25.514  13.812
56189W        W24607  30.143  24.082  12.979
56190W        W24608   7.188  33.521   4.657
56191W        W24609  39.060  36.588   3.183
56192W        W24610  24.708  15.807   2.835
56193W        W24611   3.783  22.608   9.969
56194W        W24612   0.448  17.604  11.555
56195W        W24613  19.584   2.463   0.482
56196W        W24614  37.045   1.864  13.007
56197W        W24615  21.018  43.983  11.088
56198W        W24616  30.962  15.644  12.887
56199W        W24617  23.677  11.678   0.273
56200W        W24618   0.894  31.428  13.819
56201W        W24619  27.111   8.161  14.331
56202W        W24620  34.909  42.370   4.240
56203W        W24621  44.276   3.713   0.361
56204W        W24622  38.391  44.442  13.052
56205W        W24623  44.276  16.176   0.730
56206W        W24624  10.794  31.021   2.188
56207W        W24625  38.454  35.028  12.868
56208W        W24626  30.031  22.701  12.567
56209W        W24627  41.909  20.710  13.977
56210W        W24628  26.536   6.880  11.384
56211W        W24629  21.657  23.540  11.972
56212W        W24630  30.959  30.024   3.322
56213W        W24631  17.686  18.561  11.486
56214W        W24632  18.768  41.497  10.928
56215W        W24633  17.252  12.288   1.887
56216W        W24634  27.194  26.515  13.980
56217W        W24635  17.752  34.929   4.646
56218W        W24636   1.849  43.819  12.441
56219W        W24637  44.349  17.145   3.697
56220W        W24638  20.683  26.569  10.601
56221W        W24639  31.416  28.085   2.802
56222W        W24640  30.087  43.959  13.878
56223W        W24641   8.247  20.101  10.519
56224W        W24642   9.395  37.417  13.397
56225W        W24643  38.392  36.405   3.267
56226W        W24644  13.625   3.327   3.752
56227W        W24645   6.902   0.847  11.911
56228W        W24646  36.895  20.618  14.277
56229W        W24647  10.687  42.777   1.276
56230W        W24648  32.589   9.354   0.461
56231W        W24649  21.241  25.185  13.030
56232W        W24650  24.137  19.080  13.529
56233W        W24651  40.431  18.206  13.330
56234W        W24652   3.250  40.849  12.945
56235W        W24653   5.753  22.077  13.437
56236W        W24654  25.976  38.395   2.874
56237W        W24655  32.481  33.084   0.859
56238W        W24656  30.645  42.959   5.161
56239W        W24657   4.296   5.770   3.383
56240W        W24658   8.196  14.643   0.785
56241W        W24659  27.962  27.453  14.892
56242W        W24660  22.525   4.884  11.462
56243W        W24661   1.275  30.603   2.321
56244W        W24662  20.183  18.634   3.655
56245W        W24663  20.657  42.454  12.095
56246W        W24664   8.740  41.400  12.833
56247W        W24665  35.546   6.368   0.332
56248W        W24666  43.912   1.880  10.527
56249W        W24667   1.792  40.865  10.921
56250W        W24668  14.096   9.746   2.389
56251W        W24669   3.285  44.433  12.000
56252W        W24670   2.246  15.278   0.834
56253W        W24671  11.286  34.883  14.820
56254W        W24672  27.584  10.677  14.286
56255W        W24673  29.603  24.674  11.982
56256W        W24674  24.534  36.384   1.800
56257W        W24675  38.372   0.259  13.011
56258W        W24676  27.021   9.321  12.911
56259W        W24677  11.787  28.065  11.503
56260W        W24678  29.617  32.886  11.525
56261W        W24679  38.007  33.950  10.999
56262W        W24680   6.803  17.161  13.912
56263W        W24681  21.039  15.147   0.965
56264W        W24682   1.290   4.875   1.806
56265W        W24683  18.606  35.976  13.952
56266W        W24684  35.055  35.495   3.207
56267W        W24685  32.587  35.006  10.511
56268W        W24686  16.591  13.731   0.921
56269W        W24687  37.007  17.219  13.454
56270W        W24688  16.126   8.190   2.307
56271W        W24689  18.671   8.823   1.709
56272W        W24690  25.608  30.056   2.781
56273W        W24691  28.591  28.561   4.220
56274W        W24692   5.338  23.041   2.242
56275W        W24693   1.757  22.678   9.962
56276W        W24694  28.558  31.087   1.298
56277W        W24695   8.324  13.255   1.770
56278W        W24696  37.921  12.187  13.420
56279W        W24697  10.337  39.370  10.974
56280W        W24698  27.192   0.494  10.637
56281W        W24699  19.052  40.380   2.273
56282W        W24700  13.270  33.522   0.475
56283W        W24701  22.624  29.496  12.506
56284W        W24702  23.096  33.409  14.967
56285W        W24703  22.239  39.989  13.986
56286W        W24704  40.936   0.979  12.002
56287W        W24705  11.649   6.293   0.371
56288W        W24706  11.682  18.148  12.912
56289W        W24707  26.498  37.973  11.948
56290W        W24708  42.303  38.975   2.404
56291W        W24709  28.493  39.816  10.954
56292W        W24710   4.798  26.093  10.620
56293W        W24711  35.964  28.648   2.697
56294W        W24712  27.472   4.242   3.355
56295W        W24713  43.887  11.244   2.702
56296W        W24714  30.423   9.644  11.422
56297W        W24715  21.243  12.171   1.706
56298W        W24716   2.250  22.579  11.861
56299W        W24717  38.011  40.519  14.826
56300W        W24718  28.458  17.064   3.328
56301W        W24719  10.672  29.012  10.921
56302W        W24720   6.738  37.342   3.728
56303W        W24721  28.444  27.568   1.278
56304W        W24722  39.432  18.659  12.880
56305W        W24723  35.897   6.319  10.534
56306W        W24724  44.465  29.569   4.134
56307W        W24725  12.296   5.873   0.463
56308W        W24726  24.178  26.680  11.072
56309W        W24727  10.308  38.832  14.328
56310W        W24728  18.560  20.211  13.983
56311W        W24729   9.659  27.548   0.853
56312W        W24730  25.622   7.278   0.372
56313W        W24731  30.519   8.331  14.462
56314W        W24732   8.793  20.753  11.969
56315W        W24733   0.293  15.722  10.505
56316W        W24734  33.468   3.258   4.141
56317W        W24735  38.874  30.147  14.031
56318W        W24736  40.943   2.288   4.256
56319W        W24737  33.048  32.105  14.853
56320W        W24738  24.705  12.742   4.178
56321W        W24739  30.134  33.479   3.324
56322W        W24740  40.957   6.692   3.732
56323W        W24741   0.796   5.245   2.309
56324W        W24742   8.713  43.406   4.654
56325W        W24743  22.006  44.001  13.546
56326W        W24744  29.028  12.142  10.505
56327W        W24745  13.832   6.743   1.890
56328W        W24746  35.999   3.831   4.607
56329W        W24747  14.169  16.216  13.469
56330W        W24748  21.625  26.169  10.520
56331W        W24749  21.746  37.929   9.451
56332W        W24750  36.082  24.509   3.758
56333W        W24751   4.704  44.842  12.346
56334W        W24752  21.163   5.784   3.196
56335W        W24753  19.560  35.105  14.788
56336W        W24754  17.748  31.997  11.886
56337W        W24755   1.944  39.832  14.997
56338W        W24756  32.968  35.541  13.475
56339W        W24757   9.287  41.822  12.982
56340W        W24758   9.889  29.607  13.328
56341W        W24759  43.454   8.849   4.725
56342W        W24760  30.500  26.645  10.894
56343W        W24761  40.483  27.194  11.003
56344W        W24762   7.872   8.248   0.403
56345W        W24763  30.948  19.144   4.137
56346W        W24764  28.604  39.458   1.245
56347W        W24765  18.557  38.353  13.979
56348W        W24766  43.817  21.573  13.041
56349W        W24767   2.731   8.773   4.718
56350W        W24768  36.521  29.424  11.419
56351W        W24769  28.527  22.110  14.453
56352W        W24770  37.943  25.160  10.442
56353W        W24771  44.344  14.683  10.949
56354W        W24772  11.768  21.100   9.996
56355W        W24773  31.083  16.215  12.889
56356W        W24774  24.547  31.035  10.577
56357W        W24775  23.184  38.998   4.135
56358W        W24776   6.264   5.757  11.381
56359W        W24777  32.055   2.294  13.523
56360W        W24778  39.877  35.110  14.776
56361W        W24779  30.419   7.252   0.322
56362W        W24780  34.448   9.652   3.352
56363W        W24781  24.653  16.788   4.606
56364W        W24782  40.943  30.614   4.617
56365W        W24783   7.835   8.811  12.983
56366W        W24784   0.336  20.733   4.612
56367W        W24785   6.895  16.115  14.913
56368W        W24786  20.669  35.580   4.254
56369W        W24787   6.712  12.673   1.419
56370W        W24788   0.273  10.148   0.340
56371W        W24789  12.848  34.063  13.911
56372W        W24790  40.464  11.307   4.132
56373W        W24791  42.369  40.947  11.039
56374W        W24792  22.074  19.187  11.537
56375W        W24793   1.450  34.499   3.154
56376W        W24794  23.063  31.647   4.290
56377W        W24795  37.476  15.210   0.466
56378W        W24796  19.630  44.774   0.734
56379W        W24797  37.530  10.663   4.706
56380W        W24798  24.672  27.986  11.030
56381W        W24799  36.371   2.927  12.833
56382W        W24800   6.676  21.125  11.449
56383W        W24801  16.569  34.044  14.780
56384W        W24802  19.766  13.776  13.386
56385W        W24803  36.553  40.326   0.300
56386W        W24804  24.704   9.353  13.038
56387W        W24805  23.654   8.400   0.890
56388W        W24806  16.238  42.373   0.859
56389W        W24807   3.928  22.050   0.770
56390W        W24808  12.702  10.160   1.317
56391W        W24809  42.316  20.707  14.469
56392W        W24810  31.638  31.422   3.853
56393W        W24811  42.298  36.578  12.508
56394W        W24812   3.429  37.871  13.348
56395W        W24813  27.186  22.245   1.447
56396W        W24814  17.616  19.679  14.388
56397W        W24815  26.032  13.698  11.493
56398W        W24816  26.628  31.059   1.430
56399W        W24817  42.330  33.097  14.417
56400W        W24818   8.787   2.233  11.049
56401W        W24819  32.897  11.679   3.261
56402W        W24820  27.476  35.404   0.758
56403W        W24821  40.797  21.604   3.255
56404W        W24822  16.089  42.861   3.804
56405W        W24823  31.951   9.839   0.469
56406W        W24824   7.751  21.708  14.865
56407W        W24825  14.142  12.800  14.904
56408W        W24826   8.256  37.425  11.980
56409W        W24827  22.566  33.581   5.188
56410W        W24828  30.911  17.619   2.882
56411W        W24829   4.846  34.072  10.963
56412W        W24830  15.204   2.750   4.606
56413W        W24831  25.994  33.581  11.070
56414W        W24832  30.078  34.486  14.937
56415W        W24833  36.854  30.465   4.696
56416W        W24834  22.505  38.961   4.805
56417W        W24835  23.724  42.423   3.282
56418W        W24836  44.998  20.613  10.078
56419W        W24837  35.053  23.141  13.485
56420W        W24838  40.338   4.882   2.344
56421W        W24839   3.827  44.990   2.662
56422W        W24840   3.442  39.401  13.530
56423W        W24841   5.240   5.850  14.995
56424W        W24842   8.665   2.731  10.899
56425W        W24843  22.686  31.910   9.969
56426W        W24844   0.312   3.733   0.290
56427W        W24845  32.568  27.641  13.860
56428W        W24846   0.934  19.774  13.490
56429W        W24847  42.839  41.912  12.884
56430W        W24848  14.166  13.192  11.925
56431W        W24849  39.341  36.075  11.519
56432W        W24850  42.507  30.002   2.891
56433W        W24851  18.553  41.526  14.793
56434W        W24852  35.064  14.746   4.695
56435W        W24853  32.996  28.948  10.908
56436W        W24854  14.135   5.853   2.362
56437W        W24855  22.619  44.482   0.794
56438W        W24856  22.659   1.385   3.186
56439W        W24857  20.611   3.809  14.973
56440W        W24858  26.096  18.683   4.129
56441W        W24859  40.504  12.271  13.402
56442W        W24860   9.196   0.836   2.330
56443W        W24861   5.824   0.331  13.977
56444W        W24862  20.184  39.964  13.457
56445W        W24863  41.382  16.655  12.037
56446W        W24864  13.200  25.068  11.998
56447W        W24865  27.977  31.090  13.909
56448W        W24866  19.586  40.329   1.317
56449W        W24867  42.996  41.485  13.964
56450W        W24868   5.354  22.718   2.690
56451W        W24869  25.142  38.966   0.868
56452W        W24870  10.169  29.593   1.239
56453W        W24871   4.764  31.941   2.222
56454W        W24872  41.979  28.104  14.890
56455W        W24873  37.890   0.959  14.794
56456W        W24874  27.560  38.542  10.980
56457W        W24875  27.466  22.130  11.095
56458W        W24876  25.484  32.494   3.387
56459W        W24877  42.922  39.899  11.885
56460W        W24878   9.741  38.864  11.080
56461W        W24879  30.552  22.647  10.586
56462W        W24880  30.063  11.270   3.725
56463W        W24881  30.533  34.408  11.478
56464W        W24882   1.939  36.411   3.744
56465W        W24883  34.565   0.476  12.542
56466W        W24884  31.117  44.268   3.163
56467W        W24885   3.265  37.423   4.786
56468W        W24886  33.927  37.513  13.958
56469W        W24887  27.606  11.265   4.148
56470W        W24888  22.696  15.179   0.369
56471W        W24889  44.970  25.688   0.894
56472W        W24890   7.706   5.398   0.781
56473W        W24891  19.688   1.845  13.456
56474W        W24892   3.340  36.593   0.858
56475W        W24893  20.140  30.150  12.005
56476W        W24894  13.203  18.283  10.417
56477W        W24895  28.648  18.055  13.008
56478W        W24896   6.869  23.138  12.994
56479W        W24897   2.778  30.494  14.374
56480W        W24898   5.424  41.532  12.043
56481W        W24899  37.454  13.792   0.841
56482W        W24900  15.647  10.753  12.461
56483W        W24901  17.154   8.677   1.801
56484W        W24902  42.792  32.052  11.106
56485W        W24903  17.072   0.340  10.535
56486W        W24904  26.549  15.769   4.355
56487W        W24905  44.373  16.132   4.701
56488W        W24906  26.700  13.840  13.972
56489W        W24907  31.582  13.182   1.327
56490W        W24908  37.083  29.583  14.281
56491W        W24909  16.663  41.348   4.669
56492W        W24910  37.885   9.349   4.261
56493W        W24911  22.652  40.387   0.860
56494W        W24912   7.195  16.629   0.905
56495W        W24913  37.030  21.200   1.374
56496W        W24914  31.959   8.273  11.457
56497W        W24915   1.815  23.494   2.789
56498W        W24916   3.805  23.984   3.269
56499W        W24917  31.644  44.780  10.900
56500W        W24918  23.076  15.613  14.963
56501W        W24919   6.367  23.096  10.892
56502W        W24920   8.673  38.566   0.247
56503W        W24921   0.250  42.911   4.119
56504W        W24922  44.915  27.459  14.377
56505W        W24923  24.607   7.724  12.048
56506W        W24924  24.200  28.947   2.724
56507W        W24925  28.123  14.829   2.319
56508W        W24926  12.209   1.264   3.784
56509W        W24927  26.073  25.185  13.449
56510W        W24928  15.673  24.497   4.709
56511W        W24929   0.469  11.236  14.321
56512W        W24930   5.223  18.150  11.539
56513W        W24931  42.348  23.191  13.903
56514W        W24932   1.863  12.755  12.095
56515W        W24933   2.750  23.079  13.012
56516W        W24934   1.296  31.084   0.798
56517W        W24935  22.586  26.074   3.263
56518W        W24936  44.821  19.714  13.936
56519W        W24937  34.581  31.912  13.888
56520W        W24938  22.736  14.606  10.436
56521W        W24939  26.953   2.958  11.585
56522W        W24940  40.546  29.662   2.825
56523W        W24941  41.299  36.929  13.004
56524W        W24942  36.061  37.553   1.797
56525W        W24943  15.086   3.438   0.779
56526W        W24944  20.538  31.083   3.263
56527W        W24945  11.848  18.683   0.462
56528W        W24946  30.108  17.250  13.955
56529W        W24947  34.120  19.169  13.992
56530W        W24948  36.983  17.623  13.879
56531W        W24949  19.251  38.523  13.431
56532W        W24950  27.456  34.904   2.852
56533W        W24951   9.378   2.429   3.309
56534W        W24952  29.472  10.860   3.672
56535W        W24953  22.056  27.555  14.967
56536W        W24954  43.865   4.706   0.326
56537W        W24955   9.838   8.372  14.936
56538W        W24956  28.160   5.695   0.956
56539W        W24957  19.113  25.218  11.011
56540W        W24958  28.004   9.759  12.051
56541W        W24959   7.863   1.749  11.568
56542W        W24960  41.465  30.553   4.328
56543W        W24961   3.799  42.297   2.317
56544W        W24962  25.556   3.727   1.360
56545W        W24963  44.994  28.050  11.967
56546W        W24964  40.903  35.451   3.855
56547W        W24965  24.504   3.758  12.480
56548W        W24966   9.306  17.270  14.465
56549W        W24967  37.502  30.418   0.829
56550W        W24968  39.469  31.500   1.837
56551W        W24969  27.621   3.454  11.389
56552W        W24970  38.910   9.156   1.349
56553W        W24971  16.235  22.078   4.685
56554W        W24972  13.303  31.593   1.334
56555W        W24973  34.491   6.329   4.787
56556W        W24974  30.140   3.898   2.216
56557W        W24975   4.759  42.829   1.233
56558W        W24976  14.317  20.727   4.216
56559W        W24977  20.585   3.808   0.449
56560W        W24978  20.040  23.209  14.814
56561W        W24979  25.662   1.741   0.434
56562W        W24980  22.558  25.072  14.304
56563W        W24981  35.045  19.093   0.916
56564W        W24982  30.646  15.745   4.194
56565W        W24983   0.930  44.421  14.283
56566W        W24984  11.286   5.263   3.717
56567W        W24985  42.851  44.804   4.659
56568W        W24986  40.966   3.851   0.798
56569W        W24987  26.055  31.615  13.469
56570W        W24988  29.604  13.801  12.096
56571W        W24989  38.837  20.756  12.378
56572W        W24990   9.306  22.581   4.324
56573W        W24991  39.453  43.353   2.862
56574W        W24992   3.263  14.758  11.966
56575W        W24993  29.100   8.806  11.523
56576W        W24994  19.281   5.900  10.544
56577W        W24995  32.511  42.020   0.363
56578W        W24996  40.437  27.524   2.821
56579W        W24997  13.121  22.709  14.987
56580W        W24998  28.654  24.640   1.442
56581W        W24999   9.182  27.024  12.558
56582W        W25000  29.123  11.837  11.098
56583W        W25001  35.552   1.469   1.398
56584W        W25002  29.435  36.939  11.580
56585W        W25003  27.472   1.788   0.474
56586W        W25004  10.384  30.614  10.125
56587W        W25005  34.034  26.072   3.715
56588W        W25006  38.363  19.765   5.226
56589W        W25007  42.977  27.123  11.952
56590W        W25008  12.842  34.492  12.918
56591W        W25009  33.518   5.327   3.688
56592W        W25010  27.664  19.097   1.873
56593W        W25011  28.156   4.433   3.745
56594W        W25012  17.103  14.639  14.023
56595W        W25013   1.407  42.399  11.394
56596W        W25014   0.283  40.880  14.337
56597W        W25015  39.007  41.450  12.985
56598W        W25016  24.491  32.547   1.413
56599W        W25017   7.335  37.363   4.291
56600W        W25018  36.055  27.617  10.946
56601W        W25019  15.294  29.540  13.537
56602W        W25020  34.079   6.216  11.491
56603W        W25021  25.009  37.439   3.820
56604W        W25022  26.584  18.202   0.967
56605W        W25023  33.535  21.101  14.413
56606W        W25024  27.566  20.573   0.454
56607W        W25025  12.336  20.214   0.946
56608W        W25026  43.777  31.997   0.878
56609W        W25027   8.871  38.918   3.708
56610W        W25028  37.869  28.474   0.443
56611W        W25029  37.057  33.519  13.461
56612W        W25030   8.261   6.869   0.840
56613W        W25031  27.458  18.236   2.788
56614W        W25032  29.619  24.101  14.025
56615W        W25033  24.105  18.619   2.193
56616W        W25034  16.185  14.097   3.756
56617W        W25035  20.745  41.929  14.400
56618W        W25036  17.570  15.592  12.857
56619W        W25037  44.925  15.149   0.905
56620W        W25038  19.058  19.128  14.301
56621W        W25039  32.947  41.837  11.591
56622W        W25040  12.215  31.467  12.903
56623W        W25041   6.726   4.204  14.391
56624W        W25042  10.294  13.180  13.818
56625W        W25043  21.085  32.938  12.063
56626W        W25044  32.095  20.173   1.898
56627W        W25045  33.577  33.125   3.304
56628W        W25046  19.113  21.627   3.227
56629W        W25047  22.249   1.774  12.837
56630W        W25048  37.501  10.329  11.540
56631W        W25049  22.542  20.174   2.898
56632W        W25050  14.713  27.124   1.759
56633W        W25051  29.638   5.260   1.371
56634W        W25052  38.353  34.970   2.281
56635W        W25053   1.281  20.647  14.814
56636W        W25054  26.984   6.267   3.689
56637W        W25055  29.471  10.758   1.734
56638W        W25056  29.654   7.395   1.244
56639W        W25057   7.719  20.145  14.320
56640W        W25058   3.327   8.227  11.879
56641W        W25059  43.992  20.184  12.344
56642W        W25060  16.169  18.620   4.808
56643W        W25061  12.149  41.967   1.378
56644W        W25062  23.031  42.858   0.415
56645W        W25063  19.245  27.511   1.408
56646W        W25064  31.594  23.237   0.751
56647W        W25065  43.272  14.772  14.000
56648W        W25066  32.128  17.076   0.812
56649W        W25067   1.826  10.319  11.556
56650W        W25068   0.482  11.320  11.959
56651W        W25069  30.158  34.446   1.934
56652W        W25070   4.720  18.067   5.223
56653W        W25071   2.277   2.458   3.824
56654W        W25072   5.839   9.240  12.411
56655W        W25073  13.738  29.107   0.767
56656W        W25074  30.097  27.992   1.408
56657W        W25075  34.053  43.828  12.975
56658W        W25076   6.319   3.306  14.022
56659W        W25077  22.590  32.569  11.439
56660W        W25078  41.885  33.904   4.260
56661W        W25079  28.505  10.231   1.694
56662W        W25080  30.598  20.640   3.782
56663W        W25081  26.459   9.333  10.622
56664W        W25082  35.532  20.030   2.200
56665W        W25083   1.448  10.757  12.348
56666W        W25084  32.583  39.458   2.344
56667W        W25085  18.251   6.852   1.760
56668W        W25086   2.446  23.192  10.080
56669W        W25087   5.794   5.747   1.359
56670W        W25088  23.064  33.892   3.239
56671W        W25089  37.956  29.135   2.183
56672W        W25090  22.551  38.332   5.282
56673W        W25091  11.138  44.804  14.895
56674W        W25092   9.704  12.642  13.484
56675W        W25093  10.693  42.390   1.303
56676W        W25094  31.591  37.832   0.460
56677W        W25095  11.316  43.849  13.418
56678W        W25096   6.318  40.900   3.851
56679W        W25097  41.511  38.978  11.589
56680W        W25098  11.358  19.243   4.344
56681W        W25099  35.918   4.767   4.165
56682W        W25100  10.156  13.333  11.472
56683W        W25101  28.504  22.689  10.409
56684W        W25102  44.299  11.227   2.348
56685W        W25103  18.776  18.122   9.926
56686W        W25104  43.774  17.630   1.359
56687W        W25105  15.652   0.853  12.076
56688W        W25106  13.269  15.243   4.603
56689W        W25107  44.497  11.675   2.413
56690W        W25108  30.611  35.031  14.302
56691W        W25109   8.379   9.327  13.902
56692W        W25110  26.179  35.451   0.433
56693W        W25111   5.902  36.065   0.810
56694W        W25112  38.408  12.205  12.093
56695W        W25113  35.051  14.770   0.821
56696W        W25114  26.955   4.413   0.404
56697W        W25115  36.446   2.944  13.981
56698W        W25116  44.368  10.152   5.174
56699W        W25117   9.672   3.935  10.929
56700W        W25118   6.725   8.185   2.815
56701W        W25119  11.291   5.317   4.723
56702W        W25120   6.734   9.378   0.932
56703W        W25121   5.285  22.122   2.707
56704W        W25122  22.668   4.247  13.415
56705W        W25123   2.414  34.603   2.298
56706W        W25124  22.998  43.939  13.887
56707W        W25125   7.252  13.774   4.684
56708W        W25126  43.792  15.316   1.283
56709W        W25127   0.258  12.337  12.863
56710W        W25128   1.945  28.585   4.284
56711W        W25129   6.283   9.174  14.828
56712W        W25130   7.273  37.448   3.780
56713W        W25131  17.711  32.399  12.845
56714W        W25132  18.232   3.720  14.921
56715W        W25133  11.366  27.597  11.441
56716W        W25134  10.639  41.860  12.936
56717W        W25135   9.781  14.635   4.350
56718W        W25136  34.588  37.996   2.222
56719W        W25137  30.153  13.169   3.341
56720W        W25138  30.036  44.837  13.881
56721W        W25139  15.171  37.424  14.362
56722W        W25140  27.524  20.271   0.756
56723W        W25141  30.443  34.565   4.715
56724W        W25142  32.565  23.182   2.706
56725W        W25143   3.903   0.852  12.040
56726W        W25144  40.322  13.161   1.247
56727W        W25145   1.310  38.566  11.477
56728W        W25146  14.218  19.548  11.041
56729W        W25147   7.876   3.815  10.980
56730W        W25148  40.312  43.896   4.217
56731W        W25149  36.008  22.537  11.112
56732W        W25150  24.182  34.521   4.293
56733W        W25151  14.654  18.715   3.815
56734W        W25152  18.731   6.871  13.338
56735W        W25153  39.934   4.331   3.186
56736W        W25154  27.060  36.063  13.965
56737W        W25155  24.507  27.049   1.251
56738W        W25156  13.747   5.854  11.584
56739W        W25157  36.349  36.516   2.781
56740W        W25158  27.465  15.298  10.989
56741W        W25159   0.868  28.518  12.825
56742W        W25160  13.238   6.682  14.371
56743W        W25161  19.552  26.009   0.445
56744W        W25162  14.324  23.013   1.752
56745W        W25163  28.147  44.389   0.257
56746W        W25164  35.469  18.112   1.719
56747W        W25165   0.480  42.300  11.104
56748W        W25166  38.912  23.691   2.315
56749W        W25167  11.776   1.922   0.758
56750W        W25168   7.772  28.056  14.503
56751W        W25169  39.931   5.273  11.116
56752W        W25170   0.261  26.995   1.212
56753W        W25171   0.970  34.439  11.029
56754W        W25172  12.689  27.967   2.736
56755W        W25173  34.091  12.271  12.400
56756W        W25174  22.510  35.490  10.472
56757W        W25175   0.374  23.058   5.723
56758W        W25176  29.607  12.796   4.253
56759W        W25177  31.897  24.160  14.008
56760W        W25178   8.657  34.610  11.944
56761W        W25179  16.141  25.125  12.851
56762W        W25180  40.452  19.566   0.388
56763W        W25181  28.154  16.735  12.914
56764W        W25182  18.682  31.580   4.169
56765W        W25183   6.345  15.155  11.031
56766W        W25184  16.633  23.986   1.698
56767W        W25185  15.605  38.851   5.268
56768W        W25186  40.455  22.534   4.305
56769W        W25187   1.328  43.803   0.750
56770W        W25188  37.042  38.529  11.926
56771W        W25189  32.465  33.395  13.844
56772W        W25190  33.995  12.833  11.960
56773W        W25191  43.899   0.989  13.438
56774W        W25192   2.804  31.550  10.919
56775W        W25193  43.328  18.697   1.333
56776W        W25194  14.632  44.343  14.300
56777W        W25195  43.858  34.955  14.797
56778W        W25196  44.287  23.142   3.719
56779W        W25197  41.396  17.088   3.155
56780W        W25198  28.649  35.501  12.522
56781W        W25199  21.594  41.376   4.736
56782W        W25200   0.423   3.367   1.880
56783W        W25201  39.533  11.770   3.167
56784W        W25202  41.334  17.593   2.707
56785W        W25203   8.811  37.973   2.737
56786W        W25204  41.380  35.391  13.004
56787W        W25205  41.375  23.733   2.806
56788W        W25206  34.472  20.679   0.919
56789W        W25207  23.061  33.118  11.564
56790W        W25208  36.590  35.941  10.465
56791W        W25209   7.346  32.546   4.742
56792W        W25210  29.087  10.728  14.000
56793W        W25211  27.469  15.255   4.711
56794W        W25212  13.189   7.223   9.973
56795W        W25213  25.971  37.839  11.113
56796W        W25214   4.811  39.908  11.924
56797W        W25215  35.554   8.845   3.800
56798W        W25216  24.210  28.451   0.315
56799W        W25217  12.303   7.256   4.141
56800W        W25218  19.275  14.279   4.266
56801W        W25219  37.449   1.758   2.258
56802W        W25220  33.478   4.850   4.731
56803W        W25221   5.421  32.581  14.843
56804W        W25222  41.532  43.480  13.401
56805W        W25223  22.508  15.194   4.697
56806W        W25224  12.850  28.537   2.835
56807W        W25225  24.169  23.111  10.622
56808W        W25226  20.179   9.268  12.381
56809W        W25227  44.951  33.508   4.118
56810W        W25228  15.643   3.904   4.721
56811W        W25229  43.882  24.048  13.822
56812W        W25230  19.629   7.268   1.869
56813W        W25231  12.251  26.023   1.212
56814W        W25232  42.922  21.218  10.064
56815W        W25233  28.074  41.874  12.854
56816W        W25234  33.544   3.331   2.414
56817W        W25235  16.741  12.612   1.727
56818W        W25236  20.627  32.631   1.694
56819W        W25237   5.362  16.243  13.893
56820W        W25238  42.912  34.024  14.381
56821W        W25239  10.842  20.139   1.335
56822W        W25240  25.180   3.828   0.793
56823W        W25241   9.210  28.602   4.800
56824W        W25242   5.849  32.621   4.754
56825W        W25243  17.676  38.036  13.496
56826W        W25244   5.922  17.072   3.708
56827W        W25245  43.428  36.969   4.198
56828W        W25246  20.095  14.805   3.282
56829W        W25247  26.679  37.832  14.851
56830W        W25248  24.657   9.227  14.445
56831W        W25249  32.552  34.067   3.270
56832W        W25250  32.091  39.859   3.218
56833W        W25251  31.459  16.714  12.415
56834W        W25252  34.119  14.145  14.506
56835W        W25253  12.698  25.208   3.761
56836W        W25254  17.647  20.064  13.857
56837W        W25255  10.337  21.028  14.832
56838W        W25256  37.032  28.439   0.744
56839W        W25257  24.091  22.521  10.562
56840W        W25258  12.790  44.827  14.915
56841W        W25259  22.645   8.292  14.391
56842W        W25260  43.382  31.950  12.930
56843W        W25261  32.533  23.066  13.475
56844W        W25262  16.622   6.682   1.248
56845W        W25263  15.651  33.900   4.304
56846W        W25264  38.824   6.301   1.849
56847W        W25265  44.791   8.263  13.972
56848W        W25266  14.282  21.141  11.512
56849W        W25267  38.977   1.764  10.999
56850W        W25268   3.338  29.577   1.914
56851W        W25269  41.931  26.545  12.458
56852W        W25270  33.969  18.579   4.180
56853W        W25271  29.630   8.778   2.294
56854W        W25272  36.876  33.017   1.847
56855W        W25273   7.201  30.628   4.664
56856W        W25274  31.961  16.221  12.359
56857W        W25275  25.697  22.728   5.154
56858W        W25276   1.910  20.238   5.647
56859W        W25277  35.357   1.927  13.792
56860W        W25278   6.900  28.119   2.236
56861W        W25279   2.841  21.582   4.774
56862W        W25280  33.924  30.967  10.522
56863W        W25281  39.532  17.654   2.352
56864W        W25282  18.137  32.436   1.227
56865W        W25283  31.646  32.469   0.815
56866W        W25284  31.547  26.990  14.362
56867W        W25285   7.721  30.464   3.803
56868W        W25286  22.024  41.909   4.344
56869W        W25287   4.836  34.389  14.388
56870W        W25288  30.509   5.890   1.748
56871W        W25289  25.643  20.602   2.707
56872W        W25290   7.300   7.887  12.853
56873W        W25291   2.334  11.664   5.134
56874W        W25292  35.500  41.833  10.564
56875W        W25293  13.636  34.575  11.048
56876W        W25294  15.279  36.390   1.855
56877W        W25295  43.320   9.357   3.200
56878W        W25296  32.497   8.364   2.739
56879W        W25297   4.768  27.465   3.261
56880W        W25298  10.722  14.136  13.831
56881W        W25299  44.870  29.522  11.482
56882W        W25300  33.432  34.896   2.387
56883W        W25301  18.603   4.269  12.429
56884W        W25302  28.099  11.669   5.278
56885W        W25303  24.996   3.818  11.462
56886W        W25304  37.508  35.514   1.824
56887W        W25305   4.809   4.382   1.733
56888W        W25306  21.086  40.047   4.285
56889W        W25307  32.109  41.387  10.035
56890W        W25308   4.716  26.160   2.346
56891W        W25309   7.823  39.428   0.346
56892W        W25310  21.089  26.656  11.040
56893W        W25311  23.600  20.094   4.648
56894W        W25312  39.032  22.109  13.900
56895W        W25313  32.547  24.585  10.443
56896W        W25314  22.131  22.046  14.770
56897W        W25315  17.150  40.917   0.759
56898W        W25316  20.241  34.463   3.855
56899W        W25317  24.190  35.103   3.752
56900W        W25318  38.920  12.170   3.634
56901W        W25319  10.800  34.570  10.424
56902W        W25320  38.369  10.748  13.907
56903W        W25321  17.144  23.148  12.428
56904W        W25322   6.760  31.549  10.892
56905W        W25323  26.676  25.486  14.297
56906W        W25324  37.382  17.717   0.403
56907W        W25325  20.227  24.054  13.957
56908W        W25326  18.762  38.518   3.679
56909W        W25327  36.409  35.501  10.631
56910W        W25328  42.965  20.104   4.195
56911W        W25329  33.543  26.570   3.704
56912W        W25330  30.132  41.873  11.541
56913W        W25331  44.849  41.859   0.344
56914W        W25332  42.889  27.523   1.888
56915W        W25333  29.663  27.010  11.058
56916W        W25334  26.703  32.391   4.210
56917W        W25335  43.978  16.314   0.304
56918W        W25336  21.181   3.949   3.245
56919W        W25337  33.620  40.827  12.942
56920W        W25338  41.825   3.429  12.847
56921W        W25339  31.465   8.170   1.770
56922W        W25340  23.723  10.866  11.577
56923W        W25341  33.045  17.227   0.843
56924W        W25342  23.695  41.325  11.010
56925W        W25343  31.451  20.667  10.626
56926W        W25344  28.481   5.890  13.056
56927W        W25345  43.286  35.882  12.377
56928W        W25346  31.600  43.462  11.010
56929W        W25347  16.666   2.469  10.560
56930W        W25348   1.844  25.604  11.599
56931W        W25349  28.531  30.093  10.505
56932W        W25350  22.700  29.173   2.837
56933W        W25351  22.030  25.177   3.837
56934W        W25352  17.174  11.219   4.606
56935W        W25353   9.237   9.160  14.015
56936W        W25354  17.736  44.974   4.602
56937W        W25355  41.830  38.057  14.860
56938W        W25356  13.729   5.293   1.866
56939W        W25357  41.801   2.749  12.531
56940W        W25358  42.816  19.619  11.404
56941W        W25359  43.302  33.080  14.989
56942W        W25360  16.076   3.438  14.426
56943W        W25361  41.471  24.997  12.373
56944W        W25362   5.771  43.008   4.773
56945W        W25363   4.401  44.930  14.296
56946W        W25364  16.688  42.929  14.904
56947W        W25365   9.215  44.872  10.573
56948W        W25366  42.411  22.008  10.455
56949W        W25367  31.623   1.451   4.346
56950W        W25368   1.268  38.439   3.316
56951W        W25369  21.063   5.257   2.301
56952W        W25370  16.663  22.071   4.743
56953W        W25371  13.210  43.457  11.039
56954W        W25372  42.890   8.353  13.445
56955W        W25373   7.713   8.879   3.309
56956W        W25374  25.585  22.069  13.834
56957W        W25375  11.191  26.686   4.352
56958W        W25376  37.062   2.733   4.826
56959W        W25377  11.670  44.410   1.356
56960W        W25378  34.542   6.836   0.857
56961W        W25379   0.317  23.727   0.465
56962W        W25380  41.527  19.764  11.980
56963W        W25381  38.920  16.315   3.364
56964W        W25382  18.675  12.147  14.372
56965W        W25383   4.912  14.757   2.248
56966W        W25384  30.489  32.395  11.516
56967W        W25385  23.101  26.010   0.844
56968W        W25386   3.267  16.646  12.479
56969W        W25387   5.757   6.338  14.014
56970W        W25388  37.541  37.360   0.904
56971W        W25389  22.029  33.987   4.782
56972W        W25390  36.068  32.459  10.501
56973W        W25391  29.020   1.377   4.115
56974W        W25392   4.279  39.046  11.473
56975W        W25393  42.339  44.461   4.272
56976W        W25394  34.553  38.960   5.193
56977W        W25395  28.172  31.911   4.186
56978W        W25396  33.412  36.084   4.821
56979W        W25397   2.261  24.485  13.473
56980W        W25398  37.349  35.531   3.370
56981W        W25399   6.242   0.422   1.285
56982W        W25400   7.208  43.425  10.511
56983W        W25401   9.735  44.989   2.184
56984W        W25402  39.841   0.295   2.230
56985W        W25403  24.678  37.430   3.195
56986W        W25404  36.531  31.067  14.972
56987W        W25405  34.889  19.557   5.215
56988W        W25406   8.874  27.951   0.939
56989W        W25407  30.089  29.450   4.749
56990W        W25408  42.309  25.554  12.912
56991W        W25409  38.973   7.733   1.782
56992W        W25410  17.700   0.797   1.354
56993W        W25411  42.975   1.854  12.080
56994W        W25412  25.685  12.314   4.159
56995W        W25413  21.553   1.284   3.194
56996W        W25414  19.250  33.116   3.214
56997W        W25415  28.517  25.646  14.365
56998W        W25416  26.124   4.410   0.363
56999W        W25417  13.282  37.567   1.729
57000W        W25418  35.426  11.364  14.868
57001W        W25419  36.967  11.360   3.732
57002W        W25420  23.491  42.793  14.009
57003W        W25421  26.685  43.766   0.730
57004W        W25422  39.061  35.558  13.516
57005W        W25423  18.652   4.890  11.866
57006W        W25424  37.505  16.673  11.023
57007W        W25425  40.367  26.148   0.766
57008W        W25426  26.514   7.908   0.348
57009W        W25427  21.164  15.666  13.848
57010W        W25428  44.810  39.485   9.645
57011W        W25429  36.535  10.226  13.932
57012W        W25430   1.801  13.209  13.929
57013W        W25431  37.415   0.387  11.467
57014W        W25432  25.090  32.995   3.848
57015W        W25433  16.303  32.091   0.405
57016W        W25434   4.320  43.515  14.351
57017W        W25435  41.348  35.926  12.929
57018W        W25436   5.328  34.029  12.497
57019W        W25437  26.029   4.419   0.746
57020W        W25438  33.995   6.835  10.583
57021W        W25439  14.596  23.996   4.776
57022W        W25440  21.021   1.312   3.750
57023W        W25441   0.448   7.898   3.378
57024W        W25442  15.086  13.122  11.037
57025W        W25443  23.037  12.150   3.167
57026W        W25444  40.307  17.722  12.510
57027W        W25445  17.136  23.649   1.388
57028W        W25446  36.040  15.268  12.921
57029W        W25447  24.993  12.130  14.420
57030W        W25448  19.113   0.448   0.475
57031W        W25449  35.565  21.090  14.277
57032W        W25450  27.116  11.762   4.260
57033W        W25451  21.025   1.877  11.945
57034W        W25452   7.253   6.744  14.878
57035W        W25453  25.656  36.364  10.458
57036W        W25454   2.379  25.185  12.519
57037W        W25455  25.054  24.016  14.319
57038W        W25456   7.199  13.149  13.001
57039W        W25457  32.548  14.748  14.970
57040W        W25458  42.290   8.674   0.791
57041W        W25459  33.418   2.402   0.759
57042W        W25460  32.632  40.025  14.858
57043W        W25461   6.712  20.632  12.382
57044W        W25462  39.986  10.661  12.393
57045W        W25463  23.594   5.774  10.596
57046W        W25464  16.566  22.632  13.975
57047W        W25465  29.923  42.286   3.786
57048W        W25466   8.166  41.960   0.829
57049W        W25467  16.298  35.569  14.010
57050W        W25468  31.051  22.506   4.262
57051W        W25469  27.024  24.126  13.527
57052W        W25470  38.493   4.850  12.073
57053W        W25471  16.582  24.122  10.585
57054W        W25472  10.700  44.484  10.567
57055W        W25473  15.316  29.999  11.574
57056W        W25474   3.929  15.679   0.471
57057W        W25475  27.669  18.605   0.954
57058W        W25476   9.174   9.317  13.381
57059W        W25477   5.193  27.624  13.822
57060W        W25478   1.475  41.341   1.833
57061W        W25479   3.362  24.511   1.761
57062W        W25480  39.964   5.374   2.238
57063W        W25481  10.665   4.757   4.293
57064W        W25482  39.355  43.796   3.300
57065W        W25483   1.253  23.035   9.502
57066W        W25484  44.898   1.263  12.035
57067W        W25485  26.537  15.678   1.924
57068W        W25486  20.164  15.095  13.400
57069W        W25487  36.570   3.250   3.314
57070W        W25488  41.804   1.939  10.592
57071W        W25489  27.636  13.815   4.325
57072W        W25490  35.926  42.865  11.107
57073W        W25491  17.276   0.971  13.874
57074W        W25492   9.850  18.663  14.299
57075W        W25493  20.038  28.013  14.868
57076W        W25494  11.286  41.388   3.201
57077W        W25495  42.460  29.510   3.719
57078W        W25496  26.458   5.699  14.491
57079W        W25497  27.968  42.334  10.078
57080W        W25498  41.406   9.265   4.151
57081W        W25499  13.787  27.664  10.423
57082W        W25500  12.359  44.353   2.357
57083W        W25501  20.150  33.437  11.893
57084W        W25502   4.204  23.528   0.963
57085W        W25503  21.186  11.344  11.590
57086W        W25504  41.825  12.760  12.382
57087W        W25505  20.592  16.109  11.915
57088W        W25506  36.885   7.850   0.756
57089W        W25507  34.945  24.022  11.890
57090W        W25508   4.862  19.137  13.521
57091W        W25509  27.056   7.201  10.431
57092W        W25510  29.050  19.587  12.473
57093W        W25511  20.605  13.683   1.408
57094W        W25512  15.599  39.883  10.607
57095W        W25513  22.740  37.361   3.852
57096W        W25514   0.807   8.701   0.833
57097W        W25515   0.342  38.399   3.655
57098W        W25516  25.218  22.088   2.890
57099W        W25517   0.930   0.957   3.859
57100W        W25518   7.404  12.141   3.229
57101W        W25519   6.350  39.038  14.955
57102W        W25520  15.315  36.059  12.378
57103W        W25521   0.807   7.264  13.457
57104W        W25522   4.271  29.132   2.764
57105W        W25523  36.356  10.322  10.593
57106W        W25524  44.005  20.214   2.889
57107W        W25525  14.283  33.382   0.432
57108W        W25526   1.931  18.665   4.671
57109W        W25527   6.726   9.234   0.446
57110W        W25528  39.554  34.542  12.052
57111W        W25529  18.752  21.705  13.821
57112W        W25530   3.741   6.861  11.425
57113W        W25531  17.672  25.131  13.936
57114W        W25532   7.902  29.443  11.610
57115W        W25533  26.516  15.196   0.480
57116W        W25534  36.404  37.903  13.422
57117W        W25535   1.404  13.139   1.829
57118W        W25536  35.074  26.159  12.493
57119W        W25537  15.632   0.255   3.805
57120W        W25538  42.023  13.241  11.551
57121W        W25539  30.586  23.238   3.185
57122W        W25540  40.844  44.356  14.960
57123W        W25541   7.414  25.502   1.354
57124W        W25542  37.989  41.429   0.481
57125W        W25543  44.905  15.750  10.896
57126W        W25544   8.744  43.998  10.980
57127W        W25545  28.079  21.238  14.962
57128W        W25546  20.076   3.709   0.848
57129W        W25547  31.560  39.974  10.513
57130W        W25548  29.146   1.934   4.206
57131W        W25549  24.640  15.272  12.541
57132W        W25550  31.974  20.685  11.955
57133W        W25551  38.562   4.902  14.778
57134W        W25552  40.870  12.744   3.697
57135W        W25553  38.984  23.208   3.375
57136W        W25554  35.949  14.803   0.351
57137W        W25555  12.267   6.841   4.229
57138W        W25556  37.410  33.047   4.779
57139W        W25557   0.300  23.548  14.299
57140W        W25558   5.865   9.709   1.791
57141W        W25559  22.655  40.536   1.721
57142W        W25560  33.572  17.179   5.283
57143W        W25561  14.338  35.557  13.357
57144W        W25562  21.216  30.466   2.271
57145W        W25563   2.464  29.031  12.381
57146W        W25564  15.285  10.227   4.769
57147W        W25565  27.983  37.989   3.375
57148W        W25566  18.076  33.575  11.026
57149W        W25567  35.085  43.843  13.827
57150W        W25568  10.872   3.725   3.869
57151W        W25569  28.008  17.215  13.471
57152W        W25570   9.165  14.144   3.202
57153W        W25571   4.208  30.423   0.803
57154W        W25572  22.203   0.474  13.400
57155W        W25573  43.373  31.463  14.938
57156W        W25574  35.572   0.954   4.222
57157W        W25575   6.685  13.266  13.540
57158W        W25576  35.010  25.129  12.355
57159W        W25577   3.307  15.779  12.401
57160W        W25578   1.900  31.510   1.317
57161W        W25579  26.516  34.062  14.390
57162W        W25580  19.641   7.346   0.443
57163W        W25581  13.126  33.535  13.920
57164W        W25582  33.125   2.823   3.288
57165W        W25583  36.043  36.096   1.282
57166W        W25584   1.932  13.152  11.473
57167W        W25585  35.930  12.287  11.102
57168W        W25586  19.094  20.726  13.435
57169W        W25587  23.592  17.076  11.073
57170W        W25588  14.597  26.663   4.798
57171W        W25589  29.092   3.228   2.893
57172W        W25590  28.458   7.171  12.039
57173W        W25591  43.778   2.404   2.868
57174W        W25592  23.218  20.237   2.230
57175W        W25593  21.172  31.098   4.649
57176W        W25594  34.100  13.290   2.199
57177W        W25595  27.165  31.965  14.302
57178W        W25596  23.124  13.349  14.296
57179W        W25597  39.019  30.141  11.071
57180W        W25598   2.735   0.958  13.388
57181W        W25599  35.521  19.262  10.904
57182W        W25600  32.545  11.648   2.399
57183W        W25601   9.854   3.903   2.265
57184W        W25602  12.324   1.781  13.437
57185W        W25603  26.672  30.923  13.454
57186W        W25604  41.815  14.755   1.307
57187W        W25605  44.437  12.796   3.356
57188W        W25606  29.142  43.018  13.383
57189W        W25607  44.004  12.242  14.487
57190W        W25608  26.652  28.148  13.499
57191W        W25609  28.559  24.206  13.950
57192W        W25610   5.824  32.495  12.947
57193W        W25611  12.732   0.880  13.493
57194W        W25612  35.574  18.553   2.305
57195W        W25613  26.702  20.033  10.917
57196W        W25614   5.785  22.161  12.964
57197W        W25615  31.616   7.301  14.873
57198W        W25616  35.035  43.372   4.164
57199W        W25617   7.898  22.999  14.911
57200W        W25618   4.376  33.416  14.418
57201W        W25619  25.120  39.808  11.902
57202W        W25620  36.521  44.310   2.209
57203W        W25621  39.483  11.666  13.893
57204W        W25622  12.655  11.224   1.260
57205W        W25623  11.643  44.859   3.377
57206W        W25624  18.731  37.071  12.835
57207W        W25625   6.781  36.357   0.943
57208W        W25626  26.178  34.994   2.865
57209W        W25627   5.731  13.652  14.945
57210W        W25628  31.456  26.036  13.914
57211W        W25629  20.146   0.400  14.372
57212W        W25630  43.393  11.278   2.239
57213W        W25631  31.151  33.054  11.051
57214W        W25632  30.956  29.495   5.282
57215W        W25633   7.821  22.200   0.931
57216W        W25634  36.443   6.387  14.286
57217W        W25635  37.944   8.347   4.744
57218W        W25636  19.237  37.472   0.834
57219W        W25637  36.481   8.898  12.466
57220W        W25638  38.485   4.757   0.274
57221W        W25639  22.237  22.591   4.342
57222W        W25640  33.946  18.271   4.291
57223W        W25641   4.380   0.947   4.114
57224W        W25642  18.169   0.755   0.301
57225W        W25643   0.349  32.896  10.938
57226W        W25644  17.213  37.970  11.959
57227W        W25645  14.186   2.236   0.329
57228W        W25646   3.458  39.030  13.913
57229W        W25647  40.425   3.396  12.909
57230W        W25648   7.379   4.717  14.018
57231W        W25649  34.061   9.824  11.917
57232W        W25650  29.606  37.534   4.152
57233W        W25651   1.305  15.582   0.910
57234W        W25652  12.751   2.733   3.381
57235W        W25653   2.917  24.563   2.379
57236W        W25654  34.004  22.036   2.662
57237W        W25655  13.328  12.261  13.343
57238W        W25656  10.820  35.545  13.321
57239W        W25657  44.308   6.263  14.011
57240W        W25658  11.802  14.714  14.858
57241W        W25659  29.132   8.876   0.760
57242W        W25660  22.689  18.276   3.179
57243W        W25661  35.409  13.233   3.767
57244W        W25662   9.850  42.363   2.790
57245W        W25663  31.453  16.763   0.329
57246W        W25664  39.060  19.624  11.516
57247W        W25665  27.135  29.519   2.749
57248W        W25666  19.623  22.033  13.476
57249W        W25667   1.256  19.771   1.216
57250W        W25668  37.577   3.946  11.509
57251W        W25669  21.039  18.101   2.789
57252W        W25670   7.667   6.257   4.267
57253W        W25671  12.194  15.130  14.443
57254W        W25672  32.125   8.385   1.251
57255W        W25673  35.870   6.917  12.054
57256W        W25674  29.078  13.159  14.939
57257W        W25675  33.550  23.126   3.201
57258W        W25676  29.516  15.699   5.256
57259W        W25677  29.003   5.766   4.266
57260W        W25678  17.258   6.289  12.904
57261W        W25679   6.788   5.741  11.399
57262W        W25680  41.340  43.386   3.240
57263W        W25681  34.500  33.904   0.300
57264W        W25682   1.960   1.737   0.278
57265W        W25683  14.625  34.006   4.713
57266W        W25684  28.678  27.538   4.764
57267W        W25685  11.747  28.036   2.665
57268W        W25686  20.074  16.159   1.373
57269W        W25687   3.385  34.865   4.783
57270W        W25688  42.336  20.744  13.325
57271W        W25689  38.041   5.834  12.093
57272W        W25690  44.959   9.300   4.629
57273W        W25691  30.509   8.401  14.886
57274W        W25692  20.538   4.346   0.769
57275W        W25693  14.620  34.866  12.891
57276W        W25694  13.795  28.018   4.665
57277W        W25695  10.207   3.854  11.399
57278W        W25696  38.978  36.079   5.091
57279W        W25697  11.725  40.372   0.476
57280W        W25698  32.599   3.413  11.598
57281W        W25699  34.563  15.173   3.680
57282W        W25700  14.772  22.552  13.359
57283W        W25701  23.500   9.165  14.985
57284W        W25702  29.995  17.204   0.412
57285W        W25703  44.928  23.539  13.851
57286W        W25704  25.043  17.267  11.430
57287W        W25705  36.398  38.527   0.785
57288W        W25706   1.460  15.089   1.826
57289W        W25707  21.721  29.518   2.772
57290W        W25708  38.325  31.013   4.297
57291W        W25709  32.525  26.648   3.222
57292W        W25710   1.237  12.743   3.387
57293W        W25711  30.626  16.571  12.578
57294W        W25712  35.387  21.537  10.490
57295W        W25713  19.706  11.135  10.156
57296W        W25714  37.958  36.066   2.322
57297W        W25715  26.483  35.919   3.635
57298W        W25716  33.959  22.722   1.432
57299W        W25717  26.026  25.118   3.200
57300W        W25718   2.850  15.098  13.809
57301W        W25719   7.240   1.483  11.380
57302W        W25720   1.776  11.691   4.722
57303W        W25721  34.965  18.676  14.489
57304W        W25722  10.661  29.524   1.869
57305W        W25723   0.773  22.542  10.041
57306W        W25724  18.293  26.075  12.894
57307W        W25725  37.009  33.918   4.351
57308W        W25726  34.063  41.420  11.885
57309W        W25727  22.526  29.531  10.087
57310W        W25728  30.962  42.332  11.991
57311W        W25729  23.207  42.497   0.840
57312W        W25730   6.900  27.043   1.806
57313W        W25731  34.059  39.018  11.065
57314W        W25732  24.046   1.458   0.735
57315W        W25733  21.624  11.269   3.709
57316W        W25734   7.260  39.481  14.359
57317W        W25735  42.939  25.182   0.827
57318W        W25736  24.184  10.701  11.028
57319W        W25737  42.505  32.475  14.287
57320W        W25738  44.389  19.626   1.357
57321W        W25739  16.800  36.540  11.052
57322W        W25740   4.292   1.298   0.937
57323W        W25741  15.638  30.514   5.233
57324W        W25742   2.866  18.078   0.788
57325W        W25743  37.831  30.442  12.398
57326W        W25744   7.805  26.008  11.019
57327W        W25745   9.679  23.551   4.838
57328W        W25746   4.215  31.067   2.356
57329W        W25747   9.682  34.094  10.916
57330W        W25748  24.663  44.374   3.782
57331W        W25749  39.483  37.919  11.915
57332W        W25750  34.473  38.995   3.374
57333W        W25751  17.070  22.676  11.927
57334W        W25752  32.511  32.039  12.358
57335W        W25753  14.289  41.002  10.456
57336W        W25754   9.844  41.303  11.538
57337W        W25755  19.696  20.548  11.604
57338W        W25756  18.704  18.670  14.884
57339W        W25757  39.502   3.880   1.735
57340W        W25758  22.131   5.349   4.313
57341W        W25759  18.276  43.791  12.854
57342W        W25760  27.148  10.651  12.932
57343W        W25761  17.679  15.728   1.235
57344W        W25762  42.853   5.772   2.181
57345W        W25763   3.942  28.535   4.621
57346W        W25764  38.891  44.410  14.509
57347W        W25765  21.735  24.480  10.965
57348W        W25766  14.588  10.711  13.944
57349W        W25767  34.380  23.611  12.864
57350W        W25768  18.664  33.515  14.488
57351W        W25769  31.004  43.309  14.314
57352W        W25770  21.681  11.849  11.920
57353W        W25771  41.791  23.587   3.233
57354W        W25772   7.211  27.483  11.404
57355W        W25773  29.982   5.338  14.369
57356W        W25774  43.507  27.453  11.969
57357W        W25775  15.182  29.474  12.925
57358W        W25776  31.453  37.415   3.196
57359W        W25777   7.246  39.949  14.516
57360W        W25778  14.634  28.489  12.452
57361W        W25779  37.982  35.904   4.337
57362W        W25780  10.287   6.693  14.919
57363W        W25781   9.345   6.390   3.349
57364W        W25782   2.349  23.704  13.408
57365W        W25783  19.207  31.566  11.501
57366W        W25784  44.901  27.963   1.309
57367W        W25785  38.410  43.394   1.753
57368W        W25786  35.044  28.979  13.366
57369W        W25787  32.111  30.150   0.730
57370W        W25788  39.971  13.342  11.952
57371W        W25789  38.000  24.101  14.794
57372W        W25790  29.084  36.862  12.504
57373W        W25791   8.664  21.120  14.803
57374W        W25792   6.770  16.217  14.458
57375W        W25793  42.791  31.991   3.714
57376W        W25794  31.623  36.882   1.323
57377W        W25795  11.784  21.735   4.262
57378W        W25796   6.317  31.949   4.644
57379W        W25797  36.394  35.552  11.919
57380W        W25798  41.525  44.002  11.960
57381W        W25799  11.650  30.067   1.776
57382W        W25800  37.449  29.027  10.093
57383W        W25801   2.860  16.766   4.144
57384W        W25802   8.215  30.657  12.043
57385W        W25803  33.953  19.719  11.114
57386W        W25804  16.784  11.823   1.418
57387W        W25805  43.912  43.764  13.477
57388W        W25806  39.054   6.239  12.950
57389W        W25807  33.999  36.981  11.051
57390W        W25808  26.541  15.175  12.966
57391W        W25809  17.101  20.658  10.464
57392W        W25810  32.070  34.431   2.765
57393W        W25811  20.753  11.201  13.883
57394W        W25812  44.824  11.308  12.942
57395W        W25813  33.554  23.557  11.885
57396W        W25814   9.725   0.291   4.710
57397W        W25815  36.425  44.280   2.665
57398W        W25816  22.691  18.204   0.896
57399W        W25817   3.852  33.491   0.783
57400W        W25818  12.751  17.647   3.362
57401W        W25819  38.867  43.918   4.662
57402W        W25820  18.209  19.083   3.728
57403W        W25821  37.871   0.406  13.332
57404W        W25822   7.267  34.017  14.001
57405W        W25823   9.301  24.161   9.938
57406W        W25824   7.799   7.840   1.222
57407W        W25825  13.843  13.304  14.302
57408W        W25826  25.597  37.991  10.619
57409W        W25827  28.149  19.222  11.548
57410W        W25828   6.269  42.905   1.246
57411W        W25829   3.904  42.820   3.834
57412W        W25830  27.196   9.270   2.247
57413W        W25831   9.153  22.168   3.155
57414W        W25832  11.749   7.796  11.568
57415W        W25833  19.729  43.919  12.036
57416W        W25834   9.832  16.278  10.436
57417W        W25835  28.050  21.698  11.378
57418W        W25836  10.678  29.452  11.963
57419W        W25837  31.036   7.763   0.461
57420W        W25838  38.870  14.331   3.238
57421W        W25839  26.145   5.385  12.553
57422W        W25840  29.658  11.288  13.343
57423W        W25841  39.041  35.073   5.101
57424W        W25842  21.234   1.440   1.319
57425W        W25843  31.512  20.079  13.911
57426W        W25844   0.754  27.474   4.719
57427W        W25845   8.352  33.121   0.845
57428W        W25846  26.566  39.954   1.769
57429W        W25847  15.685  17.106   1.911
57430W        W25848  15.758  28.663  14.834
57431W        W25849   3.430  27.585   4.669
57432W        W25850  12.766  12.796  12.899
57433W        W25851  21.671  37.980   0.460
57434W        W25852  35.531  23.174   1.899
57435W        W25853  40.867   3.330  12.050
57436W        W25854   1.961  19.699  11.116
57437W        W25855  39.981  44.760   0.458
57438W        W25856  26.191  43.406   4.629
57439W        W25857  39.965  18.220  12.999
57440W        W25858  37.397  26.493  12.984
57441W        W25859  27.573  30.985  14.836
57442W        W25860  24.092  33.073   4.276
57443W        W25861  25.661  32.472   0.353
57444W        W25862  31.031  13.223   0.954
57445W        W25863  44.907  18.106  10.605
57446W        W25864  15.191  32.522   2.308
57447W        W25865  31.604  25.597  14.434
57448W        W25866   0.946   9.166   1.794
57449W        W25867   8.257  35.899  14.333
57450W        W25868  13.341   9.747   4.721
57451W        W25869  33.016  43.932  12.372
57452W        W25870  42.371  23.516  13.825
57453W        W25871   7.876  25.560  10.970
57454W        W25872   9.656  10.718  11.613
57455W        W25873  26.698  42.312  11.056
57456W        W25874  30.015  15.578   4.223
57457W        W25875  42.483  21.195  12.042
57458W        W25876  19.102  25.478   2.333
57459W        W25877  38.977  17.156   5.266
57460W        W25878  37.458  44.340  11.935
57461W        W25879  23.115  32.630   4.597
57462W        W25880  13.165   6.747  12.512
57463W        W25881   0.860  35.469   0.887
57464W        W25882  27.492  34.478   1.788
57465W        W25883  11.659  22.527  14.956
57466W        W25884   0.877  34.001  12.959
57467W        W25885   7.894   1.333  12.561
57468W        W25886  39.876  32.992  11.453
57469W        W25887  11.635  20.575  14.415
57470W        W25888  11.680   0.423  10.405
57471W        W25889  33.049  39.531   0.925
57472W        W25890  41.835   7.262  10.550
57473W        W25891  29.557  32.132   2.343
57474W        W25892  28.128  40.050  10.921
57475W        W25893  25.211  35.860   1.839
57476W        W25894  12.628  39.010  12.989
57477W        W25895  42.464   6.205  13.879
57478W        W25896   8.241  25.574  12.976
57479W        W25897  28.629  10.298   0.318
57480W        W25898  39.434  25.661  14.843
57481W        W25899  26.470  18.674  11.572
57482W        W25900  12.190  34.386  12.861
57483W        W25901  31.564  13.811  14.023
57484W        W25902  27.138  11.260  13.331
57485W        W25903  19.607   2.343   3.820
57486W        W25904  31.050  28.078  11.875
57487W        W25905  21.731  20.224   3.371
57488W        W25906  44.937  14.281   2.745
57489W        W25907  33.065  12.299  14.947
57490W        W25908  17.801  14.632   2.210
57491W        W25909  33.625  44.387  14.766
57492W        W25910  39.555  35.582   1.436
57493W        W25911  38.949   4.302   0.896
57494W        W25912  41.883  16.311   3.819
57495W        W25913  37.353  37.852  11.388
57496W        W25914  27.551   8.254   0.890
57497W        W25915   2.406  21.601   1.881
57498W        W25916   7.674   8.662   2.845
57499W        W25917  13.213  34.389  14.496
57500W        W25918   7.267  14.181   0.407
57501W        W25919  35.864  30.092  12.908
57502W        W25920  39.543  31.645  11.994
57503W        W25921  25.576  25.195  13.961
57504W        W25922  13.140  26.601  10.021
57505W        W25923  15.797  26.598   1.822
57506W        W25924  12.286  39.996   1.854
57507W        W25925  34.504  43.317  12.926
57508W        W25926  23.618   3.431  12.424
57509W        W25927   8.190  16.239  12.386
57510W        W25928  42.838  22.135  11.550
57511W        W25929  39.865  38.502   4.127
57512W        W25930  29.611  22.130   1.784
57513W        W25931  24.183  25.660   1.298
57514W        W25932  17.250  15.633  10.934
57515W        W25933  21.177  34.556   4.244
57516W        W25934  26.180  39.979  13.418
57517W        W25935  33.119  20.596  13.376
57518W        W25936  39.415   0.877   3.700
57519W        W25937  17.564  23.109  14.789
57520W        W25938  14.656  20.530   1.795
57521W        W25939   0.746  18.556   2.229
57522W        W25940  35.015  43.021  11.124
57523W        W25941  33.573  33.052  11.499
57524W        W25942  24.059  21.126   0.289
57525W        W25943  26.058  35.490   3.753
57526W        W25944   6.397  38.426  12.466
57527W        W25945  15.607  21.081  12.406
57528W        W25946  26.100  27.189   4.115
57529W        W25947  26.019  24.710   3.311
57530W        W25948   2.450  33.401  10.133
57531W        W25949   5.412  35.424   2.406
57532W        W25950   0.834  24.171   4.755
57533W        W25951  18.094   6.190   1.769
57534W        W25952  33.404  40.450   1.782
57535W        W25953   9.684  43.998  14.327
57536W        W25954  34.887  23.704   1.878
57537W        W25955  44.895  13.702  11.474
57538W        W25956  35.893  21.249  10.468
57539W        W25957   6.264  29.436  10.969
57540W        W25958  10.382  14.181  12.901
57541W        W25959  22.058  40.950  10.021
57542W        W25960  33.449  40.511  10.892
57543W        W25961  17.134  12.849  14.481
57544W        W25962  35.975   0.290  11.100
57545W        W25963  11.864   3.397   4.616
57546W        W25964  37.994  31.102  11.388
57547W        W25965  40.948   0.431   2.316
57548W        W25966  13.119  11.163   3.187
57549W        W25967  29.444   8.295   2.828
57550W        W25968  42.452  20.651   1.795
57551W        W25969   0.418  17.798   2.716
57552W        W25970  15.697  42.296  14.993
57553W        W25971  33.074   7.287   1.751
57554W        W25972  12.799  26.167  12.553
57555W        W25973  30.989  17.160   4.713
57556W        W25974   4.882  25.691   1.270
57557W        W25975  34.888  28.667  13.841
57558W        W25976   8.372  42.791   3.832
57559W        W25977  14.178  37.570   1.706
57560W        W25978  22.572  35.568  11.495
57561W        W25979  41.524  26.152   1.735
57562W        W25980   4.397  16.221   2.819
57563W        W25981  21.175  11.824   2.336
57564W        W25982  33.406  12.762  14.006
57565W        W25983  37.834  40.979  13.373
57566W        W25984  12.182   6.722   0.257
57567W        W25985  24.480  38.494  10.572
57568W        W25986  36.357  35.986  11.393
57569W        W25987  26.677  12.229   2.799
57570W        W25988  31.542  11.702   2.394
57571W        W25989   4.350  13.694   1.329
57572W        W25990   3.415  26.140   2.730
57573W        W25991  28.613  35.412   4.162
57574W        W25992  28.004  33.609  13.978
57575W        W25993  33.006  16.237   0.873
57576W        W25994  28.091  12.158  10.972
57577W        W25995   6.798  27.104  13.909
57578W        W25996  33.466  18.614   3.259
57579W        W25997   6.347  38.343   0.322
57580W        W25998  43.794  39.411   0.882
57581W        W25999  33.621   5.720  13.407
57582W        W26000   5.290   1.260  13.321
57583W        W26001  24.481  34.880   2.246
57584W        W26002   1.782  44.347   3.241
57585W        W26003  30.504   5.789   3.385
57586W        W26004  33.959  25.527  13.793
57587W        W26005  11.832  14.763  12.487
57588W        W26006  42.852  44.298   2.678
57589W        W26007   9.310   8.785   2.680
57590W        W26008  37.020  31.124  12.009
57591W        W26009  32.489  12.236  10.949
57592W        W26010   2.838   3.323  11.021
57593W        W26011  20.110  30.498  13.812
57594W        W26012  29.604  37.567  10.502
57595W        W26013  33.395  33.960   0.785
57596W        W26014  33.050  27.131   1.214
57597W        W26015   8.654  44.438   4.193
57598W        W26016  29.078  33.559   0.381
57599W        W26017   3.839   2.275  10.931
57600W        W26018  19.753  30.927   0.813
57601W        W26019  38.407  18.084   3.688
57602W        W26020  40.894   2.835   0.837
57603W        W26021  37.904  43.859   3.358
57604W        W26022  16.673  13.183  11.127
57605W        W26023  21.662  42.918  14.277
57606W        W26024  38.399  37.077  13.795
57607W        W26025  39.042  40.428   3.750
57608W        W26026  30.947  39.841  14.491
57609W        W26027   7.775  13.660   4.129
57610W        W26028  16.319  24.178  13.379
57611W        W26029  29.639  19.555   1.782
57612W        W26030  19.708  31.429   3.645
57613W        W26031   4.796  32.126   4.811
57614W        W26032   9.815   4.823   3.668
57615W        W26033   5.378  14.196   4.673
57616W        W26034  24.670  15.313   3.173
57617W        W26035   3.262  32.070  12.536
57618W        W26036   2.295  31.098  14.005
57619W        W26037  15.197  44.956   2.225
57620W        W26038   9.165  14.823   3.825
57621W        W26039  37.040  44.989   3.821
57622W        W26040  15.604  37.436   4.287
57623W        W26041  28.979   0.377  14.980
57624W        W26042  33.594  35.023   4.342
57625W        W26043  37.574  24.483  11.092
57626W        W26044  29.030  41.494  13.454
57627W        W26045  17.124  35.556  13.828
57628W        W26046  10.140  32.894   3.226
57629W        W26047  35.016  30.939   4.122
57630W        W26048  18.184   9.864   3.734
57631W        W26049  32.949  27.593  10.572
57632W        W26050   8.227  28.649  14.962
57633W        W26051  29.448  22.655   0.328
57634W        W26052  33.625  29.477  12.547
57635W        W26053  22.244  26.492  11.999
57636W        W26054  17.281  17.217  12.057
57637W        W26055  35.478  40.439   2.872
57638W        W26056  18.212   6.206   2.354
57639W        W26057   8.674  31.079  11.033
57640W        W26058  29.150  33.130  11.971
57641W        W26059  33.602  15.268  13.412
57642W        W26060  32.391  16.255   4.781
57643W        W26061  27.609   6.840  11.027
57644W        W26062  40.373   1.286   2.325
57645W        W26063  23.020   0.460  13.456
57646W        W26064  31.929   5.371  13.898
57647W        W26065  41.365  20.645  10.930
57648W        W26066   0.334   9.861  12.475
57649W        W26067   3.336  36.393  12.505
57650W        W26068   5.828  26.505  13.484
57651W        W26069  16.730  31.484  13.430
57652W        W26070  33.526  20.095   2.253
57653W        W26071  39.948  23.059  12.059
57654W        W26072  35.396  35.090  13.983
57655W        W26073  32.900   2.939   1.738
57656W        W26074  20.671  23.723   3.350
57657W        W26075  34.579   5.711   2.265
57658W        W26076  35.514   4.772   0.263
57659W        W26077   4.806  30.973  10.030
57660W        W26078  18.243  33.891   3.784
57661W        W26079  32.437   0.979  11.495
57662W        W26080   5.358  41.034  11.958
57663W        W26081  10.823  35.505   4.790
57664W        W26082  28.956   3.334  10.480
57665W        W26083  39.499  27.177  13.308
57666W        W26084  15.123  12.346   0.845
57667W        W26085  24.217  34.038  10.403
57668W        W26086  31.591  22.515   2.193
57669W        W26087   9.678   5.871  11.473
57670W        W26088  37.966  37.536  14.502
57671W        W26089  36.905  25.186  14.417
57672W        W26090  30.108   0.784  12.545
57673W        W26091  24.177  28.480  10.449
57674W        W26092   9.713  40.338   2.211
57675W        W26093  13.782  34.485  11.880
57676W        W26094  22.646  10.739  11.113
57677W        W26095  31.574  35.373   4.626
57678W        W26096  19.198  16.754   3.171
57679W        W26097  27.126  40.004   0.448
57680W        W26098  11.860  32.449  12.078
57681W        W26099  35.067   7.394   0.394
57682W        W26100   7.894   8.859  10.958
57683W        W26101   3.802  13.833   2.843
57684W        W26102  11.659  35.550  14.312
57685W        W26103  18.740   4.236  10.933
57686W        W26104  43.972  37.454   5.177
57687W        W26105  11.817  17.110  12.849
57688W        W26106  30.002  15.087   3.155
57689W        W26107   5.357  22.034  11.376
57690W        W26108   7.370  31.962   1.747
57691W        W26109  23.684   3.335  12.998
57692W        W26110  25.039  30.994  12.900
57693W        W26111  42.356  42.837   3.792
57694W        W26112   1.310   2.291   4.738
57695W        W26113  40.501  12.756   0.800
57696W        W26114  32.033   9.185  11.437
57697W        W26115  35.575  16.232   1.885
57698W        W26116  11.167  34.036  11.090
57699W        W26117  33.981  17.068  13.327
57700W        W26118  33.925  26.173  14.836
57701W        W26119   0.948  40.824  12.005
57702W        W26120  34.604  40.809  14.882
57703W        W26121  28.600  22.116   2.847
57704W        W26122   7.289   4.807  12.367
57705W        W26123  37.940  16.673  14.863
57706W        W26124  19.090  31.031   2.704
57707W        W26125  41.377  31.105  11.492
57708W        W26126  12.799  31.554  11.541
57709W        W26127   2.335  15.615  10.016
57710W        W26128  25.198  26.188   2.738
57711W        W26129   1.959  24.152  12.488
57712W        W26130  14.744   3.271  12.895
57713W        W26131  33.509   3.914   3.378
57714W        W26132  28.562  14.620   4.743
57715W        W26133  19.754  30.934  13.910
57716W        W26134  33.924   0.337  14.831
57717W        W26135   0.339   5.215  13.311
57718W        W26136  12.320  22.539  11.064
57719W        W26137   8.828  36.502   4.175
57720W        W26138   9.347  29.452   2.777
57721W        W26139  33.587  10.847   0.840
57722W        W26140   1.810  30.646   1.894
57723W        W26141  19.114  19.645   1.882
57724W        W26142  37.578  37.545   2.204
57725W        W26143  29.007   1.915   0.965
57726W        W26144  16.293  26.045   1.302
57727W        W26145  27.502  13.228   2.678
57728W        W26146  15.726  29.618   2.814
57729W        W26147  14.616  21.166  11.042
57730W        W26148  40.436  20.040   1.694
57731W        W26149  30.533   1.455   2.342
57732W        W26150  16.147  11.368   1.302
57733W        W26151  11.646  39.491   1.284
57734W        W26152  15.184  39.041  10.917
57735W        W26153   2.954  31.556   2.747
57736W        W26154  11.356  20.168   4.793
57737W        W26155  42.859  21.551   4.784
57738W        W26156  39.946  22.030   3.346
57739W        W26157  23.153   3.392   1.749
57740W        W26158  33.975  25.618  13.350
57741W        W26159  19.748  28.478   2.360
57742W        W26160  10.659   0.287   0.291
57743W        W26161  19.732   8.227   4.607
57744W        W26162  29.097  19.774  13.053
57745W        W26163  28.490  22.236  14.936
57746W        W26164  36.395  25.183  12.509
57747W        W26165  19.703  32.987   2.824
57748W        W26166   5.688  38.961   0.846
57749W        W26167  28.986   8.673   3.726
57750W        W26168  20.604  29.424   4.636
57751W        W26169  26.040   8.792   3.853
57752W        W26170   7.346  13.767   1.360
57753W        W26171  35.031  27.132   1.843
57754W        W26172  20.729  15.585  10.428
57755W        W26173  14.129  26.044  10.492
57756W        W26174  35.014  43.469   3.159
57757W        W26175  37.449  24.647  13.494
57758W        W26176  28.129  34.960  12.020
57759W        W26177  42.809  24.496   1.261
57760W        W26178   4.904  31.531   2.263
57761W        W26179  29.548  12.725  12.579
57762W        W26180  25.048  15.105  14.909
57763W        W26181  21.232   3.718   0.923
57764W        W26182  19.542  23.497   2.259
57765W        W26183   6.264  26.013   0.281
57766W        W26184   8.734  42.877   0.276
57767W        W26185  36.557  43.351  13.326
57768W        W26186  32.950  20.243  14.456
57769W        W26187  18.058   9.306  10.988
57770W        W26188   5.725  36.416   2.726
57771W        W26189  29.103   6.813   1.334
57772W        W26190  16.747   4.718  14.842
57773W        W26191  23.087   5.213  12.947
57774W        W26192  23.038  32.021  10.486
57775W        W26193  16.694  17.301   1.258
57776W        W26194  38.884   7.316   3.343
57777W        W26195  14.194  33.400   3.816
57778W        W26196  35.528  10.299  10.513
57779W        W26197   4.293  24.546  12.059
57780W        W26198  29.157  33.881   4.733
57781W        W26199  44.893  19.213   0.763
57782W        W26200  43.773  17.565   2.804
57783W        W26201  16.701   1.365  12.517
57784W        W26202  44.791   6.885  14.790
57785W        W26203   5.271   9.833   2.702
57786W        W26204  38.472   7.341   2.754
57787W        W26205  27.996   8.812  14.451
57788W        W26206  34.611  40.872   0.781
57789W        W26207  41.902  25.972  14.452
57790W        W26208  37.427   2.461  12.550
57791W        W26209   4.716  19.610  10.437
57792W        W26210  12.351   9.829   4.731
57793W        W26211  19.665  22.097  14.931
57794W        W26212  18.672  34.017   2.703
57795W        W26213  26.515  33.963   3.203
57796W        W26214   4.726  15.177  11.562
57797W        W26215   9.157  30.019   3.195
57798W        W26216  19.664  30.642  14.929
57799W        W26217  19.593  10.860   2.264
57800W        W26218  33.504  35.496   1.853
57801W        W26219   7.354  18.592  14.396
57802W        W26220  23.533   4.422  13.526
57803W        W26221   3.461  25.664  14.945
57804W        W26222  43.464  42.304  13.907
57805W        W26223  44.417  29.918   2.712
57806W        W26224  40.322  36.426   0.735
57807W        W26225   2.424  19.764   2.663
57808W        W26226   6.200  13.725   1.931
57809W        W26227  22.598  21.135  13.491
57810W        W26228  17.568  40.490   1.337
57811W        W26229  40.412  41.486   3.705
57812W        W26230  18.737   7.367  14.495
57813W        W26231  17.281  24.538  12.905
57814W        W26232  35.365  15.177  13.793
57815W        W26233   5.689   7.760  12.857
57816W        W26234  21.249  14.636   4.792
57817W        W26235  11.306  36.089   2.900
57818W        W26236  12.653  12.266  10.505
57819W        W26237  41.499  19.769   1.788
57820W        W26238  23.652  39.871   1.414
57821W        W26239  10.759  36.084  12.001
57822W        W26240   7.827   3.819  14.768
57823W        W26241   9.689   7.393  12.063
57824W        W26242  35.373  16.578   1.850
57825W        W26243   9.247  26.510   4.799
57826W        W26244   0.852   0.494   3.652
57827W        W26245  34.055   7.888   2.774
57828W        W26246  11.803   1.479   1.728
57829W        W26247   3.871  21.711   3.234
57830W        W26248   8.404   9.295   1.294
57831W        W26249  34.079  10.634  14.770
57832W        W26250  44.316   7.852   5.300
57833W        W26251   5.895  14.642  10.979
57834W        W26252  31.446  28.562   2.901
57835W        W26253   3.381  18.296   0.305
57836W        W26254  11.341  17.182   2.257
57837W        W26255  20.579  15.660  14.984
57838W        W26256  29.932  11.320  14.422
57839W        W26257  12.309  11.834  11.549
57840W        W26258  27.576  17.788  11.565
57841W        W26259  18.784  26.655  12.503
57842W        W26260  37.417  35.077   5.228
57843W        W26261  36.847  24.036  11.374
57844W        W26262  20.078  21.716  10.533
57845W        W26263  21.611  12.241   4.138
57846W        W26264  21.104  23.172  12.901
57847W        W26265  10.211  26.126   1.405
57848W        W26266  25.047   7.811   1.212
57849W        W26267  20.561  17.596  12.013
57850W        W26268  27.111   9.187   3.818
57851W        W26269   8.871   7.887   1.754
57852W        W26270   6.685  20.077  14.922
57853W        W26271   2.898   4.842   4.166
57854W        W26272  38.010  16.715  12.412
57855W        W26273  31.551  19.062  11.917
57856W        W26274  38.551  29.652   3.683
57857W        W26275  10.325  19.758  12.353
57858W        W26276  18.254   1.288   1.761
57859W        W26277   8.805  42.382  13.547
57860W        W26278   7.341  11.868   0.876
57861W        W26279  16.244   2.892   1.827
57862W        W26280   5.722  43.799  13.972
57863W        W26281  34.478   3.393   1.777
57864W        W26282  39.998  41.361   4.634
57865W        W26283  10.310  35.454  11.896
57866W        W26284  18.737   1.837  10.006
57867W        W26285  20.208  41.367  14.403
57868W        W26286  15.170  35.413   4.826
57869W        W26287   0.931  26.201  10.577
57870W        W26288   5.302  35.517  11.975
57871W        W26289   6.735   6.848   4.750
57872W        W26290  21.188   4.862  11.602
57873W        W26291   8.369   6.223   3.334
57874W        W26292  20.158  16.807  13.463
57875W        W26293   7.298  13.637  14.354
57876W        W26294  27.549  37.039   0.884
57877W        W26295  35.066   4.921   1.253
57878W        W26296  32.394  17.184   0.730
57879W        W26297  23.037   1.312   0.353
57880W        W26298  19.117  29.481  13.507
57881W        W26299  17.750  42.515  11.065
57882W        W26300  10.326  24.622  12.428
57883W        W26301  33.988  36.480  12.517
57884W        W26302  31.442   7.403   1.784
57885W        W26303  18.610  42.817   4.730
57886W        W26304  12.254  34.939   2.287
57887W        W26305  13.351  32.963   3.277
57888W        W26306  18.142   9.847  13.327
57889W        W26307  18.125  19.560   4.263
57890W        W26308  44.390  14.328   4.626
57891W        W26309  25.596  16.127  11.527
57892W        W26310   3.452  16.175   1.912
57893W        W26311  26.208  38.357   4.824
57894W        W26312   3.353  12.823   3.175
57895W        W26313  16.567  32.465   4.313
57896W        W26314   2.781   1.305   0.950
57897W        W26315  20.100  20.083   4.219
57898W        W26316   4.811  20.270   5.157
57899W        W26317   3.407   4.257  13.913
57900W        W26318  24.547  31.968   3.863
57901W        W26319   1.883  15.168  11.017
57902W        W26320   3.757  34.396  10.970
57903W        W26321  13.792  20.037   2.887
57904W        W26322   2.913  35.914  14.948
57905W        W26323  39.813  33.960   3.234
57906W        W26324  23.111  12.643  12.007
57907W        W26325  27.539   5.815   2.234
57908W        W26326  27.099  23.499   1.294
57909W        W26327  14.654   5.193   0.477
57910W        W26328  20.258  26.006   1.894
57911W        W26329  26.206  23.629  11.421
57912W        W26330  21.080  12.319   5.291
57913W        W26331  21.117  43.287  11.405
57914W        W26332  30.975   1.403  11.122
57915W        W26333  26.159  42.386   3.295
57916W        W26334   2.342  10.850  14.352
57917W        W26335  23.059  43.022   1.797
57918W        W26336  27.996  16.765   3.245
57919W        W26337  23.091  39.964  10.457
57920W        W26338  28.496  22.734   0.471
57921W        W26339  26.514  25.700  10.925
57922W        W26340  30.557  15.101   2.354
57923W        W26341  18.628   6.195   2.890
57924W        W26342   1.794   2.942  12.564
57925W        W26343  14.323  41.455  14.907
57926W        W26344   6.748   3.319   2.852
57927W        W26345  17.217  30.994  13.797
57928W        W26346   5.749  15.732   0.403
57929W        W26347  42.886  23.214  14.863
57930W        W26348  22.718  37.521  14.450
57931W        W26349  15.801   7.247  13.010
57932W        W26350  44.337  30.526   0.383
57933W        W26351  38.395   3.301   1.732
57934W        W26352  23.658   1.474   0.439
57935W        W26353   1.282  18.665   3.831
57936W        W26354  16.759  33.009  12.518
57937W        W26355  12.300  34.072   1.427
57938W        W26356   3.741  19.249   1.447
57939W        W26357  29.433  36.420  10.597
57940W        W26358  30.113   0.391   4.638
57941W        W26359  15.226  12.292  12.088
57942W        W26360  21.562  39.813   4.260
57943W        W26361  37.910  16.783  12.872
57944W        W26362  27.558   8.266  11.977
57945W        W26363  38.045  10.376   3.339
57946W        W26364  18.778  27.163   0.783
57947W        W26365   7.409   0.840   1.436
57948W        W26366  30.929  26.695   2.862
57949W        W26367  25.107   1.829   2.313
57950W        W26368  39.541  18.768  10.627
57951W        W26369  20.567  30.606   2.718
57952W        W26370  33.022  26.686   1.853
57953W        W26371  21.706  34.575   0.427
57954W        W26372  26.103  15.786   1.333
57955W        W26373  27.083   6.702  12.421
57956W        W26374  12.657  14.247  11.533
57957W        W26375  32.416  37.972  13.343
57958W        W26376   7.277  30.563   0.781
57959W        W26377  44.432  37.034   0.411
57960W        W26378  10.147  21.246   3.659
57961W        W26379  34.995  32.522   0.482
57962W        W26380  39.486  22.686  10.419
57963W        W26381  40.990  35.084   2.293
57964W        W26382   3.919  28.150  14.937
57965W        W26383  43.969  14.792   0.852
57966W        W26384  24.118  40.332  13.004
57967W        W26385  37.016  33.129  10.432
57968W        W26386  32.045  42.851   2.337
57969W        W26387  21.588  43.489  11.972
57970W        W26388  18.139  27.555  11.958
57971W        W26389  41.434  36.872  11.534
57972W        W26390  18.732  22.530   0.878
57973W        W26391  20.249  35.861   1.773
57974W        W26392   9.385   0.985  14.384
57975W        W26393   7.208  42.906   3.226
57976W        W26394  23.177  18.141  12.484
57977W        W26395  28.935   9.301  13.925
57978W        W26396  34.962  43.510  14.495
57979W        W26397   5.856  10.713   0.466
57980W        W26398  43.296  23.494   0.247
57981W        W26399   9.384  40.051  11.591
57982W        W26400  36.356   2.936   3.173
57983W        W26401  17.072  11.306   1.420
57984W        W26402  32.531  39.342  12.853
57985W        W26403  41.844  19.732   3.705
57986W        W26404   1.827  43.913   3.808
57987W        W26405  20.261  41.502   3.858
57988W        W26406  21.096  43.311   2.699
57989W        W26407  15.696  30.515   0.327
57990W        W26408   1.876  43.999   0.458
57991W        W26409  34.441  12.144   4.718
57992W        W26410  14.189  35.028  12.878
57993W        W26411  13.744  35.389  14.019
57994W        W26412  35.409  42.437  13.364
57995W        W26413  11.776   8.799  12.529
57996W        W26414  32.914  30.119   4.340
57997W        W26415  11.706  25.083   0.348
57998W        W26416  44.982  13.267  14.396
57999W        W26417  26.576  22.006  10.559
58000W        W26418  38.421   9.298   2.220
58001W        W26419  21.730  26.694  13.891
58002W        W26420  22.656  30.958   3.796
58003W        W26421  19.279  11.257  10.564
58004W        W26422  40.541  29.150   0.924
58005W        W26423   3.359  34.091  11.955
58006W        W26424   4.830  16.115  14.867
58007W        W26425  15.785  21.099   1.813
58008W        W26426  27.105  15.582   1.727
58009W        W26427  34.384  44.965   2.751
58010W        W26428  17.293  26.530   0.313
58011W        W26429  40.929  12.199  12.851
58012W        W26430   6.191  12.626   5.218
58013W        W26431  30.437  33.080  12.830
58014W        W26432  21.590  36.007   3.290
58015W        W26433   6.750  30.098   3.380
58016W        W26434  13.753  14.123  14.997
58017W        W26435  24.012   5.406   1.387
58018W        W26436  30.105  18.653  11.939
58019W        W26437  44.797  33.444   2.322
58020W        W26438  39.855  19.775  11.473
58021W        W26439  32.919   0.331   0.419
58022W        W26440   8.226   6.760   3.814
58023W        W26441  35.993   7.853   3.177
58024W        W26442  44.399   7.711  13.028
58025W        W26443  11.718  12.157  11.464
58026W        W26444  41.388  42.899  13.792
58027W        W26445   9.177  11.134  11.919
58028W        W26446   9.830  42.998   1.788
58029W        W26447   4.738   2.915   4.231
58030W        W26448   3.788  37.496  12.056
58031W        W26449   9.752  15.105   3.176
58032W        W26450  43.384  16.110   2.405
58033W        W26451  37.542  31.546  12.561
58034W        W26452  43.305  19.735  10.951
58035W        W26453  13.712   6.884   0.876
58036W        W26454  38.360   2.327   1.718
58037W        W26455  31.131  41.439  12.943
58038W        W26456  32.960  18.238   3.198
58039W        W26457  23.000  33.551  13.045
58040W        W26458   1.249   4.877   2.216
58041W        W26459  27.506  44.893   2.336
58042W        W26460  35.885  29.018   0.840
58043W        W26461   1.861   9.740  13.315
58044W        W26462   3.456  15.628   0.788
58045W        W26463  21.253  17.697  11.076
58046W        W26464  24.608   7.224   3.299
58047W        W26465  24.573  39.909   0.734
58048W        W26466  43.454  21.653   4.650
58049W        W26467  43.911  42.476   1.717
58050W        W26468  44.422  14.613  13.401
58051W        W26469  19.672  20.551  12.893
58052W        W26470  27.059  35.473   0.752
58053W        W26471   1.389  36.060  14.995
58054W        W26472  22.113  24.592   1.229
58055W        W26473  15.227   1.344   0.778
58056W        W26474  15.602   6.804   2.267
58057W        W26475  16.788  35.894   0.804
58058W        W26476   4.878  30.014   1.887
58059W        W26477  26.466   6.783  13.927
58060W        W26478  24.079  36.540  11.956
58061W        W26479  28.561  15.585  13.054
58062W        W26480  13.749  15.592  12.530
58063W        W26481  15.218  20.071  12.070
58064W        W26482  24.194  23.111  12.050
58065W        W26483  39.359  36.408  14.512
58066W        W26484  25.212  32.133  12.970
58067W        W26485  30.493  40.861  12.992
58068W        W26486  21.532  27.445  11.611
58069W        W26487  42.503  19.635   1.896
58070W        W26488   7.827  33.400  13.006
58071W        W26489   4.898  44.326  11.022
58072W        W26490   9.271  40.020   1.911
58073W        W26491  30.988  14.782  11.123
58074W        W26492  18.771   6.240  14.448
58075W        W26493  35.551  42.003   4.227
58076W        W26494  32.141  19.724   4.728
58077W        W26495  14.831  21.644  13.800
58078W        W26496  44.275   5.763  10.122
58079W        W26497  26.600  38.068  12.389
58080W        W26498   1.425  33.461   4.620
58081W        W26499  35.441   8.840   1.211
58082W        W26500  41.431  42.853  11.580
58083W        W26501  15.272  36.975  12.367
58084W        W26502   3.902  28.521   1.694
58085W        W26503  20.589   3.370   3.283
58086W        W26504  27.598  35.527   4.668
58087W        W26505  36.527  36.512  12.342
58088W        W26506  17.758  10.826  11.919
58089W        W26507  34.876  31.133   2.679
58090W        W26508  33.442  42.852   5.273
58091W        W26509  11.660  17.071   5.119
58092W        W26510  15.307   3.849   2.356
58093W        W26511  15.800  16.635  10.002
58094W        W26512  34.526  40.869   4.240
58095W        W26513  34.084   2.450   0.853
58096W        W26514  21.720  14.589  11.951
58097W        W26515  16.092  25.617  13.058
58098W        W26516  39.438  26.077  12.341
58099W        W26517  18.722  31.426   1.406
58100W        W26518  29.168  26.621   0.749
58101W        W26519  14.715  44.835   1.343
58102W        W26520  20.152  44.326  11.371
58103W        W26521  43.303  24.582   5.308
58104W        W26522   6.383  41.982   3.683
58105W        W26523  43.871   7.765  14.933
58106W        W26524  11.167  33.443   2.815
58107W        W26525  13.722  37.976   3.771
58108W        W26526  13.696  22.217  11.398
58109W        W26527   3.361   7.299   4.250
58110W        W26528  11.844  41.294  12.556
58111W        W26529  31.104  34.498   5.291
58112W        W26530   3.897  20.683   9.449
58113W        W26531  23.994  29.142  12.862
58114W        W26532  19.677  42.467  14.336
58115W        W26533  16.721  36.591   2.845
58116W        W26534  34.521  36.379  13.034
58117W        W26535  29.997  18.253   4.266
58118W        W26536  23.566  42.984   2.316
58119W        W26537  17.698  40.389   3.726
58120W        W26538  28.517  18.176  10.578
58121W        W26539  29.559  16.254  10.556
58122W        W26540  12.302  31.896  14.896
58123W        W26541  37.962  39.995   3.787
58124W        W26542  33.529  43.387  13.905
58125W        W26543  36.425  18.691   5.176
58126W        W26544  41.371  12.633  13.388
58127W        W26545  44.961  36.504  12.368
58128W        W26546  44.790   3.742   1.302
58129W        W26547   4.806  18.228   3.227
58130W        W26548  20.260  44.306   1.373
58131W        W26549  23.189   1.790   4.155
58132W        W26550  26.622  32.413  13.870
58133W        W26551   3.774  13.254  13.929
58134W        W26552  26.644  34.918  10.928
58135W        W26553  29.016  32.903  13.982
58136W        W26554  11.314  21.147  12.078
58137W        W26555  16.614  29.563   1.340
58138W        W26556  11.190   3.838  13.457
58139W        W26557  11.137  21.528  13.480
58140W        W26558  41.407  21.681   3.190
58141W        W26559   2.418  10.701  14.000
58142W        W26560  22.715   4.417  12.963
58143W        W26561  20.068   1.732   9.963
58144W        W26562  34.566  44.287  12.843
58145W        W26563   4.876  19.083  11.600
58146W        W26564   5.340  37.347   4.350
58147W        W26565  22.058   7.289   3.652
58148W        W26566  20.727   1.404  11.033
58149W        W26567  26.092  21.075  11.588
58150W        W26568  32.543  11.337   2.809
58151W        W26569   5.388  32.110  13.539
58152W        W26570  17.774  26.115  13.313
58153W        W26571  24.630  20.573   0.347
58154W        W26572   2.949   2.903   2.306
58155W        W26573  41.410  29.957  13.450
58156W        W26574  37.962  35.097   4.756
58157W        W26575  11.707  10.832   0.861
58158W        W26576   2.242  18.216  13.802
58159W        W26577   3.268  43.368  14.789
58160W        W26578  20.612  18.677   4.309
58161W        W26579  16.586   1.755  13.903
58162W        W26580  21.684  26.024  11.929
58163W        W26581  34.423  37.853   5.240
58164W        W26582  26.027   9.254   5.288
58165W        W26583  44.884  30.943   1.791
58166W        W26584  40.545  25.541  12.026
58167W        W26585  25.019  23.235  12.940
58168W        W26586   3.900   9.259  10.612
58169W        W26587  31.401  33.929   1.878
58170W        W26588  39.408  11.668   3.847
58171W        W26589  27.544  41.311   2.819
58172W        W26590  15.118   3.925  11.069
58173W        W26591  20.744   7.795  12.018
58174W        W26592  14.730  24.686  11.125
58175W        W26593  20.617  18.746   2.206
58176W        W26594   9.320  31.502   3.847
58177W        W26595  18.263   4.233   1.214
58178W        W26596  17.228  14.160  13.433
58179W        W26597   0.952  13.643  13.060
58180W        W26598  38.020  27.668  13.800
58181W        W26599  15.090  21.134   4.276
58182W        W26600  10.194  11.800   1.860
58183W        W26601  36.021  19.196  11.421
58184W        W26602   3.857   8.733   2.853
58185W        W26603   3.267   5.910  11.581
58186W        W26604   0.256  30.423   4.158
58187W        W26605  39.385  36.446   2.184
58188W        W26606  43.375  10.328  10.437
58189W        W26607  29.590   8.831   4.632
58190W        W26608  43.413   0.774  10.051
58191W        W26609  20.664  11.661   2.830
58192W        W26610  11.157  42.780   4.216
58193W        W26611  32.517  36.979  10.918
58194W        W26612  41.375  40.860   3.851
58195W        W26613   4.325  21.752  13.919
58196W        W26614  23.667  21.713  10.631
58197W        W26615   0.785   8.839  12.902
58198W        W26616  12.663  24.056   0.737
58199W        W26617  14.711   2.784  12.023
58200W        W26618  35.597  20.534  13.526
58201W        W26619  11.328   1.745   2.849
58202W        W26620  24.589  43.508  14.335
58203W        W26621  22.212  36.913  13.857
58204W        W26622  42.927  14.762  10.931
58205W        W26623   2.861  24.566   4.350
58206W        W26624  35.067  18.169   1.320
58207W        W26625  38.887  38.882  14.322
58208W        W26626  22.736  29.012  11.503
58209W        W26627  39.456  13.693   4.662
58210W        W26628  31.544  40.541  12.038
58211W        W26629  15.141  10.334  13.346
58212W        W26630  40.841  39.924   3.806
58213W        W26631  44.494  15.183   1.298
58214W        W26632  33.382  24.190  14.004
58215W        W26633  35.003  25.515   3.178
58216W        W26634  28.498  30.413  14.909
58217W        W26635  19.734  44.793  14.024
58218W        W26636  44.297   0.792  12.898
58219W        W26637  26.626  39.911   2.892
58220W        W26638  10.247  15.310   1.847
58221W        W26639  10.289  10.291  11.586
58222W        W26640  19.778   8.216  10.572
58223W        W26641  15.253  28.534  12.929
58224W        W26642  23.014  29.065  14.837
58225W        W26643  35.050  22.248   2.784
58226W        W26644  18.123   2.322   1.836
58227W        W26645  41.923  22.218   0.331
58228W        W26646   4.762  15.791  14.389
58229W        W26647  30.615   5.397   1.699
58230W        W26648  40.820  34.557  14.454
58231W        W26649  29.445  13.621   4.178
58232W        W26650  18.133   7.799   3.320
58233W        W26651   4.944   3.851  10.525
58234W        W26652  26.959  34.399  13.029
58235W        W26653  43.793   9.291   3.274
58236W        W26654  26.094   4.403   1.435
58237W        W26655  20.758   7.881   2.728
58238W        W26656   0.893  26.560   2.889
58239W        W26657  16.658  32.100  12.442
58240W        W26658  12.264  30.504  12.384
58241W        W26659   8.298  22.532  13.921
58242W        W26660   4.356  10.156   1.840
58243W        W26661  31.467  19.044  11.397
58244W        W26662   3.330  13.311  10.499
58245W        W26663  20.098  35.102  14.959
58246W        W26664   1.866  41.403  14.482
58247W        W26665  10.209   0.398  10.105
58248W        W26666  24.000  13.696  12.484
58249W        W26667  39.987  22.119   2.789
58250W        W26668  36.386  23.599   0.961
58251W        W26669  21.752   0.883  10.956
58252W        W26670  25.999   9.200   3.158
58253W        W26671  43.274  41.505  11.095
58254W        W26672  43.326   9.876  11.895
58255W        W26673   2.385  42.799   4.818
58256W        W26674  39.035  18.191  10.489
58257W        W26675  23.072  37.443  12.477
58258W        W26676  30.047   6.372  13.970
58259W        W26677   4.445  26.559  10.938
58260W        W26678  11.733  12.648   0.385
58261W        W26679  32.940  32.417   1.404
58262W        W26680  13.698  27.510  14.925
58263W        W26681  30.146  22.587   1.716
58264W        W26682  35.564  20.552  14.453
58265W        W26683  25.505  42.924   4.767
58266W        W26684  44.332  44.322  11.538
58267W        W26685  21.600   0.890  12.857
58268W        W26686   0.257  14.294  12.399
58269W        W26687  38.048   6.269   1.782
58270W        W26688  12.671  22.058   4.621
58271W        W26689   9.749  12.697   0.749
58272W        W26690  34.885  40.029   3.231
58273W        W26691  38.957  30.510  14.435
58274W        W26692  23.678  28.559   1.894
58275W        W26693  25.623  15.821   1.897
58276W        W26694  12.223  21.115   3.641
58277W        W26695  22.655  10.706   4.647
58278W        W26696   5.730  38.494  14.926
58279W        W26697  33.070  20.662   1.884
58280W        W26698  15.785  29.159   9.970
58281W        W26699   4.317  32.945  11.994
58282W        W26700  29.560  22.706  10.514
58283W        W26701  44.773  22.236   9.992
58284W        W26702  31.113   4.308  12.826
58285W        W26703  10.246  35.598   1.226
58286W        W26704  34.055  44.411   3.735
58287W        W26705  27.622  17.640   3.672
58288W        W26706  25.704  20.537   4.271
58289W        W26707  18.784  30.444  11.102
58290W        W26708   9.643  40.338   3.170
58291W        W26709  43.907  44.355   1.790
58292W        W26710  17.593  41.971  12.852
58293W        W26711  42.794   3.928  12.518
58294W        W26712  27.605  10.368   0.822
58295W        W26713   4.209   8.781   1.425
58296W        W26714  32.933  38.828   3.149
58297W        W26715  11.695  42.365  12.359
58298W        W26716  20.262   3.792  14.316
58299W        W26717   8.825  10.209   5.231
58300W        W26718  27.505  33.906   0.900
58301W        W26719  25.678  16.263  10.602
58302W        W26720  26.666  33.037   3.657
58303W        W26721  14.701  33.563   3.244
58304W        W26722  40.434  32.068   0.460
58305W        W26723  18.726  28.589  11.910
58306W        W26724   8.258  44.504  11.447
58307W        W26725  35.902  37.907   2.664
58308W        W26726   6.208  40.500   5.293
58309W        W26727  26.654  12.842   0.401
58310W        W26728  13.710  43.828   0.918
58311W        W26729  25.661  24.125   0.730
58312W        W26730   0.888  15.250  12.418
58313W        W26731  36.459   4.909  14.408
58314W        W26732   9.152  37.523  12.083
58315W        W26733  25.681  30.548  13.027
58316W        W26734   9.342  20.266   1.307
58317W        W26735   3.845  12.761  14.027
58318W        W26736  21.238  22.211   0.832
58319W        W26737  32.095  40.018   2.719
58320W        W26738   9.788  12.235  10.629
58321W        W26739  42.389   5.375   0.451
58322W        W26740  41.381  22.521   2.300
58323W        W26741   2.833   2.366  14.858
58324W        W26742  32.592  14.271  10.992
58325W        W26743   2.748   0.859   3.847
58326W        W26744  43.450  20.623  12.499
58327W        W26745  22.613  37.505   1.802
58328W        W26746  43.296  43.872  12.030
58329W        W26747   6.261   7.743   4.252
58330W        W26748   3.830   4.904  13.442
58331W        W26749  34.526  43.844  11.983
58332W        W26750  10.316  44.302  10.971
58333W        W26751  14.733  37.337  14.903
58334W        W26752  42.297   7.712   4.788
58335W        W26753  20.029   3.428  10.076
58336W        W26754  30.417   2.272  10.584
58337W        W26755   7.250   4.366   2.184
58338W        W26756   7.315  22.699   5.245
58339W        W26757  13.132  29.008   3.344
58340W        W26758  23.193  14.321   4.343
58341W        W26759   0.480  20.164   9.668
58342W        W26760  31.512  15.250   2.829
58343W        W26761  42.362  39.874   4.203
58344W        W26762  35.528  39.421  14.505
58345W        W26763   8.204  26.644  14.759
58346W        W26764  21.208  25.514  12.004
58347W        W26765  43.321  11.849   3.723
58348W        W26766   5.900   6.732  10.940
58349W        W26767   5.255   6.917   2.798
58350W        W26768  38.046  30.458   3.690
58351W        W26769   4.236  40.817  14.937
58352W        W26770  40.033  28.446  11.107
58353W        W26771  22.624   2.942   2.879
58354W        W26772   5.896  43.356   1.888
58355W        W26773   7.348  34.581  10.615
58356W        W26774  25.985  40.467  13.527
58357W        W26775  17.088  37.918   4.683
58358W        W26776  36.391  43.809   1.263
58359W        W26777  31.444  37.994   0.838
58360W        W26778  18.617  10.638  13.037
58361W        W26779  38.831  26.123  13.522
58362W        W26780  13.291  35.982   1.353
58363W        W26781  12.785  35.445  12.009
58364W        W26782  13.717  23.602  12.057
58365W        W26783  36.906  16.314   4.767
58366W        W26784  35.010  25.981   0.478
58367W        W26785  16.636  18.174   1.339
58368W        W26786  37.519   7.684   0.421
58369W        W26787   1.821   2.357   3.803
58370W        W26788  14.131   5.376   5.206
58371W        W26789  17.645  24.130  11.942
58372W        W26790   6.355  11.803   1.789
58373W        W26791  39.853  19.629   2.182
58374W        W26792  25.611  22.577   4.602
58375W        W26793  10.840  26.149   1.743
58376W        W26794  18.264  13.759  12.993
58377W        W26795  15.591  32.002  10.563
58378W        W26796  35.549  23.150   2.757
58379W        W26797  41.304  34.027  12.837
58380W        W26798  38.508  11.864  12.086
58381W        W26799  25.620   5.278   2.281
58382W        W26800  38.976  23.618   1.278
58383W        W26801  19.775  40.440  12.858
58384W        W26802  38.463  11.197   4.244
58385W        W26803  39.315   6.728  14.871
58386W        W26804  19.255  40.891   1.212
58387W        W26805   6.909  17.161  11.045
58388W        W26806  20.678  24.567   1.344
58389W        W26807  21.745   8.276   0.792
58390W        W26808  40.360   2.369   4.726
58391W        W26809  10.702  18.600  13.373
58392W        W26810  44.951   9.799  14.361
58393W        W26811  15.153   0.384  13.409
58394W        W26812  22.603  32.975  13.912
58395W        W26813  19.566  24.078   1.877
58396W        W26814  38.944  31.110  12.533
58397W        W26815   5.308  11.135  13.321
58398W        W26816  30.923  22.535  13.875
58399W        W26817   4.215  15.143  12.090
58400W        W26818  17.800   4.307   0.958
58401W        W26819  22.075   1.395   0.778
58402W        W26820  33.624  18.282   3.157
58403W        W26821   1.869   5.907  14.988
58404W        W26822  40.870  16.188   1.242
58405W        W26823  25.026  18.165  14.447
58406W        W26824  15.153  36.908   1.329
58407W        W26825  12.218  18.248   4.177
58408W        W26826  42.032   4.796   3.757
58409W        W26827  24.715  21.114  11.080
58410W        W26828  27.979   6.189   4.805
58411W        W26829  12.630  13.238   0.881
58412W        W26830  14.747   5.382   4.309
58413W        W26831  18.693   3.236   5.160
58414W        W26832   9.221  36.005   1.808
58415W        W26833  30.082  21.703  14.433
58416W        W26834   7.865  39.984  14.892
58417W        W26835  28.947  42.500  12.047
58418W        W26836  25.521  43.824  12.851
58419W        W26837  35.038  39.486   1.402
58420W        W26838  43.794   4.422  12.861
58421W        W26839  28.181  20.544  12.929
58422W        W26840  29.555  38.372   1.388
58423W        W26841   2.827  24.181  13.831
58424W        W26842   4.212  13.610   3.231
58425W        W26843  40.828   2.867  12.415
58426W        W26844  26.149  17.773   0.799
58427W        W26845  17.661  19.669  14.029
58428W        W26846   9.741  22.636  12.893
58429W        W26847  17.702  27.982  11.009
58430W        W26848  24.549   3.788  10.405
58431W        W26849   3.842  37.937  12.578
58432W        W26850  44.385  19.534  13.507
58433W        W26851  11.841   4.377   1.285
58434W        W26852  43.932  16.312  10.534
58435W        W26853  35.078  21.712  13.316
58436W        W26854   8.175   4.940  11.455
58437W        W26855  30.645  36.468   1.850
58438W        W26856  33.464  13.250   0.471
58439W        W26857  16.623  34.564   4.630
58440W        W26858  20.258   1.338   4.118
58441W        W26859  39.544  28.447  14.452
58442W        W26860  16.085   2.355  11.121
58443W        W26861   0.422   1.964   0.301
58444W        W26862  19.722  17.696  12.096
58445W        W26863  23.060  20.645  12.869
58446W        W26864  32.610  25.165  11.607
58447W        W26865  25.666  37.438   1.748
58448W        W26866  32.484  38.932   4.688
58449W        W26867  21.031   5.252   3.171
58450W        W26868  31.972  30.909  12.073
58451W        W26869   4.725  37.427   1.235
58452W        W26870  21.020  34.601   0.873
58453W        W26871   5.759   8.874  10.893
58454W        W26872  12.247  40.516   4.783
58455W        W26873  22.247   3.899   2.764
58456W        W26874   1.978   6.358  11.371
58457W        W26875  28.092  21.025   4.792
58458W        W26876  25.527  13.182  13.543
58459W        W26877  12.822  16.175   4.682
58460W        W26878   3.751   2.319   0.827
58461W        W26879  15.150  23.029   0.301
58462W        W26880  33.017  12.760   1.901
58463W        W26881  11.637  21.052  12.025
58464W        W26882  23.552   6.211   0.322
58465W        W26883  15.180  33.452  14.378
58466W        W26884  32.538  38.960  14.800
58467W        W26885   9.328   5.215  12.010
58468W        W26886  42.949  10.746  13.928
58469W        W26887  10.874  19.070   2.701
58470W        W26888  43.985  21.567   1.309
58471W        W26889  40.023   5.701  12.560
58472W        W26890  35.885  11.717   2.892
58473W        W26891  29.921  25.564  12.427
58474W        W26892  12.235  27.007   3.807
58475W        W26893  32.047  31.125   3.172
58476W        W26894  22.197  41.346   9.954
58477W        W26895  22.123  40.860  12.496
58478W        W26896  39.445   0.434  14.429
58479W        W26897  30.427  10.677   0.301
58480W        W26898  39.006   4.271  13.442
58481W        W26899  38.385  39.932   2.202
58482W        W26900  26.684  15.139  14.385
58483W        W26901  16.722  20.132  11.508
58484W        W26902  33.424  40.813   1.904
58485W        W26903   1.902   5.743   2.230
58486W        W26904   2.306  38.428   1.338
58487W        W26905  20.235  23.516  12.071
58488W        W26906  17.631   4.402  14.357
58489W        W26907  17.209  33.061   4.341
58490W        W26908  16.219   0.825  13.391
58491W        W26909  22.161  29.945   2.302
58492W        W26910  42.407  24.149   4.728
58493W        W26911  12.150  27.973  14.290
58494W        W26912  12.856  38.953  13.921
58495W        W26913  29.537   1.768   4.773
58496W        W26914  16.224  30.137   4.624
58497W        W26915  20.061  12.635  10.432
58498W        W26916  21.537  29.636  14.816
58499W        W26917  17.283   9.233  14.899
58500W        W26918  19.611  43.493  13.501
58501W        W26919  42.926  19.629   4.117
58502W        W26920  18.235  18.770   0.376
58503W        W26921   4.232   1.781   4.340
58504W        W26922  11.624  32.057   2.390
58505W        W26923   6.405   8.888   1.406
58506W        W26924  23.546  28.084  14.346
58507W        W26925   2.864  10.260  11.070
58508W        W26926  15.675   2.769  14.788
58509W        W26927  14.208   2.725  10.584
58510W        W26928  12.682  40.029   3.190
58511W        W26929  25.586  41.317   1.377
58512W        W26930  26.497   6.419   0.943
58513W        W26931  29.071  43.776   0.867
58514W        W26932  17.649  34.594   0.253
58515W        W26933  34.076  21.230  12.982
58516W        W26934   1.914  36.993   4.616
58517W        W26935   5.920  13.620   4.152
58518W        W26936  33.922  10.298  12.956
58519W        W26937  13.117  15.686   0.347
58520W        W26938  20.271  40.924  11.019
58521W        W26939  42.868   2.300   3.701
58522W        W26940  18.250  24.981  10.417
58523W        W26941  13.617  20.680  12.973
58524W        W26942   0.448  21.629  12.009
58525W        W26943   7.256  19.132  12.485
58526W        W26944  31.014  34.466  11.927
58527W        W26945  17.287  35.508  14.344
58528W        W26946  11.225  24.511   3.865
58529W        W26947  44.330  28.157  14.459
58530W        W26948  34.955  38.045  12.391
58531W        W26949  17.126  39.324   2.409
58532W        W26950  15.653   0.882  13.044
58533W        W26951  19.123  43.921  11.524
58534W        W26952  29.104  34.391  13.806
58535W        W26953   8.390   5.389  11.388
58536W        W26954   5.384   5.413   0.925
58537W        W26955  30.501  32.544  12.095
58538W        W26956  18.273   5.416   0.960
58539W        W26957  33.612   3.319   0.322
58540W        W26958  14.800  43.829   4.220
58541W        W26959  35.082  41.020   0.908
58542W        W26960  15.822  32.467   0.365
58543W        W26961   1.458   0.955   0.864
58544W        W26962  29.429   6.424  10.615
58545W        W26963  20.664  29.128  11.467
58546W        W26964  31.527  30.924   2.704
58547W        W26965  19.654   5.832  14.863
58548W        W26966  13.135  25.989   3.291
58549W        W26967   3.929  25.472   3.296
58550W        W26968  38.563  14.786  10.949
58551W        W26969  41.375  14.610  13.514
58552W        W26970  31.958  16.138  10.412
58553W        W26971   9.214  44.387   2.326
58554W        W26972  37.842   4.255   0.906
58555W        W26973   2.744  18.128   2.197
58556W        W26974   4.723  26.125   4.799
58557W        W26975  21.243  44.451  11.526
58558W        W26976  28.170  44.945  11.905
58559W        W26977   1.359  40.400  12.021
58560W        W26978  43.916  37.566   2.813
58561W        W26979  25.142  21.674  13.060
58562W        W26980  26.039   4.396   2.355
58563W        W26981   4.726  25.014  11.019
58564W        W26982  43.386  10.694  10.468
58565W        W26983  26.185  44.395   0.853
58566W        W26984  41.859  37.854  11.088
58567W        W26985  21.536  24.206   1.811
58568W        W26986   6.860  18.706  11.969
58569W        W26987  22.673   9.333   2.664
58570W        W26988  28.535   2.337  11.391
58571W        W26989  18.138  28.122   2.407
58572W        W26990  28.139  32.020   3.699
58573W        W26991  44.840  25.685   4.695
58574W        W26992  21.601  41.379  12.033
58575W        W26993  33.502   2.404   4.712
58576W        W26994  39.510  43.437  14.497
58577W        W26995  32.468   5.921   4.743
58578W        W26996  32.909  24.988   4.313
58579W        W26997  33.596  38.341  11.947
58580W        W26998  12.324  20.152  14.346
58581W        W26999  37.346  22.546   4.201
58582W        W27000  13.181  11.777  13.879
58583W        W27001   9.771  34.415  13.435
58584W        W27002  13.137  16.164   1.361
58585W        W27003  32.891  34.611   1.279
58586W        W27004   8.768  27.093   2.393
58587W        W27005  25.004   6.198  12.902
58588W        W27006  32.567  14.180  14.837
58589W        W27007   1.798  19.173  12.513
58590W        W27008  10.805   7.878   1.326
58591W        W27009  14.832   8.402  14.776
58592W        W27010   4.926  24.584  10.027
58593W        W27011   2.394   7.318  13.879
58594W        W27012  36.938  32.887  12.998
58595W        W27013  38.346  34.022   1.933
58596W        W27014  28.453  14.123   2.797
58597W        W27015  18.221  24.619  11.006
58598W        W27016  35.994  17.252   1.390
58599W        W27017   1.853  34.396   0.292
58600W        W27018  27.600  29.598  14.312
58601W        W27019  13.286  29.103   2.328
58602W        W27020  11.208  18.213   2.734
58603W        W27021  12.351  25.484  14.766
58604W        W27022  44.943  41.901  13.996
58605W        W27023   5.902  43.944   1.706
58606W        W27024  32.456  28.008  10.904
58607W        W27025  32.492  24.082  13.061
58608W        W27026  22.530  38.888  14.295
58609W        W27027  21.208  38.826  13.367
58610W        W27028  13.827  15.600  14.885
58611W        W27029  13.727   5.868  14.465
58612W        W27030  13.788  36.538   3.716
58613W        W27031  44.943  17.253  11.974
58614W        W27032  19.213   0.896  12.058
58615W        W27033  16.296  41.349   1.266
58616W        W27034  25.977   6.365  12.952
58617W        W27035  17.149  17.601   0.741
58618W        W27036  22.592   0.306  10.037
58619W        W27037  27.952  32.508   9.940
58620W        W27038   3.947  20.081   3.315
58621W        W27039  43.403  16.704   4.207
58622W        W27040  22.008   4.446   0.457
58623W        W27041  41.899  44.320   2.790
58624W        W27042   1.357  10.776   3.277
58625W        W27043  25.158  19.736  10.583
58626W        W27044  27.166  23.176   2.750
58627W        W27045  44.814  32.892   1.776
58628W        W27046  40.485  11.799  12.995
58629W        W27047  44.854  28.972   1.762
58630W        W27048  25.067   8.676  13.482
58631W        W27049   7.285  31.996  11.935
58632W        W27050  32.552  15.733   1.346
58633W        W27051  42.504  38.510  11.914
58634W        W27052  31.992   8.204   3.863
58635W        W27053   7.674   6.228  11.595
58636W        W27054  24.100  32.044  11.073
58637W        W27055   0.337   4.818   3.205
58638W        W27056  17.168  27.554   0.961
58639W        W27057  33.874   7.750  14.350
58640W        W27058  11.793  15.173   1.934
58641W        W27059  22.696  36.089   0.867
58642W        W27060   2.324  23.536  11.103
58643W        W27061  15.328  38.421   1.430
58644W        W27062  11.288   1.811   4.782
58645W        W27063  24.654  20.100   1.363
58646W        W27064   8.659  29.541  14.870
58647W        W27065  25.170   9.681   3.702
58648W        W27066  13.653   7.884   0.372
58649W        W27067  40.914  30.124  12.091
58650W        W27068   8.787  34.424  13.802
58651W        W27069  31.471   1.267  12.547
58652W        W27070   5.271  40.499  12.853
58653W        W27071  27.974  42.778   0.939
58654W        W27072  19.282   5.378   1.438
58655W        W27073   9.651   0.893  13.951
58656W        W27074   2.913  41.406  10.592
58657W        W27075  40.010   1.948  10.928
58658W        W27076   9.649  13.746   4.602
58659W        W27077  36.853  41.337   3.194
58660W        W27078  17.761  29.575   4.675
58661W        W27079  22.666  14.186  14.873
58662W        W27080  26.083  25.967  13.417
58663W        W27081   8.868  28.541  14.485
58664W        W27082  27.013  11.248  14.022
58665W        W27083   1.283  12.288   4.239
58666W        W27084  30.572  30.581   1.721
58667W        W27085  27.576  40.445  12.962
58668W        W27086  38.398  11.737   4.835
58669W        W27087  22.033  10.307   3.321
58670W        W27088  37.460   4.208  14.844
58671W        W27089   5.718  30.946   2.312
58672W        W27090  30.095  16.311   0.252
58673W        W27091   5.344  16.147  10.585
58674W        W27092  38.071   5.414   4.688
58675W        W27093  20.039  15.657   1.366
58676W        W27094   8.297   2.270   0.896
58677W        W27095   9.151   5.694   0.790
58678W        W27096  10.285  39.400  11.539
58679W        W27097  34.101  13.126  13.975
58680W        W27098  25.626  20.642   3.740
58681W        W27099  29.074  24.572  11.991
58682W        W27100   1.398  27.499   1.800
58683W        W27101  11.296  40.466   2.726
58684W        W27102  23.066  14.602   4.312
58685W        W27103  32.916  23.167  12.551
58686W        W27104   4.915  22.517  14.873
58687W        W27105  42.394   4.927  11.893
58688W        W27106  44.003   5.843   3.778
58689W        W27107  12.303   1.366   0.257
58690W        W27108  11.826  26.554   4.341
58691W        W27109  37.869  36.849   1.424
58692W        W27110   8.740  27.158   0.807
58693W        W27111  30.597  18.652   3.668
58694W        W27112  22.589   4.429   0.868
58695W        W27113   1.968  13.236  14.985
58696W        W27114  14.204  11.269   2.773
58697W        W27115  11.245  24.482  12.384
58698W        W27116   7.760  10.703   3.331
58699W        W27117   6.904  18.082  10.433
58700W        W27118  41.889  19.248   2.832
58701W        W27119   0.902  29.553   2.690
58702W        W27120  11.241  39.987   0.763
58703W        W27121  13.684   8.769   1.726
58704W        W27122  13.312  38.365   2.718
58705W        W27123  42.805  19.658   5.216
58706W        W27124  25.592  40.317  14.030
58707W        W27125  20.125   6.815  14.515
58708W        W27126  41.846  29.091  10.988
58709W        W27127  24.165  37.545  13.016
58710W        W27128  29.519  12.720   2.802
58711W        W27129  28.079  30.573   3.641
58712W        W27130   5.884  29.521   3.358
58713W        W27131  37.422  23.494  13.011
58714W        W27132  29.948   0.444   3.757
58715W        W27133  14.775  11.841   2.286
58716W        W27134   6.853  37.046  13.874
58717W        W27135  30.488  36.495   2.780
58718W        W27136  15.166  15.293   2.219
58719W        W27137   5.267   9.223   1.276
58720W        W27138  21.180   1.964   4.328
58721W        W27139  11.317  36.960  12.575
58722W        W27140  19.172  24.048   3.719
58723W        W27141  11.637   1.876   1.405
58724W        W27142  23.188   0.767   3.780
58725W        W27143  22.141  28.517  12.907
58726W        W27144  26.979  18.086   3.382
58727W        W27145  41.535  40.049  11.440
58728W        W27146   4.400   9.355  14.013
58729W        W27147  44.837  23.545  12.993
58730W        W27148  19.162   2.437   2.314
58731W        W27149   2.438   9.684  11.384
58732W        W27150   7.373  18.711   3.656
58733W        W27151  16.148   6.883  12.458
58734W        W27152   2.399  44.832   4.674
58735W        W27153  41.858   7.909   4.639
58736W        W27154  28.556   2.796  14.378
58737W        W27155  22.225   8.402   2.672
58738W        W27156  28.463  32.011  13.394
58739W        W27157   7.336  25.670  12.088
58740W        W27158  20.256  41.815   1.342
58741W        W27159  21.177  36.854   1.899
58742W        W27160  33.110  33.532   4.249
58743W        W27161  34.572   6.287   2.708
58744W        W27162   5.282  44.430  11.896
58745W        W27163  41.876  23.137   2.214
58746W        W27164  13.286   3.254  11.979
58747W        W27165  24.480  24.581   2.186
58748W        W27166  10.217  12.194  12.991
58749W        W27167  18.619  39.932  12.052
58750W        W27168  28.523  33.924   1.433
58751W        W27169  43.783  23.094   3.187
58752W        W27170  38.375  40.827   0.326
58753W        W27171   4.267  29.950   4.804
58754W        W27172  41.351  16.740  13.358
58755W        W27173  16.147  36.389   2.763
58756W        W27174  25.052  37.877  11.972
58757W        W27175  31.084   3.446  10.076
58758W        W27176  12.753   0.300  12.941
58759W        W27177  30.929  26.016   2.250
58760W        W27178  18.214  11.332  12.410
58761W        W27179  20.567  31.544  12.492
58762W        W27180  39.552   4.315   4.177
58763W        W27181  44.952  32.625  10.597
58764W        W27182  12.678   4.920  13.451
58765W        W27183  10.709   4.827   0.373
58766W        W27184  29.013   0.377   2.368
58767W        W27185  17.789  26.543   0.346
58768W        W27186  27.177  18.122   2.405
58769W        W27187   4.444   2.882  10.982
58770W        W27188   7.837  41.808   1.781
58771W        W27189  13.729  26.062   2.342
58772W        W27190  42.511  35.965  13.398
58773W        W27191  20.259  11.279  11.072
58774W        W27192   1.792   1.461  13.513
58775W        W27193  29.633  34.562  12.388
58776W        W27194  35.898   4.286   0.797
58777W        W27195  34.929  21.696   1.254
58778W        W27196   0.404   3.857  12.392
58779W        W27197  21.588  17.260   2.268
58780W        W27198  42.809  13.703   2.213
58781W        W27199  44.001  16.609  14.402
58782W        W27200  41.456  44.497   2.713
58783W        W27201  35.987  20.043   0.280
58784W        W27202   5.843  13.610   1.320
58785W        W27203  41.523  36.049   2.734
58786W        W27204  22.208  30.425  13.377
58787W        W27205  44.890  31.597   0.871
58788W        W27206   0.945  25.206   0.445
58789W        W27207  16.778  26.198   0.372
58790W        W27208  12.295  44.893   4.114
58791W        W27209   7.327   4.827   2.186
58792W        W27210   2.756  20.658   1.411
58793W        W27211  18.061  28.467  10.430
58794W        W27212  10.228   4.318  14.881
58795W        W27213   5.770  21.160  10.459
58796W        W27214  15.664  39.361  13.453
58797W        W27215   8.798  39.377  14.759
58798W        W27216  26.976  30.423  12.855
58799W        W27217  16.594  41.354  12.424
58800W        W27218   9.838   6.754  10.928
58801W        W27219  20.749  37.414   2.322
58802W        W27220   3.368  36.938   0.463
58803W        W27221  38.874  40.434   3.341
58804W        W27222  16.583  23.084   3.245
58805W        W27223  36.025  20.215   4.288
58806W        W27224   2.764  35.979  11.389
58807W        W27225  25.111   5.427   1.854
58808W        W27226  29.121  17.218   0.911
58809W        W27227  14.738   1.354   2.669
58810W        W27228  44.474  17.649   4.272
58811W        W27229  18.057  42.378  13.020
58812W        W27230  15.719  12.750  10.951
58813W        W27231  11.747  29.581   1.919
58814W        W27232  20.067   5.924  11.465
58815W        W27233  37.435  44.330   3.674
58816W        W27234  32.126  27.485   3.738
58817W        W27235  14.330  18.192  10.577
58818W        W27236   9.731  36.526  14.486
58819W        W27237   6.409  33.522   1.226
58820W        W27238   0.349  11.657  14.784
58821W        W27239  10.861   8.336  14.295
58822W        W27240  31.527  42.394   3.223
58823W        W27241  14.830  36.031  11.480
58824W        W27242  27.582  17.128   3.657
58825W        W27243  23.646   2.442   1.371
58826W        W27244  15.631  32.511  14.464
58827W        W27245   4.368  33.895   3.221
58828W        W27246   0.908  36.915  13.443
58829W        W27247  39.929  10.337  13.949
58830W        W27248  36.039  42.353   1.816
58831W        W27249   1.350  27.689   2.896
58832W        W27250  36.869  39.812   2.217
58833W        W27251   2.789  38.071   0.738
58834W        W27252  22.737  42.899  11.456
58835W        W27253  26.090  29.604  11.119
58836W        W27254  13.616  30.501  11.531
58837W        W27255   6.213   4.793   0.370
58838W        W27256  13.317  17.765  10.966
58839W        W27257  15.298  15.235  12.060
58840W        W27258  20.620  24.604   0.844
58841W        W27259  42.388  43.983   1.767
58842W        W27260  13.195  32.115  12.385
58843W        W27261   7.391  27.005  14.809
58844W        W27262  39.879   7.747   3.225
58845W        W27263  16.245  19.129  11.509
58846W        W27264  33.953  21.602  14.339
58847W        W27265  23.699  35.005  10.923
58848W        W27266  36.951  44.434   1.696
58849W        W27267  19.253  14.609   5.134
58850W        W27268   7.711  28.624   4.305
58851W        W27269  21.235  36.006   3.821
58852W        W27270  40.426  36.544  13.313
58853W        W27271  31.615  17.233  14.338
58854W        W27272  34.505  24.514   3.856
58855W        W27273  10.272  32.978  14.936
58856W        W27274  14.758  11.207   2.832
58857W        W27275  27.060  21.103  13.384
58858W        W27276  38.436  25.675  11.410
58859W        W27277  36.571  11.824  10.144
58860W        W27278  20.740  25.632  13.454
58861W        W27279   9.652  25.066  11.896
58862W        W27280  11.633  18.562  12.998
58863W        W27281  27.188   6.733   5.100
58864W        W27282   0.918   9.261  10.586
58865W        W27283  16.214  41.365   0.317
58866W        W27284  13.790   4.352  14.927
58867W        W27285   5.917  31.446  14.984
58868W        W27286  14.729   3.835  11.108
58869W        W27287  34.077   9.740   1.790
58870W        W27288  39.519  43.802  13.009
58871W        W27289  25.202  35.908  12.093
58872W        W27290  28.052  30.577   0.250
58873W        W27291  12.766  30.133   3.837
58874W        W27292  27.497  18.202  10.481
58875W        W27293   5.217  25.491  11.465
58876W        W27294  21.539  44.479   3.850
58877W        W27295  19.240  10.705  13.534
58878W        W27296  11.140   3.949  13.009
58879W        W27297  23.637  24.208   1.787
58880W        W27298  28.155   6.270  14.350
58881W        W27299  18.589  24.541   0.326
58882W        W27300  18.629  41.936   4.169
58883W        W27301   0.949  24.206  11.515
58884W        W27302   4.817   9.263   4.637
58885W        W27303  42.407  13.610  12.942
58886W        W27304   9.281  40.326  12.562
58887W        W27305   5.365  35.463   1.371
58888W        W27306  30.553  22.248  11.491
58889W        W27307  11.680  39.963   4.285
58890W        W27308  24.650  42.455   1.255
58891W        W27309   6.831  43.379  13.978
58892W        W27310   9.300  41.901   4.351
58893W        W27311  32.399  22.014   1.376
58894W        W27312  37.900  19.116   3.290
58895W        W27313   9.341  33.009   1.321
58896W        W27314  37.010  35.551   1.818
58897W        W27315   2.428  28.079   4.756
58898W        W27316  13.130  31.039   3.752
58899W        W27317   9.328   8.317  12.054
58900W        W27318  18.549   3.457  10.048
58901W        W27319  11.347   7.239   1.372
58902W        W27320   2.295  26.698   5.155
58903W        W27321  21.021  42.414   1.309
58904W        W27322  28.105  20.109   2.261
58905W        W27323  12.652  37.961   2.821
58906W        W27324  20.084  21.148   3.666
58907W        W27325  10.321  11.645  13.446
58908W        W27326  11.330  33.600  11.491
58909W        W27327  42.459   5.722   2.416
58910W        W27328  20.748  10.189   1.210
58911W        W27329  28.473  41.294   2.732
58912W        W27330  12.282  43.471   4.327
58913W        W27331   8.785  39.042   0.786
58914W        W27332  17.704   2.803  10.541
58915W        W27333  13.257  20.141  13.507
58916W        W27334  24.614   5.735  12.339
58917W        W27335  35.068  16.786  14.482
58918W        W27336  25.177   3.926  10.633
58919W        W27337   2.866  29.955  12.921
58920W        W27338  22.609  25.591   3.705
58921W        W27339  26.951  12.762   2.726
58922W        W27340  25.488  13.794  11.393
58923W        W27341  17.170  19.121   0.898
58924W        W27342   0.441  37.863   4.739
58925W        W27343   8.669  34.393   0.463
58926W        W27344  30.616  20.125  11.048
58927W        W27345  40.307  28.508  12.913
58928W        W27346  19.641  40.482   0.795
58929W        W27347  13.818  29.440  12.502
58930W        W27348  28.635  42.800  11.936
58931W        W27349  34.892  33.915  11.858
58932W        W27350  23.569  14.759   2.196
58933W        W27351   3.728  21.564  14.408
58934W        W27352   6.384   1.274  11.604
58935W        W27353  40.547   3.253  13.466
58936W        W27354   9.293  11.848   2.828
58937W        W27355  38.539  40.468  10.611
58938W        W27356  14.809  13.722   1.919
58939W        W27357   1.384  41.948  14.018
58940W        W27358   8.327  17.706  12.897
58941W        W27359  40.890   3.842  14.895
58942W        W27360  31.526  26.521  13.951
58943W        W27361  13.186   8.837  12.030
58944W        W27362   1.375  15.725   4.350
58945W        W27363   2.226   3.943   4.674
58946W        W27364   4.323  17.588  11.558
58947W        W27365  35.946  34.396  12.462
58948W        W27366  14.827   5.286   3.657
58949W        W27367   4.352   2.372   1.900
58950W        W27368  10.726  21.595   3.227
58951W        W27369  32.076  36.950   3.659
58952W        W27370  36.371  44.880  12.006
58953W        W27371  33.475  38.563   4.242
58954W        W27372  44.980  23.992   0.785
58955W        W27373   3.324   0.251   4.606
58956W        W27374  44.281   6.327  11.865
58957W        W27375  16.658   0.897  12.458
58958W        W27376  15.637   0.965   5.321
58959W        W27377  44.361   2.780   0.954
58960W        W27378  37.039   8.857  10.888
58961W        W27379   0.975  25.161   9.930
58962W        W27380  19.202  16.736   0.742
58963W        W27381   9.794  33.968  13.993
58964W        W27382  33.615  12.205  13.512
58965W        W27383  35.872  22.632  12.933
58966W        W27384  17.232  21.100   2.195
58967W        W27385  39.920  19.780  12.066
58968W        W27386  18.672   7.264   1.448
58969W        W27387  37.412  17.289   4.149
58970W        W27388  17.250  32.112   2.670
58971W        W27389   3.897  10.378   3.841
58972W        W27390   0.376  38.931  14.900
58973W        W27391  35.959   8.351   3.749
58974W        W27392  26.541   3.841  14.507
58975W        W27393   0.283  13.736   4.710
58976W        W27394  34.119  10.292  13.983
58977W        W27395   7.283   5.720  12.358
58978W        W27396   8.404  15.648   0.441
58979W        W27397  12.829  44.999  14.441
58980W        W27398  28.593  42.483  13.310
58981W        W27399   8.694  11.788  14.845
58982W        W27400   1.396  40.934   1.710
58983W        W27401  32.614  16.150  14.836
58984W        W27402   8.788  20.266  13.351
58985W        W27403  41.873   4.213  13.518
58986W        W27404   5.920   1.307   2.414
58987W        W27405  39.984  36.037  14.337
58988W        W27406  14.191  27.463  12.845
58989W        W27407  13.799  37.907  12.562
58990W        W27408  19.159   9.206   4.198
58991W        W27409   7.752  39.421   3.346
58992W        W27410  12.231  44.353   4.119
58993W        W27411   2.898  12.832  12.060
58994W        W27412  26.703  27.615   1.403
58995W        W27413  30.423  33.891   2.242
58996W        W27414  19.559   8.748   0.869
58997W        W27415  10.345   1.481   4.173
58998W        W27416  29.933  36.385  11.050
58999W        W27417  15.135  32.096   4.169
59000W        W27418  34.475   4.745  13.825
59001W        W27419  42.432  39.340  13.340
59002W        W27420  31.434   3.442  11.609
59003W        W27421   9.753  36.066   3.250
59004W        W27422   1.371   0.466  10.940
59005W        W27423  44.418  43.357   4.121
59006W        W27424  10.167  30.564  13.003
59007W        W27425  34.884  24.527  10.510
59008W        W27426  30.947  16.313   1.385
59009W        W27427  32.992  27.684  11.917
59010W        W27428   3.787  27.501   1.338
59011W        W27429  35.062  33.889   3.791
59012W        W27430  24.007   7.300  14.300
59013W        W27431  36.063  24.091  11.093
59014W        W27432   5.868  24.975   3.737
59015W        W27433   1.768  36.593   2.370
59016W        W27434   6.425  37.943  10.965
59017W        W27435  35.960  26.070   1.932
59018W        W27436   3.305  16.721   4.681
59019W        W27437  28.561  20.667   1.836
59020W        W27438  13.618  43.377   2.300
59021W        W27439  34.458  27.526  14.877
59022W        W27440  21.242  26.996   1.933
59023W        W27441   0.335   4.709   1.784
59024W        W27442   2.954  37.518  11.612
59025W        W27443  39.450   2.398   4.184
59026W        W27444  22.702  28.482   2.879
59027W        W27445   2.431  37.999   3.265
59028W        W27446  20.099  36.515   4.211
59029W        W27447  38.068  16.100  13.939
59030W        W27448  23.563  19.194  11.453
59031W        W27449  14.285  44.501   4.727
59032W        W27450  33.425  37.425  11.962
59033W        W27451  32.003  16.741  12.933
59034W        W27452  26.569   6.307  11.128
59035W        W27453  20.707  31.066   3.736
59036W        W27454  10.780  44.491   2.333
59037W        W27455  12.279  23.165   4.334
59038W        W27456  44.896  12.736  12.885
59039W        W27457  30.141  21.069  10.904
59040W        W27458  21.530  43.935   4.129
59041W        W27459  32.974  44.958  12.965
59042W        W27460   5.299  10.190  11.003
59043W        W27461  34.913  36.580   3.280
59044W        W27462  17.741  36.014   0.474
59045W        W27463   6.408  10.303   1.839
59046W        W27464  19.273  26.502   3.238
59047W        W27465  28.009   3.459  11.052
59048W        W27466   2.282  31.445   1.216
59049W        W27467  10.147  11.232  12.074
59050W        W27468   7.875  34.958   0.928
59051W        W27469  13.117  27.950   4.139
59052W        W27470   2.756  25.064  11.564
59053W        W27471   1.974   0.881  10.581
59054W        W27472  40.867  26.599  10.453
59055W        W27473  28.526  22.239   3.742
59056W        W27474  17.664  32.050   4.831
59057W        W27475   7.688  43.950  10.542
59058W        W27476  40.472  35.520  11.545
59059W        W27477  21.576   7.846  13.909
59060W        W27478  37.490  15.147   2.253
59061W        W27479  13.601  31.521   4.277
59062W        W27480  33.488  29.030   2.676
59063W        W27481   0.417  35.543  12.581
59064W        W27482  37.356  10.710  13.380
59065W        W27483  43.872  29.099   3.808
59066W        W27484  10.818  43.788  10.527
59067W        W27485  34.078  25.640   4.321
59068W        W27486  11.647  31.002   3.348
59069W        W27487  25.675  31.509  10.470
59070W        W27488  31.939  11.788  13.491
59071W        W27489  43.949   4.393  10.480
59072W        W27490  11.802  28.450   3.257
59073W        W27491   4.899  22.089   3.215
59074W        W27492  21.613  31.546  11.088
59075W        W27493  20.579  20.758  14.954
59076W        W27494  29.643  39.360   3.713
59077W        W27495   0.782  21.744  11.080
59078W        W27496  39.513  14.701  13.387
59079W        W27497  25.621  38.370   1.732
59080W        W27498   7.829   3.340   4.719
59081W        W27499  23.588  36.987   3.365
59082W        W27500  23.224  36.522  11.397
59083W        W27501  34.432  37.934  13.308
59084W        W27502  29.979  31.642  13.958
59085W        W27503  41.904  23.035   0.822
59086W        W27504  25.515  22.145   1.725
59087W        W27505  24.679  13.259   2.195
59088W        W27506  22.246  15.772   1.932
59089W        W27507  25.119  11.710   2.730
59090W        W27508  23.233  25.120   3.712
59091W        W27509  13.204  35.366  12.095
59092W        W27510  32.886   6.821   1.860
59093W        W27511   7.270  44.438   5.265
59094W        W27512  38.533  16.260   0.893
59095W        W27513  34.980  37.393   4.663
59096W        W27514  25.703  21.657  11.886
59097W        W27515  18.265  13.728   3.370
59098W        W27516  39.874  30.439   4.162
59099W        W27517  18.724  22.642   0.483
59100W        W27518  32.495  33.979   4.265
59101W        W27519  20.662  44.797  14.965
59102W        W27520   3.879  10.785  11.500
59103W        W27521  30.123  12.795  12.075
59104W        W27522  14.659  34.407   4.747
59105W        W27523  13.253   9.761  14.319
59106W        W27524  34.615  16.233  14.845
59107W        W27525  18.741  38.963   1.370
59108W        W27526  14.719  11.636   0.766
59109W        W27527  29.548  31.149   3.672
59110W        W27528  41.306  44.482  14.350
59111W        W27529  43.997  30.452   2.281
59112W        W27530  19.134   7.861   4.661
59113W        W27531   7.173   1.430   0.285
59114W        W27532  17.249  34.079   0.456
59115W        W27533   5.739   8.166  14.460
59116W        W27534  20.612  42.851  11.403
59117W        W27535  30.644  33.072   1.356
59118W        W27536  37.843  10.189  11.093
59119W        W27537  40.812  42.885  10.485
59120W        W27538   1.312  36.910  11.979
59121W        W27539  18.720  39.525  14.335
59122W        W27540  38.869  20.660  11.103
59123W        W27541  31.042  17.670  13.832
59124W        W27542  39.036  38.384  11.993
59125W        W27543   4.304  40.935  12.564
59126W        W27544  20.649  36.943  11.999
59127W        W27545  10.710   3.387   3.643
59128W        W27546   2.931  22.146   0.883
59129W        W27547  39.059  32.984  14.309
59130W        W27548  19.628  12.187   3.222
59131W        W27549   9.385  36.553   0.824
59132W        W27550  40.495  18.157  11.094
59133W        W27551  33.405  38.996   2.240
59134W        W27552  13.328  14.252   1.394
59135W        W27553  22.022  38.994   2.385
59136W        W27554  42.917  18.237  10.998
59137W        W27555  13.152  14.272  13.022
59138W        W27556  23.093  31.915   1.368
59139W        W27557   2.960  24.620   1.890
59140W        W27558  44.795   2.381   2.271
59141W        W27559  17.577  17.194  10.931
59142W        W27560  40.383  16.757  12.461
59143W        W27561   7.345  34.003  14.804
59144W        W27562  24.623   8.874   4.800
59145W        W27563  21.665  25.510   5.758
59146W        W27564   3.218  41.879  11.388
59147W        W27565  15.101   4.836   3.845
59148W        W27566  20.525  32.046   3.350
59149W        W27567  12.227  28.026   0.299
59150W        W27568  42.822  11.733  14.877
59151W        W27569   8.711   7.184   2.850
59152W        W27570  37.078  15.273   1.917
59153W        W27571  20.743  12.773  10.450
59154W        W27572  30.023   4.819   0.340
59155W        W27573  43.780  19.750   0.738
59156W        W27574  42.814   1.962  10.594
59157W        W27575  15.214  20.724  14.397
59158W        W27576  24.510  27.990   1.860
59159W        W27577  14.230  36.848  12.353
59160W        W27578  41.454  27.956   4.165
59161W        W27579  20.543  19.228   4.767
59162W        W27580  10.208  27.083  10.637
59163W        W27581  18.295  26.151   3.674
59164W        W27582  10.872  27.676   0.953
59165W        W27583  22.119  36.047  13.820
59166W        W27584  44.299  41.314   3.323
59167W        W27585  10.225  12.348   2.389
59168W        W27586  33.478   9.205  12.839
59169W        W27587  22.666  28.152   2.857
59170W        W27588  16.184  21.735  10.440
59171W        W27589   3.750  33.538   4.710
59172W        W27590  38.900   2.410   0.962
59173W        W27591  22.526  10.335   3.272
59174W        W27592   3.762   6.890   3.797
59175W        W27593  10.212  15.674   2.277
59176W        W27594   5.800  13.802   3.783
59177W        W27595  44.361   5.816  13.844
59178W        W27596   4.760  29.088  10.420
59179W        W27597   2.739  35.941  14.374
59180W        W27598  35.919  12.767   2.869
59181W        W27599  21.539  17.062   3.751
59182W        W27600   6.865  13.717   1.215
59183W        W27601   5.411  13.135  13.038
59184W        W27602  28.035   5.244   3.372
59185W        W27603  18.681  27.114   0.398
59186W        W27604  10.638  23.594   4.607
59187W        W27605   2.778  35.519   1.331
59188W        W27606  21.639  21.683   1.244
59189W        W27607  42.434  36.887   2.299
59190W        W27608   4.939  22.066   2.193
59191W        W27609   0.907  18.132  11.083
59192W        W27610   4.887  30.450  11.535
59193W        W27611  41.497  15.623  12.378
59194W        W27612  17.189  44.393   0.765
59195W        W27613  15.286   6.214  14.405
59196W        W27614  43.436   2.335   0.868
59197W        W27615  21.625  15.285   4.117
59198W        W27616  30.908  17.166   1.833
59199W        W27617  24.530  22.644   3.781
59200W        W27618   4.899  40.872   2.417
59201W        W27619   4.385  33.379  14.764
59202W        W27620  16.586  14.813  13.059
59203W        W27621  11.858  32.560  11.051
59204W        W27622   7.793  18.615  14.941
59205W        W27623   9.263   7.887   4.259
59206W        W27624  13.714  20.530  14.789
59207W        W27625   2.926  10.864   4.738
59208W        W27626  10.169  27.660   1.216
59209W        W27627  23.630  39.892   4.256
59210W        W27628  29.467  28.105   4.305
59211W        W27629  12.843  27.958  11.900
59212W        W27630  17.158  34.001  11.504
59213W        W27631  15.160  40.814  11.544
59214W        W27632  32.135   2.263   1.334
59215W        W27633   3.886  16.636   3.815
59216W        W27634  12.824  39.368  10.972
59217W        W27635  13.737  26.642  12.492
59218W        W27636  37.030  41.807   3.264
59219W        W27637  33.936  20.137   1.735
59220W        W27638  35.860  30.527  11.007
59221W        W27639  37.531   8.754   2.197
59222W        W27640  40.821   5.417   1.396
59223W        W27641  23.694  34.551   3.386
59224W        W27642  12.351  39.327   2.192
59225W        W27643  43.369  20.667   1.806
59226W        W27644   9.835  29.495  10.538
59227W        W27645  40.538  44.887   4.127
59228W        W27646  33.007  16.675  13.355
59229W        W27647  17.159  37.967   1.237
59230W        W27648  29.109  32.920  13.436
59231W        W27649  23.514   2.287   4.310
59232W        W27650  23.522  18.549   4.664
59233W        W27651  21.194  26.521  14.966
59234W        W27652  40.971  33.619  14.798
59235W        W27653  18.551   5.818   0.836
59236W        W27654  32.107  29.076  11.052
59237W        W27655  37.880  14.635  11.902
59238W        W27656  22.716  44.393  13.986
59239W        W27657  30.030  16.802   3.265
59240W        W27658   5.333  37.979  10.940
59241W        W27659  39.985  32.141   0.473
59242W        W27660  39.454  16.153  11.425
59243W        W27661   1.920  44.418  12.024
59244W        W27662  25.493  14.660  13.816
59245W        W27663   4.842   8.310   4.171
59246W        W27664  18.621  10.753  11.529
59247W        W27665  11.180  30.978  12.470
59248W        W27666  17.283  15.091  13.454
59249W        W27667  32.123  40.799  14.298
59250W        W27668   0.383   2.366   3.849
59251W        W27669  32.534   7.405   9.954
59252W        W27670  27.108   1.468   4.168
59253W        W27671  16.139  14.317  12.500
59254W        W27672  15.638   0.473   4.285
59255W        W27673  40.437  31.032  14.373
59256W        W27674   5.884  24.610  10.529
59257W        W27675  27.603   3.253   4.818
59258W        W27676  27.527  29.539  10.932
59259W        W27677  23.542   1.249  11.871
59260W        W27678  30.010   6.324  10.993
59261W        W27679  29.459   8.291   3.800
59262W        W27680  31.916  35.065   4.139
59263W        W27681   3.392  18.235   3.775
59264W        W27682  24.029  38.933   3.204
59265W        W27683   6.763  11.788   3.275
59266W        W27684  16.208  11.372  11.068
59267W        W27685   9.221  16.241   4.173
59268W        W27686   0.757  30.961  12.996
59269W        W27687  31.619  28.951   2.210
59270W        W27688  40.423  23.071  12.341
59271W        W27689  38.875  16.306  13.376
59272W        W27690  44.893   3.870   4.837
59273W        W27691   5.757   3.234  10.989
59274W        W27692   1.801  21.689  10.154
59275W        W27693   5.781  33.492   1.793
59276W        W27694  21.215  31.492  13.918
59277W        W27695  30.598   8.361   0.328
59278W        W27696  28.029  17.206   3.181
59279W        W27697  10.173   7.730   0.316
59280W        W27698   3.950  17.737   0.733
59281W        W27699  16.151   0.310  10.932
59282W        W27700  11.225  44.376  13.823
59283W        W27701  19.631  23.204  11.890
59284W        W27702   0.853   6.234   0.465
59285W        W27703  44.830  30.484  14.882
59286W        W27704  41.465  35.054  12.062
59287W        W27705  44.329  28.552   1.904
59288W        W27706  39.985  37.046   1.740
59289W        W27707  14.603   4.708   0.481
59290W        W27708  26.612  33.401  10.514
59291W        W27709  10.672  26.563   1.830
59292W        W27710  39.514  22.544   4.783
59293W        W27711   0.299  43.492   1.848
59294W        W27712  19.127  20.123   2.266
59295W        W27713  29.943   1.479  12.487
59296W        W27714  22.706  22.046  14.454
59297W        W27715  10.291  36.855   4.314
59298W        W27716  43.849  30.035   4.700
59299W        W27717  34.421   1.306   2.833
59300W        W27718  21.658   8.317  10.556
59301W        W27719  42.921  39.362   5.266
59302W        W27720  22.996  20.545   0.244
59303W        W27721   0.939  26.703  10.596
59304W        W27722  42.448  40.436   2.304
59305W        W27723  10.353  36.909  12.091
59306W        W27724   6.800  36.442   3.278
59307W        W27725  19.152  33.023  11.042
59308W        W27726   2.400  44.353   4.143
59309W        W27727   4.896   1.321  11.085
59310W        W27728  33.392  11.672   1.788
59311W        W27729   0.277  25.006  10.891
59312W        W27730  32.494   5.390  12.402
59313W        W27731  31.014  28.995  11.103
59314W        W27732   6.256  41.511   4.325
59315W        W27733   7.840  43.480   0.835
59316W        W27734  29.134  39.316   2.321
59317W        W27735  42.378  41.987   5.238
59318W        W27736  25.499   6.223   3.629
59319W        W27737   9.881  19.641   0.476
59320W        W27738  22.669  37.916   3.667
59321W        W27739   0.433   0.306  12.528
59322W        W27740   8.707   7.354  11.587
59323W        W27741  43.432  40.515  14.985
59324W        W27742   3.813  17.131   1.385
59325W        W27743  16.251   0.316  14.943
59326W        W27744  26.015  41.529   4.283
59327W        W27745  21.263   2.350   3.180
59328W        W27746  40.375  43.948   1.441
59329W        W27747  21.171  10.217  13.528
59330W        W27748  38.559  28.990   4.601
59331W        W27749  31.445  21.709   4.195
59332W        W27750  11.299  27.077  11.054
59333W        W27751  39.021  20.557  12.960
59334W        W27752  41.862  44.773   1.291
59335W        W27753  14.722   5.265   4.663
59336W        W27754  10.221  42.785  10.130
59337W        W27755  10.340  44.479   1.707
59338W        W27756  20.628  18.150   4.789
59339W        W27757  11.264   4.903   3.630
59340W        W27758   0.313  29.613   0.331
59341W        W27759  19.543  31.414  12.355
59342W        W27760  16.696  23.056  11.919
59343W        W27761  24.132  36.979  14.464
59344W        W27762  40.042  25.672  13.910
59345W        W27763  12.279  26.035   2.397
59346W        W27764  20.563  29.015  12.520
59347W        W27765   0.490  25.637  13.965
59348W        W27766  41.951  40.482  12.360
59349W        W27767  34.058  37.059   3.272
59350W        W27768  12.202  12.806   2.261
59351W        W27769  12.339  15.645   2.668
59352W        W27770   9.208  17.241  10.082
59353W        W27771   1.440  22.560  11.491
59354W        W27772  17.783  25.039  14.460
59355W        W27773  36.091  31.998   2.800
59356W        W27774  42.526   3.715  10.421
59357W        W27775  43.465  29.131   4.314
59358W        W27776  42.025  41.506   0.838
59359W        W27777  31.925  11.181   1.290
59360W        W27778  42.831  27.132  14.503
59361W        W27779   8.180   7.195   0.385
59362W        W27780   5.754  11.204  13.474
59363W        W27781  11.678   7.224   2.392
59364W        W27782   0.904  33.381  13.823
59365W        W27783  29.453  34.929   4.644
59366W        W27784   6.915  11.130  12.484
59367W        W27785  20.627  28.586  14.939
59368W        W27786  20.072   9.676   0.763
59369W        W27787  26.016  11.163  14.361
59370W        W27788  24.643   2.747  12.454
59371W        W27789  37.931  43.431  12.950
59372W        W27790  34.378  42.470   2.867
59373W        W27791  34.065  27.187  10.571
59374W        W27792  18.128   0.461   0.275
59375W        W27793   4.443  14.746   1.302
59376W        W27794   5.728  25.702  14.844
59377W        W27795  11.666   2.408  11.555
59378W        W27796   4.807  27.164  12.835
59379W        W27797  27.501  30.950   4.808
59380W        W27798   5.340  42.453   0.908
59381W        W27799  13.293  41.314  12.943
59382W        W27800   0.829  11.802  11.089
59383W        W27801  20.583  35.409   1.282
59384W        W27802  34.058   1.829   2.295
59385W        W27803   5.893   4.430   2.269
59386W        W27804   3.861   3.821   0.757
59387W        W27805  13.190  22.194  14.813
59388W        W27806  26.602   0.265   3.279
59389W        W27807  39.316  10.833  14.008
59390W        W27808   4.928  32.494  13.902
59391W        W27809  39.831  38.344   0.755
59392W        W27810  30.446  36.494  13.524
59393W        W27811  31.098   4.383  13.981
59394W        W27812   9.172  39.434   2.781
59395W        W27813  34.077  31.007  11.463
59396W        W27814  40.992   3.229  13.988
59397W        W27815  26.016  36.906   4.624
59398W        W27816  12.222  24.035  11.571
59399W        W27817  10.292  30.620  14.328
59400W        W27818  11.362   2.776   2.419
59401W        W27819  28.594   0.898   3.756
59402W        W27820  42.517   0.932  11.991
59403W        W27821   1.759  39.459   0.289
59404W        W27822   4.236  11.235  14.893
59405W        W27823   1.871  30.153  10.589
59406W        W27824  27.040  44.493   0.439
59407W        W27825   7.766   9.199  13.855
59408W        W27826  42.852   6.768  11.083
59409W        W27827  29.944  25.493   4.650
59410W        W27828   4.344  26.467  14.795
59411W        W27829   3.329  34.956   3.189
59412W        W27830  10.227  14.157   1.370
59413W        W27831   5.238  33.384   4.705
59414W        W27832  22.554  23.695   1.736
59415W        W27833   9.752  36.441   1.296
59416W        W27834  24.697   4.270  11.500
59417W        W27835  42.281  17.127  11.419
59418W        W27836  30.638  41.518  13.004
59419W        W27837  39.919  29.492   4.255
59420W        W27838  22.203  25.561   4.203
59421W        W27839  19.137  34.589  11.932
59422W        W27840  20.704  12.773   2.187
59423W        W27841  10.826  38.067   0.246
59424W        W27842  27.529  29.477   0.959
59425W        W27843  15.719  10.645   3.154
59426W        W27844  28.678  35.097  14.902
59427W        W27845  27.994   6.913   2.821
59428W        W27846  13.223  13.189   4.290
59429W        W27847   6.319  31.100   4.660
59430W        W27848   3.850   8.733   4.773
59431W        W27849  17.793  29.564  14.296
59432W        W27850  24.611  14.664   1.787
59433W        W27851  12.210  26.619   1.806
59434W        W27852  43.362  30.603  14.798
59435W        W27853  36.521  22.674  12.909
59436W        W27854  27.039  16.177  14.779
59437W        W27855  30.551  12.318   0.880
59438W        W27856  30.950  12.697   0.774
59439W        W27857  35.555   0.898   1.290
59440W        W27858  11.227   7.801  13.491
59441W        W27859  34.472   1.440   4.207
59442W        W27860  41.841   6.244  14.019
59443W        W27861  19.576  18.169  12.515
59444W        W27862  33.061  21.589  13.353
59445W        W27863  28.624  21.131  13.888
59446W        W27864  33.473   8.870  10.493
59447W        W27865  18.596  10.805   1.366
59448W        W27866   5.307   2.915  10.620
59449W        W27867  10.376   0.390  11.426
59450W        W27868   5.259   8.875   1.289
59451W        W27869  26.201  39.900   0.869
59452W        W27870  10.373  11.360  13.807
59453W        W27871  32.982  42.926  13.896
59454W        W27872  27.692   4.290  13.366
59455W        W27873   7.402  11.790   3.825
59456W        W27874  10.294  34.550   3.689
59457W        W27875  39.372  31.065   2.671
59458W        W27876  40.432  14.757   4.757
59459W        W27877  42.836  35.494  14.900
59460W        W27878  25.076  37.078   0.738
59461W        W27879  36.862   5.204  10.542
59462W        W27880  27.197  30.962   4.342
59463W        W27881   7.897   2.743  10.458
59464W        W27882  23.578   8.230  14.387
59465W        W27883  14.731  27.111   1.294
59466W        W27884   5.281  41.798   2.823
59467W        W27885  19.665   7.260  14.486
59468W        W27886  27.509  40.892   0.733
59469W        W27887   7.803  30.916   0.830
59470W        W27888   3.915  21.172  14.987
59471W        W27889  15.169  17.634  12.490
59472W        W27890  18.198   9.762  12.006
59473W        W27891  15.221  29.137  11.469
59474W        W27892  22.170   9.161   0.962
59475W        W27893  36.551  27.080   0.368
59476W        W27894  13.199  20.554   0.302
59477W        W27895   9.180  22.575   4.765
59478W        W27896   5.875  17.070  10.560
59479W        W27897  38.501  39.837  14.776
59480W        W27898  30.443   1.769  11.377
59481W        W27899  26.146  26.112   4.698
59482W        W27900  10.188  41.851  12.826
59483W        W27901  11.820  22.120  11.425
59484W        W27902  13.659  38.987  12.998
59485W        W27903   3.718  31.551  12.964
59486W        W27904   6.830  33.979  11.883
59487W        W27905  33.430  14.596  11.497
59488W        W27906  42.886  23.046  10.596
59489W        W27907  12.323  14.102   3.659
59490W        W27908  34.890  43.417  10.973
59491W        W27909  13.732  37.552  14.332
59492W        W27910  22.147  17.672  11.571
59493W        W27911  20.085  26.117   9.479
59494W        W27912  11.200  16.567   4.324
59495W        W27913  34.412  39.335   2.710
59496W        W27914  22.177  32.470   2.279
59497W        W27915   5.851  29.624  12.366
59498W        W27916  17.579   0.387   1.431
59499W        W27917   9.857  39.478   3.685
59500W        W27918  12.786  23.564   1.897
59501W        W27919  20.590  10.293   0.437
59502W        W27920  37.835   3.916   2.670
59503W        W27921  44.465  43.484  13.374
59504W        W27922   1.467  16.247   4.168
59505W        W27923  25.470  32.621   1.230
59506W        W27924  11.828  43.838   2.328
59507W        W27925  19.264   0.487  14.403
59508W        W27926  31.420  25.987  14.428
59509W        W27927  37.376  29.612   1.382
59510W        W27928  19.217  36.432  13.490
59511W        W27929  14.338  24.568  11.078
59512W        W27930  14.140  31.460  13.541
59513W        W27931  41.018  11.803  10.436
59514W        W27932   9.849  26.155   2.330
59515W        W27933  11.193  33.607  14.886
59516W        W27934  26.557  13.187   3.335
59517W        W27935  20.603  22.013  11.040
59518W        W27936  21.698  22.154  12.854
59519W        W27937  32.479  14.151  12.542
59520W        W27938   2.359  41.311   2.369
59521W        W27939   0.881  36.444   0.464
59522W        W27940  20.192  12.842   3.150
59523W        W27941  19.741  20.643   4.676
59524W        W27942   2.925  14.705  14.879
59525W        W27943  39.427  17.201  11.382
59526W        W27944  41.343  43.883  13.362
59527W        W27945   6.892   0.321  12.420
59528W        W27946  29.431  44.440   1.743
59529W        W27947  28.028   6.276   9.485
59530W        W27948  36.354  13.765  14.463
59531W        W27949   5.214  17.284   4.646
59532W        W27950  36.918  22.618  10.969
59533W        W27951  10.864   5.897  10.430
59534W        W27952   1.849  42.919   1.812
59535W        W27953  24.663   4.789   0.377
59536W        W27954   9.864  26.205   4.661
59537W        W27955  18.153  41.892   0.726
59538W        W27956  28.952  24.723  14.994
59539W        W27957  20.728  22.225  13.992
59540W        W27958   7.765   2.889  12.033
59541W        W27959  33.522  18.549   4.816
59542W        W27960  44.375  33.446  14.914
59543W        W27961  21.690  41.429   4.179
59544W        W27962  24.053  31.501   0.950
59545W        W27963  23.667  37.347   2.281
59546W        W27964   1.474  34.369   4.343
59547W        W27965  35.366   8.226   2.394
59548W        W27966  22.139  28.977  13.536
59549W        W27967   2.440  36.969  13.413
59550W        W27968  33.118  42.474   4.203
59551W        W27969  35.583  38.503  14.425
59552W        W27970   9.356  29.618  10.600
59553W        W27971  35.996  22.099   4.310
59554W        W27972  23.541  16.712   2.739
59555W        W27973  27.150   4.917   1.439
59556W        W27974   0.841  22.695   5.262
59557W        W27975   9.870  42.837  10.582
59558W        W27976  10.360  32.036   3.711
59559W        W27977  11.639  13.176   1.884
59560W        W27978   0.291  29.551  11.912
59561W        W27979  44.452  38.523   4.834
59562W        W27980  16.573  11.814   3.200
59563W        W27981  16.586  41.532  14.975
59564W        W27982  22.017  44.381  10.067
59565W        W27983  41.830  23.588  12.532
59566W        W27984  20.617  18.092   2.188
59567W        W27985   8.275  19.584   1.903
59568W        W27986  31.529   3.222   4.212
59569W        W27987  18.198  26.693   2.407
59570W        W27988   1.923  15.259   4.748
59571W        W27989  24.125   9.652   4.713
59572W        W27990  10.222  30.417  12.458
59573W        W27991   1.382  40.978  10.534
59574W        W27992  36.512  14.280  12.824
59575W        W27993  44.268  18.134  13.317
59576W        W27994  28.131  24.138  11.909
59577W        W27995  30.614  16.315   3.790
59578W        W27996  14.196  15.588   4.609
59579W        W27997  42.386  30.005  11.504
59580W        W27998  39.008  34.417  12.881
59581W        W27999   2.794  22.697  12.509
59582W        W28000  39.393  41.490   1.708
59583W        W28001  25.981  38.043   0.868
59584W        W28002  30.085  15.604  11.532
59585W        W28003  43.450  42.936   1.795
59586W        W28004  31.903  15.685  10.035
59587W        W28005  17.226  40.414   1.866
59588W        W28006  14.337  10.245   2.764
59589W        W28007  10.789  25.695   0.448
59590W        W28008  41.378  43.969   4.190
59591W        W28009  39.455  30.054  13.032
59592W        W28010  18.126  20.134  11.890
59593W        W28011  31.117  12.355  11.066
59594W        W28012  35.441   6.767   3.368
59595W        W28013  41.319  23.491   4.774
59596W        W28014  26.657   3.329   3.289
59597W        W28015   9.776   3.453  11.510
59598W        W28016  22.059  12.250   2.304
59599W        W28017  33.607  20.083  10.126
59600W        W28018  25.199  10.703  10.948
59601W        W28019  36.487  44.761   4.146
59602W        W28020   0.479  14.243  12.864
59603W        W28021  44.383  24.054  11.431
59604W        W28022  13.620  43.951  12.539
59605W        W28023  10.198   2.393  12.868
59606W        W28024  21.756  39.493   3.320
59607W        W28025  11.862  32.134  14.965
59608W        W28026  22.627  43.513  14.926
59609W        W28027  13.804  27.618   2.258
59610W        W28028  20.693  17.216  12.555
59611W        W28029  40.484   0.494  14.897
59612W        W28030  24.149  38.865  14.914
59613W        W28031  21.087  14.260  14.944
59614W        W28032  30.026  34.082   3.817
59615W        W28033  14.648  18.621   0.393
59616W        W28034  34.479  42.330  13.842
59617W        W28035  43.958  33.437  10.506
59618W        W28036  12.265   9.773  13.952
59619W        W28037  17.753  42.812   1.389
59620W        W28038  27.460  20.641   1.366
59621W        W28039  29.131  32.436   1.758
59622W        W28040  31.436  28.019  14.945
59623W        W28041  26.565   0.406  13.497
59624W        W28042  22.562  35.041   2.786
59625W        W28043  15.193   8.878  12.056
59626W        W28044  25.601  20.732  13.339
59627W        W28045  27.119  38.465  11.496
59628W        W28046   8.868   2.893   0.393
59629W        W28047  27.591   6.809   4.632
59630W        W28048  13.764  31.907   2.224
59631W        W28049  44.500   8.738   4.143
59632W        W28050  24.162  34.429  12.001
59633W        W28051  28.186  28.642  11.109
59634W        W28052  29.955   8.794   2.757
59635W        W28053  34.559   0.746  13.872
59636W        W28054  31.501  15.625  11.880
59637W        W28055  12.268  14.298  11.031
59638W        W28056  10.333  24.514  13.477
59639W        W28057  28.032  26.543  13.988
59640W        W28058  16.203  43.812  11.977
59641W        W28059  19.596   6.852   1.451
59642W        W28060   8.834  42.478  14.813
59643W        W28061   2.408  17.640   3.656
59644W        W28062  39.453   5.833  14.393
59645W        W28063  34.062   1.899   1.229
59646W        W28064  20.597  39.436   2.750
59647W        W28065  40.335   3.762  13.035
59648W        W28066  44.939   8.808  13.852
59649W        W28067  15.742  43.020   4.116
59650W        W28068  31.585  13.803  11.091
59651W        W28069  43.837  13.763   4.348
59652W        W28070  13.737  28.560  13.931
59653W        W28071  44.976  15.325  14.373
59654W        W28072  21.149  43.808   3.651
59655W        W28073  19.675  20.266  14.441
59656W        W28074  37.413   0.777  13.984
59657W        W28075  26.639   2.470   5.140
59658W        W28076  18.774   2.856   4.610
59659W        W28077  28.523  37.876   3.230
59660W        W28078  36.054  20.629  13.855
59661W        W28079  44.755  37.560  12.411
59662W        W28080  41.392  13.605   3.709
59663W        W28081  14.719  17.626  13.332
59664W        W28082  34.537   3.882   1.830
59665W        W28083  42.829   0.271  11.908
59666W        W28084   2.826   5.344   1.870
59667W        W28085  35.388  19.547  11.040
59668W        W28086  24.504   2.242  11.892
59669W        W28087   5.853  34.402   2.331
59670W        W28088   4.764  43.875  11.883
59671W        W28089   0.941  30.985  11.004
59672W        W28090  15.263  43.807  13.525
59673W        W28091  37.882  39.864   1.828
59674W        W28092   6.393  14.127   4.693
59675W        W28093  32.006  44.879  11.093
59676W        W28094  17.102  28.165  10.565
59677W        W28095  14.603  16.269  12.980
59678W        W28096   1.850  23.178   0.893
59679W        W28097  13.197  12.121   4.822
59680W        W28098  22.163  22.535   1.393
59681W        W28099  35.487  13.320  14.476
59682W        W28100  23.641   7.343  13.858
59683W        W28101  38.513  15.735  13.482
59684W        W28102  44.292  11.234  13.477
59685W        W28103  38.869  22.190  14.328
59686W        W28104   9.707  10.224  12.980
59687W        W28105  35.396  15.672  14.309
59688W        W28106   8.289  25.204   2.278
59689W        W28107  22.163  10.806   3.683
59690W        W28108  15.581  37.087   4.744
59691W        W28109  22.044  14.297  10.494
59692W        W28110  33.005   7.407  12.479
59693W        W28111   2.916  20.189   2.802
59694W        W28112   1.789  29.528   3.268
59695W        W28113  33.904  32.891  13.436
59696W        W28114  30.984  12.280  12.908
59697W        W28115  20.124  27.166   1.861
59698W        W28116  35.560  32.990   4.687
59699W        W28117  44.444  10.181  13.315
59700W        W28118  26.534  31.058  10.609
59701W        W28119  12.217  20.596  11.997
59702W        W28120  37.978   5.240  11.010
59703W        W28121  19.752  30.549   1.443
59704W        W28122  23.723  33.559  11.574
59705W        W28123  15.326  23.060  11.593
59706W        W28124   9.245   4.254   0.748
59707W        W28125  13.318  40.901   3.802
59708W        W28126   1.771  33.880   3.147
59709W        W28127   2.228   5.720   2.673
59710W        W28128  26.603  32.509   0.437
59711W        W28129   2.764  36.047  13.520
59712W        W28130  23.081  14.782   1.836
59713W        W28131   9.197  16.586  12.905
59714W        W28132  31.035   4.850  13.881
59715W        W28133   8.844  44.858  14.492
59716W        W28134   8.665   1.363  12.891
59717W        W28135  35.090  17.274   4.165
59718W        W28136  29.513  17.677   2.227
59719W        W28137   1.421  25.025  14.947
59720W        W28138   9.307   1.742   2.901
59721W        W28139   6.182  17.557   0.753
59722W        W28140  29.068  24.556  12.465
59723W        W28141  18.179  15.606   1.836
59724W        W28142  19.252  26.575   2.379
59725W        W28143   3.742  25.177  10.942
59726W        W28144  34.501  40.487  14.282
59727W        W28145  33.386  31.129   3.677
59728W        W28146  17.720  36.048  12.460
59729W        W28147  25.173  16.782   2.721
59730W        W28148  37.385   5.862  12.979
59731W        W28149   3.923  24.065   3.796
59732W        W28150  13.808  15.782  10.604
59733W        W28151  28.482  14.765  12.567
59734W        W28152  44.328  17.164   2.269
59735W        W28153  18.195  22.110  14.506
59736W        W28154   1.827  40.806  12.915
59737W        W28155   5.736  23.657   1.875
59738W        W28156  39.855   7.783   4.778
59739W        W28157  11.302  33.033  11.062
59740W        W28158  33.069  42.951   0.930
59741W        W28159  20.523  21.093  13.853
59742W        W28160   2.863   5.331   2.698
59743W        W28161  10.311  44.779  13.395
59744W        W28162   9.715   0.878  14.326
59745W        W28163  27.560  43.832  14.930
59746W        W28164  43.784  29.632  11.488
59747W        W28165   6.753  39.978  12.058
59748W        W28166   8.713  40.046  13.414
59749W        W28167  40.918  28.081   1.847
59750W        W28168  30.018  41.013  10.484
59751W        W28169  35.419   0.280  14.972
59752W        W28170  43.871  20.065  14.335
59753W        W28171   1.257  29.951   1.867
59754W        W28172  32.502  10.230   1.269
59755W        W28173  15.779  37.027   3.378
59756W        W28174  12.179   8.803   5.235
59757W        W28175   2.746  24.106   2.252
59758W        W28176  24.552   1.278  10.966
59759W        W28177  39.881   7.819  10.929
59760W        W28178  42.410  37.020  13.893
59761W        W28179  32.023   2.725  11.560
59762W        W28180  40.802  36.590   4.676
59763W        W28181   7.705   1.878  13.045
59764W        W28182  26.033  27.567  13.967
59765W        W28183  14.727   0.334  10.408
59766W        W28184  24.661  30.568   4.632
59767W        W28185  31.516   3.448   2.877
59768W        W28186  13.710  43.902   1.345
59769W        W28187  21.519  12.126  13.930
59770W        W28188   1.775  21.158  14.889
59771W        W28189  42.437   2.721   0.908
59772W        W28190  10.878  28.649   1.878
59773W        W28191  17.088  32.943  13.355
59774W        W28192  43.276   0.933   4.206
59775W        W28193  33.535  30.146  13.519
59776W        W28194  12.681  16.654  13.822
59777W        W28195  17.680  40.383   3.249
59778W        W28196   0.452  18.293  11.604
59779W        W28197   1.249  16.290  14.370
59780W        W28198  38.399  13.125  11.019
59781W        W28199  36.442  43.510  12.029
59782W        W28200  15.682  10.201   1.805
59783W        W28201  25.482   0.272  11.869
59784W        W28202   8.236  42.922   1.706
59785W        W28203  34.960   0.980   0.434
59786W        W28204   6.765   0.417  14.906
59787W        W28205  32.985   2.336   3.175
59788W        W28206   7.864  24.706  10.522
59789W        W28207  18.779   7.344   4.812
59790W        W28208   3.782  35.109  10.596
59791W        W28209  25.041   8.320  11.476
59792W        W28210   8.677  18.699   4.286
59793W        W28211  38.502  24.216  14.775
59794W        W28212   0.391  16.572   1.369
59795W        W28213   0.948  43.903   4.837
59796W        W28214  26.091  20.600   3.697
59797W        W28215  22.102  17.257  14.951
59798W        W28216   6.771  36.902   0.805
59799W        W28217   8.824  42.810   2.413
59800W        W28218  19.719  44.463   4.236
59801W        W28219  37.898  28.544  11.861
59802W        W28220  29.634   2.892  12.934
59803W        W28221  34.481  39.818  11.534
59804W        W28222  44.846  32.487  14.870
59805W        W28223   1.287  37.044  13.009
59806W        W28224  17.249  30.947   2.747
59807W        W28225  11.632  44.979   4.708
59808W        W28226   1.835  28.662   2.318
59809W        W28227   1.328   0.945  11.431
59810W        W28228  34.918  35.033  12.474
59811W        W28229  29.105  36.352  11.106
59812W        W28230  36.408  16.123  12.078
59813W        W28231  29.444  44.817   4.296
59814W        W28232  11.746   6.349   1.798
59815W        W28233   1.287  17.772  12.919
59816W        W28234   1.892  30.504  11.068
59817W        W28235   1.901   3.772  14.976
59818W        W28236  14.655   3.938   0.411
59819W        W28237  17.196  14.153  12.943
59820W        W28238   5.737  25.468  12.880
59821W        W28239   3.425  30.980  13.932
59822W        W28240  32.985  42.923   3.195
59823W        W28241  42.510  37.523  13.058
59824W        W28242  27.062  34.584  11.986
59825W        W28243  12.642  10.210   0.311
59826W        W28244  39.493  17.282  13.390
59827W        W28245   5.863  28.654  10.499
59828W        W28246   2.750  35.916   4.260
59829W        W28247   7.395  41.971   4.726
59830W        W28248   0.435  37.510   3.229
59831W        W28249   0.425  40.010   4.824
59832W        W28250  15.309  12.616  11.860
59833W        W28251  33.475   4.254  10.626
59834W        W28252  37.503  17.575  11.601
59835W        W28253  36.870  29.589  13.814
59836W        W28254  20.689  40.002   5.286
59837W        W28255  44.309  23.629  13.857
59838W        W28256  11.695  26.582   1.698
59839W        W28257  28.053   5.705  10.929
59840W        W28258  28.596  36.888   3.276
59841W        W28259  33.973  44.371   1.698
59842W        W28260  15.278   5.325   2.872
59843W        W28261  12.837  31.014   1.858
59844W        W28262   1.838  14.633   3.773
59845W        W28263   5.862  29.980   0.438
59846W        W28264  17.095  25.178  12.509
59847W        W28265  40.377  28.941   3.236
59848W        W28266   3.742   7.343   0.299
59849W        W28267   3.275   3.813  14.908
59850W        W28268   3.261  30.514  14.800
59851W        W28269  33.569   1.797   1.926
59852W        W28270  26.515  38.505   2.330
59853W        W28271   9.760  10.864   3.359
59854W        W28272  10.164  34.087   4.730
59855W        W28273  44.320   9.878  12.031
59856W        W28274   5.769  29.973  11.122
59857W        W28275   0.423  32.095  12.955
59858W        W28276  13.838  34.484   3.214
59859W        W28277  15.735  43.011   3.182
59860W        W28278  30.930  13.222  14.000
59861W        W28279   6.382  24.692   1.222
59862W        W28280  19.250  12.324  10.139
59863W        W28281  37.835  10.182   1.365
59864W        W28282  28.602  13.351  14.361
59865W        W28283  27.093  10.382  11.522
59866W        W28284  38.519  34.901  12.080
59867W        W28285  27.460  43.313   4.728
59868W        W28286  38.414   2.855  12.495
59869W        W28287  19.660  38.849   1.806
59870W        W28288  23.202  31.645  13.872
59871W        W28289  37.566  19.749   3.208
59872W        W28290   8.392   9.746   1.420
59873W        W28291  31.991  36.399   2.418
59874W        W28292  38.068  42.846  12.086
59875W        W28293  24.057  10.640  12.895
59876W        W28294  29.493  15.146   3.760
59877W        W28295  30.077  17.691   2.746
59878W        W28296  32.471  28.030   3.709
59879W        W28297  26.096  28.994  14.426
59880W        W28298  40.919  27.493   4.184
59881W        W28299   5.803  26.175  12.553
59882W        W28300   3.836  28.530  14.016
59883W        W28301  12.222  36.391   1.926
59884W        W28302   5.346  26.531  11.550
59885W        W28303  11.147  44.439   2.839
59886W        W28304  26.510  27.086   4.653
59887W        W28305   0.759  15.802  10.148
59888W        W28306  13.619  16.284   2.743
59889W        W28307  44.969  22.068  14.454
59890W        W28308   5.844  14.655   4.781
59891W        W28309  35.492  17.747   3.700
59892W        W28310   7.801  43.347  14.819
59893W        W28311  31.647  19.113   0.838
59894W        W28312  44.336  12.682  12.347
59895W        W28313  15.705   7.197   0.348
59896W        W28314  39.988  29.584  11.394
59897W        W28315  21.194  42.844  11.074
59898W        W28316  12.722  17.122  10.408
59899W        W28317  32.394   9.867  11.989
59900W        W28318  25.134  29.114  11.944
59901W        W28319  22.657  38.926   3.742
59902W        W28320  19.589  14.095  10.436
59903W        W28321  19.543  27.584  12.072
59904W        W28322  27.989  42.332  10.604
59905W        W28323  15.227  28.502  14.766
59906W        W28324   0.461  42.947  10.617
59907W        W28325   7.890  32.127  14.504
59908W        W28326  20.656   1.278   1.264
59909W        W28327  10.667  11.201  12.913
59910W        W28328  44.419  44.481  11.891
59911W        W28329  27.465  31.106   0.475
59912W        W28330  15.285   6.246   0.772
59913W        W28331  18.555  15.782  11.593
59914W        W28332  23.652   4.926   3.367
59915W        W28333  39.823  43.441   4.139
59916W        W28334  41.028  28.035   4.638
59917W        W28335   9.790   2.746  13.399
59918W        W28336  16.580  20.118   2.682
59919W        W28337  34.877  22.720  14.843
59920W        W28338  25.519  16.282  11.098
59921W        W28339  12.226  33.051  11.428
59922W        W28340  24.706  21.649   0.775
59923W        W28341   7.731  33.574  13.914
59924W        W28342  29.623   2.288   2.270
59925W        W28343  42.481  38.891   2.872
59926W        W28344  27.628   5.885   1.780
59927W        W28345  23.996   6.890   2.402
59928W        W28346   8.771  11.774   2.754
59929W        W28347  12.837   8.376   1.750
59930W        W28348  40.416  16.708   1.369
59931W        W28349  30.570  26.647   4.281
59932W        W28350  41.966  23.586   2.381
59933W        W28351  41.471  39.921  13.344
59934W        W28352  34.466  15.189   2.839
59935W        W28353  14.254  19.626   1.231
59936W        W28354   2.759  35.047  11.015
59937W        W28355  14.598  12.717   4.822
59938W        W28356  12.210  21.679   3.258
59939W        W28357  40.937  40.323   0.830
59940W        W28358  30.493  25.084   0.893
59941W        W28359  26.481  13.730   0.293
59942W        W28360  11.672  20.540   1.325
59943W        W28361   1.263  17.181  12.020
59944W        W28362  42.778  43.863   0.892
59945W        W28363  11.170  32.059   0.402
59946W        W28364  12.138  25.160   1.773
59947W        W28365  28.981  27.040   4.637
59948W        W28366  25.043  33.486   4.838
59949W        W28367  29.621  14.641  11.599
59950W        W28368  17.745  42.330  14.840
59951W        W28369   7.692  36.090   4.283
59952W        W28370  37.994   8.839  12.397
59953W        W28371  18.641   7.206   4.182
59954W        W28372  27.628  36.043   2.261
59955W        W28373  29.918  39.547  10.935
59956W        W28374   7.697   2.418   3.292
59957W        W28375   5.753  42.472   1.721
59958W        W28376  42.410  18.189  13.410
59959W        W28377  14.157  30.966  13.345
59960W        W28378  23.137  29.983   0.398
59961W        W28379  30.146  22.043  12.416
59962W        W28380  24.523  11.816   2.194
59963W        W28381  16.289   7.263   9.923
59964W        W28382  43.785  36.416   2.782
59965W        W28383  38.016  33.580   3.355
59966W        W28384  39.326  31.426   0.272
59967W        W28385  24.980  43.979   4.674
59968W        W28386  42.299  43.839  12.882
59969W        W28387   7.276  12.347  13.943
59970W        W28388   5.903  35.544  13.444
59971W        W28389  39.487  26.006   1.404
59972W        W28390  40.936  24.524   0.734
59973W        W28391  29.945  38.424  14.488
59974W        W28392  29.652  41.444  12.496
59975W        W28393  33.496  29.125  14.493
59976W        W28394  42.791  39.451  14.930
59977W        W28395  27.149  21.138   0.918
59978W        W28396  24.195  35.074  13.794
59979W        W28397  25.146  20.066   1.252
59980W        W28398  41.996   1.731  10.025
59981W        W28399  10.681  18.738   0.343
59982W        W28400  39.053  13.813  10.529
59983W        W28401  40.397  14.821   3.713
59984W        W28402  44.918  30.969   4.608
59985W        W28403  13.632  31.578   0.255
59986W        W28404  35.468  14.227   4.758
59987W        W28405  36.919  24.105   0.800
59988W        W28406  32.491  27.980  14.004
59989W        W28407   5.741  42.324   3.382
59990W        W28408  30.552  31.900   1.845
59991W        W28409  26.557  11.162  12.364
59992W        W28410   3.359  18.670   0.462
59993W        W28411  33.453  13.338   2.398
59994W        W28412  43.318  44.896   2.781
59995W        W28413  33.032  11.304   0.329
59996W        W28414   1.324  33.974   4.655
59997W        W28415   8.383  36.506   0.477
59998W        W28416  33.961  36.578   3.630
59999W        W28417  27.157   5.435  12.570
60000W        W28418  25.692   6.786  12.435
60001W        W28419  23.157   4.923   2.701
60002W        W28420  16.658  18.291  13.956
60003W        W28421  18.255  32.999   0.913
60004W        W28422  11.245  10.641  10.622
60005W        W28423   5.706  44.847   1.252
60006W        W28424  22.512  41.519   3.189
60007W        W28425  17.771  10.280   3.236
60008W        W28426  42.508  20.178   4.662
60009W        W28427  25.705   8.759  12.973
60010W        W28428   0.333   0.428   1.439
60011W        W28429   2.461   1.771  11.486
60012W        W28430  30.134  42.523   2.804
60013W        W28431  26.584  24.672   2.767
60014W        W28432  16.089  20.594   3.838
60015W        W28433  31.917  22.063   1.919
60016W        W28434  10.678  30.139  12.497
60017W        W28435  35.926  37.523  11.878
60018W        W28436  25.492  19.269  12.411
60019W        W28437  24.028  30.438  12.360
60020W        W28438   1.922  21.261   9.995
60021W        W28439  44.960   5.904   1.873
60022W        W28440  23.711  29.496  10.998
60023W        W28441  42.338   3.409  11.966
60024W        W28442  24.567  40.374  13.468
60025W        W28443  44.948  42.857  11.001
60026W        W28444   1.738  11.720   2.307
60027W        W28445  20.029  16.649   1.927
60028W        W28446  34.606   9.288   1.441
60029W        W28447  18.664  38.374  12.972
60030W        W28448  17.738  13.316  11.062
60031W        W28449   5.419   0.927  13.044
60032W        W28450  12.633  34.598   4.135
60033W        W28451  28.184  28.474   3.814
60034W        W28452  31.502  34.454   3.291
60035W        W28453  44.807  23.164  11.941
60036W        W28454  19.558  12.347   9.925
60037W        W28455  22.565   4.204   4.355
60038W        W28456  43.904   3.849  12.969
60039W        W28457  13.267  43.932  13.517
60040W        W28458  37.954  25.974   2.815
60041W        W28459  11.278  18.739   2.682
60042W        W28460   8.213   4.425   0.918
60043W        W28461  20.027   7.404   4.746
60044W        W28462   0.983  34.868  11.400
60045W        W28463  34.540  28.098  11.612
60046W        W28464  22.527  16.748  10.476
60047W        W28465  32.441  23.231  12.364
60048W        W28466  28.494  13.250  14.924
60049W        W28467  23.604   2.795  11.525
60050W        W28468  13.641  14.814  11.420
60051W        W28469  42.523   3.452   2.311
60052W        W28470  16.604  38.860  11.988
60053W        W28471  29.468   7.785   2.338
60054W        W28472  19.137  12.841  13.791
60055W        W28473  43.882  25.217   3.279
60056W        W28474  21.077   7.892  12.878
60057W        W28475  29.052  25.029   3.285
60058W        W28476  30.030   2.859   0.937
60059W        W28477  20.130  15.642   0.897
60060W        W28478  36.098  27.179  14.926
60061W        W28479  28.044  21.232   9.948
60062W        W28480  36.528  40.951   1.787
60063W        W28481  43.508  33.542   3.343
60064W        W28482  38.938  28.075   5.133
60065W        W28483  34.988  18.116   3.822
60066W        W28484  34.481  22.541  13.025
60067W        W28485  24.206  41.326  11.918
60068W        W28486  36.500  27.062  11.428
60069W        W28487  33.128   2.280  11.561
60070W        W28488  42.435   7.787   1.728
60071W        W28489   9.729  32.977  14.308
60072W        W28490   6.292  32.471  14.014
60073W        W28491  18.689   4.721   1.422
60074W        W28492   9.356  16.233  13.012
60075W        W28493  15.680  10.874   0.749
60076W        W28494  21.571  40.816   4.290
60077W        W28495   8.343  20.659  10.588
60078W        W28496  16.279  41.336  10.573
60079W        W28497   3.891  39.971   4.184
60080W        W28498  43.818  22.096  11.872
60081W        W28499  28.984   3.340   4.176
60082W        W28500  38.371  38.862   4.715
60083W        W28501  38.466  25.467   2.302
60084W        W28502   7.807  34.086  14.498
60085W        W28503   0.347  11.850   3.371
60086W        W28504  34.537   8.405  11.043
60087W        W28505  38.983   9.732  10.550
60088W        W28506  39.469  16.183   0.926
60089W        W28507  27.663  44.283   1.295
60090W        W28508  31.005  19.727  12.025
60091W        W28509  37.336  37.439  13.529
60092W        W28510  29.534  30.483   3.754
60093W        W28511   3.285  16.098  12.536
60094W        W28512  41.507  42.414  11.914
60095W        W28513  30.946  30.024   1.922
60096W        W28514  28.118  26.009  13.863
60097W        W28515  39.901   7.772  14.967
60098W        W28516   2.245  19.559  13.875
60099W        W28517   3.813  17.800  11.030
60100W        W28518  25.607   5.368  14.340
60101W        W28519  18.229  17.144  11.025
60102W        W28520  44.881  43.926   0.789
60103W        W28521  33.452  11.237   1.310
60104W        W28522   4.918  42.878   4.645
60105W        W28523  32.116  38.019  12.344
60106W        W28524   3.441   1.945   3.355
60107W        W28525   6.338  33.533   2.359
60108W        W28526  20.567   3.903  11.603
60109W        W28527  31.635   4.755   1.356
60110W        W28528   4.365  11.847   4.658
60111W        W28529   7.289   8.358   4.156
60112W        W28530  41.980  40.345   3.375
60113W        W28531  27.676  42.788  13.526
60114W        W28532  17.280  31.946   1.293
60115W        W28533   2.293  18.547   0.409
60116W        W28534  11.698  16.649   4.165
60117W        W28535  25.569  16.582  13.919
60118W        W28536  19.744  26.961  11.966
60119W        W28537  22.045   4.908   3.846
60120W        W28538   2.889  17.153   1.769
60121W        W28539  33.058  30.468  12.376
60122W        W28540   3.901  42.804  10.493
60123W        W28541  32.003  23.176   3.643
60124W        W28542  40.897   6.785  13.459
60125W        W28543  19.673   2.309  13.057
60126W        W28544  36.874  32.433   0.366
60127W        W28545   8.183   9.230   3.342
60128W        W28546  32.632  43.898  12.060
60129W        W28547  30.465  11.208  14.803
60130W        W28548  25.214  26.576  12.956
60131W        W28549  36.488  33.058  11.427
60132W        W28550   7.210  27.547  14.801
60133W        W28551  15.587  27.508  13.368
60134W        W28552  35.930  40.828  13.883
60135W        W28553  33.589  14.316  13.492
60136W        W28554   4.300  20.222   4.804
60137W        W28555   7.685  13.349  13.337
60138W        W28556   9.353  24.662   4.275
60139W        W28557  35.889  28.577   4.700
60140W        W28558   8.346   3.416  14.511
60141W        W28559   1.733  36.876  14.972
60142W        W28560  34.035  29.558   2.795
60143W        W28561  12.748  23.163   0.808
60144W        W28562  37.054  24.210   4.770
60145W        W28563  22.636  27.465  11.041
60146W        W28564  31.564  42.314  11.412
60147W        W28565   1.381   3.770   0.942
60148W        W28566  18.072  13.608   2.359
60149W        W28567  39.451  33.033   3.733
60150W        W28568  42.002   8.180   3.792
60151W        W28569  20.626   8.264   4.228
60152W        W28570   5.907  17.241  14.409
60153W        W28571  30.494  39.013  14.465
60154W        W28572  18.584   7.804  10.580
60155W        W28573   7.901  29.012   9.998
60156W        W28574   5.736  13.842   1.787
60157W        W28575  39.877  13.257  11.001
60158W        W28576  33.944  21.542  11.088
60159W        W28577  19.598   0.857  12.454
60160W        W28578  29.662  12.611   1.220
60161W        W28579   4.908   9.722  14.027
60162W        W28580  28.598  42.890  14.762
60163W        W28581  11.196  30.093   0.885
60164W        W28582  31.922  18.296   4.176
60165W        W28583  31.939   5.844  14.784
60166W        W28584   5.224  27.086  10.486
60167W        W28585  10.161  23.672  11.578
60168W        W28586  44.851  27.948   2.264
60169W        W28587  39.366  44.304  12.356
60170W        W28588  38.953  37.481  12.078
60171W        W28589  38.454  19.261  12.504
60172W        W28590  32.530  22.040   0.409
60173W        W28591  16.654  37.415   1.283
60174W        W28592  22.221  25.132   1.857
60175W        W28593  43.284  25.518  11.948
60176W        W28594   3.912  17.565   4.690
60177W        W28595  44.783  12.287   9.612
60178W        W28596  29.516  32.140   9.987
60179W        W28597  26.066  13.189   1.803
60180W        W28598   9.781  20.109   2.863
60181W        W28599   6.738  13.729  14.826
60182W        W28600  30.449  22.644  13.841
60183W        W28601  34.560   7.228   1.348
60184W        W28602   5.817  36.565  11.970
60185W        W28603  25.538  26.130  10.422
60186W        W28604   6.809  41.940  11.943
60187W        W28605  41.454   9.208   0.424
60188W        W28606  22.088  31.475  10.565
60189W        W28607  43.996  19.109   4.649
60190W        W28608  30.423   3.785   4.818
60191W        W28609  32.964  10.355   1.887
60192W        W28610  26.982  34.417   0.835
60193W        W28611  26.509  31.923   3.167
60194W        W28612  38.549   4.846  13.809
60195W        W28613  14.212  43.319   3.630
60196W        W28614  40.388  39.933   2.183
60197W        W28615  25.601  19.205   3.712
60198W        W28616  30.492  15.579  13.449
60199W        W28617  34.580   9.373   4.752
60200W        W28618  19.665  44.779  13.322
60201W        W28619   4.787  32.619  12.364
60202W        W28620  35.023  38.920  12.572
60203W        W28621  23.030   4.915   4.712
60204W        W28622  36.430  38.339   1.403
60205W        W28623  42.990  39.961   9.972
60206W        W28624  39.863  34.019   2.837
60207W        W28625  27.080  33.604  14.960
60208W        W28626  31.419  26.996  13.317
60209W        W28627  10.354  31.981  10.431
60210W        W28628  29.139  32.489  12.855
60211W        W28629  43.297   1.404   3.638
60212W        W28630  33.915  14.124   1.751
60213W        W28631  26.485  43.392  11.048
60214W        W28632  28.674  21.198   2.236
60215W        W28633   1.355  19.268  12.978
60216W        W28634  33.489   3.818  10.622
60217W        W28635  12.812  11.844  14.341
60218W        W28636   6.711  41.949   1.815
60219W        W28637   4.330  28.994   1.910
60220W        W28638  25.165  12.763   1.848
60221W        W28639  28.552  39.407  13.395
60222W        W28640  32.069  23.500  10.909
60223W        W28641   3.818  39.392   0.801
60224W        W28642   3.744  27.532   4.801
60225W        W28643  40.521   7.337  10.510
60226W        W28644  31.964   4.395  11.018
60227W        W28645   7.251  14.759  12.405
60228W        W28646  23.631  23.506   0.361
60229W        W28647  22.192  29.994  10.963
60230W        W28648  27.523  18.726  12.972
60231W        W28649   1.483  32.057  11.410
60232W        W28650  32.395  22.575  13.048
60233W        W28651   3.284  27.106  14.430
60234W        W28652  41.381  26.494   2.304
60235W        W28653   5.905  43.772   0.475
60236W        W28654  11.670  22.544   3.300
60237W        W28655  40.484  40.856   4.230
60238W        W28656  33.010  31.917  13.537
60239W        W28657  16.278   1.807  11.555
60240W        W28658  36.098  35.362   3.738
60241W        W28659  32.539  28.948  12.410
60242W        W28660   5.924   5.251  11.607
60243W        W28661  23.546  38.339  14.788
60244W        W28662  30.929  42.509  11.454
60245W        W28663   8.321  13.840   1.819
60246W        W28664  32.006  22.530  11.966
60247W        W28665  40.044  27.671  14.946
60248W        W28666  34.538  38.477  12.442
60249W        W28667  19.217  18.153   2.381
60250W        W28668  13.234  38.871   3.294
60251W        W28669  11.171  44.495  14.924
60252W        W28670  35.976   5.866  11.875
60253W        W28671  39.990  17.733  14.430
60254W        W28672  13.232   8.277   2.694
60255W        W28673  39.453  40.437   2.902
60256W        W28674  25.626  27.104   1.719
60257W        W28675  24.651  37.041   0.249
60258W        W28676  36.377   4.446  10.914
60259W        W28677  21.730  37.527   4.342
60260W        W28678  33.056   3.789  12.087
60261W        W28679  33.480  10.653   2.898
60262W        W28680  19.615   8.881  14.451
60263W        W28681  33.987  13.138  10.423
60264W        W28682  11.186  31.972   4.619
60265W        W28683  24.026   1.346  11.033
60266W        W28684  10.229  20.534  13.494
60267W        W28685  41.933  22.528   0.871
60268W        W28686   4.705  33.390  11.947
60269W        W28687  11.138  26.119  10.485
60270W        W28688  21.127  19.773   0.387
60271W        W28689   9.847  14.674  14.287
60272W        W28690  41.367  24.515  10.548
60273W        W28691  35.471  37.545   0.844
60274W        W28692  37.978  14.300  12.903
60275W        W28693  24.013  41.468  11.065
60276W        W28694  38.997   9.246   2.204
60277W        W28695  41.407  41.318  12.049
60278W        W28696  38.873  26.179   4.173
60279W        W28697   5.861   8.898  12.493
60280W        W28698   8.341  21.729   3.629
60281W        W28699  17.176   0.330   0.345
60282W        W28700  32.594  43.910   1.365
60283W        W28701   3.881  35.970   2.689
60284W        W28702  17.789  27.623   4.124
60285W        W28703  17.133   0.761   0.460
60286W        W28704  12.238   9.740   1.900
60287W        W28705  31.032   5.891  12.459
60288W        W28706  40.526  11.786  11.588
60289W        W28707   2.872  27.164   1.219
60290W        W28708  19.186  43.015   4.319
60291W        W28709  39.344  20.616  12.015
60292W        W28710  20.268   8.815  10.481
60293W        W28711  33.449  40.931  11.449
60294W        W28712  17.294  29.926   2.720
60295W        W28713  13.815  30.429   4.226
60296W        W28714  43.340  39.532  10.619
60297W        W28715   9.855  29.059  13.992
60298W        W28716   5.848  44.982   3.641
60299W        W28717  32.924  36.569  10.946
60300W        W28718   6.719   6.716   2.232
60301W        W28719  11.137  11.782  13.411
60302W        W28720  16.721  23.994  13.025
60303W        W28721   1.450  12.276  13.819
60304W        W28722  15.583  13.646  10.959
60305W        W28723  22.672  39.961   3.380
60306W        W28724  37.933  16.721   0.907
60307W        W28725  34.908  10.713  12.860
60308W        W28726  18.201  12.162   0.947
60309W        W28727  37.482  18.556   1.434
60310W        W28728  35.577  13.106   0.796
60311W        W28729  36.564  37.380  13.424
60312W        W28730  41.012  22.731  14.407
60313W        W28731  24.645  39.322   4.748
60314W        W28732  19.052  39.863   4.778
60315W        W28733  42.410  13.769   0.442
60316W        W28734  21.731  44.314  10.120
60317W        W28735   3.293   9.661  10.933
60318W        W28736  20.698   9.376  14.334
60319W        W28737  40.543   6.896  12.070
60320W        W28738  24.512  19.585   0.475
60321W        W28739  36.903  32.546   4.354
60322W        W28740  21.088  34.472  12.043
60323W        W28741  12.637  20.578  13.337
60324W        W28742  42.857  23.641  11.050
60325W        W28743  26.169  12.293   3.337
60326W        W28744   2.280  25.220  10.115
60327W        W28745  39.466  17.274   4.115
60328W        W28746  24.201  24.636  11.120
60329W        W28747   0.364  35.939   1.372
60330W        W28748   4.901  25.141  10.057
60331W        W28749  37.449  41.454   0.873
60332W        W28750  26.981   0.935  14.505
60333W        W28751  20.205   7.413  12.833
60334W        W28752  24.171   2.438   2.378
60335W        W28753  35.009   1.341  11.044
60336W        W28754  26.702  32.432   2.688
60337W        W28755  14.188   5.820  14.870
60338W        W28756  38.961  43.834  11.528
60339W        W28757  31.531  28.447  13.889
60340W        W28758   3.857  36.040   0.391
60341W        W28759  38.988  37.980  13.338
60342W        W28760  25.200  29.966  12.844
60343W        W28761  16.602  29.454   0.789
60344W        W28762  37.879  40.851   3.146
60345W        W28763  33.542  30.651   4.783
60346W        W28764  19.072   0.438   4.665
60347W        W28765  13.807  41.798   4.674
60348W        W28766  35.427  29.548   3.344
60349W        W28767  34.538  41.012  13.345
60350W        W28768  24.005  32.044  13.450
60351W        W28769  12.307  25.704   3.821
60352W        W28770  23.603  38.040  14.379
60353W        W28771  44.309  28.148   2.675
60354W        W28772  25.964  42.915  14.778
60355W        W28773   1.962  24.057   1.809
60356W        W28774  30.496   8.345   1.327
60357W        W28775  44.474   2.264   1.423
60358W        W28776  33.481  24.004  10.981
60359W        W28777  24.515  39.831   0.263
60360W        W28778  21.111  30.607   1.211
60361W        W28779  39.400  37.053  14.333
60362W        W28780   0.894   1.868   3.846
60363W        W28781  42.286  37.443   9.994
60364W        W28782  26.031   7.888  10.458
60365W        W28783  23.649  20.212  14.941
60366W        W28784   4.811   8.385  12.861
60367W        W28785  21.713   1.903   1.418
60368W        W28786  14.623   1.411  13.922
60369W        W28787   1.321  39.519  12.915
60370W        W28788  34.562  16.806   1.425
60371W        W28789  43.004  21.033   0.285
60372W        W28790  42.521  43.771  11.480
60373W        W28791  13.611   7.748   4.756
60374W        W28792  43.009  27.155   4.685
60375W        W28793  28.613   9.194  11.410
60376W        W28794  42.016  34.481   4.799
60377W        W28795   2.242   6.427   0.739
60378W        W28796  24.983  15.313  10.892
60379W        W28797  41.802   9.842   0.349
60380W        W28798  13.131   9.297   0.763
60381W        W28799  38.508   2.944   1.863
60382W        W28800   7.204  32.940  11.603
60383W        W28801  22.173  15.202   4.700
60384W        W28802  27.087  38.511   0.273
60385W        W28803  28.144  43.284  13.471
60386W        W28804   4.337  36.915  11.546
60387W        W28805  26.491  24.040  13.412
60388W        W28806  39.387  25.540   1.435
60389W        W28807  17.120  28.072   4.614
60390W        W28808   6.270  34.863  14.853
60391W        W28809  16.198  43.820   0.430
60392W        W28810  20.086  14.121  11.477
60393W        W28811  31.587   4.885  10.410
60394W        W28812  43.794  10.312   2.900
60395W        W28813  15.781  23.731   4.702
60396W        W28814  24.629  15.321   1.700
60397W        W28815   2.788   2.336  12.956
60398W        W28816   6.801  43.405   2.690
60399W        W28817  37.427  20.161  10.926
60400W        W28818  36.885  44.784  14.761
60401W        W28819  24.528  25.967  14.979
60402W        W28820   8.386  21.682  14.301
60403W        W28821  33.073  28.608   1.304
60404W        W28822  30.963  24.483   2.349
60405W        W28823   3.336   6.676   3.699
60406W        W28824   3.905  29.626   4.118
60407W        W28825  12.191   5.364  13.984
60408W        W28826  14.821  16.566   3.760
60409W        W28827  42.484   7.314  14.773
60410W        W28828  32.890   2.873  12.995
60411W        W28829  42.885  12.357   3.844
60412W        W28830  13.245   4.927   1.231
60413W        W28831   4.917  29.928  13.450
60414W        W28832   2.262  43.914   1.731
60415W        W28833   7.902  23.692  11.019
60416W        W28834  27.535  40.537   1.380
60417W        W28835  24.057  29.066  12.539
60418W        W28836  42.781  21.075   5.188
60419W        W28837   7.234  44.010  14.444
60420W        W28838  28.120  10.846   0.800
60421W        W28839  14.627  18.577   4.257
60422W        W28840  23.614  35.995   2.887
60423W        W28841   7.680  21.748  12.476
60424W        W28842  30.983  20.089   2.309
60425W        W28843  33.076  26.095   4.123
60426W        W28844   3.364  38.452   0.384
60427W        W28845  32.487  40.545  13.390
60428W        W28846  13.287   8.304  10.412
60429W        W28847  14.815  26.123  11.388
60430W        W28848  38.329  34.402  13.497
60431W        W28849  31.035  38.522  12.505
60432W        W28850  31.473  40.837   3.697
60433W        W28851   2.962  27.023   3.208
60434W        W28852  12.356  24.123   1.797
60435W        W28853  18.151  20.726  10.572
60436W        W28854  42.784  11.216   2.207
60437W        W28855  13.799  31.461  11.004
60438W        W28856  41.972  30.429   3.162
60439W        W28857   6.183  13.608   4.189
60440W        W28858  17.769  10.819   1.844
60441W        W28859   9.176  19.740  12.554
60442W        W28860   8.184  15.302  11.073
60443W        W28861   3.323  23.216  14.412
60444W        W28862   9.149  21.681   2.366
60445W        W28863  11.767  39.470  13.941
60446W        W28864   2.899  13.826   3.728
60447W        W28865  43.884  23.036  13.373
60448W        W28866  43.984  41.364   4.307
60449W        W28867  39.444  11.665  10.465
60450W        W28868   0.271  41.310  12.036
60451W        W28869  37.455  36.872  14.341
60452W        W28870   7.417  43.507   1.763
60453W        W28871  21.590  14.742   2.715
60454W        W28872  20.654  26.661   3.272
60455W        W28873  15.811  17.246   2.795
60456W        W28874  42.934   1.735   2.281
60457W        W28875   6.247  41.870   4.162
60458W        W28876  20.130   7.251  11.963
60459W        W28877  29.069  17.795   3.793
60460W        W28878  21.019  36.500  14.502
60461W        W28879   6.856  35.044  11.111
60462W        W28880   3.900  14.296   3.239
60463W        W28881  16.177  34.537  12.940
60464W        W28882  38.483  31.474  11.964
60465W        W28883  17.596  40.439   0.798
60466W        W28884   0.980   5.786   0.955
60467W        W28885   7.835  32.972   0.274
60468W        W28886  23.683  16.793  13.356
60469W        W28887  36.007  34.434   1.328
60470W        W28888   2.742  21.109   4.740
60471W        W28889   2.331  37.943   4.818
60472W        W28890  32.465  29.030   1.697
60473W        W28891  40.469  16.155   4.825
60474W        W28892  32.057  10.286   1.824
60475W        W28893  19.730  32.904  13.317
60476W        W28894  30.004   0.398  14.339
60477W        W28895  23.725   4.229  13.961
60478W        W28896  41.012  25.996  10.629
60479W        W28897  37.902  26.688   4.301
60480W        W28898   6.208  37.904   3.770
60481W        W28899  18.582  21.229   4.685
60482W        W28900  31.919  37.422   2.232
60483W        W28901  15.580  15.678   1.429
60484W        W28902  34.561  31.972  11.020
60485W        W28903  17.698   0.384  12.945
60486W        W28904  16.149   1.427  11.058
60487W        W28905  10.675  31.605  12.406
60488W        W28906  22.040  41.352   4.641
60489W        W28907  39.499  44.487   3.717
60490W        W28908   3.373  22.573  11.497
60491W        W28909  26.189   9.876  13.948
60492W        W28910  13.315  21.185   4.289
60493W        W28911   7.822  30.974  11.450
60494W        W28912  12.737   9.174  14.298
60495W        W28913   4.759   7.236   4.821
60496W        W28914  34.554  20.576  13.834
60497W        W28915   5.716  41.308   3.330
60498W        W28916  40.423  39.363  14.897
60499W        W28917  30.473  24.193   0.391
60500W        W28918  42.868  17.777  12.483
60501W        W28919  30.440  21.541  14.986
60502W        W28920  37.530  28.442   3.319
60503W        W28921  35.905  37.927   0.921
60504W        W28922  38.936  16.632   3.333
60505W        W28923  15.680  35.077   1.763
60506W        W28924  16.161  26.959  14.761
60507W        W28925  38.446  35.003   1.245
60508W        W28926   6.804   4.711   2.230
60509W        W28927  36.532   0.383   3.310
60510W        W28928  42.805  24.079   5.193
60511W        W28929  41.495   4.448   3.638
60512W        W28930  44.347  28.985  11.543
60513W        W28931  16.219  19.631   3.175
60514W        W28932   9.281   5.372   2.349
60515W        W28933  26.629  20.208   1.735
60516W        W28934  17.151  43.462  11.566
60517W        W28935  29.112  38.417  12.880
60518W        W28936  36.405  26.119   3.788
60519W        W28937  12.614  28.132   2.352
60520W        W28938  10.802  28.179   1.913
60521W        W28939  44.458  42.285   1.802
60522W        W28940  41.843  12.647   2.714
60523W        W28941  20.188   4.879   0.962
60524W        W28942  43.317  12.718  12.549
60525W        W28943  30.028  17.208  12.547
60526W        W28944   1.858   7.866  10.565
60527W        W28945   3.457   7.315  13.820
60528W        W28946  31.576  34.867   2.754
60529W        W28947  22.029  43.505  14.764
60530W        W28948  32.581  14.822   0.428
60531W        W28949  24.608   4.434  11.900
60532W        W28950  21.525   9.871   3.722
60533W        W28951  30.039  18.178   0.861
60534W        W28952  21.731   9.271   1.431
60535W        W28953  42.470  22.584   2.201
60536W        W28954   3.877   4.769   2.779
60537W        W28955  37.546   4.310  12.980
60538W        W28956  42.429  33.082   1.867
60539W        W28957   2.316  16.647   3.364
60540W        W28958  28.505  19.242   3.709
60541W        W28959  23.153  20.120   0.271
60542W        W28960  39.811  32.413  10.492
60543W        W28961   9.389  42.933   0.934
60544W        W28962  31.448   9.185  12.891
60545W        W28963  11.838  24.048   9.960
60546W        W28964   5.783  29.562  11.925
60547W        W28965  30.422  33.983   2.794
60548W        W28966   9.685  24.529  14.374
60549W        W28967  17.153   7.287   9.975
60550W        W28968  20.109  30.597  12.554
60551W        W28969  43.960  36.456  11.053
60552W        W28970  30.105  28.516   2.886
60553W        W28971   5.242  23.056  10.548
60554W        W28972  21.638  29.118   1.792
60555W        W28973  42.505  27.050  11.531
60556W        W28974  14.695  13.763  12.844
60557W        W28975  13.832  25.152   4.134
60558W        W28976  22.024  11.806  13.982
60559W        W28977  33.125   3.278  13.807
60560W        W28978  19.054  16.810  13.970
60561W        W28979  35.417  20.090  11.396
60562W        W28980  12.701   0.823   4.192
60563W        W28981  21.140  29.654   1.427
60564W        W28982   4.302  17.307   2.718
60565W        W28983  25.027  25.978   1.743
60566W        W28984  33.555   9.177   0.873
60567W        W28985  14.270  18.170  12.424
60568W        W28986  19.075  29.591  13.052
60569W        W28987   7.798  27.063   4.769
60570W        W28988  33.520  34.112   2.874
60571W        W28989  32.593   0.439   2.294
60572W        W28990  16.677  41.923  13.396
60573W        W28991  29.631  10.818   1.290
60574W        W28992  19.112  14.255   5.698
60575W        W28993  24.056   0.757   3.689
60576W        W28994  11.778   5.294  12.850
60577W        W28995  29.937  24.057   2.227
60578W        W28996  18.722   5.708   2.196
60579W        W28997  42.522  42.779   1.438
60580W        W28998  43.956   1.886   2.798
60581W        W28999  28.637  29.038   3.798
60582W        W29000  30.116  20.267  12.015
60583W        W29001   8.313  26.703  11.609
60584W        W29002  19.767   3.890  12.549
60585W        W29003  41.873   8.791   2.811
60586W        W29004  14.236  35.413   4.261
60587W        W29005  14.778  16.670  11.495
60588W        W29006   8.748  12.175   0.920
60589W        W29007  31.928  19.209   2.718
60590W        W29008  14.695  42.475  12.980
60591W        W29009  31.432  31.041  12.945
60592W        W29010  39.460  13.296   0.279
60593W        W29011   0.907  26.189  14.307
60594W        W29012   0.837  44.486  11.054
60595W        W29013  18.746   5.857  13.035
60596W        W29014  15.786   8.340  12.067
60597W        W29015  14.625  11.778  12.015
60598W        W29016  38.338  13.298   4.835
60599W        W29017  33.904  39.345   4.794
60600W        W29018   9.780  16.197  14.984
60601W        W29019   6.901  24.126  14.936
60602W        W29020  39.519  12.654   2.681
60603W        W29021   6.266  18.581   4.806
60604W        W29022  20.163  44.284   0.876
60605W        W29023  26.096  10.805   0.417
60606W        W29024  32.086  21.234  10.449
60607W        W29025  33.607   7.833  14.959
60608W        W29026   8.309  14.132   4.768
60609W        W29027  28.994  38.022   1.418
60610W        W29028  37.940  13.227  10.556
60611W        W29029  25.597  11.230   3.827
60612W        W29030  44.766   9.819   0.833
60613W        W29031  17.599  29.020   4.218
60614W        W29032   2.873  17.083   1.433
60615W        W29033  18.209   8.690   4.617
60616W        W29034  42.395  22.641  14.287
60617W        W29035   6.201  14.293  13.922
60618W        W29036   4.915  17.299   2.695
60619W        W29037  33.991  41.419   0.421
60620W        W29038  44.818  25.149   2.718
60621W        W29039  34.003  44.927  14.901
60622W        W29040  41.535  17.120  13.879
60623W        W29041  27.092  24.041  12.535
60624W        W29042  42.911  21.663  10.064
60625W        W29043  21.237  24.611   4.224
60626W        W29044  35.944  40.027   0.455
60627W        W29045  20.623  37.840  11.432
60628W        W29046  12.618  22.720   0.726
60629W        W29047  43.351  17.681   4.673
60630W        W29048  33.932  25.072  12.879
60631W        W29049  40.428  39.895  13.337
60632W        W29050  12.353  42.996  12.485
60633W        W29051  10.271   3.893  10.462
60634W        W29052  35.876  22.041  11.023
60635W        W29053  28.112  36.495  13.887
60636W        W29054  31.962  33.971  12.522
60637W        W29055  10.140  22.210  11.009
60638W        W29056  14.773  31.429  13.526
60639W        W29057   5.799  21.531   3.237
60640W        W29058   4.804   7.358  14.863
60641W        W29059  43.894  22.736   9.952
60642W        W29060  32.519  29.948  11.530
60643W        W29061  24.122  21.059  12.934
60644W        W29062  30.489  13.132   0.350
60645W        W29063   6.282  21.604  13.460
60646W        W29064  39.314  13.191   3.652
60647W        W29065   1.780  23.102   5.225
60648W        W29066  10.348  20.208   0.353
60649W        W29067   0.775   2.372  14.794
60650W        W29068  22.161  42.353  14.877
60651W        W29069  12.689  26.619   0.962
60652W        W29070  15.677  41.459   1.350
60653W        W29071   8.336  40.495   0.374
60654W        W29072  17.614  14.209  10.581
60655W        W29073  16.273  23.724   0.848
60656W        W29074  26.532   4.212  11.029
60657W        W29075  43.015  39.973   5.273
60658W        W29076  24.206  19.073  11.415
60659W        W29077  14.214  28.180  14.326
60660W        W29078  34.475   1.327   0.383
60661W        W29079  30.607  28.468  10.581
60662W        W29080  11.366  32.114  11.059
60663W        W29081  27.981  21.634   4.714
60664W        W29082   0.300  12.230   4.163
60665W        W29083  16.080  13.340  12.040
60666W        W29084  12.206  40.435  12.342
60667W        W29085  24.720  31.636  12.828
60668W        W29086  36.431  12.317   3.338
60669W        W29087  13.156  25.027   5.223
60670W        W29088  29.168   4.863  14.867
60671W        W29089  20.669  26.066  11.932
60672W        W29090  17.064   8.345   1.448
60673W        W29091  34.574   9.710  11.059
60674W        W29092  24.021  11.765   9.987
60675W        W29093  26.484   9.727  11.493
60676W        W29094  24.158  30.029   0.254
60677W        W29095  20.207  36.441  13.892
60678W        W29096  36.489  28.578  14.489
60679W        W29097  35.395  25.505  11.959
60680W        W29098  15.736  27.600   1.709
60681W        W29099  33.996  36.542   2.371
60682W        W29100  41.486  18.720   0.421
60683W        W29101  41.951  34.880  12.050
60684W        W29102  22.653  24.101   2.855
60685W        W29103  32.414  12.682   2.336
60686W        W29104   8.843  34.113   0.872
60687W        W29105  21.257   4.434  14.420
60688W        W29106  38.967   6.385  12.539
60689W        W29107  36.092   1.349   4.748
60690W        W29108  40.495  44.292   3.250
60691W        W29109  30.150  44.813   3.766
60692W        W29110  19.607  38.539  14.009
60693W        W29111  19.083  44.938  14.768
60694W        W29112  23.647  18.250  13.472
60695W        W29113  14.259  24.141  13.546
60696W        W29114   1.844  31.544   3.233
60697W        W29115  32.066  13.253   1.779
60698W        W29116  25.974  43.933   2.766
60699W        W29117   9.720  10.769   1.440
60700W        W29118  14.730  12.710  13.863
60701W        W29119  35.095  39.849   1.915
60702W        W29120  43.784  24.687   4.767
60703W        W29121   1.884  17.715  11.464
60704W        W29122  43.957  37.395  11.099
60705W        W29123   7.267  13.638   0.283
60706W        W29124   2.785  13.243  10.475
60707W        W29125  22.014  29.053   2.359
60708W        W29126  40.007   4.431   0.324
60709W        W29127  10.324  35.453   9.960
60710W        W29128  22.656  24.999  13.050
60711W        W29129  38.065  22.085   2.399
60712W        W29130   6.263  44.010   9.942
60713W        W29131   7.356   5.868   4.648
60714W        W29132  11.742   3.898   1.444
60715W        W29133  30.048  19.630   3.682
60716W        W29134   6.326  42.429   0.249
60717W        W29135  30.012   9.862  12.352
60718W        W29136  17.125  36.092   4.324
60719W        W29137  44.288  44.406  12.341
60720W        W29138  42.785  13.151  13.837
60721W        W29139  29.018  29.548  10.897
60722W        W29140  17.284   5.196   9.576
60723W        W29141  26.504   7.739  10.568
60724W        W29142  13.207   1.891   1.402
60725W        W29143  23.552   5.824   0.751
60726W        W29144  27.485  20.601  10.901
60727W        W29145  10.297  42.455  14.842
60728W        W29146   7.253  42.481  11.568
60729W        W29147  26.468  13.312   2.377
60730W        W29148  17.773  13.237  12.537
60731W        W29149   8.726  16.680   4.663
60732W        W29150  28.562  21.125  11.107
60733W        W29151  31.089  23.507  12.538
60734W        W29152  29.019  41.941   0.393
60735W        W29153   6.894  29.002   3.654
60736W        W29154  22.726  28.161  12.341
60737W        W29155   9.734  12.726   4.309
60738W        W29156  14.745  23.660  12.445
60739W        W29157  23.007  41.835   1.720
60740W        W29158  40.539  14.196   1.877
60741W        W29159  30.031   7.410  10.117
60742W        W29160  37.070  36.895  10.427
60743W        W29161   3.417  39.977  10.575
60744W        W29162  41.402  16.299   1.849
60745W        W29163  42.349  40.497   4.136
60746W        W29164  37.024  11.701  13.333
60747W        W29165   4.851  42.450  11.867
60748W        W29166  38.825  22.201   0.760
60749W        W29167  42.960  14.283   4.753
60750W        W29168  14.249   1.747   2.798
60751W        W29169  10.861  31.416  14.807
60752W        W29170  24.127  36.457  13.846
60753W        W29171  19.644  37.925   5.296
60754W        W29172   7.832  20.565  11.045
60755W        W29173  23.145  18.589   0.784
60756W        W29174  18.103  18.059  14.319
60757W        W29175  13.259  18.664   0.903
60758W        W29176  33.078  34.566   2.731
60759W        W29177   9.798  10.262   2.278
60760W        W29178  38.988  42.296  14.856
60761W        W29179  25.470  20.708   1.366
60762W        W29180  14.817  29.074   1.338
60763W        W29181  36.090  11.216  12.041
60764W        W29182  14.311   6.292   9.645
60765W        W29183   5.351  32.032   3.639
60766W        W29184  16.157  42.407  13.013
60767W        W29185  32.442  12.845  13.887
60768W        W29186  13.712   2.873   1.921
60769W        W29187  37.010   2.235   4.740
60770W        W29188  10.182  27.996   4.694
60771W        W29189  26.494  10.689   3.173
60772W        W29190  37.447  20.270  13.821
60773W        W29191  23.990  15.200   4.181
60774W        W29192  25.143   5.417   3.790
60775W        W29193  44.846  33.619  11.489
60776W        W29194   5.215  15.180   1.441
60777W        W29195  43.811  35.475   2.817
60778W        W29196  26.155  43.913  14.983
60779W        W29197  29.921  16.747   4.695
60780W        W29198  24.006  37.009  10.986
60781W        W29199  41.960  21.740   2.860
60782W        W29200  29.049  13.613   1.310
60783W        W29201  36.087  23.565   2.315
60784W        W29202  21.674  27.987  11.394
60785W        W29203  17.762  43.912   4.195
60786W        W29204  17.271  22.596  12.492
60787W        W29205  13.259  13.673  13.979
60788W        W29206  42.901  11.360   3.318
60789W        W29207  20.200  44.503   9.989
60790W        W29208  38.842  13.113  11.938
60791W        W29209  16.210   4.393  13.862
60792W        W29210   6.798  30.413  14.515
60793W        W29211  16.254  36.383   4.268
60794W        W29212  22.584  14.766  14.293
60795W        W29213  16.763  38.930   1.780
60796W        W29214   8.319  34.870  13.383
60797W        W29215  39.845  13.781  11.555
60798W        W29216  34.574  11.801   1.434
60799W        W29217  19.045   8.693  11.404
60800W        W29218  44.389  44.913  13.314
60801W        W29219  43.426   3.361  11.981
60802W        W29220  20.183  38.559  11.009
60803W        W29221  12.630  42.862  12.512
60804W        W29222  25.031  20.635   2.800
60805W        W29223  24.700  24.054  12.977
60806W        W29224  10.268  37.407  12.394
60807W        W29225  15.291  28.454   2.253
60808W        W29226  25.710   6.340  10.544
60809W        W29227  36.562   2.778   2.840
60810W        W29228   6.905  17.799   0.785
60811W        W29229  37.066  21.258  12.873
60812W        W29230   9.724   8.729   0.785
60813W        W29231  35.997  18.628  14.401
60814W        W29232  28.033   8.787  14.944
60815W        W29233  11.282  40.364   3.802
60816W        W29234  18.614  16.595  14.862
60817W        W29235  11.779  39.372   0.730
60818W        W29236  41.358  11.279  12.451
60819W        W29237  11.228  20.590   2.703
60820W        W29238  26.559   8.194   0.930
60821W        W29239  37.023  10.802  13.393
60822W        W29240  43.476   9.763   4.246
60823W        W29241  26.097  18.622   2.250
60824W        W29242  15.107  11.764  10.532
60825W        W29243  17.296  39.536   3.802
60826W        W29244  40.426   8.658  13.822
60827W        W29245  44.986  29.104   4.756
60828W        W29246  23.056  33.927  11.399
60829W        W29247  40.925  21.179   4.230
60830W        W29248  21.665  44.265   2.345
60831W        W29249  40.039  43.300   0.735
60832W        W29250  34.046  32.556   3.150
60833W        W29251  10.855  12.638   3.189
60834W        W29252  37.463  20.706  12.968
60835W        W29253   6.212   6.840   1.418
60836W        W29254   8.272  30.590   2.372
60837W        W29255   0.817   2.926   0.745
60838W        W29256  34.577  42.309   2.186
60839W        W29257  13.816  30.643   0.920
60840W        W29258  31.409  32.612   1.870
60841W        W29259  33.928   6.830   2.897
60842W        W29260  13.337  42.306   2.398
60843W        W29261  42.385  38.386  13.348
60844W        W29262  19.664  22.025  12.545
60845W        W29263   1.735  13.134  10.971
60846W        W29264  38.393  20.699   3.261
60847W        W29265  13.194   7.247   3.230
60848W        W29266  34.474  39.861  12.488
60849W        W29267  30.916  37.995  12.096
60850W        W29268   9.743  15.777   0.465
60851W        W29269  43.886  18.598  12.339
60852W        W29270  36.016   4.843   3.789
60853W        W29271  37.055  26.641  12.533
60854W        W29272   0.354   4.737   0.407
60855W        W29273   7.670   5.296  10.429
60856W        W29274  15.311  32.001   2.404
60857W        W29275  38.463  16.308  14.977
60858W        W29276  38.349  37.579   2.296
60859W        W29277   3.339  28.440  13.842
60860W        W29278  25.096  16.287  13.014
60861W        W29279  20.259  33.940   3.809
60862W        W29280  11.710  43.989   2.901
60863W        W29281  28.073  43.783  13.984
60864W        W29282  28.005  24.620   2.373
60865W        W29283  13.173  22.167   1.759
60866W        W29284  37.950  26.637   0.481
60867W        W29285   6.327   3.282   3.285
60868W        W29286  25.080  18.164   3.308
60869W        W29287  15.164  37.546  10.135
60870W        W29288  20.128  26.684   3.780
60871W        W29289  13.281  24.144  14.783
60872W        W29290  12.271   7.395   3.203
60873W        W29291  10.716  31.109  11.557
60874W        W29292  28.481  42.018   2.810
60875W        W29293  21.041   5.263   1.851
60876W        W29294   0.441  25.471  14.983
60877W        W29295   5.229  43.012   2.779
60878W        W29296  27.568  21.652  10.901
60879W        W29297  19.710  13.796   2.780
60880W        W29298  37.392   9.800  11.055
60881W        W29299  43.402   5.894   2.822
60882W        W29300  11.186  44.794   0.886
60883W        W29301  26.535   8.300   4.819
60884W        W29302  17.749  11.720  14.312
60885W        W29303  36.523  40.438   0.813
60886W        W29304  13.762  17.129  14.007
60887W        W29305  33.417  40.831   2.859
60888W        W29306  44.904  12.138  12.534
60889W        W29307  27.963  34.990  13.339
60890W        W29308  38.874  12.845  14.903
60891W        W29309  23.537   9.793  11.466
60892W        W29310   2.931  18.110   4.694
60893W        W29311  30.567  43.343   2.776
60894W        W29312  31.945  42.485  12.428
60895W        W29313  43.275  23.171   0.858
60896W        W29314  28.519  25.652  13.354
60897W        W29315  42.955  32.957  12.476
60898W        W29316  27.105  34.430  13.988
60899W        W29317  12.305  10.820   4.820
60900W        W29318  39.472   0.742  11.896
60901W        W29319  22.216   8.899  10.918
60902W        W29320  12.173   6.776  11.565
60903W        W29321  23.500  30.913   1.429
60904W        W29322  13.658  20.708  13.378
60905W        W29323   5.707   6.841   0.451
60906W        W29324  17.641  27.560   3.709
60907W        W29325  29.563   7.793   4.832
60908W        W29326  17.652  22.733   0.815
60909W        W29327  31.964  23.521   2.765
60910W        W29328   5.807  20.137  10.494
60911W        W29329   2.926  16.273   0.353
60912W        W29330  15.211   0.765   2.249
60913W        W29331  10.647  24.228  11.005
60914W        W29332  28.589  38.932   3.831
60915W        W29333  44.481  41.511  11.906
60916W        W29334   0.271  27.130   2.183
60917W        W29335   0.902  32.605  13.913
60918W        W29336  38.436  23.699  13.802
60919W        W29337  12.267   0.985   4.827
60920W        W29338   0.884  18.616  11.401
60921W        W29339  41.985  34.013  14.318
60922W        W29340  10.235  31.006   1.881
60923W        W29341  18.740   4.284  13.930
60924W        W29342  20.637  25.206   3.674
60925W        W29343  13.690   0.385   3.216
60926W        W29344  12.126  41.815   4.783
60927W        W29345   2.780  14.167   2.796
60928W        W29346  28.146   1.263   1.711
60929W        W29347  42.936   4.914  14.878
60930W        W29348  14.122  11.142  12.079
60931W        W29349  37.462  42.345   0.777
60932W        W29350   0.763   3.456  11.877
60933W        W29351  23.066  28.563   1.806
60934W        W29352   5.354  11.810   3.180
60935W        W29353  12.321   3.279  14.921
60936W        W29354  41.484  18.781   1.726
60937W        W29355  11.349  26.605  12.859
60938W        W29356  30.066  32.565   0.430
60939W        W29357  28.621  14.774  14.476
60940W        W29358   5.767  38.903   4.257
60941W        W29359  42.347  38.034  10.607
60942W        W29360   1.386  39.010   0.937
60943W        W29361  13.835   8.164  14.002
60944W        W29362  28.132   4.848   2.329
60945W        W29363  41.032   7.824  13.803
60946W        W29364  24.656   6.250   3.207
60947W        W29365  31.000   3.317  10.970
60948W        W29366  38.838  32.611  13.892
60949W        W29367   1.789  11.338  12.542
60950W        W29368  23.683  43.975   1.232
60951W        W29369  26.490  36.576  10.410
60952W        W29370  27.087  14.834   1.755
60953W        W29371   1.376  20.034  14.972
60954W        W29372  25.093  35.998   0.419
60955W        W29373  30.531  22.566   0.412
60956W        W29374  13.647   1.821   0.439
60957W        W29375  29.029  17.611  14.015
60958W        W29376  34.109   6.750   1.892
60959W        W29377  44.849   4.355   2.664
60960W        W29378  37.070   9.251  12.864
60961W        W29379  18.249  28.076   0.870
60962W        W29380  30.582  35.101   0.773
60963W        W29381   0.406  18.595  12.438
60964W        W29382  22.101  20.588  12.866
60965W        W29383   6.888   6.729   0.346
60966W        W29384  39.845  13.303   4.777
60967W        W29385  18.170  34.970  11.417
60968W        W29386  44.359  42.432  10.579
60969W        W29387  18.563   7.214  12.348
60970W        W29388  27.193  38.483   3.851
60971W        W29389  17.682  21.161   0.738
60972W        W29390   9.873  17.111   0.287
60973W        W29391  19.646  15.629   2.873
60974W        W29392   9.279   3.393  12.532
60975W        W29393  19.237  11.649  12.948
60976W        W29394  21.538  34.912   3.339
60977W        W29395  32.409  15.650  10.592
60978W        W29396   9.245  30.141  13.397
60979W        W29397  44.859  20.700   0.948
60980W        W29398  12.760  10.692   3.321
60981W        W29399  43.003  16.593   4.650
60982W        W29400  12.674   8.256   3.855
60983W        W29401  20.748   1.819   3.745
60984W        W29402  19.574  42.394  11.596
60985W        W29403   7.848  35.067   2.417
60986W        W29404   0.780  41.473   0.863
60987W        W29405  41.986  25.498  10.476
60988W        W29406  33.995  29.570   3.681
60989W        W29407  19.247  35.532   1.342
60990W        W29408  17.096   5.344   1.303
60991W        W29409  19.209  13.236   9.961
60992W        W29410  36.490  10.170   0.391
60993W        W29411  18.624  30.615  12.022
60994W        W29412  30.939   0.359  12.982
60995W        W29413   0.936  39.912   1.294
60996W        W29414   7.342  29.068   1.219
60997W        W29415  22.612  25.597   0.838
60998W        W29416  29.083   7.249  14.435
60999W        W29417  20.202  40.876  12.548
61000W        W29418  17.640   7.318  11.991
61001W        W29419  24.634  16.731  13.856
61002W        W29420  33.984  31.406  13.454
61003W        W29421  29.103  12.803   2.286
61004W        W29422  39.968  19.047  14.495
61005W        W29423  11.695  44.436  13.507
61006W        W29424  16.779   9.330   1.345
61007W        W29425   3.405   6.232   0.377
61008W        W29426   9.690  38.048   2.816
61009W        W29427  25.687   3.348  14.358
61010W        W29428  15.191  17.731  14.808
61011W        W29429  19.536  37.349   0.959
61012W        W29430  24.168  30.115   3.657
61013W        W29431   4.423  12.662  14.363
61014W        W29432   0.853  19.591   2.414
61015W        W29433  26.593  39.005  11.958
61016W        W29434   9.171  19.736  11.906
61017W        W29435   8.764  22.679  12.054
61018W        W29436  24.998  21.691  13.904
61019W        W29437  36.352  33.977  10.506
61020W        W29438  30.628  41.341   3.673
61021W        W29439  10.875  35.945   4.259
61022W        W29440   7.904  32.532   4.207
61023W        W29441  40.545   6.767   0.848
61024W        W29442  28.953  40.523   1.441
61025W        W29443  29.467  29.108   9.973
61026W        W29444   0.825  42.794   1.810
61027W        W29445  15.671  20.633   2.300
61028W        W29446  44.810   8.278  11.030
61029W        W29447  20.719  12.636  12.893
61030W        W29448  32.474  38.382  10.950
61031W        W29449  40.813  29.538   1.363
61032W        W29450  26.596  28.655  11.432
61033W        W29451  29.081   5.410  14.808
61034W        W29452  44.389  25.095   1.368
61035W        W29453   5.828  17.142  11.870
61036W        W29454  37.520   7.905  13.498
61037W        W29455  44.916  41.314   0.296
61038W        W29456  11.185  16.267   4.650
61039W        W29457  32.902  17.627  11.925
61040W        W29458  39.444  33.889   3.269
61041W        W29459   7.768  11.658  13.041
61042W        W29460  21.205  11.228  13.864
61043W        W29461   3.415  44.879  11.100
61044W        W29462  29.578  16.739   2.725
61045W        W29463  27.575  38.444   2.324
61046W        W29464  22.151  24.653  13.937
61047W        W29465  37.896  36.053  12.540
61048W        W29466   9.214   5.746   4.133
61049W        W29467  19.627   4.737  14.441
61050W        W29468   6.884   9.826   2.804
61051W        W29469   9.880  37.874  13.826
61052W        W29470  26.487  32.468   5.109
61053W        W29471  26.161  18.751   1.271
61054W        W29472  40.388  33.429  11.379
61055W        W29473  43.493  30.005  11.081
61056W        W29474  15.250   2.387  11.114
61057W        W29475  40.959   9.187   3.234
61058W        W29476   7.281  21.260   4.670
61059W        W29477   6.227  16.741   2.858
61060W        W29478  14.744   7.237  12.451
61061W        W29479  20.752  34.427   1.430
61062W        W29480  32.079   8.269  13.939
61063W        W29481  13.320  27.497   2.298
61064W        W29482  12.333  31.572   2.183
61065W        W29483  16.597   7.391  12.361
61066W        W29484   0.485   7.251   0.331
61067W        W29485   0.260  15.579  12.547
61068W        W29486  15.799  16.082   3.197
61069W        W29487  28.619   2.359  13.830
61070W        W29488  30.013   6.853  11.024
61071W        W29489  33.416  30.129   1.706
61072W        W29490  27.069  17.741   2.343
61073W        W29491  40.485  23.498  11.565
61074W        W29492   2.440  31.539   3.699
61075W        W29493  38.532   6.340   0.421
61076W        W29494  23.641  43.948   4.721
61077W        W29495  33.083   2.374  12.438
61078W        W29496   6.395  11.647  12.438
61079W        W29497  36.963  10.809  11.053
61080W        W29498   7.848   4.764  13.904
61081W        W29499  43.906  39.334   0.329
61082W        W29500  41.426   0.902  12.439
61083W        W29501   6.829  21.179  13.349
61084W        W29502   6.718  43.831  12.434
61085W        W29503   8.793  44.874   4.835
61086W        W29504  25.638  32.135  14.018
61087W        W29505  23.084  14.273  14.432
61088W        W29506  33.001   8.303  12.488
61089W        W29507  22.061  22.105  12.857
61090W        W29508  11.827   1.878  12.022
61091W        W29509  30.420   2.368  12.559
61092W        W29510  42.418  17.779  14.913
61093W        W29511  28.673   7.672  13.531
61094W        W29512  12.674  30.478   4.257
61095W        W29513  13.639  18.568  13.007
61096W        W29514  39.506   9.857   0.823
61097W        W29515   1.397  20.548   1.765
61098W        W29516  32.540  39.823   4.188
61099W        W29517   0.975  27.085   2.713
61100W        W29518  16.589  20.151  10.635
61101W        W29519  30.155  32.037  10.438
61102W        W29520  16.640  33.116   0.428
61103W        W29521  34.605  23.154   2.231
61104W        W29522   6.399   0.368   3.291
61105W        W29523  10.706   5.423   3.803
61106W        W29524  39.029  30.482   2.222
61107W        W29525  10.810  40.052  11.439
61108W        W29526  38.939  35.041   2.677
61109W        W29527  10.644  29.162  12.920
61110W        W29528  22.598  12.704   3.166
61111W        W29529  30.486   6.897  12.956
61112W        W29530  27.970  20.117  14.856
61113W        W29531  26.080   1.419   1.278
61114W        W29532   4.769  40.907   1.850
61115W        W29533   2.369  31.094   0.439
61116W        W29534  26.147  16.615  12.493
61117W        W29535  35.927  43.883  13.829
61118W        W29536  14.164  42.830  12.958
61119W        W29537   0.368  23.517  14.995
61120W        W29538   2.231  19.231  11.070
61121W        W29539  11.284  36.511   1.781
61122W        W29540  38.924  18.697  13.064
61123W        W29541  43.811  37.001  13.050
61124W        W29542  41.338  21.528   3.747
61125W        W29543  13.313   0.464   3.292
61126W        W29544   2.364   3.919   3.843
61127W        W29545   3.385  30.930  12.842
61128W        W29546  22.208  33.984   1.883
61129W        W29547  22.998   0.468  12.505
61130W        W29548  15.114  21.737  11.867
61131W        W29549  40.054   3.368  13.492
61132W        W29550  15.116  23.735   3.342
61133W        W29551  17.643  43.913   3.155
61134W        W29552   4.885  12.767  10.625
61135W        W29553  11.210  11.681  10.598
61136W        W29554  11.700   9.829  12.973
61137W        W29555  39.509  33.952   4.797
61138W        W29556  13.292   9.840   4.156
61139W        W29557   6.802   8.399   0.870
61140W        W29558   8.393  30.130   4.315
61141W        W29559  28.001   9.724  10.946
61142W        W29560  21.630  21.186  13.902
61143W        W29561  37.856  26.002  10.936
61144W        W29562  15.783  11.678   4.822
61145W        W29563  31.145  36.534  10.439
61146W        W29564   5.893  24.003   3.228
61147W        W29565   3.781   1.352   2.322
61148W        W29566  23.089  40.542   4.723
61149W        W29567  12.137  13.753  11.445
61150W        W29568   0.916   1.441  12.500
61151W        W29569   0.491  14.829   3.647
61152W        W29570  22.056  44.442  14.972
61153W        W29571  26.670  20.745   1.828
61154W        W29572   1.926  35.904  11.436
61155W        W29573  17.137  41.989   0.397
61156W        W29574  17.077  25.047  13.310
61157W        W29575  26.489  35.564   1.786
61158W        W29576   0.438  20.164   0.327
61159W        W29577   4.223  17.562   1.706
61160W        W29578  32.006  36.549   4.352
61161W        W29579  36.040  41.538   1.228
61162W        W29580   3.438  11.631   2.869
61163W        W29581  40.939  30.471   1.388
61164W        W29582  39.015  35.371  12.541
61165W        W29583  36.572  16.223   0.372
61166W        W29584  27.659  23.174   3.752
61167W        W29585  35.603  34.414   1.886
61168W        W29586  11.263  16.242   2.251
61169W        W29587  34.609  30.498   4.789
61170W        W29588  44.929  19.740   0.386
61171W        W29589  24.082   9.363   4.791
61172W        W29590   2.439  29.108   0.764
61173W        W29591  43.885  13.156  12.894
61174W        W29592  36.953   1.409   4.828
61175W        W29593   8.765  28.983   1.893
61176W        W29594  21.604  35.450   0.796
61177W        W29595  36.529   2.431   0.327
61178W        W29596  44.305  42.333   0.802
61179W        W29597  30.148  21.214   0.458
61180W        W29598  21.583  15.715   3.241
61181W        W29599  14.826   4.331  11.019
61182W        W29600  21.588  39.028   4.157
61183W        W29601  27.603  28.087   1.412
61184W        W29602   7.685  25.975   0.750
61185W        W29603   2.285   3.235  12.946
61186W        W29604   6.833   7.178   1.783
61187W        W29605  28.614  29.519   0.732
61188W        W29606   3.395   6.795   2.874
61189W        W29607   7.405  41.848   0.841
61190W        W29608  14.665  41.902  14.355
61191W        W29609  15.305   6.844  11.427
61192W        W29610   9.333  16.732  11.103
61193W        W29611  19.775  38.558  14.491
61194W        W29612  25.064   9.260   2.348
61195W        W29613  36.390  32.412  10.584
61196W        W29614  33.404  42.409  14.451
61197W        W29615  42.858  25.612  14.949
61198W        W29616  19.685  10.859  14.325
61199W        W29617   7.840  35.102   3.844
61200W        W29618  11.790  34.985  12.075
61201W        W29619  33.898  39.398  12.974
61202W        W29620   0.888  26.019  12.517
61203W        W29621  28.660  43.507  13.883
61204W        W29622  12.250  38.480  13.966
61205W        W29623  11.761  26.663  12.473
61206W        W29624  13.245  11.627   2.253
61207W        W29625   2.900  39.437   1.214
61208W        W29626  13.221  17.632   1.743
61209W        W29627  28.120   3.823   1.358
61210W        W29628  16.593  11.206  14.868
61211W        W29629  42.900  22.747  11.940
61212W        W29630  32.958  25.075   1.382
61213W        W29631  30.605  29.990   1.413
61214W        W29632  12.702  42.886   0.811
61215W        W29633  37.386   7.381   0.298
61216W        W29634   7.822   0.910   0.918
61217W        W29635  14.324  34.985  12.512
61218W        W29636   9.394  30.590  14.787
61219W        W29637  24.222   1.749   0.930
61220W        W29638  39.426  42.990   4.681
61221W        W29639   0.774  23.089   3.214
61222W        W29640  21.147  29.485  11.414
61223W        W29641  40.376  27.656  11.093
61224W        W29642  26.974  24.042  14.807
61225W        W29643  13.741  38.047  14.462
61226W        W29644  12.201  12.643  10.489
61227W        W29645  10.790   6.851  10.444
61228W        W29646   4.296   6.276   4.737
61229W        W29647   5.424  23.146   3.364
61230W        W29648  18.662  13.248   2.344
61231W        W29649   3.272   2.863  13.891
61232W        W29650  23.572   2.911   2.816
61233W        W29651  30.448   9.339  13.443
61234W        W29652  22.605  30.413   2.321
61235W        W29653  12.346  38.512  12.022
61236W        W29654  42.807  23.066   1.906
61237W        W29655  13.658  41.303   0.451
61238W        W29656   6.815  40.918  12.857
61239W        W29657  37.534  30.987   0.893
61240W        W29658  17.759  21.603   4.613
61241W        W29659  10.802   1.847  14.892
61242W        W29660  24.654  17.705  12.575
61243W        W29661   2.834  43.913   0.814
61244W        W29662   6.257  16.284   2.755
61245W        W29663  35.857  41.017   4.698
61246W        W29664  40.874   8.374   1.420
61247W        W29665  24.678   5.814   3.769
61248W        W29666  21.164  44.972   2.304
61249W        W29667  36.037  40.523  14.844
61250W        W29668  39.813  29.528  12.872
61251W        W29669  44.429  26.562   4.802
61252W        W29670   9.201  12.189  11.886
61253W        W29671   8.181  18.257  10.932
61254W        W29672  19.755  10.304   1.932
61255W        W29673  31.064   5.858   3.837
61256W        W29674   9.694  25.987  10.494
61257W        W29675  44.935  20.239  13.342
61258W        W29676  40.416   7.390  13.317
61259W        W29677   4.223   3.285  12.917
61260W        W29678   2.467  28.677  12.021
61261W        W29679  11.775  34.892   3.255
61262W        W29680  36.431  41.928  10.528
61263W        W29681  14.278   6.380   4.763
61264W        W29682  21.653  21.178  11.124
61265W        W29683  38.405  30.141  11.048
61266W        W29684  17.239  31.938   1.739
61267W        W29685   3.232  26.557   1.861
61268W        W29686  28.623  10.739  14.430
61269W        W29687   5.852  33.126   2.807
61270W        W29688  40.866   1.858  12.067
61271W        W29689  25.078  11.851   0.964
61272W        W29690  12.201  10.338  12.499
61273W        W29691  42.320   1.245  13.975
61274W        W29692  10.224  18.239  11.524
61275W        W29693  25.558  32.101   4.334
61276W        W29694  34.928   8.698  14.939
61277W        W29695   3.250  34.388  11.094
61278W        W29696  41.852  17.759   3.372
61279W        W29697  22.152  26.647   2.821
61280W        W29698  10.298   5.355   2.223
61281W        W29699   4.237  21.115   3.308
61282W        W29700  32.105  14.636   0.380
61283W        W29701  18.675   9.228   4.756
61284W        W29702  41.896   2.250   5.272
61285W        W29703  38.860  17.272  10.605
61286W        W29704  25.512  41.348  11.072
61287W        W29705  16.759  10.210   0.949
61288W        W29706  19.063  35.962  10.516
61289W        W29707   3.420  44.355  11.484
61290W        W29708  28.488  42.374  11.859
61291W        W29709  35.932  27.491  14.815
61292W        W29710  16.781  25.185   4.627
61293W        W29711  38.871  37.472   3.778
61294W        W29712  33.457  20.083  10.563
61295W        W29713  13.339  16.086  14.811
61296W        W29714  41.357  18.738  13.974
61297W        W29715   0.938  31.407  13.469
61298W        W29716  16.680   0.423  13.424
61299W        W29717  17.238  42.282  13.035
61300W        W29718  35.597   4.222  13.392
61301W        W29719  29.959   9.672  12.025
61302W        W29720  19.239  38.479   3.856
61303W        W29721   7.719  25.150  14.826
61304W        W29722  13.746  39.969   3.691
61305W        W29723  33.619  35.079  12.569
61306W        W29724   5.336  12.762   2.314
61307W        W29725  14.130  43.313   4.641
61308W        W29726  31.004  14.671  12.408
61309W        W29727  22.581  40.915  12.078
61310W        W29728  14.712  31.929  11.606
61311W        W29729  41.400   3.772  12.937
61312W        W29730  17.794  22.099   0.945
61313W        W29731  17.656  30.926   1.376
61314W        W29732  20.095  37.908   1.715
61315W        W29733  32.630  27.602   2.797
61316W        W29734  20.274  32.454   4.757
61317W        W29735  25.700   5.375  13.041
61318W        W29736  41.410  13.783  10.988
61319W        W29737  34.950   4.747  11.060
61320W        W29738   5.817  39.855   3.337
61321W        W29739  35.367  25.577   1.754
61322W        W29740   5.897  23.584  12.950
61323W        W29741  37.933   7.723  14.306
61324W        W29742  42.874  41.464  11.969
61325W        W29743  24.674  15.651  13.927
61326W        W29744  41.495  22.502   1.359
61327W        W29745  23.990   2.839  14.509
61328W        W29746  29.541  17.091   4.783
61329W        W29747  22.596  43.809  12.407
61330W        W29748   6.423   4.747   1.758
61331W        W29749  28.535   5.416   4.770
61332W        W29750  35.470  22.042   2.313
61333W        W29751  14.175   0.404  13.973
61334W        W29752  20.046   4.722   2.254
61335W        W29753  23.522   4.928   4.198
61336W        W29754  16.200  23.241   0.298
61337W        W29755  32.935  26.993   1.811
61338W        W29756  14.278  38.433  10.483
61339W        W29757   5.357  37.494   4.633
61340W        W29758  11.706  16.598   0.318
61341W        W29759  26.670  43.299   3.799
61342W        W29760  38.863  36.573  13.361
61343W        W29761  12.705  25.568  14.907
61344W        W29762   0.769  44.801   1.416
61345W        W29763  24.510  33.457   0.925
61346W        W29764  32.538  34.012   2.796
61347W        W29765  35.945  39.840  13.494
61348W        W29766  12.335  19.650   2.820
61349W        W29767  11.724  22.250  10.439
61350W        W29768  42.527  16.811   2.256
61351W        W29769  43.771  22.218  12.507
61352W        W29770  27.668  18.085  14.480
61353W        W29771   3.761  42.934  14.313
61354W        W29772  10.680  26.072  11.450
61355W        W29773  33.531  16.252   2.678
61356W        W29774  19.124   6.405   0.375
61357W        W29775  44.489  27.659   3.159
61358W        W29776  25.181  41.974   4.617
61359W        W29777  23.225  41.941  12.080
61360W        W29778  27.000   4.884  12.435
61361W        W29779  34.425  40.010  12.988
61362W        W29780  11.754  29.638   3.650
61363W        W29781  24.046  20.047   2.790
61364W        W29782  31.609  42.776  12.537
61365W        W29783  26.558   6.310   5.185
61366W        W29784   1.871   8.834   0.441
61367W        W29785  35.366  28.562  14.794
61368W        W29786  15.184  22.676   2.819
61369W        W29787   1.928  28.994   2.833
61370W        W29788   9.863  22.076  12.464
61371W        W29789  18.257  35.408   1.793
61372W        W29790  35.088  28.658  13.385
61373W        W29791  27.007  21.685  11.960
61374W        W29792  41.881  14.169   5.169
61375W        W29793  27.075  23.715   2.317
61376W        W29794  23.511   5.217  10.538
61377W        W29795   1.785  11.699   3.691
61378W        W29796  35.368   9.799  10.908
61379W        W29797   5.222  19.079   4.703
61380W        W29798  26.668  44.311  14.830
61381W        W29799  19.180  34.897  12.984
61382W        W29800  44.808  19.771   2.355
61383W        W29801  44.282  41.831   0.341
61384W        W29802  27.611   0.431  11.481
61385W        W29803  16.148   4.760   2.394
61386W        W29804  29.991  24.202   0.467
61387W        W29805  39.531  21.525  10.444
61388W        W29806   6.349  39.362  12.393
61389W        W29807  14.654   1.947   0.461
61390W        W29808  41.408  19.547   3.282
61391W        W29809  16.729  22.222   1.868
61392W        W29810  42.812  22.574   4.281
61393W        W29811  44.419  21.610   9.493
61394W        W29812  13.338  10.648   3.684
61395W        W29813  30.455  13.112  14.782
61396W        W29814  32.045  19.768   2.279
61397W        W29815   6.752  17.108   1.866
61398W        W29816  35.601  18.077  11.877
61399W        W29817  23.618  10.691  14.974
61400W        W29818  11.732  23.559  11.014
61401W        W29819  12.234  31.558  10.543
61402W        W29820  20.259  34.556  14.004
61403W        W29821  25.640  25.061  11.947
61404W        W29822  17.666  44.403  14.366
61405W        W29823  39.483  37.578   0.759
61406W        W29824  29.467  42.924  13.348
61407W        W29825  22.726  17.201   4.834
61408W        W29826  39.968  24.544  12.519
61409W        W29827   8.213  25.702  14.961
61410W        W29828  27.597  28.929   3.811
61411W        W29829  30.030   6.860  11.908
61412W        W29830  37.421  33.559   3.171
61413W        W29831  17.797   5.204  12.050
61414W        W29832  22.710  20.583   2.899
61415W        W29833  41.977  19.173   4.113
61416W        W29834  29.164  26.458  13.370
61417W        W29835   2.349  36.441   4.178
61418W        W29836  19.153  44.362   1.712
61419W        W29837  29.533  17.575  13.897
61420W        W29838  32.099   7.349  11.877
61421W        W29839   8.754   9.223   4.744
61422W        W29840  44.496   0.322  14.482
61423W        W29841  43.314  33.100  13.321
61424W        W29842  29.612   1.877   3.807
61425W        W29843  15.245  22.250   0.768
61426W        W29844  22.639  41.865   4.203
61427W        W29845  37.929  34.568  13.835
61428W        W29846  26.188   1.272  13.398
61429W        W29847   0.307  22.038   1.912
61430W        W29848  36.971  18.237   0.394
61431W        W29849  23.695   8.831   1.738
61432W        W29850  31.605  22.585   4.606
61433W        W29851  11.667  17.773   2.350
61434W        W29852   9.270  39.839  12.993
61435W        W29853  35.455  18.687   1.694
61436W        W29854  37.424  21.042   4.711
61437W        W29855  13.169  24.228   4.819
61438W        W29856  32.409  22.066   1.905
61439W        W29857   0.387  11.634   1.222
61440W        W29858  16.774  41.504  14.404
61441W        W29859   0.370   5.791   2.295
61442W        W29860   6.265  13.215  12.411
61443W        W29861  36.997  26.612  13.344
61444W        W29862  28.460  38.427   2.253
61445W        W29863  40.456  29.580   3.656
61446W        W29864  28.029  18.093  14.900
61447W        W29865  20.602  34.485  12.020
61448W        W29866  25.570  42.799   1.893
61449W        W29867   9.168   7.784   2.766
61450W        W29868   2.932  10.172   1.877
61451W        W29869  37.558   4.216  10.075
61452W        W29870  22.601  34.930  12.918
61453W        W29871  14.233  18.150   0.862
61454W        W29872   7.416   6.846  12.912
61455W        W29873  36.480  30.597  13.851
61456W        W29874  25.590   2.956  12.065
61457W        W29875  32.094  36.361  10.948
61458W        W29876  10.169  25.651  14.861
61459W        W29877  34.094   8.323   4.754
61460W        W29878  22.537  40.414   0.293
61461W        W29879  15.722   4.308   0.739
61462W        W29880   5.928  44.963  11.426
61463W        W29881   2.815  16.672   1.708
61464W        W29882   6.201  32.543   1.749
61465W        W29883  20.155  26.559   2.843
61466W        W29884  43.487  21.050  14.822
61467W        W29885   4.213  30.607  10.644
61468W        W29886  19.095   9.760   0.279
61469W        W29887  10.842  20.227   3.675
61470W        W29888   2.313   8.728   3.270
61471W        W29889  28.681  12.667   4.333
61472W        W29890  29.477  16.097   4.625
61473W        W29891  28.062  22.651   2.397
61474W        W29892  15.735  37.385   5.154
61475W        W29893  25.621   3.942   1.773
61476W        W29894  10.186  40.026   2.256
61477W        W29895  22.688  29.530   1.334
61478W        W29896  35.405  24.650  13.381
61479W        W29897  41.981  10.834  11.398
61480W        W29898  30.458  43.796  11.509
61481W        W29899  18.099  18.716   4.701
61482W        W29900   6.377  19.237  11.111
61483W        W29901   2.317   5.325  12.554
61484W        W29902  16.176  43.807   2.759
61485W        W29903  41.852  39.023  12.575
61486W        W29904  37.511  16.623  12.530
61487W        W29905  39.915  10.675  11.481
61488W        W29906   1.405   7.738   1.854
61489W        W29907  14.117  29.664   1.287
61490W        W29908  30.950  27.138   3.247
61491W        W29909   6.691  37.359   1.441
61492W        W29910   1.784  27.685   4.323
61493W        W29911  44.903  30.141  11.514
61494W        W29912  27.510  10.778   3.725
61495W        W29913  13.768  29.463   3.649
61496W        W29914  36.089  21.664   2.414
61497W        W29915  43.304  10.310   9.982
61498W        W29916  31.482   2.873  11.105
61499W        W29917  10.696  12.166  10.444
61500W        W29918  21.685   4.311  13.315
61501W        W29919   7.274  42.476   2.222
61502W        W29920  16.758  24.006   3.843
61503W        W29921  40.914  28.588   2.894
61504W        W29922   8.167  40.826   1.389
61505W        W29923   2.918  26.592   1.711
61506W        W29924  17.174  38.002  13.854
61507W        W29925  37.576   4.219  12.396
61508W        W29926   8.315  28.507  10.607
61509W        W29927   8.268  22.732   0.819
61510W        W29928  25.590   9.710   0.924
61511W        W29929   8.795   5.350   1.728
61512W        W29930   1.899   4.388   3.282
61513W        W29931  24.227   6.391   0.304
61514W        W29932  15.114  23.037   2.400
61515W        W29933   1.822   2.918   3.856
61516W        W29934  43.871  37.000  11.857
61517W        W29935  13.319  41.444   2.679
61518W        W29936  36.590   4.301  14.275
61519W        W29937  27.451  29.471  10.596
61520W        W29938   7.749  10.192   3.673
61521W        W29939  20.697  18.745   1.297
61522W        W29940  33.601  14.735  13.894
61523W        W29941  14.290  26.638  11.429
61524W        W29942  39.442   0.841   1.817
61525W        W29943  34.578   6.748  12.829
61526W        W29944  39.845  32.433   1.363
61527W        W29945   2.355  15.771   1.427
61528W        W29946  12.800  31.423   1.230
61529W        W29947  32.065  40.347  10.576
61530W        W29948  15.656  14.129  12.913
61531W        W29949  21.113  13.817  14.025
61532W        W29950  41.360  12.803   4.719
61533W        W29951  31.432  15.255  13.826
61534W        W29952  18.784  25.616  14.365
61535W        W29953  30.443  40.907  10.962
61536W        W29954  27.998  43.019  12.526
61537W        W29955  34.050  32.592  13.972
61538W        W29956  34.481  28.636  13.792
61539W        W29957  25.554   0.928   9.931
61540W        W29958   8.405  31.985  14.884
61541W        W29959   3.370  40.501   4.700
61542W        W29960   5.245  41.414   4.185
61543W        W29961   3.353  17.763   2.699
61544W        W29962  39.559  32.948  13.325
61545W        W29963  39.516  27.000  12.058
61546W        W29964   1.309  21.719   2.853
61547W        W29965  37.887  12.318   0.455
61548W        W29966  28.982  37.461   2.712
61549W        W29967  26.951  39.536  14.506
61550W        W29968  36.356  38.374  13.973
61551W        W29969  20.111  32.143  13.971
61552W        W29970  38.377  25.062  14.351
61553W        W29971  33.485  35.459  14.418
61554W        W29972  27.076   1.915   2.850
61555W        W29973  15.168  43.953   1.706
61556W        W29974  40.481  18.550   3.720
61557W        W29975  10.697  13.203  13.811
61558W        W29976  30.632   9.818  14.844
61559W        W29977   8.747  13.329  11.115
61560W        W29978  38.053  44.360  11.553
61561W        W29979  42.016  11.214  10.591
61562W        W29980  25.001  43.301  10.429
61563W        W29981  14.149  15.146  12.070
61564W        W29982  44.293  34.877   1.368
61565W        W29983  24.037   4.417  10.448
61566W        W29984  22.233  36.437   2.812
61567W        W29985  26.152   0.330   0.866
61568W        W29986   0.466  42.921  14.808
61569W        W29987   0.958   3.913  13.844
61570W        W29988  17.167  11.802  10.424
61571W        W29989  43.275  41.915  12.828
61572W        W29990  21.063  14.683   1.911
61573W        W29991  21.076  16.223  11.407
61574W        W29992  15.252  19.269  14.797
61575W        W29993  20.086  15.261   2.377
61576W        W29994  28.176  30.606  12.466
61577W        W29995  20.601  34.895  13.350
61578W        W29996  18.776  24.045  13.943
61579W        W29997  14.649   9.875  14.395
61580W        W29998  32.459  23.519   5.113
61581W        W29999  37.863  37.853   1.296
61582W        W30000  26.174  29.083  14.955
61583W        W30001  37.339   2.259   1.815
61584W        W30002  36.906  31.603   3.195
61585W        W30003  39.321  22.607   2.665
61586W        W30004   7.207  13.157   2.371
61587W        W30005   0.890  24.546   0.872
61588W        W30006  17.125  24.013   0.445
61589W        W30007   0.335   5.692   2.741
61590W        W30008  14.771  31.971  10.945
61591W        W30009  26.207  43.984  10.991
61592W        W30010  35.056  15.244   4.191
61593W        W30011  10.754  34.097   0.247
61594W        W30012   5.864  27.032  14.335
61595W        W30013   3.783  40.824   4.168
61596W        W30014  18.112  43.307   4.133
61597W        W30015  21.236  34.110  10.435
61598W        W30016   7.392  15.715   2.887
61599W        W30017   0.483  26.976  14.483
61600W        W30018  17.221  27.116  11.924
61601W        W30019  36.031  24.221   2.368
61602W        W30020   5.725  27.949   4.618
61603W        W30021  43.502  41.797   1.289
61604W        W30022  29.010  37.052   1.274
61605W        W30023  34.939  27.500   3.166
61606W        W30024   2.922  37.367   1.210
61607W        W30025  28.463  23.672  12.409
61608W        W30026  36.009  41.517  13.017
61609W        W30027  32.566  33.077  12.079
61610W        W30028  15.109  13.266   1.251
61611W        W30029  39.883  20.558  12.048
61612W        W30030  25.496  16.257   1.276
61613W        W30031  19.226  30.415   1.346
61614W        W30032   2.233  37.467  13.324
61615W        W30033  40.830   7.298   2.294
61616W        W30034   6.862  29.078  12.877
61617W        W30035   1.478  30.414   1.266
61618W        W30036   7.272  13.266   4.707
61619W        W30037  42.406  34.927  11.048
61620W        W30038  40.495  35.913   1.399
61621W        W30039  11.627  11.362   2.208
61622W        W30040  18.668  42.802  10.988
61623W        W30041   4.832   6.257  13.436
61624W        W30042  21.742  38.018   2.753
61625W        W30043  40.966  25.657  13.396
61626W        W30044  33.874  20.754  10.640
61627W        W30045   4.305   0.381  11.103
61628W        W30046   0.310  13.133  14.024
61629W        W30047  29.938  23.163  10.618
61630W        W30048   0.896  23.509  12.048
61631W        W30049  37.011   6.298   4.794
61632W        W30050   9.667  40.447   4.762
61633W        W30051  22.128  32.050  12.856
61634W        W30052   6.764  36.064  10.629
61635W        W30053  14.188  35.398  11.586
61636W        W30054  43.515  27.047  10.506
61637W        W30055   8.733   2.865  14.884
61638W        W30056  39.491  25.564   3.659
61639W        W30057  15.118  21.580   4.190
61640W        W30058   4.760   2.758  12.869
61641W        W30059  43.437   8.306   4.217
61642W        W30060  37.453  37.901  14.437
61643W        W30061  19.718   4.911  11.456
61644W        W30062  29.638  16.209   4.320
61645W        W30063  23.064  19.709  13.849
61646W        W30064  25.197  10.773  13.487
61647W        W30065  13.767  25.571   1.752
61648W        W30066  35.466  29.595  12.047
61649W        W30067  40.799  35.943   0.915
61650W        W30068  22.626  27.516  14.928
61651W        W30069  33.390   3.320   4.720
61652W        W30070  40.955  43.502  13.531
61653W        W30071  33.974  30.996   2.866
61654W        W30072  15.121  30.983  11.587
61655W        W30073  11.250  35.073  11.484
61656W        W30074  41.888   8.784  13.369
61657W        W30075   9.383  43.908  12.542
61658W        W30076  17.061  32.104   4.807
61659W        W30077   3.945  27.546   0.363
61660W        W30078  22.241   7.213  11.449
61661W        W30079  18.056  38.907   4.715
61662W        W30080   9.303  11.334  14.792
61663W        W30081  17.131   0.344   4.647
61664W        W30082  23.001  41.967  12.539
61665W        W30083  12.768  10.169  14.765
61666W        W30084  33.131   1.973   0.321
61667W        W30085  16.737  32.059   4.733
61668W        W30086   6.411  34.948  13.834
61669W        W30087  26.563  16.222   2.746
61670W        W30088  18.064  21.056   1.810
61671W        W30089  15.133  32.004   1.704
61672W        W30090  23.028  24.122  10.532
61673W        W30091  40.513  43.382   0.807
61674W        W30092  44.344  14.820  14.320
61675W        W30093  20.236   7.864   3.277
61676W        W30094  21.520  38.382   1.366
61677W        W30095  35.380  40.888  13.846
61678W        W30096  40.816  11.254  11.967
61679W        W30097  24.684  43.274   0.781
61680W        W30098   5.932  30.506   4.630
61681W        W30099  23.576  25.056  13.486
61682W        W30100   4.872  26.637  14.834
61683W        W30101  14.675  37.008   3.666
61684W        W30102   5.927   6.380   3.174
61685W        W30103  30.962  27.025  11.094
61686W        W30104  32.940   5.828   1.837
61687W        W30105  20.188   2.802  12.998
61688W        W30106   9.835  30.910  12.372
61689W        W30107  30.548   7.206  14.511
61690W        W30108  10.677  38.376   2.792
61691W        W30109  44.908  23.087   3.329
61692W        W30110  37.049   3.925  10.433
61693W        W30111  21.033  24.714  12.000
61694W        W30112  21.616  44.919   1.858
61695W        W30113   6.913  44.851  11.611
61696W        W30114  22.544  16.199  11.470
61697W        W30115  35.989  44.782  14.817
61698W        W30116  39.346  19.132  11.508
61699W        W30117  41.418  27.624  14.333
61700W        W30118  21.741  20.618  13.367
61701W        W30119  33.595  39.827  11.906
61702W        W30120  27.532  21.024  10.603
61703W        W30121  14.691  37.850   3.744
61704W        W30122  23.537  30.094   0.815
61705W        W30123  13.734   9.670  14.926
61706W        W30124  32.456  16.131  13.031
61707W        W30125  15.636  35.363  12.565
61708W        W30126  33.539   0.442   1.707
61709W        W30127  26.609  29.658   3.243
61710W        W30128  43.311   1.883  11.600
61711W        W30129  30.063   9.387   1.289
61712W        W30130  34.093  34.963   0.397
61713W        W30131  41.360  39.449   5.257
61714W        W30132  14.794  16.807  10.520
61715W        W30133  39.934  24.992   2.273
61716W        W30134  34.968  37.869  11.100
61717W        W30135   9.723   4.821  13.383
61718W        W30136  41.917  33.899   2.188
61719W        W30137  41.331  15.153  11.121
61720W        W30138   0.947   5.905   2.278
61721W        W30139  13.311  29.093  13.481
61722W        W30140  35.459  43.292  13.373
61723W        W30141  23.161   0.360   0.905
61724W        W30142  24.012  10.694  12.519
61725W        W30143  10.878  27.505   4.797
61726W        W30144  40.510  26.466   0.760
61727W        W30145  18.285  12.165   4.792
61728W        W30146  12.617   4.368   2.282
61729W        W30147  30.594  42.884  11.885
61730W        W30148  20.696   5.315  12.455
61731W        W30149  16.310  18.218   0.761
61732W        W30150  16.748  39.490  14.473
61733W        W30151  34.542  34.023   1.405
61734W        W30152  43.287   7.402  14.926
61735W        W30153   8.773  44.488  14.510
61736W        W30154  30.624   5.417   2.414
61737W        W30155  11.167  25.999  11.916
61738W        W30156  15.237   7.679   0.871
61739W        W30157  22.535  43.959  14.427
61740W        W30158  22.118  34.483   2.688
61741W        W30159  32.400  41.536  14.803
61742W        W30160  11.344   1.740  12.571
61743W        W30161  42.010  21.626   5.138
61744W        W30162   1.861  25.694   0.839
61745W        W30163  37.988  37.440  12.541
61746W        W30164  39.893  14.171  13.798
61747W        W30165  42.423  14.131  12.893
61748W        W30166   7.196  34.545   1.930
61749W        W30167  44.874  40.432  13.872
61750W        W30168  20.647  13.284  13.058
61751W        W30169  26.628  42.474  10.616
61752W        W30170  26.066  25.049  11.094
61753W        W30171  11.735   6.705   1.820
61754W        W30172  38.913  27.634  10.973
61755W        W30173  24.673   7.746  14.832
61756W        W30174  27.605  31.034   1.722
61757W        W30175  19.688  33.381   0.920
61758W        W30176   5.246  43.270   3.307
61759W        W30177  36.591  32.534   0.859
61760W        W30178  26.676  22.143   0.329
61761W        W30179  16.122  44.841   0.400
61762W        W30180  11.804  38.858  10.001
61763W        W30181  44.884  36.901  13.892
61764W        W30182   0.454  12.619   0.926
61765W        W30183   1.379  40.805  14.994
61766W        W30184  15.281  36.870  10.523
61767W        W30185  40.863  26.081   3.741
61768W        W30186  26.017  41.318  12.840
61769W        W30187  11.175  12.290  13.058
61770W        W30188   6.207  19.096   1.696
61771W        W30189  29.949   3.940  14.285
61772W        W30190  12.202  42.809   0.312
61773W        W30191  17.767  22.546  11.553
61774W        W30192   7.674   2.378  11.890
61775W        W30193  29.651   1.322   2.377
61776W        W30194   0.332  28.963   4.322
61777W        W30195  24.043  13.842   1.913
61778W        W30196  26.530  18.236   2.184
61779W        W30197  12.709   3.834   4.291
61780W        W30198  40.489  32.501  13.908
61781W        W30199  30.017  11.709  13.543
61782W        W30200  33.132  16.578   1.738
61783W        W30201  43.845  36.095  14.813
61784W        W30202  31.053  31.474   1.722
61785W        W30203   4.883   4.419   3.345
61786W        W30204  40.913   4.311   1.221
61787W        W30205   6.288  28.642   3.369
61788W        W30206  20.670   8.852   3.713
61789W        W30207  41.896   5.835  11.019
61790W        W30208   4.405  21.142  10.954
61791W        W30209  15.781  12.205  12.856
61792W        W30210   2.902  29.584   2.218
61793W        W30211  19.590  30.473   1.782
61794W        W30212  41.007  40.378  10.561
61795W        W30213   9.179  15.732   4.191
61796W        W30214  12.241  38.559   2.297
61797W        W30215  19.266  23.109  11.538
61798W        W30216  41.978   3.839   4.166
61799W        W30217   2.395  25.115   1.275
61800W        W30218  23.989  40.494   0.333
61801W        W30219  33.605  28.947   5.299
61802W        W30220  12.145  26.523   4.272
61803W        W30221  10.755  11.139   2.847
61804W        W30222   5.923  29.532  14.342
61805W        W30223  18.765  42.313  10.932
61806W        W30224  41.338   0.276   1.327
61807W        W30225   7.714  42.419  10.472
61808W        W30226   6.781  15.682  14.339
61809W        W30227  19.554   6.425   1.735
61810W        W30228  42.967  15.736  13.972
61811W        W30229  17.557  28.975   2.757
61812W        W30230   7.219  30.970   2.686
61813W        W30231  38.397  40.819   3.792
61814W        W30232   2.881  36.463  12.436
61815W        W30233  39.324  30.138   3.752
61816W        W30234   9.656   6.708   0.384
61817W        W30235  37.948  18.726  12.454
61818W        W30236  25.036   1.840   1.736
61819W        W30237  20.133  15.722  11.434
61820W        W30238  16.267   5.289   0.413
61821W        W30239  23.117  26.986   3.806
61822W        W30240   0.779  37.425   3.656
61823W        W30241  34.876  36.977   1.796
61824W        W30242   0.974   8.290   0.795
61825W        W30243  21.231  29.034   9.988
61826W        W30244  42.339  16.657  12.392
61827W        W30245  37.408  38.527  11.062
61828W        W30246  29.433  20.038   3.807
61829W        W30247  17.222  32.037   0.457
61830W        W30248  35.534  22.142  11.106
61831W        W30249  35.907  13.301   2.259
61832W        W30250  15.616   6.349   0.736
61833W        W30251  11.792  41.971  12.853
61834W        W30252  10.847  10.804  13.367
61835W        W30253  14.604  22.079  10.619
61836W        W30254  12.838  17.196  11.539
61837W        W30255   2.761   7.300  10.989
61838W        W30256  19.675  24.176   3.848
61839W        W30257  43.939   4.874  11.906
61840W        W30258  31.633  10.852   3.858
61841W        W30259   6.705  15.719  11.079
61842W        W30260   1.838  31.435  11.532
61843W        W30261  18.606  31.503  11.544
61844W        W30262  21.118  13.703   2.728
61845W        W30263  36.524  16.161  13.526
61846W        W30264  15.592   9.718   1.871
61847W        W30265  44.415  18.208  11.957
61848W        W30266  17.186  10.196   3.781
61849W        W30267  36.034  35.406  11.880
61850W        W30268   8.201  18.706  14.359
61851W        W30269  35.041  39.057  13.022
61852W        W30270   4.703   5.355   3.269
61853W        W30271  19.062  12.825  10.082
61854W        W30272  31.140   5.368  11.573
61855W        W30273  12.823  14.112  14.954
61856W        W30274   2.458  11.203   2.348
61857W        W30275  38.020  21.716  13.798
61858W        W30276  12.353   3.955   0.949
61859W        W30277   2.349   8.381   0.854
61860W        W30278  23.684  19.262  12.488
61861W        W30279  27.590  42.959   1.318
61862W        W30280  18.052  35.505   0.314
61863W        W30281  24.544  34.036   2.834
61864W        W30282   4.381  27.564   1.739
61865W        W30283  23.200  43.910  12.882
61866W        W30284   5.200  39.844  13.512
61867W        W30285   1.395  41.505  11.974
61868W        W30286   2.876  29.600   0.442
61869W        W30287  20.730   0.296  13.855
61870W        W30288  21.244  35.453  14.499
61871W        W30289  21.656  36.554   0.737
61872W        W30290  39.425   4.897   4.632
61873W        W30291  17.268  30.989  11.384
61874W        W30292   1.412   6.876   0.474
61875W        W30293  33.601  20.037   4.698
61876W        W30294  16.181  31.498   1.901
61877W        W30295  33.386  33.620  14.346
61878W        W30296   9.237  20.186  12.030
61879W        W30297  33.051  12.825   0.352
61880W        W30298  36.023  34.901  10.445
61881W        W30299  40.823  13.697  12.066
61882W        W30300  14.661  33.437   1.889
61883W        W30301  39.449  24.612   2.234
61884W        W30302  37.546  18.553  13.547
61885W        W30303   4.858   9.376  11.546
61886W        W30304   9.692  20.200  11.060
61887W        W30305   2.856  44.419   2.183
61888W        W30306  20.711  11.713   3.758
61889W        W30307   7.762  41.837   2.304
61890W        W30308  15.109   3.905  10.070
61891W        W30309  41.879  19.076   3.791
61892W        W30310  28.986  23.211   0.371
61893W        W30311  14.142  42.428   4.131
61894W        W30312  44.401  17.638   0.321
61895W        W30313  33.949   2.836   0.470
61896W        W30314  23.053  33.044   3.348
61897W        W30315  20.708  42.907   4.667
61898W        W30316  33.073   1.449   3.635
61899W        W30317  33.397   2.371   4.295
61900W        W30318   4.253  42.000  10.906
61901W        W30319   0.307  30.614  12.021
61902W        W30320   5.830  31.125  10.908
61903W        W30321  38.400  41.978  12.514
61904W        W30322   9.785  44.471   2.226
61905W        W30323  12.351  30.099   0.473
61906W        W30324  43.411  10.197  14.417
61907W        W30325  22.026   4.232  14.478
61908W        W30326   4.338  30.038   0.423
61909W        W30327  28.546  36.413  10.416
61910W        W30328   4.386   9.263  11.573
61911W        W30329   6.266   8.777  12.993
61912W        W30330  11.800  41.330  11.065
61913W        W30331  30.455   4.797   1.357
61914W        W30332  17.765  33.481   3.192
61915W        W30333  18.197  40.319  10.893
61916W        W30334  21.519  13.789   2.733
61917W        W30335   5.276   4.810  10.620
61918W        W30336  27.175  40.345  14.427
61919W        W30337  28.129  35.501  12.548
61920W        W30338  14.277   0.906  10.622
61921W        W30339  28.563   0.928  14.882
61922W        W30340  37.854  38.564  12.910
61923W        W30341  39.983  40.307  11.559
61924W        W30342  25.630  14.331  13.014
61925W        W30343  12.724  15.684  12.991
61926W        W30344  10.778  23.642  12.061
61927W        W30345  37.861  40.541  13.343
61928W        W30346  25.064  14.591  13.512
61929W        W30347  25.191  30.111  11.957
61930W        W30348  28.434  26.973  13.472
61931W        W30349   6.828  12.683  11.438
61932W        W30350  43.875  11.859   5.167
61933W        W30351  34.596  22.239  10.996
61934W        W30352   7.731  22.015  10.929
61935W        W30353  39.459  19.638   4.797
61936W        W30354  29.668  27.008  14.425
61937W        W30355  29.464  40.855   4.755
61938W        W30356  22.690  41.804  12.365
61939W        W30357  23.694   1.362   4.751
61940W        W30358  14.774  20.671  11.455
61941W        W30359  18.121  13.809   3.859
61942W        W30360   9.344  23.516  14.006
61943W        W30361  35.027   9.712  13.417
61944W        W30362   4.376  32.563   1.711
61945W        W30363  29.611   9.286   3.867
61946W        W30364  26.591  26.569   3.827
61947W        W30365  26.962  43.368  10.453
61948W        W30366  21.258  35.598   1.695
61949W        W30367  40.339  42.421  10.540
61950W        W30368  23.209  19.592   3.642
61951W        W30369   6.824  33.021   0.294
61952W        W30370  31.642  27.138   1.268
61953W        W30371  34.953  28.983   3.864
61954W        W30372   1.955  41.388   0.429
61955W        W30373  23.135   2.316   2.413
61956W        W30374   6.727  13.728   3.795
61957W        W30375  18.590   9.654   1.366
61958W        W30376   2.265  31.912   4.210
61959W        W30377  18.083  36.536  10.606
61960W        W30378  27.972  44.968  11.056
61961W        W30379  16.238  17.665  13.485
61962W        W30380  12.761  27.025  11.539
61963W        W30381  39.524  17.739   3.812
61964W        W30382  25.662  17.785   4.803
61965W        W30383  13.238  25.536  12.018
61966W        W30384  20.105   4.910  10.532
61967W        W30385  43.482  34.959  13.421
61968W        W30386   6.769  21.229  13.984
61969W        W30387   3.244  26.017   1.917
61970W        W30388  40.547  44.422   1.816
61971W        W30389   3.723  18.210   3.258
61972W        W30390  41.517   3.862  14.354
61973W        W30391   4.805   6.423   0.403
61974W        W30392  38.415  13.605  12.855
61975W        W30393  12.768  41.882  11.586
61976W        W30394  28.108  24.164  12.969
61977W        W30395  43.803  37.538   2.288
61978W        W30396  12.615   6.711   0.896
61979W        W30397  16.286  36.050  13.445
61980W        W30398   8.239  15.774   4.756
61981W        W30399  11.715  41.485   0.967
61982W        W30400  38.837  13.228   0.898
61983W        W30401  22.676  38.539   4.242
61984W        W30402   6.357  41.983   0.432
61985W        W30403   7.703  29.449   0.329
61986W        W30404  12.646  38.987   0.280
61987W        W30405  41.523  15.710  14.903
61988W        W30406   4.280  19.625  10.988
61989W        W30407  22.591  13.622   4.235
61990W        W30408   9.789  27.574  10.600
61991W        W30409  23.591  31.102  11.416
61992W        W30410  15.606  15.807  13.325
61993W        W30411  15.676  28.566   4.218
61994W        W30412  27.177  21.075   3.826
61995W        W30413  37.550   6.895   1.294
61996W        W30414  31.907   3.902  11.511
61997W        W30415  16.217   4.416  12.097
61998W        W30416  39.507  22.015  14.342
61999W        W30417  42.843  10.685  12.937
62000W        W30418  28.969  17.261  11.938
62001W        W30419  21.248  30.441   4.705
62002W        W30420  20.053  12.843   3.756
62003W        W30421  29.426  14.130  10.511
62004W        W30422  40.011  36.550   3.317
62005W        W30423  39.849   8.745  14.973
62006W        W30424  10.288   3.778   2.328
62007W        W30425  38.558  33.596  14.494
62008W        W30426   7.370  44.451  11.117
62009W        W30427   4.858  40.934  10.588
62010W        W30428   2.333  12.804  10.945
62011W        W30429   2.249   8.331  14.852
62012W        W30430  42.033  16.246  11.940
62013W        W30431  12.206   1.921  14.401
62014W        W30432  32.941  44.427  12.055
62015W        W30433  33.911  30.163   2.258
62016W        W30434  36.530   9.291  11.102
62017W        W30435   8.291  27.517  11.966
62018W        W30436  36.048  25.698  11.605
62019W        W30437   9.655   5.405   0.268
62020W        W30438  27.504  24.183   2.698
62021W        W30439   1.335  34.582  14.849
62022W        W30440  42.787  16.240   4.225
62023W        W30441  27.982  21.084   1.303
62024W        W30442  21.031  23.531   3.237
62025W        W30443  24.625  42.996  10.965
62026W        W30444   7.761  29.990  14.902
62027W        W30445  35.383  22.098   3.688
62028W        W30446  39.450  14.094  14.005
62029W        W30447  33.955  24.479   3.633
62030W        W30448  17.640  37.423   9.951
62031W        W30449  38.051  37.917   2.891
62032W        W30450  40.422  11.705   1.261
62033W        W30451   7.184  12.626  13.368
62034W        W30452  31.515  37.533  12.506
62035W        W30453  18.615  19.169   1.873
62036W        W30454  16.297   7.850  14.797
62037W        W30455   8.234   9.293  12.834
62038W        W30456  20.737  19.118   0.404
62039W        W30457  41.977  18.246  11.459
62040W        W30458   4.782  14.278   9.924
62041W        W30459  29.059  29.069   2.341
62042W        W30460  22.598  27.951  13.962
62043W        W30461  24.692  40.811   0.959
62044W        W30462   3.434   4.338  10.949
62045W        W30463  14.286  31.928   2.673
62046W        W30464  37.849  21.645  10.912
62047W        W30465  12.821  18.781   0.467
62048W        W30466  22.019  29.030  10.483
62049W        W30467  41.435  26.971  11.416
62050W        W30468  25.037  40.503   2.732
62051W        W30469   8.300   2.300  11.490
62052W        W30470  26.158  25.974  12.983
62053W        W30471  39.386  39.421  14.771
62054W        W30472  11.153  11.152   3.661
62055W        W30473  38.545   7.384  14.447
62056W        W30474   2.830  43.944  11.122
62057W        W30475  38.852  16.270   2.259
62058W        W30476   8.313   7.825  12.063
62059W        W30477  31.996  29.519   0.368
62060W        W30478  31.505   7.249   3.221
62061W        W30479  11.766  27.984   0.729
62062W        W30480  44.352  25.184   2.812
62063W        W30481  27.187  44.864  11.074
62064W        W30482  20.555  22.590   3.204
62065W        W30483  42.947  27.963  13.799
62066W        W30484  20.712  21.093   3.772
62067W        W30485   7.779  11.663   1.313
62068W        W30486  31.020  30.530   4.676
62069W        W30487  13.254  21.074   5.283
62070W        W30488  11.791  15.304  11.092
62071W        W30489  38.417  18.146  12.528
62072W        W30490  42.926  31.047   4.190
62073W        W30491  37.899   9.159  14.873
62074W        W30492  43.340   2.954   3.257
62075W        W30493  43.411   8.800  13.820
62076W        W30494  43.906  39.529  14.311
62077W        W30495   8.241  44.375  12.847
62078W        W30496  38.850  44.940  10.534
62079W        W30497  31.005  35.422   0.751
62080W        W30498  22.684  16.791  12.878
62081W        W30499   6.263   6.320  12.014
62082W        W30500  11.760  13.164  14.790
62083W        W30501   1.888  43.794  10.992
62084W        W30502  23.530   6.843   3.711
62085W        W30503  11.330  40.855  14.823
62086W        W30504  39.331   4.223  10.485
62087W        W30505  31.963   1.284   4.344
62088W        W30506  32.541  15.252  12.825
62089W        W30507  19.629   4.439  14.865
62090W        W30508  25.481  16.631  13.546
62091W        W30509  34.568   1.757   2.405
62092W        W30510   8.166   3.317   1.788
62093W        W30511   5.791  23.233   3.332
62094W        W30512  28.649  41.823   0.783
62095W        W30513  21.182  22.508  14.297
62096W        W30514  37.471  19.597  10.048
62097W        W30515  31.588  44.792   0.242
62098W        W30516   9.878  27.630   3.163
62099W        W30517   0.908   9.319  11.490
62100W        W30518  40.851   3.300   1.446
62101W        W30519  33.098   3.889  12.832
62102W        W30520  42.329  10.165  11.371
62103W        W30521  37.860   2.389  14.019
62104W        W30522  16.142   7.688   2.789
62105W        W30523  33.906   2.773  14.422
62106W        W30524   8.386   7.376  14.979
62107W        W30525   8.862   8.295  11.583
62108W        W30526   0.943  22.620   2.411
62109W        W30527  17.130  40.875   2.670
62110W        W30528  44.838  44.786   3.266
62111W        W30529  18.751  22.657   4.774
62112W        W30530  25.501  38.934   1.796
62113W        W30531  44.997  35.373  14.472
62114W        W30532   8.389  36.426  12.879
62115W        W30533   2.334   3.828   0.423
62116W        W30534  41.304  28.929   1.719
62117W        W30535  25.171  24.091  12.825
62118W        W30536  14.652   7.180  13.318
62119W        W30537  35.866   2.346  14.979
62120W        W30538   9.173  17.277  12.926
62121W        W30539  19.083  32.890  14.311
62122W        W30540  41.849   2.822   4.137
62123W        W30541   0.925  13.654   2.236
62124W        W30542  13.714   7.899  10.604
62125W        W30543  23.138  27.621  13.414
62126W        W30544  22.685  12.790   9.943
62127W        W30545  32.129  34.089  13.538
62128W        W30546  42.487  30.586   1.254
62129W        W30547  28.027  19.275   5.176
62130W        W30548  38.405  35.452  12.947
62131W        W30549  28.178  16.310   3.869
62132W        W30550  12.362  14.806  11.022
62133W        W30551  15.133  24.509   2.868
62134W        W30552   3.948  26.157   0.863
62135W        W30553  22.532  31.047  13.373
62136W        W30554  24.039  24.068  12.365
62137W        W30555  36.392  20.644  13.056
62138W        W30556   7.706  12.817  11.970
62139W        W30557  11.784   5.743  13.493
62140W        W30558  44.806   1.436  13.383
62141W        W30559  26.989  26.001  12.075
62142W        W30560  21.124  15.729   2.812
62143W        W30561  19.729  35.941  14.369
62144W        W30562  34.890  38.861   1.355
62145W        W30563  16.136  30.055  10.894
62146W        W30564   7.722   7.680   1.797
62147W        W30565   0.494  19.204   2.856
62148W        W30566  27.603  11.651  12.062
62149W        W30567  35.385  31.411   3.724
62150W        W30568   1.380  30.104   2.205
62151W        W30569  16.729  39.376   2.873
62152W        W30570   5.842  21.106   2.202
62153W        W30571  38.922  14.769  14.942
62154W        W30572  18.153   8.763   0.258
62155W        W30573  24.003  38.839  11.029
62156W        W30574  20.709  28.573   0.315
62157W        W30575  14.125  30.099  11.579
62158W        W30576  14.107   4.293   0.299
62159W        W30577  24.628  18.546   4.184
62160W        W30578  41.385  33.566   4.757
62161W        W30579   4.882   6.704   0.446
62162W        W30580  11.359  18.136  12.077
62163W        W30581  17.713  33.453  14.805
62164W        W30582  36.537  36.965  13.324
62165W        W30583   3.852  22.112   3.330
62166W        W30584   3.815  20.082   0.785
62167W        W30585   3.238  35.981  10.904
62168W        W30586  41.320  17.715  11.127
62169W        W30587   3.221   5.871   2.691
62170W        W30588  25.532  31.097  14.861
62171W        W30589  26.058  25.596   4.691
62172W        W30590   4.317   5.333  11.013
62173W        W30591  25.688   9.251   1.311
62174W        W30592  19.568  27.616  14.860
62175W        W30593  21.256   5.868   5.087
62176W        W30594   1.936  35.474  14.858
62177W        W30595   9.379  42.892   4.139
62178W        W30596   7.264   1.456  11.921
62179W        W30597  24.646  32.566   2.417
62180W        W30598  41.321   0.859  13.337
62181W        W30599   3.909  21.238   3.191
62182W        W30600  25.516  28.435   1.933
62183W        W30601  34.997  17.232   1.848
62184W        W30602  31.951   2.230  11.387
62185W        W30603  16.076  11.240   1.870
62186W        W30604  12.811   2.364  12.526
62187W        W30605  41.005  40.474   1.876
62188W        W30606  33.469  10.796   4.751
62189W        W30607  22.134  16.295  11.877
62190W        W30608  37.893   6.786  14.973
62191W        W30609  32.970  21.259  14.418
62192W        W30610  12.664   5.764  14.386
62193W        W30611  23.210   5.371   1.859
62194W        W30612  44.761  31.972   2.853
62195W        W30613  43.935  23.076  14.822
62196W        W30614  12.713  11.321  14.314
62197W        W30615  33.076  28.561   0.478
62198W        W30616   1.421   8.814  13.861
62199W        W30617  15.647  27.961   2.788
62200W        W30618  43.433  31.037  10.914
62201W        W30619  12.708  21.642  13.950
62202W        W30620  30.126  13.198   0.878
62203W        W30621  27.959   8.846  13.446
62204W        W30622  31.543  16.621   4.637
62205W        W30623  24.977  30.991  13.842
62206W        W30624  30.919  41.325   1.248
62207W        W30625  32.400   5.280  11.995
62208W        W30626   1.864  30.486   3.725
62209W        W30627   8.217  44.447  10.914
62210W        W30628  17.656  37.979   1.812
62211W        W30629   8.221  21.594   3.234
62212W        W30630  34.438  28.575  10.617
62213W        W30631  25.991  13.602   0.845
62214W        W30632   2.784  24.093   3.740
62215W        W30633  13.796  15.758   4.718
62216W        W30634  15.185  42.822  11.930
62217W        W30635  35.504  21.515   2.254
62218W        W30636  39.903  28.006   4.288
62219W        W30637   4.855  42.964   1.814
62220W        W30638  10.382   0.855   1.927
62221W        W30639  28.544   8.891  14.872
62222W        W30640  43.492  39.990   5.194
62223W        W30641   0.355  40.354  12.856
62224W        W30642  41.962  33.564   0.842
62225W        W30643  44.349   4.302   3.225
62226W        W30644  28.624  23.157  13.400
62227W        W30645  32.571   7.816  11.941
62228W        W30646   0.381  22.635   0.451
62229W        W30647   9.302  20.584  12.557
62230W        W30648  39.949   1.459  14.294
62231W        W30649   1.425  27.609  13.017
62232W        W30650  39.886  30.147  12.845
62233W        W30651   6.795  13.307   3.227
62234W        W30652  34.100  35.894   4.719
62235W        W30653  18.254  10.354  12.941
62236W        W30654   6.419  44.487   3.228
62237W        W30655  39.401  37.506  11.923
62238W        W30656  20.163   8.390   3.247
62239W        W30657  18.139  33.967  14.984
62240W        W30658  39.337  16.231  10.536
62241W        W30659   6.706  42.802  12.937
62242W        W30660   8.817   5.845   3.198
62243W        W30661  13.267   7.747   3.246
62244W        W30662  32.976  30.551  12.858
62245W        W30663  33.389   1.390  13.533
62246W        W30664  36.887  43.324   0.870
62247W        W30665  19.621   7.364  12.462
62248W        W30666  30.990  26.058  11.425
62249W        W30667   3.241  25.179  14.290
62250W        W30668  25.986   8.361   5.200
62251W        W30669  15.800  44.431  10.476
62252W        W30670   5.235  15.296   0.862
62253W        W30671  22.077  17.306   3.238
62254W        W30672  40.966   7.223   2.891
62255W        W30673  26.549  36.851  11.981
62256W        W30674   4.937  18.231   1.864
62257W        W30675  30.931  29.978  11.907
62258W        W30676  31.406  26.495   2.247
62259W        W30677   2.795  42.933   1.725
62260W        W30678  33.447  31.125   2.349
62261W        W30679  37.971   2.370   4.145
62262W        W30680   2.781   6.677  13.984
62263W        W30681  17.785  38.993  13.841
62264W        W30682  36.588  36.900   1.730
62265W        W30683  27.108  35.007   2.348
62266W        W30684   7.200   1.866  11.569
62267W        W30685  27.509   8.828   1.742
62268W        W30686   4.389  17.298   3.693
62269W        W30687  25.571  30.157  12.065
62270W        W30688  36.962  31.150  14.367
62271W        W30689  17.157  29.493   0.373
62272W        W30690  34.992  38.392  14.355
62273W        W30691  30.070  43.001  12.383
62274W        W30692  33.113  37.050  12.922
62275W        W30693  36.559  17.128  12.476
62276W        W30694  34.470   1.316  12.882
62277W        W30695   0.322   1.805  14.323
62278W        W30696  22.515  34.995  10.495
62279W        W30697   9.685  43.366  14.315
62280W        W30698  27.571  26.180  12.382
62281W        W30699  17.689  14.666   9.952
62282W        W30700   6.315   3.794   2.772
62283W        W30701  20.056  10.237  14.329
62284W        W30702  23.077  23.661  10.421
62285W        W30703  21.067  20.238   4.696
62286W        W30704  25.517   1.897   1.887
62287W        W30705  27.156  19.534   4.645
62288W        W30706  25.678   6.713   2.400
62289W        W30707  23.164  17.129  12.936
62290W        W30708   3.285   5.274  14.773
62291W        W30709  24.630   8.359  14.965
62292W        W30710  42.496  28.942  10.468
62293W        W30711  38.382  36.961  14.985
62294W        W30712  34.496   2.326   2.312
62295W        W30713  39.838   9.369   4.663
62296W        W30714  23.730  20.220   0.337
62297W        W30715  43.801  38.037  14.790
62298W        W30716  33.958  17.152   0.451
62299W        W30717  34.959  42.369   2.236
62300W        W30718  32.971   1.853  12.486
62301W        W30719  13.226   2.801   2.416
62302W        W30720  33.415  34.004   3.748
62303W        W30721   2.420  37.352  13.978
62304W        W30722  31.404   1.376   3.361
62305W        W30723  11.182   8.333   3.687
62306W        W30724  20.527  23.659  10.527
62307W        W30725  16.612  28.152  12.049
62308W        W30726  43.810   9.289  14.849
62309W        W30727  11.180  17.772   4.619
62310W        W30728  16.638  25.683   2.241
62311W        W30729   6.814   2.326   2.748
62312W        W30730   8.809  38.482  13.448
62313W        W30731  18.732  40.930   4.195
62314W        W30732  43.823  40.970  11.010
62315W        W30733  25.033  20.043  14.367
62316W        W30734  14.723  34.911   0.431
62317W        W30735   8.210   7.741   1.890
62318W        W30736  40.841   8.221   2.753
62319W        W30737  25.516   9.309   3.803
62320W        W30738   4.715  18.206  14.873
62321W        W30739  35.931  16.596   2.403
62322W        W30740  10.743   7.171   1.233
62323W        W30741  17.104  18.718  10.480
62324W        W30742   8.260  34.061  10.577
62325W        W30743  28.657  13.183  10.962
62326W        W30744  17.162  10.784  12.450
62327W        W30745   2.472  25.482   0.891
62328W        W30746  37.869  40.352   3.218
62329W        W30747  38.383  23.042  11.608
62330W        W30748   4.934  23.026   3.726
62331W        W30749  12.234   7.845   2.413
62332W        W30750   7.206  28.110  11.877
62333W        W30751  28.091  28.529  14.291
62334W        W30752  14.157   3.906  13.920
62335W        W30753  25.169  27.957   1.323
62336W        W30754   5.438  22.019  10.433
62337W        W30755  28.482  11.131  13.389
62338W        W30756   4.221  23.664  12.402
62339W        W30757  40.364  20.640   3.162
62340W        W30758  39.973   6.377   3.765
62341W        W30759  27.065  30.096  11.064
62342W        W30760  39.948   9.207  14.432
62343W        W30761  38.360  27.060  12.450
62344W        W30762  24.155  40.911  11.597
62345W        W30763  42.507  19.776   0.821
62346W        W30764  43.000  28.977  12.429
62347W        W30765  13.145  17.168  12.949
62348W        W30766  35.482  20.563  10.913
62349W        W30767  35.950  21.093  12.379
62350W        W30768   4.438  43.429   1.379
62351W        W30769  22.149  16.632   3.689
62352W        W30770  31.468  20.250  13.062
62353W        W30771  14.161  21.073  13.992
62354W        W30772   7.400  23.147  10.465
62355W        W30773  32.552  37.908   0.371
62356W        W30774  28.978  30.098  14.877
62357W        W30775  40.907  31.413   1.722
62358W        W30776  18.554  37.467  13.326
62359W        W30777  36.939  26.471   2.791
62360W        W30778  22.599  40.015  12.559
62361W        W30779  31.601   0.318   4.150
62362W        W30780  21.091   1.876  13.059
62363W        W30781  41.490  19.590   0.385
62364W        W30782  16.580  25.612  13.873
62365W        W30783  26.152   7.242  13.545
62366W        W30784  21.152   4.765   2.400
62367W        W30785   1.826  32.015   1.921
62368W        W30786  20.160  27.953   4.686
62369W        W30787  10.846   0.420   4.312
62370W        W30788  27.116  30.069  10.545
62371W        W30789  42.388  36.964  11.992
62372W        W30790  41.816  26.067   0.388
62373W        W30791  34.088  43.812  12.087
62374W        W30792  33.961  25.204   2.875
62375W        W30793  35.890  18.076  12.486
62376W        W30794  34.869  32.473  10.523
62377W        W30795   6.345  11.624  11.946
62378W        W30796  28.630  29.435   3.816
62379W        W30797  19.195  37.899   1.341
62380W        W30798   2.320  36.555  13.855
62381W        W30799  28.553  28.095  11.605
62382W        W30800  36.573  11.233   3.843
62383W        W30801  14.673   6.299   4.250
62384W        W30802  27.512   3.886   0.256
62385W        W30803  29.147   4.280  10.619
62386W        W30804  32.053  33.613   1.350
62387W        W30805  32.587   1.296   2.704
62388W        W30806  16.658  34.002   0.816
62389W        W30807  39.403  18.751   2.811
62390W        W30808   6.198  33.085   2.224
62391W        W30809   5.782  37.487   4.232
62392W        W30810  34.479  11.795   1.906
62393W        W30811  31.530  16.173  14.774
62394W        W30812  20.642  31.136  12.499
62395W        W30813  17.600  36.925   0.889
62396W        W30814  15.193  34.462  12.446
62397W        W30815  40.849  41.043   4.778
62398W        W30816  37.875  42.776   1.769
62399W        W30817   8.170  44.289  13.412
62400W        W30818  38.493   0.863   3.145
62401W        W30819   1.850  27.621   2.713
62402W        W30820  25.184  39.927  13.904
62403W        W30821  14.306   8.365   2.675
62404W        W30822  34.498  31.431   4.723
62405W        W30823   1.360  40.460  12.434
62406W        W30824  37.030  36.074   4.743
62407W        W30825   1.830   0.893   1.785
62408W        W30826  35.891  44.498  14.486
62409W        W30827   6.906  19.060  14.993
62410W        W30828  33.918  31.493   0.316
62411W        W30829  43.330  44.907   4.304
62412W        W30830  17.106  10.634   1.274
62413W        W30831   0.866  31.002  14.820
62414W        W30832  25.194  31.991   1.752
62415W        W30833  28.182   3.239  12.570
62416W        W30834   8.719  44.386   2.225
62417W        W30835   7.823  44.811   4.778
62418W        W30836  16.798  25.119   2.371
62419W        W30837  20.089  17.721   2.815
62420W        W30838  33.044  24.572  13.885
62421W        W30839  34.459   5.708  13.859
62422W        W30840  41.457   2.465   0.797
62423W        W30841  18.576   1.816   4.806
62424W        W30842   9.820   7.869   3.841
62425W        W30843  35.364  42.009  12.388
62426W        W30844  21.755  22.741   0.335
62427W        W30845  12.263  34.897  13.018
62428W        W30846  41.498  37.482  12.831
62429W        W30847  43.397  28.988   2.287
62430W        W30848   1.787   3.426   0.862
62431W        W30849  17.068  29.099   3.193
62432W        W30850  25.607  28.184  10.629
62433W        W30851  42.836  11.295  13.456
62434W        W30852   3.455  15.619   1.863
62435W        W30853  35.477  32.080  11.965
62436W        W30854  11.633  15.817   0.359
62437W        W30855  38.878  16.206   0.854
62438W        W30856  31.648  14.189  14.811
62439W        W30857  25.050   6.739   0.389
62440W        W30858  23.092  31.141  12.345
62441W        W30859  13.350  33.565  14.969
62442W        W30860  12.652   6.918  13.805
62443W        W30861  12.255  24.196   3.330
62444W        W30862  33.074  18.615   2.889
62445W        W30863   6.338  44.907  14.459
62446W        W30864  19.750  33.107   4.816
62447W        W30865  35.902  22.736   3.370
62448W        W30866  13.140  17.238  13.486
62449W        W30867  40.483  34.601  12.974
62450W        W30868  31.908  30.540   1.779
62451W        W30869   1.812  28.185  13.041
62452W        W30870  17.219  23.087  12.015
62453W        W30871   8.718  14.620  13.941
62454W        W30872  15.158  15.597   2.241
62455W        W30873  15.680  26.976   2.290
62456W        W30874  23.715   7.850   0.816
62457W        W30875  26.504  14.203  11.418
62458W        W30876   9.741  38.464  12.094
62459W        W30877  18.139  35.988  12.376
62460W        W30878  11.670  21.152  11.549
62461W        W30879   3.263  11.164   3.350
62462W        W30880   3.755  30.449   3.652
62463W        W30881   0.392  27.463   4.155
62464W        W30882   8.173  25.964  11.867
62465W        W30883  43.018  24.653   4.196
62466W        W30884  32.024  38.930   2.894
62467W        W30885  30.449  39.424  10.538
62468W        W30886  29.047  29.558  14.848
62469W        W30887  42.913   9.877  12.375
62470W        W30888  23.597  40.463  12.022
62471W        W30889  13.758  41.975   2.408
62472W        W30890  14.645  11.313  12.891
62473W        W30891  14.735  30.131   3.713
62474W        W30892  34.904  41.819  11.865
62475W        W30893  36.391   0.892   0.459
62476W        W30894  18.162   3.759   4.621
62477W        W30895  21.047   2.392  14.429
62478W        W30896  18.255   9.827  13.023
62479W        W30897  28.123  44.372  14.826
62480W        W30898  20.113  23.170  11.001
62481W        W30899  29.529  11.216  14.856
62482W        W30900  27.459  10.765   1.399
62483W        W30901  37.905   1.372   2.351
62484W        W30902   2.298  16.279  13.060
62485W        W30903   3.850  44.504   1.838
62486W        W30904  43.342   3.363   2.723
62487W        W30905  27.086   5.800   2.747
62488W        W30906   5.198  44.376   4.672
62489W        W30907  44.260  18.611  11.047
62490W        W30908  28.089  44.966  10.580
62491W        W30909  39.452  33.968  10.615
62492W        W30910  44.468  29.460   0.369
62493W        W30911  12.677  41.981   2.286
62494W        W30912  38.550   7.394   4.296
62495W        W30913   6.385   9.390  12.567
62496W        W30914   3.827  31.589   1.238
62497W        W30915  25.032  35.059   3.814
62498W        W30916  15.139  29.967   0.792
62499W        W30917  36.369  44.880  14.897
62500W        W30918  18.611  30.574  13.483
62501W        W30919  37.422  17.612   2.840
62502W        W30920  39.056  11.145  13.796
62503W        W30921  44.276  18.221  12.427
62504W        W30922  37.460  37.433  14.843
62505W        W30923  20.272  15.678   0.347
62506W        W30924  12.235  27.021   2.739
62507W        W30925  40.534  27.944  12.828
62508W        W30926  11.818  17.147   1.224
62509W        W30927  14.136   9.198   2.821
62510W        W30928  14.256  41.347  11.928
62511W        W30929   4.862  27.525   5.116
62512W        W30930  11.250   7.788  13.963
62513W        W30931  10.858   6.905   0.778
62514W        W30932  42.802  21.093   4.812
62515W        W30933  25.594  37.043   2.848
62516W        W30934  23.649  32.114  13.459
62517W        W30935  44.442  13.134   4.699
62518W        W30936   6.777  38.469   1.282
62519W        W30937  34.055  30.128   0.435
62520W        W30938  21.579  42.418   4.185
62521W        W30939   6.202   1.359  14.877
62522W        W30940   8.161   9.667   1.744
62523W        W30941   3.893  39.001   1.336
62524W        W30942   8.889  25.063   1.739
62525W        W30943   2.940  36.455   2.870
62526W        W30944  34.605   1.932   1.223
62527W        W30945   6.804  25.475  12.370
62528W        W30946  26.179  13.243   0.826
62529W        W30947  18.165  21.200  14.319
62530W        W30948  19.707  39.317   0.298
62531W        W30949  36.034  20.148  11.471
62532W        W30950  32.129   3.295  12.569
62533W        W30951  19.211  36.913  14.411
62534W        W30952  36.960  20.173   2.232
62535W        W30953   0.462  33.408   2.187
62536W        W30954  35.568  39.892  13.809
62537W        W30955  35.091  29.105   4.689
62538W        W30956  25.100  34.010   1.888
62539W        W30957   2.429   9.716  13.869
62540W        W30958  19.605   5.436   4.837
62541W        W30959  11.647  21.174   3.670
62542W        W30960  26.189  44.393  13.996
62543W        W30961  29.517   9.650  11.537
62544W        W30962   1.458   0.468  12.494
62545W        W30963   7.216  36.576  10.458
62546W        W30964  44.315  21.218  14.021
62547W        W30965   5.825  14.295   5.192
62548W        W30966  24.620  19.047  14.927
62549W        W30967  18.146   8.677  13.401
62550W        W30968  30.426   2.375   2.376
62551W        W30969  13.695  27.640   4.243
62552W        W30970  16.616  16.082  11.101
62553W        W30971   5.288  34.087   2.281
62554W        W30972  17.106   4.425   1.830
62555W        W30973  24.653  39.469  10.461
62556W        W30974  11.163  39.411   0.283
62557W        W30975   6.784  19.659  10.934
62558W        W30976  35.395   7.312   2.245
62559W        W30977  28.081  34.988  13.953
62560W        W30978  18.067  16.126  10.511
62561W        W30979   2.816  39.325  14.834
62562W        W30980  24.687   5.340   3.279
62563W        W30981   0.906  22.050  11.590
62564W        W30982  12.839  31.636  14.370
62565W        W30983  38.844  41.977   0.279
62566W        W30984  29.992   4.404   4.774
62567W        W30985  36.001  38.478   2.868
62568W        W30986  44.887  36.570   3.669
62569W        W30987  18.153  19.688   0.849
62570W        W30988  36.851   5.707  11.878
62571W        W30989  10.688  35.954  10.572
62572W        W30990  11.156  12.250   1.732
62573W        W30991  24.649   9.864   2.190
62574W        W30992   8.227  28.993   3.331
62575W        W30993  18.641  29.565   4.697
62576W        W30994  32.141  16.752   3.196
62577W        W30995  22.664  40.959  11.438
62578W        W30996  12.240  23.087  13.522
62579W        W30997  25.584  36.400   2.346
62580W        W30998   1.755  11.284  14.504
62581W        W30999  38.911   3.347   1.766
62582W        W31000  18.081  42.974  10.642
62583W        W31001  14.770  40.306   4.197
62584W        W31002   8.741   4.342  13.500
62585W        W31003  19.671  31.985   1.883
62586W        W31004  24.581  42.965   0.244
62587W        W31005   0.380   3.731  11.097
62588W        W31006   9.250  38.375   4.765
62589W        W31007  44.952  42.391   0.462
62590W        W31008  11.328  27.119   2.312
62591W        W31009  16.294  41.821  10.642
62592W        W31010  27.061  43.902   0.756
62593W        W31011  25.072  30.020   0.399
62594W        W31012  15.237  32.119   4.626
62595W        W31013  34.067  40.369  13.833
62596W        W31014   3.416   0.919   3.726
62597W        W31015   7.761  20.123  11.463
62598W        W31016  32.437  27.030   3.360
62599W        W31017  13.639  39.838  11.422
62600W        W31018  28.466  38.014   2.854
62601W        W31019   9.282  34.902  13.340
62602W        W31020  32.524  43.803   2.224
62603W        W31021  14.243  37.449  14.367
62604W        W31022  17.711  27.580  13.437
62605W        W31023  25.184   3.433   2.243
62606W        W31024  34.053  26.573  14.971
62607W        W31025  41.800  37.514   3.366
62608W        W31026   3.884  12.175  14.402
62609W        W31027   8.209   4.920   4.194
62610W        W31028  34.036  23.735   1.452
62611W        W31029   3.727  33.481   4.150
62612W        W31030   8.787  34.088  13.325
62613W        W31031  36.000   6.775   0.791
62614W        W31032  19.616  43.449  12.996
62615W        W31033  28.549  18.604   3.774
62616W        W31034   6.853  22.217  12.512
62617W        W31035  43.922  25.027  14.866
62618W        W31036  12.152  39.999   1.421
62619W        W31037  37.547  22.671   1.739
62620W        W31038  23.531  24.679  13.800
62621W        W31039  40.832  13.175  10.985
62622W        W31040   5.381  38.957   4.791
62623W        W31041   2.838  15.089   2.706
62624W        W31042  40.052  12.211   3.275
62625W        W31043   2.446  23.732   1.359
62626W        W31044  24.071  27.999  11.438
62627W        W31045  17.271  11.727   1.225
62628W        W31046  23.016   3.461  12.896
62629W        W31047  27.474  39.414  13.415
62630W        W31048  44.971  28.527   4.826
62631W        W31049  21.572  16.712   0.466
62632W        W31050  38.997  16.751   3.735
62633W        W31051  43.490   3.833   0.836
62634W        W31052  39.908  37.995   0.393
62635W        W31053  30.629   3.898   2.407
62636W        W31054  26.609  36.502   1.392
62637W        W31055  31.462   7.768  14.377
62638W        W31056  33.053  12.755   0.835
62639W        W31057  23.648  23.610  12.550
62640W        W31058  25.545  14.208   0.417
62641W        W31059  35.557  40.531  10.059
62642W        W31060  19.567  12.779  10.510
62643W        W31061   0.272  13.720   0.946
62644W        W31062   2.303   9.874   3.720
62645W        W31063  18.143   9.235   1.436
62646W        W31064  36.458  43.383   4.659
62647W        W31065  21.644  18.113   3.317
62648W        W31066   4.292  12.768  12.352
62649W        W31067  36.525  24.013   2.843
62650W        W31068  19.758  35.947  12.469
62651W        W31069   5.341  24.103   0.296
62652W        W31070  16.203  29.616  14.928
62653W        W31071  20.684  19.081   4.223
62654W        W31072  17.675   6.859  10.614
62655W        W31073   9.324  25.535  11.545
62656W        W31074  35.072  17.137  14.388
62657W        W31075  36.076  11.196   1.820
62658W        W31076  31.128  30.922   1.777
62659W        W31077  18.778  36.991   3.749
62660W        W31078  27.971  13.602  12.949
62661W        W31079  30.643   7.897  14.461
62662W        W31080   8.819  44.841  12.492
62663W        W31081  12.816  33.944  12.430
62664W        W31082  37.521   3.946   3.220
62665W        W31083   4.216  26.171  12.503
62666W        W31084  12.153   1.886  13.792
62667W        W31085  13.760  39.376   3.195
62668W        W31086  36.884  38.499   1.298
62669W        W31087  11.351  13.167  11.013
62670W        W31088  18.559  36.557  12.003
62671W        W31089   2.242  22.638   2.191
62672W        W31090  17.718  15.119  13.444
62673W        W31091  15.130  12.313  14.361
62674W        W31092  32.965  12.629  14.817
62675W        W31093  41.455  35.006  12.528
62676W        W31094  38.893   3.329  14.503
62677W        W31095  26.985  36.001   0.387
62678W        W31096  33.977  39.064  12.833
62679W        W31097  24.142  40.524  11.452
62680W        W31098   9.248  20.581   3.817
62681W        W31099  10.233  21.178   3.369
62682W        W31100   1.960  23.678  14.962
62683W        W31101   0.313  27.106   3.387
62684W        W31102  25.012  36.093   2.216
62685W        W31103  26.095  31.073   2.264
62686W        W31104   1.443  43.327  10.422
62687W        W31105   3.751  42.856  10.910
62688W        W31106  21.073  40.344   3.777
62689W        W31107   2.914  26.601  13.985
62690W        W31108  31.534   4.399  13.312
62691W        W31109  32.440  19.254   3.334
62692W        W31110  37.029   3.810   3.237
62693W        W31111  38.947  19.139  13.544
62694W        W31112  18.696  35.094   2.223
62695W        W31113   8.895  40.356  13.450
62696W        W31114  43.817  18.127   3.773
62697W        W31115  43.500  38.935   3.313
62698W        W31116   4.875   3.796  11.111
62699W        W31117  32.448  36.924   4.319
62700W        W31118   8.708  43.298   2.854
62701W        W31119  12.638  13.327  12.462
62702W        W31120  17.224   3.899   2.293
62703W        W31121  18.125  42.292   0.345
62704W        W31122  34.516  38.472  10.104
62705W        W31123  21.072  38.498  12.474
62706W        W31124  14.827  14.144  14.904
62707W        W31125  21.210   0.811   3.151
62708W        W31126  14.198   7.804   0.776
62709W        W31127  39.325  34.077  11.058
62710W        W31128  30.916  33.535  11.995
62711W        W31129  27.949  25.127  10.594
62712W        W31130  31.403   9.281  13.409
62713W        W31131  22.734  27.991  10.936
62714W        W31132  25.965  11.850  14.771
62715W        W31133  31.152  21.609  10.608
62716W        W31134  26.177   9.828  11.468
62717W        W31135  26.521   8.162  12.839
62718W        W31136  34.091  10.228   3.828
62719W        W31137   2.374   7.845  13.376
62720W        W31138  18.249  40.546  10.490
62721W        W31139  25.142  40.460  13.502
62722W        W31140  28.642  14.217   0.918
62723W        W31141  16.727   8.721  11.515
62724W        W31142  13.744  16.261   3.739
62725W        W31143  25.619  38.062   2.824
62726W        W31144  26.660  39.474  13.858
62727W        W31145  28.131  33.557   0.302
62728W        W31146  33.943  43.813   0.765
62729W        W31147  13.729  12.198   1.929
62730W        W31148  36.982  29.514   4.757
62731W        W31149  22.574  32.633   4.654
62732W        W31150   0.826  35.389  11.525
62733W        W31151  37.427   1.307   4.304
62734W        W31152  36.082  35.101  11.400
62735W        W31153   3.854  20.536   0.325
62736W        W31154   0.273  20.094   4.299
62737W        W31155  26.672   6.779   0.300
62738W        W31156  14.164  16.198   3.832
62739W        W31157  22.729  30.511  13.820
62740W        W31158  30.542  39.046  14.838
62741W        W31159  41.928  10.382  10.134
62742W        W31160  30.931  36.922  13.840
62743W        W31161  20.744  13.144   0.471
62744W        W31162  15.284  38.560   3.362
62745W        W31163  24.488  10.203   4.221
62746W        W31164  36.986  40.977   4.208
62747W        W31165  25.988  32.101  12.577
62748W        W31166  12.130  38.369   0.248
62749W        W31167  21.551  38.429  10.113
62750W        W31168  23.534  43.005  10.523
62751W        W31169  36.347   4.374  12.351
62752W        W31170  26.168  12.717  10.569
62753W        W31171  34.609   2.456   3.374
62754W        W31172  31.611   4.822  12.017
62755W        W31173   4.285  13.828  10.439
62756W        W31174  38.965  13.726  12.993
62757W        W31175  14.276   5.383   1.848
62758W        W31176   5.345  40.884   2.715
62759W        W31177  21.262  17.579   3.292
62760W        W31178  31.153  17.075   3.810
62761W        W31179   5.389  28.653  10.502
62762W        W31180   2.423  27.185  12.061
62763W        W31181  34.865  24.209   4.181
62764W        W31182   6.900  35.570   0.905
62765W        W31183  44.801  38.434  14.915
62766W        W31184  17.149   1.858  11.005
62767W        W31185  29.141  20.695   4.336
62768W        W31186   7.257  37.005   0.959
62769W        W31187  23.494  10.334   0.788
62770W        W31188  42.935   3.847   2.338
62771W        W31189  11.830  28.014   5.248
62772W        W31190   1.887  30.051  13.847
62773W        W31191  33.980   1.793   3.739
62774W        W31192  15.215  14.274   4.754
62775W        W31193  21.168  14.728   0.842
62776W        W31194   4.422  21.261   3.806
62777W        W31195  12.698  19.180  12.861
62778W        W31196  24.188  23.130   1.273
62779W        W31197  33.476  37.548  10.531
62780W        W31198  41.903  27.540  14.894
62781W        W31199  25.564  38.964   4.223
62782W        W31200  40.532  15.639  11.945
62783W        W31201  32.556  10.369  13.992
62784W        W31202  38.905  26.628  10.072
62785W        W31203  37.339  30.018  10.591
62786W        W31204   8.194   1.301   3.847
62787W        W31205  35.385  30.978   3.386
62788W        W31206  35.369  32.472  14.885
62789W        W31207   6.715  12.315   0.372
62790W        W31208  16.293  28.995  12.458
62791W        W31209  21.112   3.380  11.558
62792W        W31210  32.068  25.707   5.278
62793W        W31211   9.157  42.478  12.573
62794W        W31212  41.509   2.385  12.988
62795W        W31213  42.303  27.567   2.832
62796W        W31214  25.504  31.025   0.300
62797W        W31215  30.579  30.065   3.721
62798W        W31216  36.017  27.620  12.011
62799W        W31217   3.400   8.388  10.550
62800W        W31218  28.551   9.888   3.229
62801W        W31219  22.016  32.606   3.230
62802W        W31220   5.868  25.015  13.009
62803W        W31221  43.319  22.040   1.808
62804W        W31222  18.748   2.849   1.889
62805W        W31223   7.894  42.946   3.743
62806W        W31224  43.396  21.092   2.673
62807W        W31225  40.798  38.343   4.323
62808W        W31226  13.707  43.782   4.749
62809W        W31227  18.732  43.856  13.822
62810W        W31228  33.427   6.246   5.230
62811W        W31229  15.640  36.952  12.998
62812W        W31230  11.808  25.116   3.317
62813W        W31231   7.871  25.052   5.249
62814W        W31232  33.533   0.959   2.789
62815W        W31233  19.264   4.303  11.372
62816W        W31234  14.835  36.551   1.268
62817W        W31235  37.546  34.053   0.484
62818W        W31236  34.882   3.910   3.147
62819W        W31237  24.092  16.616   1.313
62820W        W31238   5.301   2.888  13.050
62821W        W31239  29.481  12.243   3.636
62822W        W31240   2.280   8.289   4.677
62823W        W31241  21.099  13.611   3.633
62824W        W31242  20.195  14.781   9.547
62825W        W31243  35.426  22.123   4.657
62826W        W31244   8.194  13.111   0.323
62827W        W31245  36.520   9.873  12.930
62828W        W31246  32.993  20.631   2.374
62829W        W31247  12.632  21.548  12.349
62830W        W31248   2.240  22.128  10.124
62831W        W31249   3.803   9.889  14.287
62832W        W31250  42.401  39.040  11.919
62833W        W31251  25.005   0.334   2.834
62834W        W31252  18.724  42.838   2.377
62835W        W31253  44.975  32.938   0.388
62836W        W31254  18.073  24.052  14.819
62837W        W31255  30.438  24.220  13.321
62838W        W31256   9.831  35.940  12.913
62839W        W31257  31.020  11.349  12.349
62840W        W31258   4.806  43.797  13.981
62841W        W31259  26.693   0.265  10.514
62842W        W31260  31.936  18.675   0.309
62843W        W31261  41.319  25.580  12.424
62844W        W31262  14.673  37.052   1.838
62845W        W31263  31.486  25.480  11.402
62846W        W31264  26.560  30.072  11.123
62847W        W31265  34.969  19.166  13.353
62848W        W31266  42.523  35.039  10.482
62849W        W31267  11.741  42.023   0.909
62850W        W31268  24.984  25.615  13.874
62851W        W31269   7.216  39.002  14.457
62852W        W31270  39.984  25.677  11.040
62853W        W31271  15.704  42.963  13.313
62854W        W31272  13.621  43.767  13.795
62855W        W31273   9.336  33.415  12.849
62856W        W31274   4.361  15.314   0.865
62857W        W31275  38.538  36.488   3.779
62858W        W31276  24.102  38.348  10.153
62859W        W31277  40.502  17.255   1.822
62860W        W31278  29.579  29.639   0.913
62861W        W31279  12.680  32.482  11.492
62862W        W31280  13.193  10.320  12.354
62863W        W31281  17.089  27.592   2.233
62864W        W31282  13.233  10.850   2.241
62865W        W31283  16.573  26.969  10.431
62866W        W31284   4.398  16.773  11.000
62867W        W31285  14.655  41.340  12.367
62868W        W31286  19.621   6.905  14.993
62869W        W31287  11.726  34.922   1.228
62870W        W31288  20.744  22.222  13.517
62871W        W31289  32.911  27.579  14.432
62872W        W31290  28.627   6.420   9.975
62873W        W31291  31.636  20.554  14.320
62874W        W31292  24.610  32.092  13.517
62875W        W31293  11.271  10.165   3.757
62876W        W31294  11.226  44.867  12.494
62877W        W31295  11.813  42.001   2.312
62878W        W31296  21.195  23.564   9.657
62879W        W31297  21.607  14.710  10.427
62880W        W31298  26.464   9.835   2.213
62881W        W31299  35.570  26.203   1.371
62882W        W31300  26.692  27.020  14.964
62883W        W31301  44.471  18.201  11.475
62884W        W31302  25.602  30.161  11.001
62885W        W31303  14.699  15.149  13.050
62886W        W31304  33.011  40.511  10.477
62887W        W31305   6.780  37.367  10.451
62888W        W31306   1.813  43.328   4.772
62889W        W31307   5.699  23.990  14.514
62890W        W31308  25.559  15.589   4.139
62891W        W31309  35.985  18.271  14.456
62892W        W31310  32.915  18.672   2.325
62893W        W31311   6.864  23.103   3.213
62894W        W31312  25.518  22.612  11.472
62895W        W31313   9.377   4.845  14.355
62896W        W31314  28.024   8.851   0.896
62897W        W31315  16.799  24.116  11.909
62898W        W31316  11.249   4.781  14.289
62899W        W31317   1.338   3.378  10.573
62900W        W31318  36.909  28.111   4.675
62901W        W31319  43.974  23.008  14.019
62902W        W31320   5.712  25.012   3.381
62903W        W31321  41.980  16.730   2.318
62904W        W31322  15.294   9.366  11.046
62905W        W31323  15.323  16.171   0.260
62906W        W31324  19.553  13.698   0.430
62907W        W31325   8.360  23.491   1.348
62908W        W31326  39.022  42.504   3.771
62909W        W31327   5.262  26.046  14.942
62910W        W31328  13.761  26.475   3.786
62911W        W31329  26.568   9.762  14.014
62912W        W31330  13.833   3.913  12.017
62913W        W31331  36.419  36.081  13.309
62914W        W31332  37.500   6.402  13.827
62915W        W31333   6.745   2.735  12.522
62916W        W31334  41.014  21.535  10.630
62917W        W31335  24.993  35.592  10.531
62918W        W31336   3.926   3.420   2.896
62919W        W31337   8.667  39.320  13.015
62920W        W31338  36.881  29.513  10.600
62921W        W31339  31.481  22.590  10.620
62922W        W31340   2.742  39.462  10.940
62923W        W31341  28.659  32.981  13.428
62924W        W31342  23.725  35.494   0.816
62925W        W31343   0.742  39.040  12.576
62926W        W31344   8.775  11.200   3.760
62927W        W31345  44.433   4.874   4.244
62928W        W31346   1.292  20.677  11.383
62929W        W31347   6.320   8.757  11.076
62930W        W31348  31.959  16.646   1.890
62931W        W31349  40.988   9.777   2.886
62932W        W31350   6.713  28.995   1.419
62933W        W31351  16.212   5.407   3.148
62934W        W31352  33.507  43.821  10.570
62935W        W31353  34.059  17.304  14.290
62936W        W31354  18.668  39.342   0.906
62937W        W31355  43.301  14.173   3.368
62938W        W31356  15.175  39.054   3.799
62939W        W31357  19.151  26.586   5.286
62940W        W31358  23.636  28.967   1.774
62941W        W31359  15.629  37.472  11.003
62942W        W31360  40.811  39.913  11.075
62943W        W31361   6.383   5.870   0.888
62944W        W31362  19.197  43.878  12.533
62945W        W31363  14.149  34.418   3.864
62946W        W31364   9.745   0.916  13.317
62947W        W31365  36.965  14.832  14.776
62948W        W31366  32.560  38.049  14.430
62949W        W31367  36.422  32.888  12.485
62950W        W31368   8.775  23.617   3.834
62951W        W31369  44.323  13.107  13.054
62952W        W31370  11.184  13.177   3.347
62953W        W31371  40.500  21.018  14.476
62954W        W31372  13.806  27.985   1.406
62955W        W31373  28.651  19.704  14.456
62956W        W31374  15.798   5.827   4.693
62957W        W31375  23.228  26.963  13.034
62958W        W31376   0.274   5.369   4.649
62959W        W31377  41.005  41.387   3.167
62960W        W31378  10.762  37.556  11.425
62961W        W31379  16.206  26.502  14.432
62962W        W31380  39.332  44.504   3.222
62963W        W31381  35.451  31.570   2.803
62964W        W31382   2.327  19.665   0.375
62965W        W31383  17.708  20.669  14.429
62966W        W31384  26.035   4.852   4.780
62967W        W31385   0.260   1.949   4.755
62968W        W31386  34.508  31.919   3.370
62969W        W31387   1.367  25.179  14.280
62970W        W31388  22.026  24.153  11.393
62971W        W31389  33.490   4.307   3.158
62972W        W31390  44.872  12.282   3.368
62973W        W31391  29.619  11.780  11.488
62974W        W31392   6.416   3.744   1.302
62975W        W31393  18.157  35.948  11.535
62976W        W31394  17.636  42.833   0.315
62977W        W31395   3.228  37.512   4.126
62978W        W31396  38.504  41.042  12.096
62979W        W31397  22.654   6.710   4.834
62980W        W31398  33.913  37.877   5.610
62981W        W31399  23.567  31.427  13.057
62982W        W31400  11.207  27.553  13.854
62983W        W31401  13.692  13.701  12.473
62984W        W31402  16.167  22.146  11.525
62985W        W31403  42.831  44.973   2.224
62986W        W31404   8.810   3.273   3.750
62987W        W31405  16.716  32.581   4.793
62988W        W31406  23.190  34.585   0.951
62989W        W31407  22.176  11.184   3.251
62990W        W31408   5.364  40.850   4.733
62991W        W31409  44.488  31.027   2.858
62992W        W31410  41.300  10.289   4.188
62993W        W31411  34.099   5.777   3.339
62994W        W31412  28.575  20.685   3.189
62995W        W31413  25.027  41.986   3.280
62996W        W31414  26.463  30.470  10.943
62997W        W31415  34.388   3.730   2.674
62998W        W31416  29.046  18.224   2.772
62999W        W31417  16.270  13.640  11.593
63000W        W31418  19.583  23.723   0.321
63001W        W31419   7.180  34.100   3.759
63002W        W31420  20.703  13.697  12.527
63003W        W31421  39.003  26.482   4.207
63004W        W31422   2.288  35.951   1.748
63005W        W31423   1.467   1.403   3.365
63006W        W31424   1.733  10.355  11.069
63007W        W31425  19.678   4.844  11.894
63008W        W31426   7.808  12.150   1.770
63009W        W31427  30.635   9.275  10.531
63010W        W31428   8.725  35.398   4.349
63011W        W31429  17.693  18.076   1.790
63012W        W31430  15.594  40.813  10.581
63013W        W31431  27.489   6.751   5.098
63014W        W31432  31.998   3.316   3.688
63015W        W31433   3.903  24.050  12.928
63016W        W31434  40.304   3.412  12.007
63017W        W31435   8.390  36.075   0.440
63018W        W31436  26.010   9.388  11.014
63019W        W31437  33.511  33.605   2.267
63020W        W31438  21.650  34.383   4.245
63021W        W31439  36.852  35.024   1.217
63022W        W31440   4.773  31.954   1.805
63023W        W31441  12.770   6.338   3.360
63024W        W31442  43.451   4.272   2.246
63025W        W31443  27.986  28.101  12.403
63026W        W31444  42.870   0.278   0.834
63027W        W31445  39.454  19.658   4.198
63028W        W31446  34.369  40.853  12.086
63029W        W31447  27.690  13.842  13.828
63030W        W31448  10.173   1.976  13.024
63031W        W31449  28.040  10.808  12.467
63032W        W31450  11.679  17.240  11.053
63033W        W31451  43.324  37.029   4.733
63034W        W31452  24.674   9.689   2.745
63035W        W31453   1.878  15.691  11.549
63036W        W31454  19.566  34.388   4.715
63037W        W31455  19.776  42.904   2.684
63038W        W31456   1.818  16.172   4.762
63039W        W31457  30.106  14.281   1.813
63040W        W31458  28.478  19.566  13.913
63041W        W31459  34.468  42.817  12.049
63042W        W31460   0.750  34.038  11.497
63043W        W31461  34.075  19.731   3.763
63044W        W31462  21.089  40.406  12.406
63045W        W31463  39.467   7.715   4.821
63046W        W31464  10.838   0.347   2.230
63047W        W31465   3.952  38.048   3.714
63048W        W31466  23.680  36.044  14.926
63049W        W31467  13.814  14.740  12.077
63050W        W31468  24.063  14.260   2.777
63051W        W31469   2.388  13.316   0.856
63052W        W31470   7.723  22.041   4.304
63053W        W31471  24.984  32.523  13.893
63054W        W31472  25.205   4.361  12.962
63055W        W31473  34.990  14.734  12.415
63056W        W31474  32.048  12.623  10.515
63057W        W31475  20.667  43.437  13.354
63058W        W31476  21.706  40.393  13.365
63059W        W31477   9.309  30.067   2.239
63060W        W31478  34.432   3.412   4.257
63061W        W31479  24.645   5.376   2.201
63062W        W31480  12.289   7.293  10.935
63063W        W31481  12.822  44.486  14.503
63064W        W31482  10.311  31.944   3.290
63065W        W31483  37.895  36.463   3.287
63066W        W31484  38.508  18.190  14.469
63067W        W31485  36.090  34.894   4.148
63068W        W31486  25.637   8.860  13.423
63069W        W31487  12.328  43.410  12.891
63070W        W31488  30.080  28.576   2.257
63071W        W31489  40.434  12.319  12.029
63072W        W31490  26.523   9.395   5.613
63073W        W31491  42.415  35.914  12.346
63074W        W31492  22.226  30.418   1.248
63075W        W31493   5.200  29.033  12.938
63076W        W31494  10.845  17.112   4.288
63077W        W31495  10.861   0.255   1.368
63078W        W31496  16.146  10.165   3.158
63079W        W31497   2.808   2.779   4.638
63080W        W31498  44.370  11.308   4.797
63081W        W31499   2.273  24.222   2.357
63082W        W31500  29.501  36.407   0.899
63083W        W31501  40.937   6.306   2.332
63084W        W31502  24.656  13.604  14.416
63085W        W31503  17.089  21.571  12.904
63086W        W31504  36.076   1.901  10.984
63087W        W31505  39.551  31.630   4.167
63088W        W31506  15.818  21.244   2.811
63089W        W31507  34.401  24.011   1.346
63090W        W31508  33.597  39.544  12.504
63091W        W31509  22.739   2.897  14.356
63092W        W31510   2.253   7.292   0.955
63093W        W31511  13.618  42.428   0.305
63094W        W31512  42.032  19.149  10.988
63095W        W31513   4.812  21.230  10.494
63096W        W31514  36.864  23.039   0.759
63097W        W31515  24.051  16.810   0.921
63098W        W31516  11.344  16.781  10.948
63099W        W31517  39.010  39.827   2.182
63100W        W31518  19.708   3.940   2.254
63101W        W31519  25.636  18.078   0.380
63102W        W31520  37.449  23.158   2.725
63103W        W31521  42.346  38.968  13.792
63104W        W31522  19.542  19.544  11.922
63105W        W31523  18.062  42.478  10.476
63106W        W31524  17.119  18.272   0.893
63107W        W31525  28.664  10.848   4.315
63108W        W31526   3.724  16.125   3.345
63109W        W31527   4.445   4.299   1.368
63110W        W31528  10.811  17.706   3.285
63111W        W31529  31.492   0.287  14.397
63112W        W31530   2.778   4.771  14.892
63113W        W31531   8.255  38.993  14.368
63114W        W31532  19.049  39.828  14.281
63115W        W31533   5.831   0.478   1.848
63116W        W31534  39.409  22.548  13.819
63117W        W31535  40.426  22.093   1.381
63118W        W31536  30.576  44.298  12.970
63119W        W31537  33.545  42.351   2.810
63120W        W31538  26.638  30.455  11.432
63121W        W31539   2.871   1.774  12.094
63122W        W31540   9.202  18.742   2.759
63123W        W31541  20.706   1.402  11.581
63124W        W31542   9.702   6.898  11.913
63125W        W31543  20.761  37.401   1.370
63126W        W31544  25.965  20.699  12.079
63127W        W31545   7.675  24.602  13.064
63128W        W31546  30.652  34.540  13.321
63129W        W31547  35.551  39.858   3.257
63130W        W31548  41.863  21.172   2.693
63131W        W31549  36.881  28.156   1.352
63132W        W31550  26.630  35.474   2.295
63133W        W31551  17.757  21.123   1.282
63134W        W31552  29.536  39.407   1.340
63135W        W31553  38.516  15.751   3.216
63136W        W31554   3.746  29.070   1.211
63137W        W31555  42.022   3.313  12.419
63138W        W31556  40.824  11.636   3.854
63139W        W31557  37.487  15.211   1.739
63140W        W31558   9.690  15.115  14.509
63141W        W31559   9.757  12.308  11.390
63142W        W31560  13.702  44.358  14.936
63143W        W31561  20.175  21.141  13.429
63144W        W31562  42.984  17.760   0.797
63145W        W31563  16.621  37.952  11.541
63146W        W31564   5.317  41.977  11.538
63147W        W31565  20.263  23.525   4.614
63148W        W31566   7.668  26.100   1.333
63149W        W31567  23.697  33.442   2.794
63150W        W31568  13.680  15.259   1.422
63151W        W31569  27.532  27.571  14.982
63152W        W31570  44.851  22.730   2.201
63153W        W31571  29.100  13.751   4.168
63154W        W31572  29.564  24.592   3.759
63155W        W31573  16.199  18.272   4.695
63156W        W31574  42.515  34.032  12.089
63157W        W31575  22.124  10.245  14.922
63158W        W31576  32.614  30.944  14.501
63159W        W31577   9.741  23.561  12.521
63160W        W31578  23.045  21.228   0.261
63161W        W31579   2.452  17.669   0.471
63162W        W31580  29.518  44.859   2.393
63163W        W31581  38.926  30.163  12.526
63164W        W31582  25.217   6.343   3.291
63165W        W31583  14.239  38.009  13.487
63166W        W31584  21.515  32.468  12.439
63167W        W31585  39.016   0.258   3.750
63168W        W31586  19.158  36.905   4.278
63169W        W31587  40.047  13.620   4.350
63170W        W31588  39.910   7.777  14.455
63171W        W31589  28.054  37.508  14.804
63172W        W31590  43.453  19.082   0.247
63173W        W31591  36.874  33.387  14.824
63174W        W31592  43.824  13.621   5.320
63175W        W31593  32.508  22.127   3.224
63176W        W31594  23.626  11.655   0.773
63177W        W31595  25.707  23.611  11.594
63178W        W31596  41.366  18.762   5.321
63179W        W31597  18.181  29.501  10.955
63180W        W31598  44.478  15.705   1.412
63181W        W31599  35.052  19.196   4.639
63182W        W31600  29.023   9.263   0.826
63183W        W31601  17.667  43.936   3.721
63184W        W31602   2.851   3.414  12.565
63185W        W31603  12.336  23.172   1.783
63186W        W31604   5.826  40.485  13.027
63187W        W31605  38.333   6.844   4.307
63188W        W31606  14.281  17.293   4.682
63189W        W31607   4.724   1.270  12.432
63190W        W31608  41.513  28.513   4.351
63191W        W31609  31.563  16.298  11.030
63192W        W31610   4.319  41.512   0.777
63193W        W31611  35.005  44.800  13.322
63194W        W31612   1.856  33.452  14.000
63195W        W31613  27.014   7.701   5.299
63196W        W31614  23.679  27.499  12.875
63197W        W31615  18.639  28.477  13.536
63198W        W31616   8.703   6.399  14.388
63199W        W31617  28.489  29.135   4.200
63200W        W31618  21.521  22.196   2.720
63201W        W31619  43.880   7.346  11.872
63202W        W31620  26.600   7.763  14.305
63203W        W31621  12.234  36.067   0.966
63204W        W31622  37.830  29.992  14.785
63205W        W31623   7.312  12.170  12.359
63206W        W31624  27.574   7.370   5.205
63207W        W31625  34.050  14.598  12.985
63208W        W31626  35.868   0.488  12.846
63209W        W31627  44.412   8.324   3.334
63210W        W31628  27.460  34.527   2.825
63211W        W31629  37.922  38.955  10.637
63212W        W31630   8.857  13.208  12.093
63213W        W31631  43.840  23.550  13.488
63214W        W31632  28.988  30.164   2.321
63215W        W31633   5.877  11.197   4.138
63216W        W31634  39.545  33.419  14.392
63217W        W31635  29.511  11.357  13.986
63218W        W31636  27.619  32.618  10.545
63219W        W31637  23.134  32.465  11.873
63220W        W31638  41.466  12.343   3.381
63221W        W31639  16.159  18.079   0.283
63222W        W31640  37.925  28.929  12.487
63223W        W31641  27.498  27.467  11.517
63224W        W31642  30.068  33.382  13.503
63225W        W31643   1.357   3.230  11.975
63226W        W31644  38.561  28.938  11.873
63227W        W31645  14.203   2.966   4.177
63228W        W31646  35.883  29.049  10.996
63229W        W31647   3.907  24.522  12.000
63230W        W31648  39.041  18.246   0.846
63231W        W31649   0.327  22.079  11.384
63232W        W31650  11.222  40.398   1.278
63233W        W31651  38.035  40.448  12.362
63234W        W31652  14.095  25.157  12.944
63235W        W31653  29.056  10.700   1.929
63236W        W31654  41.449   4.261  13.815
63237W        W31655  37.831  33.624   2.184
63238W        W31656   0.918   2.420  11.989
63239W        W31657  12.306  28.648  13.314
63240W        W31658  42.305  14.135   5.791
63241W        W31659  25.542   4.768   3.807
63242W        W31660  23.228  28.046   3.760
63243W        W31661  10.288  31.969  10.151
63244W        W31662  38.895   0.944  12.896
63245W        W31663  16.075   8.193   0.734
63246W        W31664  27.457  26.551   1.220
63247W        W31665  41.508  27.589   4.264
63248W        W31666   6.326  14.773  14.511
63249W        W31667   6.382  14.181   2.252
63250W        W31668   2.741  29.607   1.222
63251W        W31669  20.266  29.922   2.303
63252W        W31670  28.018  37.860  14.499
63253W        W31671  17.614  17.199   4.732
63254W        W31672  35.600  22.671   3.356
63255W        W31673  43.403  40.845  13.812
63256W        W31674  20.539  14.098  12.545
63257W        W31675  37.435   5.751  11.915
63258W        W31676   8.759  14.674   1.317
63259W        W31677   1.762  37.517  14.012
63260W        W31678  41.309  33.877   4.721
63261W        W31679  22.066  23.061  11.072
63262W        W31680   0.361   9.883  10.512
63263W        W31681   3.385  20.247   2.679
63264W        W31682  12.686  29.048   1.421
63265W        W31683   9.783  33.107   4.778
63266W        W31684  37.505  19.700  12.933
63267W        W31685  38.920   0.827   0.458
63268W        W31686  15.094  34.491   4.627
63269W        W31687   0.272  11.775  13.363
63270W        W31688   8.379  15.731   1.896
63271W        W31689  17.086  25.522   2.178
63272W        W31690   3.442  41.856   3.203
63273W        W31691  14.626  12.324  14.433
63274W        W31692  26.641  17.228   4.651
63275W        W31693   3.894  29.923  14.828
63276W        W31694  18.158   8.895   1.220
63277W        W31695   4.400  37.549   3.651
63278W        W31696  42.290  35.596   4.264
63279W        W31697  26.513   5.411  11.383
63280W        W31698   6.784  37.981   4.635
63281W        W31699  23.492  15.267  13.999
63282W        W31700  42.971  41.486  11.109
63283W        W31701  29.944   0.489  12.019
63284W        W31702  10.328  26.104   2.372
63285W        W31703  19.223  16.770  12.992
63286W        W31704  40.996   2.806   4.175
63287W        W31705  18.595  41.797   1.410
63288W        W31706  41.520  28.994   3.191
63289W        W31707   0.818  14.800  10.950
63290W        W31708  21.631  40.932   2.793
63291W        W31709  16.686  30.514  12.948
63292W        W31710  40.902  41.875  11.074
63293W        W31711   6.920  35.524  11.586
63294W        W31712  34.936  36.418   2.354
63295W        W31713  36.366   1.761  10.116
63296W        W31714  30.134  35.089  11.377
63297W        W31715  16.215  43.442  12.903
63298W        W31716  16.238  42.023   4.657
63299W        W31717  13.745  44.940   0.372
63300W        W31718  13.140  35.581  12.843
63301W        W31719  34.027  19.272   3.359
63302W        W31720  26.180  36.083   1.855
63303W        W31721  18.251  26.495   4.310
63304W        W31722  32.127   0.443   4.311
63305W        W31723  43.385  39.959   2.745
63306W        W31724  19.093  10.734  11.049
63307W        W31725  32.576  43.508  13.539
63308W        W31726  33.435  24.161  13.045
63309W        W31727  34.415  42.378  10.955
63310W        W31728   6.288  22.249  14.867
63311W        W31729  34.489  34.974   2.863
63312W        W31730  33.581  44.317   1.728
63313W        W31731  14.099   1.955   3.742
63314W        W31732  24.020  23.192   2.408
63315W        W31733  31.071   5.272  10.894
63316W        W31734   2.350   6.758   0.402
63317W        W31735  31.006   4.415   4.599
63318W        W31736  23.143  15.736   1.839
63319W        W31737  13.716   6.765   2.791
63320W        W31738   9.882  25.121  13.850
63321W        W31739  40.938   9.765   0.482
63322W        W31740  38.849   1.355  13.325
63323W        W31741   9.241  34.483   5.217
63324W        W31742  18.196   0.479   3.738
63325W        W31743  20.698   6.720   0.436
63326W        W31744  33.413   0.439  10.933
63327W        W31745  12.274   4.701  14.010
63328W        W31746  21.184  26.124   3.702
63329W        W31747   0.355  23.608  11.525
63330W        W31748  40.487  25.107   1.243
63331W        W31749  22.534   7.762   0.465
63332W        W31750  18.159  14.227   0.287
63333W        W31751  44.313  26.528   1.249
63334W        W31752   0.899  42.403  11.034
63335W        W31753  35.854  20.689  10.468
63336W        W31754  36.448  24.671  11.498
63337W        W31755   4.346  26.014   3.782
63338W        W31756  39.548  27.546  14.950
63339W        W31757  44.889  21.155  13.974
63340W        W31758  33.128   1.482  14.283
63341W        W31759  40.506  38.557   1.313
63342W        W31760  12.192  34.533  13.958
63343W        W31761  34.596  32.511   4.326
63344W        W31762  32.490  35.470   2.257
63345W        W31763  14.771  24.647   0.467
63346W        W31764  26.568  37.396   1.295
63347W        W31765  37.486  29.155   3.224
63348W        W31766   3.319  13.128   4.344
63349W        W31767  16.091  13.761  14.344
63350W        W31768  41.312  39.952   1.809
63351W        W31769  20.069  22.722  14.509
63352W        W31770  33.887   7.339  11.875
63353W        W31771  15.731   4.278  13.350
63354W        W31772  23.601   8.882  13.998
63355W        W31773  33.511  13.682  13.942
63356W        W31774  38.027  35.506   2.764
63357W        W31775  21.173  37.510   2.383
63358W        W31776   8.269  27.979   0.906
63359W        W31777   7.206  34.892   1.371
63360W        W31778  33.464  11.671  14.002
63361W        W31779  28.989  28.556  14.012
63362W        W31780  17.722  36.042  13.856
63363W        W31781  13.189  17.194   1.721
63364W        W31782   9.219   5.778   1.908
63365W        W31783   0.843  28.585   0.861
63366W        W31784  34.958  26.474  10.510
63367W        W31785  10.662   8.254  10.594
63368W        W31786  40.329  29.465  14.776
63369W        W31787  19.282  23.080   4.720
63370W        W31788  14.276   9.881   4.640
63371W        W31789  18.633  20.686  10.996
63372W        W31790  43.327  39.949   1.311
63373W        W31791   2.947   4.853   2.849
63374W        W31792  10.371  27.619   2.850
63375W        W31793  12.147  20.549  13.993
63376W        W31794  23.682   4.273  14.360
63377W        W31795  15.759   8.261   4.821
63378W        W31796  29.429  19.643   3.265
63379W        W31797  41.854  23.186  13.021
63380W        W31798  21.555  18.756  14.367
63381W        W31799  39.422   2.292  14.886
63382W        W31800  43.352   0.351   2.270
63383W        W31801   6.233   6.819  14.961
63384W        W31802  16.166  23.549   4.685
63385W        W31803  41.807   5.785   3.722
63386W        W31804  18.058  36.874   1.283
63387W        W31805   4.700  28.674  13.328
63388W        W31806  21.236  14.609  14.818
63389W        W31807  10.718   8.793  12.049
63390W        W31808  26.116  19.156   3.199
63391W        W31809  29.111  38.877  14.026
63392W        W31810  41.484  39.322   3.797
63393W        W31811  31.910   0.286   3.647
63394W        W31812  39.533  24.061   1.404
63395W        W31813   0.451  35.890   2.763
63396W        W31814   9.361   1.887   3.638
63397W        W31815   3.356   5.321  10.572
63398W        W31816   4.289  31.437  13.457
63399W        W31817  36.973  23.680   0.733
63400W        W31818  43.826  22.733   5.095
63401W        W31819   5.845  32.406  13.814
63402W        W31820   7.728   9.195  13.319
63403W        W31821  23.576  17.665  12.997
63404W        W31822  24.163  26.512   9.990
63405W        W31823  28.087  33.027   4.261
63406W        W31824  16.717  26.502   0.961
63407W        W31825   1.944  41.844   2.900
63408W        W31826  28.568  31.915  10.957
63409W        W31827  12.617   9.222   0.459
63410W        W31828   7.835   1.373   3.720
63411W        W31829  28.100  19.661   1.337
63412W        W31830  10.681   1.404  10.539
63413W        W31831  11.346   7.228  14.832
63414W        W31832   1.969  33.992  11.077
63415W        W31833  20.213   9.880   2.376
63416W        W31834  14.242  11.679   4.815
63417W        W31835  23.036  21.140   2.244
63418W        W31836  35.878  31.955   4.344
63419W        W31837   9.674  37.366   2.409
63420W        W31838  18.588  21.181  14.821
63421W        W31839  17.720   8.401  14.942
63422W        W31840  39.426   5.789   1.709
63423W        W31841  18.215  16.117   4.138
63424W        W31842  30.126  30.938   4.826
63425W        W31843   5.409  26.580  13.422
63426W        W31844  43.301   7.187   4.724
63427W        W31845  22.623  42.909   4.684
63428W        W31846  43.346  28.641  12.055
63429W        W31847  43.510   8.297  13.467
63430W        W31848  19.582  26.689   1.923
63431W        W31849  36.910   2.808  13.938
63432W        W31850  27.190  13.178  12.350
63433W        W31851  42.971  38.503   3.868
63434W        W31852  34.033   6.830   2.231
63435W        W31853  42.384  10.218  14.853
63436W        W31854   9.159  17.181   3.670
63437W        W31855  34.393  36.524   4.636
63438W        W31856  44.907  29.009   3.150
63439W        W31857  39.445  10.808  14.400
63440W        W31858  18.672  35.082   0.291
63441W        W31859  41.434  11.315   3.272
63442W        W31860   4.726  40.529   2.730
63443W        W31861  42.006   2.892   0.282
63444W        W31862  44.269  43.888  13.477
63445W        W31863  15.623  30.019  14.797
63446W        W31864  41.316   8.669  13.853
63447W        W31865  23.708   3.296   1.724
63448W        W31866  36.496  41.934   4.643
63449W        W31867   0.777  30.607  11.043
63450W        W31868  33.472  29.550  11.528
63451W        W31869  42.292  27.611   4.152
63452W        W31870   9.690  44.885  12.414
63453W        W31871  36.846  39.409  11.897
63454W        W31872  41.916  35.569  13.998
63455W        W31873  28.484   1.317   2.394
63456W        W31874  22.741  29.666  14.411
63457W        W31875  19.636  24.011   4.619
63458W        W31876  24.636  31.976   4.123
63459W        W31877   7.876  11.156  11.543
63460W        W31878  43.454   1.869   2.738
63461W        W31879  33.521  32.942  12.493
63462W        W31880  22.511  21.160  12.009
63463W        W31881  38.562   6.899  11.397
63464W        W31882  31.579  37.992   1.442
63465W        W31883   4.738   0.978   2.752
63466W        W31884  20.248   3.265  10.618
63467W        W31885  16.117  42.784  14.787
63468W        W31886   6.332   2.284  11.122
63469W        W31887  39.040  40.972  14.003
63470W        W31888  17.715  16.715  10.440
63471W        W31889  19.232  13.190   0.257
63472W        W31890  19.568  27.025   2.863
63473W        W31891  14.753   6.230  10.526
63474W        W31892  44.911  12.809   5.255
63475W        W31893  21.537   7.742   4.744
63476W        W31894  30.002  31.914   3.857
63477W        W31895  44.355  43.843   1.396
63478W        W31896  43.287  32.559  11.936
63479W        W31897  24.637  22.047   3.148
63480W        W31898   5.371   1.824  14.374
63481W        W31899   2.235  24.139   1.694
63482W        W31900  40.028  13.832   1.905
63483W        W31901   1.859  14.743  10.969
63484W        W31902  37.427  13.192  12.084
63485W        W31903   6.879  22.690   0.323
63486W        W31904  42.447  29.552  11.866
63487W        W31905  36.855  18.145  12.541
63488W        W31906  34.010  30.165  13.369
63489W        W31907   8.193  19.579  10.451
63490W        W31908  33.129  29.170  12.539
63491W        W31909  31.152  33.399   4.343
63492W        W31910   8.716  25.539   2.301
63493W        W31911   3.854  32.550   1.267
63494W        W31912  28.649  11.759   1.362
63495W        W31913  16.211  40.909   1.823
63496W        W31914  32.456   6.207   3.759
63497W        W31915  16.598   8.887  11.021
63498W        W31916   2.250  16.807  13.817
63499W        W31917  14.594  23.071  11.532
63500W        W31918  18.766  35.505   0.447
63501W        W31919  44.998  40.392   2.381
63502W        W31920  29.605  43.934  11.555
63503W        W31921  22.090   3.234  10.470
63504W        W31922  21.076  24.088   2.883
63505W        W31923  22.099   4.945  10.006
63506W        W31924  23.228   7.309   0.936
63507W        W31925  35.090  10.817  13.949
63508W        W31926  41.880  13.703  11.024
63509W        W31927  37.010  15.299  11.566
63510W        W31928   1.859  10.379  10.568
63511W        W31929  19.122  10.278   4.600
63512W        W31930  21.264  23.565   4.754
63513W        W31931  36.479  37.948  12.040
63514W        W31932  41.961   9.857   3.348
63515W        W31933  39.912  31.620  13.439
63516W        W31934  37.953  36.432  14.028
63517W        W31935  12.352  25.658   2.285
63518W        W31936  11.663   9.651   0.360
63519W        W31937  34.083  17.090  11.098
63520W        W31938  38.055  43.515   4.174
63521W        W31939  22.554  39.428  11.867
63522W        W31940   4.880  33.396  13.864
63523W        W31941  35.536  22.518   0.886
63524W        W31942   2.260  38.917  11.467
63525W        W31943  10.667  41.520  10.944
63526W        W31944  14.624  38.029   2.264
63527W        W31945  44.894  16.630  13.342
63528W        W31946  35.399  28.967  13.362
63529W        W31947  26.466  33.523   2.729
63530W        W31948  27.136  17.170  13.803
63531W        W31949  43.495  12.163   2.303
63532W        W31950  14.162  32.037   1.765
63533W        W31951  33.077  24.594  14.441
63534W        W31952   4.749  28.134  12.416
63535W        W31953  19.243  29.924   2.195
63536W        W31954  24.027   4.284   0.475
63537W        W31955   4.726   0.430  11.052
63538W        W31956   0.346  39.887   0.775
63539W        W31957  20.031   2.957   0.274
63540W        W31958  15.188   6.248   3.163
63541W        W31959  13.725  12.719   3.824
63542W        W31960  19.071  20.670  10.464
63543W        W31961  40.526  35.915  12.405
63544W        W31962  23.605  12.295  12.368
63545W        W31963  29.521  32.415  13.951
63546W        W31964  30.921  19.548  14.348
63547W        W31965  11.131  22.070   4.245
63548W        W31966  11.807  27.024  11.047
63549W        W31967  44.441  20.125  14.318
63550W        W31968  36.398  33.974  14.352
63551W        W31969  38.497  31.602   2.235
63552W        W31970  22.692  24.176  14.408
63553W        W31971  20.091  40.408   2.735
63554W        W31972  16.194   3.444   1.802
63555W        W31973  16.576   2.769   3.206
63556W        W31974  30.623   7.911  12.832
63557W        W31975  11.347   1.750   0.750
63558W        W31976  20.113  32.463   4.113
63559W        W31977  39.486  35.982   1.338
63560W        W31978  18.713   9.792  10.974
63561W        W31979   5.741  22.074   2.729
63562W        W31980  27.680  36.493  12.358
63563W        W31981  26.073  31.509  11.891
63564W        W31982  21.255  16.106  11.014
63565W        W31983  43.396  44.369   2.855
63566W        W31984  44.754  19.165  13.980
63567W        W31985  28.638  18.706  11.126
63568W        W31986  33.594  14.600   1.935
63569W        W31987  16.811  37.927   3.699
63570W        W31988  22.083  11.273   3.782
63571W        W31989   5.717  41.296  13.035
63572W        W31990  23.515  29.139   2.666
63573W        W31991  15.713  22.519   3.286
63574W        W31992  43.920  41.506   2.268
63575W        W31993  26.688  16.659  11.573
63576W        W31994   6.208   0.850  12.074
63577W        W31995  19.585  18.089   1.812
63578W        W31996   0.437  36.871   0.884
63579W        W31997   3.361  44.932  11.949
63580W        W31998  10.335  11.162  14.997
63581W        W31999  35.367   8.215  14.413
63582W        W32000  15.794   9.644  12.990
63583W        W32001   0.852  16.693  14.857
63584W        W32002  40.393  37.342   2.700
63585W        W32003  25.572  27.449  13.941
63586W        W32004  42.326   2.454  14.297
63587W        W32005  40.803  19.048   1.450
63588W        W32006  26.637   1.934   0.914
63589W        W32007   9.269  20.746  10.916
63590W        W32008  15.711  33.939  12.029
63591W        W32009  12.223   9.198   4.140
63592W        W32010  39.520  18.277   4.750
63593W        W32011  15.787  31.912   4.229
63594W        W32012  39.374  32.097  10.475
63595W        W32013  29.963  42.963   3.223
63596W        W32014   9.229  24.070   2.896
63597W        W32015  21.260  40.330   0.283
63598W        W32016  43.309  18.604   4.673
63599W        W32017   0.334  18.662  13.829
63600W        W32018  10.266  27.622  13.313
63601W        W32019   6.363  37.885   2.178
63602W        W32020  30.487   9.372   3.218
63603W        W32021   7.754   1.369   3.151
63604W        W32022  17.789  25.609   4.713
63605W        W32023  41.474  21.588  10.958
63606W        W32024  10.755  37.526  14.818
63607W        W32025   6.722   0.828   3.195
63608W        W32026  43.999  17.285  11.015
63609W        W32027  18.104  34.370  11.435
63610W        W32028  18.790  37.533   1.874
63611W        W32029  11.625  29.139   2.336
63612W        W32030  18.285  19.096   1.346
63613W        W32031   5.836  31.995  11.398
63614W        W32032  12.835   9.846  14.834
63615W        W32033   6.712  42.842  12.576
63616W        W32034  30.606   6.847   4.656
63617W        W32035  39.048  11.189   4.271
63618W        W32036  20.697  37.912  11.108
63619W        W32037  13.224  25.516   1.435
63620W        W32038  43.410  40.543   2.181
63621W        W32039   0.294  34.929   2.413
63622W        W32040   4.926  14.834   1.869
63623W        W32041  30.034  26.609   2.203
63624W        W32042  11.175  33.596   3.197
63625W        W32043  26.693  33.104   0.880
63626W        W32044  32.930   0.371   3.817
63627W        W32045  26.158  10.851  14.407
63628W        W32046  23.191  34.116   0.896
63629W        W32047  29.471   5.770  12.046
63630W        W32048  31.106   3.457   3.193
63631W        W32049  25.492  20.555   1.855
63632W        W32050  35.978  23.150   1.910
63633W        W32051  42.028  31.915   1.384
63634W        W32052  40.476  16.755   0.344
63635W        W32053  26.980   4.726   4.819
63636W        W32054  27.557  15.580   3.339
63637W        W32055   9.391  18.113   4.744
63638W        W32056  22.122   7.767   4.778
63639W        W32057  40.539  30.146   3.373
63640W        W32058   8.836   7.216   3.256
63641W        W32059  36.862  21.084   2.897
63642W        W32060  23.118   6.744   0.301
63643W        W32061   0.412  41.987  11.948
63644W        W32062  15.739  11.359  11.860
63645W        W32063  29.038  21.057  11.105
63646W        W32064  10.756  35.018  10.559
63647W        W32065   3.801  34.536   4.740
63648W        W32066   2.772  15.682  11.584
63649W        W32067   1.857  36.999   2.714
63650W        W32068   9.165  14.737   3.206
63651W        W32069  17.230  22.557   2.267
63652W        W32070  27.016  38.860   0.796
63653W        W32071  22.230   6.214   4.136
63654W        W32072  43.510  35.445  12.420
63655W        W32073  34.900  37.897   5.138
63656W        W32074   7.716  17.111   1.866
63657W        W32075  24.643  37.954   1.366
63658W        W32076  44.993  22.206  13.361
63659W        W32077   9.277   7.230   2.708
63660W        W32078   8.774   5.199   2.402
63661W        W32079  34.881  32.396  12.993
63662W        W32080  24.124  39.328  10.938
63663W        W32081  41.299   9.644  13.527
63664W        W32082  19.074  19.172  13.015
63665W        W32083  38.928  15.258   2.408
63666W        W32084  41.354  35.062  10.567
63667W        W32085   6.831  21.557  12.531
63668W        W32086   1.423  31.591  14.446
63669W        W32087  22.527  34.439  13.948
63670W        W32088  37.530  30.474   4.156
63671W        W32089  37.363  14.678   3.171
63672W        W32090   9.686   8.864  11.525
63673W        W32091  32.411   3.819   3.176
63674W        W32092   5.397  36.514  14.391
63675W        W32093   5.880   3.857   0.379
63676W        W32094  19.751  44.412   3.296
63677W        W32095  30.657  16.706   4.612
63678W        W32096  33.087  11.848  13.019
63679W        W32097  22.109  25.711   3.719
63680W        W32098  19.200  30.059  10.432
63681W        W32099   4.775  12.638   2.347
63682W        W32100   1.382  19.186   5.125
63683W        W32101  21.244  39.832   5.116
63684W        W32102   4.861  25.639   0.964
63685W        W32103  10.251  15.101  13.508
63686W        W32104  38.840   1.423   2.671
63687W        W32105  18.292  41.374  11.127
63688W        W32106  43.381  11.208  14.393
63689W        W32107  39.044  20.686   9.939
63690W        W32108  35.012  41.354   2.691
63691W        W32109  19.160  28.657   0.448
63692W        W32110  27.065  34.407   3.691
63693W        W32111  38.985  25.209   2.860
63694W        W32112   7.351  15.315   2.875
63695W        W32113  19.537  37.409   1.907
63696W        W32114   3.931  20.092  12.072
63697W        W32115  31.525   4.773  12.352
63698W        W32116  25.121  36.993   2.368
63699W        W32117  36.877  22.025  10.444
63700W        W32118  28.580  36.424   2.669
63701W        W32119  20.736  11.864   0.921
63702W        W32120  43.347  32.959   4.255
63703W        W32121   9.377   4.780   4.207
63704W        W32122  12.773  24.200  13.446
63705W        W32123  24.994  22.614   0.285
63706W        W32124  39.558   1.747   0.443
63707W        W32125  10.189   0.759   5.236
63708W        W32126  12.345  29.605   3.375
63709W        W32127  11.372  14.135  14.406
63710W        W32128   5.388  36.927   0.328
63711W        W32129  34.088  17.718   4.121
63712W        W32130  43.794  14.180   3.254
63713W        W32131   9.764  42.014   3.863
63714W        W32132  35.588  21.751  11.908
63715W        W32133  21.223  10.811  12.459
63716W        W32134   0.282   1.334   1.840
63717W        W32135  44.835   7.667  12.947
63718W        W32136  17.798  13.610   5.690
63719W        W32137  12.362  36.869  11.946
63720W        W32138  13.308  43.919  14.514
63721W        W32139  28.186  10.770  11.077
63722W        W32140  10.640  37.399  14.448
63723W        W32141  17.134  29.159  10.953
63724W        W32142  37.068   4.368   0.446
63725W        W32143  29.956  36.071  12.501
63726W        W32144  16.715  33.078   3.683
63727W        W32145  12.763  32.521  14.912
63728W        W32146  18.670  39.964  13.394
63729W        W32147   7.318  38.333  14.973
63730W        W32148  29.996  29.519  13.341
63731W        W32149  32.569  38.556   3.785
63732W        W32150   6.888   5.717  12.340
63733W        W32151   3.241  41.897   1.367
63734W        W32152  44.368  26.134  10.987
63735W        W32153  18.192  21.099  11.589
63736W        W32154  28.616  15.794   2.207
63737W        W32155   9.314  27.627  14.020
63738W        W32156   1.954  21.651   3.342
63739W        W32157   7.385  38.396   1.745
63740W        W32158   1.360  19.779  11.572
63741W        W32159   0.865  25.128   1.350
63742W        W32160   0.488   0.778   2.275
63743W        W32161  19.596  39.325  13.808
63744W        W32162  24.208  12.239   1.791
63745W        W32163  14.612  34.536   5.287
63746W        W32164  42.526  21.252   4.198
63747W        W32165  27.574   8.661  10.968
63748W        W32166  41.895   5.408   0.906
63749W        W32167  32.463  16.106  10.610
63750W        W32168  38.403   6.228  10.531
63751W        W32169  28.584  21.257   1.237
63752W        W32170  31.556  12.636   4.648
63753W        W32171  40.938  31.500  14.360
63754W        W32172  17.582   4.284  10.521
63755W        W32173  40.374   3.404  11.010
63756W        W32174  28.186   3.869   0.321
63757W        W32175  44.845  43.918  12.352
63758W        W32176  37.390   9.353  14.403
63759W        W32177  25.672  44.000   2.291
63760W        W32178  19.535  28.162  13.441
63761W        W32179   1.885  12.634  14.423
63762W        W32180   9.652  21.077   1.868
63763W        W32181  44.331   9.725  10.537
63764W        W32182  12.121  18.075   3.853
63765W        W32183  17.282  38.831  14.959
63766W        W32184   0.422  12.657  12.926
63767W        W32185  38.382  10.819   1.251
63768W        W32186  28.489  11.732   3.276
63769W        W32187  43.802  11.365   0.355
63770W        W32188  42.396  33.966  13.844
63771W        W32189  25.047  24.485  13.932
63772W        W32190  21.649  41.793  13.824
63773W        W32191  15.625  17.776   1.806
63774W        W32192  21.738  13.745  11.592
63775W        W32193  35.986  16.293  14.457
63776W        W32194  29.447  36.997   1.818
63777W        W32195  19.128  24.536   0.874
63778W        W32196  24.693   6.324   2.346
63779W        W32197  27.009   1.352  13.471
63780W        W32198  44.824   2.250  13.838
63781W        W32199  16.220  37.035   4.807
63782W        W32200  43.326   7.816  12.856
63783W        W32201  44.956   7.743  14.966
63784W        W32202  35.041  33.989   1.845
63785W        W32203  35.585  21.562  13.331
63786W        W32204   2.352  20.620   2.691
63787W        W32205  28.585  21.536   3.648
63788W        W32206  41.295   4.246   4.115
63789W        W32207  23.211  16.134   3.867
63790W        W32208  29.170  41.014   4.751
63791W        W32209  38.488  31.907  13.516
63792W        W32210  35.420  13.330  14.837
63793W        W32211  43.774  18.620   3.834
63794W        W32212   7.405  19.201   1.252
63795W        W32213  22.083  16.568  12.903
63796W        W32214   2.412  28.102   4.258
63797W        W32215  24.013  19.605   1.371
63798W        W32216  17.163  35.876  10.599
63799W        W32217  36.093  36.099  11.551
63800W        W32218  28.067   4.945  14.843
63801W        W32219  25.991  42.012   2.264
63802W        W32220   8.357   8.183   0.948
63803W        W32221  34.558  19.248  13.904
63804W        W32222  27.171   9.349  10.900
63805W        W32223  42.292  12.174   3.237
63806W        W32224  32.024  18.171  10.574
63807W        W32225  22.031  24.574  10.623
63808W        W32226  32.447  10.769  11.990
63809W        W32227  29.510  15.180  14.830
63810W        W32228  15.814  42.866  11.070
63811W        W32229  37.978   4.300  12.540
63812W        W32230  42.520  21.714  13.812
63813W        W32231  36.852   6.713  11.903
63814W        W32232   3.786  35.491  12.023
63815W        W32233  22.548  33.978   1.762
63816W        W32234  19.734  10.705  10.993
63817W        W32235  43.945  13.273   3.207
63818W        W32236   6.751  28.004   4.349
63819W        W32237  34.607  28.066   3.210
63820W        W32238  20.054  43.466   3.858
63821W        W32239   8.386  22.020  14.301
63822W        W32240  29.559   4.288   0.436
63823W        W32241  30.917  30.125   0.308
63824W        W32242  28.963  14.244  12.876
63825W        W32243  28.551  10.146   3.359
63826W        W32244   7.803   2.424  14.766
63827W        W32245  39.931   5.779   4.225
63828W        W32246  14.219  42.869   0.388
63829W        W32247  42.959  28.502  11.500
63830W        W32248   6.914  11.128   1.301
63831W        W32249  34.918  30.092  14.295
63832W        W32250  26.646   2.395   1.806
63833W        W32251  34.915  31.447   2.229
63834W        W32252  20.129   9.259   2.749
63835W        W32253  11.345  17.157  14.367
63836W        W32254   9.690  15.695   1.403
63837W        W32255  30.527  16.661   2.780
63838W        W32256  37.859  25.995  10.602
63839W        W32257  37.933   9.255   1.718
63840W        W32258  13.325  27.064   3.323
63841W        W32259  26.029   5.850  11.966
63842W        W32260   0.297  37.953  14.759
63843W        W32261  30.911  40.927   0.363
63844W        W32262  19.109   1.324  11.511
63845W        W32263  10.196  24.223   3.797
63846W        W32264  13.621  26.030   3.710
63847W        W32265  37.894  39.480   0.256
63848W        W32266  28.174   0.837  12.406
63849W        W32267   2.740   6.402  13.523
63850W        W32268  36.857  35.541  11.529
63851W        W32269  32.082  40.024  11.398
63852W        W32270  35.036  24.586   4.293
63853W        W32271  30.072  11.671   0.253
63854W        W32272  41.433  20.573   1.322
63855W        W32273  26.004   6.844  13.408
63856W        W32274  11.247  36.449  14.787
63857W        W32275  38.003   3.273  13.509
63858W        W32276  24.133  23.720   4.633
63859W        W32277  40.329   7.817  12.449
63860W        W32278  33.516  26.573   0.341
63861W        W32279  30.945  42.405   1.823
63862W        W32280  37.974  39.042  12.465
63863W        W32281   0.846  22.153  12.859
63864W        W32282  36.354   2.780  11.565
63865W        W32283  43.313  21.261   3.370
63866W        W32284  32.492  22.682   3.283
63867W        W32285   3.403   8.275  11.446
63868W        W32286  41.899  15.742  12.555
63869W        W32287  41.798  35.912   0.950
63870W        W32288  21.185   6.915  11.456
63871W        W32289   6.824  29.546   3.648
63872W        W32290  37.045   8.766  11.868
63873W        W32291  29.061  12.612   4.681
63874W        W32292  33.385  13.763  10.888
63875W        W32293  31.082  16.660  14.421
63876W        W32294  37.864  21.621  11.447
63877W        W32295  30.530  18.150   2.738
63878W        W32296  17.629  36.547  12.866
63879W        W32297  28.481  32.460   4.833
63880W        W32298  32.475   5.405  13.338
63881W        W32299  25.600  26.478  12.389
63882W        W32300   2.418  43.476   0.467
63883W        W32301  28.633  35.089   2.766
63884W        W32302  30.600  42.916  13.862
63885W        W32303   4.870  28.504  12.469
63886W        W32304   3.781  43.974  10.483
63887W        W32305  44.385  44.989  14.803
63888W        W32306  42.386  32.093   4.306
63889W        W32307   4.806   7.710   2.777
63890W        W32308  16.073  10.633  10.459
63891W        W32309   8.260   4.404  12.401
63892W        W32310  29.629  39.049  14.850
63893W        W32311   2.347  11.197   1.265
63894W        W32312  16.166  16.142   4.720
63895W        W32313   1.406   3.727   3.258
63896W        W32314  14.119  18.110  13.063
63897W        W32315  38.012   8.331   3.785
63898W        W32316  11.241  26.055  14.424
63899W        W32317  37.484  25.012   1.238
63900W        W32318  18.078   0.808  11.079
63901W        W32319  20.618  44.921   4.246
63902W        W32320  14.312   7.287  14.386
63903W        W32321  41.002   0.912   3.739
63904W        W32322  42.442  24.185  14.829
63905W        W32323  36.504  13.292  14.367
63906W        W32324  21.714  16.078  10.532
63907W        W32325  16.572  13.280   5.606
63908W        W32326  26.597  38.935   0.481
63909W        W32327  29.633  14.256   0.784
63910W        W32328  38.347  10.837   3.190
63911W        W32329  31.961  11.142   1.876
63912W        W32330  17.128  18.571   4.326
63913W        W32331   1.838   6.384   0.385
63914W        W32332   4.250  21.107   0.960
63915W        W32333  32.115   7.766   5.119
63916W        W32334  11.738   1.912   3.750
63917W        W32335  43.016  25.193  11.053
63918W        W32336  36.370   7.810   1.449
63919W        W32337  18.121  16.781  10.549
63920W        W32338   8.780   8.871   2.875
63921W        W32339  39.841   4.782  13.063
63922W        W32340   6.388  17.066   3.326
63923W        W32341  21.032  33.404  13.990
63924W        W32342  23.167   2.726   2.268
63925W        W32343  20.580  32.066   5.303
63926W        W32344   1.892  37.559   1.745
63927W        W32345  38.494  15.662  10.516
63928W        W32346  43.305  20.597   4.200
63929W        W32347   4.404  29.634  14.505
63930W        W32348   8.894  32.463   0.398
63931W        W32349   4.865  27.480  11.607
63932W        W32350   9.367   1.238  11.505
63933W        W32351  34.051  31.557  14.804
63934W        W32352  32.476  10.298  10.463
63935W        W32353  30.909  22.086  11.077
63936W        W32354  22.584  13.276  10.597
63937W        W32355   8.881   6.335   1.426
63938W        W32356  17.134  27.113   2.395
63939W        W32357  36.070   5.431  14.312
63940W        W32358   1.962   8.370   2.246
63941W        W32359  25.022  36.926   3.688
63942W        W32360  24.621  43.812  12.922
63943W        W32361  20.764  37.935  14.497
63944W        W32362   6.363  41.506  10.503
63945W        W32363  38.052  40.972  10.505
63946W        W32364   0.348  36.419   2.290
63947W        W32365  33.939  13.705  14.856
63948W        W32366  25.691  28.954   3.342
63949W        W32367  26.622  36.962   3.750
63950W        W32368  35.052  19.104   2.306
63951W        W32369  42.450  38.495   5.229
63952W        W32370  14.765   1.795   2.681
63953W        W32371   2.391   5.817   0.842
63954W        W32372  32.488  20.571  10.946
63955W        W32373   2.734  11.150  14.515
63956W        W32374   2.226  42.837  11.585
63957W        W32375  34.386   2.776   4.714
63958W        W32376  31.903  43.966  13.322
63959W        W32377   4.425  35.372   2.684
63960W        W32378   3.873   9.244   1.451
63961W        W32379  28.160  44.457   1.424
63962W        W32380  25.610  41.000  10.626
63963W        W32381  41.471  29.534   1.211
63964W        W32382   7.310  11.712  13.876
63965W        W32383  38.822  35.921   2.872
63966W        W32384  22.041   5.897  12.878
63967W        W32385  29.115  34.535   1.697
63968W        W32386   3.796  32.416   3.385
63969W        W32387  39.964   5.765  10.919
63970W        W32388  15.320  21.054  11.075
63971W        W32389  29.610  19.596  11.978
63972W        W32390  20.656  33.057   3.270
63973W        W32391  11.786  16.607   3.721
63974W        W32392  38.955  32.006   2.227
63975W        W32393  43.326  29.458   2.394
63976W        W32394  15.582  16.072   4.757
63977W        W32395  10.161  32.503  12.433
63978W        W32396  36.409  44.379   0.330
63979W        W32397  25.685  40.801   3.202
63980W        W32398   4.770  27.191  10.438
63981W        W32399   7.847  20.142   4.205
63982W        W32400   8.173  11.854  12.535
63983W        W32401  11.649  25.481  13.891
63984W        W32402  29.015  15.315  13.992
63985W        W32403  41.007  23.681   4.132
63986W        W32404  14.334  18.691  12.529
63987W        W32405   4.871   2.283  14.789
63988W        W32406  10.681   8.791   2.837
63989W        W32407  28.072  32.987   0.944
63990W        W32408   1.736  43.325  13.902
63991W        W32409  11.297  21.543   0.744
63992W        W32410  21.622  21.516   3.148
63993W        W32411  15.704   1.869  12.491
63994W        W32412  40.369  41.903  14.004
63995W        W32413  24.099  28.145   0.882
63996W        W32414   3.752  19.264  14.877
63997W        W32415  22.218   0.829   1.762
63998W        W32416  10.258  38.909   0.949
63999W        W32417  42.388   8.278  10.973
64000W        W32418  11.859   8.387  12.515
64001W        W32419  41.798  37.832  13.013
64002W        W32420   1.929  24.636   0.329
64003W        W32421  14.764  29.089   0.467
64004W        W32422  34.963   3.855   4.767
64005W        W32423  36.877  25.609  14.796
64006W        W32424  21.749   1.781  13.354
64007W        W32425  24.134   7.763  11.520
64008W        W32426   5.877   0.255  11.962
64009W        W32427   5.302  40.025   2.303
64010W        W32428  21.615  36.917  11.875
64011W        W32429   5.851  28.653   3.645
64012W        W32430  18.611  21.256   1.449
64013W        W32431  29.003   5.795  11.910
64014W        W32432  36.427   9.235  14.023
64015W        W32433  20.684  38.856  14.874
64016W        W32434  32.556  26.546   3.672
64017W        W32435  12.802  42.823   2.258
64018W        W32436   3.776  26.519   3.260
64019W        W32437  16.648  44.267   3.708
64020W        W32438   5.718  11.320   4.664
64021W        W32439  26.665   8.846   9.442
64022W        W32440  13.119  35.600  11.128
64023W        W32441   9.744  17.738  11.493
64024W        W32442   5.257  11.196   4.819
64025W        W32443   8.786  31.461   2.276
64026W        W32444  18.550   1.756   2.684
64027W        W32445  34.110   2.448  10.910
64028W        W32446  30.504  41.498  11.007
64029W        W32447  15.102  12.631  14.997
64030W        W32448  30.951  23.577  11.450
64031W        W32449  40.047  39.437  11.978
64032W        W32450  41.864  24.082   5.120
64033W        W32451  14.203  20.164   4.333
64034W        W32452  26.999  18.578  11.431
64035W        W32453   2.898   1.392   2.395
64036W        W32454   0.288  41.460   3.374
64037W        W32455  34.491  22.181   0.826
64038W        W32456   9.805  43.337  13.996
64039W        W32457  31.012  30.916   4.807
64040W        W32458  25.597   3.782   2.825
64041W        W32459  12.829  27.498   2.823
64042W        W32460  10.155   5.819  13.500
64043W        W32461  10.691   3.459   2.299
64044W        W32462  24.131  40.993   4.314
64045W        W32463  40.845  20.055   3.244
64046W        W32464  28.119  12.843   4.712
64047W        W32465  19.662  26.034  10.594
64048W        W32466  38.339  26.612  14.481
64049W        W32467  41.901  19.578  14.914
64050W        W32468  32.481  43.429   2.680
64051W        W32469  40.487  28.950   0.342
64052W        W32470  30.135  42.968   9.963
64053W        W32471   6.287  11.170  13.371
64054W        W32472  30.655  34.999   2.811
64055W        W32473  32.127  28.637  12.917
64056W        W32474  44.388  41.322  11.499
64057W        W32475  43.358  30.609   0.375
64058W        W32476  34.031  34.467   3.862
64059W        W32477  39.891  35.378  12.832
64060W        W32478  12.793   8.732   5.272
64061W        W32479   6.688  28.056  10.943
64062W        W32480  17.721  15.137  11.435
64063W        W32481  36.559  37.358   9.996
64064W        W32482  10.296   4.848   0.368
64065W        W32483  37.026   3.828  13.026
64066W        W32484  16.722  42.447   1.836
64067W        W32485  12.186  15.622   4.289
64068W        W32486  27.582  30.151   1.918
64069W        W32487  29.611  42.989  14.981
64070W        W32488  34.512  29.595   0.296
64071W        W32489  38.823   6.405   2.813
64072W        W32490  17.095  44.850   4.674
64073W        W32491  10.839  22.162   3.192
64074W        W32492  27.534   8.214   0.358
64075W        W32493  32.906  13.800  11.531
64076W        W32494   3.785  39.838  11.979
64077W        W32495  23.183  21.561   3.210
64078W        W32496  25.583  43.766   4.174
64079W        W32497  40.003  39.933  12.885
64080W        W32498  21.245  17.219   2.813
64081W        W32499  12.768  30.960   4.831
64082W        W32500  22.606  27.606   0.750
64083W        W32501  34.483  42.338   3.801
64084W        W32502  21.714  33.977  14.865
64085W        W32503  24.034   9.214  13.338
64086W        W32504  23.995  29.149  13.309
64087W        W32505  31.989  29.086  11.972
64088W        W32506   7.706  39.358   2.755
64089W        W32507  29.442  24.215   0.387
64090W        W32508   0.852  31.966   1.868
64091W        W32509  35.496  32.923   0.307
64092W        W32510  40.020  38.865  10.553
64093W        W32511  18.586  42.883   0.803
64094W        W32512   0.906   5.792  13.504
64095W        W32513  30.924   1.282  11.593
64096W        W32514   1.896  36.502  13.394
64097W        W32515  11.622  16.668  13.043
64098W        W32516   7.894  33.600  11.932
64099W        W32517  31.963  21.129   2.414
64100W        W32518   7.274   3.910  13.962
64101W        W32519  15.706  40.400  11.077
64102W        W32520  22.165  39.837  10.571
64103W        W32521   2.431  30.986   1.743
64104W        W32522  44.794  20.658  12.367
64105W        W32523  42.782  20.648  12.859
64106W        W32524  16.089  40.805  13.021
64107W        W32525   6.818  44.765   3.156
64108W        W32526  34.598   9.667  13.022
64109W        W32527  36.949  26.119   0.380
64110W        W32528  23.584  21.204   3.727
64111W        W32529  34.101  21.553   2.269
64112W        W32530  19.533   6.330   3.267
64113W        W32531  34.874  28.584  12.918
64114W        W32532  44.967  31.499   2.383
64115W        W32533  12.619  20.609  11.456
64116W        W32534   5.818   2.787   0.321
64117W        W32535   1.461  18.727   4.706
64118W        W32536  17.284  20.762   1.381
64119W        W32537  36.954  44.425  12.054
64120W        W32538  15.184  13.650  14.307
64121W        W32539   7.807   7.190  10.582
64122W        W32540  37.841   4.350  11.129
64123W        W32541  15.288  43.374  14.327
64124W        W32542   1.774  26.674  12.985
64125W        W32543  38.042   5.727   3.291
64126W        W32544  13.837  35.440   2.339
64127W        W32545  31.463  27.466  14.409
64128W        W32546  10.168  15.138   2.229
64129W        W32547   7.254  32.019   3.270
64130W        W32548   6.234  20.054   1.412
64131W        W32549  13.823  40.855   1.870
64132W        W32550  36.090  13.695  12.452
64133W        W32551  18.655  38.482   3.213
64134W        W32552   2.835  22.013   4.218
64135W        W32553  17.775  39.520  10.547
64136W        W32554  13.680  34.095   1.359
64137W        W32555  33.594  18.755   5.239
64138W        W32556   7.876  12.852  13.487
64139W        W32557   8.801  17.204   0.950
64140W        W32558   7.900  20.674  13.396
64141W        W32559   1.910  44.348  13.987
64142W        W32560  21.644  17.742   1.701
64143W        W32561   5.920  15.311  14.314
64144W        W32562  27.051  24.122  11.562
64145W        W32563  30.133  10.802  14.317
64146W        W32564  31.078  13.108   1.696
64147W        W32565   0.318   7.193   2.808
64148W        W32566  17.160  25.587  12.434
64149W        W32567  40.032  44.299  12.949
64150W        W32568   2.796  25.584  14.378
64151W        W32569  44.499  17.792  13.941
64152W        W32570  36.069  39.350  10.973
64153W        W32571  32.053  23.588   4.725
64154W        W32572  11.704  38.851   4.623
64155W        W32573  42.029   8.870   4.829
64156W        W32574  14.131  13.776   0.376
64157W        W32575  21.096   2.400   4.297
64158W        W32576   5.808  12.644   3.700
64159W        W32577  41.508   2.818   0.384
64160W        W32578  26.595   3.800  12.086
64161W        W32579  20.196  26.488   9.932
64162W        W32580   8.283   3.721   1.406
64163W        W32581  36.390  12.746  14.383
64164W        W32582   9.150   1.853   0.763
64165W        W32583  34.514  20.037  13.032
64166W        W32584  21.513   8.216   2.335
64167W        W32585   1.764  22.249  11.000
64168W        W32586  33.081  40.485  14.974
64169W        W32587   9.870  32.941   2.229
64170W        W32588  21.207  39.921  14.808
64171W        W32589  25.660  29.518   3.381
64172W        W32590  33.546  30.557   2.766
64173W        W32591  17.622  39.907  11.443
64174W        W32592   4.311  27.679  13.348
64175W        W32593   3.718   4.926   1.862
64176W        W32594   0.459  15.724   4.200
64177W        W32595  31.141  32.449   1.778
64178W        W32596  43.296  10.840  13.498
64179W        W32597  35.977  10.237   0.346
64180W        W32598  39.847  37.854   4.738
64181W        W32599  20.732  39.452  14.327
64182W        W32600   6.764   9.785  14.470
64183W        W32601  28.942  29.097  13.058
64184W        W32602  42.507   1.279   1.279
64185W        W32603  36.097  27.016  13.873
64186W        W32604  26.530  43.435  13.866
64187W        W32605  12.215  29.023  10.569
64188W        W32606  10.736  42.925   5.258
64189W        W32607  43.461  10.187   2.340
64190W        W32608   2.248  13.109  11.994
64191W        W32609  30.995  16.676  13.540
64192W        W32610  41.858   8.249  13.519
64193W        W32611  37.357  41.381  12.560
64194W        W32612  23.185  28.439  10.932
64195W        W32613  38.553  29.506   2.321
64196W        W32614  14.762  42.022   3.820
64197W        W32615   2.902  12.218   0.797
64198W        W32616  25.604  24.533   4.166
64199W        W32617   4.764   2.855   4.676
64200W        W32618  26.098  35.455  11.978
64201W        W32619  38.484   9.230   1.265
64202W        W32620  42.816  36.008   4.791
64203W        W32621  14.668  12.643   0.374
64204W        W32622  22.701  17.221  14.916
64205W        W32623  14.734  35.108  14.990
64206W        W32624  29.629  11.329   3.674
64207W        W32625  39.921  33.901  11.586
64208W        W32626  22.633  20.734  11.377
64209W        W32627  43.935   0.344  11.569
64210W        W32628  20.247   4.734  11.033
64211W        W32629  26.164  17.277   0.795
64212W        W32630  42.996  34.382   1.411
64213W        W32631  24.548   6.352   4.818
64214W        W32632   3.784  39.503  12.504
64215W        W32633  31.965  42.517   1.849
64216W        W32634  33.408  26.703  13.498
64217W        W32635  16.638   3.885   3.170
64218W        W32636  15.195  44.440  12.002
64219W        W32637  33.009  23.518  11.047
64220W        W32638   5.869  43.936  11.469
64221W        W32639  29.925  22.544  13.951
64222W        W32640   1.958  40.989   3.342
64223W        W32641  42.343   3.805  11.072
64224W        W32642  18.159   8.685  12.340
64225W        W32643  24.102  30.987   0.403
64226W        W32644   6.738   1.912   3.862
64227W        W32645  32.026  11.129  12.064
64228W        W32646   6.859  36.445  10.592
64229W        W32647  41.535  34.490   1.237
64230W        W32648  44.767   7.687   0.846
64231W        W32649  22.568   0.359  13.871
64232W        W32650  40.345  30.600  10.461
64233W        W32651  32.078   6.769   2.683
64234W        W32652  28.064  21.558  13.867
64235W        W32653  20.168  13.637   3.761
64236W        W32654  13.746  29.584   1.750
64237W        W32655  37.051  10.201  14.459
64238W        W32656  11.367   9.372  10.415
64239W        W32657  22.687   4.804   4.674
64240W        W32658   4.811   7.329  13.408
64241W        W32659  25.985  18.565  13.909
64242W        W32660   8.276  30.531  14.864
64243W        W32661  20.633  31.497   3.789
64244W        W32662  16.687  19.124   3.154
64245W        W32663  23.532  32.479  13.871
64246W        W32664  41.934   8.705   2.303
64247W        W32665  24.121  27.651   3.189
64248W        W32666  14.646  14.194  11.435
64249W        W32667  43.941  25.118   1.236
64250W        W32668  14.629  40.314   3.223
64251W        W32669  14.166  34.018   0.812
64252W        W32670  22.604  31.927  12.010
64253W        W32671  32.948   0.979   4.239
64254W        W32672  23.047   8.202  14.901
64255W        W32673   5.198   5.850   2.226
64256W        W32674  17.218  30.580  11.532
64257W        W32675   4.886  42.804   2.903
64258W        W32676  12.133   9.293  12.527
64259W        W32677  39.893  32.126   3.782
64260W        W32678  44.346  25.208  13.525
64261W        W32679   2.379  28.664  13.485
64262W        W32680  22.727  38.876   1.401
64263W        W32681  27.572  22.035   3.156
64264W        W32682   1.767  14.097  12.361
64265W        W32683  16.722  41.896  14.828
64266W        W32684   8.384  29.094  12.895
64267W        W32685  19.265  12.194   9.562
64268W        W32686   4.917  24.693   3.777
64269W        W32687   1.325   3.422  10.056
64270W        W32688  40.459  11.339   0.799
64271W        W32689  17.215  26.096  12.020
64272W        W32690  12.717  24.646   2.255
64273W        W32691  36.874  23.003   0.443
64274W        W32692  41.861  42.350  14.309
64275W        W32693  37.076  18.103   1.249
64276W        W32694  38.033  25.199  13.028
64277W        W32695  42.943  17.577   1.710
64278W        W32696  16.569  17.237   0.461
64279W        W32697  39.017  35.517   3.288
64280W        W32698  31.105  19.681   3.806
64281W        W32699  37.372  21.248   5.167
64282W        W32700  11.354   6.388   3.707
64283W        W32701   5.201   0.429  14.932
64284W        W32702  35.997   4.772  12.922
64285W        W32703  24.069  26.476  14.001
64286W        W32704  42.340  10.770   4.631
64287W        W32705   4.788  26.590  12.829
64288W        W32706  10.633  34.427   5.278
64289W        W32707  21.045  40.473  10.600
64290W        W32708  44.267  14.765  10.543
64291W        W32709   1.964   7.675   3.819
64292W        W32710  13.228  26.654  13.317
64293W        W32711  43.325  14.663   2.234
64294W        W32712  33.934  30.451   3.706
64295W        W32713  11.673  17.101  14.940
64296W        W32714  10.848  25.475   3.851
64297W        W32715  38.481   3.830   3.766
64298W        W32716  35.365  15.275   0.437
64299W        W32717   8.342  39.483  14.766
64300W        W32718  12.288  44.304   4.743
64301W        W32719   4.882   4.776  14.351
64302W        W32720  26.613  23.696   4.692
64303W        W32721  19.159  22.092   2.876
64304W        W32722   5.210  32.050   3.170
64305W        W32723   0.387  35.594   4.274
64306W        W32724   2.770   3.936  10.506
64307W        W32725  40.317  16.177   2.229
64308W        W32726  44.405   6.793  10.620
64309W        W32727  12.190   6.320  13.797
64310W        W32728  29.011  16.594   4.269
64311W        W32729  12.761  38.497  10.643
64312W        W32730  35.484  31.584   1.763
64313W        W32731  36.538  40.962   1.330
64314W        W32732  23.509  27.980   4.154
64315W        W32733  27.114  29.139  11.489
64316W        W32734  34.615  27.188   4.195
64317W        W32735  20.617  41.905  10.549
64318W        W32736  27.557   3.327   1.358
64319W        W32737  16.749   3.710  14.007
64320W        W32738  12.778  10.167  12.525
64321W        W32739  17.597  26.630  13.000
64322W        W32740   5.234   7.365  13.040
64323W        W32741  19.713  13.657   2.278
64324W        W32742   5.439  18.767   3.711
64325W        W32743  31.113  34.941   3.285
64326W        W32744  36.012  27.685  13.959
64327W        W32745  20.087   4.407   0.473
64328W        W32746  32.452  15.234  14.023
64329W        W32747   5.293  20.600   2.227
64330W        W32748  39.435  13.330   3.147
64331W        W32749  19.099  20.214   3.866
64332W        W32750  18.688  35.923  10.485
64333W        W32751  34.530  34.497   4.713
64334W        W32752  18.180  36.953   4.346
64335W        W32753   2.895   6.397   1.922
64336W        W32754  15.189  17.616  12.045
64337W        W32755  43.399  18.655  13.056
64338W        W32756  11.334  15.785   3.755
64339W        W32757   6.190  30.469  11.902
64340W        W32758   3.432   9.698   3.708
64341W        W32759   6.768   8.699   0.313
64342W        W32760  31.423   1.458   0.321
64343W        W32761  33.118  31.929  12.019
64344W        W32762  12.190  42.323   0.770
64345W        W32763  39.540  44.364   4.188
64346W        W32764  30.102  41.831   4.277
64347W        W32765  32.950  10.329   3.652
64348W        W32766  14.230  25.524   4.602
64349W        W32767  31.603  14.602  13.924
64350W        W32768  29.556  11.745   0.357
64351W        W32769  28.110  39.841  12.342
64352W        W32770  17.306  17.777   3.168
64353W        W32771  34.424  24.548  13.999
64354W        W32772  26.974   9.737   1.815
64355W        W32773  35.097  39.426  14.409
64356W        W32774  32.433  30.008   0.890
64357W        W32775  20.722  10.694   4.234
64358W        W32776  31.533  23.108  14.366
64359W        W32777  39.886  41.962  12.934
64360W        W32778   0.483   8.832  10.939
64361W        W32779   0.400  40.509  14.876
64362W        W32780  21.527  10.669  11.580
64363W        W32781   6.362  41.973  12.030
64364W        W32782  25.125   9.729   1.355
64365W        W32783  15.124   7.826  14.459
64366W        W32784  29.654  20.542  13.017
64367W        W32785  35.066   8.210   4.693
64368W        W32786  35.048  25.040  14.807
64369W        W32787  30.998   4.725  11.414
64370W        W32788  34.119  11.687  14.307
64371W        W32789  14.155  33.004  13.460
64372W        W32790  17.067  20.566   1.834
64373W        W32791  13.716   7.187   0.344
64374W        W32792  33.435  38.015   1.408
64375W        W32793  43.798   1.846   3.185
64376W        W32794  40.852  35.103   3.712
64377W        W32795  19.123  16.662  11.585
64378W        W32796  20.103  24.625  11.409
64379W        W32797  35.472  18.632  10.626
64380W        W32798  41.902  41.824  14.477
64381W        W32799  41.391  40.850   4.120
64382W        W32800  36.393  35.861   1.926
64383W        W32801   8.350  17.784   3.861
64384W        W32802   8.353  34.402  11.538
64385W        W32803  14.333  19.099  12.932
64386W        W32804  22.726  40.818  10.529
64387W        W32805  11.231  23.192  10.625
64388W        W32806   7.813  12.707   3.795
64389W        W32807  36.549  27.645  11.477
64390W        W32808   9.788  29.965  11.905
64391W        W32809  32.511  19.709  11.076
64392W        W32810  41.821   4.810  11.005
64393W        W32811  25.568  39.458  10.452
64394W        W32812  41.376   0.963   2.879
64395W        W32813  14.665  19.236  11.440
64396W        W32814  32.614  43.942  13.526
64397W        W32815   2.836  18.094  12.413
64398W        W32816  29.468  27.568  12.358
64399W        W32817  24.973  25.109   4.246
64400W        W32818   2.858  27.681   1.230
64401W        W32819   1.365   3.382   0.375
64402W        W32820  13.208   9.341   0.470
64403W        W32821   4.230   5.933   4.725
64404W        W32822  28.489   9.865  13.896
64405W        W32823  14.267  33.439  13.530
64406W        W32824  34.566  30.949  10.555
64407W        W32825  21.733  25.107   0.359
64408W        W32826  41.402   1.335  13.796
64409W        W32827  19.141  44.801   1.794
64410W        W32828  40.393  18.789  13.412
64411W        W32829  11.863  34.552  10.608
64412W        W32830  29.428   3.759  10.585
64413W        W32831  24.635  29.473  12.371
64414W        W32832  20.765  43.349  11.857
64415W        W32833   6.764  42.796   2.279
64416W        W32834  10.212  25.694   3.830
64417W        W32835  16.698   9.807  11.878
64418W        W32836  10.251   3.791  12.474
64419W        W32837  27.946  31.975  12.090
64420W        W32838  15.612  26.523  13.039
64421W        W32839  13.841  10.183  11.069
64422W        W32840  16.114  36.969   3.761
64423W        W32841  28.618  15.661  11.485
64424W        W32842  42.296  25.180   4.261
64425W        W32843  29.028  28.179  14.410
64426W        W32844   7.190  32.593   0.265
64427W        W32845   6.276  28.166  11.412
64428W        W32846  36.842  29.986   1.364
64429W        W32847  42.349  26.006  11.110
64430W        W32848  24.112  17.152   3.247
64431W        W32849  40.846  31.146   1.787
64432W        W32850  13.266  31.081   3.375
64433W        W32851  18.106  22.712   4.205
64434W        W32852  14.682  15.128   3.645
64435W        W32853  29.512  29.522  12.859
64436W        W32854  15.623   0.474  11.033
64437W        W32855  44.883  20.128  13.868
64438W        W32856  14.122  21.716   0.340
64439W        W32857   3.376   4.937  11.402
64440W        W32858   7.768  44.429  13.857
64441W        W32859  22.239  19.652  11.089
64442W        W32860  20.080   0.257  13.894
64443W        W32861   6.261  29.425  12.395
64444W        W32862  24.191  33.889  13.808
64445W        W32863  35.044  18.751   4.345
64446W        W32864   6.403  12.787  14.367
64447W        W32865  19.274  37.510  12.563
64448W        W32866  19.597   8.317   1.920
64449W        W32867  12.631   3.926   5.183
64450W        W32868  25.025  24.624   2.331
64451W        W32869  14.272  38.496  10.966
64452W        W32870  35.989  30.073  14.918
64453W        W32871  35.420  32.518  12.360
64454W        W32872  27.082  42.342   0.334
64455W        W32873  43.943  11.695   1.783
64456W        W32874  28.033  42.861   2.208
64457W        W32875   7.338  20.233   3.795
64458W        W32876  35.008  29.466   1.718
64459W        W32877  32.905  27.603  12.962
64460W        W32878   2.770  27.545  13.823
64461W        W32879  26.997  24.620   0.316
64462W        W32880  14.640   0.787  14.007
64463W        W32881  19.765  38.527   0.272
64464W        W32882  33.875  19.650  14.766
64465W        W32883  40.006  19.140  14.016
64466W        W32884   6.300   4.339  13.820
64467W        W32885  13.310  28.618   0.817
64468W        W32886  44.756  41.948  13.480
64469W        W32887   7.359  44.918   2.280
64470W        W32888  41.943  16.131   4.749
64471W        W32889  20.043  34.416   5.179
64472W        W32890  26.059  22.200   2.279
64473W        W32891   1.764  40.521  11.025
64474W        W32892  29.100  36.354   1.821
64475W        W32893   6.686  34.518  12.370
64476W        W32894  22.704  32.637  13.031
64477W        W32895  16.071   0.353  13.886
64478W        W32896   8.657   5.373   1.223
64479W        W32897   9.315  39.926  10.640
64480W        W32898  37.482  15.751  12.383
64481W        W32899   6.789  26.585  10.609
64482W        W32900  27.470  11.155  12.400
64483W        W32901   1.763  30.089  11.870
64484W        W32902  34.432  27.166   2.243
64485W        W32903  43.822  14.721   3.693
64486W        W32904  37.961  28.616   1.339
64487W        W32905  38.854  33.979  14.985
64488W        W32906   8.255  12.210   1.832
64489W        W32907  31.577  37.454  13.372
64490W        W32908  25.622  37.366  13.313
64491W        W32909  26.570  40.538  12.924
64492W        W32910  41.842  15.708   4.130
64493W        W32911  32.072  12.835   0.255
64494W        W32912  31.625  23.548   1.750
64495W        W32913  13.807  17.784   1.265
64496W        W32914  33.079  41.323  11.432
64497W        W32915  25.082  34.974  11.012
64498W        W32916  43.777  30.562  13.794
64499W        W32917  13.107   3.385   2.360
64500W        W32918   6.400  10.855  13.496
64501W        W32919  18.791  23.656  12.968
64502W        W32920  31.475  32.569   4.207
64503W        W32921  22.662  42.850  11.105
64504W        W32922   8.378   0.914   3.710
64505W        W32923  40.945  26.664   2.347
64506W        W32924  23.171  15.151   3.867
64507W        W32925  35.996  13.757  11.948
64508W        W32926   5.688  14.269  14.903
64509W        W32927  26.562  15.126  10.586
64510W        W32928  17.140  32.520  12.875
64511W        W32929  29.615  21.712  12.062
64512W        W32930  33.519  22.589   2.702
64513W        W32931  27.979  29.630  11.495
64514W        W32932  16.608  33.899   2.821
64515W        W32933   7.878   3.739   2.291
64516W        W32934  30.094   6.870  11.430
64517W        W32935  34.545  33.591  12.344
64518W        W32936  30.115  12.856   4.261
64519W        W32937  26.023  29.144   1.929
64520W        W32938  24.227  12.349   3.670
64521W        W32939   1.823   1.927   0.918
64522W        W32940  15.644  22.187  14.321
64523W        W32941   2.765  25.972  13.391
64524W        W32942  42.503  39.981  13.058
64525W        W32943   8.307  32.022   4.695
64526W        W32944   8.685   9.782   4.299
64527W        W32945   2.338  39.470  11.024
64528W        W32946  23.076   9.238   3.276
64529W        W32947  20.181  35.561   3.217
64530W        W32948   9.350  18.168   1.216
64531W        W32949  15.152  44.774  14.894
64532W        W32950  33.961  12.129   1.329
64533W        W32951  33.592  22.551   4.283
64534W        W32952  36.012  44.986   4.765
64535W        W32953  23.716  20.133  12.923
64536W        W32954  29.525  16.158   1.262
64537W        W32955  26.094  25.483  13.853
64538W        W32956   6.710  39.464  12.010
64539W        W32957  43.496  12.779   0.400
64540W        W32958  43.309  16.682   4.612
64541W        W32959  10.339  38.998  13.981
64542W        W32960  26.104  29.067  12.916
64543W        W32961  32.128  13.201  11.409
64544W        W32962   5.327  20.209   3.318
64545W        W32963   1.356   9.871  13.022
64546W        W32964  14.640   9.278  13.484
64547W        W32965  40.841   5.758   2.409
64548W        W32966  11.183  10.186   0.285
64549W        W32967  40.912  14.227   1.903
64550W        W32968   7.884  12.316  11.011
64551W        W32969  40.383  24.640  12.354
64552W        W32970  35.396  29.062  12.383
64553W        W32971  42.815  41.372  13.429
64554W        W32972  33.879   1.430  13.867
64555W        W32973   5.258  23.720  14.980
64556W        W32974  33.955  39.422   3.301
64557W        W32975  40.494  31.408   4.712
64558W        W32976  18.083  16.802   2.203
64559W        W32977  40.477  32.401  14.341
64560W        W32978  31.464  35.880  12.053
64561W        W32979  14.680  44.356  14.999
64562W        W32980  33.063   9.240   1.836
64563W        W32981  19.545  11.235   1.791
64564W        W32982   5.292  16.765  14.026
64565W        W32983  27.574  38.559   1.355
64566W        W32984  19.772   4.701  12.874
64567W        W32985  37.409  43.276   3.751
64568W        W32986  31.634  13.182  11.996
64569W        W32987  13.602  17.246   4.307
64570W        W32988   4.764  37.953   2.810
64571W        W32989  30.058  20.664   3.192
64572W        W32990  37.454  30.588  11.026
64573W        W32991  16.167  40.415  12.986
64574W        W32992  17.735  24.191   3.336
64575W        W32993  26.682   7.215  12.961
64576W        W32994   3.907  37.434   2.738
64577W        W32995   8.785  29.478   4.735
64578W        W32996  33.114  16.202   1.307
64579W        W32997   9.303  28.475  13.498
64580W        W32998  41.914  32.991   3.657
64581W        W32999  18.769   1.749  14.915
64582W        W33000   0.867  31.921   4.734
64583W        W33001   7.749  26.055  13.801
64584W        W33002  19.614  21.111  12.402
64585W        W33003   2.925  39.396  12.015
64586W        W33004  44.302  30.620   3.210
64587W        W33005  28.616  38.436   1.417
64588W        W33006  12.707  22.101   2.342
64589W        W33007   5.434   9.868   3.232
64590W        W33008  15.286  26.501  10.618
64591W        W33009  15.117  39.526   1.417
64592W        W33010  33.395  31.971   2.394
64593W        W33011  11.705  20.574   4.747
64594W        W33012  31.427   4.883   2.179
64595W        W33013   0.303  32.504   4.286
64596W        W33014  34.094   0.430  13.400
64597W        W33015  35.426  35.593  12.499
64598W        W33016  25.494  44.872  13.911
64599W        W33017  33.557  36.593   4.622
64600W        W33018  40.420  20.107  11.862
64601W        W33019   2.425   6.407  14.016
64602W        W33020  11.151  26.687  11.517
64603W        W33021   0.775  33.399   0.416
64604W        W33022  25.166   2.720   2.745
64605W        W33023   1.892   1.414  14.900
64606W        W33024  11.856  25.144  10.594
64607W        W33025  26.654  44.343   5.168
64608W        W33026  18.747   4.424   1.785
64609W        W33027  41.436   9.240   3.790
64610W        W33028  27.175  25.026  13.312
64611W        W33029  44.295  43.469   2.809
64612W        W33030  14.729   4.944   4.253
64613W        W33031  16.684  31.434  14.983
64614W        W33032   1.278  24.590  14.492
64615W        W33033  43.828  41.361  14.932
64616W        W33034  10.712  25.207  12.490
64617W        W33035   8.381   0.267   2.879
64618W        W33036   6.394  13.206  11.128
64619W        W33037   0.837  36.464   3.869
64620W        W33038  31.033   8.384  11.417
64621W        W33039  44.904  20.218   5.691
64622W        W33040  32.903  37.486  10.492
64623W        W33041  17.231   5.285   1.738
64624W        W33042  12.122  30.996   4.248
64625W        W33043  36.062  27.999   1.403
64626W        W33044  23.607   6.819  12.548
64627W        W33045   6.880  28.006   0.786
64628W        W33046   7.287  11.287  10.595
64629W        W33047  10.713  31.612   4.294
64630W        W33048  37.842  29.172   2.686
64631W        W33049  29.048  34.378   0.898
64632W        W33050  11.187  34.383   4.633
64633W        W33051  36.456  39.400  12.834
64634W        W33052  19.128  15.752   3.764
64635W        W33053  33.874  25.522  11.416
64636W        W33054   1.874  44.897  11.907
64637W        W33055  37.006  12.774   4.189
64638W        W33056   3.240  33.436  10.984
64639W        W33057  23.149  30.617   2.262
64640W        W33058  11.329   1.920   3.867
64641W        W33059  22.515  42.341  11.923
64642W        W33060  21.096  12.230   4.763
64643W        W33061  21.162  35.038  14.296
64644W        W33062  27.951  25.190   0.452
64645W        W33063  24.995   2.266  14.309
64646W        W33064  30.576  23.087  12.889
64647W        W33065  27.129  28.624   4.339
64648W        W33066   4.717  35.939   3.213
64649W        W33067  32.955  42.904  11.972
64650W        W33068  20.693   4.269  11.051
64651W        W33069  21.516  34.412  13.450
64652W        W33070  19.759  17.278   4.146
64653W        W33071  21.021  10.291   3.820
64654W        W33072  34.976  38.062  10.473
64655W        W33073  15.099  25.010   1.828
64656W        W33074   1.254   5.363  12.857
64657W        W33075   2.401  32.977  12.008
64658W        W33076  16.222  19.600   1.255
64659W        W33077  29.919   1.250  11.969
64660W        W33078  43.335  42.298  12.438
64661W        W33079  14.099  16.606  14.823
64662W        W33080  40.819  34.115   4.175
64663W        W33081  28.591   3.715  11.914
64664W        W33082  28.601  18.577   4.302
64665W        W33083  17.254  19.200   2.223
64666W        W33084   5.701  30.075   3.220
64667W        W33085  19.080  10.365  13.889
64668W        W33086  33.384  30.978  11.599
64669W        W33087  31.046  44.831  14.490
64670W        W33088  12.786   3.291  11.540
64671W        W33089  28.146   4.879   9.925
64672W        W33090  11.296  34.598  11.935
64673W        W33091  37.559  32.137  11.514
64674W        W33092  43.490  41.889  10.561
64675W        W33093  22.664  10.299  10.555
64676W        W33094  16.803  42.476  11.387
64677W        W33095   5.376  21.523   3.379
64678W        W33096  41.911  19.742   0.836
64679W        W33097  19.613  30.095   1.422
64680W        W33098  41.884  38.391   1.713
64681W        W33099  44.837  29.158   0.892
64682W        W33100  27.993  38.496   0.950
64683W        W33101  28.054   6.915   4.255
64684W        W33102  10.711  41.343  14.505
64685W        W33103   6.323  35.960   4.656
64686W        W33104  13.172  44.404   4.689
64687W        W33105  22.093  29.532  14.990
64688W        W33106  23.120  34.460  10.961
64689W        W33107  22.122  24.555   2.202
64690W        W33108  29.645   7.865   2.864
64691W        W33109   0.975  24.098   4.317
64692W        W33110  35.039  37.027   2.277
64693W        W33111  26.488  12.277   4.603
64694W        W33112  21.657   4.881   3.291
64695W        W33113  10.762  16.243  13.457
64696W        W33114  30.995  30.019   0.955
64697W        W33115  17.277   1.379  13.032
64698W        W33116  44.767   2.338   4.253
64699W        W33117   2.375  33.459   2.669
64700W        W33118  28.171  43.787   0.245
64701W        W33119   3.713  39.042   0.769
64702W        W33120  23.023  26.132  13.931
64703W        W33121  12.626  36.899  11.859
64704W        W33122  23.109  44.873  12.949
64705W        W33123  18.205  24.976   2.855
64706W        W33124  21.619  36.443  12.560
64707W        W33125  34.375  10.831   0.456
64708W        W33126  10.245  16.728  10.438
64709W        W33127   9.701   4.903   2.700
64710W        W33128   0.960   2.317   1.931
64711W        W33129  21.642  37.929  14.870
64712W        W33130  17.190  15.710  12.853
64713W        W33131   0.872   0.480   1.385
64714W        W33132  11.830  43.273   1.721
64715W        W33133  40.877  18.626  12.411
64716W        W33134   9.718  21.138   0.932
64717W        W33135  18.667   5.912   0.331
64718W        W33136  44.899  29.575   2.224
64719W        W33137  20.219  41.475  13.000
64720W        W33138   3.228  14.590  14.457
64721W        W33139   4.819  44.987   3.657
64722W        W33140   9.377  40.936   2.855
64723W        W33141  26.186   1.403  11.914
64724W        W33142  27.148  21.521  11.570
64725W        W33143   8.834  37.078   1.878
64726W        W33144  42.333  38.006  14.918
64727W        W33145  11.253  14.184  13.992
64728W        W33146  17.558   0.973   1.738
64729W        W33147  41.802   5.426  11.126
64730W        W33148  29.988  41.013  12.936
64731W        W33149   7.834  30.539   0.812
64732W        W33150  43.788  26.643   0.381
64733W        W33151  24.701  40.998  12.059
64734W        W33152  32.957  29.973   2.403
64735W        W33153  29.445  39.838   2.307
64736W        W33154  18.697  25.710  12.044
64737W        W33155  24.038  14.690   0.845
64738W        W33156  43.786  33.059   0.354
64739W        W33157   7.714   6.361   5.305
64740W        W33158   0.931   9.170   2.827
64741W        W33159  15.684  33.420  10.101
64742W        W33160  12.362  19.717  10.453
64743W        W33161  37.554  22.155   0.746
64744W        W33162  12.685  36.020   2.310
64745W        W33163  10.868  12.306   4.256
64746W        W33164  30.003  30.541  10.501
64747W        W33165  15.087   5.913   0.425
64748W        W33166  24.611  24.136   2.698
64749W        W33167  24.595  41.512   3.306
64750W        W33168   9.152  22.132   2.753
64751W        W33169   9.816  38.850   1.908
64752W        W33170   6.815  40.962   2.347
64753W        W33171  22.137  20.169  14.847
64754W        W33172  27.458  12.686  14.935
64755W        W33173  37.967  31.063   4.213
64756W        W33174  34.075  36.966   1.232
64757W        W33175   7.385   1.958   4.282
64758W        W33176  31.011  11.298  13.470
64759W        W33177  31.579  22.059  10.992
64760W        W33178  31.618   4.348   3.374
64761W        W33179  22.619   8.375   1.279
64762W        W33180  14.660  30.965   2.350
64763W        W33181  26.024   6.306  10.938
64764W        W33182   9.336  21.122  10.925
64765W        W33183  24.157  27.553   4.286
64766W        W33184  36.403  39.509   3.333
64767W        W33185  35.003  27.968   4.210
64768W        W33186  24.975  11.789  11.586
64769W        W33187  19.194  11.772   5.277
64770W        W33188   9.319  10.648  14.450
64771W        W33189  38.359  22.682  12.997
64772W        W33190  28.956  15.657  11.043
64773W        W33191   9.305  34.572  11.559
64774W        W33192  43.332  22.249   3.827
64775W        W33193  25.022  44.479  10.923
64776W        W33194  18.789  25.137   0.927
64777W        W33195  36.977  27.097  14.797
64778W        W33196  21.678  38.523   0.339
64779W        W33197  27.689   1.759  11.039
64780W        W33198   3.268  35.003  11.986
64781W        W33199  27.509  24.481  11.020
64782W        W33200  20.526  18.182  13.365
64783W        W33201   7.827  20.744   4.824
64784W        W33202  18.052  36.512  14.783
64785W        W33203  38.971  21.694   0.935
64786W        W33204  17.275  13.175  13.462
64787W        W33205   0.867   3.336   0.475
64788W        W33206  11.158   3.742  12.426
64789W        W33207  29.544  19.582  14.004
64790W        W33208   5.252   1.460  14.456
64791W        W33209   1.787  11.728  12.945
64792W        W33210  44.936  34.558   4.776
64793W        W33211  13.670   1.940   0.890
64794W        W33212  32.943  32.468   4.653
64795W        W33213  22.605  12.645  12.509
64796W        W33214  32.102  33.534   1.879
64797W        W33215  28.634  40.471   0.942
64798W        W33216  22.675  22.031  13.852
64799W        W33217  37.427  12.181  12.091
64800W        W33218  35.001  41.931  12.533
64801W        W33219   7.742   1.421   0.342
64802W        W33220  37.850  42.020   2.327
64803W        W33221  43.010   8.280   2.230
64804W        W33222  25.696  17.295  12.899
64805W        W33223  44.844  23.557  10.892
64806W        W33224   0.402  43.515   0.772
64807W        W33225  13.326  34.571   3.157
64808W        W33226  32.548  32.509   3.753
64809W        W33227  12.717   8.722  12.087
64810W        W33228  44.406  41.929   1.843
64811W        W33229  43.498   0.774   3.333
64812W        W33230  13.254   7.234   2.362
64813W        W33231   5.856   6.817  14.334
64814W        W33232  44.403   2.458   4.792
64815W        W33233  21.182  18.588   2.895
64816W        W33234  10.140  18.062  12.423
64817W        W33235  10.362  34.513  11.003
64818W        W33236   6.363  23.528   4.253
64819W        W33237   5.809  12.714   4.605
64820W        W33238  36.016  35.546  11.119
64821W        W33239  17.194  13.784   0.750
64822W        W33240  31.039   5.277  13.538
64823W        W33241   2.386  20.769  12.894
64824W        W33242  26.971   2.838   3.710
64825W        W33243  24.038  32.541   0.885
64826W        W33244  15.744  24.519   2.831
64827W        W33245  29.556  14.253   2.693
64828W        W33246  18.262   5.344   3.365
64829W        W33247  28.537   5.359   1.383
64830W        W33248  26.512  13.230  11.478
64831W        W33249  27.588  26.112   0.256
64832W        W33250  31.022  10.677  14.800
64833W        W33251  37.880  15.677   1.776
64834W        W33252  31.144   3.232  14.282
64835W        W33253  23.172   6.334  10.998
64836W        W33254  36.390  41.306   3.842
64837W        W33255  37.913  23.232  12.899
64838W        W33256  32.627  34.108  12.843
64839W        W33257  19.252  34.933  11.410
64840W        W33258  19.174   5.902  14.910
64841W        W33259  26.973  20.719   1.285
64842W        W33260  36.524  26.537  12.994
64843W        W33261  16.120   5.231   2.808
64844W        W33262  12.232  18.615   3.785
64845W        W33263  33.021   9.376  14.921
64846W        W33264  36.017  20.648  13.382
64847W        W33265   4.816  31.975   0.342
64848W        W33266   2.258  21.688  14.466
64849W        W33267  18.590  38.367   4.242
64850W        W33268  35.573   1.936  10.428
64851W        W33269  32.559  41.029   1.881
64852W        W33270  10.827  10.255   4.337
64853W        W33271  13.341   6.190  10.502
64854W        W33272   8.242  39.413  13.455
64855W        W33273   8.654  38.485   4.651
64856W        W33274  14.820  32.072   2.227
64857W        W33275  40.536  26.553  10.505
64858W        W33276  42.466   9.335  13.886
64859W        W33277  11.167   4.338   2.355
64860W        W33278  22.684   9.882  10.987
64861W        W33279  42.010  22.135  13.906
64862W        W33280  15.314  36.579   1.214
64863W        W33281  19.730  28.977   0.940
64864W        W33282   2.896   7.834  14.318
64865W        W33283   2.735  22.055  14.956
64866W        W33284  36.841  33.604  10.929
64867W        W33285   1.325  27.557  14.393
64868W        W33286  22.718  38.052   5.707
64869W        W33287   5.434  41.005   2.276
64870W        W33288  23.550   6.227  12.032
64871W        W33289  24.120   9.652  10.994
64872W        W33290  39.496  22.009  14.028
64873W        W33291  42.293  12.157   9.976
64874W        W33292  31.430  17.633  10.632
64875W        W33293  42.824  33.886  12.432
64876W        W33294  20.127  12.822   0.812
64877W        W33295  39.018   0.468  13.426
64878W        W33296  24.682  42.946  10.459
64879W        W33297  16.604  36.396   3.752
64880W        W33298   9.750  33.412  10.554
64881W        W33299   3.292   6.681  10.914
64882W        W33300  37.008  32.548   2.263
64883W        W33301  43.832  14.796   1.423
64884W        W33302  24.511  37.852   2.225
64885W        W33303  43.000   2.454  14.851
64886W        W33304  17.727  39.369  10.936
64887W        W33305  20.241  13.624  10.591
64888W        W33306  25.630  38.932   0.466
64889W        W33307  42.289  13.791   2.254
64890W        W33308  36.984  31.645  13.452
64891W        W33309  31.612  39.537  12.577
64892W        W33310   4.936  16.228  14.485
64893W        W33311  11.323  28.575   4.701
64894W        W33312  33.989   6.900   4.767
64895W        W33313  29.151  31.434   1.244
64896W        W33314   5.434   2.357  13.368
64897W        W33315  10.243  34.475   2.868
64898W        W33316  18.593   1.341  13.495
64899W        W33317  13.295  39.502   1.320
64900W        W33318   3.779   4.819  11.106
64901W        W33319   3.918  22.664  14.496
64902W        W33320  11.235  37.391   4.668
64903W        W33321  30.049  22.523   3.716
64904W        W33322  27.517   4.235  14.360
64905W        W33323  37.874  42.518   0.902
64906W        W33324  31.994  18.056  13.461
64907W        W33325  27.179   8.736   1.421
64908W        W33326  32.924  39.973   1.450
64909W        W33327   3.281  12.292   3.731
64910W        W33328  44.470  34.607   2.851
64911W        W33329   3.908   6.408   2.404
64912W        W33330  24.102  24.721   1.699
64913W        W33331   1.305  10.670  10.575
64914W        W33332  10.760  14.829   2.889
64915W        W33333  25.206  22.664  14.801
64916W        W33334  25.657  27.092  10.452
64917W        W33335  37.964  19.582   0.324
64918W        W33336   7.850  35.583   0.411
64919W        W33337  21.686   5.227  10.466
64920W        W33338  38.437  24.027   0.275
64921W        W33339  20.145  10.358   4.278
64922W        W33340   5.285  14.298  13.522
64923W        W33341  38.046  16.099  10.949
64924W        W33342  29.924  17.586  14.814
64925W        W33343  30.544  35.453   3.224
64926W        W33344  17.752  41.807  12.367
64927W        W33345   1.811  10.738  12.860
64928W        W33346  36.934  42.292  11.110
64929W        W33347  38.418   8.769  11.563
64930W        W33348  42.396  10.812   2.690
64931W        W33349  27.495  25.154   2.358
64932W        W33350   3.454  42.320   1.428
64933W        W33351  42.904   4.319  11.393
64934W        W33352  42.422  33.565  13.471
64935W        W33353  23.607   7.878   1.718
64936W        W33354  18.766   0.346  12.004
64937W        W33355   7.322  40.481   3.718
64938W        W33356  18.693   1.324   0.870
64939W        W33357   3.318  37.475  10.414
64940W        W33358  14.621  43.515   0.906
64941W        W33359  20.029  42.777   2.730
64942W        W33360   1.765  34.043  12.536
64943W        W33361  30.624   5.819  10.550
64944W        W33362  37.912  14.319   3.302
64945W        W33363  30.002  25.067   2.343
64946W        W33364  25.579  15.690   0.904
64947W        W33365  35.412  25.507  11.018
64948W        W33366   7.779  37.983   4.313
64949W        W33367  40.501  20.088  11.524
64950W        W33368  33.470   4.888   2.897
64951W        W33369  10.754  32.012  14.877
64952W        W33370  17.782   6.293  14.322
64953W        W33371   0.370  38.388  12.491
64954W        W33372   6.734  27.560  12.442
64955W        W33373  26.968  28.449   1.244
64956W        W33374  12.755  15.200  12.846
64957W        W33375  34.386  29.106   0.847
64958W        W33376  11.698  30.090   1.445
64959W        W33377  31.941   1.936   9.969
64960W        W33378  30.533  25.119   0.386
64961W        W33379  37.488  34.456  11.930
64962W        W33380  16.576  31.918   1.340
64963W        W33381  10.790   9.888  11.377
64964W        W33382  40.818  23.522  11.454
64965W        W33383  31.975  36.357  13.925
64966W        W33384  12.704  43.288  11.009
64967W        W33385  36.445  17.678  14.334
64968W        W33386  13.347  43.408  13.966
64969W        W33387  20.162  11.655   3.331
64970W        W33388  23.642  32.056   3.679
64971W        W33389  36.095  41.035  12.395
64972W        W33390  33.530  36.943   3.724
64973W        W33391  13.151  26.958  13.385
64974W        W33392  34.533  41.339   3.246
64975W        W33393   7.399  44.842  12.934
64976W        W33394  36.992  37.835   4.802
64977W        W33395  28.185  28.445  11.891
64978W        W33396  15.304  35.035  12.554
64979W        W33397  24.183   3.878  14.365
64980W        W33398  32.485  40.026  10.451
64981W        W33399   5.874  43.844  14.360
64982W        W33400   8.823  18.071   1.374
64983W        W33401  19.736  41.909  10.503
64984W        W33402  26.082   4.447  10.994
64985W        W33403  24.007  36.499  14.778
64986W        W33404   0.301  25.103  10.455
64987W        W33405   5.398  32.507   3.712
64988W        W33406  39.424  36.885   1.798
64989W        W33407   4.773  35.086   2.397
64990W        W33408  20.612   0.480   4.684
64991W        W33409  16.687  12.292   0.297
64992W        W33410   1.846  21.104   3.253
64993W        W33411   3.350  12.850  10.110
64994W        W33412  27.108   6.699   0.483
64995W        W33413  13.344  30.057  14.846
64996W        W33414  12.840  22.671  10.628
64997W        W33415   7.801  15.723  12.852
64998W        W33416  31.960  39.862  13.538
64999W        W33417  27.950  44.436  10.897
65000W        W33418  10.874  41.317  13.037
65001W        W33419  26.194  21.023  11.904
65002W        W33420  32.492   2.336   1.780
65003W        W33421   2.324  25.029   1.893
65004W        W33422  40.932  10.256  13.802
65005W        W33423  27.978  37.505  11.123
65006W        W33424   1.437  29.606   1.241
65007W        W33425   4.429  22.560   0.845
65008W        W33426   4.763  30.490   1.332
65009W        W33427  43.853  30.562   4.162
65010W        W33428  20.247  41.834  12.879
65011W        W33429  33.060  22.051   0.423
65012W        W33430  37.919  20.698  12.899
65013W        W33431  10.717  30.988  12.052
65014W        W33432   7.679  27.668  14.339
65015W        W33433   1.852  23.063  11.536
65016W        W33434  17.601  12.308   4.798
65017W        W33435  36.942  12.766   0.946
65018W        W33436  35.975  11.258  12.844
65019W        W33437  21.056  18.124  13.439
65020W        W33438  39.466  12.632   3.771
65021W        W33439   1.410  13.218  13.541
65022W        W33440  30.534   9.749   4.725
65023W        W33441  32.063   0.363   0.417
65024W        W33442   1.427  15.583  12.849
65025W        W33443  37.433  10.163  14.878
65026W        W33444  39.514  11.168   0.953
65027W        W33445  17.683  16.672  11.026
65028W        W33446   0.342  26.952  14.868
65029W        W33447  24.030  24.649  14.467
65030W        W33448   5.692  29.633   3.771
65031W        W33449  15.735  26.541  13.370
65032W        W33450   0.276   6.849   1.318
65033W        W33451   8.816  40.532   1.342
65034W        W33452  28.104  17.792  12.342
65035W        W33453  15.242  27.683  11.028
65036W        W33454   5.911  36.885  14.983
65037W        W33455   6.922   1.281   2.774
65038W        W33456  30.528  20.621  12.981
65039W        W33457  35.863  29.137   2.406
65040W        W33458  44.413  29.003  13.043
65041W        W33459  21.711  10.654   3.301
65042W        W33460  30.437   1.388  11.509
65043W        W33461   5.727   0.935  10.556
65044W        W33462  21.534  38.899  10.050
65045W        W33463  23.155  34.607   2.319
65046W        W33464  37.350   1.347   3.375
65047W        W33465  30.461  43.008  10.891
65048W        W33466  16.296   4.279  14.484
65049W        W33467  38.992  21.022   4.118
65050W        W33468  14.657  13.258  12.040
65051W        W33469  15.276  21.069  12.978
65052W        W33470  42.301   0.422   2.752
65053W        W33471  11.836  10.380  12.577
65054W        W33472  10.244  23.595   2.804
65055W        W33473  22.641  10.840  12.517
65056W        W33474  23.597  21.156   2.800
65057W        W33475  19.697   8.782   0.373
65058W        W33476  40.988   1.869   0.777
65059W        W33477   0.767  36.880  14.503
65060W        W33478   4.318   0.274  13.946
65061W        W33479  44.780  12.747   1.418
65062W        W33480  33.611  28.138   1.782
65063W        W33481  28.118   3.230   3.772
65064W        W33482  17.738   0.835   2.270
65065W        W33483  35.452  43.770   2.265
65066W        W33484   6.872  44.753  14.297
65067W        W33485   8.858  42.957  10.541
65068W        W33486   9.840  42.294  12.872
65069W        W33487   7.852  27.666   1.255
65070W        W33488  38.420  30.155  10.537
65071W        W33489   3.762   3.436  13.892
65072W        W33490  39.374  26.128   2.382
65073W        W33491  26.505  19.712   1.224
65074W        W33492  10.736  44.454   2.903
65075W        W33493   2.964  22.052  10.635
65076W        W33494  21.178   2.948  14.287
65077W        W33495  23.619  36.912  14.951
65078W        W33496  33.428  26.192  14.913
65079W        W33497  16.607  14.673   1.386
65080W        W33498  13.259  40.474  12.988
65081W        W33499  12.174  30.081  11.438
65082W        W33500  16.707  28.654   3.829
65083W        W33501  23.611  27.661  14.434
65084W        W33502  41.877  12.326  10.058
65085W        W33503   2.406   0.836  11.027
65086W        W33504  29.083  23.654   1.404
65087W        W33505  15.104  44.319  13.511
65088W        W33506  31.008   5.372  14.969
65089W        W33507  42.022  31.981   5.212
65090W        W33508   0.448  11.761  11.523
65091W        W33509  17.155  27.458   1.735
65092W        W33510  11.134  12.689  13.383
65093W        W33511  31.631  13.332  14.465
65094W        W33512  19.132  14.724   1.861
65095W        W33513  21.738   3.926  11.079
65096W        W33514  17.083   8.655  10.559
65097W        W33515  35.369  41.820   1.349
65098W        W33516  29.172  13.790  13.836
65099W        W33517   7.897   8.859   2.275
65100W        W33518  26.627  43.304  11.559
65101W        W33519   4.258  22.234  14.981
65102W        W33520  23.702   9.231  13.792
65103W        W33521  25.568  35.539  12.392
65104W        W33522   3.353  10.328   2.280
65105W        W33523  12.824  10.351  13.815
65106W        W33524  36.356  10.328   4.314
65107W        W33525  22.200  34.593  12.504
65108W        W33526  31.064  14.824   2.231
65109W        W33527  11.806   3.846   4.619
65110W        W33528  12.687  11.189  14.945
65111W        W33529  14.738  29.162  10.946
65112W        W33530   7.747  42.829  13.921
65113W        W33531  29.940  44.395   0.758
65114W        W33532  14.181  29.078  13.321
65115W        W33533  16.180  14.735  14.020
65116W        W33534  11.371  44.327   4.681
65117W        W33535  39.485  41.482  10.947
65118W        W33536  44.469  28.982   3.231
65119W        W33537  20.756  30.907  13.026
65120W        W33538  43.923  36.077  11.985
65121W        W33539  18.757  10.769  14.335
65122W        W33540  42.962  16.084   2.201
65123W        W33541  13.639  34.889   4.702
65124W        W33542   3.834   5.240   0.297
65125W        W33543  29.989  33.117  13.857
65126W        W33544  14.105  44.918  10.547
65127W        W33545  33.442  37.951  12.929
65128W        W33546  38.888  42.357   3.255
65129W        W33547  43.406   6.341   3.795
65130W        W33548  18.747  33.402   1.277
65131W        W33549  36.955  42.927   2.733
65132W        W33550  20.620  12.782  12.428
65133W        W33551   6.345  31.967  12.962
65134W        W33552   9.801  30.526   0.281
65135W        W33553  43.414  43.972   1.826
65136W        W33554   2.436  14.182   1.708
65137W        W33555  16.076  36.065  12.998
65138W        W33556   1.328  15.092  13.421
65139W        W33557  41.926  17.258  14.759
65140W        W33558  19.673  23.089  12.564
65141W        W33559   9.160  37.336   2.748
65142W        W33560  30.983  37.492   4.685
65143W        W33561  18.705  19.165  11.444
65144W        W33562  26.177  30.002  11.878
65145W        W33563  41.455  15.317   4.327
65146W        W33564  33.123  17.190  11.431
65147W        W33565   6.866  11.295  11.030
65148W        W33566  16.122  29.051   5.257
65149W        W33567   5.415  29.594  12.941
65150W        W33568  42.015  31.992  10.089
65151W        W33569  33.041  11.277  10.468
65152W        W33570  28.094   0.951  13.916
65153W        W33571  10.227  28.018   3.724
65154W        W33572  34.089   3.808   0.390
65155W        W33573  40.354  14.292   0.909
65156W        W33574  35.049   4.829   4.815
65157W        W33575  36.524  16.129   3.239
65158W        W33576  41.020  30.078  14.379
65159W        W33577   0.403  27.036   4.665
65160W        W33578  29.610  41.843   0.785
65161W        W33579  24.199  24.061   4.211
65162W        W33580   5.331  30.487  12.995
65163W        W33581  41.342  40.891  10.612
65164W        W33582  39.857  15.743   0.402
65165W        W33583   6.200  16.628  12.469
65166W        W33584  34.451  27.591   3.726
65167W        W33585  23.542  26.623  11.550
65168W        W33586  14.247   0.258  12.502
65169W        W33587  21.703  32.965   0.299
65170W        W33588   8.900  21.071   0.813
65171W        W33589  18.230  33.402   2.255
65172W        W33590  28.602  44.826  10.937
65173W        W33591  37.408  44.382  11.041
65174W        W33592   0.297  10.778  14.424
65175W        W33593  22.084   0.899  11.395
65176W        W33594   6.837   1.468  13.926
65177W        W33595  44.371   7.792  13.366
65178W        W33596  19.211   5.914  13.508
65179W        W33597  33.997  29.132  14.817
65180W        W33598  17.086  12.175   0.452
65181W        W33599  28.134  17.723   4.340
65182W        W33600  16.207  34.939   2.186
65183W        W33601  10.235  14.758  10.946
65184W        W33602  31.501   6.702  10.452
65185W        W33603  20.124  14.292  14.797
65186W        W33604  20.123  28.440  13.794
65187W        W33605   6.867   4.840  10.507
65188W        W33606  25.583  23.588  12.992
65189W        W33607  26.954  14.163   0.909
65190W        W33608  31.114  13.169   4.229
65191W        W33609   4.398  32.994  11.045
65192W        W33610  15.594   9.175  12.093
65193W        W33611  37.437   6.302  11.126
65194W        W33612  39.474  41.862   0.322
65195W        W33613  30.615  44.986   4.779
65196W        W33614  24.034  20.610  12.548
65197W        W33615  15.327   6.326   5.283
65198W        W33616  42.439  24.218   2.400
65199W        W33617   3.734   5.372  11.056
65200W        W33618   0.751  29.595  12.829
65201W        W33619  11.789  12.300   0.817
65202W        W33620  12.142  20.254  13.425
65203W        W33621   6.797   1.332   4.235
65204W        W33622   0.288  17.190   4.293
65205W        W33623  20.069   2.788   4.794
65206W        W33624  22.048  19.221  11.032
65207W        W33625  31.469   9.226  13.953
65208W        W33626  18.589   3.818   1.699
65209W        W33627  43.911   3.279  11.118
65210W        W33628  43.846   3.325   0.838
65211W        W33629  15.581  33.126   0.764
65212W        W33630  33.526  24.528  11.540
65213W        W33631  10.215  32.024   2.683
65214W        W33632   0.880  30.130  13.933
65215W        W33633  41.881  39.918  14.979
65216W        W33634  32.049   9.687  12.532
65217W        W33635  28.155  18.134   0.739
65218W        W33636  28.073   4.861   1.797
65219W        W33637  33.107   8.404  10.519
65220W        W33638  14.251  11.730   1.388
65221W        W33639  14.094  37.998   1.746
65222W        W33640  29.466   5.748   1.901
65223W        W33641   8.401  10.201   2.866
65224W        W33642  40.541   4.871   0.813
65225W        W33643  29.165  27.019   0.349
65226W        W33644   5.292   0.436   1.305
65227W        W33645  31.498   3.827  12.023
65228W        W33646  29.972  31.079  13.987
65229W        W33647  25.604  37.891  12.348
65230W        W33648  18.144   4.927  12.007
65231W        W33649   5.705  44.759   0.465
65232W        W33650  24.005  41.336  10.623
65233W        W33651  22.198  21.730  10.515
65234W        W33652  18.612  34.381   0.407
65235W        W33653  34.884   1.404  12.035
65236W        W33654  43.021  31.479  14.780
65237W        W33655   8.734   2.415   4.269
65238W        W33656   8.207  26.080   1.397
65239W        W33657  42.836   3.309   4.159
65240W        W33658   6.289  15.767  10.524
65241W        W33659  31.122   4.899   9.974
65242W        W33660  42.027   6.778   2.383
65243W        W33661  43.872  13.269   1.733
65244W        W33662  25.586  13.606  12.428
65245W        W33663  16.673  12.725  13.482
65246W        W33664  21.676   9.216  13.887
65247W        W33665  28.931   5.800  11.031
65248W        W33666  41.295  43.907   3.683
65249W        W33667   2.767  18.058  10.496
65250W        W33668  24.708  37.402   2.826
65251W        W33669   1.265  14.237  14.975
65252W        W33670   7.207   6.332   3.681
65253W        W33671  37.916  27.608   2.398
65254W        W33672  12.229  40.445   0.944
65255W        W33673  15.721  10.221  12.569
65256W        W33674  40.942  35.104  13.324
65257W        W33675  16.226  30.066  11.945
65258W        W33676   8.726  36.351   3.861
65259W        W33677   1.250  12.691   1.329
65260W        W33678  39.952  17.578   1.787
65261W        W33679  27.071  38.917  14.317
65262W        W33680   7.804  34.486   2.901
65263W        W33681  25.578  28.583  10.532
65264W        W33682   9.386   2.289   1.285
65265W        W33683   2.240   7.251  11.397
65266W        W33684  27.145  41.002  11.408
65267W        W33685   4.829   6.768   3.237
65268W        W33686   5.316  14.621  14.357
65269W        W33687  25.548  39.022  12.061
65270W        W33688  15.726  32.518   4.764
65271W        W33689   5.865  43.448  14.313
65272W        W33690  20.106  35.534  14.386
65273W        W33691  40.459   5.314  11.963
65274W        W33692  43.413  15.299  14.440
65275W        W33693  28.455  34.381  13.809
65276W        W33694  43.345   2.800  14.866
65277W        W33695  14.180  36.077  14.482
65278W        W33696  19.143  44.925   4.793
65279W        W33697   3.313  38.453  12.923
65280W        W33698  34.985   4.302   0.765
65281W        W33699  32.127   3.729  13.406
65282W        W33700  13.114  40.797   2.192
65283W        W33701  19.087  40.315   3.169
65284W        W33702   6.428  43.857  12.930
65285W        W33703  23.530  24.203  14.956
65286W        W33704  23.663  21.216  12.994
65287W        W33705  44.424  35.587  13.032
65288W        W33706  37.854  29.476  14.504
65289W        W33707  43.285   5.197  10.996
65290W        W33708  40.409  12.722   2.780
65291W        W33709  24.708  41.407  14.338
65292W        W33710  38.986  40.933  13.448
65293W        W33711  14.176  15.663   0.909
65294W        W33712  17.679   9.749   1.414
65295W        W33713  39.498  24.215  11.027
65296W        W33714  16.202  23.026  11.046
65297W        W33715  10.878   1.941  11.021
65298W        W33716  17.737  27.613  10.574
65299W        W33717  18.196   6.397   0.769
65300W        W33718  22.653  28.465   1.869
65301W        W33719  28.452  24.656  12.830
65302W        W33720  10.656   6.710  13.508
65303W        W33721  43.846   0.354  11.035
65304W        W33722  36.031   3.293  11.855
65305W        W33723  17.719  36.013  10.407
65306W        W33724  26.004  21.698  10.987
65307W        W33725   8.216   1.833  11.397
65308W        W33726  37.447  21.570  13.865
65309W        W33727   8.723   9.778   3.252
65310W        W33728  26.042  20.060  13.395
65311W        W33729   6.195  24.699   2.765
65312W        W33730   4.925  23.722  14.309
65313W        W33731  31.055  32.441  12.458
65314W        W33732  11.294   6.821   4.346
65315W        W33733  25.573  25.003   3.707
65316W        W33734  16.622  41.806  11.876
65317W        W33735  19.087  20.122   3.297
65318W        W33736   1.461  35.959   3.195
65319W        W33737  39.452  12.145   2.858
65320W        W33738  38.352  42.449  14.948
65321W        W33739   2.945   9.774  11.959
65322W        W33740  30.478  38.018   4.157
65323W        W33741  11.660  25.016   5.141
65324W        W33742  35.081  12.765  11.468
65325W        W33743  18.185  23.034  14.486
65326W        W33744  28.088  12.264   2.419
65327W        W33745  44.875  38.889   1.390
65328W        W33746  34.515  16.774  10.996
65329W        W33747  19.617   4.761   4.168
65330W        W33748   3.410  14.118  13.050
65331W        W33749  40.304   5.792   0.760
65332W        W33750  10.303  22.151   2.406
65333W        W33751   0.392   0.421  14.385
65334W        W33752  34.972  43.015  11.950
65335W        W33753  13.199   3.729   0.832
65336W        W33754  33.971   3.280   2.351
65337W        W33755  30.450   3.751   0.267
65338W        W33756  29.647  32.606   0.248
65339W        W33757   2.372  33.614   5.137
65340W        W33758  38.528  35.091   2.888
65341W        W33759  14.803  31.558   3.826
65342W        W33760  26.974  20.163  11.906
65343W        W33761  40.429  34.096   3.243
65344W        W33762  33.002  29.110  14.844
65345W        W33763  15.286  32.078   3.377
65346W        W33764  41.377  36.480  10.935
65347W        W33765  41.904   6.714  12.472
65348W        W33766  29.941  42.372   4.307
65349W        W33767  38.046  18.753  13.408
65350W        W33768  37.457   2.740   1.926
65351W        W33769   1.318  25.537   3.669
65352W        W33770  21.752  25.649  11.115
65353W        W33771  16.614   8.208  13.535
65354W        W33772   3.269  13.680   3.707
65355W        W33773  40.935  20.068   0.763
65356W        W33774  34.447  17.732   4.130
65357W        W33775  32.127   5.821  14.301
65358W        W33776  31.594  42.895   1.417
65359W        W33777  38.946   5.708  14.509
65360W        W33778  44.923  33.610  13.919
65361W        W33779   9.386   4.351  10.944
65362W        W33780   6.823   0.968   2.748
65363W        W33781  29.641   1.420  12.922
65364W        W33782  25.998  39.422  12.829
65365W        W33783   5.222  40.395  11.595
65366W        W33784  39.419   4.360   3.198
65367W        W33785  32.548  13.756  12.064
65368W        W33786  20.690  19.205   1.718
65369W        W33787  28.021  25.601  12.407
65370W        W33788   0.250  37.356   0.908
65371W        W33789  14.589  21.224   2.276
65372W        W33790   0.380  16.699  13.384
65373W        W33791  13.128  41.329  14.476
65374W        W33792  13.649   1.921   2.715
65375W        W33793  31.045  35.958   4.769
65376W        W33794  18.688  11.151  10.032
65377W        W33795  32.975  10.859  14.954
65378W        W33796   4.322  28.557   4.128
65379W        W33797  41.935  16.568  13.343
65380W        W33798   7.215  31.642  11.573
65381W        W33799  43.900   4.299   0.937
65382W        W33800   6.890   2.444  14.487
65383W        W33801  30.521  26.155  12.568
65384W        W33802   3.733  32.547  10.569
65385W        W33803  34.466   0.360   4.774
65386W        W33804  41.319  28.152  13.385
65387W        W33805  21.112   6.243   0.869
65388W        W33806  42.365  33.435   1.792
65389W        W33807  32.623   7.733  11.381
65390W        W33808  44.787   7.809  11.867
65391W        W33809  32.927  27.994  13.034
65392W        W33810   8.298  20.703   1.728
65393W        W33811  39.882  33.957  10.429
65394W        W33812   1.381  40.445   3.271
65395W        W33813  16.805  43.804   2.796
65396W        W33814  23.073  30.483   3.814
65397W        W33815  41.900  38.031   0.772
65398W        W33816  34.489  25.073  11.534
65399W        W33817  43.337  14.155  13.521
65400W        W33818  22.507  37.408   5.131
65401W        W33819   6.679  12.716   4.271
65402W        W33820  34.933  13.318  11.027
65403W        W33821  27.497  11.352   3.815
65404W        W33822  19.676  20.255   3.332
65405W        W33823  37.446  41.909   0.851
65406W        W33824  32.132  33.950   2.216
65407W        W33825  27.630  43.296  14.941
65408W        W33826  31.949  36.946  13.311
65409W        W33827  32.394  10.369   0.794
65410W        W33828  26.081  35.390   4.263
65411W        W33829   2.412   1.883  14.459
65412W        W33830  41.925  19.675  11.597
65413W        W33831  29.984  18.679  13.048
65414W        W33832  31.605  21.541  11.904
65415W        W33833   1.472  43.814  10.434
65416W        W33834  30.621   5.753  12.079
65417W        W33835  41.827  17.750   0.421
65418W        W33836  43.923   0.776   3.356
65419W        W33837  28.591  12.190   3.214
65420W        W33838  40.820  20.108   1.791
65421W        W33839  33.022   3.724   3.719
65422W        W33840   4.220   4.840   4.294
65423W        W33841  37.441  39.488   2.371
65424W        W33842   3.292   9.243  11.535
65425W        W33843   8.297   4.906  14.005
65426W        W33844  31.531  32.439   3.761
65427W        W33845  43.435  21.232  12.390
65428W        W33846   2.464  37.007   3.182
65429W        W33847  34.103  28.439   0.889
65430W        W33848  39.916   1.311   3.354
65431W        W33849   0.379  44.963   0.428
65432W        W33850  22.531  15.326  11.447
65433W        W33851  20.097  17.773  14.325
65434W        W33852  10.281  39.505  12.857
65435W        W33853  31.428  24.131   2.842
65436W        W33854  22.077  29.464  14.353
65437W        W33855  11.789  24.565  11.877
65438W        W33856  26.152  22.071   2.749
65439W        W33857  14.137  12.246   1.794
65440W        W33858  14.607  44.790   4.780
65441W        W33859  21.579   5.365  12.948
65442W        W33860  42.849  30.967  14.899
65443W        W33861  29.557  21.709   2.319
65444W        W33862  44.848  35.458  11.105
65445W        W33863  14.126   1.240  12.912
65446W        W33864  35.881  29.019  14.414
65447W        W33865  40.322  42.930   1.764
65448W        W33866  40.548  10.216  12.409
65449W        W33867  32.601  38.862  11.921
65450W        W33868  18.701  18.085   4.181
65451W        W33869  12.209   9.793   2.299
65452W        W33870  11.789  20.667  10.143
65453W        W33871   8.896   6.275  13.432
65454W        W33872   5.929   2.845  14.962
65455W        W33873  39.406  41.952  12.987
65456W        W33874  38.515  26.191   0.784
65457W        W33875   1.382  38.040   3.675
65458W        W33876   9.852  17.171  11.549
65459W        W33877   9.160   1.918   5.119
65460W        W33878  13.138  19.623  13.365
65461W        W33879  36.048  10.344  14.425
65462W        W33880  31.501  43.961   3.681
65463W        W33881  30.468  26.614  14.960
65464W        W33882  44.959  33.009  14.359
65465W        W33883  21.546  29.642   0.953
65466W        W33884  36.562   9.771   1.921
65467W        W33885  15.322  15.183   1.323
65468W        W33886  15.668  31.005   3.302
65469W        W33887  18.658   6.341   5.283
65470W        W33888  14.278  26.482  14.448
65471W        W33889  39.040  18.162  11.961
65472W        W33890   0.400   7.407   4.654
65473W        W33891  43.316  12.242   4.215
65474W        W33892  37.496  34.931   3.376
65475W        W33893   9.282  11.250  12.495
65476W        W33894  17.170   1.877   4.241
65477W        W33895   5.411  23.710   0.265
65478W        W33896   6.792  21.590  14.500
65479W        W33897  35.549  11.713  13.870
65480W        W33898  16.677  33.395  11.584
65481W        W33899  28.089  17.577  12.921
65482W        W33900  26.688   0.355  12.943
65483W        W33901  19.716  43.298   5.147
65484W        W33902  33.412  36.033   3.234
65485W        W33903  20.660  42.784  10.095
65486W        W33904  38.884  10.250  13.460
65487W        W33905   5.758  40.805  10.631
65488W        W33906  43.780   6.285   1.865
65489W        W33907  16.639  16.272   2.410
65490W        W33908  37.361  28.112   1.846
65491W        W33909  26.544   5.909   0.346
65492W        W33910  20.063  26.091  14.977
65493W        W33911  34.485  40.813  11.067
65494W        W33912  27.448  42.966   4.763
65495W        W33913  16.288  17.248  14.479
65496W        W33914   6.402  13.198   4.746
65497W        W33915  37.515  29.443  14.354
65498W        W33916  40.951  24.147  14.989
65499W        W33917  22.533  13.795   3.798
65500W        W33918  26.985   4.839   2.835
65501W        W33919   2.410  44.275   3.255
65502W        W33920  10.665  19.195   3.170
65503W        W33921  20.137   7.394  11.482
65504W        W33922   6.401  35.388   2.391
65505W        W33923  42.986  44.850  13.856
65506W        W33924  36.415  21.590  12.485
65507W        W33925  36.447  10.773  14.439
65508W        W33926  17.264  34.382  13.987
65509W        W33927  42.486  39.024  14.421
65510W        W33928  24.598  33.446   3.252
65511W        W33929  32.903  20.188   3.184
65512W        W33930  30.962   8.231  10.451
65513W        W33931  14.629  21.539  12.983
65514W        W33932   5.809  24.665  10.967
65515W        W33933  37.019  11.624  10.558
65516W        W33934  15.262  13.663  14.810
65517W        W33935  37.555   1.409  12.567
65518W        W33936  10.277  17.596  13.039
65519W        W33937  15.600  10.144  11.004
65520W        W33938   3.837  40.522  11.535
65521W        W33939   9.693   1.788   2.359
65522W        W33940  23.012   0.377   2.224
65523W        W33941  12.853   0.256  10.571
65524W        W33942   6.715  40.839  13.861
65525W        W33943  44.365  42.963  14.824
65526W        W33944  37.557  29.163   0.892
65527W        W33945  27.030  44.807  11.881
65528W        W33946  32.507  24.156   2.822
65529W        W33947  37.959  13.119   2.788
65530W        W33948  13.156  21.600   2.687
65531W        W33949   3.329  44.793  14.758
65532W        W33950   8.772  18.225   0.336
65533W        W33951  20.723  40.327   2.238
65534W        W33952   2.881   0.780  12.522
65535W        W33953  28.060   3.791   3.845
65536W        W33954   7.268  39.845  12.902
65537W        W33955  38.951  35.556  13.026
65538W        W33956  19.543  25.083  13.993
65539W        W33957  35.981  11.150  12.545
65540W        W33958   0.478  36.353  10.548
65541W        W33959  21.643  33.011   1.295
65542W        W33960   7.246  25.107   2.312
65543W        W33961  42.891  28.632   0.460
65544W        W33962  33.958  40.001  12.361
65545W        W33963  19.755   0.858  10.986
65546W        W33964  42.407  15.173  13.031
65547W        W33965  32.097  13.123   0.843
65548W        W33966  25.486  38.903   2.866
65549W        W33967  12.361   8.260  13.026
65550W        W33968  32.525  11.319   1.719
65551W        W33969  32.486  34.403   4.145
65552W        W33970   2.905   6.859  10.564
65553W        W33971  19.041   9.870  11.442
65554W        W33972  32.422  35.508  11.053
65555W        W33973  12.817  44.958   0.261
65556W        W33974  25.479  23.231   3.210
65557W        W33975  43.914  17.173   3.701
65558W        W33976  43.901  25.979  10.447
65559W        W33977  37.444   9.353  11.500
65560W        W33978  12.712   3.743   1.449
65561W        W33979  12.131  32.566   2.403
65562W        W33980  39.350  27.043   1.698
65563W        W33981  26.563  38.435  13.528
65564W        W33982  13.736  43.355  14.291
65565W        W33983  32.471  41.878  13.447
65566W        W33984   6.765  29.981   0.287
65567W        W33985  44.303  22.028   1.818
65568W        W33986   8.208  44.833  13.510
65569W        W33987  40.316  37.884  13.519
65570W        W33988  43.430  35.039   4.206
65571W        W33989  39.903  39.416  13.831
65572W        W33990   5.752  21.551  12.558
65573W        W33991   0.902  42.331   0.803
65574W        W33992  27.983  14.774  12.869
65575W        W33993  41.993  23.530  13.479
65576W        W33994  21.705  23.118   0.919
65577W        W33995  19.741  40.041  10.947
65578W        W33996  40.390  25.015  10.007
65579W        W33997  42.396  39.056   1.803
65580W        W33998  24.183  37.371   2.810
65581W        W33999  39.039   7.805   4.138
65582W        W34000  31.492   0.405  13.883
65583W        W34001  12.663   7.818   3.776
65584W        W34002  32.996   5.716   2.279
65585W        W34003  29.083  13.109  13.804
65586W        W34004  33.882  32.967  12.065
65587W        W34005  13.140  10.322   4.303
65588W        W34006  24.499  21.512   1.279
65589W        W34007  19.154  34.389  14.000
65590W        W34008  34.470  42.428   4.652
65591W        W34009  20.754  19.247  13.980
65592W        W34010  43.346  29.478   1.906
65593W        W34011  30.149   2.958  14.953
65594W        W34012   0.475  31.648   1.250
65595W        W34013  26.172  24.084  14.402
65596W        W34014  35.374  20.597  12.874
65597W        W34015  23.149  33.982  12.886
65598W        W34016  41.952  19.696   0.451
65599W        W34017  29.070   2.328  12.961
65600W        W34018  10.762  37.061  13.429
65601W        W34019  39.893  23.600   1.829
65602W        W34020  24.620   3.841   0.869
65603W        W34021  21.667  21.120   1.882
65604W        W34022  29.459  24.176   3.177
65605W        W34023  12.190  43.840   3.183
65606W        W34024  43.495  24.592   0.434
65607W        W34025  20.665  44.835  13.388
65608W        W34026  31.625  44.834   1.930
65609W        W34027  43.005   6.900   4.705
65610W        W34028   6.182   3.327  14.470
65611W        W34029  25.485   3.432   3.798
65612W        W34030   9.697  12.672   2.855
65613W        W34031  12.188  33.894   2.851
65614W        W34032  23.665  38.532   5.797
65615W        W34033   0.981   6.418  10.144
65616W        W34034  17.294  23.597   2.223
65617W        W34035  16.682  27.569   0.804
65618W        W34036  10.266   9.684  10.613
65619W        W34037   4.263  18.705  12.862
65620W        W34038  14.330  32.969   4.246
65621W        W34039  41.931  39.419  13.371
65622W        W34040  21.685  29.139  11.970
65623W        W34041  26.613  21.717   4.825
65624W        W34042  37.503  27.675  14.490
65625W        W34043  21.120   1.809  14.310
65626W        W34044  17.587  34.106  11.608
65627W        W34045  26.606   6.389  14.878
65628W        W34046   0.941  30.482  14.021
65629W        W34047  17.699  43.492  11.031
65630W        W34048   1.468  43.340  14.439
65631W        W34049  39.470   9.763  11.017
65632W        W34050  35.027  13.351  11.427
65633W        W34051  42.994  20.768   3.652
65634W        W34052  32.946   4.405   3.630
65635W        W34053  16.609  15.620  12.469
65636W        W34054   8.654  32.455  13.062
65637W        W34055  34.907  38.558   1.378
65638W        W34056  31.571  40.437   0.756
65639W        W34057   8.265  29.928  11.856
65640W        W34058   3.442  31.532  12.974
65641W        W34059  10.365   2.231   0.809
65642W        W34060  29.623  44.805   4.713
65643W        W34061  43.380  15.635   0.441
65644W        W34062  21.743   2.790  12.482
65645W        W34063  38.966  34.909  10.427
65646W        W34064  13.230  13.297  12.068
65647W        W34065   5.903   6.263   0.893
65648W        W34066  22.558   4.385  10.949
65649W        W34067  17.275  14.244  13.974
65650W        W34068  22.122  37.375   1.263
65651W        W34069  37.509  25.145  14.358
65652W        W34070  12.182  26.205  14.331
65653W        W34071  33.412  13.750  10.464
65654W        W34072  34.871  18.602   4.837
65655W        W34073  43.786  25.707   0.482
65656W        W34074  11.640  26.636   3.151
65657W        W34075   9.168  33.444  14.319
65658W        W34076  31.500  16.707  12.065
65659W        W34077  44.956   4.750  11.090
65660W        W34078  43.270   4.836  12.518
65661W        W34079  38.001  11.640  14.829
65662W        W34080  40.905   4.236   0.871
65663W        W34081   3.826  43.339  11.536
65664W        W34082   7.742  18.790  11.082
65665W        W34083   8.377  44.867   2.282
65666W        W34084  42.356  14.149  11.991
65667W        W34085  19.751  24.129   2.267
65668W        W34086  36.400  11.692   0.449
65669W        W34087   4.379  30.917   1.935
65670W        W34088  23.499   9.831  13.889
65671W        W34089  36.362  43.291  10.470
65672W        W34090  43.511  24.495  11.472
65673W        W34091  19.667  28.541  13.854
65674W        W34092  28.624   0.473  12.469
65675W        W34093  16.307  23.668  10.632
65676W        W34094   6.889   7.405   4.221
65677W        W34095   3.720   2.833   3.284
65678W        W34096  39.858  13.150  12.508
65679W        W34097  43.498  26.552  10.641
65680W        W34098  17.262  30.597  14.762
65681W        W34099  33.984  20.622  12.431
65682W        W34100  37.379  25.657  13.366
65683W        W34101   3.359  34.525  12.059
65684W        W34102   8.166  21.745   1.414
65685W        W34103  31.952  28.120   0.816
65686W        W34104  41.493   9.227  13.523
65687W        W34105   9.846  21.629   0.380
65688W        W34106   3.891  23.065   1.718
65689W        W34107  40.908   2.821   2.700
65690W        W34108  17.706  20.552   2.182
65691W        W34109   8.823  21.694   3.318
65692W        W34110  14.251  13.811  12.478
65693W        W34111  39.849  12.245   2.203
65694W        W34112  29.546  43.459   2.266
65695W        W34113  31.962  33.438  12.453
65696W        W34114  19.279  24.618  11.082
65697W        W34115  32.945  42.973   0.394
65698W        W34116  42.400  13.336  11.507
65699W        W34117  36.958   2.814   2.282
65700W        W34118  42.373   5.742   3.645
65701W        W34119  11.144   9.356  12.020
65702W        W34120   0.979   4.213  14.370
65703W        W34121   9.702  15.220  14.924
65704W        W34122  31.042  26.533   3.855
65705W        W34123  16.212  23.646  14.028
65706W        W34124  34.091  36.892   2.821
65707W        W34125  43.907   6.397  14.924
65708W        W34126  30.927  32.904  10.431
65709W        W34127   3.912   6.268  10.537
65710W        W34128  29.542  32.077  12.939
65711W        W34129   2.304  27.105  12.566
65712W        W34130   0.463  39.831   1.760
65713W        W34131  32.962  24.100   3.644
65714W        W34132  27.014   0.394   2.406
65715W        W34133  37.879  36.406  12.580
65716W        W34134  39.822  30.038   1.386
65717W        W34135  16.692  36.068   4.769
65718W        W34136  35.595  30.638  12.443
65719W        W34137  11.323   1.335   4.339
65720W        W34138   2.391  41.478   2.768
65721W        W34139   5.890  16.633  12.432
65722W        W34140  43.416  10.317   4.149
65723W        W34141  17.555  18.665  12.450
65724W        W34142   3.427  28.493   1.705
65725W        W34143  41.838  41.852   2.381
65726W        W34144   7.715  42.869  11.045
65727W        W34145  42.504  20.107  11.432
65728W        W34146   5.852  23.692   0.936
65729W        W34147  18.060  24.478   1.847
65730W        W34148  41.375  41.947   4.607
65731W        W34149   1.276  23.025   4.303
65732W        W34150   4.900   6.337  11.537
65733W        W34151  22.229   8.203  14.958
65734W        W34152  43.956   5.415   1.307
65735W        W34153  11.329  11.854   3.680
65736W        W34154  36.491   7.817   0.943
65737W        W34155  44.308  33.956  11.430
65738W        W34156  33.597  13.837  13.469
65739W        W34157  24.195  18.214  12.520
65740W        W34158  27.449  31.592  14.449
65741W        W34159   4.862  16.255   4.315
65742W        W34160  25.147   4.295  13.877
65743W        W34161  15.636  39.862  11.975
65744W        W34162  23.133  25.081   0.396
65745W        W34163  41.313  11.640   4.747
65746W        W34164  23.061   7.292  11.906
65747W        W34165  13.621   2.844  12.017
65748W        W34166  26.115  18.296  11.505
65749W        W34167  29.926  19.748   3.177
65750W        W34168  27.011  41.974   0.288
65751W        W34169  11.297  38.067  13.946
65752W        W34170   1.838  37.850  13.047
65753W        W34171  34.088  20.127  11.433
65754W        W34172  22.149   8.355  12.947
65755W        W34173   4.754  25.113  14.494
65756W        W34174   8.171   0.492   4.205
65757W        W34175   6.902   8.337   1.786
65758W        W34176  18.288  30.085   4.643
65759W        W34177   1.947  32.485  14.822
65760W        W34178  34.093   0.843  13.826
65761W        W34179   4.445  12.852  11.522
65762W        W34180  41.296   4.724  13.470
65763W        W34181  25.010  35.025  10.558
65764W        W34182   7.238   9.693  14.812
65765W        W34183  26.562  29.624   2.736
65766W        W34184  25.576   8.401   3.666
65767W        W34185  34.588  23.134  14.013
65768W        W34186  20.128   6.289  14.486
65769W        W34187  43.791  19.071  13.376
65770W        W34188  44.909  17.130   4.724
65771W        W34189  43.374  23.728  11.591
65772W        W34190   7.173   9.647  11.483
65773W        W34191  36.556  18.587  11.520
65774W        W34192  26.585  35.417  10.590
65775W        W34193   7.845  21.594  14.326
65776W        W34194  22.198  23.687  13.928
65777W        W34195  39.394   8.712   0.347
65778W        W34196  21.754  27.125   4.776
65779W        W34197  37.562  28.983  10.492
65780W        W34198  33.126   8.869  10.635
65781W        W34199  40.840  30.459  11.596
65782W        W34200  24.549   8.280   0.754
65783W        W34201  21.692  14.164  12.435
65784W        W34202  24.137  30.420  12.024
65785W        W34203  44.347  28.027  14.975
65786W        W34204  29.476  22.094   1.437
65787W        W34205  34.039  33.083   1.304
65788W        W34206  15.674   8.285   4.322
65789W        W34207  38.549  26.127  13.886
65790W        W34208  29.107  41.423   0.473
65791W        W34209   6.219   2.268   0.279
65792W        W34210  24.204  29.651  14.847
65793W        W34211   1.855  44.426   1.346
65794W        W34212   7.252  39.473  11.892
65795W        W34213  33.079  28.160  14.845
65796W        W34214   3.332  31.480   0.262
65797W        W34215  18.662  10.245   2.391
65798W        W34216  20.671  15.121  11.994
65799W        W34217  29.554  13.255  14.290
65800W        W34218   8.777   0.459  13.460
65801W        W34219  40.901   8.769  12.859
65802W        W34220   4.341  18.732   2.206
65803W        W34221  30.940   3.226   4.655
65804W        W34222  42.989  19.571   1.422
65805W        W34223  35.036  32.073  10.114
65806W        W34224   0.856  10.828  12.427
65807W        W34225  33.123  36.553   0.419
65808W        W34226  15.700  33.469   4.746
65809W        W34227  11.314  29.461  10.514
65810W        W34228  17.574  36.060   0.850
65811W        W34229  23.708  13.608  12.339
65812W        W34230  33.935  27.157   2.868
65813W        W34231  31.991   6.749  10.589
65814W        W34232   3.842  42.031   0.963
65815W        W34233   7.768  37.572  13.981
65816W        W34234  28.080  17.213   1.430
65817W        W34235   3.266  17.128  12.531
65818W        W34236  26.627  32.062  14.852
65819W        W34237  26.583  37.362  11.490
65820W        W34238   9.694   3.443   1.449
65821W        W34239  41.304   9.177  14.813
65822W        W34240   7.194  29.942   3.341
65823W        W34241  36.024   8.229  12.398
65824W        W34242  44.344  19.668  14.020
65825W        W34243   6.824  20.551   3.853
65826W        W34244  17.733  39.852  12.957
65827W        W34245  42.959  14.149  13.989
65828W        W34246  23.148  31.517  11.401
65829W        W34247  18.056   5.833  10.993
65830W        W34248  42.852   6.821  12.920
65831W        W34249  42.444  20.203   2.319
65832W        W34250  41.430  10.704  12.978
65833W        W34251  32.393  27.173  11.865
65834W        W34252   8.304  36.943   0.293
65835W        W34253  28.121  27.684   2.358
65836W        W34254  30.044  40.048   4.251
65837W        W34255  42.497  29.065  13.326
65838W        W34256  36.572  32.077  10.579
65839W        W34257  22.998   1.290  11.123
65840W        W34258  41.877  39.468   2.692
65841W        W34259  37.471  25.586  13.999
65842W        W34260  21.021  20.585   2.336
65843W        W34261  27.539   7.870  12.509
65844W        W34262   7.895  32.614   4.675
65845W        W34263   9.691   5.714   4.220
65846W        W34264  21.262  38.327   2.406
65847W        W34265  12.218  25.519   1.263
65848W        W34266  16.127  39.325   1.278
65849W        W34267  27.136  13.184   2.720
65850W        W34268  15.119   9.269  12.057
65851W        W34269   7.669  18.109  14.479
65852W        W34270  15.810  20.554   0.465
65853W        W34271  33.095  27.613  11.384
65854W        W34272  13.336  24.115   0.316
65855W        W34273  25.205  12.142   1.259
65856W        W34274  32.962  13.321   4.253
65857W        W34275   0.808  41.953  12.070
65858W        W34276  38.442  24.023   0.749
65859W        W34277  40.872  19.170   0.838
65860W        W34278  35.509  25.173  12.575
65861W        W34279  40.809  32.029  10.447
65862W        W34280  29.130   6.710   3.833
65863W        W34281  16.093  11.712   1.771
65864W        W34282  18.082  25.069   5.746
65865W        W34283  18.147   1.779  10.414
65866W        W34284  27.190  17.774  14.858
65867W        W34285  24.077  35.981   3.869
65868W        W34286   1.307  28.033  11.977
65869W        W34287  18.711  28.677  12.467
65870W        W34288   8.286  32.893  10.913
65871W        W34289  23.038  10.282  11.593
65872W        W34290  44.385   8.223  10.593
65873W        W34291  31.067   9.239   0.805
65874W        W34292  26.656   2.741   4.736
65875W        W34293  24.604  40.047   2.810
65876W        W34294   7.413  35.427   3.330
65877W        W34295   6.245  12.722   2.845
65878W        W34296  43.888  32.420   4.763
65879W        W34297  33.900  26.530  14.504
65880W        W34298  14.808  38.971  11.988
65881W        W34299  40.392   4.850   9.997
65882W        W34300  20.259  38.038   2.725
65883W        W34301  42.031  27.012  14.492
65884W        W34302   0.846  19.695  14.851
65885W        W34303  43.792  40.517  10.908
65886W        W34304   4.898  16.215   0.254
65887W        W34305  30.959  24.713   0.483
65888W        W34306  30.482  36.512  11.448
65889W        W34307  21.148  39.973  13.908
65890W        W34308  39.032  10.140  12.527
65891W        W34309   4.904  41.465  14.951
65892W        W34310  12.324  30.447  11.004
65893W        W34311  37.488  33.921  12.044
65894W        W34312  37.981  37.914   5.696
65895W        W34313  44.418  12.780   4.204
65896W        W34314  37.447  27.954  12.853
65897W        W34315   7.858   1.415  14.409
65898W        W34316   3.955  40.470  12.003
65899W        W34317  15.641  23.583  10.002
65900W        W34318  40.948  44.795  13.452
65901W        W34319   9.271   9.695   1.368
65902W        W34320  41.340  29.667   2.306
65903W        W34321  30.575  39.853  13.948
65904W        W34322  32.406  35.104  11.063
65905W        W34323   7.850  36.453  10.618
65906W        W34324  32.103  33.446  13.456
65907W        W34325  30.911  36.071  13.933
65908W        W34326  22.684  40.937   5.601
65909W        W34327   4.832  36.893  14.333
65910W        W34328  35.481  26.052  14.382
65911W        W34329   1.824  31.405   0.786
65912W        W34330  25.188   3.878   2.854
65913W        W34331   5.769  15.150  10.995
65914W        W34332  33.419  39.371  14.304
65915W        W34333  19.632  32.119  12.071
65916W        W34334  44.761  25.077  10.514
65917W        W34335  32.020  43.435  10.614
65918W        W34336  10.190  25.176   4.331
65919W        W34337  18.172  34.530  14.993
65920W        W34338  34.884   0.472  10.926
65921W        W34339  41.804  16.724  14.439
65922W        W34340  23.509  38.412  12.467
65923W        W34341  40.402  24.013   0.743
65924W        W34342   0.811  28.984   4.825
65925W        W34343  19.119  35.396  14.925
65926W        W34344  10.859  41.945  10.628
65927W        W34345  14.616  32.477  11.595
65928W        W34346  33.449  24.608   3.157
65929W        W34347  24.187  20.113   1.897
65930W        W34348  36.894  40.841  12.002
65931W        W34349  39.334  27.483  11.372
65932W        W34350  27.457   0.909   3.836
65933W        W34351  22.119  18.183   0.249
65934W        W34352   7.233   9.713  13.865
65935W        W34353   7.770   2.853   0.737
65936W        W34354  37.582  27.575  13.847
65937W        W34355  37.556   2.749  13.512
65938W        W34356   6.202  26.060   4.676
65939W        W34357  32.051  10.368   3.715
65940W        W34358   2.395  18.266  10.974
65941W        W34359  16.275  24.593  11.490
65942W        W34360  34.449  10.243   4.598
65943W        W34361  30.654  38.858   4.173
65944W        W34362  36.402  28.580  10.486
65945W        W34363  40.983  29.129  11.590
65946W        W34364  11.336  11.331  13.904
65947W        W34365  44.449   8.274  14.990
65948W        W34366   1.879  20.081   0.785
65949W        W34367   8.669  22.114   4.349
65950W        W34368   8.186  44.475  13.939
65951W        W34369  29.071  23.655  10.510
65952W        W34370   7.707  22.102  12.408
65953W        W34371  30.601  31.431   4.791
65954W        W34372  37.540  36.548   2.299
65955W        W34373   6.843  44.441  13.407
65956W        W34374  27.070  28.619  10.645
65957W        W34375  41.454  30.448   3.148
65958W        W34376  30.059  11.259   2.224
65959W        W34377  19.758  31.998  13.061
65960W        W34378   4.861  41.479   5.291
65961W        W34379  37.908  30.600  12.940
65962W        W34380  39.909  27.486   1.753
65963W        W34381   3.818   0.418  11.082
65964W        W34382   2.806  27.494  11.070
65965W        W34383   1.923  39.544  12.395
65966W        W34384  21.042  33.469  14.884
65967W        W34385   1.241  17.727   4.274
65968W        W34386   6.744   7.857  13.052
65969W        W34387  36.581  18.653  10.583
65970W        W34388   3.313  27.061  12.363
65971W        W34389  17.276   7.239  10.440
65972W        W34390  42.789  44.985   3.785
65973W        W34391  28.127  23.197  13.437
65974W        W34392  15.248   2.261   2.229
65975W        W34393  25.031  32.930  11.960
65976W        W34394   7.763  15.201  11.423
65977W        W34395  21.619  15.598   4.598
65978W        W34396  11.151  21.064  13.868
65979W        W34397  43.004  15.750   1.429
65980W        W34398  18.545  36.438  10.534
65981W        W34399  43.978  19.625   1.389
65982W        W34400   3.399  34.119  14.768
65983W        W34401   8.824  13.684  13.529
65984W        W34402   6.193  29.982   0.453
65985W        W34403   0.289  35.366   3.311
65986W        W34404   8.171   6.216  11.607
65987W        W34405  10.205   0.248  14.319
65988W        W34406   0.426  41.387   0.359
65989W        W34407  30.538   3.250   0.796
65990W        W34408  14.740  39.996  11.873
65991W        W34409  21.571  34.094   2.871
65992W        W34410  32.432   6.408  10.607
65993W        W34411  30.501  40.971  11.945
65994W        W34412  31.507  23.108  13.542
65995W        W34413   6.317  25.023  10.973
65996W        W34414  35.542  21.605  12.833
65997W        W34415   1.845  38.407  13.315
65998W        W34416  27.653  39.375   2.290
65999W        W34417  12.158  44.010  14.993
66000W        W34418   9.812  23.102   3.804
66001W        W34419  27.513  12.171   2.672
66002W        W34420  22.553  22.714  14.960
66003W        W34421   5.298  12.350  13.436
66004W        W34422  37.426  14.801  11.125
66005W        W34423  40.314  44.955  14.800
66006W        W34424  14.180  42.413  11.005
66007W        W34425  23.175  26.506   0.732
66008W        W34426   7.292  38.955   0.369
66009W        W34427  37.495  18.195  14.428
66010W        W34428  16.210  44.941  10.506
66011W        W34429  24.634  28.073  12.477
66012W        W34430  29.049  41.328   1.318
66013W        W34431  32.113  21.588  11.983
66014W        W34432  32.006  30.619   0.939
66015W        W34433  38.004  35.565  12.001
66016W        W34434  29.032  26.463   0.404
66017W        W34435  30.545  18.258   4.280
66018W        W34436  24.478  42.383   3.342
66019W        W34437  23.684   0.771  13.338
66020W        W34438  26.544  23.582   2.881
66021W        W34439  34.549   7.760  12.992
66022W        W34440  41.538  22.213   5.103
66023W        W34441  12.130  13.845  13.015
66024W        W34442  43.816  12.640  10.533
66025W        W34443  44.270  23.712  10.155
66026W        W34444  21.522  39.420  11.949
66027W        W34445  41.980  17.727  14.445
66028W        W34446  24.166  42.811   0.952
66029W        W34447  22.658  18.564   0.411
66030W        W34448  40.528  18.591  13.898
66031W        W34449  20.630  22.582   0.386
66032W        W34450   7.417  36.860   3.810
66033W        W34451   6.244   5.737  12.476
66034W        W34452  14.601  30.477   4.345
66035W        W34453  20.162  19.204  14.501
66036W        W34454  20.132  39.560   4.316
66037W        W34455   2.959  37.022   2.716
66038W        W34456   9.223  29.424  10.939
66039W        W34457  41.450  40.488   1.223
66040W        W34458   2.776   8.683   1.375
66041W        W34459  23.198  13.610   1.313
66042W        W34460  20.537   6.710  12.401
66043W        W34461  22.579  12.221   0.279
66044W        W34462  28.167  21.674   2.369
66045W        W34463  26.565   7.817   4.243
66046W        W34464  21.609   7.301   4.637
66047W        W34465  34.432   1.799  14.476
66048W        W34466  16.204  28.476  11.593
66049W        W34467  26.579  16.148   2.229
66050W        W34468  41.308  28.060  14.342
66051W        W34469  30.648  25.067   3.651
66052W        W34470  22.648  33.074   4.190
66053W        W34471   9.777  32.517  12.451
66054W        W34472  20.588  29.509   0.876
66055W        W34473  22.090   1.753  11.474
66056W        W34474  23.093   9.370  14.300
66057W        W34475  10.381   9.341  14.474
66058W        W34476  29.568  14.708   4.708
66059W        W34477  43.506   9.889   2.295
66060W        W34478   1.900   0.293  11.091
66061W        W34479  36.355  21.616  11.878
66062W        W34480  43.787  28.488   0.425
66063W        W34481  34.497   0.398   0.862
66064W        W34482  10.717  32.044   2.204
66065W        W34483  31.061  36.449   3.790
66066W        W34484   5.253   4.847   0.936
66067W        W34485  14.167   3.368   3.330
66068W        W34486  41.380  36.875   2.746
66069W        W34487   4.786   4.371   2.731
66070W        W34488  39.529  12.181  12.019
66071W        W34489   9.850  23.066  12.933
66072W        W34490  20.222  19.622  13.805
66073W        W34491  31.639  24.647  13.410
66074W        W34492  20.142  20.260  12.022
66075W        W34493  40.887   0.759   4.711
66076W        W34494  13.134  43.408   0.817
66077W        W34495   4.850  43.907   0.394
66078W        W34496  26.461  38.434   3.777
66079W        W34497  43.813  25.985  13.827
66080W        W34498  19.694  29.046  12.351
66081W        W34499  30.953   3.445  12.407
66082W        W34500   0.382  25.982  12.914
66083W        W34501  25.513   2.902  14.828
66084W        W34502  30.485  23.581  11.099
66085W        W34503   3.365   5.242  12.477
66086W        W34504  16.732   3.714  14.457
66087W        W34505  11.186  33.412   4.690
66088W        W34506  16.313  33.399  12.542
66089W        W34507  31.610   5.420  13.509
66090W        W34508  13.351  37.368  14.832
66091W        W34509   6.244  17.181   0.949
66092W        W34510  16.096  32.932   1.369
66093W        W34511  29.048  11.354   0.438
66094W        W34512   3.866  19.628   3.220
66095W        W34513  18.081   7.681  13.348
66096W        W34514   6.205   6.726   3.869
66097W        W34515  21.097  44.948  13.062
66098W        W34516  40.341  20.631   0.815
66099W        W34517  41.951  18.660  11.606
66100W        W34518  27.982  11.283  12.059
66101W        W34519  11.725  22.602  11.564
66102W        W34520  34.921  23.208   2.404
66103W        W34521  41.855  10.657  13.384
66104W        W34522  34.872   7.274  14.824
66105W        W34523  27.134  44.827   3.742
66106W        W34524  42.498  11.796   2.235
66107W        W34525  17.617  17.790   3.385
66108W        W34526  26.517  18.069   2.870
66109W        W34527  12.228  27.193  11.110
66110W        W34528  18.644  44.430   0.462
66111W        W34529  31.963  42.877   3.808
66112W        W34530  37.436  40.496  13.875
66113W        W34531   3.380  17.612  10.487
66114W        W34532  20.611   8.329  13.921
66115W        W34533  34.456  16.248   0.373
66116W        W34534  16.600  13.107  13.965
66117W        W34535  32.067   4.915   2.855
66118W        W34536  39.901  26.463   2.185
66119W        W34537  24.126   7.697   0.245
66120W        W34538   7.262   4.850   2.874
66121W        W34539  33.623  30.511  11.095
66122W        W34540  26.467  24.024   1.446
66123W        W34541  15.599   4.818  11.090
66124W        W34542  27.631  26.655   2.248
66125W        W34543  30.595  21.518   3.225
66126W        W34544  30.105   3.392   4.217
66127W        W34545  44.487   0.925   3.667
66128W        W34546   7.799  25.671   2.254
66129W        W34547  16.663  29.508  12.504
66130W        W34548  40.015  13.637   0.300
66131W        W34549   4.852  35.968   4.711
66132W        W34550  41.856  37.456   2.266
66133W        W34551  42.443  29.658  14.324
66134W        W34552  14.279   6.768   0.954
66135W        W34553  43.962   5.300   2.267
66136W        W34554  38.893  15.690   1.232
66137W        W34555  43.807   7.367  12.984
66138W        W34556  30.463  37.033  14.783
66139W        W34557  23.707  23.733   2.863
66140W        W34558   8.851  38.881   4.768
66141W        W34559   0.786   3.420   0.873
66142W        W34560  42.418   8.173  13.889
66143W        W34561  31.105   7.690  12.492
66144W        W34562  44.455  31.511   2.398
66145W        W34563   1.934  30.631   2.195
66146W        W34564  29.529  30.595   9.937
66147W        W34565  27.969  25.540   2.676
66148W        W34566   8.208  21.214   2.901
66149W        W34567  16.285  33.525  10.414
66150W        W34568  33.998  14.195  13.373
66151W        W34569  40.390  35.400  14.282
66152W        W34570  43.811  42.022  11.937
66153W        W34571  32.597  42.969  13.948
66154W        W34572   1.782  40.822  13.813
66155W        W34573   0.358  34.582  10.924
66156W        W34574  30.041  36.978  11.949
66157W        W34575  21.671  26.191  11.424
66158W        W34576   8.840   4.294   3.240
66159W        W34577  23.135  25.654  12.475
66160W        W34578  24.513  43.785  11.587
66161W        W34579  33.405   4.240   2.252
66162W        W34580  32.611  10.638  13.396
66163W        W34581   0.309  33.963  10.941
66164W        W34582  14.318  14.170  10.913
66165W        W34583  37.535  11.331  11.961
66166W        W34584  35.596  25.125   3.167
66167W        W34585   5.202  18.076   4.692
66168W        W34586  30.030  11.226  11.080
66169W        W34587   0.372  41.911  13.962
66170W        W34588  24.188  18.708  14.331
66171W        W34589  22.996  34.459   4.118
66172W        W34590   6.827  34.924   4.662
66173W        W34591   2.932  19.604   5.115
66174W        W34592  29.559  22.559   1.290
66175W        W34593  33.963   1.322   0.467
66176W        W34594   0.793   1.255  13.328
66177W        W34595  22.637   9.648   1.869
66178W        W34596  40.894   0.379   2.722
66179W        W34597  33.382  10.721   1.268
66180W        W34598   3.315  23.136   4.757
66181W        W34599   9.345  11.246   4.742
66182W        W34600  32.996  39.421   3.296
66183W        W34601  42.327  23.542   3.644
66184W        W34602  30.469  15.589  12.441
66185W        W34603  26.017  36.849  13.967
66186W        W34604   3.919   1.400  11.400
66187W        W34605  41.886  42.932   3.866
66188W        W34606  26.620  36.866   0.877
66189W        W34607  12.787  43.350  12.572
66190W        W34608  31.092   1.837  11.052
66191W        W34609  19.153  33.084  11.431
66192W        W34610  29.455  21.206   5.107
66193W        W34611  43.861  15.661   0.336
66194W        W34612  24.099  34.565  10.980
66195W        W34613   7.386  14.812  11.081
66196W        W34614  29.153  10.220  11.599
66197W        W34615  10.316  19.747   4.224
66198W        W34616  23.502   6.205  10.594
66199W        W34617  44.393   4.900  10.983
66200W        W34618  37.452  11.844   3.310
66201W        W34619  36.523  25.127  10.007
66202W        W34620  14.592  15.193  10.552
66203W        W34621  36.357   1.263   2.690
66204W        W34622  13.135  27.015  11.427
66205W        W34623  22.507   4.857   2.378
66206W        W34624  31.943  37.041  12.017
66207W        W34625  38.385  15.246   0.792
66208W        W34626  14.279  27.167   1.410
66209W        W34627  16.717  39.001   1.329
66210W        W34628   4.705  11.200   4.255
66211W        W34629  25.140   9.344   3.798
66212W        W34630  24.577  21.044  12.880
66213W        W34631  20.246  43.999   3.352
66214W        W34632  42.520  28.185   0.267
66215W        W34633   4.323   0.762   2.849
66216W        W34634   7.800  26.679   2.830
66217W        W34635   9.767  18.577  14.028
66218W        W34636  41.842  23.625   0.827
66219W        W34637  43.344  15.584  13.361
66220W        W34638  31.555  40.517   4.728
66221W        W34639   5.281  10.273   1.351
66222W        W34640  12.117  44.989  14.368
66223W        W34641   9.716  30.476   2.297
66224W        W34642  38.852  20.076   0.407
66225W        W34643   0.267  26.561  11.105
66226W        W34644  30.490  28.950   0.881
66227W        W34645  28.466  37.939   0.281
66228W        W34646   5.322  36.579  12.486
66229W        W34647  37.910  15.158  12.369
66230W        W34648  30.032  26.203   2.270
66231W        W34649  11.318  16.662  12.840
66232W        W34650  15.727  19.773   0.249
66233W        W34651  35.455   4.796   2.890
66234W        W34652  16.641  35.463  14.461
66235W        W34653  40.850   1.751   1.256
66236W        W34654  21.236   6.411   4.653
66237W        W34655  23.735  34.869   4.769
66238W        W34656   9.740  39.517  12.373
66239W        W34657   7.325  15.216   1.720
66240W        W34658   1.924  22.587  11.512
66241W        W34659   5.700  41.043   2.855
66242W        W34660   1.825  39.350  14.363
66243W        W34661  39.845  34.468   4.683
66244W        W34662  39.926  10.315  10.576
66245W        W34663  33.451  27.136  14.922
66246W        W34664  34.393  21.640   0.759
66247W        W34665   0.979  28.164  14.020
66248W        W34666   9.875  23.000  12.423
66249W        W34667  11.312   5.321   2.834
66250W        W34668  24.617  34.055   3.796
66251W        W34669  30.656  31.142  13.488
66252W        W34670   8.270  31.483  11.941
66253W        W34671  35.403   6.351   2.231
66254W        W34672  21.175   3.908  11.534
66255W        W34673   5.745  44.916  12.441
66256W        W34674  16.088  35.915   1.309
66257W        W34675  10.673  25.531   0.782
66258W        W34676  11.221  29.444  12.366
66259W        W34677  17.744   8.671   4.689
66260W        W34678  30.427  19.755   2.710
66261W        W34679  25.128  18.633   0.406
66262W        W34680  22.618  42.350  12.975
66263W        W34681  10.840  35.574   3.686
66264W        W34682  28.944  30.140  11.527
66265W        W34683  26.044   9.184  13.446
66266W        W34684  11.659  40.985   1.861
66267W        W34685  15.662  15.768   2.798
66268W        W34686  29.133  38.535   2.250
66269W        W34687  12.284  34.912   0.314
66270W        W34688  36.556  10.384   3.204
66271W        W34689  36.050   8.706  14.348
66272W        W34690   6.414  13.153  11.532
66273W        W34691  14.764  42.897  10.594
66274W        W34692  41.984  42.906   2.370
66275W        W34693  15.729  30.548   4.225
66276W        W34694  23.555  20.673   4.346
66277W        W34695  26.968  26.649  11.072
66278W        W34696  35.074  38.023  14.995
66279W        W34697  30.086  43.817   3.155
66280W        W34698  22.635  32.401   1.780
66281W        W34699  28.625  20.234  10.482
66282W        W34700  26.614  17.591   2.246
66283W        W34701  36.001  14.260   0.459
66284W        W34702  32.058  13.159  12.001
66285W        W34703  39.323  13.799  11.600
66286W        W34704  28.027  12.341   2.757
66287W        W34705  23.699  43.867  14.515
66288W        W34706  11.814  11.354  11.887
66289W        W34707   4.241  37.390  13.537
66290W        W34708  12.754  40.360  14.360
66291W        W34709  39.343  23.696  12.947
66292W        W34710   3.228  16.074  13.959
66293W        W34711  23.707   2.418  10.405
66294W        W34712  39.399  35.588  14.006
66295W        W34713  25.967  16.620  11.116
66296W        W34714   9.160  28.593   0.437
66297W        W34715   8.207  35.950   2.360
66298W        W34716  13.109  31.002  14.295
66299W        W34717  20.096   3.947  10.952
66300W        W34718  35.504  25.544  13.446
66301W        W34719   3.386  38.971   1.318
66302W        W34720   5.228  41.897   0.752
66303W        W34721   4.778  34.445  10.888
66304W        W34722   8.754  37.450  10.023
66305W        W34723  26.566  23.049   2.783
66306W        W34724  12.651  37.925   1.283
66307W        W34725  40.987   1.856  11.480
66308W        W34726  37.537   6.256   3.802
66309W        W34727  22.563  35.965  14.425
66310W        W34728  19.548  11.792  10.995
66311W        W34729  40.999  22.572   0.390
66312W        W34730  20.762  39.461   1.415
66313W        W34731   2.735  21.619   0.832
66314W        W34732  41.872  16.721   3.699
66315W        W34733  19.664   0.436   0.375
66316W        W34734  19.160  29.099  11.938
66317W        W34735  12.670   8.236   0.759
66318W        W34736  31.985  22.739  10.422
66319W        W34737   1.741  22.184  13.353
66320W        W34738  14.767  15.694  14.966
66321W        W34739  41.467  40.865   0.425
66322W        W34740  25.969  31.935  14.018
66323W        W34741  39.512  26.482  14.915
66324W        W34742  20.054  32.395   2.317
66325W        W34743  40.420  18.544  10.535
66326W        W34744  39.897  13.736   0.954
66327W        W34745  38.560  33.481   3.649
66328W        W34746  35.057  38.925  10.544
66329W        W34747  40.441  17.754   2.365
66330W        W34748   1.327   5.815   4.124
66331W        W34749  25.045  26.571   3.761
66332W        W34750   8.828  36.911   3.226
66333W        W34751  18.115  21.092  14.767
66334W        W34752  36.592   2.359   3.295
66335W        W34753  38.524  33.097   2.801
66336W        W34754  23.528  17.652   2.245
66337W        W34755   4.377   0.375  14.769
66338W        W34756  26.553  29.479  10.543
66339W        W34757   2.952  23.176   1.380
66340W        W34758   7.846  40.503  13.386
66341W        W34759  26.599  41.960  11.032
66342W        W34760  22.247  20.265   2.218
66343W        W34761  37.830  17.217  13.888
66344W        W34762  15.597  43.348   1.783
66345W        W34763   7.833  34.412   0.365
66346W        W34764  15.823  21.757   4.615
66347W        W34765  13.297  39.060   5.252
66348W        W34766  20.714  39.019   2.698
66349W        W34767   8.687   8.795  10.552
66350W        W34768   3.360  32.578   2.244
66351W        W34769  38.511  19.072   3.854
66352W        W34770  44.861   0.450  13.012
66353W        W34771  15.697   2.239   3.802
66354W        W34772  16.202  37.067  10.975
66355W        W34773  40.448  37.024  14.426
66356W        W34774  23.217  18.627  14.845
66357W        W34775  39.463  27.643   0.916
66358W        W34776  17.217   2.458  11.045
66359W        W34777  38.345  31.064   0.777
66360W        W34778   1.255  10.782   4.631
66361W        W34779  35.562  18.051  11.539
66362W        W34780  20.241  15.289   1.927
66363W        W34781  39.936   6.231  11.890
66364W        W34782  32.126  43.877   2.266
66365W        W34783  15.728  19.548   4.825
66366W        W34784  20.085  36.357  14.759
66367W        W34785  18.610   3.935  10.896
66368W        W34786  44.462   3.711   3.868
66369W        W34787  33.561   4.801  11.036
66370W        W34788  30.579  43.975  13.445
66371W        W34789   2.789  19.200   3.320
66372W        W34790  32.116  22.016  11.927
66373W        W34791  23.046  42.361  12.391
66374W        W34792  22.666  25.972  12.017
66375W        W34793  16.667  35.427  12.029
66376W        W34794  14.834  29.050  14.931
66377W        W34795  19.554  36.996  14.891
66378W        W34796   8.693   1.319   2.419
66379W        W34797  23.061  13.347  12.866
66380W        W34798  12.768  22.209  12.468
66381W        W34799  32.494  42.421   3.677
66382W        W34800  17.064   1.350   3.268
66383W        W34801  29.072  19.662  11.509
66384W        W34802  21.721  26.146   0.795
66385W        W34803  31.083  24.558  11.022
66386W        W34804  36.011  32.020   2.223
66387W        W34805   0.868  33.577   1.450
66388W        W34806  34.425  17.218   0.479
66389W        W34807  10.648  27.509   0.434
66390W        W34808  32.060   1.949   0.451
66391W        W34809  29.112   9.155  14.365
66392W        W34810  42.835  21.070  10.577
66393W        W34811   0.771  24.698  12.371
66394W        W34812   4.366  43.860  11.551
66395W        W34813  27.511  44.379   4.606
66396W        W34814   0.801   3.428  13.931
66397W        W34815  17.779  15.285  10.645
66398W        W34816  29.148  39.538   1.818
66399W        W34817  36.920  34.089  10.927
66400W        W34818  31.008  16.255  13.977
66401W        W34819   1.861  44.458  13.522
66402W        W34820  11.727  26.469  13.056
66403W        W34821  21.737  43.307   2.179
66404W        W34822  35.039  29.172  14.278
66405W        W34823  40.895  11.169  11.491
66406W        W34824  43.768  29.097  11.031
66407W        W34825  11.632  44.860  12.486
66408W        W34826   2.735  27.036  13.858
66409W        W34827   5.873   3.389   4.765
66410W        W34828   3.427  30.153  13.002
66411W        W34829  32.401  30.153  12.860
66412W        W34830  33.929  40.798   1.303
66413W        W34831  33.406  29.563  13.309
66414W        W34832  10.642  25.641  13.888
66415W        W34833  38.517  32.064   4.830
66416W        W34834  34.948  44.311  14.795
66417W        W34835  30.047  32.141   0.262
66418W        W34836  34.924  36.561   0.296
66419W        W34837  36.949  18.770  12.431
66420W        W34838   6.218   3.823   0.472
66421W        W34839   2.903  33.566  10.948
66422W        W34840  36.538  39.450  14.435
66423W        W34841  40.809  18.563   0.381
66424W        W34842   9.668  19.749   1.816
66425W        W34843   0.870  30.968  10.133
66426W        W34844  41.378  13.190   3.278
66427W        W34845  42.308   7.767  10.638
66428W        W34846  17.107  24.077  10.043
66429W        W34847  13.219  25.139   9.933
66430W        W34848  40.968  27.105  11.492
66431W        W34849  36.038  11.741   0.757
66432W        W34850  32.565  30.594  14.888
66433W        W34851  27.471  33.475  13.463
66434W        W34852  17.079  18.280   2.870
66435W        W34853  11.696  17.719   3.728
66436W        W34854  36.416   7.182   1.746
66437W        W34855   6.917  16.726   2.696
66438W        W34856   7.294  36.002  13.020
66439W        W34857   7.869  35.984  14.917
66440W        W34858  20.146  37.897  12.869
66441W        W34859  43.948  34.394  10.983
66442W        W34860  36.875  29.087  11.607
66443W        W34861  21.142  22.510   3.803
66444W        W34862  28.036  39.510   4.823
66445W        W34863  19.768  22.073   1.312
66446W        W34864   6.830   1.282  13.346
66447W        W34865  29.011   4.935   1.726
66448W        W34866  26.490  20.537   3.314
66449W        W34867  34.080  32.910  11.445
66450W        W34868  18.076  20.576   2.334
66451W        W34869  22.721  10.212   1.267
66452W        W34870  43.502  19.642  11.969
66453W        W34871  33.457   7.808  12.436
66454W        W34872  41.472  44.329   1.237
66455W        W34873  11.837   3.361   0.830
66456W        W34874  31.595  10.751  11.418
66457W        W34875  31.122  27.562  12.954
66458W        W34876  16.198   6.245  10.538
66459W        W34877  38.452  12.840   2.666
66460W        W34878  32.398  23.160  12.850
66461W        W34879  44.501  17.656   4.689
66462W        W34880  43.430   1.418  13.996
66463W        W34881   8.689   0.877   0.802
66464W        W34882  29.139  30.551   0.422
66465W        W34883  13.663   7.697   2.352
66466W        W34884  37.509  11.252  10.997
66467W        W34885  12.268  13.614   0.326
66468W        W34886  44.369  42.516   4.823
66469W        W34887  39.988   8.304  13.866
66470W        W34888  26.975  20.639   3.175
66471W        W34889   3.411   7.402  14.782
66472W        W34890  36.029  42.828   0.802
66473W        W34891  10.324  17.095   1.377
66474W        W34892  15.742  13.614   0.362
66475W        W34893  10.361  25.510  12.929
66476W        W34894  36.516  19.206   3.811
66477W        W34895   1.774  24.201   0.934
66478W        W34896  43.303  40.399  14.482
66479W        W34897  42.440  12.715   3.653
66480W        W34898  20.115  40.024   3.722
66481W        W34899  40.940   7.249   0.901
66482W        W34900  12.190  40.388  10.936
66483W        W34901   4.239   4.883  14.020
66484W        W34902   8.831  15.304  14.824
66485W        W34903   4.721  43.999  11.055
66486W        W34904  11.834   2.278  10.068
66487W        W34905   6.269   3.259  11.982
66488W        W34906  10.353   5.730  10.569
66489W        W34907  22.014  26.491  14.276
66490W        W34908  36.919  37.522   5.266
66491W        W34909  31.020   8.660   2.817
66492W        W34910  12.280  36.496   3.168
66493W        W34911  16.746  35.369   3.833
66494W        W34912   6.828  33.585  10.437
66495W        W34913   9.232   5.876   2.205
66496W        W34914  19.623  22.151   4.321
66497W        W34915  42.914  17.746   3.697
66498W        W34916  27.628  18.599  10.539
66499W        W34917  29.005  33.471   2.787
66500W        W34918  41.899  39.410  10.025
66501W        W34919   9.808  31.020  11.468
66502W        W34920  26.460  10.173  14.811
66503W        W34921  13.246  30.067  11.418
66504W        W34922   3.877  11.821   3.776
66505W        W34923  13.833  36.504  13.902
66506W        W34924  14.706  30.432   0.821
66507W        W34925  29.003  31.481   2.419
66508W        W34926  14.296  32.534  12.872
66509W        W34927   3.948  41.521   1.727
66510W        W34928  41.856  25.997  10.485
66511W        W34929  21.135  44.921  11.529
66512W        W34930  40.924  40.541   4.259
66513W        W34931  39.385   4.250   0.403
66514W        W34932   2.466  25.700   3.356
66515W        W34933   1.859  27.655   2.398
66516W        W34934  24.114   2.287  13.914
66517W        W34935   0.467  41.443   1.825
66518W        W34936   0.783  21.663  10.140
66519W        W34937   1.861  36.546  12.072
66520W        W34938   9.306  34.910   4.651
66521W        W34939  34.583  13.212   2.234
66522W        W34940  32.622  40.490  12.343
66523W        W34941   1.944  32.041   3.747
66524W        W34942  27.559  38.397  12.965
66525W        W34943  37.372  43.872   2.851
66526W        W34944   4.366   5.902   2.683
66527W        W34945  41.877  28.037   2.880
66528W        W34946  21.146   3.330   2.279
66529W        W34947   3.458  20.630  10.076
66530W        W34948  15.323   1.944  11.526
66531W        W34949   3.835  18.651  12.422
66532W        W34950  29.552  39.494  11.550
66533W        W34951  14.735   7.839  11.973
66534W        W34952  22.176  40.461   4.230
66535W        W34953  18.656  29.616   2.865
66536W        W34954   3.225   5.896   4.204
66537W        W34955  35.920   5.438   4.690
66538W        W34956  40.326  24.051   3.789
66539W        W34957   0.847  16.813  10.619
66540W        W34958  41.472   3.395  12.359
66541W        W34959   1.794  37.976   4.783
66542W        W34960  12.134  24.685   1.434
66543W        W34961   2.935  36.453  12.052
66544W        W34962   7.328  34.597   0.333
66545W        W34963  20.574  13.205  11.125
66546W        W34964  34.937  18.624  12.341
66547W        W34965  34.901  41.339   3.727
66548W        W34966  32.078  32.019   0.818
66549W        W34967   5.405  16.574  12.883
66550W        W34968  32.017  34.897   5.309
66551W        W34969  39.421   8.260  12.533
66552W        W34970  22.713   1.883  13.967
66553W        W34971   2.339  43.392   0.763
66554W        W34972  43.905  18.730   1.851
66555W        W34973  11.323  29.586   2.700
66556W        W34974  18.219   0.804   4.811
66557W        W34975   4.714  28.984   2.317
66558W        W34976  28.588  13.305  13.817
66559W        W34977  41.030  29.619   2.741
66560W        W34978  11.172  20.134   1.927
66561W        W34979  34.478  39.430  10.911
66562W        W34980  36.433  32.931   3.746
66563W        W34981  12.232   4.368  10.414
66564W        W34982  25.184  26.545   0.736
66565W        W34983  43.319  13.169   3.650
66566W        W34984  29.644  44.449  13.019
66567W        W34985  20.230   0.814   9.963
66568W        W34986  42.313  31.994   4.784
66569W        W34987   2.413  18.584   5.145
66570W        W34988  22.165  29.575  12.448
66571W        W34989  10.735  25.195   0.429
66572W        W34990  27.611  30.641  11.492
66573W        W34991   9.370  26.194  10.601
66574W        W34992  17.764  10.873   3.226
66575W        W34993   9.353   2.752  10.460
66576W        W34994   4.925   5.884   1.695
66577W        W34995  15.591  16.312  11.499
66578W        W34996   5.325  42.986   4.721
66579W        W34997  34.930   8.259  14.001
66580W        W34998  24.018  20.712  11.906
66581W        W34999  39.395   3.457  12.857
66582W        W35000  34.426   1.813   0.406
66583W        W35001  39.480   3.443  13.993
66584W        W35002  13.330   1.391  10.508
66585W        W35003   5.393  42.309   2.891
66586W        W35004  29.940  20.738   3.722
66587W        W35005   0.333   9.203   1.823
66588W        W35006  32.547  16.736  12.030
66589W        W35007  21.528   1.375   3.805
66590W        W35008  43.330  26.054  11.937
66591W        W35009  33.127  37.071   0.938
66592W        W35010   5.817  41.352   0.932
66593W        W35011   3.810  31.089  14.785
66594W        W35012  25.005   6.346  13.806
66595W        W35013  32.074  23.689  13.000
66596W        W35014  37.875  18.568   0.914
66597W        W35015  12.285  11.792  11.005
66598W        W35016  27.124  31.021  11.591
66599W        W35017  44.842  21.666   4.348
66600W        W35018  33.961  20.690  13.372
66601W        W35019   4.269  17.557  14.309
66602W        W35020   6.199  40.913   1.834
66603W        W35021  42.971  34.120   3.284
66604W        W35022  38.894  18.577   4.812
66605W        W35023  24.198  21.166  11.372
66606W        W35024  21.179  10.668   3.353
66607W        W35025  21.608  21.596  11.918
66608W        W35026  15.153  26.033   3.246
66609W        W35027  42.414  17.634   3.746
66610W        W35028  43.318  44.939  10.946
66611W        W35029  44.342  35.562  10.956
66612W        W35030  28.013  42.970  12.897
66613W        W35031   8.864  14.758   4.653
66614W        W35032  35.570  35.440   4.354
66615W        W35033  11.707  44.958  10.490
66616W        W35034  28.073   7.218   9.944
66617W        W35035  33.415  42.433   2.237
66618W        W35036  42.942   6.788   3.268
66619W        W35037   1.974  21.674   0.309
66620W        W35038  20.767  39.872   9.943
66621W        W35039  40.368   6.818   2.360
66622W        W35040  27.034  14.597   2.223
66623W        W35041  39.969  30.485  14.993
66624W        W35042  39.839  33.554  12.368
66625W        W35043  39.814  28.937   2.760
66626W        W35044  34.419  31.999  14.992
66627W        W35045   7.233  22.158  12.926
66628W        W35046  15.786  43.899   3.340
66629W        W35047  41.950   3.353   0.878
66630W        W35048  44.450  14.307  10.482
66631W        W35049   9.686  23.731  14.383
66632W        W35050  25.702  20.731  12.470
66633W        W35051   9.775  33.877   0.922
66634W        W35052  32.114   9.787  10.509
66635W        W35053  13.188  29.982  14.498
66636W        W35054   1.351   4.412   2.341
66637W        W35055  32.498  33.468  14.775
66638W        W35056  21.629   2.871  12.910
66639W        W35057   0.958  36.092  10.610
66640W        W35058  10.799  10.162  12.091
66641W        W35059  32.478  42.427   2.880
66642W        W35060   9.719   0.340   3.272
66643W        W35061   6.402  19.715   1.755
66644W        W35062  39.044  39.942  14.316
66645W        W35063  42.301  24.008  10.580
66646W        W35064  42.389   0.468   0.913
66647W        W35065  15.302  14.669  10.502
66648W        W35066  30.549  17.595  11.981
66649W        W35067  28.120  39.315  13.917
66650W        W35068  22.222  36.069  14.355
66651W        W35069  35.517  12.135  11.964
66652W        W35070  38.835   8.299  10.901
66653W        W35071  12.231  35.416   3.366
66654W        W35072  13.808  37.998  11.914
66655W        W35073  26.153  26.059   0.754
66656W        W35074  41.386   3.775  12.486
66657W        W35075  13.325  29.670  12.851
66658W        W35076  31.448   3.943  14.277
66659W        W35077  37.358  19.778  11.080
66660W        W35078  35.432  26.082  14.812
66661W        W35079  41.010  19.657   4.128
66662W        W35080  39.997  12.718  12.500
66663W        W35081  38.365   7.840  12.857
66664W        W35082  11.665   4.431  12.533
66665W        W35083   6.267  17.305   3.785
66666W        W35084   8.341   8.348  13.315
66667W        W35085  25.998  22.150  13.929
66668W        W35086   4.752   0.941   4.201
66669W        W35087   9.306   1.326  14.946
66670W        W35088  28.160  36.006   1.842
66671W        W35089  40.968  17.189   0.866
66672W        W35090   3.866  25.589   0.814
66673W        W35091  31.623   1.954  14.492
66674W        W35092  13.288  30.596   2.696
66675W        W35093  11.231  18.074   3.232
66676W        W35094  36.545  25.582   4.648
66677W        W35095  15.673   5.848   9.964
66678W        W35096   5.724  37.042   2.409
66679W        W35097  18.569  24.055   4.799
66680W        W35098  13.225  12.681   4.333
66681W        W35099  26.189  26.586   0.422
66682W        W35100   4.238  29.948   2.258
66683W        W35101  32.589   9.864   2.863
66684W        W35102  24.595  28.105  14.508
66685W        W35103  34.071   2.229  13.889
66686W        W35104   5.426  14.220   4.289
66687W        W35105  25.158  39.401   1.301
66688W        W35106   8.869  41.001   4.311
66689W        W35107  35.401  34.438   3.288
66690W        W35108  35.491  21.070  12.419
66691W        W35109  27.052  33.941  13.910
66692W        W35110  32.543  14.707  12.919
66693W        W35111  33.935   5.770  10.934
66694W        W35112  27.502   9.335  14.309
66695W        W35113  15.226  29.665  13.956
66696W        W35114  31.111  11.266  13.832
66697W        W35115  43.019   5.865  10.966
66698W        W35116  29.942  42.967   2.276
66699W        W35117  16.667  41.485   0.419
66700W        W35118   9.648  15.678  14.845
66701W        W35119   6.739   6.724  10.909
66702W        W35120  37.381  29.119   2.336
66703W        W35121   5.713  35.557  14.416
66704W        W35122  24.192   6.275   0.810
66705W        W35123  40.946  33.026   3.835
66706W        W35124  30.975  12.236  13.342
66707W        W35125  37.534  27.073   4.145
66708W        W35126  31.617  34.399  14.820
66709W        W35127  26.113   6.220  13.430
66710W        W35128  29.649   5.855  13.401
66711W        W35129  37.532  41.817  12.965
66712W        W35130  18.768   3.756   1.326
66713W        W35131  19.145  14.132   4.684
66714W        W35132  42.825  31.069  12.916
66715W        W35133  14.749  14.756   0.802
66716W        W35134  39.845  26.658  12.971
66717W        W35135  26.633   0.919   0.836
66718W        W35136  38.939  25.054  10.894
66719W        W35137  33.460  34.956  13.903
66720W        W35138  34.416  37.398   5.312
66721W        W35139   0.988  24.594  10.435
66722W        W35140  21.103  18.598   5.286
66723W        W35141  29.003  21.558  14.899
66724W        W35142  18.616  22.735  10.132
66725W        W35143  17.215  21.532  11.009
66726W        W35144  40.319  15.789   3.159
66727W        W35145  11.303  17.099   1.908
66728W        W35146  14.150  38.890   5.094
66729W        W35147  31.532  11.341   0.430
66730W        W35148  34.936  13.762  12.428
66731W        W35149  20.735   6.251  14.363
66732W        W35150   8.802   2.268   2.330
66733W        W35151   3.806   0.410   1.430
66734W        W35152  28.618   0.335  14.960
66735W        W35153  31.981  26.561  14.491
66736W        W35154  28.484  18.254   0.768
66737W        W35155  12.359   3.900   0.372
66738W        W35156  23.663  36.039  11.535
66739W        W35157  39.411  15.674   0.760
66740W        W35158  11.627  11.751  11.374
66741W        W35159   8.211   2.841  12.890
66742W        W35160  39.966   3.858   4.336
66743W        W35161  13.284  44.928   4.147
66744W        W35162   1.397  41.454  12.541
66745W        W35163   8.742  34.400   4.339
66746W        W35164  36.885   3.381  14.875
66747W        W35165  37.408  10.720  14.952
66748W        W35166  33.019  42.476  11.605
66749W        W35167   6.297  37.874  14.017
66750W        W35168  31.027   3.915   0.920
66751W        W35169  17.800  37.969   0.328
66752W        W35170  36.969  38.017  13.805
66753W        W35171  38.975  35.508   4.758
66754W        W35172  32.494  21.047  13.855
66755W        W35173  12.126  38.943   4.689
66756W        W35174  29.621  15.765   0.855
66757W        W35175  43.438  13.181   2.231
66758W        W35176  20.753  39.002   0.824
66759W        W35177   3.761  28.174   4.770
66760W        W35178   4.901  19.737   5.277
66761W        W35179  21.114  40.347  11.025
66762W        W35180  28.512   5.327  10.896
66763W        W35181   3.726  29.594   4.829
66764W        W35182   4.404  25.073  13.445
66765W        W35183  18.156  23.529   2.406
66766W        W35184   3.903  32.551  13.438
66767W        W35185  23.697  13.349  13.803
66768W        W35186  13.790  16.716   1.343
66769W        W35187  10.172   2.237   4.152
66770W        W35188  42.872  37.055   4.718
66771W        W35189  12.354  33.071   3.329
66772W        W35190  43.965  12.765   3.233
66773W        W35191  26.540  43.835  10.030
66774W        W35192  30.444   8.881   1.282
66775W        W35193  30.550  20.065   0.300
66776W        W35194  32.498  25.017   4.151
66777W        W35195   2.833  18.568  11.020
66778W        W35196  16.663  13.642   2.903
66779W        W35197   5.407   2.299  11.595
66780W        W35198  18.786   3.793   4.224
66781W        W35199  31.521  27.658   1.350
66782W        W35200  11.658  18.143   3.700
66783W        W35201  34.095  24.071  11.476
66784W        W35202  18.637   8.253  11.890
66785W        W35203  39.870  26.489   2.728
66786W        W35204  36.861  44.996  11.877
66787W        W35205  10.834  40.362   3.276
66788W        W35206  23.710  25.600  13.472
66789W        W35207   2.880  31.639   4.810
66790W        W35208  35.104  26.656   0.795
66791W        W35209   9.818  42.860   1.437
66792W        W35210   2.262  26.650   2.386
66793W        W35211  38.397  21.028  14.395
66794W        W35212   0.473  31.475  14.886
66795W        W35213  39.326  24.592  11.950
66796W        W35214  31.585  32.068   3.206
66797W        W35215  37.973  13.257   2.215
66798W        W35216   2.782  16.670  13.375
66799W        W35217  31.047   1.886  11.419
66800W        W35218  31.003  36.381   0.352
66801W        W35219  16.778  42.483   4.213
66802W        W35220  41.306  32.079  10.584
66803W        W35221  11.222   7.794  14.309
66804W        W35222  43.869  27.153  11.554
66805W        W35223  20.157  22.717   5.229
66806W        W35224  24.999  22.712  12.835
66807W        W35225  17.633  41.296   1.346
66808W        W35226   1.824   7.209  10.556
66809W        W35227  39.558  36.842  14.914
66810W        W35228  21.752  29.950   0.301
66811W        W35229  34.588  23.623  10.415
66812W        W35230   8.351  38.823   4.204
66813W        W35231   1.252  12.240   2.862
66814W        W35232  39.407   2.282   1.343
66815W        W35233   0.363   0.480   3.869
66816W        W35234  32.988  34.415  12.897
66817W        W35235  25.160   4.898  11.429
66818W        W35236  24.532  11.180   1.818
66819W        W35237  12.149  17.113   0.259
66820W        W35238  34.531  35.533   2.358
66821W        W35239   7.269   4.722   1.785
66822W        W35240  29.161  32.017  13.391
66823W        W35241   7.251   4.720  10.479
66824W        W35242  35.922  20.205   3.801
66825W        W35243  16.165   5.900   0.830
66826W        W35244  20.609  32.402  11.409
66827W        W35245  30.092   6.295   3.642
66828W        W35246  11.637  32.116   0.317
66829W        W35247  30.161  30.530  13.930
66830W        W35248  24.603   8.177   2.809
66831W        W35249  44.801  16.777  14.873
66832W        W35250  17.108  17.762  14.774
66833W        W35251  16.133   0.280   4.314
66834W        W35252  22.152  26.630  10.955
66835W        W35253  14.646  16.749   2.415
66836W        W35254  31.147   6.200  11.015
66837W        W35255  31.917  30.951   4.230
66838W        W35256  32.402  43.494  12.389
66839W        W35257   8.660  40.531   3.294
66840W        W35258  34.519  38.347  14.008
66841W        W35259  27.507  30.491   0.740
66842W        W35260  40.985  25.198  11.982
66843W        W35261  44.784   6.897   2.298
66844W        W35262  25.041   7.859  14.815
66845W        W35263   9.149   4.287   3.283
66846W        W35264   9.648  40.025   2.783
66847W        W35265  12.763   3.949   2.780
66848W        W35266  15.214   4.409   5.793
66849W        W35267  17.781  19.623  12.404
66850W        W35268  28.950  43.328  12.497
66851W        W35269  16.681  17.625   3.147
66852W        W35270  31.553  15.733  14.294
66853W        W35271   5.898  35.514  12.481
66854W        W35272  22.093  39.488   2.691
66855W        W35273  41.300  11.146  14.346
66856W        W35274  44.898  40.357   9.994
66857W        W35275  12.736   3.773   3.678
66858W        W35276  35.503  30.993  13.309
66859W        W35277  32.580   5.394   4.833
66860W        W35278   2.843  44.783  12.895
66861W        W35279  27.586  31.954  14.013
66862W        W35280  41.837   1.754   0.773
66863W        W35281  25.640  42.793   0.825
66864W        W35282  34.614   8.691   1.422
66865W        W35283  40.386  34.614  13.948
66866W        W35284   7.401   0.803  14.292
66867W        W35285  39.822  44.964   3.305
66868W        W35286  22.721  15.777  14.858
66869W        W35287  40.345   2.893  11.992
66870W        W35288   5.371  30.642   1.313
66871W        W35289  40.840   4.857  11.886
66872W        W35290  23.028  38.027  11.904
66873W        W35291   2.309  31.417   0.892
66874W        W35292  13.256   9.350   1.227
66875W        W35293  40.474   2.255   0.936
66876W        W35294  38.883   4.232   3.385
66877W        W35295  23.515  21.246  11.575
66878W        W35296   2.893  36.997   4.658
66879W        W35297  31.022  23.122   2.697
66880W        W35298  10.297  17.757  11.090
66881W        W35299   3.923  29.567  14.291
66882W        W35300  15.635  15.767   0.884
66883W        W35301  23.056  32.544   1.301
66884W        W35302  20.631  22.640  11.600
66885W        W35303   8.382   5.854  10.976
66886W        W35304   0.469  15.639  12.982
66887W        W35305  12.823  36.403   4.683
66888W        W35306   0.908  17.660   2.873
66889W        W35307  42.778  30.526   4.339
66890W        W35308  27.464  38.016  13.452
66891W        W35309   5.909  30.052   4.121
66892W        W35310  26.168  20.708   1.762
66893W        W35311   6.324  34.976  10.127
66894W        W35312  40.480  26.471   1.764
66895W        W35313   2.415  13.619  14.808
66896W        W35314   9.219  15.286   0.815
66897W        W35315  21.660  22.163  11.463
66898W        W35316  38.938   7.228  12.904
66899W        W35317  39.422   8.217   4.189
66900W        W35318  33.014  12.195   3.344
66901W        W35319   3.954  21.182  11.957
66902W        W35320  30.557   0.840  13.980
66903W        W35321  16.083  34.389  13.795
66904W        W35322   3.248  24.619  14.863
66905W        W35323  29.991  21.682   2.362
66906W        W35324  11.366  18.162  11.517
66907W        W35325  12.188   0.761   2.200
66908W        W35326  12.336  23.704  12.576
66909W        W35327  40.358  36.439   2.894
66910W        W35328   5.284  21.158  11.498
66911W        W35329  39.369   8.330   3.865
66912W        W35330  16.607  16.674  12.568
66913W        W35331  19.543  41.492  11.570
66914W        W35332  32.555  13.335  12.895
66915W        W35333  22.154  19.269   4.772
66916W        W35334   8.402  38.839  14.766
66917W        W35335   2.747  41.393  13.989
66918W        W35336  39.349  28.006   3.333
66919W        W35337  10.806   1.755  14.398
66920W        W35338  42.792  32.906   2.396
66921W        W35339   4.340   1.481  13.960
66922W        W35340   3.319  30.965  11.593
66923W        W35341  17.168  35.066   3.310
66924W        W35342   8.738   0.749  14.287
66925W        W35343   4.338  33.132   2.831
66926W        W35344  22.642  13.683  13.012
66927W        W35345  28.586  31.606   3.789
66928W        W35346  31.132  20.749  14.016
66929W        W35347  25.115  43.765   3.235
66930W        W35348  41.439  38.363  12.855
66931W        W35349  34.561  40.424   0.338
66932W        W35350  26.586  10.322   1.298
66933W        W35351  13.820  16.178   4.825
66934W        W35352   6.228   9.655  14.404
66935W        W35353   1.811  20.121   4.821
66936W        W35354  10.774  22.706  10.625
66937W        W35355  29.989  37.085  10.498
66938W        W35356  11.844   7.172  13.312
66939W        W35357  13.617  29.070  11.025
66940W        W35358  16.125   4.796  12.391
66941W        W35359  28.184   9.682   1.272
66942W        W35360  42.965  27.074  14.896
66943W        W35361  35.024  39.559   0.429
66944W        W35362  26.000  34.952  14.449
66945W        W35363  42.827  35.007   0.890
66946W        W35364  20.715  26.502  12.995
66947W        W35365  29.951  32.607   0.888
66948W        W35366  23.715   1.762  10.525
66949W        W35367   1.822  34.465   3.768
66950W        W35368  18.558   0.442  12.968
66951W        W35369   2.439  20.706   4.760
66952W        W35370  27.011  20.583  11.988
66953W        W35371  16.749  40.052   3.670
66954W        W35372  33.596  31.443   2.394
66955W        W35373  40.346   8.752   3.176
66956W        W35374  37.880  41.921  13.816
66957W        W35375  20.677   1.924   1.796
66958W        W35376  26.578   5.900   1.766
66959W        W35377  23.639  44.873  10.893
66960W        W35378  17.291  20.626   0.949
66961W        W35379  12.233  31.906   3.344
66962W        W35380  28.632   5.791   0.423
66963W        W35381   1.974  40.886  13.371
66964W        W35382   5.221  36.024   1.323
66965W        W35383  38.014   7.746   2.246
66966W        W35384   0.829   2.310   4.145
66967W        W35385  32.488   9.335  11.442
66968W        W35386  29.055  20.197  14.301
66969W        W35387  35.393  16.272   3.655
66970W        W35388  23.631   7.408  14.791
66971W        W35389   7.908   3.251  10.906
66972W        W35390   1.479  17.721  11.020
66973W        W35391   3.236  17.121   1.386
66974W        W35392   5.369  40.495   0.832
66975W        W35393  12.672  44.483  10.611
66976W        W35394   6.427  35.435   2.862
66977W        W35395  10.740  15.597   3.327
66978W        W35396   1.352   2.413   0.921
66979W        W35397  34.073  19.052   0.762
66980W        W35398  29.445  39.889   1.391
66981W        W35399   7.738   4.298   3.332
66982W        W35400  42.810  18.691   1.332
66983W        W35401  30.076  13.312   1.872
66984W        W35402  10.655  39.891  12.343
66985W        W35403  44.004  33.584  14.030
66986W        W35404  28.075  43.995  12.832
66987W        W35405  18.780   9.284   1.302
66988W        W35406  44.851  15.191  13.053
66989W        W35407  33.395   4.293   3.799
66990W        W35408  38.941  12.739  12.904
66991W        W35409  15.252  11.268  11.911
66992W        W35410  20.094  12.190   5.666
66993W        W35411  35.031  25.652   4.718
66994W        W35412  16.627  44.416  14.297
66995W        W35413   2.749  29.101   2.697
66996W        W35414  27.170  32.962   0.944
66997W        W35415   7.712  28.623   2.797
66998W        W35416  11.248   1.920  11.402
66999W        W35417  34.918  11.349  13.880
67000W        W35418  37.886  24.658  14.470
67001W        W35419  11.276  11.825  12.480
67002W        W35420  39.933  32.530  14.369
67003W        W35421  19.199  10.239   2.261
67004W        W35422  27.135   7.294  13.407
67005W        W35423  19.536   8.844  11.898
67006W        W35424  33.102  43.953   4.204
67007W        W35425  24.978   5.756   4.149
67008W        W35426   1.814  12.362  13.977
67009W        W35427  39.058  33.460   3.335
67010W        W35428   1.860  20.140  12.870
67011W        W35429   4.283  43.890   2.390
67012W        W35430  33.880   6.182   0.303
67013W        W35431  44.499  38.914   5.146
67014W        W35432  32.980  29.545  10.571
67015W        W35433  36.078  25.975  11.121
67016W        W35434  13.608  20.254   0.916
67017W        W35435  27.131  43.378   2.345
67018W        W35436   6.302  33.969  13.036
67019W        W35437  14.328  43.412   0.359
67020W        W35438   5.746  37.969   3.810
67021W        W35439  32.578   9.198   4.836
67022W        W35440  13.807  16.702   0.387
67023W        W35441  10.219  15.824   3.766
67024W        W35442  30.485   7.687  13.323
67025W        W35443  12.624  24.693   3.734
67026W        W35444   7.891  22.688  14.958
67027W        W35445   1.971  24.055   1.236
67028W        W35446   4.770  32.085   4.243
67029W        W35447  32.007  41.954  12.439
67030W        W35448  23.038  38.923   1.873
67031W        W35449   5.204  29.514   3.222
67032W        W35450  32.966  14.145  14.339
67033W        W35451  34.481  18.277  13.385
67034W        W35452  41.361  13.719   3.329
67035W        W35453  33.957   9.266   0.803
67036W        W35454  43.772  36.449   4.185
67037W        W35455   3.244  33.933   3.195
67038W        W35456   8.887   6.717   2.278
67039W        W35457  17.199  37.036  12.533
67040W        W35458   4.361  28.046  11.027
67041W        W35459  37.431  23.605  11.376
67042W        W35460   1.936  22.639  14.451
67043W        W35461  37.508  36.867  10.581
67044W        W35462  40.804   0.799  12.965
67045W        W35463  12.636  10.371  13.346
67046W        W35464   2.835  13.600   4.769
67047W        W35465  13.292  40.049   9.921
67048W        W35466  34.935  43.926   1.749
67049W        W35467  20.246  14.590   2.760
67050W        W35468  14.827   0.255   4.122
67051W        W35469   9.167  40.366  13.416
67052W        W35470  39.396  25.220  12.493
67053W        W35471  38.421  22.521   4.308
67054W        W35472  24.088  26.486   0.259
67055W        W35473  36.404   7.415   1.214
67056W        W35474  13.322   5.766   0.807
67057W        W35475   2.471  16.790   3.750
67058W        W35476  41.850  15.246  14.305
67059W        W35477  38.836  14.596   4.275
67060W        W35478  16.767  43.352  14.768
67061W        W35479   4.261  24.541   0.402
67062W        W35480  23.137   2.795  13.511
67063W        W35481   7.360  30.935   3.339
67064W        W35482   6.733  35.470  12.862
67065W        W35483   8.657   0.441   0.808
67066W        W35484  11.664  41.835  13.418
67067W        W35485  30.427  44.383  12.539
67068W        W35486  21.169  20.116   1.822
67069W        W35487  18.219  41.930   2.879
67070W        W35488  34.516   5.379   2.664
67071W        W35489  16.602  43.987  11.013
67072W        W35490  41.037  11.258  14.785
67073W        W35491  18.082  41.523   2.790
67074W        W35492  31.550   9.261   0.765
67075W        W35493  25.597  26.012   2.286
67076W        W35494   7.220  32.115   4.671
67077W        W35495  42.448  23.189   3.703
67078W        W35496  16.603  21.701  11.517
67079W        W35497   4.779  14.275  11.957
67080W        W35498  13.218  23.504   1.397
67081W        W35499  16.734  16.099   3.833
67082W        W35500   0.903  13.662  12.492
67083W        W35501   7.251  37.966   2.846
67084W        W35502  19.693  26.060  14.964
67085W        W35503  11.141  33.402  12.016
67086W        W35504   5.431  44.474   4.195
67087W        W35505  19.732  44.864  14.930
67088W        W35506  41.380  26.993   2.418
67089W        W35507  36.386   1.240   2.411
67090W        W35508  33.890  16.242  14.992
67091W        W35509  21.578  26.986   2.712
67092W        W35510   4.855  29.149   2.754
67093W        W35511  41.363  40.879   2.270
67094W        W35512  42.884  22.228  12.481
67095W        W35513   4.781  13.798   1.323
67096W        W35514  16.264  12.260   0.797
67097W        W35515   2.299   4.314  12.927
67098W        W35516  42.294   4.844   0.286
67099W        W35517  10.310   6.358   1.857
67100W        W35518   1.898  32.585  11.037
67101W        W35519  18.185  24.635   0.290
67102W        W35520  15.087   1.328  10.437
67103W        W35521  36.543  36.073  14.342
67104W        W35522  33.519  13.166  10.979
67105W        W35523   4.224  41.397   3.802
67106W        W35524  36.427   5.292   3.228
67107W        W35525  12.313   5.330   3.299
67108W        W35526   6.305  29.095   1.448
67109W        W35527   4.715   3.433   3.191
67110W        W35528  38.881  16.751  14.298
67111W        W35529   1.734  31.079  10.443
67112W        W35530  35.472   9.287   0.273
67113W        W35531  40.926  28.549   2.254
67114W        W35532   0.335  33.435   3.782
67115W        W35533   4.214   1.874  13.443
67116W        W35534  37.022  42.464   4.807
67117W        W35535  18.783   0.393  10.894
67118W        W35536  43.857  33.385  11.918
67119W        W35537  29.016  42.332   1.739
67120W        W35538  43.460  25.048  13.958
67121W        W35539  21.611  34.905   1.256
67122W        W35540  10.242  19.596  11.525
67123W        W35541   4.905  10.806  12.919
67124W        W35542  32.520   3.780   4.833
67125W        W35543  24.142  36.376  12.965
67126W        W35544  11.739  26.629   0.357
67127W        W35545  36.052  13.208  14.927
67128W        W35546  16.708  33.876  12.397
67129W        W35547  40.926  43.448  10.582
67130W        W35548  42.424  41.480   9.596
67131W        W35549  30.563  24.665  12.489
67132W        W35550  28.033   3.270  11.924
67133W        W35551  34.018  35.467   3.774
67134W        W35552   8.351  34.052   3.332
67135W        W35553  29.000   9.890   9.922
67136W        W35554   2.721   6.766   0.936
67137W        W35555  42.986   0.742  11.402
67138W        W35556   7.366  25.089   0.882
67139W        W35557  15.224  31.407   3.810
67140W        W35558  27.503  23.696  11.495
67141W        W35559  30.919  31.069  11.068
67142W        W35560  34.023  24.150  10.538
67143W        W35561  40.494  27.986   1.355
67144W        W35562   9.736   2.281  14.824
67145W        W35563  42.290  13.790   3.821
67146W        W35564  17.745   3.432  13.028
67147W        W35565   8.346  36.492   2.339
67148W        W35566  28.147   4.363   0.280
67149W        W35567  16.795  14.608   2.697
67150W        W35568  19.214  29.540   0.391
67151W        W35569  42.523   2.759  11.520
67152W        W35570  10.305  44.371  12.908
67153W        W35571  35.563  18.242   3.772
67154W        W35572  12.272  14.304   4.238
67155W        W35573   8.163  17.161  14.858
67156W        W35574  24.584   1.938  12.879
67157W        W35575  30.093  11.725   3.830
67158W        W35576  16.188  25.601  11.875
67159W        W35577  44.833  31.013  12.364
67160W        W35578  17.722  41.335   3.792
67161W        W35579   8.365  14.195  10.403
67162W        W35580  17.084  12.329  12.373
67163W        W35581   5.395  21.032  14.426
67164W        W35582   2.253   9.348   2.405
67165W        W35583  17.299  25.518  13.028
67166W        W35584  16.074  11.184   2.757
67167W        W35585  42.329  19.198  12.068
67168W        W35586  39.472  38.043   3.241
67169W        W35587   0.783  33.510  13.011
67170W        W35588  31.908  10.643  11.585
67171W        W35589   8.808  18.084  13.520
67172W        W35590  40.850  35.905   4.642
67173W        W35591  22.653  19.766   3.863
67174W        W35592  15.635  11.729   3.769
67175W        W35593  42.336  28.978   0.800
67176W        W35594  32.623  40.321   2.285
67177W        W35595   5.783  13.777   2.746
67178W        W35596  19.770  16.784   2.824
67179W        W35597  39.898  40.936   3.638
67180W        W35598  24.684  42.792  11.961
67181W        W35599  21.260  30.019  11.527
67182W        W35600  13.689   6.742  10.018
67183W        W35601   0.407  26.975  10.985
67184W        W35602  12.667   7.362   2.248
67185W        W35603  38.486  15.193  10.947
67186W        W35604  35.586  24.129  11.971
67187W        W35605   6.784  17.264   2.361
67188W        W35606  27.152   7.773  14.029
67189W        W35607  21.152  31.578  11.095
67190W        W35608  14.145   4.933  12.531
67191W        W35609  23.171  33.550   4.302
67192W        W35610  31.454   9.355   3.719
67193W        W35611  10.333  24.008  12.837
67194W        W35612  12.694  41.873   4.130
67195W        W35613  42.892   7.237  13.893
67196W        W35614  18.624  26.138   2.772
67197W        W35615  25.218  17.109   3.654
67198W        W35616  17.139  38.900   3.734
67199W        W35617  39.329  12.351  11.445
67200W        W35618  21.116  22.518  10.991
67201W        W35619  23.574   6.746  14.907
67202W        W35620  30.965  34.461   1.887
67203W        W35621  22.618  41.834   5.298
67204W        W35622  29.568  38.430   4.229
67205W        W35623  23.679  38.020  10.580
67206W        W35624  21.086  14.303   2.361
67207W        W35625  35.596  17.284   0.303
67208W        W35626  41.959  30.051   4.122
67209W        W35627  25.112  24.507   4.652
67210W        W35628  38.444  40.026   1.395
67211W        W35629  17.762  36.863  12.536
67212W        W35630  22.157  26.043   3.797
67213W        W35631  15.320   5.439   9.957
67214W        W35632   8.879  17.126   2.356
67215W        W35633  24.704  30.940   4.249
67216W        W35634  24.668  15.180   4.732
67217W        W35635  14.137  19.096   3.692
67218W        W35636  11.233   7.334  10.933
67219W        W35637   2.795  21.182  10.055
67220W        W35638  20.221  40.901  13.973
67221W        W35639  37.946  36.090  10.570
67222W        W35640  14.621  12.768   2.396
67223W        W35641   1.798  40.334  13.001
67224W        W35642  17.562  43.412   4.186
67225W        W35643  16.728  12.184   3.158
67226W        W35644   2.342  31.022  11.996
67227W        W35645  27.154  33.585   0.268
67228W        W35646  11.765  13.623   1.810
67229W        W35647  15.630  23.510   4.216
67230W        W35648  36.426  33.989   1.907
67231W        W35649  38.865  18.596  12.451
67232W        W35650  41.973  41.992  11.105
67233W        W35651  38.826   6.813  13.336
67234W        W35652  31.634  29.945   2.898
67235W        W35653  13.712  33.412   2.268
67236W        W35654  13.157  41.913  13.844
67237W        W35655  28.532  29.984  13.933
67238W        W35656  28.979   0.956  13.991
67239W        W35657  33.602  28.440  10.454
67240W        W35658  40.451   4.913  13.501
67241W        W35659  28.043  25.517  11.467
67242W        W35660  28.060   2.868  10.140
67243W        W35661  24.004   4.297   3.331
67244W        W35662  42.922  38.036   1.305
67245W        W35663   8.354   6.271   0.936
67246W        W35664  37.365  37.865  10.511
67247W        W35665   2.341   9.694   4.804
67248W        W35666   7.797  30.438  13.847
67249W        W35667  16.166  32.998  13.426
67250W        W35668  30.466  28.936  10.455
67251W        W35669  34.101  19.600   3.243
67252W        W35670  19.154  40.946   4.806
67253W        W35671  24.672  14.649  12.837
67254W        W35672   9.667  25.644  14.449
67255W        W35673  12.208  37.574   3.650
67256W        W35674  17.750  18.153  11.388
67257W        W35675  18.612  10.266  11.041
67258W        W35676  10.746  20.638   1.853
67259W        W35677  14.663  12.766  11.958
67260W        W35678   8.799   8.224   4.259
67261W        W35679  37.465  26.054   4.323
67262W        W35680  27.954  17.562   0.272
67263W        W35681  35.885  32.419   0.364
67264W        W35682   1.885  33.911  13.413
67265W        W35683   6.232  39.403  14.897
67266W        W35684  30.532  10.152   3.208
67267W        W35685  44.375  10.350  12.531
67268W        W35686  21.110  17.578  11.392
67269W        W35687  13.234  31.036   1.730
67270W        W35688  15.729  41.395  11.995
67271W        W35689  19.180   6.737   0.405
67272W        W35690  28.130  37.452   3.334
67273W        W35691  36.056  29.037  12.536
67274W        W35692   4.825  15.208   0.934
67275W        W35693  18.752  17.202  11.980
67276W        W35694   1.799  42.306  14.425
67277W        W35695  29.617  20.249   2.897
67278W        W35696  17.681  20.269  10.936
67279W        W35697  24.518  35.536  11.580
67280W        W35698  29.014  34.896   0.841
67281W        W35699  12.633  33.079   4.716
67282W        W35700   4.912   3.230  11.099
67283W        W35701   5.245   1.925   1.736
67284W        W35702  14.726  13.325   3.701
67285W        W35703   1.319  39.393   1.861
67286W        W35704  11.683  19.055   1.244
67287W        W35705  37.842   0.879  13.902
67288W        W35706   6.342  25.616  10.417
67289W        W35707   7.281  29.111  13.398
67290W        W35708   3.245  35.974   0.431
67291W        W35709  38.478  12.321   1.745
67292W        W35710   0.391  31.446  10.590
67293W        W35711  15.584  36.592  10.613
67294W        W35712   3.271  42.006   2.708
67295W        W35713  37.957  27.484  14.870
67296W        W35714  19.543   9.289   2.285
67297W        W35715  33.613  23.084  14.991
67298W        W35716  29.446  38.355  11.871
67299W        W35717  34.988  40.485  14.478
67300W        W35718  30.499  19.259  11.955
67301W        W35719  23.096  37.903  12.549
67302W        W35720   0.279  26.001   0.344
67303W        W35721  40.472  23.708  10.610
67304W        W35722  33.503   5.267  10.540
67305W        W35723   7.199  14.808   0.270
67306W        W35724  39.835  20.152   0.834
67307W        W35725  37.992  27.648  14.501
67308W        W35726   9.259  24.130  10.510
67309W        W35727  10.322   2.818   0.395
67310W        W35728  19.219  36.521  11.394
67311W        W35729   3.843  29.077   0.956
67312W        W35730  23.644   9.287   1.703
67313W        W35731  38.871   9.194  13.824
67314W        W35732  20.593  12.141   1.746
67315W        W35733   8.754  40.901   4.770
67316W        W35734  30.506  29.538   3.825
67317W        W35735   1.352  40.920  12.854
67318W        W35736  33.928  21.749  13.361
67319W        W35737  18.095  25.594   1.232
67320W        W35738   0.253  17.268   1.432
67321W        W35739   7.887  36.871  13.901
67322W        W35740   0.769  37.499  14.947
67323W        W35741  16.762   9.655   0.318
67324W        W35742  25.637   2.458   1.742
67325W        W35743  17.133  32.633   4.227
67326W        W35744  15.320  12.805   1.275
67327W        W35745  33.511  10.709   1.890
67328W        W35746  21.243  42.330   1.695
67329W        W35747   6.875  13.192  10.997
67330W        W35748   5.708  13.137  11.594
67331W        W35749  16.267  39.358  12.417
67332W        W35750  14.171  31.971   2.306
67333W        W35751  26.989  32.041   0.943
67334W        W35752  14.335  33.032  11.998
67335W        W35753  21.656  16.201   2.688
67336W        W35754  10.844   4.306   2.368
67337W        W35755  40.824  16.571   0.936
67338W        W35756  29.632   1.343   0.404
67339W        W35757  32.064  16.732   2.208
67340W        W35758  34.111   8.657   1.353
67341W        W35759  22.610  39.401  10.026
67342W        W35760  38.410   8.327   2.370
67343W        W35761   0.362  36.397  13.468
67344W        W35762   0.924  16.282   1.727
67345W        W35763   9.777  11.215  10.898
67346W        W35764  13.331   4.256  14.508
67347W        W35765  14.760  25.035   4.613
67348W        W35766   5.807   9.157  14.910
67349W        W35767   4.247  30.995  12.897
67350W        W35768   0.950   1.825   2.256
67351W        W35769   2.322   3.329  14.461
67352W        W35770  16.663  21.172   4.795
67353W        W35771   3.445   4.324  13.391
67354W        W35772  19.576   5.217  10.891
67355W        W35773  44.488  11.352  11.041
67356W        W35774  40.516  37.985   1.786
67357W        W35775  11.831  36.488  14.786
67358W        W35776  27.093   5.222  13.423
67359W        W35777  43.336   5.290   2.848
67360W        W35778  17.194  12.794  12.041
67361W        W35779  27.506  22.012  14.838
67362W        W35780  11.663  19.281  14.473
67363W        W35781  32.100  16.305   1.401
67364W        W35782  23.184  27.517  11.884
67365W        W35783  38.012  32.442   2.730
67366W        W35784  44.378  39.559  10.022
67367W        W35785  15.626  22.072   0.880
67368W        W35786  25.657  10.274   0.398
67369W        W35787   5.223  15.744  13.952
67370W        W35788  37.920  10.723  12.900
67371W        W35789   5.725  37.488  13.919
67372W        W35790  16.591  30.101   2.187
67373W        W35791  11.802  31.538  12.823
67374W        W35792   3.427  29.646  12.496
67375W        W35793  12.664  32.961  14.285
67376W        W35794  25.015  18.659   4.827
67377W        W35795  18.166  29.048  11.863
67378W        W35796  10.165  11.856   4.309
67379W        W35797   4.795  39.808   0.450
67380W        W35798  16.236  26.064   0.289
67381W        W35799  42.807  32.635  14.019
67382W        W35800  40.456  27.155  10.508
67383W        W35801  24.043   4.407  14.873
67384W        W35802  24.567  33.585   1.881
67385W        W35803  28.169  43.920   1.769
67386W        W35804  42.389   2.897   1.317
67387W        W35805   3.316  14.639   3.685
67388W        W35806  38.884   4.240  12.522
67389W        W35807   4.305   8.223  11.491
67390W        W35808  44.988   9.389   2.194
67391W        W35809  19.152  13.685   1.403
67392W        W35810  27.467  25.084  14.025
67393W        W35811  22.132   6.723  13.910
67394W        W35812  33.442  31.587  12.010
67395W        W35813   3.864   4.333   2.713
67396W        W35814  31.140  10.727   0.832
67397W        W35815   7.306  20.125   4.739
67398W        W35816  13.615  14.832   0.881
67399W        W35817  17.278  38.328  10.469
67400W        W35818  21.188  36.849   1.226
67401W        W35819   4.730   1.896  12.844
67402W        W35820  39.552  40.956   1.714
67403W        W35821  12.133  27.064   4.805
67404W        W35822  29.165  25.013  12.043
67405W        W35823   6.390  44.369  12.921
67406W        W35824  22.164   0.815   4.333
67407W        W35825  11.853  30.632  12.875
67408W        W35826  24.208   6.846  13.896
67409W        W35827  38.858  13.644   3.310
67410W        W35828  36.425   7.845  10.921
67411W        W35829   0.745  42.920  14.367
67412W        W35830  38.356  25.480   4.716
67413W        W35831  32.428  25.470   4.740
67414W        W35832  38.996  39.921   4.343
67415W        W35833  21.108  35.070   5.107
67416W        W35834  31.436  31.072  10.644
67417W        W35835  12.836  37.501   2.236
67418W        W35836  19.256  17.104   2.316
67419W        W35837  24.641  32.518   3.840
67420W        W35838   6.860  41.296  12.867
67421W        W35839  25.062  30.993   1.283
67422W        W35840  40.867  19.113   3.310
67423W        W35841  32.131  40.885  11.046
67424W        W35842  13.181  16.087   0.347
67425W        W35843  33.436  29.022   3.283
67426W        W35844   5.724  15.805  14.315
67427W        W35845  43.458  26.589  10.016
67428W        W35846   0.949  34.002  14.469
67429W        W35847   1.932   5.241  13.917
67430W        W35848  35.579  30.157  11.900
67431W        W35849  36.500  26.584  10.594
67432W        W35850   7.352  17.199  13.014
67433W        W35851  35.939  42.836  13.430
67434W        W35852   0.267  34.080  12.957
67435W        W35853  29.070  37.038  10.629
67436W        W35854  22.132  14.192   4.118
67437W        W35855  26.180  18.147  13.517
67438W        W35856  35.413  42.343  10.406
67439W        W35857  26.990  26.628  14.443
67440W        W35858   0.260  16.704   2.765
67441W        W35859  14.758  34.035  12.884
67442W        W35860   8.770  30.990  13.974
67443W        W35861   4.861  12.317   4.128
67444W        W35862  35.599  37.477   2.378
67445W        W35863   6.262  25.971   1.826
67446W        W35864  44.327  11.846   1.911
67447W        W35865  41.346   6.327  14.302
67448W        W35866   3.233   5.697  14.997
67449W        W35867  26.116   5.826  10.519
67450W        W35868  32.035  21.036  14.812
67451W        W35869  40.800  25.503  12.494
67452W        W35870  38.977  26.049  11.881
67453W        W35871   9.227   5.917   0.427
67454W        W35872  40.394   6.756   4.283
67455W        W35873  11.741  10.148   4.772
67456W        W35874   4.354  38.841   2.335
67457W        W35875  20.187  16.733   1.403
67458W        W35876  25.678  25.978   2.674
67459W        W35877  32.943   2.266   0.848
67460W        W35878  35.578  21.739   3.734
67461W        W35879  12.131  13.132  14.325
67462W        W35880  32.980  17.064  14.810
67463W        W35881  25.040  18.214  13.351
67464W        W35882  37.372  41.796  13.464
67465W        W35883   4.442   5.281  11.947
67466W        W35884  42.339   2.729   3.782
67467W        W35885  41.311  10.171   3.762
67468W        W35886  18.675   3.869  10.491
67469W        W35887  38.565  10.857   1.753
67470W        W35888  11.696  41.930  13.845
67471W        W35889  20.038  27.960   3.783
67472W        W35890  40.441  29.128  14.814
67473W        W35891  42.360  31.485  11.124
67474W        W35892  32.614   0.395   2.733
67475W        W35893  44.419  22.746  10.100
67476W        W35894  11.757  44.755  10.026
67477W        W35895  26.486   5.800  14.907
67478W        W35896  28.543   1.821  11.856
67479W        W35897  12.784  30.102  13.385
67480W        W35898  42.424  34.905   1.891
67481W        W35899  30.552   0.464   0.248
67482W        W35900  35.062  39.413   0.961
67483W        W35901   4.698  22.155  10.925
67484W        W35902   2.256  18.647   3.228
67485W        W35903  24.536  26.970  14.322
67486W        W35904  16.146  11.698  12.983
67487W        W35905  24.494  16.254  12.579
67488W        W35906  29.024  24.191   4.261
67489W        W35907  22.062  44.470   3.360
67490W        W35908  32.536  12.255   2.773
67491W        W35909   6.235  17.078   0.441
67492W        W35910  12.762  18.152   3.649
67493W        W35911  27.959   3.826  10.602
67494W        W35912   4.344  10.782  14.763
67495W        W35913   9.284   7.855  11.049
67496W        W35914  35.486  25.997   4.235
67497W        W35915  27.559  16.277   0.872
67498W        W35916  36.073  38.075  10.151
67499W        W35917  33.607  32.522  12.961
67500W        W35918  17.070   6.409   1.711
67501W        W35919  26.963   3.369   1.897
67502W        W35920  24.548   0.471   0.361
67503W        W35921  38.372  21.550  13.061
67504W        W35922  21.153  12.232   4.256
67505W        W35923  17.254  18.595   1.387
67506W        W35924  28.121  10.378   5.157
67507W        W35925  14.298  23.065   3.866
67508W        W35926  17.721   2.249   0.375
67509W        W35927  18.746  34.557   3.146
67510W        W35928   8.303  25.066  11.458
67511W        W35929   5.823  35.915   3.631
67512W        W35930  29.432  30.127   3.155
67513W        W35931   0.487   5.334   0.831
67514W        W35932  19.209  19.725   1.445
67515W        W35933  10.679  23.603   3.675
67516W        W35934   5.859  44.765  13.038
67517W        W35935   0.469   4.792   3.776
67518W        W35936  33.053  30.966   0.875
67519W        W35937  19.705   1.328  14.495
67520W        W35938  23.646   7.260   3.691
67521W        W35939   6.828  22.608  11.379
67522W        W35940  32.531   6.872   1.277
67523W        W35941  32.615  17.773  12.408
67524W        W35942  20.645  13.845   1.785
67525W        W35943  39.883  39.895   0.342
67526W        W35944   4.787  15.764   3.371
67527W        W35945  20.048   4.928   9.942
67528W        W35946  27.673  14.186   1.361
67529W        W35947  43.800  20.754  10.431
67530W        W35948  10.750   7.199   4.216
67531W        W35949  39.324   5.744   2.690
67532W        W35950  10.355  25.703   2.388
67533W        W35951  34.884  21.239   3.759
67534W        W35952  17.665  35.505   1.365
67535W        W35953   2.296  27.127  13.062
67536W        W35954   6.786  16.787   1.711
67537W        W35955   8.277  21.078   3.334
67538W        W35956  29.946   8.251   4.320
67539W        W35957  42.932   9.183   1.443
67540W        W35958   8.326  43.997  14.940
67541W        W35959  22.530  11.190  10.455
67542W        W35960  30.148  43.895  11.921
67543W        W35961  30.416   1.465   3.772
67544W        W35962  25.090  13.617   3.753
67545W        W35963  17.649  33.055  12.939
67546W        W35964  37.514   0.804  13.331
67547W        W35965  36.395  40.424  13.962
67548W        W35966  36.078   3.760   0.816
67549W        W35967   0.912  12.276   9.993
67550W        W35968  41.815  38.413   3.723
67551W        W35969  13.661  35.891  10.524
67552W        W35970  31.565  39.353   4.798
67553W        W35971  13.790   4.858   1.423
67554W        W35972   7.796  29.055  11.383
67555W        W35973   8.761  29.145   3.269
67556W        W35974  10.717  37.534  10.901
67557W        W35975  22.149  42.350  11.536
67558W        W35976  27.553   9.787   2.387
67559W        W35977  15.129  27.449   3.245
67560W        W35978  43.833  44.365   1.251
67561W        W35979   2.281  23.534   1.844
67562W        W35980  12.821  34.889   1.788
67563W        W35981  19.249  24.572  13.047
67564W        W35982  28.652  16.718   3.856
67565W        W35983  29.088  39.323  13.362
67566W        W35984  44.890  38.983   0.336
67567W        W35985  13.280  12.799   3.805
67568W        W35986  11.631  18.625   2.720
67569W        W35987   5.918   9.666   1.267
67570W        W35988  21.028  30.564  14.922
67571W        W35989   3.406   7.313   2.732
67572W        W35990   0.415  16.226   4.337
67573W        W35991  41.922  34.393   0.874
67574W        W35992  12.215   2.830  14.473
67575W        W35993  28.609  35.011   0.459
67576W        W35994   1.444  26.683   1.782
67577W        W35995   3.792  19.633   2.848
67578W        W35996  32.951  13.789   1.841
67579W        W35997  21.196   3.841   1.766
67580W        W35998  13.311  42.819  11.869
67581W        W35999   7.360   3.859  12.528
67582W        W36000  31.110  18.565   0.246
67583W        W36001  17.710  17.236  14.858
67584W        W36002  29.458  32.606  12.017
67585W        W36003   2.783   9.809  11.539
67586W        W36004  25.668  33.901  11.380
67587W        W36005  24.170  12.686   4.614
67588W        W36006  20.537  10.314  10.524
67589W        W36007  40.422  31.437   2.796
67590W        W36008  39.400  27.006  10.974
67591W        W36009   2.364   2.787   0.925
67592W        W36010  25.688   9.179   0.915
67593W        W36011  10.845  35.984  14.295
67594W        W36012  37.067  34.464  11.123
67595W        W36013  42.400  41.478   9.984
67596W        W36014  34.421  30.115   1.252
67597W        W36015  24.646  28.481  13.862
67598W        W36016  42.916  22.028   5.251
67599W        W36017   6.771   2.332   1.418
67600W        W36018  31.941  10.206  13.425
67601W        W36019  29.977   9.159  11.426
67602W        W36020  10.671   3.807   1.767
67603W        W36021  34.910   7.351  11.904
67604W        W36022  26.553  17.097  12.043
67605W        W36023  36.976  31.118   0.435
67606W        W36024  38.850  40.806  14.919
67607W        W36025  24.683   0.298  10.960
67608W        W36026  43.787  37.012  11.415
67609W        W36027  40.814   8.784   0.856
67610W        W36028  21.164   2.261  12.090
67611W        W36029  32.042   1.866  12.501
67612W        W36030  29.425   4.914  13.794
67613W        W36031  32.989  42.385   3.343
67614W        W36032  43.391   6.720  11.607
67615W        W36033  20.645  13.696   9.576
67616W        W36034  36.998  41.818   4.791
67617W        W36035  37.900  20.624  11.975
67618W        W36036   6.902  15.705   0.876
67619W        W36037  35.109   3.761   2.871
67620W        W36038  36.866  15.674  13.535
67621W        W36039   7.231  37.526  14.880
67622W        W36040  18.664  32.455  11.406
67623W        W36041  34.404  21.234  11.902
67624W        W36042  29.105   6.849   5.619
67625W        W36043  26.672  22.080   2.218
67626W        W36044  38.469   3.918   0.306
67627W        W36045  31.522  41.975   1.407
67628W        W36046  21.105  15.583   1.433
67629W        W36047  14.104  27.123   4.837
67630W        W36048   4.426  12.742   2.180
67631W        W36049  18.742  25.538  14.823
67632W        W36050  37.507  28.454   2.393
67633W        W36051   2.778  19.257   4.136
67634W        W36052   4.227  21.119  14.304
67635W        W36053  14.111  38.379   3.376
67636W        W36054  44.425   9.298   0.309
67637W        W36055   4.844   3.313  10.053
67638W        W36056   4.819  31.498  11.438
67639W        W36057  42.005  34.118   3.213
67640W        W36058  39.913  26.556  14.875
67641W        W36059  24.186  39.064  12.093
67642W        W36060   7.892  13.816  11.536
67643W        W36061   4.341  41.413  12.470
67644W        W36062  33.426   9.889   5.187
67645W        W36063  37.419  43.444   4.140
67646W        W36064   5.710   5.316   1.760
67647W        W36065   0.850   2.939  14.851
67648W        W36066  19.198  22.122   0.339
67649W        W36067  25.664   9.307   4.752
67650W        W36068  24.543   6.755   0.314
67651W        W36069  39.022  36.499  13.928
67652W        W36070   9.265  15.682   2.257
67653W        W36071   8.818  32.397   2.222
67654W        W36072  19.124   6.366  14.394
67655W        W36073  41.427  11.647   1.870
67656W        W36074  19.733  18.652  14.307
67657W        W36075  39.935  35.095   1.855
67658W        W36076  34.092   1.268   0.929
67659W        W36077  42.835  37.521  14.470
67660W        W36078  11.268  40.413  10.492
67661W        W36079  19.711  17.627   0.735
67662W        W36080   7.316  10.837   1.374
67663W        W36081   9.226  13.802  11.465
67664W        W36082  12.339   7.343   2.808
67665W        W36083   7.876   5.229  12.573
67666W        W36084  32.893  29.565   3.169
67667W        W36085   3.376   3.255   0.936
67668W        W36086  42.789  18.228   1.695
67669W        W36087   2.319   7.781   4.732
67670W        W36088  42.398  10.829  10.624
67671W        W36089  26.688  36.998  13.016
67672W        W36090  18.624  29.598   0.758
67673W        W36091  14.778  43.764   2.327
67674W        W36092  38.528  40.386  12.997
67675W        W36093  38.030  39.496  13.541
67676W        W36094   8.817   7.348   1.847
67677W        W36095  15.644  26.023  11.381
67678W        W36096  24.067  34.096   2.675
67679W        W36097  36.914  34.546   3.703
67680W        W36098  22.152  41.400   5.689
67681W        W36099  27.655  32.107   3.177
67682W        W36100  24.602  39.485   3.861
67683W        W36101  10.772  18.615  11.572
67684W        W36102  39.918  27.519  10.438
67685W        W36103  11.768  10.856   4.354
67686W        W36104  17.638   6.255  11.554
67687W        W36105  42.995   9.355  12.947
67688W        W36106  38.564  31.006   0.307
67689W        W36107   5.815  26.955  14.819
67690W        W36108  22.609  34.116   4.193
67691W        W36109  29.532   7.820   3.822
67692W        W36110  29.027  24.169   3.734
67693W        W36111  42.937  22.664   2.758
67694W        W36112  43.984   4.921   3.349
67695W        W36113  10.780   7.696   0.850
67696W        W36114   0.469  38.352  14.442
67697W        W36115  27.150  37.830  10.526
67698W        W36116  10.769  29.980   1.416
67699W        W36117  36.981  16.195  11.595
67700W        W36118   6.227  18.743   2.844
67701W        W36119  29.591  41.880  12.475
67702W        W36120  17.065   9.374   2.740
67703W        W36121   8.794  43.835  13.950
67704W        W36122   6.908  40.019  14.330
67705W        W36123   8.675   5.886  13.538
67706W        W36124  32.986   1.475   3.346
67707W        W36125  11.239  42.935  11.107
67708W        W36126   1.862  40.001  13.369
67709W        W36127  32.904  21.179   3.178
67710W        W36128  32.945  31.141  12.397
67711W        W36129  37.494  42.844  13.911
67712W        W36130  24.094  31.537  14.318
67713W        W36131  26.981  21.549  13.330
67714W        W36132  16.145   6.824   2.696
67715W        W36133  15.640   0.928  10.892
67716W        W36134  42.451  35.033   0.295
67717W        W36135  42.889  14.759   3.291
67718W        W36136  33.099  26.637  11.597
67719W        W36137  31.153   8.819   0.383
67720W        W36138  32.055   6.215   2.726
67721W        W36139  21.228  29.993   0.853
67722W        W36140  13.752   5.821  12.384
67723W        W36141  23.724  23.105   1.406
67724W        W36142  39.057   0.265   2.667
67725W        W36143  16.813  22.160  11.065
67726W        W36144  25.480  17.093  11.960
67727W        W36145  12.355   0.975  10.515
67728W        W36146  14.731  42.355   1.338
67729W        W36147   3.946   2.407   4.768
67730W        W36148  43.333  33.957   2.820
67731W        W36149  16.234  15.282  14.357
67732W        W36150  28.592   0.294   0.436
67733W        W36151  13.791  38.336   1.252
67734W        W36152   1.807  29.482   4.271
67735W        W36153   2.724  34.461   4.618
67736W        W36154   4.278  23.150   4.710
67737W        W36155  33.103  20.053   2.314
67738W        W36156  30.016   5.268   1.900
67739W        W36157  13.734   0.977  14.493
67740W        W36158   7.758  25.104  11.475
67741W        W36159  10.286  15.108  12.580
67742W        W36160  39.840  41.903   3.824
67743W        W36161   5.705  34.902  10.444
67744W        W36162  13.132  16.141   4.347
67745W        W36163  37.417  44.974   2.395
67746W        W36164  30.563  43.921   4.256
67747W        W36165  14.187  31.635   0.399
67748W        W36166  16.126   8.213   0.436
67749W        W36167   3.438  43.803   3.787
67750W        W36168   2.238  40.886  13.451
67751W        W36169  36.060  33.451   5.130
67752W        W36170  44.905   6.853  12.365
67753W        W36171   9.689   0.855  11.548
67754W        W36172  18.728  26.002  11.987
67755W        W36173   3.922  37.385   3.254
67756W        W36174  34.372  13.117  12.345
67757W        W36175  21.627  14.217   1.316
67758W        W36176  36.380  26.526  10.009
67759W        W36177  40.337  24.497  13.790
67760W        W36178   5.897  17.106   4.134
67761W        W36179  29.531  37.408   0.406
67762W        W36180  18.283  38.557   3.168
67763W        W36181   6.884  22.189  13.948
67764W        W36182  29.591  15.589  13.498
67765W        W36183   8.726  39.837  12.567
67766W        W36184  37.890  30.654  14.914
67767W        W36185  27.108   8.316  14.940
67768W        W36186  32.908  36.522   3.316
67769W        W36187  44.330  41.847  14.486
67770W        W36188  30.545   4.839  13.402
67771W        W36189  24.513   7.766  11.581
67772W        W36190  13.814   2.347  12.361
67773W        W36191   1.869  41.449  10.517
67774W        W36192  44.995   0.386   4.815
67775W        W36193  19.686  15.704  12.078
67776W        W36194  37.403  10.763   1.887
67777W        W36195  20.622  33.434  10.904
67778W        W36196   9.393   0.785  13.878
67779W        W36197  11.255  23.074   1.299
67780W        W36198  18.624   9.660   1.790
67781W        W36199  35.435  13.112  13.518
67782W        W36200  12.336  31.458  12.484
67783W        W36201   0.857  14.730   0.473
67784W        W36202  19.110  22.500  13.437
67785W        W36203  15.305   5.265   0.439
67786W        W36204  30.917  25.020   2.190
67787W        W36205   0.364  34.422  10.538
67788W        W36206  28.616  42.435   2.895
67789W        W36207   0.373  16.616  10.925
67790W        W36208  17.619   9.668  13.397
67791W        W36209  43.348  39.909  10.543
67792W        W36210   4.356  25.510   1.878
67793W        W36211   9.285  43.352   0.324
67794W        W36212  29.611   9.347  12.528
67795W        W36213  22.040   4.854  12.912
67796W        W36214  39.921  22.085   1.261
67797W        W36215  31.063   7.178  13.802
67798W        W36216  24.013  40.453   3.817
67799W        W36217  14.203  34.021   4.145
67800W        W36218  28.956  36.575   3.791
67801W        W36219  33.029  30.426   1.740
67802W        W36220  41.403  33.091  10.926
67803W        W36221   6.312  43.331   4.139
67804W        W36222   2.740  38.356  13.468
67805W        W36223  39.809  34.526  11.024
67806W        W36224  13.327   9.246  14.910
67807W        W36225  19.779  32.463   0.897
67808W        W36226  13.665   9.866  14.464
67809W        W36227  15.221  10.752   4.703
67810W        W36228   4.349  19.540  13.945
67811W        W36229  34.076  37.072   1.879
67812W        W36230  15.780   4.389  13.972
67813W        W36231   5.216  10.141   4.330
67814W        W36232  17.188  38.842  11.371
67815W        W36233  29.996  35.101   0.449
67816W        W36234  39.474  11.222   1.210
67817W        W36235   8.256  10.647   4.274
67818W        W36236  23.178  16.603  10.987
67819W        W36237   8.735  12.816  12.918
67820W        W36238  21.664   6.890  14.999
67821W        W36239  33.064  26.146   2.386
67822W        W36240  11.720  35.439   0.367
67823W        W36241  15.613   5.215   4.818
67824W        W36242  10.157  11.134  12.382
67825W        W36243  20.053   6.275  13.026
67826W        W36244  30.427  38.352   2.730
67827W        W36245   5.852  19.675  12.035
67828W        W36246  33.013   8.309   0.850
67829W        W36247  26.658  11.646  11.064
67830W        W36248  37.394  20.690   3.155
67831W        W36249  33.401  40.340   4.609
67832W        W36250  44.961   6.244  12.935
67833W        W36251  42.508   4.840   3.305
67834W        W36252  28.105  29.624   2.866
67835W        W36253  33.590   4.266   1.250
67836W        W36254  16.116  30.523  14.331
67837W        W36255  43.371  27.147   4.205
67838W        W36256  43.793   0.424  11.980
67839W        W36257  15.317  10.725  11.087
67840W        W36258   4.814  38.880  13.913
67841W        W36259   4.742  44.331  12.840
67842W        W36260  29.171  40.029   0.390
67843W        W36261   9.802  28.084  13.817
67844W        W36262  24.063  12.787  11.964
67845W        W36263  14.770  18.074  14.302
67846W        W36264  34.398   9.791   0.276
67847W        W36265  42.412  25.662  11.106
67848W        W36266   7.852   3.773  13.935
67849W        W36267   1.860  23.548  10.497
67850W        W36268  18.061  33.619  12.058
67851W        W36269  32.924  12.327  10.474
67852W        W36270  25.173  23.113  11.057
67853W        W36271  16.767  43.386  13.468
67854W        W36272  29.140  15.726   1.349
67855W        W36273  24.067  27.494  14.308
67856W        W36274  34.561  39.329  10.505
67857W        W36275  11.297   7.258  14.292
67858W        W36276  30.611  32.012   1.223
67859W        W36277  41.469   0.314  14.481
67860W        W36278  32.606  43.378   4.814
67861W        W36279  21.747  36.981   1.932
67862W        W36280   4.251  22.239   2.833
67863W        W36281  23.101  39.983  11.557
67864W        W36282   7.317  39.029   4.122
67865W        W36283  42.471  23.186   2.877
67866W        W36284  38.533  16.258  13.478
67867W        W36285  34.017  40.456   1.261
67868W        W36286   7.852  43.965  10.931
67869W        W36287   7.678   4.761   4.732
67870W        W36288  17.740  27.158  10.968
67871W        W36289  39.818   7.203  13.860
67872W        W36290   1.921  37.947  14.763
67873W        W36291   7.746  18.758  14.346
67874W        W36292   2.794  28.115   1.267
67875W        W36293  14.756  24.038   1.355
67876W        W36294  35.570  28.508   1.405
67877W        W36295  40.539  23.514   3.662
67878W        W36296  15.127  24.990   1.324
67879W        W36297  28.585  30.977  13.322
67880W        W36298  41.985  22.025   4.800
67881W        W36299  14.219  22.562   2.369
67882W        W36300  27.511  17.740   0.296
67883W        W36301  40.994  38.966  10.583
67884W        W36302   9.835  36.437  11.406
67885W        W36303   3.397   0.276   1.813
67886W        W36304   0.978  31.496   3.291
67887W        W36305  30.017  38.012  10.514
67888W        W36306  23.602   9.161   1.310
67889W        W36307  36.531  34.010  12.920
67890W        W36308  42.024   9.300  13.832
67891W        W36309  15.279   3.449  14.001
67892W        W36310  19.232   0.274   2.305
67893W        W36311  40.799   8.716  14.866
67894W        W36312  28.490   6.340  10.996
67895W        W36313  32.554  43.417  14.950
67896W        W36314  25.063  18.681   2.412
67897W        W36315  23.594  15.268   2.822
67898W        W36316   0.789  37.579  11.408
67899W        W36317  11.156   8.822   2.317
67900W        W36318  40.464  36.046  14.032
67901W        W36319  32.636  44.270  11.417
67902W        W36320  24.711  27.056  12.959
67903W        W36321  42.827  23.673   0.933
67904W        W36322  25.993  19.286   2.406
67905W        W36323  14.240  30.527   4.729
67906W        W36324  21.533   9.713  13.936
67907W        W36325  13.674  11.630   0.451
67908W        W36326  16.793  31.926  10.411
67909W        W36327  14.202  41.427   4.733
67910W        W36328  15.731  35.003  14.805
67911W        W36329   5.412   8.723  12.969
67912W        W36330   1.959  31.414  14.012
67913W        W36331   4.303  31.498   0.310
67914W        W36332  32.480  37.928   1.822
67915W        W36333   1.943  25.703   3.803
67916W        W36334  11.765  18.600   1.727
67917W        W36335  37.902  30.527  14.290
67918W        W36336  28.009  40.502  12.487
67919W        W36337  29.450  11.692   1.395
67920W        W36338  14.664  37.850  11.495
67921W        W36339   6.300  34.051  13.546
67922W        W36340  15.158  10.844  13.390
67923W        W36341   9.760   3.874  14.979
67924W        W36342   7.196  34.395  10.909
67925W        W36343  11.333  42.008   4.653
67926W        W36344  38.539  31.545   1.432
67927W        W36345  10.216   8.224   2.759
67928W        W36346  23.005  37.899  10.414
67929W        W36347  33.585   0.365  13.829
67930W        W36348  24.612  31.483   2.198
67931W        W36349  34.501  42.525  11.881
67932W        W36350  22.185   1.415  14.307
67933W        W36351  13.113  21.142  11.857
67934W        W36352  33.957   7.223   2.299
67935W        W36353  19.593  20.554  12.449
67936W        W36354  11.338   6.422  13.966
67937W        W36355   8.657  19.721  12.528
67938W        W36356  17.596  30.601  13.811
67939W        W36357  37.580  10.836   3.803
67940W        W36358  38.498   9.677  11.501
67941W        W36359  40.917  38.891   4.794
67942W        W36360  13.263  40.503   3.750
67943W        W36361   5.338  17.660   4.644
67944W        W36362  40.489  13.741  14.856
67945W        W36363  16.128  18.547  14.783
67946W        W36364  35.512  20.747  11.578
67947W        W36365  21.696  40.971  10.930
67948W        W36366  40.839  13.843   4.679
67949W        W36367  13.695  43.388  13.858
67950W        W36368  40.514  26.156   2.365
67951W        W36369   7.264  18.576  10.970
67952W        W36370  10.782  14.600   0.931
67953W        W36371  37.899  32.942   2.755
67954W        W36372  18.087   5.857   4.123
67955W        W36373   9.292  28.132  10.022
67956W        W36374   7.196  38.469   2.682
67957W        W36375   5.272  14.231  12.566
67958W        W36376  22.603  33.115  13.331
67959W        W36377  31.494   6.242  13.898
67960W        W36378  15.141   5.232  13.861
67961W        W36379  33.083  34.926   0.284
67962W        W36380  23.530   8.269  13.037
67963W        W36381  24.492  39.870  10.989
67964W        W36382  10.741   3.950   2.761
67965W        W36383   8.868  42.373  13.885
67966W        W36384  26.497  24.146   4.801
67967W        W36385  29.145  41.324   4.708
67968W        W36386  42.467   1.236  12.928
67969W        W36387  22.550  11.302  14.500
67970W        W36388   6.253  11.782  13.831
67971W        W36389   5.869  16.639  11.097
67972W        W36390  14.758  42.334  10.982
67973W        W36391  31.437  31.473  14.815
67974W        W36392   7.821  37.490  14.805
67975W        W36393  41.872  17.218   5.201
67976W        W36394   4.835  39.480   0.902
67977W        W36395   6.259  24.185   1.908
67978W        W36396  16.810  20.551  13.405
67979W        W36397   9.223  44.793   2.299
67980W        W36398  32.122   4.387  12.567
67981W        W36399  18.270  29.005   0.279
67982W        W36400  17.686   5.732   0.915
67983W        W36401   0.313  37.851  12.415
67984W        W36402  20.200  18.670  10.629
67985W        W36403   1.466  20.076  13.338
67986W        W36404   9.254   6.716   4.607
67987W        W36405  20.177  36.493   2.387
67988W        W36406  31.546  19.716  10.550
67989W        W36407   7.366  25.999  11.473
67990W        W36408  25.983   3.762   1.263
67991W        W36409  22.668   4.255  13.917
67992W        W36410   9.860   7.306   0.927
67993W        W36411  14.727  32.984   3.166
67994W        W36412   2.457   1.932   1.887
67995W        W36413  19.682  33.573  14.934
67996W        W36414  37.002   2.750   3.725
67997W        W36415   2.766  23.499   1.784
67998W        W36416  27.510  40.906  10.963
67999W        W36417  11.225  11.361  13.441
68000W        W36418  43.786  27.179   2.376
68001W        W36419  35.518  43.465  14.427
68002W        W36420   6.262   2.862   2.838
68003W        W36421  35.934  44.944   4.129
68004W        W36422  41.025  39.916   3.162
68005W        W36423   7.786   2.767   4.129
68006W        W36424  13.831  36.589   3.243
68007W        W36425  12.851  21.034   5.154
68008W        W36426  40.440   1.472  10.568
68009W        W36427  19.560  35.402  12.522
68010W        W36428  35.456  33.899  11.598
68011W        W36429  13.288  37.391  10.048
68012W        W36430   1.917  41.875  11.986
68013W        W36431  31.533  38.984   2.732
68014W        W36432  34.609  35.573  13.899
68015W        W36433  38.840  10.687   4.641
68016W        W36434  13.605  30.431   3.792
68017W        W36435  33.999  16.637   1.934
68018W        W36436  34.438  14.748   4.199
68019W        W36437  30.161   1.800   0.371
68020W        W36438  29.026  43.430  11.375
68021W        W36439  41.985  44.771  11.037
68022W        W36440  21.027  16.596  13.984
68023W        W36441  31.033  39.540  14.922
68024W        W36442  20.128  17.724   1.414
68025W        W36443   8.667  30.541  14.941
68026W        W36444  10.762  41.407   3.299
68027W        W36445  40.433   8.876   1.839
68028W        W36446  41.323  36.918   1.833
68029W        W36447  30.939  20.637  11.880
68030W        W36448  23.703  27.619   1.346
68031W        W36449  12.186  40.464   3.264
68032W        W36450  13.151  14.653   3.645
68033W        W36451  11.704  39.320   4.190
68034W        W36452  24.152  24.111  12.966
68035W        W36453  37.504  26.978   0.463
68036W        W36454  30.121  23.543   3.318
68037W        W36455   1.335  10.243  13.940
68038W        W36456  12.249  22.658  14.473
68039W        W36457  22.719  33.440   3.175
68040W        W36458   4.449  23.041  14.866
68041W        W36459  20.761   6.227   4.670
68042W        W36460   1.434  14.682   3.243
68043W        W36461  14.735   9.877   2.180
68044W        W36462   0.905  15.154  13.924
68045W        W36463  13.606  11.222  11.015
68046W        W36464  15.085  43.297   2.788
68047W        W36465  10.242  39.397  11.885
68048W        W36466   8.380  37.025   1.344
68049W        W36467  36.558   8.800   9.959
68050W        W36468  31.953   2.878  13.820
68051W        W36469  15.717   8.344   2.856
68052W        W36470  26.503  23.593  13.860
68053W        W36471  44.965  11.659   0.740
68054W        W36472   0.287  31.072  14.852
68055W        W36473  25.474  34.072   0.951
68056W        W36474   2.839   7.269  13.373
68057W        W36475  35.430  16.774  13.986
68058W        W36476  38.003  10.876   0.296
68059W        W36477  10.202  23.007   3.829
68060W        W36478  18.582   4.210   4.237
68061W        W36479  14.609  20.162  11.930
68062W        W36480  30.611  24.121  10.593
68063W        W36481  11.187  10.810  12.094
68064W        W36482   6.901  15.726   2.308
68065W        W36483  14.593  29.165  11.948
68066W        W36484  29.450  26.000  11.109
68067W        W36485  12.267  39.449  10.991
68068W        W36486  12.630  12.723  11.006
68069W        W36487  18.635  38.529  12.350
68070W        W36488  42.958   8.205   4.119
68071W        W36489  41.979   0.919   4.766
68072W        W36490  31.633  25.697   1.369
68073W        W36491  24.218  22.734  10.058
68074W        W36492   0.801   9.768  12.957
68075W        W36493  30.545  12.623   0.871
68076W        W36494   6.853  24.649  14.869
68077W        W36495  15.222  14.630  12.945
68078W        W36496  36.546  31.058   1.775
68079W        W36497  15.741   1.276  11.002
68080W        W36498  20.259   6.889  14.845
68081W        W36499  10.788  36.029  11.098
68082W        W36500  32.462   6.317   2.854
68083W        W36501  21.187  35.358  12.480
68084W        W36502   1.333   3.458  12.347
68085W        W36503   2.811  25.979  12.978
68086W        W36504  42.511   1.452   3.310
68087W        W36505  39.926  12.624   1.411
68088W        W36506  34.547  27.110  13.024
68089W        W36507  28.677  38.570   0.293
68090W        W36508  21.041  25.609   4.322
68091W        W36509  17.725  40.416  11.916
68092W        W36510  20.550  15.154  14.510
68093W        W36511  18.778  34.080   0.409
68094W        W36512  12.245  34.574   0.461
68095W        W36513  18.089  16.181   3.250
68096W        W36514   1.409  22.134   1.813
68097W        W36515   6.756  15.654  13.492
68098W        W36516  32.079  33.917   3.337
68099W        W36517  31.115   3.347   0.374
68100W        W36518  43.369  43.287   1.216
68101W        W36519  35.393  36.881   5.220
68102W        W36520   9.331  10.745   2.376
68103W        W36521  34.093   3.427  10.921
68104W        W36522   2.406  29.973   0.365
68105W        W36523  24.015  18.116   4.649
68106W        W36524   9.830  21.084   4.625
68107W        W36525   6.409  41.325   0.365
68108W        W36526  32.502   9.803  11.543
68109W        W36527  23.673  14.751  14.458
68110W        W36528  29.921  12.280  12.502
68111W        W36529  29.576  42.464   3.654
68112W        W36530  10.806   5.696  12.415
68113W        W36531  22.219  25.171  10.418
68114W        W36532   8.205  39.437   2.333
68115W        W36533  38.891  11.288  13.063
68116W        W36534  33.591  15.815   2.736
68117W        W36535  31.016  42.321  14.913
68118W        W36536  11.339  39.967  10.449
68119W        W36537  25.483  30.460  13.481
68120W        W36538   5.766  23.702   4.689
68121W        W36539   3.447  14.681   1.706
68122W        W36540  43.020   8.324   1.825
68123W        W36541  23.493  16.261   4.236
68124W        W36542  25.596   9.340   2.212
68125W        W36543  13.629  27.511  11.921
68126W        W36544  18.657  32.443  14.000
68127W        W36545   1.869  29.607   4.637
68128W        W36546  34.423  36.511   3.767
68129W        W36547  31.034  19.772   5.201
68130W        W36548  33.540  21.693  12.569
68131W        W36549  21.075  33.905  12.417
68132W        W36550  12.118   9.880  11.128
68133W        W36551   4.742   3.840  10.115
68134W        W36552  26.509  42.448  12.455
68135W        W36553  18.222  39.937  12.501
68136W        W36554  41.529   8.170  11.534
68137W        W36555  36.051  20.737  11.497
68138W        W36556  13.614  38.874   2.802
68139W        W36557  10.155   4.813  12.896
68140W        W36558  32.088   2.891  12.964
68141W        W36559   6.202  23.123  11.599
68142W        W36560  38.826  33.060   1.384
68143W        W36561  44.289  38.405   3.252
68144W        W36562  13.783  28.543   1.718
68145W        W36563  14.755  29.119   3.859
68146W        W36564  38.011  19.729  10.994
68147W        W36565  30.052  11.174  12.858
68148W        W36566  16.661   9.734  10.921
68149W        W36567  22.247   5.258   1.823
68150W        W36568  12.853  27.514  12.984
68151W        W36569  24.178  36.513  14.298
68152W        W36570  10.708  22.011   1.224
68153W        W36571   6.823  20.564  12.907
68154W        W36572  10.655  15.178   1.752
68155W        W36573  17.184  14.322   3.265
68156W        W36574  34.028  39.892  11.596
68157W        W36575  41.827   2.353   0.803
68158W        W36576   4.241  36.880   4.757
68159W        W36577   0.265  38.415  13.404
68160W        W36578  34.495   1.839   0.931
68161W        W36579  29.085  34.895  13.799
68162W        W36580  24.551  15.731  14.973
68163W        W36581  29.431  17.273  12.869
68164W        W36582  35.965  40.404  12.940
68165W        W36583  37.564  25.171  10.468
68166W        W36584  23.210   7.718   1.423
68167W        W36585   1.381   2.243  11.045
68168W        W36586   0.854  43.796   3.371
68169W        W36587  34.119   5.236   4.672
68170W        W36588  17.753  42.311   1.776
68171W        W36589  11.735  34.986   3.683
68172W        W36590  12.857  29.586  10.515
68173W        W36591  26.205  32.009  10.995
68174W        W36592   5.701  26.034  10.463
68175W        W36593  31.490  26.170   1.404
68176W        W36594  17.104  34.003   1.445
68177W        W36595  30.538  44.928  12.978
68178W        W36596  26.016  35.584  14.826
68179W        W36597   9.257  21.223   2.851
68180W        W36598   8.776  20.747  13.354
68181W        W36599  28.176  15.799   4.256
68182W        W36600  32.998  20.264  10.955
68183W        W36601  14.730   8.264  12.354
68184W        W36602  39.326   9.667   3.253
68185W        W36603  18.051  36.386   2.382
68186W        W36604  30.432  13.253   1.759
68187W        W36605  20.203  34.466   2.284
68188W        W36606  39.916   8.834   2.247
68189W        W36607  36.934   4.752   2.786
68190W        W36608  22.161  31.959   3.280
68191W        W36609  40.379   4.884   5.192
68192W        W36610  27.658   6.794   1.284
68193W        W36611  27.685  42.338  11.917
68194W        W36612  10.674  29.050   4.738
68195W        W36613  44.782  16.109   2.348
68196W        W36614  14.775   7.358  12.027
68197W        W36615  23.051  32.000   0.872
68198W        W36616   1.807   9.216   4.800
68199W        W36617  16.219  22.023   1.884
68200W        W36618  35.476  32.066   0.403
68201W        W36619  11.678   8.164   0.286
68202W        W36620  12.299   8.229  10.526
68203W        W36621   7.392   7.739   2.666
68204W        W36622  13.768  33.475   4.323
68205W        W36623  28.578  28.094   2.715
68206W        W36624  35.926  18.117   0.840
68207W        W36625  21.152   0.405   2.878
68208W        W36626  19.589  40.850  10.464
68209W        W36627  23.146  31.053   2.379
68210W        W36628  12.138  27.649  11.058
68211W        W36629  28.154  15.635   3.244
68212W        W36630   8.826   2.791   4.352
68213W        W36631   1.771  28.045   2.708
68214W        W36632  16.694  32.918  11.408
68215W        W36633  43.902  40.453   2.866
68216W        W36634  25.101  21.243   4.294
68217W        W36635   0.968  14.635  14.802
68218W        W36636  39.017  25.963  11.578
68219W        W36637  40.025   3.819   1.275
68220W        W36638  30.101  43.849   0.754
68221W        W36639  11.356  39.060   4.240
68222W        W36640   3.303   0.754  14.392
68223W        W36641  22.572  14.665   4.273
68224W        W36642  16.684   3.400  12.004
68225W        W36643  24.591   3.343  12.372
68226W        W36644  25.039   9.330   0.950
68227W        W36645   2.233  31.643  11.568
68228W        W36646  28.597  42.339  10.897
68229W        W36647  24.053  39.556  11.884
68230W        W36648  22.042  24.980  11.384
68231W        W36649  16.616  18.086   2.778
68232W        W36650  25.016  28.934   0.271
68233W        W36651  18.569  17.734   4.656
68234W        W36652   2.341   6.893  11.497
68235W        W36653  25.153  39.336   4.116
68236W        W36654  11.330  33.389   1.870
68237W        W36655  42.878   3.347  14.353
68238W        W36656  41.516  44.265   0.263
68239W        W36657  11.865  26.008   4.113
68240W        W36658   7.293   2.241  13.523
68241W        W36659  38.475  37.072  10.619
68242W        W36660  14.801  16.210   4.803
68243W        W36661  42.334  44.401   2.668
68244W        W36662  13.641  42.458  13.878
68245W        W36663  38.881   0.392   2.408
68246W        W36664  21.572   0.823   2.723
68247W        W36665  30.648   3.228   1.861
68248W        W36666  13.148  11.127   0.288
68249W        W36667  24.545  15.726  12.949
68250W        W36668  29.937  22.701   1.408
68251W        W36669  16.088  22.732   2.702
68252W        W36670  32.947   1.787   4.223
68253W        W36671   5.383  43.489  12.035
68254W        W36672  21.758  32.403  11.038
68255W        W36673  26.203  42.459   2.321
68256W        W36674  14.221  25.090  12.415
68257W        W36675  29.096   1.459  14.427
68258W        W36676  31.069  10.853  13.506
68259W        W36677  36.014  32.922  12.043
68260W        W36678  22.722   3.338  10.472
68261W        W36679  20.606   7.727  12.402
68262W        W36680   2.862   3.357   2.258
68263W        W36681  41.352  27.477  13.962
68264W        W36682  27.147   4.448   4.834
68265W        W36683  42.435  37.347  14.485
68266W        W36684  16.191  24.069  12.912
68267W        W36685  30.072  16.173   3.868
68268W        W36686  10.638  22.584  11.971
68269W        W36687  36.889  25.056   0.904
68270W        W36688  16.771  13.806  13.878
68271W        W36689  17.066  14.780   1.398
68272W        W36690  37.354  43.392  10.573
68273W        W36691  34.496  13.284  11.888
68274W        W36692  39.021  43.908  11.994
68275W        W36693  21.614  24.553   3.145
68276W        W36694  36.423  29.057   1.909
68277W        W36695  19.592  20.719  14.309
68278W        W36696   1.365  44.925  14.965
68279W        W36697  17.719  19.184   1.873
68280W        W36698  35.362  32.904  13.492
68281W        W36699   5.872  21.126  10.150
68282W        W36700  11.656   7.901  12.949
68283W        W36701  25.096  14.625  11.048
68284W        W36702  25.619  37.051  14.934
68285W        W36703  10.666   8.218   2.293
68286W        W36704   0.949   5.289  11.432
68287W        W36705  17.633  13.610  14.838
68288W        W36706   1.481  13.138  14.283
68289W        W36707  23.183   5.388  14.488
68290W        W36708  41.824  20.069   1.424
68291W        W36709   6.329  10.170  14.848
68292W        W36710  15.785  24.549   3.838
68293W        W36711  41.307  30.564   0.933
68294W        W36712  43.797  40.539   1.712
68295W        W36713   6.876  26.058   3.660
68296W        W36714  33.026  32.543  12.371
68297W        W36715  18.256  12.683   4.166
68298W        W36716  33.524  37.879   4.252
68299W        W36717  32.476  27.535  10.413
68300W        W36718  31.131  37.424  11.582
68301W        W36719  14.769  23.605   2.779
68302W        W36720  43.344  34.568   2.343
68303W        W36721  27.597  26.489   1.757
68304W        W36722  34.417  36.013   3.869
68305W        W36723  32.085   3.293  14.878
68306W        W36724  33.588  16.785  14.957
68307W        W36725  17.579  31.987  14.901
68308W        W36726  39.407  26.703   1.433
68309W        W36727  37.542  34.116  12.920
68310W        W36728  41.787  16.268   0.819
68311W        W36729  18.612  10.822  13.807
68312W        W36730  28.032  16.605  14.885
68313W        W36731  35.996   0.925  14.460
68314W        W36732  16.157  35.445  12.565
68315W        W36733   6.811  36.929   0.389
68316W        W36734  36.957   3.784   1.449
68317W        W36735  17.062   2.916  14.804
68318W        W36736   3.409  31.985   0.860
68319W        W36737   0.379  42.365  11.900
68320W        W36738  33.045  40.490   4.705
68321W        W36739  41.504  29.511  10.936
68322W        W36740   4.799  35.986  12.353
68323W        W36741  17.699   3.901   0.917
68324W        W36742   1.757  20.162  10.636
68325W        W36743   4.743  12.741  11.892
68326W        W36744  37.473  32.078   5.134
68327W        W36745  22.147  38.972  14.806
68328W        W36746  31.636  15.822   2.705
68329W        W36747  39.350  33.412  12.536
68330W        W36748   2.257   9.719  12.038
68331W        W36749  23.050  30.033   4.206
68332W        W36750  32.530  12.615   3.661
68333W        W36751  28.447  31.596   2.822
68334W        W36752  11.304   3.897  14.365
68335W        W36753  32.999  23.631  11.499
68336W        W36754   4.743   5.710  14.359
68337W        W36755  26.155  22.154   1.736
68338W        W36756   5.344  26.990   4.689
68339W        W36757  17.610  26.968   2.854
68340W        W36758  10.699  33.567  14.454
68341W        W36759  41.299   1.470  11.938
68342W        W36760  26.082  30.422  11.950
68343W        W36761   5.917  24.548  11.472
68344W        W36762  35.913  12.247   1.406
68345W        W36763  22.088  21.243  13.488
68346W        W36764  26.677  23.133  14.337
68347W        W36765  32.442  31.632  12.965
68348W        W36766  15.137  13.699   1.785
68349W        W36767  34.879   1.803   4.723
68350W        W36768  26.985   2.318  13.062
68351W        W36769  38.353  27.943  12.381
68352W        W36770  40.841   7.759  10.532
68353W        W36771  21.518  35.063  13.845
68354W        W36772  13.714   7.873   4.294
68355W        W36773  29.108  41.863   1.368
68356W        W36774  33.602   6.291   2.356
68357W        W36775   5.261  15.171   3.757
68358W        W36776  30.959  22.116  14.439
68359W        W36777  43.442  15.701  14.902
68360W        W36778  12.300  18.736  11.402
68361W        W36779  23.989  13.326   1.748
68362W        W36780  32.567   5.838  10.108
68363W        W36781  15.794  14.714   3.805
68364W        W36782  42.798  24.057   3.742
68365W        W36783  17.630  27.624   0.403
68366W        W36784   4.412  32.965   1.913
68367W        W36785  14.145  21.690   4.231
68368W        W36786  23.113  36.367   4.243
68369W        W36787  17.293   0.865   0.833
68370W        W36788  15.090  27.076  12.848
68371W        W36789  29.517  38.957   4.632
68372W        W36790  21.207  37.970  10.139
68373W        W36791  13.294  18.687  13.022
68374W        W36792   1.419  39.459   3.165
68375W        W36793  23.984  10.641   2.336
68376W        W36794  28.562   9.858   9.470
68377W        W36795  16.205   9.653   3.382
68378W        W36796  32.925   0.442  13.912
68379W        W36797  16.633  29.973  13.546
68380W        W36798  36.014  12.252  10.507
68381W        W36799   2.795   0.935   2.757
68382W        W36800  27.186   2.409   0.927
68383W        W36801  10.198   9.831  12.882
68384W        W36802  32.051  16.805  10.125
68385W        W36803  36.433  30.921  11.524
68386W        W36804  39.919  17.167  14.992
68387W        W36805   2.250   5.414  14.931
68388W        W36806  18.122  23.585  13.376
68389W        W36807  29.934  19.273  12.346
68390W        W36808   2.843  37.941  13.843
68391W        W36809  21.569  12.751  10.119
68392W        W36810  32.126   6.732   0.257
68393W        W36811  43.965  20.583  13.978
68394W        W36812  13.814  18.091   1.351
68395W        W36813   3.241  31.140   2.303
68396W        W36814  14.713  36.568  14.428
68397W        W36815  15.132  26.511  10.967
68398W        W36816  40.326  42.491  14.509
68399W        W36817  12.707  25.712   3.717
68400W        W36818  29.654   3.387  11.612
68401W        W36819  23.489  24.095   2.287
68402W        W36820   9.838   4.357   0.760
68403W        W36821  12.850  39.362  12.362
68404W        W36822   4.211   0.985  12.065
68405W        W36823  38.827  33.946   4.681
68406W        W36824  12.745  30.142   0.463
68407W        W36825  28.538  24.664  13.443
68408W        W36826  23.572  29.509   0.414
68409W        W36827  22.651   2.808   3.844
68410W        W36828  39.002   6.842  10.996
68411W        W36829  18.085   7.746  10.466
68412W        W36830   0.756  42.812  11.927
68413W        W36831  22.606  22.625  13.487
68414W        W36832  32.075  39.443  14.299
68415W        W36833  31.006   2.727   2.741
68416W        W36834  33.085  37.369   0.251
68417W        W36835   8.398  36.495  13.394
68418W        W36836  15.094  18.778   4.297
68419W        W36837  35.484  37.445  10.096
68420W        W36838  35.543   2.967  12.471
68421W        W36839  42.966  25.175  14.978
68422W        W36840  28.507   6.846   0.320
68423W        W36841  39.427  12.292   1.324
68424W        W36842   6.321   0.962   3.377
68425W        W36843  37.948  16.665   2.186
68426W        W36844  16.582   2.463  13.793
68427W        W36845  33.576  38.362   2.723
68428W        W36846  37.943  43.434  13.915
68429W        W36847  34.110  29.137   0.330
68430W        W36848  27.158  37.571   1.876
68431W        W36849   8.334  25.067  10.637
68432W        W36850  43.982  25.971  11.547
68433W        W36851  43.864  11.183   2.255
68434W        W36852  25.989  18.075  11.902
68435W        W36853  14.296  18.183   3.225
68436W        W36854   8.296   3.718   0.770
68437W        W36855  37.464   4.837   4.640
68438W        W36856   9.213  33.031  13.429
68439W        W36857  17.616  22.031  14.514
68440W        W36858  35.938  26.072  12.492
68441W        W36859  19.132  30.024  12.545
68442W        W36860  20.641  27.065   3.296
68443W        W36861  44.398  14.732  11.437
68444W        W36862   8.206  40.372  14.482
68445W        W36863   1.369   8.655  13.318
68446W        W36864   0.933  22.636   4.259
68447W        W36865  40.800  18.604   3.308
68448W        W36866  39.457  41.029  13.921
68449W        W36867  29.541  10.723   3.283
68450W        W36868  23.583  33.915  12.075
68451W        W36869   4.712  11.295  14.358
68452W        W36870  25.107  28.496  13.056
68453W        W36871  18.103  44.855   2.685
68454W        W36872  33.510  21.177   5.260
68455W        W36873  38.347  14.646   2.895
68456W        W36874   3.725  38.971   3.770
68457W        W36875   4.701  25.973  11.497
68458W        W36876   3.259  38.392   4.767
68459W        W36877  33.986  11.325   2.192
68460W        W36878   5.368   5.783   1.336
68461W        W36879  24.662  39.989  13.815
68462W        W36880  28.127   5.344  14.509
68463W        W36881   1.897  29.606  14.983
68464W        W36882   8.179  23.166  10.464
68465W        W36883  37.932  33.494  14.920
68466W        W36884  33.054  24.518  10.547
68467W        W36885  25.706  21.535   4.329
68468W        W36886  30.458   7.369  11.456
68469W        W36887  26.083   5.837  13.861
68470W        W36888  40.522  31.000  11.040
68471W        W36889  16.640   0.899  10.943
68472W        W36890  35.109  11.853  11.509
68473W        W36891  21.035  36.925   2.788
68474W        W36892  22.566  37.888   5.306
68475W        W36893  26.523   3.915   1.431
68476W        W36894  33.060  18.756   1.377
68477W        W36895  10.695  29.542   4.773
68478W        W36896  38.896   6.730   1.232
68479W        W36897  39.994   7.319   2.392
68480W        W36898  41.866   2.889   0.867
68481W        W36899  38.927  21.108   3.677
68482W        W36900   0.973  16.131  11.499
68483W        W36901  43.983  32.892   4.694
68484W        W36902  37.834  29.029  14.997
68485W        W36903  24.559   1.895  12.537
68486W        W36904  28.543  20.043   0.308
68487W        W36905  18.154  21.595  10.442
68488W        W36906  24.169  10.311  11.997
68489W        W36907  23.570  16.220  14.849
68490W        W36908  11.189  20.570   3.847
68491W        W36909  24.580  18.672  14.308
68492W        W36910  35.016  37.912   3.352
68493W        W36911  15.656   8.270   0.785
68494W        W36912   6.871  43.819  13.365
68495W        W36913  13.757  10.860   2.199
68496W        W36914  10.721  36.466  11.453
68497W        W36915  18.734  18.246  14.408
68498W        W36916  15.154  18.244   3.320
68499W        W36917   9.760  32.133  11.502
68500W        W36918  28.569  11.172  13.960
68501W        W36919  32.938  14.601  14.917
68502W        W36920  31.918  33.596  13.983
68503W        W36921   7.193  35.069   3.831
68504W        W36922  24.613  37.967   2.694
68505W        W36923   6.733  16.585   4.237
68506W        W36924  18.683  10.227  11.593
68507W        W36925  35.971  13.227   1.260
68508W        W36926  42.406  33.946  13.315
68509W        W36927  37.354  36.996  11.587
68510W        W36928  37.520  30.558  10.428
68511W        W36929  14.303  15.580  11.471
68512W        W36930  10.297  14.690  13.982
68513W        W36931  44.840   9.752  11.892
68514W        W36932  41.968  14.113   0.440
68515W        W36933  34.422  19.607  11.886
68516W        W36934  24.106  30.644   4.354
68517W        W36935  13.300   7.172   0.287
68518W        W36936  30.951  10.276  11.093
68519W        W36937  38.065   7.225   4.704
68520W        W36938   4.753  44.940   1.272
68521W        W36939   9.257   2.345  13.541
68522W        W36940   3.755  27.650  10.551
68523W        W36941  29.134   0.383   0.850
68524W        W36942  13.256  37.468   2.185
68525W        W36943  40.951  15.302   4.742
68526W        W36944  10.845  36.434   1.833
68527W        W36945   1.299  44.307  13.374
68528W        W36946  17.653  37.080   2.223
68529W        W36947  16.136  23.496   2.899
68530W        W36948   5.243  24.662  11.532
68531W        W36949  37.832  32.397  11.534
68532W        W36950  29.639  10.371  11.007
68533W        W36951  16.165  32.497   0.404
68534W        W36952   0.839  22.662  11.069
68535W        W36953  27.155  11.266  11.576
68536W        W36954  22.689  32.074   0.277
68537W        W36955  13.736  28.534   4.316
68538W        W36956  43.419   7.256   2.348
68539W        W36957   4.823   0.805  14.285
68540W        W36958  29.140   6.825  11.099
68541W        W36959   7.207  15.666   9.926
68542W        W36960  14.245  28.141   1.912
68543W        W36961  22.629  35.090   4.676
68544W        W36962   3.775  16.253  13.925
68545W        W36963   1.354   8.387   3.733
68546W        W36964   0.799   3.877   1.908
68547W        W36965  32.990  20.236   1.283
68548W        W36966  33.432  20.047  12.455
68549W        W36967  24.120  16.764   2.731
68550W        W36968  13.611  23.680   0.404
68551W        W36969  30.925   4.816   3.798
68552W        W36970   6.851  20.176  11.011
68553W        W36971  21.090  22.512  14.854
68554W        W36972  30.959  18.216   2.799
68555W        W36973   7.336  15.766   0.941
68556W        W36974  44.390  21.748   2.267
68557W        W36975   5.248  21.621  10.470
68558W        W36976  35.894  15.595   3.658
68559W        W36977  19.632  35.005  10.633
68560W        W36978   3.846   4.832   1.345
68561W        W36979   2.887   4.306   1.767
68562W        W36980  21.198  24.132   0.473
68563W        W36981  35.473   4.898  13.514
68564W        W36982  25.113  29.977  14.904
68565W        W36983  19.141   7.854  10.968
68566W        W36984   3.751  37.996  14.492
68567W        W36985  22.216  36.449  12.040
68568W        W36986  41.334  34.929  12.850
68569W        W36987  39.869  18.206  12.511
68570W        W36988   2.794  15.253   4.155
68571W        W36989  41.411   4.267  12.963
68572W        W36990  37.980  29.038  10.915
68573W        W36991  27.941  41.857   4.133
68574W        W36992  27.945   8.244  14.014
68575W        W36993  27.593   1.317   1.748
68576W        W36994   8.363  18.286  13.358
68577W        W36995  34.889  10.282  11.398
68578W        W36996  15.690   9.243  14.832
68579W        W36997  31.929  16.637   0.352
68580W        W36998  24.022   7.282   2.297
68581W        W36999   3.302  17.718   0.818
68582W        W37000  40.450  35.007   3.368
68583W        W37001   9.275   2.803   1.271
68584W        W37002  23.103  29.966  14.923
68585W        W37003  34.915  37.932   0.402
68586W        W37004   1.796  35.015   0.809
68587W        W37005  10.867  32.459   0.775
68588W        W37006  42.987  10.658   3.323
68589W        W37007  32.531  41.401  10.504
68590W        W37008  28.058  30.630   4.214
68591W        W37009  31.998  16.261   0.417
68592W        W37010  38.509  37.937   0.287
68593W        W37011  27.682   2.364  14.019
68594W        W37012  43.879  17.622  13.361
68595W        W37013  34.956  25.168   4.231
68596W        W37014  39.872  32.085   0.908
68597W        W37015  29.521   2.966  14.994
68598W        W37016  22.062   8.791  11.486
68599W        W37017  14.710  20.195   4.282
68600W        W37018  33.122  14.188  11.988
68601W        W37019  32.090  30.561  14.822
68602W        W37020  11.665  11.319  13.810
68603W        W37021  13.689  18.602  11.021
68604W        W37022   6.684  34.106   3.834
68605W        W37023   1.478  18.691   3.295
68606W        W37024   4.912  11.702  10.899
68607W        W37025  30.520  28.993   0.305
68608W        W37026  42.778  30.961   2.202
68609W        W37027  21.605  23.183   3.667
68610W        W37028  33.907  10.356   1.732
68611W        W37029  28.629  18.225  12.347
68612W        W37030  36.902  32.033  11.392
68613W        W37031  17.673  12.753  11.575
68614W        W37032   3.443  13.641  14.983
68615W        W37033  16.171   5.866  12.004
68616W        W37034  24.156  36.992  12.929
68617W        W37035  42.362   5.430   3.351
68618W        W37036  30.468  39.828   3.153
68619W        W37037  11.167   3.921   4.631
68620W        W37038   0.789  30.645   0.338
68621W        W37039  32.895  21.085  10.925
68622W        W37040  26.489  37.975  11.444
68623W        W37041  43.781  23.156   1.909
68624W        W37042  10.673  23.019  12.826
68625W        W37043  29.139  17.787   1.816
68626W        W37044  38.520  39.933  11.892
68627W        W37045   7.238   0.843  13.981
68628W        W37046   2.751  22.673   3.326
68629W        W37047  16.716  21.137   3.825
68630W        W37048  10.315  35.098  10.645
68631W        W37049  29.929   6.894  13.455
68632W        W37050  33.989   8.664   1.744
68633W        W37051  43.343  22.057   0.931
68634W        W37052  31.122  15.698  12.001
68635W        W37053  28.581  23.536  10.969
68636W        W37054   7.411   9.308  14.961
68637W        W37055   8.363  42.483  14.924
68638W        W37056   1.810   5.885   0.393
68639W        W37057  12.690   4.271   3.643
68640W        W37058  44.959  31.607   1.737
68641W        W37059  28.500  27.631   2.198
68642W        W37060  23.647  40.507   1.719
68643W        W37061  41.364   3.937   0.328
68644W        W37062  43.868  32.964  11.097
68645W        W37063  10.849  33.398   0.472
68646W        W37064   1.240  38.954   4.726
68647W        W37065   4.246   9.189  11.860
68648W        W37066  20.644  24.618   0.372
68649W        W37067  11.360  23.513  14.963
68650W        W37068  18.739  29.979  14.843
68651W        W37069  19.252  17.795  10.455
68652W        W37070  17.090  43.352  11.056
68653W        W37071  28.474  12.231   1.930
68654W        W37072  22.719   7.180   3.236
68655W        W37073   6.341  32.970  12.936
68656W        W37074  39.018   0.811   4.163
68657W        W37075  10.669  25.670   2.704
68658W        W37076  38.073  31.004   3.861
68659W        W37077  10.315  28.603  13.041
68660W        W37078  10.807  18.186  12.007
68661W        W37079  36.492  36.899   3.337
68662W        W37080   4.915  29.520   0.878
68663W        W37081  21.617  28.131   3.363
68664W        W37082   9.376   5.401   1.427
68665W        W37083   1.890  38.390   0.264
68666W        W37084  37.865   8.236   0.929
68667W        W37085  37.993  26.068   3.379
68668W        W37086  18.746  34.878   3.340
68669W        W37087  20.043  26.975  11.469
68670W        W37088  39.485  38.957  10.431
68671W        W37089  31.618   2.934  11.578
68672W        W37090   1.831  43.412   0.357
68673W        W37091  35.394  41.807   3.152
68674W        W37092  26.540  35.390  13.328
68675W        W37093  13.201  20.726  11.928
68676W        W37094  31.549  33.124  12.012
68677W        W37095   9.205  18.701  11.034
68678W        W37096  22.580  15.136   3.657
68679W        W37097  29.100  32.990   2.709
68680W        W37098  44.928  22.616  11.486
68681W        W37099   1.927  44.822   3.814
68682W        W37100  34.870  17.216  12.499
68683W        W37101  37.863  19.179   0.280
68684W        W37102  12.682   4.816  12.085
68685W        W37103  21.047  29.531  14.295
68686W        W37104  40.933   1.976   2.180
68687W        W37105  29.552  30.624   2.389
68688W        W37106  40.015  15.238  11.555
68689W        W37107  28.129  33.008   1.918
68690W        W37108  12.283  37.435  14.374
68691W        W37109  18.178  23.500   3.286
68692W        W37110  42.856  34.504  14.839
68693W        W37111  12.732  33.943   4.126
68694W        W37112  14.312  12.232  11.601
68695W        W37113   3.896  39.022  11.460
68696W        W37114   5.705   5.791   0.795
68697W        W37115  43.435  20.702  11.404
68698W        W37116   1.816  12.289   2.748
68699W        W37117  34.534  39.344  13.835
68700W        W37118  14.653   4.411   3.159
68701W        W37119  15.274  43.844   4.137
68702W        W37120   8.261  16.656   2.682
68703W        W37121   1.295  23.647   1.728
68704W        W37122  44.886  28.544   3.368
68705W        W37123  16.660  37.436   3.684
68706W        W37124   7.901  42.382   4.800
68707W        W37125  12.827  21.116   4.661
68708W        W37126  35.975  33.499   1.236
68709W        W37127   4.817   3.236   0.294
68710W        W37128   9.206  39.325  14.919
68711W        W37129  21.066  43.301  13.398
68712W        W37130   7.769  18.177  14.792
68713W        W37131   3.744  17.141  14.422
68714W        W37132  41.827  26.689   5.276
68715W        W37133  38.345  28.988  13.921
68716W        W37134  12.647  18.616  11.008
68717W        W37135  17.688  40.945  12.408
68718W        W37136  38.988  19.067  12.077
68719W        W37137  44.437  14.796  14.833
68720W        W37138   3.922   3.743   0.403
68721W        W37139  29.645  40.527  13.515
68722W        W37140  14.813  13.721   4.341
68723W        W37141   6.800  43.321   3.776
68724W        W37142   8.168  14.618   2.301
68725W        W37143  21.620  12.622   1.753
68726W        W37144  30.076  20.719   0.932
68727W        W37145  11.833   5.383  10.581
68728W        W37146   7.816  40.474  10.118
68729W        W37147  36.506  23.158   0.901
68730W        W37148  18.778  30.138  11.437
68731W        W37149  44.304  36.375   4.136
68732W        W37150   9.386  23.042  13.974
68733W        W37151  26.686  21.597   1.859
68734W        W37152  40.325  14.114  11.579
68735W        W37153  32.989  17.562  14.381
68736W        W37154  41.402  38.036   3.268
68737W        W37155   7.256   7.178  10.597
68738W        W37156  11.812  30.428  14.347
68739W        W37157  16.813  42.799  13.381
68740W        W37158  14.096   8.268  11.578
68741W        W37159  31.009  30.531  14.287
68742W        W37160  16.646   2.902   4.244
68743W        W37161  41.918  14.262  11.105
68744W        W37162  36.885   7.278  12.419
68745W        W37163  28.978  20.256   2.396
68746W        W37164   5.301  44.260   1.696
68747W        W37165  12.612  21.614   4.219
68748W        W37166  20.735  32.070   2.370
68749W        W37167  25.554   4.300  13.363
68750W        W37168   0.854   1.397  14.858
68751W        W37169   3.825  15.150   4.241
68752W        W37170  21.020  13.349  14.976
68753W        W37171   2.934  42.510   4.318
68754W        W37172   2.757  18.729   4.291
68755W        W37173  25.512   2.392   0.836
68756W        W37174  43.313   3.241   3.850
68757W        W37175  26.640  43.884   1.907
68758W        W37176  44.915  11.156   1.915
68759W        W37177   7.760  41.302  14.852
68760W        W37178  35.880  31.406  11.877
68761W        W37179   9.868   4.765   2.242
68762W        W37180  24.558   2.319   4.263
68763W        W37181  15.189  31.447  13.319
68764W        W37182  24.575  18.112  12.528
68765W        W37183   5.893  37.043   0.846
68766W        W37184  27.115  28.448   1.760
68767W        W37185  37.338   4.233   0.925
68768W        W37186  13.827  35.409  13.040
68769W        W37187  40.480  27.006  14.825
68770W        W37188  13.637  25.097   0.820
68771W        W37189  18.276   4.800   4.829
68772W        W37190  20.624  31.617  14.811
68773W        W37191  40.373  42.783  10.974
68774W        W37192   4.244   6.743  11.404
68775W        W37193   6.287  32.437  13.328
68776W        W37194   6.299  23.664  14.317
68777W        W37195  43.792   0.756   1.796
68778W        W37196  41.838  36.935   0.922
68779W        W37197  43.307  23.217  11.070
68780W        W37198   6.885  21.575  11.050
68781W        W37199  24.016  15.661   3.385
68782W        W37200  37.909  30.154  14.347
68783W        W37201  34.877  33.397   9.983
68784W        W37202  44.329  35.998  12.523
68785W        W37203  18.624  22.145  14.834
68786W        W37204  34.614  17.199  13.890
68787W        W37205  16.280  23.155  14.505
68788W        W37206   3.298  22.657  13.908
68789W        W37207  39.857  22.097   3.768
68790W        W37208   7.410  42.344   0.932
68791W        W37209  42.439  13.609   9.441
68792W        W37210   9.706  43.393   4.355
68793W        W37211  33.520  20.608  11.117
68794W        W37212  26.512  18.223  11.432
68795W        W37213  24.663   5.425   0.936
68796W        W37214   1.935  24.081   0.373
68797W        W37215  38.419   4.227   3.742
68798W        W37216  10.367  37.084  10.577
68799W        W37217  40.045   4.798  10.108
68800W        W37218  37.000  18.778   0.872
68801W        W37219  37.951  38.071   0.810
68802W        W37220  17.621  13.782   4.266
68803W        W37221  28.157  29.022   5.199
68804W        W37222  30.431   9.873  11.043
68805W        W37223  39.998  28.579   0.467
68806W        W37224  36.039  39.837   2.760
68807W        W37225  13.770  28.942   4.648
68808W        W37226  38.019   5.733  13.907
68809W        W37227  40.018  35.972  13.544
68810W        W37228  19.083  23.592   2.758
68811W        W37229  43.433  37.462   3.841
68812W        W37230   8.655  41.959   1.359
68813W        W37231  21.203  29.636   4.614
68814W        W37232  27.610   5.828  12.869
68815W        W37233   3.793  41.499   0.467
68816W        W37234  18.714   1.967   0.250
68817W        W37235  40.880   7.347  13.937
68818W        W37236  40.377  42.399   2.267
68819W        W37237  35.590  20.077   3.186
68820W        W37238  23.101  36.030  11.462
68821W        W37239  34.422  17.795  14.335
68822W        W37240   0.339  43.881  13.918
68823W        W37241  19.105  43.946   1.403
68824W        W37242   7.858  41.865  14.902
68825W        W37243  34.552   5.351  14.403
68826W        W37244  33.454  11.761   5.223
68827W        W37245   5.838  17.673   1.881
68828W        W37246  36.451   8.817   4.758
68829W        W37247  25.487  19.197  14.848
68830W        W37248  18.670  10.702   3.338
68831W        W37249  38.832  11.659  12.007
68832W        W37250  14.770  32.043   1.284
68833W        W37251  42.909  11.316   0.862
68834W        W37252  18.196  23.148  13.048
68835W        W37253  29.520  13.806  10.941
68836W        W37254  34.879   1.770  10.153
68837W        W37255  17.198  39.854  12.480
68838W        W37256  36.871   3.420  13.901
68839W        W37257  26.953  25.496  14.442
68840W        W37258  19.606  24.156   5.138
68841W        W37259  23.100  25.214  14.502
68842W        W37260  43.298  30.027   0.423
68843W        W37261  44.911  20.596   2.751
68844W        W37262  28.568  43.788  13.521
68845W        W37263  25.046  20.635   2.297
68846W        W37264  30.083  19.699   2.271
68847W        W37265  13.132  17.766  14.352
68848W        W37266  18.725   5.773   1.447
68849W        W37267  28.449  31.571  14.297
68850W        W37268  36.469  10.315   2.237
68851W        W37269  35.506  25.522   3.371
68852W        W37270  41.315   1.863  11.973
68853W        W37271   4.371   6.893   1.706
68854W        W37272   5.436  38.045   0.246
68855W        W37273  27.173  32.953  13.518
68856W        W37274  43.930  24.607   3.834
68857W        W37275   8.838  28.474  11.508
68858W        W37276  34.590  35.565   4.636
68859W        W37277  22.612   2.250  13.900
68860W        W37278   9.734  33.423   4.700
68861W        W37279  13.300   0.848   5.304
68862W        W37280  12.186  30.596  10.482
68863W        W37281  30.932  35.072  12.560
68864W        W37282  36.064  23.164   0.880
68865W        W37283  26.466  33.571  12.861
68866W        W37284  18.251  34.944  12.870
68867W        W37285   5.354  26.519  12.365
68868W        W37286  42.813  38.827   3.642
68869W        W37287  21.262  10.804  11.487
68870W        W37288  34.884   3.352  12.089
68871W        W37289  44.900   1.801   0.823
68872W        W37290  28.669   4.368  11.414
68873W        W37291  39.819   3.368  12.089
68874W        W37292  26.139   5.260   4.300
68875W        W37293   6.914   6.846   1.768
68876W        W37294   3.408  37.448  14.349
68877W        W37295  31.937   2.338  10.408
68878W        W37296  25.632  24.225  13.994
68879W        W37297   0.755  19.256  10.551
68880W        W37298   6.388  16.310   2.256
68881W        W37299  23.145   1.744  11.910
68882W        W37300  22.009  37.442  11.101
68883W        W37301  10.849  25.215  11.872
68884W        W37302  42.960  42.817   3.699
68885W        W37303  33.893  15.150  12.577
68886W        W37304  33.076  44.442  13.014
68887W        W37305  43.310   0.260   3.176
68888W        W37306  20.607  14.133   3.758
68889W        W37307  37.529  32.514  14.398
68890W        W37308  42.801   3.864  13.843
68891W        W37309   0.272   8.241  11.970
68892W        W37310  29.652  43.405  10.893
68893W        W37311   9.739  41.473   4.672
68894W        W37312  20.586   1.410   2.200
68895W        W37313  39.028   1.256  13.939
68896W        W37314   2.303   1.457  13.321
68897W        W37315  34.972  38.520  13.924
68898W        W37316   6.837  34.427  13.361
68899W        W37317  25.564  33.409   4.719
68900W        W37318  15.598  26.539   0.317
68901W        W37319  36.947  31.618   4.753
68902W        W37320  22.112  19.577   4.145
68903W        W37321  28.600  27.073  11.956
68904W        W37322  38.564   2.392  11.382
68905W        W37323  14.258  41.396  14.497
68906W        W37324   1.279  23.709   4.610
68907W        W37325  17.726  39.475   4.124
68908W        W37326  35.493   8.393  10.467
68909W        W37327  34.426  28.996  11.927
68910W        W37328   7.827  12.264   3.818
68911W        W37329  30.514  20.611   0.752
68912W        W37330  16.144   8.888   3.324
68913W        W37331  30.606  38.533  10.902
68914W        W37332  26.158  22.505   0.294
68915W        W37333   9.710  34.583   0.323
68916W        W37334  24.482  11.345   2.897
68917W        W37335  27.140  28.475  14.425
68918W        W37336  33.057  42.484   2.324
68919W        W37337  36.841  32.519  12.541
68920W        W37338  35.039  17.749   0.753
68921W        W37339  38.944  37.986   4.272
68922W        W37340  19.158  12.719   4.162
68923W        W37341  37.368   2.430   0.754
68924W        W37342  34.972  38.918   5.776
68925W        W37343  24.671  41.943   4.330
68926W        W37344  13.297  43.949   2.727
68927W        W37345  10.326   7.836  10.413
68928W        W37346  36.979  20.578  10.635
68929W        W37347  25.033  18.779  12.518
68930W        W37348  19.045  27.994   2.880
68931W        W37349  44.819  15.086   3.234
68932W        W37350  21.023  37.430   1.930
68933W        W37351  18.054  22.154   2.199
68934W        W37352  38.866   2.799  12.530
68935W        W37353  27.180  34.903  11.580
68936W        W37354  37.082  39.538  13.476
68937W        W37355  12.838   1.881  11.558
68938W        W37356  31.903   4.703   2.349
68939W        W37357  26.177  33.539   0.462
68940W        W37358   0.416   6.274  12.434
68941W        W37359   4.227  13.206  12.403
68942W        W37360  39.030   5.361  13.422
68943W        W37361  12.676   5.429  13.873
68944W        W37362  29.542  30.548   4.146
68945W        W37363   3.257  24.197  12.002
68946W        W37364  24.481  11.625   1.295
68947W        W37365  28.151  13.724   0.410
68948W        W37366  10.667  10.717  14.335
68949W        W37367  30.120   1.831  11.103
68950W        W37368  38.517  18.717   0.394
68951W        W37369  40.349   4.796   3.685
68952W        W37370  40.321   4.268   2.813
68953W        W37371  38.355   9.171   4.245
68954W        W37372   0.878  29.045   2.293
68955W        W37373  31.952  11.358  12.954
68956W        W37374  43.833  15.733  11.540
68957W        W37375  44.852  41.406  11.410
68958W        W37376  16.750  34.920   0.478
68959W        W37377  26.138  44.933  12.537
68960W        W37378   5.790   8.680   0.899
68961W        W37379  44.434   9.373  12.884
68962W        W37380  35.447  43.999  11.930
68963W        W37381  18.740   6.771  13.969
68964W        W37382  20.146   5.921   3.643
68965W        W37383  14.817  16.206  13.331
68966W        W37384   8.752  10.633  12.509
68967W        W37385  40.359  18.676   4.785
68968W        W37386   2.724  31.012   0.363
68969W        W37387  38.382  30.633   1.878
68970W        W37388  30.115  12.663   3.359
68971W        W37389   7.219  34.079  11.596
68972W        W37390  30.086  37.564  10.154
68973W        W37391  25.626  33.610   9.920
68974W        W37392  23.105  26.648  14.321
68975W        W37393  25.204  29.515  10.531
68976W        W37394  40.882  29.013   0.457
68977W        W37395  37.579   8.337  11.436
68978W        W37396  15.269   5.356  14.374
68979W        W37397  31.941  26.697  11.938
68980W        W37398  14.698  41.424  14.828
68981W        W37399  39.040  24.003   3.729
68982W        W37400  43.823  12.630  10.907
68983W        W37401   6.196   6.848   0.266
68984W        W37402  21.729  30.574  10.604
68985W        W37403   4.739   1.357  13.966
68986W        W37404  31.524  11.724  14.889
68987W        W37405  26.514  13.247  10.590
68988W        W37406   8.817  31.425   0.404
68989W        W37407  27.072  35.363   1.392
68990W        W37408  12.123   2.421  13.884
68991W        W37409  41.894  39.918   3.283
68992W        W37410   7.899   8.209   2.703
68993W        W37411  35.071   5.819  12.845
68994W        W37412   5.266  41.009  14.335
68995W        W37413   3.841  25.120  11.454
68996W        W37414  35.489  30.072  13.852
68997W        W37415  37.021  38.910  12.064
68998W        W37416  31.533  36.585   2.345
68999W        W37417  40.821  30.431  14.498
69000W        W37418   4.786  34.492  10.593
69001W        W37419  21.058  21.075   1.696
69002W        W37420  26.045  22.116  14.378
69003W        W37421  25.502  29.168   2.768
69004W        W37422  25.124  23.687   4.182
69005W        W37423  27.160  41.939  12.920
69006W        W37424  13.765  38.556   0.806
69007W        W37425  44.418  26.518  10.088
69008W        W37426  13.167   9.647   3.148
69009W        W37427  11.704  17.195  12.343
69010W        W37428   0.807  22.021   4.663
69011W        W37429  32.432  20.730  13.396
69012W        W37430  26.996   3.350  12.564
69013W        W37431  40.471   4.301   3.715
69014W        W37432   6.273   5.211   2.838
69015W        W37433  39.432  11.207  11.112
69016W        W37434   6.860   0.979  13.383
69017W        W37435  35.357  36.907   1.831
69018W        W37436  33.918  13.322  14.437
69019W        W37437   6.340   5.311   4.181
69020W        W37438  15.694  26.476  11.022
69021W        W37439  24.117  37.841   0.427
69022W        W37440  43.273  43.312   2.870
69023W        W37441   7.362  42.794  11.094
69024W        W37442  23.632  42.018  11.606
69025W        W37443  35.432  43.881   4.166
69026W        W37444   7.799  19.136  12.022
69027W        W37445   7.259  44.327   3.809
69028W        W37446  33.438  44.863   1.401
69029W        W37447  11.169   8.370   0.350
69030W        W37448  34.425  22.073   3.804
69031W        W37449  23.525  33.619  10.970
69032W        W37450  24.694   1.933   1.731
69033W        W37451  38.448  32.440   4.681
69034W        W37452  27.670  19.672   1.908
69035W        W37453  17.163  12.129  10.507
69036W        W37454  11.359   9.211   4.780
69037W        W37455  35.510   0.958  14.776
69038W        W37456   8.834  33.585   5.167
69039W        W37457  38.930  30.973   2.825
69040W        W37458  43.893   6.906   4.675
69041W        W37459  27.140  37.372  14.984
69042W        W37460  24.046  39.329   3.754
69043W        W37461  12.652  29.508  11.018
69044W        W37462  15.266  15.168   4.287
69045W        W37463  19.147  40.944   1.856
69046W        W37464  35.106  27.134   3.721
69047W        W37465  17.684   7.381   3.645
69048W        W37466  38.828  15.236  14.409
69049W        W37467  25.492  16.703  12.988
69050W        W37468  16.136  26.582   1.694
69051W        W37469  23.525  17.642   1.844
69052W        W37470  35.881  17.648  14.414
69053W        W37471  38.054   8.817   4.635
69054W        W37472  16.641  36.901  10.639
69055W        W37473   9.314   2.836   0.377
69056W        W37474  21.550  37.840  12.947
69057W        W37475  43.445  41.522  12.075
69058W        W37476   0.277  10.354   2.881
69059W        W37477  13.235   7.707   2.729
69060W        W37478  31.408  33.903  10.476
69061W        W37479  35.370  38.862   0.902
69062W        W37480  19.085  14.120   2.355
69063W        W37481  10.644   9.344   1.704
69064W        W37482  42.382   5.245   4.201
69065W        W37483  25.993  25.180   5.258
69066W        W37484  27.628  30.064  12.010
69067W        W37485  18.681  10.274   2.723
69068W        W37486  17.101  34.977  14.840
69069W        W37487  41.368  32.989   1.327
69070W        W37488   6.689  32.604   0.313
69071W        W37489   3.943  33.922  14.498
69072W        W37490   5.220   1.424   1.307
69073W        W37491   9.749  18.073  14.020
69074W        W37492   5.222  41.992   4.235
69075W        W37493  30.129  19.132  14.912
69076W        W37494  39.822  38.980  12.922
69077W        W37495   6.881  13.781  13.975
69078W        W37496  16.795   3.271   2.810
69079W        W37497  27.612  20.724   2.775
69080W        W37498  29.639   4.882  14.834
69081W        W37499  37.400  27.091   2.330
69082W        W37500  34.588  28.041   4.680
69083W        W37501  38.008  22.136  14.309
69084W        W37502   8.866  22.133   3.300
69085W        W37503  43.349   0.784  11.562
69086W        W37504  44.478   3.929   2.704
69087W        W37505  20.748  39.063   4.288
69088W        W37506  44.789  37.351   0.323
69089W        W37507   4.922  18.106  10.499
69090W        W37508  21.024   3.940   3.861
69091W        W37509  30.475  23.643  14.889
69092W        W37510  39.826  39.388  12.883
69093W        W37511   0.884  39.842  14.456
69094W        W37512  19.573   7.807   0.791
69095W        W37513  33.426  16.638   2.869
69096W        W37514  28.077  33.565  11.059
69097W        W37515   7.316  10.231   4.836
69098W        W37516  28.644  44.302  14.349
69099W        W37517  13.205  34.528   2.764
69100W        W37518  27.964  23.546  12.497
69101W        W37519  31.943   1.892   2.689
69102W        W37520  36.022  38.867   4.228
69103W        W37521  29.558   7.260  10.072
69104W        W37522  17.616   1.935   1.332
69105W        W37523   8.223  40.863   2.889
69106W        W37524   1.765  36.369   0.390
69107W        W37525  22.720   8.348   2.807
69108W        W37526  22.060  25.070  13.334
69109W        W37527   4.743  34.502   2.329
69110W        W37528   5.305  38.022   0.903
69111W        W37529  10.790  19.063  13.413
69112W        W37530  30.496   6.737   3.354
69113W        W37531   6.246  33.450   2.862
69114W        W37532  23.221  19.755  11.084
69115W        W37533  26.145  41.895   2.859
69116W        W37534  25.627  25.634  12.833
69117W        W37535  28.630  44.289   2.901
69118W        W37536  10.375  12.132   1.324
69119W        W37537   2.921   8.834   4.306
69120W        W37538   3.261  19.716  12.096
69121W        W37539  14.724  43.338   3.652
69122W        W37540  19.106   7.214   4.664
69123W        W37541   5.413   2.915  14.878
69124W        W37542  41.871  43.892  11.429
69125W        W37543  39.913  17.581   3.856
69126W        W37544  32.971   0.271   1.394
69127W        W37545  14.333   8.801  10.641
69128W        W37546  17.171  32.627  10.081
69129W        W37547  30.476  25.545   4.216
69130W        W37548  16.694  17.219   4.750
69131W        W37549  13.813   4.245   3.188
69132W        W37550  13.338  27.011  14.468
69133W        W37551  16.767  19.187  10.542
69134W        W37552  36.951   8.349  11.435
69135W        W37553  42.380  14.265   0.870
69136W        W37554  32.109  22.152   4.731
69137W        W37555  20.269  17.695   0.471
69138W        W37556   9.157  25.060  13.846
69139W        W37557   3.749  10.359   1.888
69140W        W37558   7.355  23.021   4.604
69141W        W37559  29.430  20.065  14.495
69142W        W37560  36.428   6.678   1.751
69143W        W37561   6.899   0.407   4.190
69144W        W37562  35.002  22.205   0.319
69145W        W37563  31.927   1.443  14.394
69146W        W37564  30.057  40.329  13.463
69147W        W37565  43.313  17.269  14.759
69148W        W37566   6.902  27.962  13.851
69149W        W37567  16.244   0.353   1.289
69150W        W37568   4.330   2.950  10.637
69151W        W37569  16.272   7.753  12.039
69152W        W37570  28.555  31.467  11.114
69153W        W37571  35.494   2.458   3.850
69154W        W37572  24.211   0.934   4.202
69155W        W37573  16.683  28.660   1.364
69156W        W37574  16.665  13.614  10.101
69157W        W37575  21.681   8.287   4.320
69158W        W37576   9.232  35.577   0.252
69159W        W37577  36.429  25.665   4.130
69160W        W37578  29.127  42.843   2.260
69161W        W37579  42.865  14.263  14.929
69162W        W37580  22.710  11.131  11.974
69163W        W37581  19.770  15.733   1.927
69164W        W37582  14.758  27.079  12.020
69165W        W37583  35.493   6.857  12.860
69166W        W37584  34.079  43.416  12.422
69167W        W37585  38.551  30.640   1.322
69168W        W37586  42.979  13.616  13.805
69169W        W37587  26.195  37.435   3.310
69170W        W37588   4.270   8.299   2.178
69171W        W37589  15.704  13.804  13.945
69172W        W37590   1.468  34.042   0.822
69173W        W37591  30.441  38.535   4.671
69174W        W37592  24.100  15.288   4.714
69175W        W37593  19.763  13.191   0.273
69176W        W37594  25.089  19.584  11.590
69177W        W37595  40.502   6.410  12.926
69178W        W37596   5.900  33.432  12.090
69179W        W37597  21.184  29.102  13.358
69180W        W37598  14.647   0.405   0.857
69181W        W37599  42.861   7.412  13.323
69182W        W37600   5.348   5.866  14.503
69183W        W37601  34.018  27.690  10.993
69184W        W37602  16.295  30.549  12.510
69185W        W37603   1.341  19.119  13.821
69186W        W37604  13.144  34.872  13.530
69187W        W37605  12.119  33.060   3.800
69188W        W37606  27.986  11.200   4.598
69189W        W37607  21.751   6.837   3.357
69190W        W37608  36.079  29.645   1.761
69191W        W37609  41.454  30.616  13.866
69192W        W37610   2.293  30.633   0.482
69193W        W37611  16.167  20.560   1.241
69194W        W37612  26.207  28.626  14.759
69195W        W37613   0.325  44.394  13.022
69196W        W37614  34.611  17.076  11.999
69197W        W37615  11.145  29.938   0.265
69198W        W37616   3.417  38.552   2.821
69199W        W37617  38.949  40.819   0.823
69200W        W37618   2.402  21.057  13.485
69201W        W37619  24.577   9.241   2.235
69202W        W37620  21.749  20.118  11.079
69203W        W37621  19.688  40.306  12.367
69204W        W37622  44.261  40.887  10.445
69205W        W37623  18.114  22.196  11.956
69206W        W37624  42.814   4.929  11.470
69207W        W37625  21.591  40.476  11.478
69208W        W37626  23.565  14.205   4.218
69209W        W37627  11.640   8.799  11.959
69210W        W37628   4.814  39.492  14.508
69211W        W37629  24.155  24.101  10.956
69212W        W37630  33.573  18.160  10.063
69213W        W37631  15.728   6.710   3.758
69214W        W37632  35.377  32.530   1.740
69215W        W37633  34.598   4.409   2.202
69216W        W37634  34.880   8.891   2.836
69217W        W37635  24.515  42.453  13.459
69218W        W37636  42.964  12.848   3.677
69219W        W37637  44.773  36.923   1.851
69220W        W37638  14.098  27.646   2.222
69221W        W37639  35.004  42.478  12.996
69222W        W37640  40.479  19.129   1.282
69223W        W37641  11.284  16.604   1.905
69224W        W37642  30.910  35.854   4.211
69225W        W37643   2.796  41.945  13.040
69226W        W37644   4.702  35.564  12.954
69227W        W37645  44.842  25.037  13.431
69228W        W37646  22.240  43.850   1.356
69229W        W37647  39.469  39.476   0.898
69230W        W37648   4.232   4.303  13.868
69231W        W37649  34.979   7.891   2.187
69232W        W37650  42.963   3.735   0.945
69233W        W37651  35.434   3.445  12.362
69234W        W37652  20.107  12.144   9.970
69235W        W37653  29.134  25.496  13.444
69236W        W37654  36.846   9.834   2.298
69237W        W37655  41.412  29.929  12.355
69238W        W37656  12.253  30.970  10.900
69239W        W37657  42.799  10.142  13.871
69240W        W37658  31.601   0.982   1.308
69241W        W37659   7.740   6.380   3.730
69242W        W37660   3.354  10.371  13.890
69243W        W37661  28.452  32.621  11.569
69244W        W37662  23.212   4.750  11.122
69245W        W37663  22.744  38.068   2.405
69246W        W37664  34.995  14.191  10.930
69247W        W37665  37.896  33.083   2.397
69248W        W37666  39.851  15.087  14.819
69249W        W37667  16.083  31.998   4.186
69250W        W37668  34.575  42.428   0.919
69251W        W37669  11.706  20.620   3.657
69252W        W37670   2.248  15.614  12.428
69253W        W37671  29.027  44.977   0.955
69254W        W37672  29.115  23.081  10.895
69255W        W37673  11.655  37.926   1.724
69256W        W37674   1.305  24.230  11.087
69257W        W37675   9.664   9.835   2.414
69258W        W37676  35.903  25.063  13.836
69259W        W37677   4.233  37.871   2.209
69260W        W37678  37.990  35.538  14.337
69261W        W37679  40.366  23.573  12.865
69262W        W37680  32.045  43.279  11.027
69263W        W37681  34.944   1.847   4.293
69264W        W37682  17.260  17.602  14.428
69265W        W37683   0.744  29.495   3.224
69266W        W37684  13.250  29.548   2.328
69267W        W37685  16.715  22.667   2.409
69268W        W37686  10.873   3.411  14.954
69269W        W37687   8.780  33.096   2.264
69270W        W37688   4.285  11.339  11.532
69271W        W37689   0.274   0.897  14.987
69272W        W37690   6.745  28.159  14.864
69273W        W37691  10.173  41.476   3.809
69274W        W37692  10.829  20.244   2.360
69275W        W37693   0.297  13.729  11.876
69276W        W37694  14.706  26.662  11.445
69277W        W37695  20.753  39.559   0.280
69278W        W37696   2.945  43.847   1.851
69279W        W37697  33.125   1.732  10.628
69280W        W37698   8.817  17.121  13.055
69281W        W37699   3.712  10.173  14.810
69282W        W37700  41.349  39.044  10.412
69283W        W37701  25.978  39.509   3.321
69284W        W37702  36.078  28.534   0.250
69285W        W37703  36.447   8.347   2.419
69286W        W37704  36.529  23.667  10.591
69287W        W37705  21.148  20.696  12.074
69288W        W37706   9.286  25.196   2.735
69289W        W37707  18.070  31.446  10.633
69290W        W37708  30.483   3.732  12.929
69291W        W37709  28.051  37.559   4.788
69292W        W37710   6.681  16.106  11.933
69293W        W37711   0.309  20.648  12.403
69294W        W37712  26.204  17.765   0.294
69295W        W37713   0.963  18.595   1.783
69296W        W37714  24.097  25.595   0.290
69297W        W37715  40.470  30.026  13.392
69298W        W37716  42.399  34.477   1.449
69299W        W37717  34.964   2.731   4.750
69300W        W37718  26.488  16.308  14.817
69301W        W37719  13.736  15.227  10.996
69302W        W37720   5.728   8.658  13.542
69303W        W37721  34.991  10.702   0.324
69304W        W37722  10.190  36.380   1.780
69305W        W37723  25.508  10.185  10.417
69306W        W37724  25.059  20.208  12.534
69307W        W37725  21.617   5.327   1.375
69308W        W37726  42.901  38.505   0.293
69309W        W37727   3.258  25.001   2.685
69310W        W37728  39.331  42.960   2.180
69311W        W37729  36.379   1.836  11.479
69312W        W37730  29.120  33.965  12.496
69313W        W37731  10.181  43.372   3.263
69314W        W37732  22.066  13.323  10.564
69315W        W37733  14.205  31.051   1.706
69316W        W37734   4.377  36.864   2.662
69317W        W37735  19.553  14.761  10.947
69318W        W37736  13.624   3.860  14.455
69319W        W37737   4.820  14.337  13.015
69320W        W37738  11.174  32.451  14.513
69321W        W37739  16.617   6.891  13.428
69322W        W37740  28.950  17.096   2.891
69323W        W37741  37.483  41.964   4.271
69324W        W37742  23.688  23.240  13.477
69325W        W37743  37.538   0.250   0.394
69326W        W37744  44.354  41.020  13.824
69327W        W37745  39.473  35.031   1.297
69328W        W37746   7.412   2.833   4.197
69329W        W37747  21.133  19.715   2.895
69330W        W37748  43.966   8.359  10.627
69331W        W37749  41.489  10.872   4.837
69332W        W37750  27.986  35.438  11.606
69333W        W37751   4.275  26.013   0.792
69334W        W37752  23.659   2.766   0.355
69335W        W37753   8.887  30.123   0.427
69336W        W37754  14.789  23.078   0.476
69337W        W37755  33.993  13.268   4.316
69338W        W37756   6.699  28.143   1.767
69339W        W37757  37.039  44.885  10.472
69340W        W37758  38.057  10.822  11.954
69341W        W37759  13.696  34.408   1.758
69342W        W37760  30.467   9.698   3.305
69343W        W37761   2.359  44.983  11.933
69344W        W37762  19.654   2.771  10.440
69345W        W37763  43.323  12.192  14.890
69346W        W37764   6.813  16.737  12.345
69347W        W37765  38.994  29.122  13.826
69348W        W37766  21.091  15.697   1.831
69349W        W37767   6.415  13.646  14.028
69350W        W37768  13.764  22.168  14.384
69351W        W37769  44.483  44.885   4.131
69352W        W37770  10.682   7.729  13.499
69353W        W37771  41.788  14.705   4.174
69354W        W37772  35.462  32.533  10.639
69355W        W37773   5.815   0.784   0.297
69356W        W37774  13.640  22.006  14.966
69357W        W37775   5.921   9.838  13.414
69358W        W37776  29.941  27.050   3.683
69359W        W37777  43.940  38.531   3.341
69360W        W37778  42.420  14.713  14.802
69361W        W37779  30.059  30.595   2.821
69362W        W37780  44.455  31.575  12.554
69363W        W37781  37.417  13.181   3.637
69364W        W37782  21.643  37.936  13.399
69365W        W37783  10.878  37.448   0.306
69366W        W37784  25.215   8.188  12.901
69367W        W37785  14.328   1.928   4.224
69368W        W37786  24.070   9.197  11.121
69369W        W37787  16.088  25.044   0.809
69370W        W37788  10.807   1.380   1.906
69371W        W37789  34.479  19.677   1.241
69372W        W37790   4.366   2.723   2.782
69373W        W37791   0.985  21.203   4.756
69374W        W37792  32.589  15.795   2.679
69375W        W37793  12.719  12.279  11.583
69376W        W37794  18.742  27.951  12.510
69377W        W37795  31.462  23.084  14.904
69378W        W37796  27.587  42.373   3.147
69379W        W37797  40.999   1.323  13.950
69380W        W37798  20.046   7.712   2.349
69381W        W37799  37.833  16.687  11.994
69382W        W37800  27.482  22.033   1.210
69383W        W37801  13.174  39.990   1.270
69384W        W37802  40.819  22.170   1.718
69385W        W37803   7.688  26.539  12.482
69386W        W37804  34.558  10.302  11.002
69387W        W37805   0.915  34.885  11.018
69388W        W37806  31.570  37.375  13.860
69389W        W37807  30.970  17.666  14.781
69390W        W37808   6.279  33.109   4.169
69391W        W37809  40.912  44.820   2.869
69392W        W37810   4.752   5.317   4.792
69393W        W37811  40.890  13.174   3.284
69394W        W37812   8.195  32.502   1.244
69395W        W37813  33.944  29.650   0.342
69396W        W37814  43.465  38.849   5.693
69397W        W37815  21.114  20.256  13.798
69398W        W37816  11.225   7.827   2.418
69399W        W37817  22.629  22.512  14.380
69400W        W37818  29.667  38.446   4.788
69401W        W37819  16.162   6.361  13.522
69402W        W37820  17.259  17.247   4.332
69403W        W37821  23.528   5.422   1.285
69404W        W37822  13.715   5.300   1.380
69405W        W37823  44.759  24.588   3.368
69406W        W37824  17.555  40.954  11.973
69407W        W37825  29.166  26.038  11.907
69408W        W37826   6.882  39.900   3.154
69409W        W37827  44.766  40.932  13.041
69410W        W37828  24.531  41.887   1.285
69411W        W37829  40.984  25.502  13.842
69412W        W37830  21.590  22.665   2.839
69413W        W37831  16.679   9.829   3.679
69414W        W37832  10.256  29.481  11.515
69415W        W37833  21.109  17.256   3.387
69416W        W37834  20.525  37.851  13.927
69417W        W37835  44.891   5.219   0.740
69418W        W37836  15.600   9.862  13.896
69419W        W37837  36.545  41.008   4.738
69420W        W37838  12.820  24.574   1.777
69421W        W37839  26.080   9.334   0.301
69422W        W37840   1.845  31.636   1.737
69423W        W37841  43.996   8.254   3.152
69424W        W37842  22.066   6.906   4.200
69425W        W37843  34.921  33.589  13.463
69426W        W37844  44.781  14.771  11.600
69427W        W37845   3.864  21.212   9.614
69428W        W37846   0.298  11.757   2.748
69429W        W37847  14.615   3.341  14.459
69430W        W37848   3.782  15.804   1.298
69431W        W37849   5.883  14.621  14.477
69432W        W37850  19.070  42.943  12.501
69433W        W37851  27.595  43.497   1.252
69434W        W37852  32.056  29.008   1.919
69435W        W37853  26.095  17.733   3.791
69436W        W37854  28.635  14.710   4.234
69437W        W37855  19.707   0.282  14.768
69438W        W37856   9.235  14.687  11.382
69439W        W37857  21.678  35.954  13.444
69440W        W37858  25.073  33.878  12.945
69441W        W37859  20.665  32.056  14.479
69442W        W37860  20.232  41.391  14.854
69443W        W37861  27.023  23.542  12.917
69444W        W37862  36.030   1.839   2.663
69445W        W37863  44.473  31.644   3.767
69446W        W37864  18.246  10.879  14.923
69447W        W37865  29.474  31.017   4.340
69448W        W37866  29.051  21.513  12.886
69449W        W37867   0.838  19.672   2.903
69450W        W37868  42.025  37.408   4.203
69451W        W37869  11.323   6.835   4.746
69452W        W37870  41.899  26.509  13.499
69453W        W37871  38.933  17.070   0.846
69454W        W37872  34.870  17.292  11.566
69455W        W37873  39.827  35.877   3.296
69456W        W37874  44.919  29.977   2.855
69457W        W37875  35.420  18.212   4.637
69458W        W37876  39.862  28.003  10.572
69459W        W37877   8.283  11.669  12.005
69460W        W37878  35.896  44.475   5.218
69461W        W37879  38.420  32.431   2.693
69462W        W37880  36.371  41.427   1.700
69463W        W37881  16.574  13.308  12.866
69464W        W37882   3.900  28.497   1.389
69465W        W37883   4.708  40.396  11.107
69466W        W37884  15.810  29.027   2.184
69467W        W37885  41.435  21.664   0.794
69468W        W37886  36.357  27.003  13.826
69469W        W37887  21.045   0.924   1.827
69470W        W37888   3.869  32.946   0.480
69471W        W37889  11.250  21.208   1.807
69472W        W37890  42.427  38.889  14.789
69473W        W37891   3.449  17.784  13.491
69474W        W37892   4.284   3.874   1.914
69475W        W37893  11.795   7.193  11.102
69476W        W37894  11.230   3.346   3.323
69477W        W37895  41.306  43.346  12.935
69478W        W37896  18.291  10.665   1.831
69479W        W37897  16.617  21.633  11.999
69480W        W37898  16.130  36.895   2.772
69481W        W37899  12.129  42.787  10.535
69482W        W37900  16.666  17.304  12.961
69483W        W37901  26.567  15.203  13.903
69484W        W37902  14.599  20.691   0.474
69485W        W37903  23.164  13.805  13.416
69486W        W37904  30.630  20.080  12.346
69487W        W37905  11.864  18.629   2.323
69488W        W37906  19.542  24.651  14.347
69489W        W37907  24.725   2.847  11.921
69490W        W37908  34.002   8.339   3.850
69491W        W37909  19.683   9.332   1.275
69492W        W37910   2.263   8.702   2.249
69493W        W37911  20.640  21.647   1.246
69494W        W37912  39.022  12.126  12.378
69495W        W37913  13.619   4.832   4.239
69496W        W37914  17.593  23.642   3.243
69497W        W37915   4.740  12.685   3.328
69498W        W37916  11.762  21.068   4.153
69499W        W37917  19.641  41.329   0.378
69500W        W37918  33.573  24.131   0.469
69501W        W37919   1.456   8.807   3.757
69502W        W37920  38.452  44.300   0.909
69503W        W37921  24.543   4.748  11.450
69504W        W37922  42.305   4.297   4.117
69505W        W37923  12.719  21.524   0.287
69506W        W37924   9.293  15.148   3.849
69507W        W37925  30.111  43.484   2.354
69508W        W37926  28.487  11.373  14.370
69509W        W37927  22.729  28.078   4.656
69510W        W37928  25.970  24.122  12.942
69511W        W37929  17.137  39.329  10.502
69512W        W37930   9.296  27.162   1.323
69513W        W37931  14.778  24.718  14.957
69514W        W37932  38.552  20.621  11.068
69515W        W37933  38.565  40.813   1.236
69516W        W37934   4.294  21.589   1.881
69517W        W37935   8.284  42.857  11.468
69518W        W37936  42.330  14.594  11.526
69519W        W37937   3.306  25.168   0.925
69520W        W37938   9.260  15.187  11.972
69521W        W37939  43.514  33.027   1.361
69522W        W37940  13.816  15.141  11.390
69523W        W37941  36.403  25.209   3.372
69524W        W37942  28.613  18.165   0.320
69525W        W37943  37.363   9.159  12.570
69526W        W37944  33.105  43.937  13.889
69527W        W37945  36.948  22.167  13.386
69528W        W37946  31.991  32.528   2.327
69529W        W37947   0.781   4.429   4.774
69530W        W37948   3.337  24.583   4.693
69531W        W37949  39.540  34.003   1.246
69532W        W37950  15.695  25.634  10.510
69533W        W37951  25.685  42.018  12.893
69534W        W37952  44.435  19.127   3.750
69535W        W37953  19.159  12.311   4.679
69536W        W37954  15.685  44.004   5.145
69537W        W37955  33.523  40.922   0.371
69538W        W37956  31.432  11.226  12.046
69539W        W37957  23.164   9.814  12.580
69540W        W37958  33.581   8.681  12.936
69541W        W37959  18.693  37.416  11.062
69542W        W37960  15.802  22.605   2.348
69543W        W37961  10.750  37.513   3.708
69544W        W37962  29.932   9.719   0.778
69545W        W37963  20.758  41.441  12.502
69546W        W37964  12.655  32.106  10.428
69547W        W37965  12.141  37.929  11.475
69548W        W37966  20.203  12.667   5.200
69549W        W37967  44.433  11.202   0.875
69550W        W37968  25.103  41.409  14.993
69551W        W37969  37.542  24.161   2.865
69552W        W37970  17.641  19.182   0.747
69553W        W37971  38.857  10.247  13.827
69554W        W37972  12.713  26.460   4.700
69555W        W37973  31.456  23.646   4.791
69556W        W37974  38.996  25.161   3.303
69557W        W37975  34.898  39.315   3.703
69558W        W37976   3.444   7.767  12.352
69559W        W37977   3.440  21.634   4.688
69560W        W37978  23.541  34.114  14.293
69561W        W37979   7.323  25.113  13.373
69562W        W37980  27.171   0.414  11.516
69563W        W37981  20.113  42.896  10.107
69564W        W37982  10.677  27.982  14.305
69565W        W37983  26.991  41.463   2.767
69566W        W37984  37.495  17.239  14.870
69567W        W37985  20.580   6.243   3.355
69568W        W37986  39.045  11.715  12.885
69569W        W37987  28.678  30.524  10.634
69570W        W37988  36.050  22.234  14.333
69571W        W37989  25.114   1.431  10.546
69572W        W37990  16.203  38.469  12.473
69573W        W37991   7.411  16.569  14.770
69574W        W37992  32.623  11.754  10.962
69575W        W37993  33.930  30.551   3.254
69576W        W37994  43.422  23.146   1.230
69577W        W37995  10.278  34.071  10.633
69578W        W37996  20.680  16.728   3.864
69579W        W37997  12.310  42.839   2.669
69580W        W37998  14.698  17.307   1.401
69581W        W37999   0.898  33.410  10.127
69582W        W38000  35.433  38.063   3.376
69583W        W38001   0.901   5.725  11.549
69584W        W38002  16.248  32.603   2.259
69585W        W38003  39.331  11.834   1.242
69586W        W38004   4.844  26.685  12.071
69587W        W38005  28.051  17.223  13.973
69588W        W38006  24.110  19.683   4.228
69589W        W38007  18.113  41.997   3.173
69590W        W38008   6.421   0.845  11.378
69591W        W38009   4.929  36.450   0.929
69592W        W38010  42.818  12.770  12.020
69593W        W38011  26.012  41.526  13.914
69594W        W38012  26.200  39.329   1.835
69595W        W38013  27.167   3.745   0.767
69596W        W38014  37.998   8.682  13.475
69597W        W38015  24.160   0.880  13.998
69598W        W38016  19.188  22.171  10.618
69599W        W38017   9.333  38.825   5.177
69600W        W38018  34.384  18.122  14.869
69601W        W38019  19.673   1.822   1.697
69602W        W38020  29.565  30.646  13.367
69603W        W38021   3.395  26.003  14.761
69604W        W38022  17.118  37.357   1.872
69605W        W38023  13.183  31.404   4.777
69606W        W38024  18.737  29.541  10.014
69607W        W38025  21.642  25.115  10.502
69608W        W38026  44.484  18.116   0.272
69609W        W38027   3.836  15.242   1.716
69610W        W38028   3.328   0.261  11.072
69611W        W38029  30.468  27.098   3.349
69612W        W38030  19.063   4.822   1.912
69613W        W38031  34.454  33.608  13.941
69614W        W38032  33.393  43.374   2.203
69615W        W38033  42.482   8.192  12.936
69616W        W38034  40.370   8.288  12.866
69617W        W38035  17.786   0.895   4.260
69618W        W38036  37.920   6.693   3.271
69619W        W38037  29.047   6.194   3.350
69620W        W38038   2.293  10.872   3.758
69621W        W38039  13.681   6.783   4.834
69622W        W38040  42.344  44.814  10.910
69623W        W38041   1.799   8.844   2.868
69624W        W38042   9.832  37.447   2.889
69625W        W38043  38.934  40.414   0.907
69626W        W38044  13.607  42.031  11.494
69627W        W38045  35.925   3.384  13.863
69628W        W38046  13.231  30.438  14.315
69629W        W38047   3.437  19.155   4.643
69630W        W38048  25.171  10.381  11.894
69631W        W38049  34.110  25.045  14.782
69632W        W38050   5.296  18.626   0.246
69633W        W38051  22.573  38.063  10.154
69634W        W38052  43.426  33.538   4.195
69635W        W38053   9.310  21.187  14.956
69636W        W38054  44.865   2.375   3.225
69637W        W38055  27.532   1.871  14.510
69638W        W38056  38.410   4.411  11.038
69639W        W38057   3.716  38.542  13.984
69640W        W38058  23.998  29.520   3.713
69641W        W38059  17.288  10.854  11.032
69642W        W38060   1.301  18.121  11.423
69643W        W38061  33.582   4.356  11.088
69644W        W38062  31.481  10.216  13.499
69645W        W38063  11.740   6.351  13.385
69646W        W38064  15.809  41.847   3.731
69647W        W38065  26.089   5.205   0.243
69648W        W38066  22.120  32.102   0.365
69649W        W38067  37.937  37.862  10.107
69650W        W38068  15.633  42.991  13.957
69651W        W38069  14.625  14.785  12.068
69652W        W38070   4.889   4.743  13.990
69653W        W38071  40.900  13.677  11.105
69654W        W38072  28.959  40.913  10.901
69655W        W38073  27.492   5.332  12.894
69656W        W38074  27.463   5.313  14.457
69657W        W38075  15.631  41.328  13.963
69658W        W38076  34.528  13.821  14.954
69659W        W38077   8.765  15.103  10.579
69660W        W38078  12.313  41.790   3.764
69661W        W38079  10.828  29.038  14.901
69662W        W38080  23.583   5.906   1.360
69663W        W38081  11.281   4.714   0.844
69664W        W38082  33.437  39.956  12.540
69665W        W38083  25.113  40.854   0.242
69666W        W38084  29.506   4.859   4.131
69667W        W38085   5.906  13.323   2.412
69668W        W38086  35.955  35.062   2.382
69669W        W38087   2.291  19.745   5.606
69670W        W38088  43.389  40.962  12.386
69671W        W38089  25.975  40.506   3.788
69672W        W38090   9.839   7.710  12.888
69673W        W38091  18.712  29.514  10.623
69674W        W38092  44.842  12.306   5.198
69675W        W38093   2.244  23.072  13.873
69676W        W38094  37.510  26.142   3.736
69677W        W38095  40.415  25.973   3.340
69678W        W38096  11.710  11.813   0.309
69679W        W38097   7.185  12.661  13.838
69680W        W38098   4.727  37.524  12.350
69681W        W38099  27.586  23.575  12.461
69682W        W38100  35.520  24.564   2.337
69683W        W38101   1.809  36.437  13.050
69684W        W38102  21.610  21.514  14.882
69685W        W38103  42.516  20.044   3.303
69686W        W38104   0.756  10.368   1.372
69687W        W38105  11.279  35.986   4.696
69688W        W38106   1.454  28.157   3.376
69689W        W38107  40.498  31.510   0.390
69690W        W38108  23.702  32.938   4.753
69691W        W38109  23.131  36.006   2.366
69692W        W38110  17.263  13.812   5.718
69693W        W38111   8.210   1.904   4.195
69694W        W38112   7.267  23.598   1.245
69695W        W38113  13.318  43.838  12.580
69696W        W38114  42.977   7.251   4.818
69697W        W38115   5.371  22.015   4.631
69698W        W38116  30.910  15.632  14.996
69699W        W38117  32.940  19.122   1.419
69700W        W38118  14.724  29.500  13.380
69701W        W38119  11.293  35.938  14.468
69702W        W38120  33.509   6.747  14.488
69703W        W38121   9.363  32.979   2.194
69704W        W38122  31.490  26.185  12.897
69705W        W38123  24.669  44.807   4.284
69706W        W38124  35.936  20.208  13.902
69707W        W38125  38.849  23.534   2.736
69708W        W38126  18.550  37.850  14.437
69709W        W38127  35.384  11.757   0.370
69710W        W38128   1.876   8.398   1.786
69711W        W38129  36.883   3.224   4.207
69712W        W38130  40.825  35.466  14.478
69713W        W38131  29.054  34.079  13.993
69714W        W38132   1.407   5.891   3.833
69715W        W38133  43.888  33.074  14.938
69716W        W38134  34.896   7.348  10.897
69717W        W38135  34.084   2.724   3.275
69718W        W38136  22.733  41.335   2.901
69719W        W38137  31.080   0.780  11.083
69720W        W38138  31.934  23.610  12.093
69721W        W38139  34.948   5.421   1.210
69722W        W38140  25.602  10.666   2.761
69723W        W38141  13.637  38.445  10.554
69724W        W38142  14.181  34.499   3.224
69725W        W38143  39.327  31.592   1.314
69726W        W38144  35.950  15.746   1.425
69727W        W38145  44.980  18.270   0.842
69728W        W38146  37.951  29.112   0.925
69729W        W38147  34.087  42.361  10.638
69730W        W38148  28.124   8.681   5.269
69731W        W38149  11.221  12.788   2.186
69732W        W38150  36.458  20.274  13.861
69733W        W38151  14.630  44.478  11.386
69734W        W38152  43.468   8.349   2.780
69735W        W38153  10.366  11.249   1.343
69736W        W38154  11.149  12.702  14.933
69737W        W38155  27.008  40.372   2.887
69738W        W38156  31.042  43.926  13.368
69739W        W38157  12.637   2.343   1.291
69740W        W38158  35.360  34.521   1.381
69741W        W38159  11.743  28.952   5.105
69742W        W38160  17.734  36.948   4.811
69743W        W38161  34.106  35.931  11.382
69744W        W38162  16.617  20.075  14.955
69745W        W38163  22.722   0.454   1.694
69746W        W38164  21.152  21.172  10.492
69747W        W38165  38.449  29.098   3.685
69748W        W38166   8.316  21.745   4.613
69749W        W38167  15.131  20.589   1.857
69750W        W38168   7.182  44.958  14.917
69751W        W38169  34.945  39.064   2.328
69752W        W38170  42.979  22.501   0.965
69753W        W38171   9.211  20.084  10.930
69754W        W38172  25.512  30.441   5.133
69755W        W38173  28.048  26.952  11.115
69756W        W38174  24.665  23.648   3.165
69757W        W38175  42.383  30.125   1.848
69758W        W38176   6.384  19.765   5.219
69759W        W38177  24.539  40.453   0.953
69760W        W38178   7.684  37.015  14.514
69761W        W38179  43.421  25.027   3.637
69762W        W38180  38.355  35.943   3.250
69763W        W38181  27.084  18.132   2.849
69764W        W38182  21.045  31.505   2.873
69765W        W38183   9.724  37.001  14.003
69766W        W38184  39.964  39.454   0.363
69767W        W38185   6.692  31.116   3.183
69768W        W38186   9.701  20.538  12.353
69769W        W38187   2.461  24.674  12.839
69770W        W38188  25.569  31.574   1.719
69771W        W38189   1.739   9.738   1.284
69772W        W38190  12.750  14.313   0.307
69773W        W38191   1.480  26.112   3.695
69774W        W38192  27.955   0.433   0.467
69775W        W38193  11.361   2.277  14.851
69776W        W38194  39.968  16.762   0.372
69777W        W38195  43.819  21.181  13.936
69778W        W38196  20.669  30.005   2.830
69779W        W38197  42.935   7.187  14.835
69780W        W38198  29.609  42.342   1.281
69781W        W38199  38.394  31.950   0.877
69782W        W38200  42.001  13.162  12.507
69783W        W38201   1.966  24.610   1.885
69784W        W38202   9.648  11.169  13.861
69785W        W38203  31.092  43.863  12.347
69786W        W38204  19.234   6.867  14.418
69787W        W38205   2.378  42.413   1.374
69788W        W38206  40.932  36.994  11.979
69789W        W38207  16.669  37.052   4.705
69790W        W38208  40.503  28.629  11.455
69791W        W38209  21.714  35.051   0.759
69792W        W38210  13.158   6.354   0.269
69793W        W38211   1.442  42.825  12.999
69794W        W38212  21.133   7.875   4.331
69795W        W38213  37.057   7.682  11.096
69796W        W38214  35.033  26.696  10.013
69797W        W38215  34.523  12.221  13.017
69798W        W38216   0.254  25.620  14.323
69799W        W38217  18.071   5.217  13.913
69800W        W38218  33.425  39.522   4.641
69801W        W38219  18.730  18.079  13.936
69802W        W38220   7.728  41.826  14.301
69803W        W38221  13.723  15.105   1.866
69804W        W38222  24.180  31.637   4.597
69805W        W38223  27.583   8.172   1.297
69806W        W38224   1.803  27.546   3.269
69807W        W38225   0.311  39.849   2.323
69808W        W38226  34.492  37.048  10.470
69809W        W38227   7.210  19.686  10.469
69810W        W38228   6.754   8.726   4.745
69811W        W38229  40.897  17.583  10.932
69812W        W38230  33.558   9.817  11.127
69813W        W38231  28.980  41.955   3.214
69814W        W38232  17.634  39.809  13.955
69815W        W38233  31.557   4.413   2.859
69816W        W38234  25.470  42.794   3.870
69817W        W38235   4.402  15.682   1.307
69818W        W38236  10.212   8.657  10.426
69819W        W38237  38.046  24.617  12.943
69820W        W38238  41.446  41.801  10.888
69821W        W38239  44.882  26.024  12.371
69822W        W38240  23.037  42.313   1.215
69823W        W38241  22.997  23.612  13.502
69824W        W38242  44.332  11.216  11.550
69825W        W38243  37.355  10.768  11.529
69826W        W38244  39.819   0.329   3.741
69827W        W38245   5.309  38.889   2.792
69828W        W38246  17.635   2.441  13.846
69829W        W38247  19.553  40.812   0.929
69830W        W38248  14.305   6.801  12.070
69831W        W38249  44.328   9.181   1.234
69832W        W38250  11.344   0.344  11.585
69833W        W38251  13.259   0.353  13.421
69834W        W38252  37.368  32.499   0.336
69835W        W38253  38.928   8.837  14.929
69836W        W38254  30.596  34.892   3.641
69837W        W38255  27.674  15.238  10.609
69838W        W38256  24.600  24.484   4.708
69839W        W38257  31.462  35.361  12.569
69840W        W38258  44.909   5.922  14.006
69841W        W38259  37.876   2.819  13.486
69842W        W38260  33.385  11.355  10.620
69843W        W38261  40.870  16.307   3.867
69844W        W38262   8.337  36.381  10.438
69845W        W38263  32.525  10.345  14.830
69846W        W38264  20.065  18.711  12.356
69847W        W38265   4.934  13.230  13.466
69848W        W38266   3.786  44.979   0.324
69849W        W38267   4.427  32.903  12.527
69850W        W38268   6.229  34.612   4.213
69851W        W38269  16.780  21.257   0.265
69852W        W38270  29.454  22.148  14.867
69853W        W38271  21.543  18.151   2.304
69854W        W38272   7.193  13.309   0.429
69855W        W38273   1.801  35.366  11.538
69856W        W38274  17.178  26.968  13.311
69857W        W38275  26.682  15.810   4.613
69858W        W38276   2.344  11.364  10.998
69859W        W38277  34.973  35.567   0.893
69860W        W38278  13.763  33.544   3.768
69861W        W38279  14.809   0.391  12.345
69862W        W38280  24.229  23.509   9.923
69863W        W38281  25.094   6.416   0.842
69864W        W38282  22.160   7.415   1.253
69865W        W38283   2.372  30.448   5.120
69866W        W38284  17.735  26.557   3.336
69867W        W38285   0.460  25.063   2.262
69868W        W38286  29.567   0.324   0.330
69869W        W38287  11.642   2.251  12.451
69870W        W38288  41.018  17.270  13.927
69871W        W38289  44.409  44.981   9.944
69872W        W38290   8.666  43.832   0.759
69873W        W38291   1.747  30.530   2.861
69874W        W38292  41.301  14.210  14.898
69875W        W38293  42.386  21.061   3.688
69876W        W38294  35.446  23.217   2.417
69877W        W38295  36.392  44.389   3.861
69878W        W38296  10.792  21.048  13.328
69879W        W38297  33.476  11.216   0.941
69880W        W38298  19.644  28.578   3.258
69881W        W38299   2.443  37.548   0.823
69882W        W38300  22.061  30.454   3.312
69883W        W38301  22.583  14.325   4.827
69884W        W38302  27.572  33.957   1.898
69885W        W38303  20.225   1.950  14.300
69886W        W38304   1.977  43.814  14.339
69887W        W38305  18.194  14.163   0.951
69888W        W38306  32.995  30.078   1.317
69889W        W38307  32.968  24.650   0.427
69890W        W38308   5.260  24.062   2.320
69891W        W38309  40.992   3.739   2.705
69892W        W38310  28.533   6.218  13.442
69893W        W38311  28.030  26.180   0.875
69894W        W38312  24.621   7.231   1.242
69895W        W38313  21.695  38.548   3.633
69896W        W38314   1.741   7.364   3.649
69897W        W38315   1.403  14.274   4.243
69898W        W38316   0.862   5.712  14.963
69899W        W38317   6.904  44.010   3.714
69900W        W38318  11.790  40.036  11.397
69901W        W38319  23.019  42.301  11.580
69902W        W38320   3.751  30.439  14.781
69903W        W38321   7.330  37.489   4.799
69904W        W38322  23.146  35.525   3.639
69905W        W38323   1.975  38.033   4.162
69906W        W38324  17.297  14.187   4.727
69907W        W38325  12.759   6.689  11.882
69908W        W38326  26.165  39.890  14.848
69909W        W38327  31.547  35.504   2.729
69910W        W38328  20.661  12.757   5.108
69911W        W38329  31.401  33.380  14.324
69912W        W38330  36.955  39.526  12.864
69913W        W38331  13.623   3.231  11.856
69914W        W38332   5.888  14.625  10.561
69915W        W38333  13.323   6.836   0.952
69916W        W38334   1.454   1.779   2.856
69917W        W38335  33.025  41.411   2.202
69918W        W38336  32.635   8.790   0.760
69919W        W38337  21.043  31.978   2.275
69920W        W38338  22.570   5.706  10.624
69921W        W38339   5.319  32.580   0.357
69922W        W38340  15.272  30.934   1.316
69923W        W38341   8.862  29.641  11.935
69924W        W38342  14.256   7.337   0.395
69925W        W38343  28.469  16.599  10.564
69926W        W38344   5.769  28.122   2.202
69927W        W38345  14.275  14.156  12.527
69928W        W38346  28.565  25.550   4.633
69929W        W38347  32.464   9.265   2.827
69930W        W38348  19.571  32.024  11.500
69931W        W38349   2.410  34.566   3.648
69932W        W38350  36.849   6.327   0.308
69933W        W38351  25.544  19.546   2.812
69934W        W38352  36.966  28.034  11.470
69935W        W38353  32.632  14.799   1.229
69936W        W38354  32.485   9.322   4.316
69937W        W38355  17.794  27.968  11.475
69938W        W38356   9.254  23.520   3.834
69939W        W38357  42.293   0.982   0.268
69940W        W38358  38.908  39.891   2.886
69941W        W38359  35.897  29.108   1.732
69942W        W38360   6.729  11.725  14.911
69943W        W38361  27.553  29.569  12.837
69944W        W38362  14.739   4.857  10.061
69945W        W38363  21.113  41.033  14.952
69946W        W38364   5.909   6.330  10.603
69947W        W38365  21.054  19.761  13.809
69948W        W38366  18.734  28.138  11.883
69949W        W38367  25.075  31.103   2.255
69950W        W38368  17.656  37.384   4.743
69951W        W38369  26.485   0.919   3.236
69952W        W38370   9.291  14.185  10.469
69953W        W38371   1.839  32.499  13.014
69954W        W38372   5.901   1.333   3.692
69955W        W38373  13.333   8.664   1.744
69956W        W38374  29.667   9.296  14.445
69957W        W38375  17.777   1.976   4.251
69958W        W38376  42.404  41.396  11.965
69959W        W38377   9.880  44.333   4.134
69960W        W38378  11.832   8.841  11.036
69961W        W38379  39.939  36.517  12.473
69962W        W38380  26.176  18.162   3.319
69963W        W38381  21.139  21.059   2.819
69964W        W38382   8.190  24.634  14.379
69965W        W38383  16.812  39.053  11.020
69966W        W38384  39.402  22.240   1.216
69967W        W38385  36.050   2.445   0.838
69968W        W38386  42.987  38.400   2.901
69969W        W38387   0.814  25.052  10.580
69970W        W38388  14.732  12.801   3.374
69971W        W38389   3.836  43.504   4.115
69972W        W38390  44.401  12.725   2.389
69973W        W38391  44.351  18.724   3.244
69974W        W38392   3.220  17.258  11.939
69975W        W38393  40.519  20.662  12.011
69976W        W38394  17.665  31.603   3.694
69977W        W38395  42.386  41.948   2.288
69978W        W38396  42.848  10.194  14.337
69979W        W38397   9.216  11.138  13.031
69980W        W38398  23.208  40.877  13.341
69981W        W38399  26.658  23.200  12.825
69982W        W38400   0.366  18.278   3.845
69983W        W38401  44.903  21.669   2.763
69984W        W38402  41.928  40.868   0.245
69985W        W38403  39.325  17.251  10.522
69986W        W38404  30.006  34.377  13.942
69987W        W38405  43.481  21.741  14.415
69988W        W38406  31.979   6.786   0.735
69989W        W38407  41.301  17.137  10.564
69990W        W38408  10.673  43.982  14.480
69991W        W38409  34.440   0.940   1.865
69992W        W38410  14.777  27.137   3.688
69993W        W38411  17.664   5.918  10.570
69994W        W38412  33.487  20.592  14.956
69995W        W38413  39.404  43.362   0.344
69996W        W38414   0.780  22.093  13.319
69997W        W38415  27.098  35.028   4.329
69998W        W38416  38.064  27.151   4.142
69999W        W38417   8.297  29.157   2.381
70000W        W38418  44.493   4.359  12.476
70001W        W38419  17.569  26.495  14.333
70002W        W38420  14.711  40.527  10.541
70003W        W38421  13.686   4.813  11.972
70004W        W38422  36.077  32.956  13.502
70005W        W38423  37.545  24.535   0.801
70006W        W38424  35.392  23.091  11.577
70007W        W38425  20.676  42.787  11.031
70008W        W38426  38.922  30.438  11.533
70009W        W38427  35.034  33.883  13.059
70010W        W38428  11.216   6.771   3.266
70011W        W38429  10.692  13.177   4.176
70012W        W38430  10.689  33.124  13.051
70013W        W38431  30.915  43.920  11.041
70014W        W38432  27.075  26.021   0.796
70015W        W38433  14.784  27.451  10.643
70016W        W38434  23.559  41.320  12.552
70017W        W38435  13.243  32.914  11.568
70018W        W38436   0.986  43.986   2.777
70019W        W38437  11.699  39.366   3.340
70020W        W38438  10.764  29.593   1.382
70021W        W38439   4.248  22.506  14.361
70022W        W38440  18.652  40.929  11.435
70023W        W38441  10.847  29.176  13.909
70024W        W38442   7.385   6.785  11.400
70025W        W38443  22.231   0.379  14.339
70026W        W38444  28.569   0.790   1.856
70027W        W38445  12.755  11.638  11.569
70028W        W38446   1.838  18.734  10.571
70029W        W38447  29.466   3.261  10.522
70030W        W38448  27.146  41.460  12.507
70031W        W38449  29.074   8.842   2.720
70032W        W38450  41.816  29.652   1.228
70033W        W38451   8.237  29.051  13.967
70034W        W38452  17.182  18.136  12.051
70035W        W38453  12.333  20.231   4.224
70036W        W38454  22.159  42.023   2.306
70037W        W38455  34.080  11.244  12.551
70038W        W38456  44.409  24.074  12.956
70039W        W38457  42.791  21.599  14.486
70040W        W38458  30.568   3.287   0.394
70041W        W38459  11.763   3.722  13.827
70042W        W38460  28.633  29.028  12.379
70043W        W38461   3.330   6.320  11.462
70044W        W38462  13.337  25.981  11.898
70045W        W38463  28.650  28.670  12.863
70046W        W38464  28.635   1.426  13.420
70047W        W38465  24.230  38.359  11.612
70048W        W38466  13.680  37.026  12.560
70049W        W38467   7.867  38.447  11.871
70050W        W38468   4.443  34.497   4.327
70051W        W38469  26.690  28.057  11.498
70052W        W38470  39.516  39.851  13.448
70053W        W38471  31.552  34.073  14.793
70054W        W38472  36.089  38.899   1.439
70055W        W38473  17.556  11.787   3.294
70056W        W38474  40.038  11.726  13.862
70057W        W38475  39.973  32.567   3.795
70058W        W38476  10.752  36.416  13.396
70059W        W38477  25.616   8.359   4.341
70060W        W38478   4.760  40.930   4.154
70061W        W38479  32.508  44.364   0.736
70062W        W38480  39.493   9.827   2.316
70063W        W38481  12.718   2.414   0.873
70064W        W38482  29.936   2.391  12.897
70065W        W38483  18.588  24.121   0.318
70066W        W38484  36.943  26.519   0.303
70067W        W38485  40.801  20.200   0.326
70068W        W38486  29.093  18.617  12.049
70069W        W38487  29.131  13.614  14.834
70070W        W38488  14.197  42.853   1.337
70071W        W38489  29.058  41.525  11.466
70072W        W38490  40.360  28.080   4.635
70073W        W38491  11.856  44.332  14.464
70074W        W38492  15.759  19.747  13.856
70075W        W38493  33.059  44.424  13.467
70076W        W38494  40.470  22.078   4.291
70077W        W38495  22.618  32.547  13.792
70078W        W38496  38.421   9.164  11.958
70079W        W38497  41.903  18.703   1.841
70080W        W38498  11.672  18.601   1.211
70081W        W38499  31.049  23.199   4.638
70082W        W38500  36.078  42.984  12.975
70083W        W38501  38.993  39.545  13.325
70084W        W38502   0.984  14.737  13.027
70085W        W38503  44.759  41.995   4.810
70086W        W38504  22.246  18.236   1.392
70087W        W38505  19.691  37.366  12.066
70088W        W38506  43.008  24.099  12.470
70089W        W38507  10.367   0.487  11.957
70090W        W38508  17.085  31.029   4.279
70091W        W38509   8.350  40.824  13.506
70092W        W38510   7.330  40.545   1.737
70093W        W38511  27.541   1.812  13.457
70094W        W38512  11.656   3.745   0.338
70095W        W38513  38.433   0.788  12.040
70096W        W38514  15.170  37.429  13.348
70097W        W38515  22.197   3.833   1.291
70098W        W38516  15.271  26.107  11.565
70099W        W38517  43.477  16.629   3.296
70100W        W38518  20.111  27.515  10.564
70101W        W38519  11.725   4.827   3.773
70102W        W38520   7.194  31.456   1.371
70103W        W38521  13.327   6.818  11.420
70104W        W38522   5.436  21.199   1.855
70105W        W38523  17.066  21.558  13.927
70106W        W38524   7.883  15.206   0.922
70107W        W38525  31.484  29.022  14.884
70108W        W38526  25.483  13.114  11.608
70109W        W38527  12.739  41.356  12.468
70110W        W38528  20.746  20.085  13.832
70111W        W38529  23.050  39.432   2.241
70112W        W38530  14.256   6.236  11.993
70113W        W38531  20.640  35.404  11.061
70114W        W38532  37.076  35.916  11.900
70115W        W38533  40.824  35.480   0.407
70116W        W38534   6.808  34.976  13.819
70117W        W38535  20.651  29.481  13.459
70118W        W38536  38.831  38.366   3.695
70119W        W38537  16.128  17.703  12.934
70120W        W38538  26.014   0.825  10.515
70121W        W38539   3.897  10.868  14.765
70122W        W38540  22.032  23.498  14.896
70123W        W38541   9.228  19.566  14.853
70124W        W38542  21.137  32.466  13.059
70125W        W38543  14.190  16.276   2.780
70126W        W38544  10.794  38.024  11.461
70127W        W38545   6.319  14.662  14.946
70128W        W38546  15.757  15.676  14.434
70129W        W38547  16.093  21.126   4.663
70130W        W38548  21.582  29.949  11.900
70131W        W38549  11.280  28.016   4.131
70132W        W38550  22.176   7.354   2.200
70133W        W38551  22.164  36.052   1.433
70134W        W38552  33.891  14.802   1.332
70135W        W38553  37.430  24.596  13.822
70136W        W38554   5.901   5.192  11.942
70137W        W38555  22.110  15.692   2.744
70138W        W38556   8.808  36.520   0.332
70139W        W38557  14.217  29.568   2.889
70140W        W38558  17.296  11.825  14.373
70141W        W38559  44.332  28.967   4.826
70142W        W38560  34.486  41.817   3.651
70143W        W38561  12.776  43.911  13.393
70144W        W38562  43.479  40.869   1.320
70145W        W38563  32.133  28.632  11.607
70146W        W38564  40.915  26.542  11.024
70147W        W38565  18.226  11.200  12.969
70148W        W38566   8.714  32.631  10.993
70149W        W38567   0.954  17.099  13.992
70150W        W38568  20.068   6.754   4.132
70151W        W38569   3.796  26.555   2.858
70152W        W38570  37.013  40.008  14.822
70153W        W38571   4.897  36.988   4.838
70154W        W38572  34.392  13.284   4.679
70155W        W38573  12.756  11.176   4.196
70156W        W38574  44.841  44.391  12.945
70157W        W38575  28.021  14.221  12.437
70158W        W38576   1.463  36.913  14.337
70159W        W38577  11.668  30.616   4.208
70160W        W38578  26.995   9.839   2.276
70161W        W38579  42.867   3.721  14.490
70162W        W38580   6.752   3.337   4.131
70163W        W38581   4.866  23.992   5.278
70164W        W38582  44.906  37.489  11.434
70165W        W38583   1.912  22.052   1.830
70166W        W38584  30.502  33.028   2.731
70167W        W38585  35.480  41.511  12.347
70168W        W38586  43.489   2.315  12.918
70169W        W38587   0.958  23.589   2.858
70170W        W38588  37.848  14.258   4.179
70171W        W38589  34.052  21.061  13.996
70172W        W38590  43.342  37.952   0.277
70173W        W38591  33.058   3.813   3.314
70174W        W38592  21.690   7.676  11.920
70175W        W38593  17.094   4.894  12.350
70176W        W38594  43.858  13.296  13.309
70177W        W38595  16.108  12.671   1.433
70178W        W38596  42.993  26.606   2.768
70179W        W38597  19.175  36.936   2.273
70180W        W38598  37.924  43.931   2.902
70181W        W38599   0.879  25.568   1.878
70182W        W38600   3.426  18.602  14.903
70183W        W38601  31.018  19.677   4.134
70184W        W38602  14.325  44.866   2.900
70185W        W38603   6.204  18.734   3.767
70186W        W38604  14.643   5.700  10.949
70187W        W38605  33.999  26.961  11.888
70188W        W38606  44.477  26.058   0.819
70189W        W38607  35.394  12.232  13.543
70190W        W38608  31.504  20.129  13.432
70191W        W38609   9.768  11.716  12.041
70192W        W38610   1.238  26.662  11.530
70193W        W38611  13.775  42.505   1.231
70194W        W38612  42.518  41.445   4.602
70195W        W38613  23.585  15.748   4.160
70196W        W38614  40.980  30.035   0.362
70197W        W38615  28.532  16.592   3.280
70198W        W38616   0.846  34.935  12.567
70199W        W38617   4.335  43.900   3.349
70200W        W38618  40.023   0.318  11.418
70201W        W38619  40.345   6.771   0.464
70202W        W38620  26.488  28.063   4.203
70203W        W38621  16.657   3.384  11.586
70204W        W38622  31.911  17.121  14.452
70205W        W38623  24.207  24.085   0.817
70206W        W38624   9.199   5.703  14.434
70207W        W38625  43.426   3.266  12.362
70208W        W38626   7.240  29.640   1.825
70209W        W38627  13.633   9.160  10.509
70210W        W38628  10.143  42.013   5.181
70211W        W38629  19.203  15.298   2.356
70212W        W38630  11.643  12.699   1.847
70213W        W38631  16.644  41.912   4.204
70214W        W38632  16.732  35.096   2.682
70215W        W38633  29.173  41.940  13.337
70216W        W38634   0.471  44.967  12.443
70217W        W38635  21.208  22.713   0.432
70218W        W38636  43.811  25.174  12.526
70219W        W38637  22.207  15.140   3.291
70220W        W38638  26.009  25.711   3.192
70221W        W38639  32.570   3.735   4.220
70222W        W38640  27.499  33.449   2.220
70223W        W38641   3.826  36.090   1.822
70224W        W38642  12.297   0.900   1.698
70225W        W38643  19.583   3.868  14.826
70226W        W38644  33.048  21.130   3.725
70227W        W38645  28.114  27.162   1.725
70228W        W38646  40.433  12.845   4.277
70229W        W38647   3.736   1.789   0.900
70230W        W38648   0.963  26.640   9.943
70231W        W38649  43.502  10.820   1.828
70232W        W38650   0.374  21.600  12.385
70233W        W38651  31.012  18.205  13.473
70234W        W38652  15.609  12.647   4.829
70235W        W38653   1.903   9.680  14.424
70236W        W38654  43.831  16.120   1.372
70237W        W38655  42.893  30.921   0.247
70238W        W38656   8.715  26.127  10.943
70239W        W38657  24.665  15.660   1.732
70240W        W38658  36.945  10.873  12.926
70241W        W38659  35.449   9.256   1.920
70242W        W38660  36.468  12.715  12.517
70243W        W38661  32.889  20.244   1.828
70244W        W38662  42.016  30.574   2.194
70245W        W38663  16.727  32.927  13.879
70246W        W38664  38.430  18.657  12.909
70247W        W38665  33.891  39.428   2.729
70248W        W38666  13.131  32.931  13.389
70249W        W38667  15.229  34.614  14.447
70250W        W38668  22.206  17.664   1.920
70251W        W38669  42.785  29.433   3.788
70252W        W38670  28.936  19.199   3.869
70253W        W38671   6.831  20.220  11.435
70254W        W38672  20.227   5.400   3.692
70255W        W38673  32.102  38.030   2.670
70256W        W38674  25.169  35.411   2.367
70257W        W38675   0.825  24.724   0.371
70258W        W38676  44.797  24.594   1.791
70259W        W38677  21.102  26.205  10.448
70260W        W38678  17.788  26.484   4.164
70261W        W38679  35.451  31.152   0.444
70262W        W38680  40.016  43.318  10.579
70263W        W38681  13.600   2.452  11.514
70264W        W38682  42.002  15.636   4.728
70265W        W38683   1.826  24.169   3.296
70266W        W38684  24.651  33.621   4.781
70267W        W38685   2.801  21.063   3.662
70268W        W38686  15.208  34.035   4.790
70269W        W38687  28.145   6.402   4.262
70270W        W38688  36.051  30.142   1.837
70271W        W38689  32.622   9.824  12.433
70272W        W38690  32.057   5.239  11.077
70273W        W38691  22.717  15.736   3.385
70274W        W38692  21.097  19.220   2.731
70275W        W38693   9.230  26.043   0.295
70276W        W38694  41.319  30.086  11.385
70277W        W38695   0.974   6.263   3.746
70278W        W38696   7.355  32.427   4.341
70279W        W38697  33.615  36.856  13.404
70280W        W38698   2.797  18.597   2.194
70281W        W38699  38.518  42.427   2.235
70282W        W38700   5.436  29.608  10.008
70283W        W38701  35.937  13.715  10.589
70284W        W38702  29.636  44.290   5.185
70285W        W38703  40.800  19.174   4.146
70286W        W38704  35.085  26.139   4.796
70287W        W38705  25.163  39.486  13.310
70288W        W38706  39.934  31.056   4.723
70289W        W38707  31.459  42.798  14.783
70290W        W38708  12.349  44.392  11.554
70291W        W38709  16.119   1.772   2.851
70292W        W38710  15.166  26.660  13.526
70293W        W38711   8.888  26.194  10.508
70294W        W38712  26.017   3.218  13.915
70295W        W38713  35.539  20.096   4.610
70296W        W38714  18.287  26.665   4.646
70297W        W38715  24.104  40.329  13.452
70298W        W38716  37.458  35.596   2.747
70299W        W38717   7.299  13.754  12.346
70300W        W38718  21.051  21.552   0.315
70301W        W38719  41.498  21.051   3.759
70302W        W38720   0.404   3.441  12.091
70303W        W38721  41.890   9.681  11.079
70304W        W38722  25.096  38.377  12.468
70305W        W38723   9.269  43.304   4.137
70306W        W38724  35.971  19.549  12.946
70307W        W38725  28.612   6.200   3.244
70308W        W38726  22.188   7.189  10.438
70309W        W38727  41.992  18.775  14.450
70310W        W38728  39.356  30.927  14.835
70311W        W38729  26.663  35.503   3.854
70312W        W38730  36.560  19.174  10.461
70313W        W38731  44.260  41.966  11.420
70314W        W38732  27.141  18.733   1.859
70315W        W38733   2.832  32.469   3.318
70316W        W38734  41.040  18.096  13.865
70317W        W38735   6.871  15.157  11.513
70318W        W38736   9.793  37.952  14.499
70319W        W38737  36.986  13.807  11.600
70320W        W38738   3.900  25.657   1.720
70321W        W38739   0.354  42.949   3.840
70322W        W38740   5.861   0.308  12.390
70323W        W38741  31.494  41.338  14.770
70324W        W38742  44.872  11.855  10.523
70325W        W38743  43.435   5.251  10.581
70326W        W38744  37.552   6.784   0.257
70327W        W38745  10.633   5.819   3.793
70328W        W38746  25.479   6.764  10.638
70329W        W38747  17.656  19.047   4.759
70330W        W38748  11.194   2.822   0.890
70331W        W38749  22.734  29.513   0.790
70332W        W38750   5.803  35.910   1.432
70333W        W38751  36.524  14.224   0.813
70334W        W38752  22.092  10.356  14.312
70335W        W38753  28.934   6.308  13.307
70336W        W38754  19.070  31.993   4.779
70337W        W38755  25.631   3.256  10.584
70338W        W38756  37.965   1.867   1.778
70339W        W38757  23.164  30.650  12.462
70340W        W38758  30.656  11.655  14.863
70341W        W38759  14.618  37.365  12.955
70342W        W38760  36.037  19.102  12.409
70343W        W38761  27.120  21.240   2.879
70344W        W38762   3.743   6.198  13.332
70345W        W38763  44.804  33.522  14.457
70346W        W38764  39.452   1.811   2.792
70347W        W38765   3.833  37.902   3.348
70348W        W38766  42.997   9.707  13.808
70349W        W38767  28.440  31.907   0.881
70350W        W38768  13.758  29.928   0.862
70351W        W38769   9.815   5.759  14.371
70352W        W38770  11.278  24.609   2.803
70353W        W38771  44.304  16.253   1.326
70354W        W38772  18.058  11.285   1.388
70355W        W38773  10.243  36.519   4.604
70356W        W38774  12.798  23.220   2.304
70357W        W38775  32.956  38.065   4.766
70358W        W38776  10.215  28.942  12.394
70359W        W38777  11.338  17.687  13.509
70360W        W38778  14.301  33.601   1.739
70361W        W38779  37.436  32.913   4.265
70362W        W38780   5.699  32.048  13.062
70363W        W38781  18.647  23.683   4.681
70364W        W38782   3.257   1.288   1.849
70365W        W38783  32.039  31.071   0.950
70366W        W38784  33.428   7.766   3.161
70367W        W38785  15.159   9.654   3.312
70368W        W38786  42.311  18.114   0.849
70369W        W38787   9.166   4.440   4.831
70370W        W38788  26.977  33.036  10.887
70371W        W38789  22.741   2.774   0.937
70372W        W38790   4.256  36.978  13.902
70373W        W38791  27.169  15.720   2.414
70374W        W38792  13.639  31.581   3.274
70375W        W38793  22.248  42.970  11.914
70376W        W38794  37.445  25.713   2.715
70377W        W38795  10.196  36.538  11.938
70378W        W38796  31.498  36.471   1.749
70379W        W38797  14.287  15.137   0.460
70380W        W38798  19.072  24.229  10.578
70381W        W38799  36.978  27.137  11.121
70382W        W38800  36.962  28.515  12.574
70383W        W38801  31.983  18.274   0.369
70384W        W38802  29.515  19.275  14.764
70385W        W38803  26.069  22.643   3.694
70386W        W38804   1.813  29.023  11.889
70387W        W38805  35.031   8.312  14.497
70388W        W38806   5.921  26.689  13.039
70389W        W38807  16.796  16.113  14.962
70390W        W38808  34.083  43.282   0.946
70391W        W38809  38.954  31.508  10.942
70392W        W38810  41.930  38.570  12.551
70393W        W38811   4.421  24.004   0.729
70394W        W38812  17.615   9.257  12.839
70395W        W38813  28.186  43.418   1.247
70396W        W38814  29.504  30.159  13.991
70397W        W38815  34.443  33.526   1.891
70398W        W38816  42.852  41.876   2.392
70399W        W38817  11.665  29.605   2.777
70400W        W38818  38.920  23.240  11.936
70401W        W38819   8.398  32.026  12.468
70402W        W38820  43.873  41.532   1.805
70403W        W38821  23.237  40.891   0.432
70404W        W38822  16.237  35.970  10.511
70405W        W38823  28.127   5.841  14.904
70406W        W38824  26.554  15.304  11.539
70407W        W38825  25.680  37.394  14.909
70408W        W38826  16.751  43.418   0.959
70409W        W38827  27.940  15.584   2.711
70410W        W38828  33.936  30.986  14.399
70411W        W38829  29.445  41.346   4.254
70412W        W38830   8.367  13.734  14.853
70413W        W38831   0.799   6.304  11.049
70414W        W38832   8.749  15.748  10.592
70415W        W38833   4.838  17.087   4.630
70416W        W38834  11.860  13.671  13.366
70417W        W38835  43.495  40.515  10.950
70418W        W38836   7.842  32.549  10.616
70419W        W38837   6.821  33.027  14.296
70420W        W38838  22.108   6.730   2.817
70421W        W38839  39.415  39.809  14.909
70422W        W38840  12.851   5.769   4.605
70423W        W38841  15.655  34.023  13.510
70424W        W38842  16.275  30.577   0.351
70425W        W38843  10.345  26.548   5.307
70426W        W38844  36.849  21.741   2.811
70427W        W38845  37.416  32.401   2.367
70428W        W38846  41.932  10.723  10.624
70429W        W38847  37.408   1.277   2.359
70430W        W38848   6.890  29.961  13.321
70431W        W38849  25.972   2.781  14.014
70432W        W38850  16.076  19.739  11.981
70433W        W38851   0.408  23.562   4.726
70434W        W38852   9.858  18.573   4.311
70435W        W38853  38.333  29.594   2.891
70436W        W38854  33.032  27.055  14.993
70437W        W38855  10.156  44.940   0.311
70438W        W38856  29.082   9.161   2.864
70439W        W38857  13.809  43.375  12.004
70440W        W38858  26.692  22.507  12.456
70441W        W38859  27.075  27.044  14.978
70442W        W38860  33.533  16.700   0.284
70443W        W38861  19.591  44.794   2.701
70444W        W38862  18.676  40.453   0.938
70445W        W38863   3.401  34.970   0.838
70446W        W38864  17.643  29.012   4.699
70447W        W38865   8.661  11.213   4.245
70448W        W38866  43.341  25.625   4.632
70449W        W38867   9.205  30.137  11.580
70450W        W38868  36.416  22.045  11.107
70451W        W38869  43.824   7.720  13.060
70452W        W38870  28.122  33.928   1.387
70453W        W38871   5.692  19.640   4.128
70454W        W38872  37.871  26.623  12.919
70455W        W38873  11.646  18.165   2.373
70456W        W38874  31.577  20.660  14.808
70457W        W38875  24.999   6.882   3.365
70458W        W38876  17.190  32.452  14.905
70459W        W38877  18.748  29.661  12.876
70460W        W38878   6.235  39.843   2.398
70461W        W38879  14.246  26.043  13.822
70462W        W38880  43.780  18.213   1.425
70463W        W38881  30.485  12.161  14.471
70464W        W38882   6.713  18.079  12.373
70465W        W38883  10.165  40.302  12.839
70466W        W38884  34.121  16.600   0.851
70467W        W38885  18.233   4.867   3.298
70468W        W38886  11.239  14.809   2.708
70469W        W38887   4.897   9.684   0.246
70470W        W38888  11.731  40.417  14.915
70471W        W38889   5.772  38.371   2.668
70472W        W38890  21.670  20.741   1.812
70473W        W38891  32.120  34.583   1.396
70474W        W38892  37.009  37.561   4.736
70475W        W38893   9.369  25.984   1.873
70476W        W38894   9.710  44.784  14.478
70477W        W38895  41.862  17.264   0.946
70478W        W38896  27.564   9.709  14.370
70479W        W38897  22.179  31.542   3.309
70480W        W38898  17.563  16.744   3.788
70481W        W38899  23.186   1.445  10.533
70482W        W38900  44.938   7.284  11.994
70483W        W38901  14.127  40.308  14.857
70484W        W38902  10.867  44.923  13.993
70485W        W38903  33.997   8.319  14.862
70486W        W38904   0.893  16.597   2.837
70487W        W38905   8.813   1.278   4.653
70488W        W38906  28.444  40.400  13.986
70489W        W38907  19.535  20.037   5.173
70490W        W38908  14.773  29.059   4.737
70491W        W38909  26.167  34.020  14.356
70492W        W38910  28.514   4.358  14.395
70493W        W38911  22.030   7.218  14.768
70494W        W38912  13.699  35.441   4.754
70495W        W38913  35.594  37.414   3.224
70496W        W38914  14.656   9.866  11.544
70497W        W38915   8.856   6.240  11.945
70498W        W38916   5.786   7.791  13.843
70499W        W38917  36.476  31.416  11.474
70500W        W38918  24.057   6.851   3.367
70501W        W38919  35.562  17.098   4.618
70502W        W38920  31.589  20.146  11.085
70503W        W38921  31.605  29.123   0.312
70504W        W38922  17.283  18.263   1.738
70505W        W38923   1.962  26.057  11.002
70506W        W38924   8.819   1.390  14.011
70507W        W38925  42.341  26.042  12.911
70508W        W38926   2.240  38.975   2.337
70509W        W38927   8.342  22.607   2.867
70510W        W38928  18.764  21.127  14.437
70511W        W38929   6.312  31.503  10.502
70512W        W38930  14.110  36.865  13.414
70513W        W38931  27.469   4.281   4.670
70514W        W38932  20.524  15.240  14.009
70515W        W38933  20.135  12.622   2.344
70516W        W38934  44.778  26.988  14.954
70517W        W38935   4.289  23.231  11.481
70518W        W38936  20.548  36.842   0.409
70519W        W38937  25.162   7.837   2.673
70520W        W38938  42.959   0.447  14.915
70521W        W38939  32.405  10.338   2.288
70522W        W38940  19.060   5.336  12.933
70523W        W38941  33.455  34.610   1.733
70524W        W38942  18.669  28.542  10.544
70525W        W38943   8.724  36.842  10.936
70526W        W38944  20.243  38.883   4.217
70527W        W38945  30.628  16.199  12.003
70528W        W38946  18.208  36.393  13.481
70529W        W38947   9.220  39.028   1.232
70530W        W38948  30.955  13.814   0.303
70531W        W38949  29.600  44.857  13.840
70532W        W38950  44.008   2.856   3.273
70533W        W38951  16.223  22.122  13.939
70534W        W38952  25.589   0.858  12.441
70535W        W38953   1.436  19.238  10.961
70536W        W38954  34.372  10.674  14.848
70537W        W38955  26.194  33.008  12.916
70538W        W38956   7.883  38.827   1.401
70539W        W38957  28.994  42.954   4.186
70540W        W38958  25.509  26.980  11.054
70541W        W38959  44.411  39.811   2.892
70542W        W38960  13.602  17.269   3.192
70543W        W38961  40.905  10.811  14.348
70544W        W38962   3.896   5.687   3.315
70545W        W38963   9.179  29.103  14.449
70546W        W38964   5.889   0.381   3.199
70547W        W38965  37.558  31.405  12.004
70548W        W38966  40.304  42.363  13.012
70549W        W38967  37.000  32.598   3.686
70550W        W38968  31.069  24.479   4.256
70551W        W38969  42.450  41.304   5.231
70552W        W38970   1.392  34.413  13.530
70553W        W38971  12.848   1.905   2.284
70554W        W38972  39.009  33.398   2.684
70555W        W38973  32.099  30.528   3.251
70556W        W38974  21.093  17.579  13.979
70557W        W38975  34.979  31.950   4.771
70558W        W38976  39.340  36.473   2.799
70559W        W38977  10.277  41.838  11.389
70560W        W38978  43.827  16.600   3.345
70561W        W38979   3.380   0.821  11.855
70562W        W38980  19.777  36.989   1.743
70563W        W38981  38.831  37.895   0.727
70564W        W38982  15.219  19.563  12.075
70565W        W38983   8.766  27.496   2.662
70566W        W38984   8.822  17.171  13.895
70567W        W38985  25.110  36.487   1.319
70568W        W38986  33.599  16.315  10.999
70569W        W38987   0.898  13.259   0.400
70570W        W38988  28.167  32.994  13.048
70571W        W38989  39.419  18.279   2.324
70572W        W38990  37.437  12.842   0.949
70573W        W38991  40.532  24.642   4.812
70574W        W38992   2.946  38.342   3.722
70575W        W38993  29.995  21.138  10.643
70576W        W38994  26.146  43.866   3.822
70577W        W38995   0.848  18.081   1.329
70578W        W38996  12.819   0.935   0.428
70579W        W38997  22.554  42.930  14.325
70580W        W38998  25.146  38.973   4.312
70581W        W38999  17.585   1.293   3.275
70582W        W39000  12.253   1.811   0.946
70583W        W39001  34.867   9.286   3.176
70584W        W39002  29.589   8.277  10.445
70585W        W39003  15.273   4.338  13.874
70586W        W39004  15.673  15.613   0.328
70587W        W39005   8.691  40.946  11.021
70588W        W39006  19.256  21.742  12.351
70589W        W39007  22.058   6.755   4.651
70590W        W39008  35.470  18.549  11.124
70591W        W39009  17.266   5.237  10.072
70592W        W39010   5.244  33.881  10.896
70593W        W39011  20.146  12.701   2.842
70594W        W39012   3.951  29.090  14.297
70595W        W39013   2.381  31.119  13.512
70596W        W39014  21.257   6.278   0.482
70597W        W39015  20.192  18.136  13.330
70598W        W39016   6.859   0.362   3.203
70599W        W39017   0.449  42.354   4.332
70600W        W39018  32.580  40.377   1.772
70601W        W39019  30.460   8.328  12.465
70602W        W39020  25.680  12.146   3.639
70603W        W39021   6.735  26.663   4.329
70604W        W39022  30.107  19.674   0.408
70605W        W39023  33.585  44.855   3.662
70606W        W39024  41.033  38.823   2.856
70607W        W39025   0.438  33.937   3.237
70608W        W39026   3.861  26.688   3.786
70609W        W39027  35.916  10.640   1.932
70610W        W39028  14.267   6.365  11.109
70611W        W39029  36.865  35.424  13.893
70612W        W39030  17.131  33.607   1.346
70613W        W39031  27.996  19.056  14.809
70614W        W39032   6.212  33.054  13.483
70615W        W39033  38.483   8.259   2.884
70616W        W39034  38.937  30.613   3.248
70617W        W39035  25.705  32.556  11.866
70618W        W39036   7.783  28.523   1.908
70619W        W39037  23.107  32.597   3.262
70620W        W39038  11.189  19.712  10.625
70621W        W39039  13.626  29.957   3.711
70622W        W39040  38.956  43.861  13.325
70623W        W39041  13.215   4.936  12.053
70624W        W39042  34.880  19.665   9.926
70625W        W39043  43.503   2.275  12.047
70626W        W39044  40.313  26.651  10.084
70627W        W39045   2.321  20.244  11.458
70628W        W39046  23.193  41.502   3.727
70629W        W39047  32.588   9.775  13.962
70630W        W39048  23.541  30.499  14.014
70631W        W39049  43.462  38.428  11.485
70632W        W39050  31.064  25.163  10.947
70633W        W39051  23.107  19.614   1.866
70634W        W39052  40.383  33.602  13.820
70635W        W39053  15.106  26.130  13.490
70636W        W39054   1.762  17.771   4.664
70637W        W39055  23.508  42.899   4.182
70638W        W39056  35.943  35.498   0.333
70639W        W39057  33.033   9.352   3.163
70640W        W39058  24.020  32.056  12.007
70641W        W39059   4.706  19.187   5.318
70642W        W39060  43.343  24.500   3.209
70643W        W39061  42.786  37.912  11.864
70644W        W39062  19.148  17.710   4.143
70645W        W39063   4.922  21.053   4.246
70646W        W39064  24.698  24.983  11.986
70647W        W39065   7.331   5.410  12.960
70648W        W39066  30.123  28.953  10.426
70649W        W39067  28.544  38.553   3.181
70650W        W39068   1.815  33.412   4.601
70651W        W39069  19.605  23.087  10.504
70652W        W39070   8.165  34.031  11.022
70653W        W39071  40.965   8.270   4.833
70654W        W39072  14.696  17.124  14.283
70655W        W39073  42.898  34.007  11.057
70656W        W39074   1.301  14.765  13.547
70657W        W39075  41.332  15.591  14.298
70658W        W39076  23.553  27.039  14.791
70659W        W39077   9.365  24.128  11.116
70660W        W39078  33.942   2.803   4.155
70661W        W39079  16.127  37.911  10.541
70662W        W39080  41.344  39.385   2.737
70663W        W39081   0.434  30.472   0.845
70664W        W39082  16.095   5.861  14.381
70665W        W39083  43.925  44.412   2.683
70666W        W39084  19.689  29.062   1.711
70667W        W39085  12.276   3.242   1.305
70668W        W39086   7.219  44.378  10.505
70669W        W39087   8.672  29.120  13.037
70670W        W39088   9.224   5.921  11.571
70671W        W39089   6.748  17.226  13.523
70672W        W39090  16.257   3.443  14.030
70673W        W39091  44.965   0.986  11.551
70674W        W39092  33.449  35.042  12.045
70675W        W39093  19.054  10.259  11.860
70676W        W39094  34.000  35.365  13.448
70677W        W39095  36.044  32.412  11.017
70678W        W39096  16.241  14.690   0.296
70679W        W39097  18.159   3.292   1.251
70680W        W39098  20.760  22.231   1.238
70681W        W39099  31.139   0.876   4.816
70682W        W39100  38.056  10.864  12.572
70683W        W39101   6.795  14.130   0.962
70684W        W39102  10.329   7.828  12.408
70685W        W39103  30.644  32.986   2.341
70686W        W39104   6.400   7.226  14.994
70687W        W39105  39.337  38.540   4.208
70688W        W39106  16.151  14.740  11.886
70689W        W39107  28.594  20.229  12.095
70690W        W39108   1.331  39.377  13.955
70691W        W39109  20.100   8.754   1.322
70692W        W39110   6.383   3.750   3.724
70693W        W39111  42.341   7.786  11.465
70694W        W39112   6.724  29.439  13.044
70695W        W39113   1.378  20.167   3.265
70696W        W39114  13.186   7.881  14.325
70697W        W39115  14.201  37.485  12.507
70698W        W39116  39.851  18.088   0.928
70699W        W39117  33.000  25.051   0.330
70700W        W39118  42.463  22.216  14.769
70701W        W39119  22.105  40.446  11.921
70702W        W39120   7.798   2.356  11.598
70703W        W39121  39.947  44.846  14.368
70704W        W39122  43.507  30.521  11.095
70705W        W39123   3.917  44.323  12.871
70706W        W39124  29.473   3.385   2.791
70707W        W39125  11.309  19.234  12.903
70708W        W39126   7.890   1.371   4.813
70709W        W39127  22.671   9.861  13.535
70710W        W39128  13.662  13.187   1.900
70711W        W39129  17.794   2.916   0.310
70712W        W39130  28.642  28.520   0.430
70713W        W39131  40.948   6.189   0.835
70714W        W39132  27.995  36.992  13.008
70715W        W39133  40.976   6.726  10.465
70716W        W39134   1.912  30.005   2.866
70717W        W39135  20.085   0.462  14.826
70718W        W39136   4.376  41.484   3.304
70719W        W39137  12.184  38.833  14.900
70720W        W39138  10.378  29.573   5.113
70721W        W39139   9.274  44.446   1.321
70722W        W39140  37.909  35.020   4.258
70723W        W39141   2.859   7.383   2.771
70724W        W39142  15.614  11.791  11.959
70725W        W39143   8.729  41.421   3.728
70726W        W39144  13.793  21.170   2.747
70727W        W39145  36.076   9.212   0.751
70728W        W39146  25.144   4.855  14.964
70729W        W39147  21.711  40.546  13.904
70730W        W39148  24.031   4.718   1.241
70731W        W39149  24.076  23.067  11.033
70732W        W39150  13.264  30.003   1.895
70733W        W39151  13.149   1.916   2.840
70734W        W39152  18.721  37.074  11.089
70735W        W39153  44.910  13.217  10.055
70736W        W39154   2.731  33.985   2.767
70737W        W39155   1.828  28.548  14.494
70738W        W39156  34.910  10.870   1.872
70739W        W39157  16.133   8.294  11.579
70740W        W39158   2.304  36.006   2.258
70741W        W39159  10.160   7.901   4.293
70742W        W39160  17.293  11.777  11.109
70743W        W39161   8.394   0.968  14.341
70744W        W39162   8.311  22.618   1.707
70745W        W39163  25.106  11.852  14.346
70746W        W39164  27.482  29.128  14.960
70747W        W39165  24.674  41.939   0.802
70748W        W39166  36.901  39.838  13.028
70749W        W39167  22.169  39.394  11.996
70750W        W39168  19.191  35.413   2.794
70751W        W39169  13.824   2.797  14.014
70752W        W39170  27.198  13.809   0.324
70753W        W39171  33.594  15.108  14.968
70754W        W39172  39.392  25.469   0.912
70755W        W39173   8.322  30.102   4.695
70756W        W39174  39.892  16.148   1.758
70757W        W39175  38.921  12.638  11.104
70758W        W39176   0.840  34.017  13.444
70759W        W39177  17.151  17.143   1.718
70760W        W39178  12.737  30.530  11.906
70761W        W39179  26.110   2.264  12.551
70762W        W39180  14.597  21.251   1.242
70763W        W39181  40.533   2.807   4.172
70764W        W39182  10.666  35.866  13.872
70765W        W39183  19.618   4.255  12.075
70766W        W39184  39.493  41.003   3.864
70767W        W39185  41.346   0.459  14.001
70768W        W39186  28.566  43.323  12.901
70769W        W39187  38.855  33.504   3.678
70770W        W39188  19.217  23.641  14.966
70771W        W39189  17.222   0.472   3.701
70772W        W39190  25.706  16.086   1.896
70773W        W39191  23.526  24.639   0.245
70774W        W39192  28.139  34.046  12.414
70775W        W39193   9.868  28.561  12.844
70776W        W39194  16.798   8.832  13.924
70777W        W39195   6.831  39.053   3.808
70778W        W39196   7.668  15.201  14.887
70779W        W39197  32.989  21.065  14.800
70780W        W39198  42.498   7.685  14.883
70781W        W39199   0.969  22.058   1.385
70782W        W39200  43.298  22.592  11.123
70783W        W39201   4.742  27.961  13.342
70784W        W39202  19.145  11.830   1.900
70785W        W39203   5.348  12.253   2.778
70786W        W39204  38.073  23.673  14.287
70787W        W39205  30.574  29.477   1.303
70788W        W39206  42.831  14.805   1.775
70789W        W39207  34.887  24.666   0.314
70790W        W39208  44.862  13.747   4.299
70791W        W39209   3.422  12.303   0.303
70792W        W39210  33.926  16.678  13.015
70793W        W39211   6.200  20.602   0.789
70794W        W39212  36.899  37.490  12.415
70795W        W39213  25.617  19.249  13.979
70796W        W39214  24.560  23.193   3.194
70797W        W39215  25.128  16.683  14.432
70798W        W39216   6.311   4.793  12.419
70799W        W39217   9.834   1.765  13.537
70800W        W39218  28.673  34.985   1.896
70801W        W39219  29.431   6.832  12.440
70802W        W39220  27.122  19.609   0.455
70803W        W39221  42.454   5.914   0.454
70804W        W39222  37.055  10.725   4.186
70805W        W39223  40.327  18.620   0.793
70806W        W39224  20.181  25.527   3.691
70807W        W39225  20.274  36.982   2.716
70808W        W39226   8.222  33.582  12.524
70809W        W39227  34.980  42.290   0.902
70810W        W39228  14.099  23.699  11.038
70811W        W39229  28.554  44.008  14.884
70812W        W39230  28.993  30.532   0.954
70813W        W39231  11.748   9.159  14.314
70814W        W39232   2.722  28.963   3.173
70815W        W39233  31.535  34.428   0.341
70816W        W39234  15.245  37.451   1.245
70817W        W39235   3.326   1.249   3.699
70818W        W39236  28.512  19.065   4.691
70819W        W39237   5.343  19.574   4.209
70820W        W39238  40.415  26.024  13.392
70821W        W39239  30.650   7.411   0.844
70822W        W39240  19.061  29.654  10.503
70823W        W39241  20.596  39.948  10.562
70824W        W39242  38.911  12.173  11.989
70825W        W39243  20.698  19.619  11.975
70826W        W39244  13.349  14.644  10.437
70827W        W39245  39.941   5.350   3.761
70828W        W39246  40.423   2.463   2.306
70829W        W39247  18.588  20.066  12.398
70830W        W39248  44.755   0.442  10.546
70831W        W39249   9.331  17.623   0.913
70832W        W39250  31.647   8.744  11.052
70833W        W39251   3.359  31.026   0.479
70834W        W39252  15.195   1.371  12.896
70835W        W39253  16.154   6.753  13.027
70836W        W39254  34.417  34.484  11.929
70837W        W39255  13.117  41.328   4.151
70838W        W39256   8.232  31.074  10.563
70839W        W39257  35.008  34.600   3.317
70840W        W39258  12.272  30.015   3.353
70841W        W39259   9.652   2.746  10.971
70842W        W39260  39.349   4.349  14.950
70843W        W39261  25.672  24.694  12.907
70844W        W39262   9.889  36.908   0.465
70845W        W39263  43.428  24.095   1.931
70846W        W39264  29.161  12.335  13.817
70847W        W39265   3.340  23.627  13.809
70848W        W39266  36.575  39.987   2.789
70849W        W39267  43.315   9.246  14.296
70850W        W39268  15.298  41.931   0.319
70851W        W39269  17.304  16.309  12.519
70852W        W39270  20.171  29.027   5.319
70853W        W39271  22.726  25.674  11.888
70854W        W39272   9.251  13.813   1.733
70855W        W39273  37.582  15.671   3.348
70856W        W39274   0.464  21.162   3.827
70857W        W39275  19.274   0.847  12.916
70858W        W39276  43.001  20.639  10.050
70859W        W39277  37.882  43.849  11.567
70860W        W39278   3.793  19.183   0.849
70861W        W39279  18.787  14.719  11.122
70862W        W39280  19.209   9.688   0.893
70863W        W39281  24.643  28.636   1.299
70864W        W39282  18.277   3.353  14.949
70865W        W39283   9.728  28.444   3.166
70866W        W39284  23.158   0.461  14.946
70867W        W39285  14.692  29.071  13.933
70868W        W39286  37.959  14.199  12.375
70869W        W39287  29.560  35.487   2.370
70870W        W39288  36.982  14.108   1.378
70871W        W39289  30.006  40.949   0.746
70872W        W39290   4.292  26.995   1.397
70873W        W39291  21.758  35.015   3.837
70874W        W39292   9.674  31.507  11.927
70875W        W39293  19.261  23.685   5.625
70876W        W39294   2.280  16.685   1.919
70877W        W39295   3.461  24.022  12.559
70878W        W39296  12.692  23.584  13.539
70879W        W39297  29.947  44.371  14.398
70880W        W39298   1.949   3.437  12.959
70881W        W39299  10.754   8.746   4.694
70882W        W39300  10.868  17.615  12.049
70883W        W39301   4.711  30.627  11.023
70884W        W39302  39.972   4.224  14.833
70885W        W39303  34.909  26.619  14.498
70886W        W39304  43.338  15.659   4.243
70887W        W39305   9.276  39.898  12.037
70888W        W39306  31.645  33.506  14.999
70889W        W39307   4.852  10.741  13.387
70890W        W39308  34.081  40.354  12.412
70891W        W39309  27.626  27.038   0.369
70892W        W39310  21.627   3.354   2.859
70893W        W39311   4.245  42.899   4.122
70894W        W39312  26.964   4.257  13.960
70895W        W39313   1.474  13.129   3.162
70896W        W39314  19.063  12.645  11.929
70897W        W39315  30.154  37.911  14.903
70898W        W39316   0.839  30.488  11.567
70899W        W39317  14.632   9.889  13.949
70900W        W39318  30.614  21.160  14.907
70901W        W39319  42.388  31.536  14.008
70902W        W39320  40.850  25.962   0.754
70903W        W39321  44.353  39.043  13.861
70904W        W39322  41.880  29.027   0.334
70905W        W39323  21.243   2.932   4.838
70906W        W39324  15.633   7.188   9.481
70907W        W39325  39.915   0.832  12.831
70908W        W39326   2.236  29.573   4.339
70909W        W39327  31.441  16.123   4.167
70910W        W39328  39.331  20.170   2.686
70911W        W39329  23.132   7.316  12.365
70912W        W39330   4.424   6.896  13.915
70913W        W39331  27.691  33.062   4.171
70914W        W39332  43.776  40.939   5.098
70915W        W39333  41.967  24.164   0.809
70916W        W39334   5.338   2.785  10.944
70917W        W39335  37.864  32.889   0.392
70918W        W39336  43.496  17.606  14.916
70919W        W39337  11.719  17.612  14.814
70920W        W39338   4.259  36.354  13.027
70921W        W39339   3.369  18.131  12.422
70922W        W39340  28.015   8.346   0.297
70923W        W39341  30.603  41.391   4.341
70924W        W39342  33.978  37.078   0.850
70925W        W39343  16.173  11.183  13.953
70926W        W39344  25.121   3.936  11.998
70927W        W39345  15.286  33.004   4.178
70928W        W39346  42.895  11.212   5.681
70929W        W39347   4.306   9.341   1.734
70930W        W39348  34.453  25.619   1.303
70931W        W39349  42.429  15.807   1.860
70932W        W39350  16.586  25.598  11.947
70933W        W39351   2.947  40.335   4.629
70934W        W39352  32.410  32.494   0.253
70935W        W39353  16.729   1.388  10.640
70936W        W39354  12.198   8.242  12.449
70937W        W39355  27.954  21.154   1.805
70938W        W39356  44.849  11.170   5.303
70939W        W39357  28.930  15.685   3.366
70940W        W39358   5.256  16.740   2.373
70941W        W39359   9.295   5.769  13.411
70942W        W39360  10.870  35.370  14.438
70943W        W39361  25.990  32.083   2.362
70944W        W39362  33.590   0.378   0.336
70945W        W39363  24.575  25.085  11.448
70946W        W39364  17.190  36.951  10.622
70947W        W39365   5.696   5.691   4.296
70948W        W39366  32.959  26.700  14.809
70949W        W39367  37.389  32.030  13.036
70950W        W39368   3.769  43.888   2.194
70951W        W39369  19.734  43.324   0.433
70952W        W39370  19.660   9.682  10.519
70953W        W39371  28.483  24.012   3.288
70954W        W39372  14.697  27.670  13.989
70955W        W39373  23.659  25.154  13.994
70956W        W39374   0.356  33.924   2.816
70957W        W39375  28.182   5.728   1.895
70958W        W39376  44.374  33.526   5.298
70959W        W39377  40.533   7.853  14.930
70960W        W39378  22.158   1.799  14.492
70961W        W39379  23.194  41.464   5.220
70962W        W39380  14.183   7.772   4.696
70963W        W39381  38.927   9.775   2.728
70964W        W39382  13.616  34.063  11.940
70965W        W39383  30.004  34.381  10.612
70966W        W39384  30.966  41.375  11.050
70967W        W39385  36.031  38.939   9.938
70968W        W39386  15.202  37.464   3.811
70969W        W39387  18.725  25.175   2.764
70970W        W39388  24.566   3.878   1.346
70971W        W39389  31.037   4.405  12.486
70972W        W39390  25.603  31.633  13.446
70973W        W39391  13.681   3.843  11.568
70974W        W39392   1.800   8.196   2.831
70975W        W39393  12.351   0.793   0.868
70976W        W39394  40.546  35.481  11.046
70977W        W39395  10.341  18.286   4.330
70978W        W39396  21.731  20.629   2.194
70979W        W39397  18.227  34.052  12.038
70980W        W39398  22.995  41.307  10.001
70981W        W39399  32.415  24.601  13.805
70982W        W39400  41.035  25.552   3.651
70983W        W39401  12.247   5.787  13.461
70984W        W39402  10.259  41.790   3.294
70985W        W39403  26.499  20.672   2.398
70986W        W39404  24.075   5.252  12.949
70987W        W39405  29.990  28.184   4.335
70988W        W39406  23.097   4.805  14.299
70989W        W39407  27.503  18.642   4.736
70990W        W39408  40.924  30.151  14.893
70991W        W39409  28.479  37.515   4.258
70992W        W39410  23.215  26.617  11.072
70993W        W39411  39.924   6.887   4.659
70994W        W39412  22.085   6.878   0.903
70995W        W39413  33.882  37.893   5.208
70996W        W39414  20.680  13.785   0.772
70997W        W39415  33.023  20.265  13.858
70998W        W39416  19.598  25.662  10.100
70999W        W39417  18.089  26.180   1.249
71000W        W39418  42.333  10.852   0.764
71001W        W39419  26.660  24.218   0.733
71002W        W39420   5.425  44.265  12.429
71003W        W39421  34.446  43.945   0.274
71004W        W39422  26.032   5.438   1.308
71005W        W39423  19.740  18.293  12.055
71006W        W39424   4.796  11.285   0.765
71007W        W39425  10.644  22.181  14.514
71008W        W39426   3.873   3.739   4.706
71009W        W39427  35.864  10.676  12.863
71010W        W39428  29.935   6.752   2.406
71011W        W39429  36.583  13.654  13.458
71012W        W39430  11.844  27.131  10.442
71013W        W39431  16.082  22.233  13.356
71014W        W39432   2.373   3.262  10.582
71015W        W39433  10.167  21.580  13.872
71016W        W39434  11.243   3.224   0.368
71017W        W39435   4.738  39.014   1.832
71018W        W39436  17.292  42.828   1.829
71019W        W39437  18.565  38.389  14.414
71020W        W39438   0.344  32.624  12.449
71021W        W39439  15.809   2.846  13.885
71022W        W39440  29.468   5.820   0.287
71023W        W39441  12.206  24.068  12.366
71024W        W39442  11.355  23.650  10.531
71025W        W39443  13.753  37.344   3.682
71026W        W39444  30.944  18.643  13.917
71027W        W39445  13.220  44.007   0.426
71028W        W39446  12.206  26.969  13.468
71029W        W39447  25.052  19.654   4.332
71030W        W39448  16.725   0.292   4.792
71031W        W39449  12.261  31.983  10.032
71032W        W39450  12.329  10.800  13.009
71033W        W39451  34.428  29.442  12.977
71034W        W39452  26.084  17.765   4.725
71035W        W39453  17.606   5.755  12.370
71036W        W39454  22.164   0.410  10.457
71037W        W39455  13.837  29.618   0.290
71038W        W39456  18.639   9.295  10.567
71039W        W39457  18.147   9.810  14.305
71040W        W39458   0.857  14.111   2.829
71041W        W39459  34.965  43.003   0.291
71042W        W39460  25.674  16.110   4.619
71043W        W39461  44.859  42.402  14.795
71044W        W39462  36.091  15.726   4.243
71045W        W39463  18.744   9.857  12.409
71046W        W39464  10.313  19.161  14.341
71047W        W39465  41.407  18.193  11.863
71048W        W39466  12.350  39.492  11.951
71049W        W39467  40.535  29.120   1.222
71050W        W39468  17.760  38.365  12.417
71051W        W39469  26.016  13.344   2.827
71052W        W39470  31.064  34.003   4.633
71053W        W39471   0.784  20.095   3.770
71054W        W39472  10.297  34.098   3.769
71055W        W39473  43.853  17.247  11.882
71056W        W39474  29.003  22.152   4.280
71057W        W39475  12.747  44.855  12.351
71058W        W39476  30.493  39.866   1.212
71059W        W39477  44.404  38.843  10.930
71060W        W39478  17.787  40.851   4.321
71061W        W39479  23.672  22.189  13.809
71062W        W39480   3.794   9.872   1.742
71063W        W39481  41.972  32.004  14.862
71064W        W39482   0.909   8.351   1.855
71065W        W39483  19.199  32.104   1.825
71066W        W39484  14.638  33.531  11.103
71067W        W39485  25.557   2.726  13.540
71068W        W39486  42.889  12.688  11.462
71069W        W39487  23.723  33.041   2.349
71070W        W39488  28.580  13.797   2.411
71071W        W39489  11.808  37.067   1.272
71072W        W39490  39.381  35.552  14.432
71073W        W39491  40.889  22.557  14.782
71074W        W39492  30.526  28.553   2.225
71075W        W39493  17.099  32.547   2.731
71076W        W39494  40.432   4.777  14.324
71077W        W39495   0.966   7.844   0.897
71078W        W39496  16.810  12.323  10.635
71079W        W39497  19.179   1.852   3.830
71080W        W39498   4.865   2.854  11.443
71081W        W39499  33.098  28.023   4.669
71082W        W39500  15.187  40.402  13.009
71083W        W39501  14.107  21.022  14.959
71084W        W39502   1.824  40.015  10.628
71085W        W39503  17.586  32.084   2.383
71086W        W39504  34.563  17.744  14.973
71087W        W39505  36.420  17.214  14.477
71088W        W39506  43.003  41.929   3.274
71089W        W39507  36.896  32.912   3.851
71090W        W39508   9.817  20.655   4.137
71091W        W39509  43.391  42.903  11.967
71092W        W39510   7.905  17.571  10.550
71093W        W39511  21.675  14.116  12.035
71094W        W39512  16.714  14.804  12.071
71095W        W39513  29.065  36.073  11.082
71096W        W39514  30.087  25.567   3.845
71097W        W39515  33.072  22.024   2.293
71098W        W39516  32.431   1.947   4.672
71099W        W39517   1.920  17.622   0.308
71100W        W39518  17.266  30.456  11.902
71101W        W39519  38.987  44.293  12.547
71102W        W39520  29.950  35.913  11.490
71103W        W39521   5.307  11.686   4.824
71104W        W39522  10.340  34.987   0.834
71105W        W39523   0.316  24.584  12.002
71106W        W39524   7.774  16.716   0.828
71107W        W39525  41.312  33.124   0.922
71108W        W39526   5.819  38.342  13.909
71109W        W39527  25.629  33.465  12.941
71110W        W39528  19.185   3.760   3.681
71111W        W39529  25.064  30.575  14.997
71112W        W39530  28.558  24.481  11.871
71113W        W39531  11.757  43.896  10.973
71114W        W39532  18.691  36.492   4.786
71115W        W39533   9.342  11.288  14.298
71116W        W39534  35.947  13.636   1.917
71117W        W39535  35.513  33.536   3.370
71118W        W39536  36.591  13.791  12.923
71119W        W39537  30.990  33.976  12.461
71120W        W39538  37.956   7.362   3.205
71121W        W39539  34.372  36.518   3.229
71122W        W39540   7.777  37.412  12.473
71123W        W39541  28.537  32.011  14.882
71124W        W39542  10.314  18.115   1.374
71125W        W39543  25.101   6.219   2.283
71126W        W39544  44.826  25.096   4.271
71127W        W39545   9.876   0.338   0.461
71128W        W39546  12.358  41.319  10.441
71129W        W39547  10.829  44.434  10.979
71130W        W39548  13.689  15.765   0.301
71131W        W39549   9.343  35.897   3.870
71132W        W39550   6.298  38.859  10.120
71133W        W39551  42.462  18.694   2.820
71134W        W39552  19.557  43.276  10.471
71135W        W39553  31.065  15.702  13.391
71136W        W39554  23.142  34.498   1.889
71137W        W39555   0.871  41.342   4.799
71138W        W39556  26.147  18.078  10.479
71139W        W39557  22.649   8.197  10.589
71140W        W39558  19.780  29.981   3.351
71141W        W39559   0.773  25.204  11.960
71142W        W39560   4.437  30.478  11.016
71143W        W39561  42.373  29.589   4.650
71144W        W39562  31.043  28.936   2.713
71145W        W39563   4.942  26.045  13.515
71146W        W39564  24.106  24.997  14.479
71147W        W39565  15.275  18.237   0.315
71148W        W39566  10.829  44.773   0.367
71149W        W39567  23.128   5.906  13.452
71150W        W39568  27.486   1.239  13.496
71151W        W39569   8.383  43.500   2.230
71152W        W39570  19.212  31.550  13.947
71153W        W39571  36.931  38.358   5.169
71154W        W39572  36.506  15.277   3.702
71155W        W39573  13.820  40.419   2.880
71156W        W39574  11.766  27.093   1.907
71157W        W39575  24.989  18.189   0.747
71158W        W39576  15.675  12.361  13.454
71159W        W39577   1.913  30.948  12.839
71160W        W39578  39.544  27.979   0.888
71161W        W39579   0.319  26.458   2.672
71162W        W39580  24.195   0.826   5.160
71163W        W39581  20.167  22.672   3.176
71164W        W39582  29.443  27.473   1.255
71165W        W39583  23.584   8.262   1.227
71166W        W39584  11.251  11.256   2.689
71167W        W39585   8.697  25.978  14.864
71168W        W39586  43.489  13.678  14.330
71169W        W39587  33.389  10.327  10.994
71170W        W39588   5.824  34.120  10.959
71171W        W39589  17.723  10.370  14.304
71172W        W39590  17.724   4.341   4.821
71173W        W39591  35.048  20.189   4.171
71174W        W39592  43.784  12.685   0.872
71175W        W39593   9.365  14.234   1.736
71176W        W39594  22.636  24.635  11.579
71177W        W39595   3.329  42.885   2.829
71178W        W39596  28.168   6.760   1.919
71179W        W39597  42.357  20.733   0.905
71180W        W39598  33.398  12.658  12.501
71181W        W39599  34.980  25.468  11.601
71182W        W39600  15.692  34.381   0.894
71183W        W39601  35.943  43.781   4.265
71184W        W39602  10.658  35.034  11.380
71185W        W39603  32.626  18.259  10.436
71186W        W39604   5.308  25.576   4.802
71187W        W39605  24.699  19.657  11.606
71188W        W39606  32.112  16.608  10.497
71189W        W39607  26.529  41.424  14.456
71190W        W39608  32.036  10.844   3.858
71191W        W39609  41.437  11.654   0.925
71192W        W39610  27.483  16.711   0.927
71193W        W39611   4.804  44.817   4.785
71194W        W39612   5.344  43.465  11.028
71195W        W39613   1.909  15.674  11.924
71196W        W39614  42.990   6.327   4.638
71197W        W39615  32.058  40.859   2.178
71198W        W39616  35.427   3.340   4.127
71199W        W39617  10.175  34.120   1.750
71200W        W39618  10.199  23.031   4.314
71201W        W39619  21.636  24.070  12.870
71202W        W39620  21.160   7.358  11.004
71203W        W39621  34.913  24.118  12.366
71204W        W39622  20.624  23.552  11.924
71205W        W39623  38.982  15.764  14.952
71206W        W39624   5.271  35.100   0.424
71207W        W39625  16.568  37.365   4.133
71208W        W39626  43.942  22.623  13.884
71209W        W39627  16.289   6.238   2.201
71210W        W39628  31.641  41.028  11.099
71211W        W39629  32.588  17.162   0.400
71212W        W39630  36.394   3.366   2.340
71213W        W39631   7.901  15.735  14.794
71214W        W39632   3.937  19.230  13.805
71215W        W39633  11.187  20.133   3.343
71216W        W39634  26.690  34.522   9.974
71217W        W39635   0.410  10.856  10.540
71218W        W39636   3.946  12.240  13.847
71219W        W39637  26.191   3.397   1.763
71220W        W39638  17.252  35.031  12.495
71221W        W39639  11.659  12.828   2.230
71222W        W39640  37.465  13.273  10.427
71223W        W39641  27.637  43.841   3.214
71224W        W39642  26.005   0.260  12.489
71225W        W39643  21.171  32.037   1.850
71226W        W39644   9.802  16.185  13.369
71227W        W39645   6.403  39.439   2.369
71228W        W39646  32.925  42.901  14.454
71229W        W39647  19.151  18.141   4.768
71230W        W39648  26.650  13.809   4.228
71231W        W39649  24.631  22.066   3.852
71232W        W39650  32.974  35.597  13.805
71233W        W39651  29.114  17.618  10.556
71234W        W39652  37.551  24.089   5.091
71235W        W39653  16.737  18.050  10.954
71236W        W39654  13.274   8.383   3.680
71237W        W39655  22.702  10.301  12.951
71238W        W39656  28.471  25.126   4.274
71239W        W39657  30.557  19.685  13.452
71240W        W39658   7.235  25.187  13.019
71241W        W39659  37.463  14.209  14.942
71242W        W39660  22.592  39.971  13.379
71243W        W39661  38.044  25.474  13.438
71244W        W39662  38.965  41.996  12.050
71245W        W39663  22.160   7.337   3.226
71246W        W39664  34.567   3.955  11.095
71247W        W39665  43.917  31.534   4.764
71248W        W39666  14.798  38.535   1.934
71249W        W39667  16.664   3.806   3.863
71250W        W39668   7.731  16.567  11.482
71251W        W39669  35.562  23.208   4.599
71252W        W39670  37.871  19.103  11.885
71253W        W39671  36.430   5.810  12.554
71254W        W39672  11.837   5.758   4.698
71255W        W39673  38.995  32.545  12.579
71256W        W39674  39.890  28.620  11.463
71257W        W39675  27.464  39.963  12.046
71258W        W39676   6.219  25.602   4.164
71259W        W39677  13.210   6.301  14.858
71260W        W39678  13.136  12.718  14.377
71261W        W39679   9.718   0.861   0.815
71262W        W39680  11.758  35.461   3.243
71263W        W39681   4.391  38.849  12.530
71264W        W39682  38.328   2.821   3.383
71265W        W39683  28.073  19.557  10.088
71266W        W39684  24.618  31.134  11.033
71267W        W39685   4.755   9.706  10.572
71268W        W39686  19.684  41.940   4.250
71269W        W39687  31.955  36.360  14.891
71270W        W39688  31.063   9.890  14.412
71271W        W39689   4.442  17.577   2.713
71272W        W39690  41.037  11.347   2.401
71273W        W39691  27.191  20.754   3.673
71274W        W39692  10.674   4.248   0.384
71275W        W39693  30.552   2.740   4.703
71276W        W39694   9.161  33.966  11.576
71277W        W39695   6.376  38.431   3.666
71278W        W39696   3.373  17.137   2.845
71279W        W39697   0.799  12.673  13.498
71280W        W39698   1.837  22.116   3.206
71281W        W39699  35.570  30.091  12.993
71282W        W39700   6.689  28.186  14.277
71283W        W39701   4.767  10.641  11.933
71284W        W39702  40.377  28.091  14.472
71285W        W39703  42.508  29.662   1.884
71286W        W39704  22.577  13.293   3.348
71287W        W39705  41.537  23.017  10.623
71288W        W39706  44.997  36.097  14.406
71289W        W39707  27.197  35.455  13.837
71290W        W39708  43.483   4.206   4.724
71291W        W39709  24.083  43.421  14.331
71292W        W39710   6.369  43.351  14.279
71293W        W39711  21.615  33.874  10.450
71294W        W39712  34.046  15.784  12.989
71295W        W39713  15.655  36.372   2.386
71296W        W39714  29.961  34.863  10.910
71297W        W39715   0.764   3.273  10.631
71298W        W39716  41.409  40.475  12.838
71299W        W39717  38.442   5.904  14.014
71300W        W39718   0.440  29.499  10.576
71301W        W39719   2.826   1.759  10.945
71302W        W39720  15.322  36.434   0.269
71303W        W39721  35.414  36.421  13.862
71304W        W39722  33.530  43.802  14.361
71305W        W39723  38.974  21.070   2.389
71306W        W39724  29.008  16.277  12.514
71307W        W39725   5.239  43.971  14.382
71308W        W39726   4.304  23.223   2.215
71309W        W39727   9.786  35.504  14.793
71310W        W39728  34.428  28.157   1.758
71311W        W39729  25.016  39.478  10.492
71312W        W39730  42.328  16.161   4.670
71313W        W39731   2.310  12.793   0.277
71314W        W39732  28.012   4.767   4.324
71315W        W39733  25.596  15.685  12.564
71316W        W39734   2.408  44.770  11.515
71317W        W39735  34.898  15.679  12.899
71318W        W39736  36.488   9.393   4.313
71319W        W39737  32.021   8.364   1.756
71320W        W39738  44.367  26.082  14.477
71321W        W39739   9.168   3.770   1.343
71322W        W39740  19.128   5.423  10.551
71323W        W39741   7.233  31.036   4.189
71324W        W39742  28.539  43.334  11.575
71325W        W39743  29.537   1.933   9.964
71326W        W39744  30.524  15.797   3.381
71327W        W39745  27.176   9.182  11.957
71328W        W39746  10.273  42.326  13.837
71329W        W39747  40.984  24.719   0.383
71330W        W39748   3.302  37.883   1.221
71331W        W39749  29.131  11.317  13.809
71332W        W39750  38.460  41.450  14.316
71333W        W39751  19.048  44.298  13.364
71334W        W39752  44.450  32.434   4.198
71335W        W39753  32.614  35.983   4.752
71336W        W39754  30.088  24.571   2.212
71337W        W39755  44.914  24.717   0.950
71338W        W39756   0.826  32.542  12.409
71339W        W39757  35.547  37.899   4.172
71340W        W39758  17.748   3.445  12.043
71341W        W39759  32.972   5.433   0.738
71342W        W39760  18.744   4.759   1.907
71343W        W39761  17.785   3.792  14.841
71344W        W39762  37.080   7.270  14.441
71345W        W39763  24.029  43.351  11.899
71346W        W39764  11.309  31.588  12.010
71347W        W39765  13.785  29.535  14.346
71348W        W39766  39.476  10.288   0.388
71349W        W39767  12.119  17.675   2.802
71350W        W39768  31.916  19.653   4.281
71351W        W39769   3.242  26.018  10.628
71352W        W39770  37.001  43.299  10.615
71353W        W39771   4.397  39.025  11.056
71354W        W39772  30.518  22.717   3.770
71355W        W39773  19.735  32.394   3.682
71356W        W39774  44.977   1.906   1.404
71357W        W39775  15.161  40.022  13.434
71358W        W39776   3.298  12.323  11.901
71359W        W39777  37.920  42.974   4.829
71360W        W39778  19.171   4.233   2.261
71361W        W39779   6.737   9.833  12.031
71362W        W39780   0.408   1.789   1.300
71363W        W39781  22.217  37.337  12.930
71364W        W39782  31.460  23.674  11.919
71365W        W39783  25.631  44.774  14.943
71366W        W39784   9.709  35.388   0.953
71367W        W39785  15.176   1.266  12.382
71368W        W39786  21.576   4.380   3.384
71369W        W39787  38.023  31.917  11.010
71370W        W39788  28.557   6.204  10.496
71371W        W39789  44.340  41.509  12.866
71372W        W39790  19.268  19.550  14.791
71373W        W39791  34.600  43.013   0.269
71374W        W39792  17.760  19.544   3.839
71375W        W39793  40.848  12.636   3.198
71376W        W39794  10.681  42.379  11.491
71377W        W39795  24.680  42.465  12.342
71378W        W39796  10.312   5.925  10.889
71379W        W39797  27.570  12.657  13.336
71380W        W39798  31.577  43.416   2.411
71381W        W39799  39.440  41.997   4.115
71382W        W39800  31.950  34.024  14.972
71383W        W39801   7.841  40.887  10.981
71384W        W39802  34.408  35.031  14.877
71385W        W39803  44.410  18.690  12.952
71386W        W39804  28.949  36.350  14.988
71387W        W39805   9.673   6.683   4.810
71388W        W39806  12.615  23.071  13.332
71389W        W39807  22.515  10.190  12.552
71390W        W39808  20.665   7.213   0.310
71391W        W39809   8.175   0.892  13.981
71392W        W39810   4.320  31.945   3.772
71393W        W39811  21.132  20.187   5.197
71394W        W39812   8.792  43.405  13.308
71395W        W39813  10.182  31.429   4.718
71396W        W39814   9.826  30.121   2.290
71397W        W39815  17.092   1.921   3.775
71398W        W39816  21.673  11.779  10.511
71399W        W39817  23.165  37.002  11.914
71400W        W39818   8.898   8.196   2.898
71401W        W39819  20.704   5.257  11.389
71402W        W39820   3.948   7.291   0.784
71403W        W39821  14.743  26.156   0.314
71404W        W39822   0.757  20.673   2.762
71405W        W39823   4.320   3.306   3.152
71406W        W39824  41.028  18.617  14.887
71407W        W39825  19.546  21.227  13.332
71408W        W39826  12.706   8.294  11.955
71409W        W39827  36.092  15.657   3.318
71410W        W39828  25.021   3.881   2.335
71411W        W39829  18.764  25.022  14.431
71412W        W39830   1.931  13.664   4.185
71413W        W39831  28.582  38.326   4.597
71414W        W39832  31.027  35.556   2.237
71415W        W39833   5.409   5.779   0.345
71416W        W39834   3.297  15.741  10.905
71417W        W39835  34.039  38.394  12.875
71418W        W39836   9.229  42.843  10.056
71419W        W39837  19.568   0.366   1.251
71420W        W39838  38.899  34.072   1.805
71421W        W39839  17.566   9.662   0.402
71422W        W39840  43.818  11.754   3.362
71423W        W39841  13.166  16.198  10.600
71424W        W39842  37.484   9.847  13.529
71425W        W39843   5.820   2.878  12.546
71426W        W39844  18.631  43.382   3.369
71427W        W39845  16.669  10.196   4.116
71428W        W39846   3.350   0.485  12.096
71429W        W39847  14.141  25.976  13.497
71430W        W39848   1.242  10.855  13.335
71431W        W39849   6.189  14.600   1.802
71432W        W39850  22.554  30.155  11.422
71433W        W39851  35.028  38.442   3.638
71434W        W39852  29.435  40.969  13.825
71435W        W39853  28.673  42.825   2.405
71436W        W39854  16.214   1.908  12.550
71437W        W39855  14.627  12.281   3.847
71438W        W39856  10.853  33.884  11.599
71439W        W39857  36.397   1.753   4.347
71440W        W39858  44.830  37.497   0.780
71441W        W39859  11.725  43.890   1.446
71442W        W39860  44.938  38.896   2.379
71443W        W39861  12.196   3.789  13.017
71444W        W39862  39.993  15.309  10.506
71445W        W39863  27.987  34.438  13.905
71446W        W39864  39.551  23.654  13.510
71447W        W39865  10.205  15.681  12.097
71448W        W39866  33.547  38.879   4.835
71449W        W39867  11.623  15.116   3.705
71450W        W39868  16.698  26.504   1.855
71451W        W39869   9.264  29.173  12.837
71452W        W39870  42.300  41.924   4.628
71453W        W39871  40.036  35.421   4.307
71454W        W39872   9.731   2.340   2.342
71455W        W39873  37.400  27.040   0.793
71456W        W39874  41.002  33.551   4.284
71457W        W39875  32.094   0.989  10.998
71458W        W39876  41.878  19.621  13.950
71459W        W39877  35.085  34.451   4.251
71460W        W39878  38.489  30.944  11.545
71461W        W39879   2.722  21.547   5.632
71462W        W39880   1.368   9.890  11.498
71463W        W39881   8.784  21.612   0.818
71464W        W39882   8.300  32.049   1.878
71465W        W39883  15.225  18.105  10.529
71466W        W39884  28.154   0.895  14.353
71467W        W39885  26.966  10.855   0.935
71468W        W39886  29.063  15.717   1.720
71469W        W39887  35.106  37.025  14.891
71470W        W39888  13.710   6.861  13.036
71471W        W39889   3.423  28.941  13.456
71472W        W39890   4.380   4.944   0.898
71473W        W39891  39.314  36.925  11.443
71474W        W39892   4.425  22.087  13.879
71475W        W39893  40.936  26.483  14.910
71476W        W39894  28.956  13.238  14.337
71477W        W39895  31.087  21.222   4.718
71478W        W39896  28.130  39.544  14.883
71479W        W39897  16.119  15.102  10.409
71480W        W39898  24.975  39.924  10.989
71481W        W39899  10.748   6.896  11.023
71482W        W39900   7.772  36.498   4.197
71483W        W39901  17.296  30.042   1.841
71484W        W39902   3.331   9.845  13.034
71485W        W39903   4.825  16.203   5.258
71486W        W39904  31.923  10.709  13.820
71487W        W39905  40.405  34.586   2.760
71488W        W39906   0.977  37.517   4.741
71489W        W39907  12.333  41.829  14.859
71490W        W39908  41.960  43.354  14.433
71491W        W39909  24.696  20.077  11.991
71492W        W39910  33.553  31.026   4.834
71493W        W39911  39.812  40.407  13.421
71494W        W39912  19.542  29.593  13.528
71495W        W39913  22.057   5.382  14.016
71496W        W39914  35.014  19.772  13.385
71497W        W39915  36.861  30.580   3.766
71498W        W39916   8.355   6.284  10.942
71499W        W39917  22.601  13.141   4.789
71500W        W39918  17.648   4.840   0.762
71501W        W39919  25.600  44.868   1.308
71502W        W39920  12.286  16.587   3.176
71503W        W39921  34.539  34.982  12.953
71504W        W39922  11.806  17.720   4.318
71505W        W39923  16.316  31.912  11.980
71506W        W39924  16.724   1.358   1.402
71507W        W39925  22.687   0.389   1.326
71508W        W39926   6.205  13.626   2.345
71509W        W39927  14.717  43.442   2.778
71510W        W39928  14.288  26.604   3.845
71511W        W39929   5.249  18.659  13.358
71512W        W39930  18.084  14.830  10.892
71513W        W39931   5.227   4.836  14.316
71514W        W39932  16.150  15.817   2.270
71515W        W39933  31.973   1.466   2.259
71516W        W39934  26.459  13.147   1.807
71517W        W39935   1.870   0.338  10.513
71518W        W39936  12.236   1.861  12.505
71519W        W39937  34.015  27.619  11.887
71520W        W39938  42.858  41.892   0.290
71521W        W39939  43.384  31.985   3.770
71522W        W39940   9.691   9.352   3.147
71523W        W39941  14.232  19.189  14.942
71524W        W39942  38.914  10.198   2.753
71525W        W39943  30.154  30.036  11.375
71526W        W39944  24.569  39.430   0.960
71527W        W39945  19.635  39.996   1.866
71528W        W39946  12.692  28.960  12.073
71529W        W39947   2.892  28.962  14.359
71530W        W39948  43.808   8.766   4.285
71531W        W39949  23.521  44.462   3.283
71532W        W39950  38.403  44.947  12.407
71533W        W39951  18.079   1.758  10.952
71534W        W39952   8.829  31.027   0.939
71535W        W39953  28.468  33.025   4.756
71536W        W39954  34.041  29.116   2.677
71537W        W39955  36.546   8.265  14.018
71538W        W39956  10.256   8.743   4.818
71539W        W39957  28.015  12.716  11.506
71540W        W39958  14.220  21.236   0.426
71541W        W39959  44.363  12.188  11.407
71542W        W39960  15.290  38.058  14.843
71543W        W39961  12.136  33.964   3.182
71544W        W39962  17.074  31.576  13.892
71545W        W39963   7.841   4.344  10.466
71546W        W39964  36.969  19.716  12.453
71547W        W39965  17.291  25.175   1.220
71548W        W39966  21.637   4.806   9.960
71549W        W39967  12.297  16.276   4.337
71550W        W39968  20.532  21.149  14.415
71551W        W39969   4.247   6.899  14.872
71552W        W39970  32.118   3.823  10.459
71553W        W39971  14.280  37.519   3.300
71554W        W39972   5.762  22.642  10.465
71555W        W39973  42.947  11.642   0.480
71556W        W39974  29.497  34.614  11.116
71557W        W39975  30.131  19.619  11.435
71558W        W39976  38.911  35.514  14.822
71559W        W39977   1.879   1.815  11.612
71560W        W39978  26.965   4.753  11.448
71561W        W39979  29.657  16.584  12.409
71562W        W39980   8.801  28.056  12.454
71563W        W39981  43.471   1.916   3.690
71564W        W39982   8.237  23.734   3.656
71565W        W39983  12.149  42.283   1.296
71566W        W39984  36.514  42.516   0.470
71567W        W39985  16.791   6.786  14.988
71568W        W39986  17.092  16.149   4.262
71569W        W39987   4.747   1.244  14.391
71570W        W39988  42.320  21.108  11.546
71571W        W39989  32.411  23.003  13.854
71572W        W39990  31.111  16.781   3.342
71573W        W39991  20.604  11.779  14.375
71574W        W39992  19.043  39.001  10.592
71575W        W39993  29.603  33.014  13.326
71576W        W39994  39.431   6.830   2.270
71577W        W39995   4.273  22.201   3.712
71578W        W39996   7.217  43.870  12.906
71579W        W39997  16.608  39.523  12.958
71580W        W39998  27.498  41.903   3.845
71581W        W39999  39.558  39.502  14.446
71582W        W40000  42.867  23.109  11.526
71583W        W40001  21.580   9.203   0.773
71584W        W40002  25.991  40.447  10.542
71585W        W40003   4.839  40.948  13.996
71586W        W40004  43.923   5.383   3.662
71587W        W40005  17.157  41.469  13.400
71588W        W40006   0.490  30.512   3.314
71589W        W40007   8.709   8.745   1.754
71590W        W40008  20.049  20.173   1.392
71591W        W40009  31.989   7.313   3.734
71592W        W40010  20.761  40.032  11.394
71593W        W40011   3.441  33.923   3.862
71594W        W40012  13.315  22.535   5.221
71595W        W40013  40.878  24.594   4.775
71596W        W40014   4.302  23.489  12.876
71597W        W40015  37.937  39.018  10.141
71598W        W40016   4.815   1.964  10.056
71599W        W40017  28.148  10.779   4.156
71600W        W40018  33.541   0.767  14.481
71601W        W40019  14.319   9.255   4.164
71602W        W40020  32.123  26.456   4.176
71603W        W40021  42.390   8.874  14.324
71604W        W40022   8.361  28.533   3.376
71605W        W40023  41.914  23.561  10.582
71606W        W40024  43.882  11.766   5.789
71607W        W40025  31.411  35.442   3.784
71608W        W40026   2.226  13.727   3.204
71609W        W40027   4.401  27.140  11.927
71610W        W40028   1.813  27.570  13.521
71611W        W40029   8.171  24.527   3.654
71612W        W40030  28.458  19.229  10.923
71613W        W40031  10.342  30.117  11.892
71614W        W40032  10.689  16.286   3.204
71615W        W40033  27.498   0.425   4.254
71616W        W40034   9.878  39.014   0.832
71617W        W40035   5.399  20.090   0.290
71618W        W40036  14.173  28.088   0.257
71619W        W40037  20.604  10.758   3.266
71620W        W40038   5.199   1.805  13.945
71621W        W40039   1.759  21.061   2.214
71622W        W40040   8.864  18.670   0.792
71623W        W40041   8.350  38.882  12.563
71624W        W40042  19.256   1.291  12.078
71625W        W40043  37.028  23.068  11.054
71626W        W40044   5.347   3.937   0.798
71627W        W40045  43.841  37.885  13.020
71628W        W40046   1.769  26.141  13.422
71629W        W40047  43.905  21.222  13.476
71630W        W40048   0.758  10.184   3.690
71631W        W40049  34.109  11.204  14.849
71632W        W40050  24.502   6.380  14.021
71633W        W40051  13.614  16.750   2.875
71634W        W40052  20.228  11.248   4.650
71635W        W40053  21.627   9.715   2.826
71636W        W40054  40.800  43.407   2.333
71637W        W40055   7.750  40.325   4.675
71638W        W40056   8.307  34.871   0.344
71639W        W40057  37.997  10.195  11.373
71640W        W40058  34.513  18.148  11.428
71641W        W40059  24.679   9.762  10.963
71642W        W40060  21.144  20.245  12.455
71643W        W40061  44.278  17.083  12.013
71644W        W40062  39.035  43.942   0.349
71645W        W40063  39.505   9.160  12.533
71646W        W40064  39.529   7.846   2.276
71647W        W40065  11.793   2.897  10.933
71648W        W40066  35.491  38.339   4.320
71649W        W40067  38.375  37.437   4.708
71650W        W40068  11.736  30.086   4.786
71651W        W40069  36.436  18.106   3.349
71652W        W40070  20.613   9.163  13.908
71653W        W40071  15.261   3.280  12.501
71654W        W40072  19.600  24.110   1.314
71655W        W40073   4.883  14.699  10.565
71656W        W40074  39.858  36.089   2.356
71657W        W40075  24.166  43.986  10.623
71658W        W40076  11.247  44.894  10.965
71659W        W40077  20.089  33.425   3.231
71660W        W40078  41.999  13.195  10.912
71661W        W40079  15.662   1.409   4.305
71662W        W40080  20.183  37.954   3.187
71663W        W40081  44.347  37.550  13.519
71664W        W40082  33.501  39.817  12.982
71665W        W40083  30.916   0.408   3.757
71666W        W40084   9.757  27.505   0.303
71667W        W40085  17.696  20.613  10.585
71668W        W40086   5.879  21.603  10.948
71669W        W40087   4.426   2.791   3.333
71670W        W40088  39.406  33.026   0.890
71671W        W40089  28.983   0.876  11.966
71672W        W40090   3.773  11.805  11.123
71673W        W40091  18.619   2.311  14.315
71674W        W40092  26.576  31.907   4.810
71675W        W40093  19.112  13.290  12.393
71676W        W40094  31.106  26.684   3.210
71677W        W40095  28.546  41.430  13.014
71678W        W40096  14.217  17.181   1.250
71679W        W40097  32.603  10.180   4.192
71680W        W40098   3.390   1.749   2.764
71681W        W40099   1.434  21.151   2.811
71682W        W40100   4.439  39.861  12.354
71683W        W40101  42.882  15.100   3.377
71684W        W40102  31.609   8.840  13.921
71685W        W40103  41.794  28.138   0.819
71686W        W40104  44.338  43.917  12.026
71687W        W40105  32.585  11.704  12.013
71688W        W40106  41.984  34.516  10.581
71689W        W40107  30.973  33.490   2.413
71690W        W40108  24.064   4.699  11.459
71691W        W40109  18.086  44.953   2.296
71692W        W40110   3.878  38.463  14.276
71693W        W40111  27.488  18.760  13.363
71694W        W40112  20.170  30.626  13.377
71695W        W40113   0.409   2.379  14.904
71696W        W40114  37.969  29.461  13.399
71697W        W40115  33.033   9.211  10.533
71698W        W40116   3.884  17.210  11.000
71699W        W40117  17.668   5.229   3.739
71700W        W40118  35.853  30.457   3.778
71701W        W40119  39.550  42.295  13.413
71702W        W40120  26.508  19.544   1.822
71703W        W40121  39.996  22.680  14.795
71704W        W40122  43.851  23.730  10.566
71705W        W40123  17.629  29.010  10.932
71706W        W40124  44.304  24.101   0.871
71707W        W40125  17.585  14.103  12.939
71708W        W40126  16.175   8.726   2.406
71709W        W40127  29.582  42.016  12.055
71710W        W40128  16.706  11.343  13.873
71711W        W40129  22.171  38.396  13.046
71712W        W40130  22.027  42.792  14.780
71713W        W40131   9.180  17.181  10.920
71714W        W40132   9.320  19.755  14.343
71715W        W40133  34.007  20.144   1.436
71716W        W40134   8.162  27.611   4.688
71717W        W40135   1.351  13.316  14.898
71718W        W40136   6.189  30.041  14.502
71719W        W40137  19.050   6.415  12.339
71720W        W40138   7.208  17.302  13.422
71721W        W40139  37.572  42.314  10.979
71722W        W40140  29.953   5.344   4.231
71723W        W40141  29.111   7.394   1.883
71724W        W40142   1.900  29.508  10.525
71725W        W40143  41.902  38.364   0.297
71726W        W40144  40.847  10.660   4.169
71727W        W40145   6.886  27.463  11.923
71728W        W40146  14.283  29.617  10.897
71729W        W40147  13.739   8.662   3.201
71730W        W40148  34.071  22.076  12.846
71731W        W40149  36.899  16.195   4.198
71732W        W40150  36.008  13.138  12.920
71733W        W40151  11.842  25.493   4.226
71734W        W40152  30.489  30.072   1.705
71735W        W40153  35.975  31.584  14.411
71736W        W40154   4.322  31.513  11.029
71737W        W40155  20.534  20.686  11.584
71738W        W40156   6.852  30.615   3.297
71739W        W40157   7.282   3.854  10.573
71740W        W40158  10.711   5.325   2.403
71741W        W40159   2.820  43.918  11.917
71742W        W40160  24.133   2.425   3.739
71743W        W40161  19.090   1.918   0.904
71744W        W40162  42.810  39.862   0.846
71745W        W40163   4.253  22.097  11.590
71746W        W40164  26.128  14.791   4.789
71747W        W40165   8.365  41.009   0.245
71748W        W40166  18.770  13.252  13.039
71749W        W40167  31.468   1.387   3.680
71750W        W40168   3.396  37.075   4.762
71751W        W40169   1.832  26.003   1.316
71752W        W40170   8.881  27.123  10.919
71753W        W40171  12.660   0.434   4.628
71754W        W40172  33.955  38.328   3.770
71755W        W40173   2.315   0.809  13.340
71756W        W40174  17.128  44.951   0.355
71757W        W40175  43.871  39.458  10.919
71758W        W40176  32.106   6.869   1.760
71759W        W40177  15.144  39.968  12.001
71760W        W40178  33.578  11.867  13.387
71761W        W40179  40.974  38.428  13.900
71762W        W40180   9.199  22.113  13.926
71763W        W40181   8.184  18.207   0.802
71764W        W40182  19.737  32.550   1.714
71765W        W40183   8.367  37.028  14.371
71766W        W40184   9.880  13.638   1.337
71767W        W40185  23.506  26.971   2.717
71768W        W40186   8.816  18.623   5.144
71769W        W40187   6.359   6.300  12.467
71770W        W40188  12.676  40.897  11.594
71771W        W40189  35.530  44.842  14.361
71772W        W40190  15.579  11.866   0.799
71773W        W40191  38.413   2.451  14.475
71774W        W40192   9.764  37.073  10.997
71775W        W40193  12.123  43.801  14.016
71776W        W40194  15.807  22.700   4.636
71777W        W40195  42.297  39.323  14.996
71778W        W40196  38.891  29.035   0.444
71779W        W40197  10.328  37.434   2.704
71780W        W40198  17.263   4.373  11.934
71781W        W40199  33.111  15.286   0.730
71782W        W40200  40.837  27.575   1.925
71783W        W40201  19.262  26.590  11.470
71784W        W40202   7.706  24.572  12.413
71785W        W40203  33.555  18.700  14.902
71786W        W40204  26.032  13.794   1.369
71787W        W40205  18.082   3.427   4.662
71788W        W40206   6.333  38.050   0.346
71789W        W40207  33.877   7.765  10.993
71790W        W40208  12.805  37.859   2.287
71791W        W40209  36.996  11.313  10.568
71792W        W40210  10.673  43.910  10.917
71793W        W40211  35.924  10.749  12.026
71794W        W40212  35.430  12.669   0.288
71795W        W40213  40.549  38.834   3.246
71796W        W40214  18.574  33.876   4.772
71797W        W40215  31.480  18.114  13.064
71798W        W40216  42.989   6.713  13.863
71799W        W40217  15.782  32.617  11.547
71800W        W40218  10.301  37.912  14.341
71801W        W40219   5.321  14.614   0.964
71802W        W40220  40.904  17.183   1.821
71803W        W40221  17.681  27.558  11.051
71804W        W40222   0.480  32.976  13.872
71805W        W40223  44.462  38.523   4.219
71806W        W40224  21.151  36.349  14.773
71807W        W40225   0.782   4.726  11.535
71808W        W40226  12.122  32.117  10.934
71809W        W40227   2.431   3.401   1.395
71810W        W40228  32.398  26.511   4.326
71811W        W40229  34.045  31.974   3.270
71812W        W40230  42.870   1.815   4.604
71813W        W40231  29.462  12.225  11.992
71814W        W40232  17.144  41.409   2.358
71815W        W40233  41.900   9.358   4.344
71816W        W40234   3.900  43.388   0.451
71817W        W40235   8.884  32.029  11.063
71818W        W40236   9.150  17.248   0.346
71819W        W40237  25.587  31.975  10.595
71820W        W40238  28.488   8.728  14.424
71821W        W40239   2.297   4.290   3.871
71822W        W40240  25.664  29.646   1.721
71823W        W40241  23.553  13.242  14.857
71824W        W40242  21.703  19.121  13.509
71825W        W40243   6.284  11.850   2.738
71826W        W40244  14.154  38.819  12.089
71827W        W40245  13.148  38.063   3.665
71828W        W40246  19.637  10.745  13.541
71829W        W40247  15.758  43.800  13.821
71830W        W40248  40.537  15.228   1.288
71831W        W40249  21.017  28.459  14.499
71832W        W40250  38.359  27.448  11.612
71833W        W40251   3.777  12.672  13.355
71834W        W40252  37.001  23.635  10.534
71835W        W40253   9.728   7.336   2.407
71836W        W40254  31.447  36.476   0.339
71837W        W40255  17.739   1.832   2.239
71838W        W40256  12.633  44.460   3.205
71839W        W40257  20.540   4.339   4.818
71840W        W40258  10.695  41.877   2.319
71841W        W40259   8.316  41.869  11.885
71842W        W40260  30.573  13.751   2.845
71843W        W40261   3.888  26.069   3.702
71844W        W40262  43.396  36.527   4.636
71845W        W40263  14.773  31.622  11.070
71846W        W40264  24.082   1.866   1.257
71847W        W40265  42.338  36.357  14.395
71848W        W40266  13.673   8.160   1.326
71849W        W40267  10.290  40.891  11.996
71850W        W40268  12.250  11.711   0.744
71851W        W40269  22.013  42.514  12.554
71852W        W40270  14.644  22.108  11.460
71853W        W40271  44.351   7.400   2.302
71854W        W40272  27.002   7.274  10.135
71855W        W40273  17.223  43.839  12.364
71856W        W40274  44.823   3.343  13.400
71857W        W40275  43.337  37.083   1.273
71858W        W40276  41.528  26.178   2.230
71859W        W40277  18.284  14.746  13.387
71860W        W40278  17.228  42.510  10.936
71861W        W40279  20.186  39.429   3.247
71862W        W40280   2.726  40.855  14.351
71863W        W40281  28.507  24.029   2.384
71864W        W40282  44.901  31.010  10.928
71865W        W40283  23.717   5.786   4.234
71866W        W40284  25.679  38.061  12.888
71867W        W40285   9.379  25.560   3.726
71868W        W40286  14.750  29.457   2.894
71869W        W40287  18.604  12.671  11.531
71870W        W40288  13.311  36.471   3.791
71871W        W40289  28.131  36.923  14.987
71872W        W40290  16.264   5.217  12.440
71873W        W40291   3.346   6.867   1.322
71874W        W40292  36.373  31.541   0.257
71875W        W40293  14.768  32.440   1.280
71876W        W40294  11.797   9.306  14.872
71877W        W40295  41.971  20.642   2.207
71878W        W40296   4.341  18.280  10.462
71879W        W40297   0.459  28.129  11.879
71880W        W40298  12.855  18.681  11.563
71881W        W40299  23.070  13.147   2.207
71882W        W40300  24.716  31.967   4.798
71883W        W40301  27.644   9.177  13.431
71884W        W40302  42.499  25.668   4.811
71885W        W40303  16.171  13.334  13.509
71886W        W40304  38.983  20.038   2.281
71887W        W40305  15.207  12.115  12.429
71888W        W40306  34.063  16.762  12.039
71889W        W40307  14.222   7.398  13.380
71890W        W40308  40.387  40.359   1.924
71891W        W40309   8.750  17.242   0.268
71892W        W40310   5.812  18.153   2.212
71893W        W40311   7.235  20.683  13.397
71894W        W40312  32.009   8.815  13.538
71895W        W40313   3.834  26.583  11.568
71896W        W40314  23.009   4.930  14.857
71897W        W40315  10.365  44.755  13.857
71898W        W40316  32.046   8.320  11.060
71899W        W40317   8.354  38.987   3.744
71900W        W40318   5.713  24.625   1.268
71901W        W40319  15.616  23.546   0.817
71902W        W40320  22.652  30.486  10.949
71903W        W40321  38.570  39.444  14.791
71904W        W40322  33.089  17.280   1.320
71905W        W40323  44.957  43.970  14.849
71906W        W40324  15.719  14.636   1.352
71907W        W40325  30.143  14.767  14.337
71908W        W40326  35.083  11.733   3.770
71909W        W40327  41.871  22.089   4.328
71910W        W40328  39.465  27.106   0.877
71911W        W40329   8.757  16.273   3.730
71912W        W40330  19.173  38.945   1.935
71913W        W40331   5.354  31.518   0.387
71914W        W40332  35.464  39.534  13.419
71915W        W40333  17.636  26.019  14.276
71916W        W40334   0.927  21.205  10.010
71917W        W40335  13.229  17.130   0.903
71918W        W40336  42.841   3.358  13.995
71919W        W40337  20.101  20.149   3.781
71920W        W40338  33.568   7.393  12.935
71921W        W40339  41.491  27.154   0.411
71922W        W40340   2.397   2.951   2.321
71923W        W40341  23.020  11.727   4.130
71924W        W40342  42.798   6.251  11.005
71925W        W40343  40.548  11.323  13.898
71926W        W40344   7.287  42.886  13.371
71927W        W40345  41.369  32.503  12.937
71928W        W40346   6.398  39.901   1.247
71929W        W40347  27.502   9.308   5.691
71930W        W40348  34.411   5.426  12.381
71931W        W40349  43.825   4.285   2.228
71932W        W40350  42.454  32.086  13.040
71933W        W40351  44.292  21.232   4.755
71934W        W40352  10.778  42.337   3.674
71935W        W40353  26.466  16.253  11.385
71936W        W40354  38.440   9.876   1.896
71937W        W40355  25.517  31.467  11.063
71938W        W40356  22.594   1.450   3.833
71939W        W40357   7.319  37.020  10.608
71940W        W40358  29.974  40.012   4.662
71941W        W40359  40.889  41.043  11.424
71942W        W40360  13.770  37.049  12.947
71943W        W40361  10.644  24.512   4.782
71944W        W40362  22.678  20.136   0.742
71945W        W40363  10.160  41.417   3.309
71946W        W40364  13.600  10.781   3.373
71947W        W40365  14.199  42.028   2.744
71948W        W40366  24.045  41.845   3.160
71949W        W40367  34.916  30.547   4.347
71950W        W40368  12.231  38.046  14.400
71951W        W40369  41.306   6.789  13.929
71952W        W40370  14.768  14.339  13.448
71953W        W40371  36.383  27.050  14.497
71954W        W40372  38.482  33.397  12.401
71955W        W40373  26.570  42.002   0.929
71956W        W40374  16.756   1.911   4.232
71957W        W40375  36.919  11.772   3.739
71958W        W40376  42.947  18.229  13.922
71959W        W40377  42.880   5.377  12.548
71960W        W40378   3.747  13.737  11.888
71961W        W40379   9.683   8.726   2.370
71962W        W40380   7.857  37.861  13.532
71963W        W40381  27.665   4.274  12.430
71964W        W40382  43.469  21.105  14.457
71965W        W40383  36.447  22.615   0.417
71966W        W40384  34.910  11.789   2.716
71967W        W40385   6.819  27.063   2.822
71968W        W40386  16.266  24.017   0.413
71969W        W40387  18.766  15.614   3.306
71970W        W40388  22.059  21.126  11.026
71971W        W40389  13.252  34.023  14.971
71972W        W40390  32.999   6.693   0.376
71973W        W40391   8.824  14.608  12.568
71974W        W40392  16.162  40.505  12.531
71975W        W40393   5.861  13.270   0.890
71976W        W40394   3.412  20.266   2.337
71977W        W40395  10.853  24.198  12.568
71978W        W40396  30.973   7.244   0.279
71979W        W40397  23.734   0.315  14.917
71980W        W40398   2.279  28.476   1.221
71981W        W40399   3.858  40.874   2.867
71982W        W40400   6.726   4.224   0.937
71983W        W40401  28.100  42.984   1.300
71984W        W40402  34.962   9.857   3.839
71985W        W40403  37.403  40.304  10.512
71986W        W40404  19.126  14.743   2.718
71987W        W40405  45.000  37.399  11.002
71988W        W40406  10.308  22.578   2.307
71989W        W40407   9.731   7.711  13.364
71990W        W40408  44.480  18.056   4.694
71991W        W40409  23.212  24.542  14.783
71992W        W40410  36.960  43.390  11.375
71993W        W40411  18.101   6.366   3.816
71994W        W40412   1.406  10.702  13.977
71995W        W40413  32.519  20.666  12.855
71996W        W40414  35.934  41.017  11.949
71997W        W40415  32.991   0.931  11.895
71998W        W40416  22.685  18.072  14.493
71999W        W40417   6.723  15.204   2.717
72000W        W40418  34.917  31.599  14.774
72001W        W40419  24.681   0.801  11.866
72002W        W40420  17.729  11.280  11.113
72003W        W40421  30.647  41.786   1.249
72004W        W40422   7.314   6.904   4.762
72005W        W40423  12.325  12.212   1.932
72006W        W40424   0.300   4.403  11.039
72007W        W40425  23.611  43.801   3.865
72008W        W40426  37.538  43.419  13.882
72009W        W40427  35.042  22.618  10.644
72010W        W40428  39.522  35.534   3.636
72011W        W40429  42.995  18.778   0.466
72012W        W40430   9.209  36.914   4.271
72013W        W40431   3.436  31.640  14.454
72014W        W40432  10.384  37.389  14.872
72015W        W40433  32.479  23.055  14.291
72016W        W40434  31.014  22.107  12.511
72017W        W40435  40.820  20.238  13.412
72018W        W40436  30.616  12.796   1.444
72019W        W40437  28.474  25.183  12.375
72020W        W40438  35.458  32.486  12.036
72021W        W40439  21.165  29.098   4.135
72022W        W40440  13.296  39.344  13.476
72023W        W40441   4.923  33.562   1.248
72024W        W40442  29.451  34.938  12.880
72025W        W40443  32.622   4.863  12.841
72026W        W40444  37.894   5.687   2.417
72027W        W40445  42.513  38.369   0.481
72028W        W40446  21.636  29.968  14.816
72029W        W40447  13.301  17.281   2.680
72030W        W40448   8.250   6.761  13.909
72031W        W40449   7.906   4.440   3.698
72032W        W40450  27.015   6.699   4.704
72033W        W40451   5.892  14.288  12.406
72034W        W40452  42.289  15.120  13.392
72035W        W40453   5.407  43.805  14.836
72036W        W40454  31.971  23.653   1.828
72037W        W40455   3.779  21.261   2.355
72038W        W40456  22.247  12.805   2.202
72039W        W40457   0.771  40.983   3.771
72040W        W40458   2.943  18.575   4.775
72041W        W40459  44.389   3.752  14.939
72042W        W40460  21.096  43.341   3.322
72043W        W40461  25.115  14.234  12.458
72044W        W40462  15.650  39.445   4.201
72045W        W40463  26.647   3.419   4.352
72046W        W40464  21.511  33.586   9.998
72047W        W40465  16.679   5.690  10.920
72048W        W40466  25.686  34.947   5.203
72049W        W40467  25.212  24.722  13.409
72050W        W40468  29.949  38.837  10.588
72051W        W40469  10.684  42.831   2.335
72052W        W40470  32.529  15.199   0.783
72053W        W40471  42.992  40.856  10.918
72054W        W40472  12.718  21.071  12.528
72055W        W40473   7.897  36.884  12.094
72056W        W40474  22.716  25.541   1.704
72057W        W40475  15.637  22.245  10.611
72058W        W40476  26.095  17.114  13.981
72059W        W40477  24.627   5.713  12.958
72060W        W40478  21.633  14.624   1.748
72061W        W40479  23.574  43.865  13.505
72062W        W40480  35.882  14.239   3.332
72063W        W40481  32.450  11.329   1.344
72064W        W40482  16.566  35.994   3.760
72065W        W40483   9.687  44.464   2.786
72066W        W40484  19.042   9.353   4.747
72067W        W40485  19.280  35.962  12.445
72068W        W40486  41.834  43.863  13.945
72069W        W40487   4.362  20.137  13.380
72070W        W40488  20.049  22.546  10.972
72071W        W40489   4.846  25.474  12.392
72072W        W40490   9.714   3.415   1.860
72073W        W40491   2.731  33.962   3.371
72074W        W40492   2.815   9.703  14.456
72075W        W40493  16.268  21.244   0.755
72076W        W40494  35.358   5.842   0.318
72077W        W40495   6.690  19.072   0.891
72078W        W40496   2.855  20.047   0.330
72079W        W40497  19.729   8.308   0.260
72080W        W40498  36.578  40.939  14.303
72081W        W40499  42.844  30.928   1.904
72082W        W40500  22.654  28.108   0.431
72083W        W40501  15.676  25.158   2.258
72084W        W40502  44.787  35.960  12.847
72085W        W40503   4.408   2.426   0.447
72086W        W40504  16.287   6.356  11.899
72087W        W40505  22.578  11.835   0.862
72088W        W40506  26.471   3.802  13.945
72089W        W40507  22.525  13.172   0.866
72090W        W40508   9.678   8.289  11.119
72091W        W40509  34.981  34.878   5.237
72092W        W40510  23.702  33.504  14.483
72093W        W40511  21.596  25.108  11.046
72094W        W40512  19.553  31.069  12.846
72095W        W40513  28.668  41.945   3.148
72096W        W40514  17.583  13.647  13.041
72097W        W40515   7.243  11.666   1.901
72098W        W40516  25.069  44.491   1.749
72099W        W40517  26.620  28.165  14.337
72100W        W40518   9.357  14.144   5.261
72101W        W40519  29.003  33.876  11.496
72102W        W40520  12.659   3.834   0.878
72103W        W40521   2.281   0.978   0.398
72104W        W40522  21.570  22.101  10.568
72105W        W40523   2.322  26.139   2.261
72106W        W40524  26.957  29.475  14.314
72107W        W40525  41.507  24.561  10.951
72108W        W40526  21.636  41.489  14.413
72109W        W40527  43.285  38.419  13.506
72110W        W40528  13.632   4.421   4.607
72111W        W40529  13.665  35.402   0.289
72112W        W40530   6.351  27.083   2.787
72113W        W40531  26.998  43.018   1.432
72114W        W40532   9.737  26.642  11.985
72115W        W40533   0.345  12.692   2.201
72116W        W40534  39.989   0.248  14.501
72117W        W40535  17.118  34.431   0.247
72118W        W40536  27.988  36.571   4.146
72119W        W40537  20.628   7.791  10.503
72120W        W40538  26.200  11.646   2.894
72121W        W40539  39.498   4.905   0.399
72122W        W40540  31.521  17.775   2.742
72123W        W40541   4.787  30.459   4.337
72124W        W40542  11.711   2.915   4.740
72125W        W40543  21.742  43.356   0.842
72126W        W40544  17.597  15.180   1.712
72127W        W40545  39.972  25.474   0.844
72128W        W40546  35.059  15.287  14.806
72129W        W40547  34.461  11.154   4.717
72130W        W40548  35.064  35.492   1.708
72131W        W40549  17.196   7.231   1.335
72132W        W40550  28.028  29.086  13.309
72133W        W40551  14.751  31.435  12.983
72134W        W40552   6.730   1.930  10.634
72135W        W40553  22.655   8.169   4.743
72136W        W40554  31.982  35.934   3.803
72137W        W40555  20.143  35.952   4.162
72138W        W40556  12.703  31.055  13.519
72139W        W40557  25.202  12.308   1.746
72140W        W40558  21.025  18.751  12.872
72141W        W40559  22.591  35.503   0.253
72142W        W40560  14.177  35.421  10.480
72143W        W40561  18.756   9.874   4.805
72144W        W40562  41.517  24.008   0.429
72145W        W40563  10.339  26.581  11.996
72146W        W40564  10.253  36.451   5.099
72147W        W40565  35.440  25.516  10.640
72148W        W40566  22.238  44.815   1.757
72149W        W40567   8.321  28.055   0.259
72150W        W40568   6.320  14.237  12.895
72151W        W40569  13.240  32.578   2.360
72152W        W40570  19.213  19.285   2.320
72153W        W40571  17.225  22.241  13.448
72154W        W40572  31.152  31.420   1.408
72155W        W40573  40.987   0.278  11.983
72156W        W40574   9.775  10.269  13.866
72157W        W40575  28.128  31.143  12.446
72158W        W40576  32.003  26.622  11.430
72159W        W40577  20.121  15.135   0.273
72160W        W40578   3.783  44.801  13.462
72161W        W40579  11.260   2.728  11.984
72162W        W40580  10.671  25.650  11.538
72163W        W40581  40.332  25.179   1.798
72164W        W40582  26.562  37.932   0.244
72165W        W40583   5.338  33.604   2.821
72166W        W40584  12.678  12.774  13.916
72167W        W40585  34.453  15.578   0.331
72168W        W40586  40.451  25.662  14.319
72169W        W40587  29.152  29.604   1.885
72170W        W40588  26.534  35.551  14.941
72171W        W40589   7.213  17.679  13.024
72172W        W40590  44.354  36.517  10.892
72173W        W40591   9.365  25.678  14.278
72174W        W40592   6.375  42.920  10.444
72175W        W40593  26.174  43.282   3.861
72176W        W40594  29.481  39.894   2.803
72177W        W40595  38.383  22.075  10.511
72178W        W40596  44.292  10.384   0.901
72179W        W40597  31.094  40.462  10.493
72180W        W40598   1.871  34.461  14.350
72181W        W40599  40.878  41.905  14.405
72182W        W40600   2.285  33.110  14.859
72183W        W40601  36.878  32.068   2.675
72184W        W40602   1.836  36.009   1.256
72185W        W40603  17.187   6.309   2.193
72186W        W40604  10.271   7.231   3.631
72187W        W40605  39.852  25.213  11.901
72188W        W40606  23.123   7.732   1.907
72189W        W40607   9.826  16.086  12.531
72190W        W40608  14.738  34.868   4.823
72191W        W40609  44.260  27.007   4.144
72192W        W40610  27.965  24.167   4.267
72193W        W40611  17.756  31.601  14.492
72194W        W40612  36.540  37.469  12.437
72195W        W40613   5.764  14.165  11.529
72196W        W40614  24.548  17.678  11.484
72197W        W40615  31.417   2.253   2.873
72198W        W40616   8.792  19.601   3.203
72199W        W40617  31.646  14.820   4.760
72200W        W40618  33.574  17.172   2.752
72201W        W40619  37.017  23.657  14.510
72202W        W40620  32.999  28.136  10.456
72203W        W40621  21.696   8.331  12.860
72204W        W40622  31.953  15.141   0.315
72205W        W40623   4.223   1.858  12.574
72206W        W40624  15.686   4.297   3.146
72207W        W40625  24.987  23.683   3.769
72208W        W40626  20.677  43.974  14.395
72209W        W40627  25.152  14.304   3.365
72210W        W40628  28.574  27.040   4.256
72211W        W40629  44.263  21.663   3.674
72212W        W40630  12.660  44.801  10.457
72213W        W40631  15.326  20.207   3.309
72214W        W40632  13.281  30.569   9.945
72215W        W40633   2.319  13.719  13.046
72216W        W40634  28.478  39.535  11.429
72217W        W40635  13.789   4.843   0.741
72218W        W40636   6.786  16.141  10.534
72219W        W40637  17.247   5.318  13.807
72220W        W40638  34.055  25.564   2.215
72221W        W40639   7.330  10.670  11.917
72222W        W40640  43.398   9.160  13.391
72223W        W40641  12.127  27.180  11.415
72224W        W40642  13.624  11.297   0.407
72225W        W40643  35.487   3.812   4.294
72226W        W40644  17.194  16.688  13.385
72227W        W40645  38.564   4.255   1.814
72228W        W40646  30.597  42.998  12.434
72229W        W40647  25.676  37.341   2.732
72230W        W40648  37.404  18.113  12.096
72231W        W40649  30.097  33.513   4.602
72232W        W40650  19.173  14.235  10.143
72233W        W40651  17.630  40.048   4.746
72234W        W40652  15.302   2.842   2.287
72235W        W40653  25.198  41.864  11.494
72236W        W40654  22.528  12.844   1.215
72237W        W40655  28.467  37.357  13.385
72238W        W40656  26.609  30.090   2.367
72239W        W40657  37.346  36.561   1.905
72240W        W40658  28.535  20.215  14.916
72241W        W40659  26.478   7.204   4.778
72242W        W40660   4.272   6.721  14.425
72243W        W40661  23.176   8.901   3.792
72244W        W40662  32.036  13.633  12.469
72245W        W40663  38.949  44.431   0.280
72246W        W40664  43.338  17.077  13.545
72247W        W40665  29.957  13.117   1.271
72248W        W40666  19.089  18.195   3.794
72249W        W40667  36.900  15.685   0.295
72250W        W40668  28.054  44.321  11.901
72251W        W40669  36.985  18.201  12.086
72252W        W40670   4.343  37.564  11.569
72253W        W40671   6.783  23.719   1.442
72254W        W40672   8.862  10.866   0.819
72255W        W40673   1.752  30.003   4.658
72256W        W40674   6.876  36.884  11.424
72257W        W40675  42.446  34.422  12.934
72258W        W40676  10.163  21.680  10.461
72259W        W40677  39.041  32.127   0.958
72260W        W40678  37.534   8.178   4.237
72261W        W40679  20.207   0.403   4.133
72262W        W40680  12.331  41.925  11.035
72263W        W40681  44.478  43.340   2.349
72264W        W40682  35.578  11.279  12.469
72265W        W40683   2.410   1.282   2.666
72266W        W40684   2.368  44.791   1.740
72267W        W40685  18.723  11.628  13.922
72268W        W40686  17.137  42.855   0.470
72269W        W40687  34.977  31.462   1.297
72270W        W40688  41.883  31.587  10.933
72271W        W40689   6.208  41.506   3.768
72272W        W40690   8.807  29.150  12.045
72273W        W40691  21.075  26.669   2.204
72274W        W40692  28.611  37.856  11.518
72275W        W40693  20.729   1.424   1.794
72276W        W40694  30.659  37.919   4.633
72277W        W40695  25.643   0.776   2.745
72278W        W40696  38.463   6.854   0.354
72279W        W40697  32.452   8.267  12.063
72280W        W40698  29.148   6.699  11.605
72281W        W40699  42.317  34.562   3.293
72282W        W40700  10.723  18.212  11.509
72283W        W40701  42.013   3.242   1.308
72284W        W40702   2.876  16.118   2.340
72285W        W40703   2.800  25.109  13.845
72286W        W40704  43.806   9.766  14.968
72287W        W40705   1.817  16.639  10.947
72288W        W40706  41.377   9.194   2.250
72289W        W40707  41.310  37.962  10.561
72290W        W40708   2.356  30.469   4.297
72291W        W40709  28.458   6.779  11.985
72292W        W40710  38.408  15.289   2.887
72293W        W40711  39.362  30.603  12.416
72294W        W40712  31.975  34.987  12.001
72295W        W40713   1.237  20.057   0.412
72296W        W40714   9.810  41.477  10.997
72297W        W40715  22.722  34.989  13.858
72298W        W40716   3.858  14.629   2.789
72299W        W40717  16.572   1.305  13.350
72300W        W40718  25.210  28.966   2.703
72301W        W40719   0.761  43.982  12.556
72302W        W40720  22.151  33.575   1.427
72303W        W40721  18.626  43.483  13.332
72304W        W40722  24.543  18.576   4.774
72305W        W40723   9.211   5.433  14.966
72306W        W40724   6.793  33.530   4.283
72307W        W40725  31.975  16.191   4.325
72308W        W40726  18.244   6.762  14.910
72309W        W40727  41.518   7.264   0.830
72310W        W40728   8.784  35.104   4.701
72311W        W40729  31.481   7.262   0.300
72312W        W40730  41.459  15.787  10.491
72313W        W40731  31.052  41.847  12.020
72314W        W40732  21.248  28.666  10.938
72315W        W40733  41.875   0.338  14.813
72316W        W40734   4.769  15.228  10.929
72317W        W40735   3.309  38.496   2.378
72318W        W40736  26.164   7.788   0.796
72319W        W40737  39.443  40.962  14.796
72320W        W40738  21.070  20.551   0.336
72321W        W40739  40.049   0.251  12.020
72322W        W40740  33.105   6.781   3.629
72323W        W40741  40.500  35.594  12.921
72324W        W40742  31.073  21.749   3.633
72325W        W40743  38.562  38.938  12.017
72326W        W40744  13.251   1.246   3.752
72327W        W40745   8.242  39.380   0.361
72328W        W40746  26.545  12.744  14.940
72329W        W40747   7.413  21.715   4.758
72330W        W40748  23.019  19.208  12.991
72331W        W40749  39.003   3.353  13.343
72332W        W40750  18.098  16.147  11.085
72333W        W40751   4.818  32.923   3.700
72334W        W40752  21.669   0.285  13.374
72335W        W40753   7.380   9.182  11.446
72336W        W40754  30.946  27.145   4.238
72337W        W40755   1.974  35.452   0.465
72338W        W40756  44.389   8.405   2.372
72339W        W40757  13.133   0.370   0.774
72340W        W40758  40.875  19.206   3.729
72341W        W40759   5.805  37.405  12.413
72342W        W40760  29.988  11.248  12.416
72343W        W40761  17.586  35.052  14.833
72344W        W40762  42.334  24.665   1.440
72345W        W40763  23.216  36.944   1.743
72346W        W40764  14.729  23.533   3.869
72347W        W40765  13.333   1.757  10.519
72348W        W40766  32.637   7.311  10.438
72349W        W40767  31.937  19.692   0.967
72350W        W40768  23.991  15.303  11.419
72351W        W40769  44.874  28.637  12.837
72352W        W40770  37.482  44.422  11.600
72353W        W40771   1.337  19.693  10.413
72354W        W40772  31.924  10.681  12.848
72355W        W40773   0.458  29.587  11.096
72356W        W40774   8.317  30.075  13.937
72357W        W40775  38.055  40.865   0.784
72358W        W40776  30.515  21.618   1.341
72359W        W40777  34.053  36.970  11.377
72360W        W40778   5.334  42.884   3.186
72361W        W40779  28.052  34.450   0.779
72362W        W40780  20.221  23.096  10.580
72363W        W40781   8.662  15.774   3.715
72364W        W40782  21.074  34.980  12.474
72365W        W40783  44.970   2.881  14.414
72366W        W40784  14.311   5.883   3.193
72367W        W40785  17.590  41.807  11.396
72368W        W40786  29.612  14.629   0.894
72369W        W40787  10.700  36.037   0.887
72370W        W40788  35.083  24.125  11.594
72371W        W40789  38.829  28.052  11.865
72372W        W40790  39.022  38.373  14.438
72373W        W40791  26.697  21.550  12.519
72374W        W40792  32.466  14.195   1.880
72375W        W40793  39.895  15.688   1.306
72376W        W40794  31.462  20.070   0.250
72377W        W40795  27.590  21.153   5.311
72378W        W40796  24.684  13.150   4.750
72379W        W40797  41.005  10.676  14.796
72380W        W40798  11.277   6.376  11.525
72381W        W40799  31.615  26.471  14.487
72382W        W40800  16.227   4.327  12.841
72383W        W40801  26.078   8.669  12.416
72384W        W40802  44.414  17.266   1.413
72385W        W40803  37.032  13.838   3.783
72386W        W40804  16.119   4.839  13.802
72387W        W40805   2.295  37.391   1.925
72388W        W40806  29.063  14.289  12.366
72389W        W40807   3.344   4.856   0.477
72390W        W40808  17.248   2.290  13.907
72391W        W40809  28.563  32.539   0.862
72392W        W40810  27.648  32.076  11.503
72393W        W40811  22.034  40.330  14.915
72394W        W40812  29.076  42.897  10.913
72395W        W40813  22.060   8.184   1.405
72396W        W40814  31.143   9.715   4.678
72397W        W40815  23.075   0.834  11.555
72398W        W40816  34.570  34.923   0.298
72399W        W40817  38.824   5.792   2.397
72400W        W40818   9.289   6.786   1.394
72401W        W40819  29.625  11.259  14.479
72402W        W40820  21.217   8.375  12.995
72403W        W40821  21.035  26.958   2.754
72404W        W40822  20.756  34.953   3.789
72405W        W40823  21.069  43.288   1.713
72406W        W40824  41.402  12.155   3.739
72407W        W40825   5.730  22.648  13.342
72408W        W40826   3.246  22.193   4.324
72409W        W40827   3.859  41.853   2.700
72410W        W40828  34.578   1.389  11.480
72411W        W40829  18.660  35.591  14.884
72412W        W40830  29.980  27.184   1.328
72413W        W40831  23.157  37.989  11.011
72414W        W40832  30.444  23.201  11.476
72415W        W40833  28.983  32.113  14.878
72416W        W40834  31.936   7.853  10.578
72417W        W40835  33.117  13.124  10.579
72418W        W40836   0.765  26.995   4.673
72419W        W40837  26.678  11.781  10.428
72420W        W40838  22.143  12.149  14.785
72421W        W40839  16.754  28.153   2.363
72422W        W40840  40.923   8.688  11.956
72423W        W40841  36.582   0.910   1.237
72424W        W40842  32.936  30.146   0.350
72425W        W40843  35.460  33.428  12.896
72426W        W40844  39.330  40.838  10.536
72427W        W40845  12.171   6.346  11.474
72428W        W40846  22.115   1.280  14.905
72429W        W40847  15.196  42.465  11.489
72430W        W40848  38.920  22.745   3.335
72431W        W40849  13.178  23.595  12.064
72432W        W40850  39.416  44.817   2.220
72433W        W40851  30.413  21.620   0.284
72434W        W40852  43.472  30.441  12.836
72435W        W40853   8.814  30.452  12.018
72436W        W40854   1.776   5.718   3.763
72437W        W40855  38.437  26.149  12.027
72438W        W40856  40.922  32.036  12.846
72439W        W40857  42.982  40.499   4.138
72440W        W40858  30.083  29.077  13.037
72441W        W40859  37.511  38.045  13.362
72442W        W40860  38.488  27.592  13.449
72443W        W40861  24.177  25.477  12.474
72444W        W40862  41.971  30.118   1.407
72445W        W40863  41.393  23.714  12.036
72446W        W40864  30.652  36.525   0.347
72447W        W40865  33.095  35.523  14.472
72448W        W40866  40.023  34.506   2.682
72449W        W40867  20.651  15.740   3.646
72450W        W40868  34.406  19.664  11.102
72451W        W40869  37.986  29.634  11.967
72452W        W40870  27.639   7.746   4.730
72453W        W40871  20.215  39.850  13.917
72454W        W40872   2.292  18.199  14.915
72455W        W40873  23.130   9.710   4.818
72456W        W40874  34.422  25.986  12.988
72457W        W40875  18.222  43.333  14.504
72458W        W40876  14.295  37.518   2.407
72459W        W40877  39.342  19.652   1.713
72460W        W40878  35.109  44.870   0.769
72461W        W40879  14.801  15.668   3.636
72462W        W40880  30.071  36.534   3.195
72463W        W40881  28.642  34.873  12.839
72464W        W40882   5.926  15.172   4.132
72465W        W40883  12.809   4.848   2.252
72466W        W40884  42.798  24.585  10.024
72467W        W40885  30.066   2.426   4.341
72468W        W40886  31.956  20.701  11.043
72469W        W40887  34.963  12.649  10.442
72470W        W40888   6.393  26.071  14.424
72471W        W40889  10.372  14.725   1.846
72472W        W40890  40.896  37.445  11.893
72473W        W40891  26.972  34.377   4.655
72474W        W40892  39.337  18.584   2.376
72475W        W40893   8.347  24.988   0.362
72476W        W40894   8.674  43.942   3.704
72477W        W40895  17.077  10.303  14.840
72478W        W40896   9.655  23.725   2.311
72479W        W40897  40.812  14.121  11.888
72480W        W40898  41.520  34.567   0.287
72481W        W40899  16.590  34.554   4.259
72482W        W40900  21.068   2.240   4.703
72483W        W40901  23.535  39.818  11.083
72484W        W40902  24.183  16.233  14.313
72485W        W40903  43.461  38.369  12.534
72486W        W40904  16.190  19.592  11.033
72487W        W40905   2.799  19.550   0.803
72488W        W40906   0.491  14.118  14.908
72489W        W40907  32.019   3.304   4.814
72490W        W40908   3.221  29.538   2.322
72491W        W40909   1.950  37.449  14.924
72492W        W40910  29.615   6.688   4.124
72493W        W40911   1.365  18.612  11.406
72494W        W40912  43.915  13.606   4.832
72495W        W40913   8.831  39.047   1.335
72496W        W40914  34.427  20.179  14.836
72497W        W40915  21.160  35.953  11.417
72498W        W40916  43.831  27.611  13.849
72499W        W40917  29.063  25.552  12.841
72500W        W40918  34.111  15.166   1.374
72501W        W40919  21.233  36.484  11.071
72502W        W40920   0.399  40.825  12.945
72503W        W40921  15.278  26.583   2.244
72504W        W40922  29.545  10.219   2.710
72505W        W40923  20.177   8.849  13.915
72506W        W40924  17.677   1.402  14.028
72507W        W40925  10.794   0.254  11.531
72508W        W40926   1.461   0.797  14.880
72509W        W40927  22.033  42.923  11.060
72510W        W40928  30.645  11.313  12.374
72511W        W40929  20.604  24.108   3.174
72512W        W40930  16.272   4.756  12.833
72513W        W40931  10.275  33.101   9.990
72514W        W40932  24.190   4.891   3.810
72515W        W40933  40.824  24.161   0.802
72516W        W40934  41.980  44.425  14.810
72517W        W40935  20.525  10.743   2.820
72518W        W40936  12.767  31.131   3.634
72519W        W40937   5.299  17.208  14.415
72520W        W40938  26.097  40.388   1.440
72521W        W40939  43.890  39.025  11.121
72522W        W40940  44.403  10.245  14.496
72523W        W40941  21.548   1.429  12.029
72524W        W40942  25.603  28.044  11.560
72525W        W40943  10.283  44.364  14.792
72526W        W40944  34.866  10.707  11.867
72527W        W40945   6.834  42.971   1.218
72528W        W40946  23.620  33.081  13.396
72529W        W40947   4.766  20.192   0.788
72530W        W40948  32.026   6.744   3.240
72531W        W40949  27.133  44.760   4.676
72532W        W40950  32.913   0.820   2.844
72533W        W40951   3.384  29.483  14.428
72534W        W40952   6.272   6.306   0.803
72535W        W40953  18.239  18.698   1.396
72536W        W40954  21.175  35.090   0.953
72537W        W40955  25.519  36.047  11.551
72538W        W40956  28.541  36.973   2.737
72539W        W40957  27.175  30.598   0.747
72540W        W40958  10.770  20.577   1.426
72541W        W40959  31.500   7.854   2.221
72542W        W40960   3.943  33.535  10.154
72543W        W40961  39.875  31.960   4.245
72544W        W40962   6.406  42.390   2.191
72545W        W40963  34.005  26.679   4.241
72546W        W40964  17.247  30.085  13.002
72547W        W40965  27.974  25.009  13.031
72548W        W40966   6.261   6.877  11.886
72549W        W40967  36.565  23.135   1.330
72550W        W40968   1.899  25.128   4.308
72551W        W40969  28.074   6.727   3.689
72552W        W40970  35.456   3.819   3.673
72553W        W40971   4.807   7.736   2.192
72554W        W40972  30.616  41.917  11.539
72555W        W40973  37.882  41.497  11.419
72556W        W40974  20.562  34.461   4.160
72557W        W40975  16.695  28.674   0.339
72558W        W40976  43.450  35.982   2.178
72559W        W40977  37.912  33.065  14.927
72560W        W40978  16.203   9.286  14.366
72561W        W40979  38.927  37.005   4.678
72562W        W40980   1.276  29.610  12.432
72563W        W40981  20.155   8.787   4.822
72564W        W40982   4.311  20.065   2.267
72565W        W40983  13.777  38.978   4.810
72566W        W40984  23.539  36.541  14.019
72567W        W40985  25.680   2.784   0.774
72568W        W40986  18.608  10.233  14.430
72569W        W40987  19.284  24.594   2.775
72570W        W40988  27.674  17.082  13.488
72571W        W40989  31.983  23.187   4.222
72572W        W40990  37.483  16.114   3.253
72573W        W40991   7.799   8.261   2.407
72574W        W40992  17.240  10.353  13.483
72575W        W40993   1.345  20.595   0.873
72576W        W40994  42.316   6.817  13.974
72577W        W40995  44.342  30.655   0.939
72578W        W40996  24.719  17.723  14.372
72579W        W40997  23.646  11.227  10.949
72580W        W40998   7.209  41.830   2.182
72581W        W40999  35.411  21.227   4.174
72582W        W41000  36.084   1.919   3.807
72583W        W41001  44.405  38.878  12.536
72584W        W41002  21.642  43.884   3.655
72585W        W41003   1.801  30.424   0.274
72586W        W41004  20.107  22.665  10.626
72587W        W41005   4.406  20.215   1.387
72588W        W41006  43.926  28.053  10.617
72589W        W41007  10.235   8.689  12.029
72590W        W41008   6.683   9.873   3.680
72591W        W41009  18.209  31.499  11.075
72592W        W41010  20.557  19.049  11.083
72593W        W41011  40.375  14.624   3.318
72594W        W41012   4.277  25.141   1.319
72595W        W41013  15.666  31.624  11.918
72596W        W41014  43.775  44.287   4.647
72597W        W41015   4.942  19.276   3.218
72598W        W41016  43.014  23.687   3.735
72599W        W41017   0.917  18.763  13.794
72600W        W41018  39.322  12.773   1.318
72601W        W41019  19.219  34.450  13.537
72602W        W41020  38.470  21.242  14.864
72603W        W41021  27.114  17.571  10.549
72604W        W41022  23.490  16.800  14.423
72605W        W41023  11.259   4.279  14.996
72606W        W41024   2.790  11.727  10.413
72607W        W41025  11.157  34.527   2.831
72608W        W41026  23.114   6.856   1.743
72609W        W41027  24.701  35.434   1.769
72610W        W41028   3.382  40.427   2.821
72611W        W41029  35.040  30.420  13.879
72612W        W41030   8.169  16.140   1.407
72613W        W41031   2.932  18.086   0.307
72614W        W41032  12.849  40.529   1.794
72615W        W41033  26.092   3.866   1.723
72616W        W41034  27.515   1.359  12.952
72617W        W41035  39.359   2.777   1.897
72618W        W41036   3.858  42.931   4.724
72619W        W41037   6.211   7.374   2.811
72620W        W41038  37.018  33.417   1.889
72621W        W41039   5.372  17.764   3.711
72622W        W41040  24.188  35.062  14.909
72623W        W41041  12.633  37.032  12.541
72624W        W41042  39.051  16.085  12.395
72625W        W41043   1.480  43.976   0.297
72626W        W41044  27.981  18.210  12.559
72627W        W41045  22.122  35.369   4.167
72628W        W41046   7.735  31.139  12.878
72629W        W41047  30.552   6.358  14.464
72630W        W41048  12.646  42.497   0.825
72631W        W41049  18.657  12.355  13.350
72632W        W41050  24.987  33.566   4.256
72633W        W41051  43.384  30.956  10.470
72634W        W41052  42.979  23.709  13.318
72635W        W41053  34.459  32.506  10.562
72636W        W41054  15.789  22.693  13.332
72637W        W41055  18.064  12.794   4.646
72638W        W41056  34.007  16.739  10.556
72639W        W41057   6.794  44.964   0.304
72640W        W41058   0.859  25.066   1.925
72641W        W41059  10.214  28.646  14.800
72642W        W41060  41.393  10.332  14.500
72643W        W41061  42.981   5.738   4.222
72644W        W41062  22.720   9.334  12.021
72645W        W41063  40.945  41.461   4.264
72646W        W41064   7.704   1.909   3.309
72647W        W41065  29.022  36.381   4.147
72648W        W41066  22.108   3.875   0.247
72649W        W41067  20.768  16.760  13.352
72650W        W41068  11.298  43.339  13.398
72651W        W41069   1.429  35.911   4.731
72652W        W41070  20.047  39.418   2.273
72653W        W41071  38.870   3.253   2.368
72654W        W41072  28.111  10.859   3.747
72655W        W41073  33.881   4.810  11.563
72656W        W41074  27.517   8.700  14.786
72657W        W41075  29.093  28.067  14.790
72658W        W41076  21.180   6.348  11.433
72659W        W41077  24.675   6.221   3.805
72660W        W41078  16.307  29.600   2.199
72661W        W41079   9.679   3.440  12.861
72662W        W41080  44.406  28.597   1.237
72663W        W41081  39.429  11.761   4.640
72664W        W41082  24.572  11.721   4.741
72665W        W41083  15.602  12.144  11.373
72666W        W41084   3.817  35.953  10.005
72667W        W41085  14.311   5.279  12.400
72668W        W41086  17.642  11.223   0.356
72669W        W41087  21.512  24.684  10.146
72670W        W41088  33.588   4.923   0.446
72671W        W41089   2.930  29.631  13.958
72672W        W41090  39.335  27.634  12.847
72673W        W41091  29.432  23.503   4.157
72674W        W41092  38.379  31.996   1.434
72675W        W41093   3.419   0.250   9.986
72676W        W41094  28.005   7.372  12.840
72677W        W41095  11.164  22.679   2.289
72678W        W41096  37.981  31.116   0.250
72679W        W41097  25.597  13.186   0.405
72680W        W41098  12.843   5.418  11.992
72681W        W41099  22.239  19.732  10.558
72682W        W41100  22.203  15.201  11.886
72683W        W41101  29.440   1.967  14.801
72684W        W41102  29.169  37.388   4.788
72685W        W41103   9.668  17.754  14.965
72686W        W41104   7.237   2.249  12.377
72687W        W41105  14.715  22.175   0.381
72688W        W41106  16.703  33.614  14.390
72689W        W41107  18.615  23.568  11.396
72690W        W41108  22.021   4.339   3.221
72691W        W41109  41.802  26.040   3.207
72692W        W41110  21.571  16.153   0.396
72693W        W41111  13.746  16.644   4.346
72694W        W41112  32.929  22.619  11.507
72695W        W41113  18.081  11.292  11.567
72696W        W41114  26.488   9.151   4.764
72697W        W41115   3.807  16.117  14.806
72698W        W41116  31.012  40.960   2.200
72699W        W41117  42.967  11.863  11.560
72700W        W41118  31.097  21.132  12.021
72701W        W41119  15.657  24.692  14.344
72702W        W41120  10.638  35.864   5.293
72703W        W41121  18.715  15.721  10.478
72704W        W41122  34.039  24.212  13.944
72705W        W41123  35.517  27.645   2.853
72706W        W41124  42.368  41.033  13.944
72707W        W41125   9.169  40.421  13.957
72708W        W41126  33.121  43.919   4.737
72709W        W41127  38.852  27.506   1.872
72710W        W41128   0.860   6.759   2.249
72711W        W41129  10.141  37.470   0.732
72712W        W41130  13.231  33.474  10.404
72713W        W41131  15.200  14.615  11.464
72714W        W41132  42.356  39.967   4.600
72715W        W41133   5.753  39.810   1.245
72716W        W41134   0.889   2.748   3.764
72717W        W41135  15.673   0.429   3.202
72718W        W41136   4.701  37.560  11.416
72719W        W41137  39.543   2.799   2.790
72720W        W41138  37.467  10.829  14.437
72721W        W41139   9.767  42.427   3.284
72722W        W41140  36.355  12.169  11.004
72723W        W41141  21.667  14.597   3.276
72724W        W41142  22.161  28.665   2.665
72725W        W41143   4.287   2.861  13.421
72726W        W41144  14.297  26.076   3.173
72727W        W41145   4.374  31.467  14.411
72728W        W41146   1.783  29.543  12.976
72729W        W41147   5.385  12.748  13.024
72730W        W41148  36.547  37.438   4.612
72731W        W41149   1.771   8.180  10.574
72732W        W41150  10.333  37.031   4.777
72733W        W41151   0.387  23.616   5.155
72734W        W41152  20.035  40.377  12.496
72735W        W41153   2.767  12.646   3.327
72736W        W41154   4.716  42.921   9.998
72737W        W41155  15.663  41.999  14.431
72738W        W41156   4.252  12.212   3.165
72739W        W41157  24.091   6.275   2.267
72740W        W41158  16.582  22.711   4.144
72741W        W41159  27.137  33.029  14.971
72742W        W41160  41.039  44.300   2.667
72743W        W41161  20.742  25.998   1.279
72744W        W41162   9.661  13.715  13.816
72745W        W41163   1.335  25.009  11.567
72746W        W41164   3.917  32.000   3.740
72747W        W41165  40.400  33.044  13.444
72748W        W41166  25.712  29.446   3.760
72749W        W41167  32.015  13.757  14.844
72750W        W41168  38.823  25.559   2.388
72751W        W41169  26.553   1.419  14.020
72752W        W41170  29.453  19.270  10.408
72753W        W41171  24.136  23.200  11.602
72754W        W41172  13.742  31.402  12.468
72755W        W41173   4.427  31.523   4.347
72756W        W41174  41.405  13.239  12.540
72757W        W41175   1.914  41.308  12.529
72758W        W41176  44.393  18.222   2.385
72759W        W41177  16.645   9.890  11.390
72760W        W41178  39.987  17.594  12.006
72761W        W41179  17.674   8.672   3.820
72762W        W41180  24.170  27.586  14.007
72763W        W41181  11.292  21.108   2.762
72764W        W41182  20.749  43.936   0.421
72765W        W41183  17.691  12.705   0.478
72766W        W41184  38.548  14.816   3.348
72767W        W41185   8.714  39.388  14.292
72768W        W41186  11.318  22.105  13.954
72769W        W41187  23.002  34.992   1.788
72770W        W41188  22.644   1.790   3.387
72771W        W41189  19.174  17.573  11.600
72772W        W41190   0.834  36.346   4.608
72773W        W41191  27.962  12.191  12.951
72774W        W41192  44.372  40.536   3.369
72775W        W41193   2.427  18.721  14.956
72776W        W41194  41.524  17.733  14.387
72777W        W41195  36.052  39.500   5.114
72778W        W41196  27.115   7.319   4.301
72779W        W41197  17.682  42.407   0.765
72780W        W41198  18.118   3.436  14.512
72781W        W41199  21.743   7.368   3.715
72782W        W41200   5.374  39.445  11.892
72783W        W41201  37.851  30.453   3.175
72784W        W41202  21.088  36.001   1.430
72785W        W41203  10.315  19.664   0.917
72786W        W41204  27.102  11.326  14.385
72787W        W41205   9.215  24.671  10.454
72788W        W41206  17.657  14.680  13.530
72789W        W41207  30.916   1.826  10.072
72790W        W41208   5.391  36.371   4.665
72791W        W41209  13.845  40.378  14.477
72792W        W41210  38.549   0.768  14.897
72793W        W41211  26.514  30.036   0.836
72794W        W41212   2.241  28.107  11.060
72795W        W41213  12.805  12.772   0.805
72796W        W41214  13.331  38.555  14.458
72797W        W41215  24.622  21.174  11.509
72798W        W41216  28.135  41.992   4.737
72799W        W41217  34.409   9.294  11.893
72800W        W41218  30.502  35.905   4.184
72801W        W41219   1.866  12.849   1.377
72802W        W41220  23.594   3.293   0.434
72803W        W41221  42.886   9.393  13.359
72804W        W41222  12.787  25.471   2.859
72805W        W41223  33.506  33.429  12.506
72806W        W41224   4.381  28.497  12.876
72807W        W41225  29.945   8.817  12.483
72808W        W41226  15.655  16.658  11.868
72809W        W41227  24.160   0.938   3.199
72810W        W41228  30.046  27.582   0.763
72811W        W41229  42.512   2.843  13.535
72812W        W41230   7.220  11.860  11.012
72813W        W41231  33.445  28.966  11.915
72814W        W41232  39.880  39.509   1.869
72815W        W41233  10.306  41.958   4.835
72816W        W41234  21.514  41.903  13.311
72817W        W41235  15.113  17.088  14.404
72818W        W41236   6.821  17.647   2.225
72819W        W41237  40.899  22.643   4.121
72820W        W41238  20.529   7.237   1.437
72821W        W41239   4.238  16.811   1.851
72822W        W41240  33.023  13.283   1.284
72823W        W41241  12.310  14.152   5.233
72824W        W41242  28.043  22.524  12.994
72825W        W41243  39.939  21.170  14.294
72826W        W41244  21.589  23.733   0.372
72827W        W41245  35.102  34.593   4.655
72828W        W41246  41.828  33.933  11.562
72829W        W41247  44.440   0.346   3.306
72830W        W41248  21.055  41.946  14.283
72831W        W41249  12.724   4.900  11.541
72832W        W41250  15.628  17.654  13.429
72833W        W41251   3.352  11.742   0.767
72834W        W41252  30.622  43.338  13.850
72835W        W41253  32.543   6.792  11.903
72836W        W41254   0.475  19.169   1.333
72837W        W41255  44.990  32.635  11.578
72838W        W41256  23.587  42.457  13.054
72839W        W41257  14.314  14.286  10.510
72840W        W41258  26.980  20.679  13.914
72841W        W41259  24.074  24.716  12.494
72842W        W41260  12.773  37.844  13.982
72843W        W41261  36.444  29.083   3.152
72844W        W41262  33.488   6.234  13.420
72845W        W41263  10.637  19.711   4.664
72846W        W41264  16.099  17.106  11.957
72847W        W41265   9.292  21.092  12.864
72848W        W41266  40.350  24.111  11.994
72849W        W41267  41.006  13.305   2.718
72850W        W41268  16.228  21.667   3.234
72851W        W41269   8.353   5.865  12.823
72852W        W41270  21.560   6.807   4.639
72853W        W41271  20.684  21.545   2.675
72854W        W41272  34.079  43.345   3.289
72855W        W41273  23.126  25.964   4.211
72856W        W41274   7.666   0.373  13.869
72857W        W41275  43.459  16.735   0.957
72858W        W41276  13.343   0.267   4.161
72859W        W41277  19.252  15.822  11.446
72860W        W41278  42.373  43.504  14.918
72861W        W41279  22.523  19.584  14.904
72862W        W41280  33.926  39.930   0.831
72863W        W41281   5.692   9.856   0.791
72864W        W41282  16.318  35.102  12.025
72865W        W41283  29.662  30.110   0.904
72866W        W41284  22.548  41.355  12.389
72867W        W41285  19.698  23.672  11.971
72868W        W41286  37.482   1.437  14.779
72869W        W41287   7.809   0.326  13.519
72870W        W41288  19.769   1.334   1.763
72871W        W41289   4.367  16.614   4.795
72872W        W41290  41.350  21.109  12.556
72873W        W41291  10.183   0.492  12.531
72874W        W41292  41.923  22.231   1.749
72875W        W41293  40.363   6.232  12.454
72876W        W41294  42.319  40.484   0.823
72877W        W41295  41.381  41.367  14.401
72878W        W41296  26.492  28.939  12.917
72879W        W41297   2.761  10.374   3.350
72880W        W41298  35.972  15.650  11.072
72881W        W41299   4.225  20.205   0.805
72882W        W41300  30.551  16.300  10.511
72883W        W41301  37.553  26.073  12.558
72884W        W41302  20.151  13.219  13.325
72885W        W41303   4.943  12.169  10.533
72886W        W41304  37.386  23.202  12.011
72887W        W41305  26.984  44.826  10.617
72888W        W41306  31.404  23.531   2.858
72889W        W41307  21.211  11.679   3.647
72890W        W41308  13.208  39.445   1.757
72891W        W41309  31.037  20.740  10.623
72892W        W41310  40.517  32.117  14.478
72893W        W41311  17.173   2.936  10.524
72894W        W41312  12.840   0.860   2.199
72895W        W41313  37.858  13.141   1.301
72896W        W41314   9.878   5.882   2.263
72897W        W41315   0.267   5.734  11.979
72898W        W41316   0.838  25.137   5.299
72899W        W41317  15.637  29.507   1.857
72900W        W41318  28.135  20.146  10.546
72901W        W41319  12.116  32.492  14.464
72902W        W41320  31.903  19.176  14.773
72903W        W41321  42.959  20.639  13.405
72904W        W41322  13.126  40.511   4.718
72905W        W41323   9.693  33.959  12.968
72906W        W41324   5.433  39.487  12.895
72907W        W41325  39.332  37.566   0.266
72908W        W41326  14.309  33.439  12.354
72909W        W41327  39.905  32.013  14.479
72910W        W41328  18.682   6.860  14.819
72911W        W41329  30.023   2.236  11.995
72912W        W41330  21.025  38.384  14.511
72913W        W41331   2.453  35.536   3.375
72914W        W41332  26.021  26.604  10.895
72915W        W41333  31.129   8.807   2.384
72916W        W41334   7.236  10.286  12.562
72917W        W41335  10.145  16.721  14.326
72918W        W41336  36.003  36.487   2.364
72919W        W41337   9.701  13.687  11.534
72920W        W41338  39.969  20.596  13.507
72921W        W41339  24.995  18.723  10.575
72922W        W41340  24.694   8.210  11.102
72923W        W41341  16.669  41.943  10.955
72924W        W41342   1.455  38.908  13.324
72925W        W41343  19.040   8.355  14.279
72926W        W41344  24.157  24.596  11.528
72927W        W41345   0.808  28.980   0.871
72928W        W41346  12.127  27.622  14.846
72929W        W41347  43.886  26.206   1.876
72930W        W41348  41.041   2.854  14.760
72931W        W41349  31.062  15.754  14.011
72932W        W41350   5.304  12.649  14.949
72933W        W41351  15.265  27.612  13.925
72934W        W41352  34.897   2.340  13.839
72935W        W41353   4.735  20.590  12.042
72936W        W41354  30.573  42.026   2.690
72937W        W41355   1.361  24.619   1.380
72938W        W41356   6.899  16.799  14.368
72939W        W41357  40.940  21.619  12.384
72940W        W41358  13.226   8.389  14.322
72941W        W41359  44.333   9.824  13.014
72942W        W41360   6.695  18.775   3.209
72943W        W41361  18.707  44.412  13.029
72944W        W41362  17.244   4.790  10.144
72945W        W41363   7.181  29.058  13.828
72946W        W41364   0.332   4.372  14.451
72947W        W41365  39.545  24.720   4.671
72948W        W41366  29.108  40.335   1.774
72949W        W41367  43.507  43.803  14.462
72950W        W41368   2.301  30.562  14.813
72951W        W41369  17.141  10.367   2.254
72952W        W41370  26.558  37.478   3.340
72953W        W41371  38.478   6.187   2.298
72954W        W41372  30.947  25.005   1.782
72955W        W41373  13.112  24.649  12.549
72956W        W41374  33.592   1.472   3.240
72957W        W41375  21.637  17.571  13.999
72958W        W41376  14.685  42.963  11.419
72959W        W41377  16.275  32.019   2.411
72960W        W41378  29.116  16.228   2.746
72961W        W41379  27.478  13.700   0.869
72962W        W41380  35.900   6.239  14.777
72963W        W41381   3.832  24.600  14.763
72964W        W41382  24.063  15.313  11.110
72965W        W41383   4.431  42.339   0.892
72966W        W41384  38.881  18.232   4.716
72967W        W41385  43.422  44.263  13.905
72968W        W41386  16.224  44.946  14.341
72969W        W41387  30.481  13.154   2.800
72970W        W41388  32.412  34.510  14.439
72971W        W41389  13.176  10.171  14.988
72972W        W41390   8.201  33.110  14.813
72973W        W41391  30.432  42.397   1.724
72974W        W41392   9.346  42.938   2.393
72975W        W41393  19.092  37.522  11.374
72976W        W41394   4.272   0.858   1.434
72977W        W41395  18.149  14.339   5.166
72978W        W41396  21.059  44.915  12.515
72979W        W41397  15.761   3.783  11.445
72980W        W41398  13.108  44.364   2.756
72981W        W41399   8.790  28.939  13.897
72982W        W41400  36.560   8.774   2.345
72983W        W41401  14.124  13.112  12.923
72984W        W41402  18.137  20.155  11.081
72985W        W41403  22.644  15.207   4.246
72986W        W41404   7.339   3.416  14.367
72987W        W41405  41.345  11.231   1.914
72988W        W41406  44.284   3.394   2.778
72989W        W41407  12.670  14.330  12.925
72990W        W41408  44.971  14.243   4.239
72991W        W41409  42.947  17.062   4.315
72992W        W41410  22.722  33.495   3.707
72993W        W41411  26.190  35.873   3.720
72994W        W41412   6.346   2.254   1.694
72995W        W41413   7.181  27.096   1.406
72996W        W41414   4.265  29.017  14.867
72997W        W41415  38.386  42.864  13.513
72998W        W41416  42.784  12.286   2.204
72999W        W41417  34.880   4.740   0.910
73000W        W41418  12.157  34.532   4.220
73001W        W41419  24.178  34.094   2.208
73002W        W41420   9.795   8.774  12.036
73003W        W41421  10.660  36.984   3.353
73004W        W41422  19.760  17.084   0.827
73005W        W41423   7.398   3.337   0.468
73006W        W41424  20.718  30.146   3.152
73007W        W41425   7.855  30.566   5.100
73008W        W41426   0.354  18.569   3.230
73009W        W41427  35.457  27.466  13.942
73010W        W41428  37.455  21.063  14.886
73011W        W41429   9.871  36.948  12.519
73012W        W41430  14.098  22.571  13.047
73013W        W41431  14.300  37.488   2.802
73014W        W41432  35.962   8.289  13.408
73015W        W41433   3.754   8.792  13.893
73016W        W41434  19.771  13.258   1.752
73017W        W41435   4.943  21.628   1.283
73018W        W41436  35.993  44.818  10.986
73019W        W41437  29.146  25.025  14.381
73020W        W41438  18.756  21.649  14.284
73021W        W41439   3.291  24.561   0.935
73022W        W41440  34.388   4.444  11.551
73023W        W41441   2.907   0.408   2.859
73024W        W41442  33.438  22.008   2.849
73025W        W41443  41.372  23.128   3.859
73026W        W41444   0.430  43.957   0.782
73027W        W41445   4.438   7.269  14.856
73028W        W41446  21.701  23.169  14.297
73029W        W41447  10.707  26.556  11.380
73030W        W41448  28.591  10.751   3.798
73031W        W41449   1.445  11.195  12.884
73032W        W41450  20.160  42.992  12.556
73033W        W41451  40.331  13.797   1.290
73034W        W41452  10.384  16.260   2.696
73035W        W41453  37.830  33.429  12.887
73036W        W41454  19.118  39.378   2.806
73037W        W41455  30.001  31.137   4.271
73038W        W41456   5.220   4.216  12.027
73039W        W41457  35.042  38.355   0.476
73040W        W41458  30.132  14.165   0.286
73041W        W41459   3.422  32.059  12.863
73042W        W41460  15.188   8.866  13.049
73043W        W41461   0.922  22.181  14.403
73044W        W41462   6.906   6.767  13.883
73045W        W41463  37.946  27.607  12.052
73046W        W41464  25.532  39.476   2.363
73047W        W41465  11.720  41.499   0.274
73048W        W41466   4.371  33.441   0.804
73049W        W41467  43.465   6.792   2.354
73050W        W41468  14.234  42.822  13.508
73051W        W41469  40.375  40.535   5.216
73052W        W41470  29.992  30.580  12.923
73053W        W41471  29.101  29.126  13.849
73054W        W41472  17.248  44.981   2.357
73055W        W41473   9.361   6.892  13.877
73056W        W41474   6.736  18.153  11.514
73057W        W41475  33.487  28.563   1.820
73058W        W41476  14.788  38.820   3.248
73059W        W41477   9.871  26.988  13.439
73060W        W41478  36.085  20.648   1.339
73061W        W41479   0.324  24.057   1.846
73062W        W41480  23.515   6.371   2.687
73063W        W41481  28.098  20.706   0.453
73064W        W41482  11.179   7.715  12.990
73065W        W41483  26.642  32.119   2.885
73066W        W41484   5.362  24.182  11.102
73067W        W41485  34.889  17.630  12.566
73068W        W41486  18.628  21.065  10.083
73069W        W41487  37.925  39.484   4.790
73070W        W41488  11.852  21.686   1.729
73071W        W41489  31.517  18.168   0.409
73072W        W41490   4.835  19.566   2.834
73073W        W41491  36.992  36.980   5.296
73074W        W41492  36.042  13.122  12.040
73075W        W41493  43.936  30.139  10.644
73076W        W41494  22.622  24.542   0.856
73077W        W41495  17.271  22.208   1.281
73078W        W41496  16.088  34.094   3.249
73079W        W41497  42.777   6.378   4.327
73080W        W41498  20.235  27.673   2.882
73081W        W41499  24.487  14.760  14.946
73082W        W41500  21.746  44.847   3.309
73083W        W41501  21.597  25.187  14.488
73084W        W41502  42.299  38.850   0.946
73085W        W41503  35.103  35.978  12.540
73086W        W41504  34.050  36.992  13.335
73087W        W41505  16.274  43.785  14.829
73088W        W41506  38.427  14.184   1.902
73089W        W41507  26.086   2.855   4.281
73090W        W41508  25.643  24.058   3.660
73091W        W41509  42.982  25.595  13.324
73092W        W41510  38.329  27.669  12.834
73093W        W41511  43.393  34.467   2.790
73094W        W41512  13.311   0.247   2.271
73095W        W41513  14.789  13.690   0.357
73096W        W41514  30.148  25.588  11.434
73097W        W41515  22.510  13.604  13.957
73098W        W41516  19.239   9.845  14.822
73099W        W41517  41.966  22.653   3.673
73100W        W41518  25.201  33.107   0.765
73101W        W41519  14.332  24.612   2.758
73102W        W41520  17.283   6.685  12.472
73103W        W41521  10.779  39.812  14.869
73104W        W41522  41.939   0.282  13.462
73105W        W41523  14.221  35.005  14.852
73106W        W41524  17.168  41.486  12.096
73107W        W41525  28.096  26.056  12.882
73108W        W41526  25.711  14.782   1.704
73109W        W41527  13.771  22.559   0.868
73110W        W41528  35.071  36.886  12.031
73111W        W41529  33.573   9.257  11.110
73112W        W41530  43.998  40.972   2.720
73113W        W41531  39.006   4.738  12.343
73114W        W41532  40.348  29.654  13.448
73115W        W41533  38.545  10.672  11.579
73116W        W41534  10.683  36.975   1.221
73117W        W41535  13.627  16.773  13.966
73118W        W41536  31.021   5.748  13.964
73119W        W41537  13.703  34.370   0.405
73120W        W41538  35.402  14.256  11.867
73121W        W41539  32.398   9.266  12.363
73122W        W41540  30.141   2.799   3.801
73123W        W41541  29.637   9.257  14.846
73124W        W41542  25.982  31.514   3.696
73125W        W41543  10.217   0.460  11.040
73126W        W41544   9.664  41.347  13.880
73127W        W41545  29.645  28.028  11.552
73128W        W41546   2.785   3.903   4.326
73129W        W41547   6.686  36.543  11.094
73130W        W41548  12.218  44.833  10.455
73131W        W41549  31.011   4.304   0.744
73132W        W41550   8.380  37.474   3.258
73133W        W41551  44.371  21.605   0.272
73134W        W41552   7.773  14.623  10.422
73135W        W41553  26.200  36.525   1.928
73136W        W41554   5.690  14.736   0.346
73137W        W41555  41.503  29.433   1.829
73138W        W41556  37.971  33.033  13.011
73139W        W41557  44.496   0.404  12.506
73140W        W41558   6.722  17.722  13.963
73141W        W41559  44.407  36.021   2.297
73142W        W41560  31.061  23.524   1.906
73143W        W41561  43.769  33.499  13.517
73144W        W41562  42.403  17.197   1.385
73145W        W41563  28.639   2.810   2.236
73146W        W41564   4.321  23.000   1.855
73147W        W41565  44.947  21.116   3.352
73148W        W41566  12.856  14.824  11.468
73149W        W41567  22.123  20.767  11.460
73150W        W41568  35.474  26.095   0.245
73151W        W41569  18.090  24.582  10.409
73152W        W41570  39.449  10.702  11.384
73153W        W41571  13.814  23.222   2.416
73154W        W41572   0.914  41.399  11.068
73155W        W41573  25.489  21.633  12.543
73156W        W41574  31.124  35.913  14.881
73157W        W41575   0.987   8.389  12.358
73158W        W41576   7.758  22.659   0.243
73159W        W41577  31.018  26.697   0.292
73160W        W41578  34.388   9.203   2.760
73161W        W41579  31.993  39.050  12.577
73162W        W41580  22.192  29.132   2.901
73163W        W41581  10.296  12.286  11.443
73164W        W41582  35.864  36.991  10.640
73165W        W41583  17.302  23.990  12.393
73166W        W41584  12.695  13.316  11.923
73167W        W41585  13.794   9.663  13.042
73168W        W41586  27.052  25.201  14.942
73169W        W41587  26.162   6.309  11.890
73170W        W41588  14.604  28.099  13.972
73171W        W41589  41.032  24.128  13.488
73172W        W41590  27.052  15.312  11.545
73173W        W41591   5.387  25.088   3.236
73174W        W41592  18.237  24.561   4.774
73175W        W41593  28.151  21.714   3.732
73176W        W41594  42.926  39.914  11.055
73177W        W41595  34.573  39.926  14.824
73178W        W41596  10.827  34.520   1.744
73179W        W41597   9.378  39.372  13.441
73180W        W41598  14.714  33.123  10.469
73181W        W41599   8.675  27.962   1.253
73182W        W41600  28.107  33.119   1.442
73183W        W41601  31.067  20.537   1.330
73184W        W41602  10.867  37.566   0.855
73185W        W41603  40.952   8.741   5.202
73186W        W41604  32.028  33.995   0.737
73187W        W41605  18.640  10.727   4.325
73188W        W41606  21.161   0.916  10.888
73189W        W41607   6.243  13.813  12.942
73190W        W41608  39.340  27.128   1.405
73191W        W41609  14.205   7.325   1.278
73192W        W41610   2.241  16.809   4.149
73193W        W41611  42.866  35.991  10.422
73194W        W41612  27.094  33.417   4.789
73195W        W41613   9.255  18.570   3.222
73196W        W41614  20.554  34.969  11.085
73197W        W41615  11.796   2.802   2.200
73198W        W41616  10.724   4.825  12.078
73199W        W41617  37.351  24.656   1.821
73200W        W41618  39.019   9.821  13.955
73201W        W41619  40.878   6.183   4.116
73202W        W41620   2.242  32.916  11.042
73203W        W41621  44.490   6.309   2.761
73204W        W41622  39.863  32.552   1.880
73205W        W41623  14.732  30.065   4.339
73206W        W41624  22.116  26.505  11.418
73207W        W41625  25.623  21.524   2.402
73208W        W41626   3.253  16.163  14.377
73209W        W41627  16.795  32.980   2.379
73210W        W41628  34.875  10.683  10.492
73211W        W41629  21.065  11.296  12.390
73212W        W41630  33.071  43.427   1.712
73213W        W41631  35.101  14.834   0.381
73214W        W41632   9.674  27.945  13.482
73215W        W41633  44.422  18.256  10.590
73216W        W41634  32.006  35.579  12.516
73217W        W41635  13.717  31.088  11.084
73218W        W41636   9.819   7.262  14.282
73219W        W41637  18.228   6.827   0.876
73220W        W41638   3.378  23.582   2.697
73221W        W41639  25.568  11.855  10.425
73222W        W41640  31.123  33.057  12.407
73223W        W41641   7.905  18.263  11.383
73224W        W41642  37.087  30.481  11.012
73225W        W41643  43.945  13.750  10.617
73226W        W41644  17.744  15.805  11.975
73227W        W41645   3.268   5.265   1.804
73228W        W41646  17.709  15.103  14.288
73229W        W41647  29.121  11.814   4.610
73230W        W41648  32.134  24.619   3.672
73231W        W41649  33.130   8.798  13.439
73232W        W41650   6.265  31.444  11.448
73233W        W41651  25.529  20.192  13.930
73234W        W41652  40.463  29.034   4.699
73235W        W41653  33.922  35.057   0.836
73236W        W41654  33.532  35.031  10.917
73237W        W41655  41.859   0.770   4.188
73238W        W41656  18.073   9.770   1.439
73239W        W41657  18.214  34.488  12.881
73240W        W41658  40.939  42.483  14.287
73241W        W41659  37.943  22.565  12.832
73242W        W41660   9.392  39.476   0.880
73243W        W41661  29.550   3.798  14.808
73244W        W41662  10.737  44.989  14.998
73245W        W41663  21.559  26.978   1.355
73246W        W41664  13.829  31.910  10.520
73247W        W41665  29.010  15.116  13.498
73248W        W41666  32.562  29.996  11.059
73249W        W41667   9.704   8.325   1.275
73250W        W41668   2.929  10.762   1.366
73251W        W41669  27.013   5.333   2.368
73252W        W41670  24.568  44.479   3.189
73253W        W41671   5.213  18.105  11.930
73254W        W41672  44.975  38.823  13.455
73255W        W41673   3.395   4.386   0.871
73256W        W41674  30.652  15.305  14.915
73257W        W41675   0.854  36.393  11.111
73258W        W41676  26.114   1.969  11.875
73259W        W41677   0.801  44.805  13.397
73260W        W41678  44.498  22.624   2.753
73261W        W41679   2.227  10.241   4.339
73262W        W41680  19.604  33.573  12.953
73263W        W41681  36.931  11.271  12.956
73264W        W41682   3.274  40.823   2.282
73265W        W41683   8.326  23.166  12.891
73266W        W41684  36.407  37.372  10.578
73267W        W41685  43.315  12.128  13.377
73268W        W41686   4.219  15.204   4.764
73269W        W41687  19.235  37.440  10.932
73270W        W41688  16.756  32.952  13.389
73271W        W41689  43.423  11.631   1.346
73272W        W41690   2.227  39.550   3.239
73273W        W41691  43.396  38.463   9.478
73274W        W41692   2.247  20.662  14.790
73275W        W41693  30.434  44.902  13.479
73276W        W41694  25.582  17.275   0.416
73277W        W41695  41.889  28.486  10.405
73278W        W41696  37.837  14.147   3.637
73279W        W41697  26.186   5.371   3.784
73280W        W41698  37.351  29.531   2.883
73281W        W41699  13.789  13.263  11.000
73282W        W41700   2.918  12.117  11.987
73283W        W41701  33.114  10.780   4.250
73284W        W41702  24.138  40.004  12.061
73285W        W41703  23.637  17.068  14.764
73286W        W41704  27.124  22.204   0.309
73287W        W41705  32.945  39.845  11.371
73288W        W41706  36.947  24.640   2.787
73289W        W41707   4.349  34.604   4.597
73290W        W41708  16.162   4.284  12.544
73291W        W41709  32.995  34.478   4.181
73292W        W41710  43.893   9.738   0.428
73293W        W41711  13.657   4.844   4.800
73294W        W41712  27.145   0.476   3.272
73295W        W41713  16.726  25.583   4.721
73296W        W41714  43.471   4.409  10.497
73297W        W41715  31.414  42.776   1.777
73298W        W41716  12.748   3.907   3.369
73299W        W41717  16.182   4.425   1.359
73300W        W41718  14.637  19.226  12.858
73301W        W41719  35.574   0.366   3.243
73302W        W41720  12.700   8.847  10.584
73303W        W41721  12.247  42.352   3.850
73304W        W41722  32.602  40.889  12.544
73305W        W41723  30.148   3.327   3.329
73306W        W41724  41.294  35.079   0.403
73307W        W41725   2.431   4.856   3.666
73308W        W41726  12.270   9.876   2.675
73309W        W41727  19.652  12.783  14.360
73310W        W41728  24.505  40.407   0.458
73311W        W41729   7.229  35.365   0.245
73312W        W41730  18.064  20.084  12.536
73313W        W41731  10.184  26.561  14.510
73314W        W41732  31.116   3.385   5.306
73315W        W41733  10.845   6.888  12.848
73316W        W41734  24.691   2.854  14.889
73317W        W41735  25.133   9.669  11.375
73318W        W41736  24.707   0.277  13.317
73319W        W41737  27.020   6.698  10.609
73320W        W41738  31.037   3.742   3.353
73321W        W41739  16.635  26.510  13.042
73322W        W41740   9.200  40.935   1.332
73323W        W41741  20.709  23.699   2.764
73324W        W41742  41.493   4.361  10.922
73325W        W41743   7.342  43.395  11.925
73326W        W41744  25.545   3.914   3.274
73327W        W41745  39.907  22.175  11.534
73328W        W41746  29.998  39.452  12.847
73329W        W41747  20.191  13.606  11.421
73330W        W41748   4.876  16.143  10.575
73331W        W41749  37.008  19.043  12.434
73332W        W41750  39.368  39.835   1.930
73333W        W41751  18.057  19.683  11.531
73334W        W41752  39.438  43.447  12.897
73335W        W41753  37.907   8.734   9.954
73336W        W41754  34.462  38.965   5.797
73337W        W41755  41.330  38.836   9.514
73338W        W41756  18.610  39.506  10.555
73339W        W41757  20.671  16.172   1.413
73340W        W41758  42.302  35.079  14.381
73341W        W41759  30.433  31.080   3.254
73342W        W41760   4.403   4.407  10.934
73343W        W41761  31.542  30.023  11.609
73344W        W41762  42.303  27.981  12.573
73345W        W41763  10.636   2.352   0.466
73346W        W41764  32.007  26.591   2.418
73347W        W41765   3.846  16.108  11.376
73348W        W41766  44.405  35.487  14.405
73349W        W41767  40.443  22.158  14.798
73350W        W41768  15.663   8.213   1.313
73351W        W41769  20.620   2.378   4.177
73352W        W41770   5.357  34.570   4.124
73353W        W41771   8.886  31.513  10.466
73354W        W41772   2.302  17.072  14.870
73355W        W41773  24.589  19.072   1.916
73356W        W41774   9.214  10.645  11.119
73357W        W41775  15.716  24.488  13.974
73358W        W41776   7.416   6.253   2.393
73359W        W41777  20.641  36.901   0.911
73360W        W41778  34.983  36.497  13.914
73361W        W41779  36.437  28.570   4.219
73362W        W41780  27.012   8.221  13.498
73363W        W41781  21.718  38.949   2.389
73364W        W41782  31.923  39.827   3.838
73365W        W41783  41.460  21.248  14.031
73366W        W41784  41.810  43.482   4.164
73367W        W41785   4.775  25.637   5.242
73368W        W41786   1.942   2.455   1.839
73369W        W41787  40.436  26.517   4.134
73370W        W41788  18.595   3.332   3.802
73371W        W41789  34.957  35.542  13.528
73372W        W41790  21.035  32.985  14.798
73373W        W41791  17.734  18.242  12.416
73374W        W41792  11.337  41.293   1.925
73375W        W41793  30.116  38.359   2.196
73376W        W41794  20.048   9.682  11.087
73377W        W41795  33.596  20.629   0.835
73378W        W41796  37.478  36.574  14.315
73379W        W41797  20.702  17.072  14.493
73380W        W41798  44.438  42.010  12.049
73381W        W41799  39.029  31.576  10.612
73382W        W41800  39.813  10.232  12.521
73383W        W41801   8.679  22.060  13.063
73384W        W41802  20.620  23.559   3.775
73385W        W41803  29.945  37.550  13.386
73386W        W41804  21.575  36.468  14.460
73387W        W41805   9.875  21.593  13.398
73388W        W41806  14.236  15.275   2.861
73389W        W41807   4.447   1.466   4.313
73390W        W41808  31.548  36.401  12.054
73391W        W41809  44.386  33.386  13.400
73392W        W41810  39.852  12.741  13.373
73393W        W41811   8.723  30.998  11.536
73394W        W41812  41.470  12.659  13.889
73395W        W41813  42.333  39.371   3.277
73396W        W41814  31.640  33.958   3.829
73397W        W41815  12.161  42.967  10.944
73398W        W41816  39.358  41.302   2.726
73399W        W41817  30.991  23.118  11.548
73400W        W41818  39.535   5.293  10.550
73401W        W41819  44.340  41.321  14.284
73402W        W41820   1.948  41.375   0.957
73403W        W41821  18.206  43.297  12.965
73404W        W41822  15.272   1.252  14.394
73405W        W41823  16.718  19.534  14.485
73406W        W41824  32.002  38.074  14.860
73407W        W41825  32.939  18.206   2.190
73408W        W41826  15.640  35.038  11.449
73409W        W41827   9.682  16.618  12.067
73410W        W41828  38.824  12.203   4.277
73411W        W41829   8.352  30.640   1.248
73412W        W41830   6.416  43.871   0.422
73413W        W41831  44.928   2.901  12.978
73414W        W41832  15.328  20.124   1.761
73415W        W41833  43.293  36.403  14.798
73416W        W41834  11.753  36.001   4.324
73417W        W41835  31.551  17.654   2.199
73418W        W41836  43.965  33.624  10.915
73419W        W41837  21.141  44.901   2.841
73420W        W41838   0.823   9.206  13.028
73421W        W41839  41.968  10.337   3.680
73422W        W41840  12.154  33.479  11.972
73423W        W41841  40.485  22.195   0.851
73424W        W41842   0.477  25.607  11.502
73425W        W41843  20.077  15.750  14.314
73426W        W41844  34.895  36.546  12.376
73427W        W41845  37.834  19.092  12.444
73428W        W41846   9.188  19.271   0.935
73429W        W41847   3.320  36.524   5.266
73430W        W41848  11.139   2.741   4.275
73431W        W41849  28.153  10.208  12.551
73432W        W41850  22.508  17.144  14.024
73433W        W41851  14.778  42.424   1.794
73434W        W41852  36.417   1.790  13.967
73435W        W41853  12.279   1.251   1.272
73436W        W41854  31.943  14.793  12.415
73437W        W41855  16.599  17.661   3.741
73438W        W41856  28.019  16.289   0.446
73439W        W41857   9.849   3.813   3.735
73440W        W41858   1.346  23.036   4.645
73441W        W41859  28.102  12.822   1.729
73442W        W41860  38.526  18.223   4.677
73443W        W41861   9.880  19.554   3.823
73444W        W41862  27.473  31.932  13.326
73445W        W41863  31.031   3.913   3.797
73446W        W41864  33.021  38.959   2.218
73447W        W41865  35.556   6.680   1.324
73448W        W41866  13.241  32.994  10.924
73449W        W41867  27.484   5.775   0.934
73450W        W41868   0.466  21.046  14.455
73451W        W41869   4.739   8.680  13.454
73452W        W41870  10.207  27.525  14.503
73453W        W41871  25.012  35.548  13.898
73454W        W41872  13.332  24.691  13.324
73455W        W41873  20.156  34.052   4.639
73456W        W41874   2.327  23.049   4.607
73457W        W41875  10.170   7.370  13.360
73458W        W41876   6.836   2.890   2.883
73459W        W41877  13.735  21.690   1.419
73460W        W41878  32.439  25.987  14.351
73461W        W41879  14.184   0.894   4.711
73462W        W41880  41.954  31.587  14.811
73463W        W41881  32.584  41.895   4.181
73464W        W41882  34.962  15.717  13.830
73465W        W41883   7.728  10.180  12.856
73466W        W41884  32.509  18.701  12.916
73467W        W41885   4.934  31.932  13.346
73468W        W41886   5.907  31.514   0.843
73469W        W41887  24.171  28.100   3.759
73470W        W41888  42.329  42.842  11.530
73471W        W41889   6.340   4.705   4.808
73472W        W41890   4.768  17.234   3.791
73473W        W41891  19.629  22.039  12.019
73474W        W41892  42.801  26.653   3.738
73475W        W41893  32.958  37.353   0.949
73476W        W41894  40.462  23.705   2.803
73477W        W41895  26.527  18.555   1.834
73478W        W41896  12.339  42.315   2.209
73479W        W41897  27.059  34.580   2.855
73480W        W41898  31.530  28.986  13.491
73481W        W41899  41.841  36.541   3.164
73482W        W41900  29.937  24.084   1.882
73483W        W41901  10.179  42.424  11.099
73484W        W41902  12.789  30.162  13.020
73485W        W41903  16.169   2.772  13.010
73486W        W41904  23.075  21.197  10.463
73487W        W41905   1.768   9.870  12.426
73488W        W41906   6.259  35.528  13.347
73489W        W41907  12.173  10.678  13.516
73490W        W41908   3.334  20.736  14.000
73491W        W41909  42.802   4.940   0.765
73492W        W41910  36.415   7.767  14.843
73493W        W41911  22.679  20.738   0.280
73494W        W41912  37.343   3.393   4.341
73495W        W41913   8.780  41.876  11.022
73496W        W41914  37.452   7.178  14.507
73497W        W41915   2.450  33.089   3.305
73498W        W41916  35.994  43.864  11.996
73499W        W41917  15.110  27.585   3.741
73500W        W41918  23.733  11.236  12.994
73501W        W41919  43.330  33.470  10.086
73502W        W41920  25.093  23.556   1.239
73503W        W41921   2.240  36.047   0.963
73504W        W41922   4.275  24.621  14.471
73505W        W41923  23.616  30.037   3.700
73506W        W41924  15.593  36.584   0.298
73507W        W41925  37.024  22.076   4.764
73508W        W41926   3.255  19.636  12.978
73509W        W41927   8.165  35.994   0.924
73510W        W41928  31.518   9.769   1.363
73511W        W41929  14.686  44.815  13.967
73512W        W41930  16.574  43.445   4.598
73513W        W41931  33.098  13.727  14.015
73514W        W41932  27.651  37.943  12.354
73515W        W41933  12.312  36.978  13.417
73516W        W41934  40.803  30.163   4.625
73517W        W41935  37.851  43.423  11.078
73518W        W41936  42.333  13.789  11.873
73519W        W41937   5.776  32.029  12.479
73520W        W41938  19.238  43.384   0.746
73521W        W41939  42.901  22.195   4.136
73522W        W41940  21.243  37.484   3.277
73523W        W41941  38.426  40.858   4.304
73524W        W41942  35.085  32.462   3.849
73525W        W41943  10.833   4.909  10.964
73526W        W41944  21.722  12.671  11.004
73527W        W41945  37.010   4.871   0.829
73528W        W41946   5.910   4.326   4.141
73529W        W41947  15.795   1.861   1.362
73530W        W41948   4.265  13.649  14.010
73531W        W41949   9.350   1.737   2.269
73532W        W41950   7.268   7.911  13.478
73533W        W41951  26.462  40.355  14.944
73534W        W41952  30.527  14.827   0.345
73535W        W41953  23.537  23.208   1.876
73536W        W41954   8.850  40.838  12.967
73537W        W41955   1.865  31.606   2.184
73538W        W41956  26.488  31.608   3.669
73539W        W41957  27.114   9.751  12.898
73540W        W41958  38.949  23.088   0.406
73541W        W41959  33.611  11.794  14.999
73542W        W41960  39.938  33.575   2.683
73543W        W41961  18.778   8.694  14.923
73544W        W41962  33.937  33.398  14.442
73545W        W41963  11.740  43.898  14.464
73546W        W41964  41.437  14.679   2.258
73547W        W41965  29.572  35.949   0.326
73548W        W41966  24.008  23.184  13.818
73549W        W41967  39.523  14.154  12.997
73550W        W41968  29.001  31.507  14.324
73551W        W41969  25.063  26.540  12.064
73552W        W41970   5.305  27.541   0.743
73553W        W41971  32.970  27.165   4.631
73554W        W41972   6.868  41.966   1.234
73555W        W41973  20.658  34.596  13.924
73556W        W41974  26.154  26.553  11.493
73557W        W41975  29.047  17.789   2.689
73558W        W41976   1.946  18.097   0.353
73559W        W41977  20.109   8.241  11.378
73560W        W41978  37.506  44.398  10.409
73561W        W41979  36.527  40.927   2.206
73562W        W41980  21.594  35.582  12.845
73563W        W41981  41.321  17.653   2.301
73564W        W41982  10.255   2.244  12.452
73565W        W41983   1.434   1.878   4.217
73566W        W41984  23.013  26.572   4.291
73567W        W41985  20.134   8.171   1.764
73568W        W41986  21.576  15.318   0.820
73569W        W41987  29.537   8.275   5.203
73570W        W41988  28.459  11.698  13.491
73571W        W41989  40.470  44.302   4.638
73572W        W41990  29.998  17.634   3.282
73573W        W41991  13.793  40.016  12.981
73574W        W41992   8.225  41.351   4.146
73575W        W41993  40.410  44.477  14.981
73576W        W41994  14.597  29.971  10.493
73577W        W41995  19.196  30.013  11.915
73578W        W41996   4.774   7.325   4.316
73579W        W41997   3.955  18.111   1.282
73580W        W41998  38.930  17.735  12.940
73581W        W41999  30.621  28.598  12.352
73582W        W42000  20.214  32.996   0.319
73583W        W42001  20.524  27.545  12.518
73584W        W42002   1.276   2.895  12.362
73585W        W42003   4.349   6.267  10.433
73586W        W42004  43.279  14.317   2.297
73587W        W42005   7.208   7.743   0.288
73588W        W42006  29.442  14.227  14.023
73589W        W42007  18.054  28.677   1.797
73590W        W42008  22.101  43.944   1.741
73591W        W42009   9.738   0.362   2.682
73592W        W42010  10.651  30.493   4.165
73593W        W42011  44.329  12.357   1.706
73594W        W42012  12.334  26.526   9.967
73595W        W42013  15.129  23.679  11.545
73596W        W42014  34.461  43.376   1.337
73597W        W42015  43.510  29.630   4.345
73598W        W42016  38.536  22.666   3.708
73599W        W42017   3.921  18.607  11.971
73600W        W42018  39.061  17.079  11.604
73601W        W42019   4.434  21.746  12.384
73602W        W42020  44.463  33.586   1.292
73603W        W42021   9.280  30.538  11.385
73604W        W42022   8.234  23.237   1.310
73605W        W42023  28.675  13.715  13.904
73606W        W42024  26.667  43.007   3.866
73607W        W42025  19.143  28.539  10.452
73608W        W42026   1.304  16.217   0.795
73609W        W42027   8.362  34.018   2.707
73610W        W42028  44.001   2.392   3.337
73611W        W42029  15.593  10.352  11.426
73612W        W42030  11.216  34.917   1.305
73613W        W42031  41.994  43.857   3.266
73614W        W42032  19.183  15.787   4.743
73615W        W42033  40.995   4.266  11.109
73616W        W42034  25.674   7.778  10.953
73617W        W42035  39.953  21.022  12.459
73618W        W42036   2.744  31.138   1.810
73619W        W42037   0.263  42.523  14.884
73620W        W42038  29.432  11.319  13.002
73621W        W42039  25.493  32.503   3.667
73622W        W42040  21.618   8.727   4.757
73623W        W42041   8.873  23.603  10.456
73624W        W42042  41.469  16.631   4.193
73625W        W42043  23.608   4.879   0.786
73626W        W42044  17.662  25.493   0.263
73627W        W42045  31.949  21.656   4.600
73628W        W42046  12.144   6.255  11.870
73629W        W42047  36.921   1.863  13.412
73630W        W42048   0.319   1.329  13.445
73631W        W42049   0.334  22.710  14.436
73632W        W42050  12.320  42.891  13.914
73633W        W42051  16.193  39.333   1.836
73634W        W42052   8.677  14.702   1.735
73635W        W42053  21.054  21.630   1.899
73636W        W42054  14.713  43.339   1.374
73637W        W42055  18.752  15.190   4.740
73638W        W42056  18.671  44.878   2.325
73639W        W42057  39.059  25.988  12.375
73640W        W42058   3.269  40.311   1.230
73641W        W42059  38.380  27.090   1.217
73642W        W42060  15.222  13.645  12.506
73643W        W42061  19.664  32.062  10.627
73644W        W42062   6.696  36.915   3.244
73645W        W42063   5.241  25.680   1.274
73646W        W42064   8.248  44.377   0.395
73647W        W42065  15.681  18.147  10.466
73648W        W42066  21.690  18.604   2.329
73649W        W42067   7.247  19.684   0.471
73650W        W42068  23.108  19.610  11.545
73651W        W42069  30.499  40.453   4.658
73652W        W42070  32.525  23.110  11.484
73653W        W42071  31.636  37.986   3.662
73654W        W42072   6.746  41.890  14.871
73655W        W42073  16.579  25.691   2.669
73656W        W42074  14.104  17.066   0.773
73657W        W42075  14.338  29.669  12.417
73658W        W42076   9.260   8.319  13.402
73659W        W42077  42.371  17.794   3.285
73660W        W42078  11.217   7.814   4.653
73661W        W42079  30.977  19.262   4.628
73662W        W42080  40.421   4.917  14.882
73663W        W42081   0.810  22.658  10.479
73664W        W42082  18.776  11.137   1.214
73665W        W42083  22.568  37.494   0.847
73666W        W42084   8.692  29.977  10.430
73667W        W42085   6.849   8.695  14.834
73668W        W42086  17.124  23.211  11.026
73669W        W42087   3.876  28.132   3.747
73670W        W42088  15.131   4.726  10.537
73671W        W42089  32.069  21.227  12.903
73672W        W42090  32.120  31.495  12.041
73673W        W42091  32.589  37.397  11.992
73674W        W42092   6.330  10.766  12.392
73675W        W42093  24.032  40.527   5.104
73676W        W42094  24.985  27.629   3.684
73677W        W42095   6.412  14.132  14.955
73678W        W42096  17.149  25.142  10.943
73679W        W42097  19.285  10.158   3.290
73680W        W42098  23.066  43.312   3.795
73681W        W42099  42.514  33.121   3.850
73682W        W42100  21.189   3.852  12.401
73683W        W42101  41.537   4.706  11.471
73684W        W42102  11.347   0.770   2.815
73685W        W42103   4.875  32.605   5.271
73686W        W42104  22.522  13.295   1.740
73687W        W42105   9.389  30.440  10.108
73688W        W42106  31.464   0.841  12.994
73689W        W42107  24.189  17.178  14.501
73690W        W42108  35.423  35.459   3.768
73691W        W42109  24.223   3.286   0.259
73692W        W42110  16.728   9.372  11.916
73693W        W42111  36.875  19.635  12.035
73694W        W42112  33.081  14.095   1.764
73695W        W42113  22.027   3.347   0.858
73696W        W42114   1.783   0.292  12.060
73697W        W42115  37.060  39.424  11.452
73698W        W42116  12.798  15.222  12.040
73699W        W42117  32.417  17.093   2.414
73700W        W42118   6.702  18.718   0.898
73701W        W42119  38.875  19.697  10.926
73702W        W42120  22.527  44.348  12.939
73703W        W42121  11.214  22.698  13.811
73704W        W42122  37.998  24.704  11.597
73705W        W42123  11.833  22.250  14.792
73706W        W42124  29.516  43.972   0.378
73707W        W42125  17.611  40.547   2.881
73708W        W42126  34.598  23.082  10.588
73709W        W42127  22.211   2.804   2.861
73710W        W42128   3.402   6.851  12.500
73711W        W42129  15.114   7.254   1.299
73712W        W42130  41.344  10.671   3.839
73713W        W42131   6.910   0.815   9.964
73714W        W42132  37.359   6.372  13.042
73715W        W42133  28.569  22.193  13.910
73716W        W42134   6.906  39.527   3.180
73717W        W42135   2.912  40.956  12.478
73718W        W42136   6.781  44.837   4.807
73719W        W42137  12.800  14.338   4.804
73720W        W42138  28.483   8.400  14.318
73721W        W42139  13.699  33.446   4.741
73722W        W42140  38.476  38.394  13.809
73723W        W42141  30.111   0.384   4.294
73724W        W42142  23.635   4.314   1.771
73725W        W42143  15.729  26.011   3.379
73726W        W42144  36.950  32.110   0.755
73727W        W42145  26.041  19.654  12.944
73728W        W42146   2.445  20.189   0.425
73729W        W42147  44.317  18.775   5.284
73730W        W42148  23.134  23.665   4.597
73731W        W42149  11.762   3.436   5.122
73732W        W42150  29.426  44.475  13.334
73733W        W42151  28.490  32.072  11.905
73734W        W42152   0.962  30.424  12.346
73735W        W42153  15.187  24.711  12.478
73736W        W42154   9.766   4.359  12.920
73737W        W42155  16.223  36.529  11.510
73738W        W42156  40.961  31.546   4.222
73739W        W42157  28.936  18.191   2.362
73740W        W42158  10.181  30.552   3.759
73741W        W42159  25.536  14.203   4.599
73742W        W42160  32.437  43.805  14.948
73743W        W42161  41.528  30.464  14.981
73744W        W42162   9.826  10.854  13.064
73745W        W42163  26.650   4.368  12.340
73746W        W42164   2.393  33.409  13.040
73747W        W42165   4.862  20.751   3.258
73748W        W42166  40.018  16.180  13.972
73749W        W42167   0.418  13.225  12.048
73750W        W42168   0.334  37.030   2.407
73751W        W42169  34.973  42.324  14.773
73752W        W42170   7.286  34.095  13.345
73753W        W42171  26.648  21.139   3.785
73754W        W42172  22.721  19.595  11.860
73755W        W42173   6.278  44.350  14.916
73756W        W42174   9.788   5.397   0.891
73757W        W42175   6.289   7.239   3.181
73758W        W42176  39.509   2.355   0.836
73759W        W42177  26.696   1.289   2.819
73760W        W42178  24.199  20.745  13.400
73761W        W42179  38.879  44.328  10.437
73762W        W42180  29.569  14.779  13.927
73763W        W42181  21.241  28.122   1.737
73764W        W42182   8.392   0.298   4.652
73765W        W42183  15.773   5.843  11.905
73766W        W42184  10.219  32.994  10.577
73767W        W42185  28.162  23.106   9.974
73768W        W42186  25.016  42.816   1.272
73769W        W42187  20.231   8.676   0.434
73770W        W42188  43.358  28.978  11.390
73771W        W42189  41.940  14.739  10.517
73772W        W42190  15.594  19.134  13.903
73773W        W42191  16.118  22.531   4.256
73774W        W42192  14.825  40.389  11.875
73775W        W42193  32.426  19.714   4.652
73776W        W42194   7.285   2.770  14.296
73777W        W42195  25.000  25.204   2.354
73778W        W42196  27.086  19.135  12.395
73779W        W42197  29.147   0.394   3.633
73780W        W42198  10.308   5.245  11.494
73781W        W42199  12.343   7.852   3.218
73782W        W42200  16.571   1.368   0.870
73783W        W42201  26.106  33.022   1.801
73784W        W42202  12.116  35.587  11.080
73785W        W42203  31.563  41.828   4.779
73786W        W42204  22.618  28.637   0.840
73787W        W42205  10.209   4.816   3.671
73788W        W42206  31.436  32.941  13.947
73789W        W42207  27.094  17.666   0.873
73790W        W42208  22.697  42.965  14.835
73791W        W42209  18.062  36.551   0.376
73792W        W42210  41.520   4.309   1.768
73793W        W42211  38.999   2.834   1.700
73794W        W42212  41.958  14.257   3.727
73795W        W42213  16.609   9.719  12.938
73796W        W42214   5.262  12.215   3.654
73797W        W42215  34.093   4.776   4.262
73798W        W42216  20.689  34.876   0.833
73799W        W42217  10.277   9.384   2.822
73800W        W42218   5.203  40.509   3.715
73801W        W42219   7.401   1.330  12.863
73802W        W42220   3.930  23.668  12.921
73803W        W42221  37.490  39.399   5.723
73804W        W42222  18.279  16.261   2.391
73805W        W42223  42.032  14.736  13.882
73806W        W42224  14.652   4.868  12.868
73807W        W42225  32.119   7.361  14.313
73808W        W42226  19.566  42.525  14.831
73809W        W42227  27.106  12.219  12.938
73810W        W42228   0.302  27.083  10.430
73811W        W42229   8.697  11.832   3.168
73812W        W42230  29.567  20.639   0.741
73813W        W42231  24.616  30.502  14.311
73814W        W42232  12.738  32.533   2.277
73815W        W42233  12.827  17.740   1.907
73816W        W42234  19.227  34.937   4.707
73817W        W42235  19.577  32.959  12.852
73818W        W42236  11.747  27.957  14.396
73819W        W42237  41.450  19.690  12.961
73820W        W42238  19.094  23.529  10.026
73821W        W42239  23.164  32.077  11.423
73822W        W42240  29.486  12.857   0.934
73823W        W42241  37.938  12.671   5.204
73824W        W42242   8.794  12.201   0.324
73825W        W42243  40.411  38.507  12.046
73826W        W42244  22.217  11.792   4.148
73827W        W42245  44.861  38.428   3.361
73828W        W42246  26.632  25.536  13.852
73829W        W42247  35.437  21.610  13.972
73830W        W42248  34.084  21.236  10.595
73831W        W42249  29.630  31.560  14.453
73832W        W42250  21.575  43.322   2.761
73833W        W42251  37.957  41.397   1.379
73834W        W42252   4.928  27.027  11.477
73835W        W42253  10.809   2.954  11.034
73836W        W42254  34.421  41.020  14.445
73837W        W42255  10.377   0.449   2.344
73838W        W42256  18.659  44.781   4.295
73839W        W42257  29.115  25.676   2.392
73840W        W42258  13.187  33.113   1.370
73841W        W42259  32.433  40.836   3.682
73842W        W42260   6.902  43.980   0.821
73843W        W42261  11.710  30.471  12.463
73844W        W42262  38.955  26.576   3.719
73845W        W42263   4.828  36.848  14.881
73846W        W42264  38.482  21.038   1.845
73847W        W42265   5.842  19.633   0.874
73848W        W42266  42.282  15.624  12.412
73849W        W42267  33.426  18.160   0.330
73850W        W42268  19.191  32.413  14.029
73851W        W42269   8.371  11.661   4.328
73852W        W42270  44.002  28.125  14.408
73853W        W42271  16.630  31.901  12.076
73854W        W42272  35.572  37.002   9.658
73855W        W42273  28.139  42.814   3.153
73856W        W42274  17.129  31.608  12.340
73857W        W42275   2.259  13.276   4.599
73858W        W42276   7.353  18.779  11.479
73859W        W42277  17.168  43.786   3.191
73860W        W42278  29.438   9.306   4.684
73861W        W42279  31.545  36.495   1.397
73862W        W42280  11.225  32.487  11.582
73863W        W42281  22.544  38.901  11.453
73864W        W42282  34.925  33.599  10.638
73865W        W42283  42.325  21.581  14.375
73866W        W42284  12.704  19.700   1.779
73867W        W42285  42.975  23.228  14.390
73868W        W42286  38.887  42.937  11.452
73869W        W42287  29.939  29.547   4.173
73870W        W42288   9.819  31.541   4.148
73871W        W42289  35.081  26.954  13.469
73872W        W42290  43.855  27.576  11.425
73873W        W42291  20.682  37.549   0.954
73874W        W42292  28.976   2.959   3.385
73875W        W42293  26.693  30.586  12.019
73876W        W42294  16.588  43.408   0.422
73877W        W42295  42.924  34.894  10.617
73878W        W42296  18.562  36.383   0.339
73879W        W42297  34.416  41.953  14.808
73880W        W42298  18.595   8.751  12.045
73881W        W42299  14.742  17.687  13.893
73882W        W42300   7.309  42.512  12.443
73883W        W42301   4.836  29.487   1.241
73884W        W42302  23.720  27.975  14.861
73885W        W42303  38.397  12.300   2.752
73886W        W42304  25.630  11.368   1.818
73887W        W42305  29.516  24.112   0.963
73888W        W42306  37.387  31.048  11.420
73889W        W42307  31.489   2.338  12.559
73890W        W42308  44.896  17.697  13.499
73891W        W42309  31.647  39.951   2.369
73892W        W42310   6.797  17.620  12.827
73893W        W42311  15.267  25.997  10.592
73894W        W42312  15.788  19.147  12.351
73895W        W42313  43.866  23.112  10.004
73896W        W42314  11.682  37.838   2.741
73897W        W42315  23.015  40.959   9.498
73898W        W42316   6.400  14.601   2.680
73899W        W42317  41.798  28.091  11.503
73900W        W42318   2.259  41.456   3.293
73901W        W42319  18.152  44.406  13.408
73902W        W42320  29.155  12.699  10.908
73903W        W42321  14.683  10.736   1.829
73904W        W42322  22.021  29.000   3.386
73905W        W42323  19.660  32.545   2.859
73906W        W42324  37.009  42.284  14.889
73907W        W42325  43.908   5.906   1.364
73908W        W42326  24.609   0.915   0.810
73909W        W42327  21.196  14.803   0.270
73910W        W42328  33.465   2.455   2.733
73911W        W42329  27.569  41.019  14.926
73912W        W42330  43.815  11.732  11.430
73913W        W42331   7.782  11.790  13.543
73914W        W42332  39.056  20.690  14.811
73915W        W42333   0.247  21.104   2.679
73916W        W42334  34.970  26.534  12.491
73917W        W42335  24.701  41.955   4.695
73918W        W42336  26.954  43.861  11.512
73919W        W42337   4.413  38.567  10.432
73920W        W42338  29.121  22.064   3.380
73921W        W42339  36.042  34.952   4.613
73922W        W42340  39.496  26.049   0.243
73923W        W42341  29.170  13.263   2.347
73924W        W42342  16.578   8.162   1.784
73925W        W42343  23.620   1.903   4.597
73926W        W42344  31.114  30.936   2.697
73927W        W42345  15.659  24.547   0.961
73928W        W42346   2.323   3.427  11.476
73929W        W42347  23.009   7.400   0.259
73930W        W42348  41.876  11.768  11.963
73931W        W42349   9.276   9.227  13.022
73932W        W42350  20.756  35.971  12.498
73933W        W42351   4.925  21.737  10.892
73934W        W42352  28.161  44.836   0.289
73935W        W42353   3.312  32.513  12.572
73936W        W42354  33.076   7.704  12.075
73937W        W42355  23.120  41.385  11.128
73938W        W42356  11.667  40.811  12.344
73939W        W42357  14.679  44.949   0.837
73940W        W42358   3.717  26.971   3.733
73941W        W42359  41.885  35.509   2.187
73942W        W42360  12.698   2.848  12.543
73943W        W42361   0.396  23.985   2.705
73944W        W42362  33.077   0.426  14.434
73945W        W42363  29.017  13.613  13.422
73946W        W42364  13.349  15.283  12.509
73947W        W42365   0.252  30.165  11.059
73948W        W42366  28.118  28.115   2.686
73949W        W42367  43.996  16.256  11.119
73950W        W42368  31.446  20.095   1.216
73951W        W42369  15.084   3.228   4.627
73952W        W42370   2.881  12.839  12.823
73953W        W42371  20.543  25.545   4.661
73954W        W42372  18.668  15.118   3.170
73955W        W42373  30.582  41.960   2.418
73956W        W42374  41.947  30.086  10.442
73957W        W42375  32.934   5.305  13.003
73958W        W42376  10.203  34.613  14.485
73959W        W42377   4.267   3.730   2.189
73960W        W42378  10.332  32.482   4.612
73961W        W42379  30.582  36.582   2.360
73962W        W42380  40.034  44.807  13.954
73963W        W42381   1.765  12.184   1.874
73964W        W42382  10.807  12.658   0.864
73965W        W42383  15.300  18.694  11.391
73966W        W42384  23.002   8.311   3.852
73967W        W42385  37.995  44.838   0.740
73968W        W42386  41.790  26.614  14.955
73969W        W42387  30.156  40.481   4.743
73970W        W42388  29.081  42.854  10.410
73971W        W42389  39.832  10.358   1.360
73972W        W42390  14.802  24.651   4.353
73973W        W42391  13.238  26.668  13.909
73974W        W42392   7.377  20.547   3.799
73975W        W42393  10.642   8.896   2.325
73976W        W42394  26.141  28.521   0.822
73977W        W42395   0.401  13.743   5.741
73978W        W42396   5.245  43.936   0.359
73979W        W42397  28.662   1.733  13.827
73980W        W42398  43.784  36.011  14.496
73981W        W42399  37.005  13.684   4.346
73982W        W42400  13.753  14.160  10.961
73983W        W42401  11.199  39.967   3.188
73984W        W42402  42.937  32.048  12.361
73985W        W42403  40.492   0.406   3.202
73986W        W42404  22.741  10.786   1.267
73987W        W42405  42.776  40.817   4.818
73988W        W42406   2.394  22.523  10.622
73989W        W42407  30.007  38.900   0.388
73990W        W42408  20.222   9.688   3.201
73991W        W42409  32.017  24.520  14.833
73992W        W42410  14.147  16.313   0.362
73993W        W42411  41.869   1.239   3.735
73994W        W42412  22.622  16.293   0.861
73995W        W42413  19.250  21.682   1.726
73996W        W42414  44.352  31.920  10.535
73997W        W42415  40.478   4.312   4.211
73998W        W42416  15.636   9.705  10.943
73999W        W42417  13.161   5.318   3.350
74000W        W42418  16.088  22.171   4.283
74001W        W42419  27.962  26.525  13.484
74002W        W42420  25.024   9.870   0.845
74003W        W42421  36.954   9.840  12.425
74004W        W42422  35.441  12.150  11.447
74005W        W42423  39.950  35.103  12.461
74006W        W42424  21.652   4.822  13.450
74007W        W42425  43.013  17.144  13.544
74008W        W42426   9.162   2.383  12.556
74009W        W42427  34.929   8.182  10.479
74010W        W42428  36.379   0.895   5.167
74011W        W42429   2.313  14.244   4.794
74012W        W42430   5.197  22.733  11.534
74013W        W42431  37.464  25.980  11.075
74014W        W42432  31.482  31.459   1.399
74015W        W42433  30.631  34.465   3.800
74016W        W42434  14.639  36.527   0.394
74017W        W42435  35.042  34.598   2.868
74018W        W42436   6.243  14.217   5.200
74019W        W42437  39.526  18.654  11.940
74020W        W42438  34.443  14.834   0.855
74021W        W42439  42.954   6.808   2.342
74022W        W42440  39.846   1.934  14.483
74023W        W42441  25.510  26.570  14.983
74024W        W42442   4.210  41.449  10.962
74025W        W42443  25.207  43.916   1.931
74026W        W42444  19.750   9.719  11.059
74027W        W42445  28.460  30.490  12.067
74028W        W42446  19.211  31.630  12.094
74029W        W42447  26.179  30.945  14.475
74030W        W42448  13.108  39.349  12.077
74031W        W42449  33.030  18.552  12.386
74032W        W42450  30.916  11.781   3.294
74033W        W42451  19.092  44.350   4.704
74034W        W42452  32.560  43.003   3.741
74035W        W42453  42.478   8.277   0.432
74036W        W42454   3.327   8.288   0.779
74037W        W42455   8.350  18.158  14.475
74038W        W42456  30.022  26.691  14.876
74039W        W42457  44.305   3.289   4.241
74040W        W42458  33.985  37.923   2.763
74041W        W42459  25.165   9.789   3.158
74042W        W42460  16.243  34.023  12.831
74043W        W42461  31.486  24.974   4.174
74044W        W42462  30.947  42.903   2.751
74045W        W42463  14.610  44.485   1.893
74046W        W42464  25.566  35.359   1.746
74047W        W42465  22.105  38.059  11.567
74048W        W42466   1.398  26.012   1.395
74049W        W42467  28.626  37.445   2.702
74050W        W42468  21.114  37.025  12.892
74051W        W42469   0.387  35.577  13.530
74052W        W42470  43.327  21.753  12.872
74053W        W42471   2.836  27.100   0.889
74054W        W42472   2.458   8.771  13.815
74055W        W42473   4.872  40.512   1.439
74056W        W42474  34.430  17.774   0.332
74057W        W42475  21.695  38.394  14.870
74058W        W42476   0.276  26.571   2.315
74059W        W42477   6.242   0.481  13.957
74060W        W42478  42.323  26.997  14.462
74061W        W42479  27.539   9.257   0.279
74062W        W42480   1.239  13.829  11.889
74063W        W42481  21.701  32.527   4.247
74064W        W42482  37.506   3.845   4.178
74065W        W42483  13.147  32.010  13.484
74066W        W42484  21.606  18.079  12.833
74067W        W42485  37.932  24.039  11.903
74068W        W42486   5.311  13.662  14.899
74069W        W42487  29.168  29.965  11.047
74070W        W42488  21.641  13.602   1.764
74071W        W42489  34.924  19.079  13.855
74072W        W42490  40.922  24.095   0.425
74073W        W42491  16.194  26.460  10.134
74074W        W42492   3.767  36.950  11.399
74075W        W42493  18.069  32.546   0.281
74076W        W42494  22.586   0.872   4.242
74077W        W42495  27.051  18.232   1.446
74078W        W42496  27.037  18.177   0.732
74079W        W42497   5.268  41.325   2.289
74080W        W42498   3.907  42.464   4.650
74081W        W42499   3.238  36.898   2.871
74082W        W42500  30.543  30.059   0.754
74083W        W42501   9.263  39.334  11.575
74084W        W42502  16.126  43.310  13.898
74085W        W42503  41.344  25.983   2.881
74086W        W42504  16.265   3.447   5.103
74087W        W42505  12.790  44.354   4.117
74088W        W42506  31.573  38.021  10.559
74089W        W42507   9.209  41.396   2.287
74090W        W42508  12.271  11.813   1.439
74091W        W42509   4.843  14.766   2.827
74092W        W42510  31.055  25.014   1.308
74093W        W42511  29.137  37.414  10.962
74094W        W42512  35.943   8.177  14.448
74095W        W42513   6.864  30.953  11.986
74096W        W42514  30.452  11.148  14.304
74097W        W42515   8.280  24.175  11.975
74098W        W42516   5.877   8.798   2.334
74099W        W42517   6.704  20.551  14.501
74100W        W42518  36.507  36.862   0.735
74101W        W42519   8.877   2.283  13.364
74102W        W42520   4.827  34.453   2.722
74103W        W42521  44.855  37.388  10.642
74104W        W42522  41.348   2.844  12.976
74105W        W42523   2.765   8.278  10.517
74106W        W42524  40.858  36.914   3.353
74107W        W42525   2.230   3.864   3.383
74108W        W42526  35.507   2.301   1.815
74109W        W42527  12.661  39.883  12.061
74110W        W42528  24.618   2.930  11.451
74111W        W42529  33.939  30.440  11.863
74112W        W42530  27.115   2.775   4.763
74113W        W42531  12.269  10.781   1.228
74114W        W42532  40.947  31.077  10.631
74115W        W42533  36.498   8.335  13.038
74116W        W42534  38.977  28.962  14.428
74117W        W42535   0.358  39.390   4.697
74118W        W42536  18.075  26.003   2.410
74119W        W42537  37.959   7.259   3.736
74120W        W42538  20.714  27.535   4.733
74121W        W42539  22.052   0.464   4.134
74122W        W42540  27.106  17.578  12.932
74123W        W42541  13.684  28.654  14.798
74124W        W42542  43.993  25.713   2.399
74125W        W42543  32.989   0.492  10.924
74126W        W42544   9.736  42.327  11.385
74127W        W42545  16.209   5.779  11.403
74128W        W42546  18.254  16.290  13.933
74129W        W42547  28.015   2.867  14.437
74130W        W42548  34.592  31.622   2.371
74131W        W42549  16.634  34.574  14.013
74132W        W42550   5.785  42.786  10.547
74133W        W42551  38.846  10.139   1.369
74134W        W42552  30.465  16.627  11.048
74135W        W42553  32.918  22.253  13.801
74136W        W42554  19.276  11.730  11.885
74137W        W42555  32.551  15.613   4.644
74138W        W42556  44.806  39.406  11.379
74139W        W42557  26.091  34.960  13.525
74140W        W42558   6.852  40.541   2.758
74141W        W42559  38.395  37.369   3.737
74142W        W42560   2.308  21.566   0.321
74143W        W42561  41.929   9.729   2.305
74144W        W42562  37.999  22.226   4.117
74145W        W42563  12.704  21.586   4.788
74146W        W42564  27.980  41.382   4.331
74147W        W42565  13.696   2.457   4.337
74148W        W42566  12.139  19.775   2.332
74149W        W42567  11.326  42.297  10.515
74150W        W42568   0.796  12.144   1.724
74151W        W42569  32.472  34.111  14.391
74152W        W42570   8.703   8.691  12.454
74153W        W42571  44.462  13.763   5.209
74154W        W42572  23.581  28.444  13.310
74155W        W42573  37.999  25.016   4.613
74156W        W42574   8.245   9.389  14.297
74157W        W42575  14.659  19.569   1.910
74158W        W42576   1.432  34.078  12.565
74159W        W42577  43.392  40.508   2.788
74160W        W42578  11.826   1.405  12.491
74161W        W42579  43.844   0.481   4.751
74162W        W42580  39.996  30.127  11.926
74163W        W42581  14.615  44.458   5.274
74164W        W42582  22.693  35.382  13.375
74165W        W42583   7.807  18.072   0.947
74166W        W42584  40.842  33.541   3.713
74167W        W42585  37.995   5.210  11.940
74168W        W42586  21.732  25.174   1.875
74169W        W42587  15.610  35.029   5.210
74170W        W42588  31.566  33.993  11.569
74171W        W42589  43.965  19.267   1.358
74172W        W42590  39.427  44.373   1.935
74173W        W42591  30.934  25.034   4.832
74174W        W42592  25.636  40.328  14.762
74175W        W42593   8.710  40.847  10.454
74176W        W42594  18.585  29.430  14.358
74177W        W42595   9.827  17.070  12.577
74178W        W42596  34.100  18.059   4.829
74179W        W42597  15.613  39.537  11.921
74180W        W42598  20.143  38.421   2.361
74181W        W42599  34.060  17.225   9.971
74182W        W42600  17.167  24.218   3.679
74183W        W42601   7.325  26.042   2.215
74184W        W42602  39.475  36.480  12.872
74185W        W42603  17.640  16.280   1.772
74186W        W42604  41.318   0.929   0.890
74187W        W42605  42.424  23.132  12.967
74188W        W42606  24.155  44.454  12.507
74189W        W42607  34.493  31.137  13.803
74190W        W42608  35.491  36.413   3.668
74191W        W42609  27.684   2.389   4.215
74192W        W42610  19.277  25.995   3.341
74193W        W42611  41.444   3.819   4.736
74194W        W42612  31.054   6.278   2.686
74195W        W42613  10.848   5.750  14.832
74196W        W42614  31.926  27.692   0.369
74197W        W42615   3.878  21.735   4.259
74198W        W42616  10.180  17.764   1.848
74199W        W42617  37.525  27.666  12.420
74200W        W42618  16.606   3.944  12.994
74201W        W42619  39.917  44.920   0.946
74202W        W42620  19.562  26.125   3.363
74203W        W42621  42.484  40.367  11.915
74204W        W42622  11.328  24.604   4.638
74205W        W42623  11.216   6.839   1.706
74206W        W42624   5.924  32.624   4.206
74207W        W42625  24.700  11.240   3.321
74208W        W42626  30.605   1.305  12.948
74209W        W42627   0.914   8.347  12.038
74210W        W42628   4.286  30.076  14.961
74211W        W42629  16.276  23.030   4.192
74212W        W42630  10.869  11.199   4.727
74213W        W42631  34.521  39.482   3.273
74214W        W42632  32.033  37.016   2.376
74215W        W42633  28.000   4.360   2.828
74216W        W42634  26.516  41.908   4.160
74217W        W42635  31.603  19.633  12.506
74218W        W42636   7.406  42.405  10.974
74219W        W42637   9.796  29.618   3.209
74220W        W42638   1.952  24.608  12.076
74221W        W42639  37.033   3.748   2.804
74222W        W42640   2.861  10.340  10.097
74223W        W42641  22.178   4.856  13.425
74224W        W42642  16.242  28.119   2.835
74225W        W42643  29.476  42.385   1.707
74226W        W42644  36.425   7.772   4.279
74227W        W42645  23.187  23.101   3.685
74228W        W42646  42.310   7.362   3.687
74229W        W42647   5.430  18.750   4.646
74230W        W42648  22.686  43.896   2.749
74231W        W42649   8.195   9.269   4.779
74232W        W42650  42.892  11.356  14.759
74233W        W42651  13.842  16.248  12.920
74234W        W42652   6.877   5.239   3.229
74235W        W42653  26.973  28.172   3.310
74236W        W42654  19.280   3.430  10.407
74237W        W42655  36.364  44.275   1.820
74238W        W42656  34.069   7.665  13.327
74239W        W42657   9.213  39.951  13.367
74240W        W42658   0.304  39.841   1.215
74241W        W42659  34.577  41.522  14.023
74242W        W42660  32.960  27.177   4.272
74243W        W42661  28.101  21.175  13.875
74244W        W42662  41.974  41.028  11.982
74245W        W42663  25.708  43.879  11.603
74246W        W42664  20.211  38.838   1.710
74247W        W42665  31.610  31.602   2.770
74248W        W42666  11.357  19.585   1.728
74249W        W42667  37.969  11.259   2.763
74250W        W42668  20.116  25.962   1.410
74251W        W42669  39.828  11.262  12.965
74252W        W42670   0.848  15.281  12.055
74253W        W42671   0.880   1.288   2.232
74254W        W42672  21.133  24.058  10.045
74255W        W42673  36.936  21.018   3.811
74256W        W42674  13.840  31.101  12.978
74257W        W42675  11.692  31.080  11.515
74258W        W42676   9.754   1.282   0.885
74259W        W42677  38.848  30.996   0.836
74260W        W42678  11.647  35.868  12.827
74261W        W42679   0.426  40.524   1.289
74262W        W42680  15.175  32.972   4.835
74263W        W42681  29.489  10.259   0.446
74264W        W42682   9.251  14.643  10.527
74265W        W42683  20.667  24.041  12.488
74266W        W42684  30.644  14.182  13.495
74267W        W42685  35.857  33.088  13.063
74268W        W42686  36.444   8.868  13.518
74269W        W42687  40.373  44.941  12.451
74270W        W42688  27.474  14.166   4.220
74271W        W42689   9.228  12.825  14.289
74272W        W42690  27.160   6.222   0.260
74273W        W42691   4.345  22.614  14.774
74274W        W42692  34.995   3.941   3.639
74275W        W42693   9.337  20.238   1.732
74276W        W42694  18.544  35.462  13.362
74277W        W42695   3.712   1.973  12.943
74278W        W42696  34.578   4.328   0.772
74279W        W42697  21.059  38.362   0.767
74280W        W42698  20.607  13.187   0.904
74281W        W42699   7.292  41.826   3.160
74282W        W42700  14.642  39.425   3.851
74283W        W42701   2.423  31.984   2.769
74284W        W42702  20.668  24.650  13.987
74285W        W42703  26.985  22.505   3.361
74286W        W42704  35.861  18.589   2.334
74287W        W42705   8.390   2.437  10.993
74288W        W42706  11.622  30.157   3.193
74289W        W42707  24.136  33.108  11.124
74290W        W42708  10.699  18.546  10.546
74291W        W42709  16.272  31.927  10.503
74292W        W42710  30.060   5.384   3.785
74293W        W42711  42.481   8.306  11.394
74294W        W42712  11.269  14.275   2.346
74295W        W42713   9.394  38.970  11.965
74296W        W42714   2.885  20.768   5.253
74297W        W42715  28.072  22.664  14.994
74298W        W42716  14.192   3.452   2.358
74299W        W42717   0.823  38.566   3.249
74300W        W42718  31.414  11.676  11.939
74301W        W42719  18.061  24.068   5.242
74302W        W42720  26.952  31.940  13.924
74303W        W42721   7.416  24.714   1.702
74304W        W42722  35.567  38.074   0.416
74305W        W42723  22.572  28.110   9.950
74306W        W42724  26.570  12.786   2.182
74307W        W42725  37.422  17.214   3.835
74308W        W42726  20.128   7.734   3.772
74309W        W42727   5.360   1.765   2.846
74310W        W42728  40.533  11.773   3.187
74311W        W42729  42.363  37.349   0.474
74312W        W42730  30.993  39.049  10.573
74313W        W42731  41.835  44.969   4.289
74314W        W42732  34.098  13.713  10.553
74315W        W42733   5.890  32.529   2.387
74316W        W42734  10.310   3.830  14.952
74317W        W42735  29.457   7.839   1.233
74318W        W42736  21.515  24.987   4.248
74319W        W42737  11.263  38.021  12.856
74320W        W42738  20.185  29.553   2.353
74321W        W42739   2.381  41.995   1.919
74322W        W42740  28.473  43.770   1.351
74323W        W42741   8.309  38.965  13.029
74324W        W42742  41.793  27.639  10.621
74325W        W42743  28.624  26.668   3.361
74326W        W42744  39.832  18.166   4.629
74327W        W42745  40.457  27.660   0.448
74328W        W42746  12.276  14.721   2.396
74329W        W42747  21.236  27.994   0.452
74330W        W42748  19.210  37.833   1.861
74331W        W42749  10.310   0.449   1.791
74332W        W42750  37.933   1.247  14.479
74333W        W42751  38.359   2.432  10.904
74334W        W42752  39.555  16.090  14.978
74335W        W42753  42.996  27.619   0.443
74336W        W42754  28.071   4.277  14.499
74337W        W42755  30.603  30.519  12.477
74338W        W42756   5.731  20.739  13.791
74339W        W42757  27.515   8.793   0.438
74340W        W42758   0.861  40.372  14.507
74341W        W42759  18.224  10.827  14.509
74342W        W42760  42.474  42.442  12.550
74343W        W42761  21.179  30.984  13.836
74344W        W42762  44.459   8.685  12.349
74345W        W42763  40.837  20.175   2.321
74346W        W42764  12.336  37.350  13.816
74347W        W42765  15.723  38.862   2.348
74348W        W42766  44.464  18.160   3.813
74349W        W42767  26.640   3.291  10.597
74350W        W42768   9.660  34.007   2.330
74351W        W42769  42.923  44.974  13.322
74352W        W42770   9.346  25.599   2.818
74353W        W42771   9.197  32.948   1.779
74354W        W42772  37.454  36.431   5.139
74355W        W42773  36.869  16.306  13.904
74356W        W42774  39.491  39.313   1.318
74357W        W42775  30.106   2.374   0.909
74358W        W42776  44.788  44.326  10.505
74359W        W42777   7.696   0.748   2.265
74360W        W42778  32.023  42.951   1.866
74361W        W42779  38.388  12.850   3.276
74362W        W42780   1.318  34.978  14.944
74363W        W42781  40.868  12.252  14.844
74364W        W42782   8.811  12.706  10.523
74365W        W42783   0.487  30.162  12.089
74366W        W42784  15.700  42.303   3.743
74367W        W42785   7.796  15.261   1.767
74368W        W42786  29.511  30.560  10.899
74369W        W42787  34.974  34.447  14.870
74370W        W42788  25.043   4.250   3.698
74371W        W42789  20.645  26.660  11.450
74372W        W42790   1.862  25.969   2.246
74373W        W42791  43.380   9.681  14.414
74374W        W42792   8.248   4.701  13.323
74375W        W42793  11.364  11.293   1.232
74376W        W42794  28.523   9.755  10.119
74377W        W42795  10.191  30.571   4.648
74378W        W42796  43.490  13.285   3.237
74379W        W42797  12.210  20.589  11.429
74380W        W42798  13.342  19.593  10.997
74381W        W42799  37.376   8.714  11.910
74382W        W42800  21.672  25.963  12.836
74383W        W42801  41.342  14.218   1.297
74384W        W42802  22.243   1.407   4.337
74385W        W42803  24.538  10.634   1.339
74386W        W42804  36.057  16.225   2.400
74387W        W42805   0.895   8.867  14.435
74388W        W42806   7.800  19.078  14.765
74389W        W42807  40.515  39.964  13.829
74390W        W42808   9.750  15.797   1.922
74391W        W42809  22.571  34.893  14.785
74392W        W42810  44.399  29.000   1.426
74393W        W42811  10.244   8.206   4.173
74394W        W42812  43.286   6.886  12.342
74395W        W42813  36.545   7.696  12.543
74396W        W42814   4.721  43.287  11.546
74397W        W42815   3.370  43.512  11.988
74398W        W42816  22.509  12.346   1.389
74399W        W42817   5.207  26.667  10.018
74400W        W42818  12.254   9.856   0.355
74401W        W42819  30.156  27.583   4.209
74402W        W42820  41.938  35.446  14.854
74403W        W42821  19.172  16.647   4.324
74404W        W42822  16.107   8.786   4.602
74405W        W42823  30.045  14.701   0.331
74406W        W42824  22.073  16.741  13.862
74407W        W42825  35.470   7.754   2.726
74408W        W42826  13.816  38.930  11.988
74409W        W42827  32.986  13.113  11.911
74410W        W42828  14.103  26.663  12.072
74411W        W42829  22.232  14.325  14.945
74412W        W42830   7.266  20.032  14.801
74413W        W42831   0.775  21.596  13.004
74414W        W42832  33.927  28.632   1.816
74415W        W42833  20.730  24.576   3.746
74416W        W42834   9.246  20.635   3.211
74417W        W42835   6.869  40.869   4.792
74418W        W42836  29.035  20.215  11.862
74419W        W42837  34.897  27.515  10.549
74420W        W42838  26.625  10.742  14.507
74421W        W42839  36.007  26.143   4.752
74422W        W42840  40.009  20.200   2.404
74423W        W42841  44.481   4.328  10.459
74424W        W42842  26.137  17.138  10.617
74425W        W42843  16.142  31.113  12.834
74426W        W42844  12.309  26.544  12.490
74427W        W42845  43.801  38.856   5.155
74428W        W42846  31.609  20.728  11.978
74429W        W42847   0.393  30.042   0.263
74430W        W42848  28.503  40.916   2.279
74431W        W42849  10.205  23.725   1.782
74432W        W42850  23.702  23.221   3.188
74433W        W42851  18.714  16.192  14.994
74434W        W42852  14.290  23.190   0.934
74435W        W42853   7.208   5.918   1.437
74436W        W42854  44.903   2.869   2.294
74437W        W42855   4.916  44.469   0.943
74438W        W42856  22.652   3.384   0.849
74439W        W42857  30.621  32.420   0.450
74440W        W42858   3.248  11.703   5.171
74441W        W42859  23.040   0.392   3.665
74442W        W42860  41.934  25.022  11.982
74443W        W42861  20.564   1.755   1.328
74444W        W42862  20.618   5.392  10.442
74445W        W42863   0.256  20.197  12.449
74446W        W42864   7.684  32.074   9.938
74447W        W42865  34.869  23.209   3.236
74448W        W42866   4.777  35.446  13.546
74449W        W42867  40.004  41.818  11.498
74450W        W42868   3.850   7.727  12.935
74451W        W42869  44.879  39.857   4.676
74452W        W42870  16.633  26.531   3.285
74453W        W42871  41.874   4.726   3.371
74454W        W42872  31.072   7.698  11.875
74455W        W42873  12.780  20.226  11.976
74456W        W42874   4.838  20.174  14.882
74457W        W42875  38.024  39.358  14.916
74458W        W42876  13.218  38.899  14.924
74459W        W42877  17.147   9.818  13.420
74460W        W42878  21.210   6.692  14.506
74461W        W42879  27.179   2.429  11.528
74462W        W42880  17.730  42.793  14.293
74463W        W42881  35.461  11.731   1.444
74464W        W42882  44.473   3.867   9.993
74465W        W42883  40.935  26.544  11.496
74466W        W42884  12.627  16.766  12.522
74467W        W42885  40.890  39.944  12.561
74468W        W42886  33.610  21.244   2.376
74469W        W42887   1.310   6.337   2.783
74470W        W42888   9.672  44.466   1.267
74471W        W42889  17.072  25.556   4.313
74472W        W42890  15.791  39.437  10.435
74473W        W42891  24.604  13.285   1.409
74474W        W42892   1.759  34.915  14.974
74475W        W42893   3.776   0.972  10.475
74476W        W42894   6.410  35.045  11.036
74477W        W42895  34.927  18.738  13.825
74478W        W42896  43.372  26.685  12.029
74479W        W42897  23.999  29.110   1.414
74480W        W42898   9.257  29.120   3.220
74481W        W42899  34.893  44.412   2.874
74482W        W42900  38.879  31.513   3.705
74483W        W42901  21.222  17.065   5.217
74484W        W42902  42.975  39.013   9.993
74485W        W42903  44.316   0.981   1.905
74486W        W42904  33.105  43.347   3.870
74487W        W42905  44.453   5.701  14.333
74488W        W42906  10.296  22.166  14.476
74489W        W42907  35.946  19.156   0.260
74490W        W42908  11.847  44.964  10.924
74491W        W42909  37.991  28.106  14.372
74492W        W42910   1.321  42.834   1.724
74493W        W42911  16.114  41.510   4.178
74494W        W42912  25.095  14.793  11.995
74495W        W42913  15.132  20.065  13.378
74496W        W42914  13.788  20.582   0.886
74497W        W42915  37.456  24.488  14.860
74498W        W42916  22.635  11.850  12.916
74499W        W42917  31.550  21.033  11.074
74500W        W42918   3.233  31.002  14.915
74501W        W42919   1.844   6.891  13.308
74502W        W42920   6.877  31.973  11.927
74503W        W42921  21.199  22.141   0.332
74504W        W42922  36.448  20.106  14.801
74505W        W42923  14.253  26.515   1.864
74506W        W42924  35.584   6.874  11.385
74507W        W42925  21.579  22.227   2.273
74508W        W42926  32.594  21.112   1.295
74509W        W42927  26.040  44.501   2.704
74510W        W42928  29.955  44.263   0.368
74511W        W42929  17.674  27.950   0.927
74512W        W42930  19.560  36.459  12.359
74513W        W42931   5.887  23.232   0.349
74514W        W42932   1.929  19.068   2.387
74515W        W42933  16.097  37.430   3.845
74516W        W42934  16.310  39.413  14.999
74517W        W42935  13.279  27.135   4.280
74518W        W42936  23.218  38.366   2.298
74519W        W42937  12.286  41.790   3.197
74520W        W42938  21.527  44.372  13.314
74521W        W42939  31.512  23.688  12.490
74522W        W42940  11.221  24.127  13.887
74523W        W42941  34.015  26.527   3.309
74524W        W42942  37.490   6.423   4.639
74525W        W42943  17.140  16.591   3.864
74526W        W42944  11.216  35.937  12.965
74527W        W42945  36.391  32.616  12.898
74528W        W42946  10.818  15.166   0.275
74529W        W42947  40.962  25.113  10.488
74530W        W42948   9.745   2.311  12.506
74531W        W42949  12.681  15.754  10.600
74532W        W42950  27.071  25.124   1.264
74533W        W42951  33.924   9.168   1.395
74534W        W42952   6.862  39.948   1.312
74535W        W42953   8.225  19.183  14.792
74536W        W42954  23.165  14.251   1.859
74537W        W42955  36.078   5.775   4.299
74538W        W42956  28.096   9.871  14.952
74539W        W42957  27.567  22.638  14.321
74540W        W42958  30.553  35.604  10.593
74541W        W42959   7.843  21.625  10.948
74542W        W42960   9.341  29.011  13.335
74543W        W42961  43.801   3.267   4.775
74544W        W42962  23.626  14.757  13.979
74545W        W42963  33.081  19.112   4.232
74546W        W42964  13.325  31.930   3.263
74547W        W42965  17.702   5.842  14.388
74548W        W42966  28.666  34.395  12.826
74549W        W42967  44.912   8.898   4.820
74550W        W42968  38.001  40.423   0.751
74551W        W42969  18.767  27.602  12.482
74552W        W42970  29.555  41.918  14.976
74553W        W42971   5.751  35.483  14.963
74554W        W42972  24.170  28.605  14.374
74555W        W42973  19.753   2.944  12.978
74556W        W42974   2.910  41.408   4.340
74557W        W42975  32.952  33.484  14.774
74558W        W42976  34.869  42.969   3.382
74559W        W42977  40.883   3.311  10.892
74560W        W42978  38.496  41.826   1.437
74561W        W42979  38.980   8.833  10.019
74562W        W42980   4.437  13.117  14.815
74563W        W42981  25.967  12.164  13.510
74564W        W42982  39.930  28.547  10.635
74565W        W42983  18.200   2.392  14.904
74566W        W42984  29.959  25.002  12.565
74567W        W42985  30.014  10.693   3.698
74568W        W42986  13.783  42.492  14.921
74569W        W42987   2.903  42.778   3.760
74570W        W42988   2.464   1.896   1.410
74571W        W42989  29.958   5.777  10.982
74572W        W42990  25.711  32.506  13.037
74573W        W42991  10.638  40.902  12.418
74574W        W42992  22.038   0.337  14.850
74575W        W42993   9.164  17.254   1.353
74576W        W42994  31.580  36.582   2.729
74577W        W42995   4.337  34.485   0.342
74578W        W42996   8.256  24.673  12.424
74579W        W42997  10.779   9.178   4.662
74580W        W42998   2.857  33.020  12.465
74581W        W42999  21.687   3.452  13.310
74582W        W43000  27.643  37.430  10.471
74583W        W43001  42.401  31.903  11.001
74584W        W43002   7.245  12.632  10.578
74585W        W43003   8.848  25.068   2.356
74586W        W43004  12.839  36.484  10.517
74587W        W43005  32.911  20.210  13.405
74588W        W43006   2.460  44.353   2.726
74589W        W43007  13.323  13.681   0.391
74590W        W43008  23.730  37.525   2.725
74591W        W43009  14.678  24.075  13.053
74592W        W43010  26.526   7.849   2.217
74593W        W43011   4.371  29.660   3.689
74594W        W43012   0.374  44.917  12.918
74595W        W43013  34.081  28.612  12.559
74596W        W43014   2.254  11.706   4.160
74597W        W43015  29.480   8.805   0.754
74598W        W43016  22.565  12.332  11.933
74599W        W43017   2.882  44.003  11.385
74600W        W43018  24.653  39.868   1.247
74601W        W43019  16.189   3.772  13.488
74602W        W43020  21.127  22.207  12.867
74603W        W43021   5.710  12.188  12.538
74604W        W43022  15.801  16.605  10.892
74605W        W43023  24.703  21.258  13.805
74606W        W43024   4.289  11.157  12.383
74607W        W43025  29.983  36.878   3.724
74608W        W43026  22.640  41.885  13.010
74609W        W43027  37.476   4.323  10.983
74610W        W43028  21.082  29.070  11.098
74611W        W43029  27.671  10.865   3.340
74612W        W43030  42.469  13.611   5.763
74613W        W43031  31.512  27.022  10.628
74614W        W43032  34.369  42.873   1.444
74615W        W43033  17.184   5.927   9.630
74616W        W43034  17.705   4.232   3.269
74617W        W43035  43.416   1.797   0.458
74618W        W43036  30.611   1.433   3.187
74619W        W43037   5.274  34.471  10.522
74620W        W43038  16.690  19.633  10.922
74621W        W43039  14.732  33.090   0.953
74622W        W43040   1.480  31.083  10.589
74623W        W43041  32.601  32.983   3.273
74624W        W43042   1.349  44.270   0.286
74625W        W43043  27.965  32.579   3.193
74626W        W43044   3.906   7.688  12.383
74627W        W43045  17.739  15.646   2.232
74628W        W43046  40.309  36.428  12.580
74629W        W43047  14.731  24.193   2.841
74630W        W43048   7.283  15.213   0.950
74631W        W43049  21.038  13.207  11.478
74632W        W43050  26.011  40.412   2.816
74633W        W43051  31.598  10.750   4.231
74634W        W43052   6.401   1.938   3.634
74635W        W43053   0.348  23.013   9.509
74636W        W43054   4.836  18.117   3.651
74637W        W43055  28.037   5.322   4.306
74638W        W43056  10.290   5.881  11.865
74639W        W43057   2.449   4.912  12.031
74640W        W43058  10.784  36.914   4.613
74641W        W43059  17.637  24.210   1.214
74642W        W43060  35.955   3.805   3.858
74643W        W43061  10.640  33.881  12.548
74644W        W43062  10.856   4.384  14.359
74645W        W43063  14.595  38.524  13.433
74646W        W43064  24.051  40.877   0.321
74647W        W43065  30.105  39.534   0.379
74648W        W43066   3.809  11.277  11.102
74649W        W43067   3.272   1.441  10.576
74650W        W43068  10.840  39.525   0.857
74651W        W43069   5.428  25.595  11.910
74652W        W43070  34.016  43.788   2.858
74653W        W43071   9.322   8.738  12.919
74654W        W43072  44.803  24.623  13.325
74655W        W43073  37.890   4.801  14.342
74656W        W43074  20.251  17.147  14.796
74657W        W43075  29.008  14.670  12.968
74658W        W43076  20.098  24.516   5.179
74659W        W43077  36.943  44.847  12.450
74660W        W43078   2.413  32.569  13.481
74661W        W43079  10.201  35.981   3.279
74662W        W43080  20.593  37.505   3.301
74663W        W43081  28.511  21.560  11.893
74664W        W43082  34.875  23.087   3.774
74665W        W43083  43.781  12.702  14.930
74666W        W43084   8.814  23.063   0.895
74667W        W43085  21.051   8.829  13.914
74668W        W43086   0.430  23.239   0.774
74669W        W43087   2.837  27.073   2.694
74670W        W43088  13.773  36.861   1.271
74671W        W43089  27.558   6.257   2.378
74672W        W43090  44.295  11.154  12.829
74673W        W43091  12.117  25.965  12.855
74674W        W43092   0.266  26.040   1.862
74675W        W43093  11.321  23.077   3.868
74676W        W43094  25.700   0.485   4.706
74677W        W43095   3.417  15.784   2.401
74678W        W43096  11.652  37.577   2.772
74679W        W43097  38.906  39.389   2.317
74680W        W43098  12.650  14.603   4.649
74681W        W43099   8.401  13.608  10.518
74682W        W43100  31.916  17.210  10.927
74683W        W43101  35.910  43.506  13.493
74684W        W43102  39.427  22.054   1.722
74685W        W43103   7.761  31.612  12.048
74686W        W43104  29.497  31.922   4.745
74687W        W43105  20.666   8.366   1.312
74688W        W43106   3.910  44.843   1.832
74689W        W43107  21.028  27.556  14.874
74690W        W43108  18.558  34.530  10.574
74691W        W43109  13.255  43.306  11.955
74692W        W43110  35.104  30.013  14.020
74693W        W43111   1.298   8.341  14.477
74694W        W43112   3.877  21.164  12.862
74695W        W43113  38.491  15.288   0.379
74696W        W43114  15.757  35.003   2.212
74697W        W43115  12.233  28.463   3.716
74698W        W43116  17.149  15.301   4.233
74699W        W43117  16.795  23.602  13.333
74700W        W43118  36.959  20.644   3.651
74701W        W43119  12.791  15.141   2.381
74702W        W43120  22.709  24.151  12.446
74703W        W43121  23.550  34.389  14.860
74704W        W43122  29.016   7.275   3.216
74705W        W43123  26.657  43.917  11.434
74706W        W43124  42.486   9.883  12.953
74707W        W43125  20.140  30.952   4.802
74708W        W43126  35.534  15.605   1.734
74709W        W43127  10.198  34.430   0.392
74710W        W43128  11.271  30.566  14.911
74711W        W43129   7.743   8.311   0.820
74712W        W43130   1.808   8.669   2.415
74713W        W43131   2.422  15.638   3.851
74714W        W43132  43.005  36.945  14.014
74715W        W43133  14.264   3.402  12.088
74716W        W43134  36.000  34.117   4.824
74717W        W43135  39.049  41.497   3.752
74718W        W43136  42.834  41.512  10.015
74719W        W43137  44.875  34.009  14.433
74720W        W43138  27.984  42.943   4.832
74721W        W43139   2.865   5.907   1.697
74722W        W43140   4.279  34.579  12.850
74723W        W43141  30.524  43.343   1.321
74724W        W43142  40.909  35.987  13.050
74725W        W43143  37.055  33.446  11.402
74726W        W43144   8.213   3.732   4.680
74727W        W43145  37.497  14.695   2.889
74728W        W43146  41.840  16.680   4.601
74729W        W43147  38.506  26.588  11.906
74730W        W43148  17.270  34.985   2.394
74731W        W43149  33.020  31.619  13.849
74732W        W43150  12.352  37.398   2.674
74733W        W43151  29.140  14.729   3.718
74734W        W43152  23.623  21.129  11.985
74735W        W43153   3.437   2.469   2.888
74736W        W43154  32.617   1.434  11.946
74737W        W43155  23.639  19.712   0.889
74738W        W43156  25.578  12.181   0.310
74739W        W43157  42.409  36.073  11.903
74740W        W43158  19.755   0.383   3.325
74741W        W43159  38.866  29.558  10.491
74742W        W43160  29.992  35.907  14.003
74743W        W43161  35.397  21.529   0.770
74744W        W43162   7.684  31.492  12.451
74745W        W43163  29.527  26.510  10.133
74746W        W43164   1.784  43.941  11.492
74747W        W43165  21.625  29.001  14.767
74748W        W43166  21.248  25.003  11.969
74749W        W43167  32.887  21.622   1.222
74750W        W43168  30.612  29.505  14.925
74751W        W43169   9.868   3.836   4.334
74752W        W43170  37.566  25.172   2.766
74753W        W43171  39.925  37.946   2.206
74754W        W43172  31.001  38.858   0.364
74755W        W43173  29.112  27.980  10.927
74756W        W43174  10.865  42.838   4.606
74757W        W43175  40.999  10.365   3.723
74758W        W43176   1.346   1.741  13.915
74759W        W43177  11.194  19.619  10.938
74760W        W43178   3.743  41.937   1.396
74761W        W43179  11.666  35.075  12.865
74762W        W43180  43.428  43.924  10.489
74763W        W43181  31.593  12.813   2.720
74764W        W43182  28.126  40.364  11.886
74765W        W43183   4.735  24.663  12.850
74766W        W43184   3.823  24.646  12.880
74767W        W43185  13.726  21.144   1.832
74768W        W43186  10.872  36.525  11.859
74769W        W43187  43.966  31.533   0.933
74770W        W43188   6.410   7.841  14.447
74771W        W43189  29.131  44.484  13.544
74772W        W43190   8.734  38.455  10.920
74773W        W43191   4.431   0.795  14.281
74774W        W43192  27.512  34.969  14.477
74775W        W43193  44.477  11.328  13.867
74776W        W43194   7.404  28.115   2.418
74777W        W43195  30.577  42.832   0.332
74778W        W43196   4.780  18.586  13.900
74779W        W43197   4.902  35.388  11.411
74780W        W43198   6.796  43.313   4.334
74781W        W43199  33.913  33.411  12.924
74782W        W43200  28.637  13.173   3.686
74783W        W43201  19.551  43.481   1.279
74784W        W43202  19.227  44.005  14.387
74785W        W43203  32.456  42.413  12.447
74786W        W43204  35.891  26.123  12.071
74787W        W43205   6.263  11.732   2.236
74788W        W43206  43.909   4.263   3.226
74789W        W43207  35.481   5.251  12.072
74790W        W43208  33.008  40.434   2.868
74791W        W43209  44.916  39.422  12.031
74792W        W43210  44.340  27.054   0.738
74793W        W43211  26.612   0.977   2.788
74794W        W43212  14.677  17.591   4.201
74795W        W43213  15.194  19.673   5.182
74796W        W43214  22.588   0.386   4.279
74797W        W43215  20.181   4.223   3.286
74798W        W43216  32.955  25.156   2.875
74799W        W43217   1.336   3.388   5.301
74800W        W43218  34.491   4.272   2.696
74801W        W43219  33.050   4.902   4.324
74802W        W43220  43.494  21.646  10.936
74803W        W43221  19.759   8.356   0.928
74804W        W43222  33.005  34.057   1.318
74805W        W43223  36.505   6.900  10.989
74806W        W43224  18.277   6.719  13.949
74807W        W43225  32.409  32.962   2.282
74808W        W43226  34.002  15.810  10.074
74809W        W43227  14.774   9.239  14.279
74810W        W43228  28.653   8.373   2.678
74811W        W43229  27.642  28.955   1.227
74812W        W43230   0.764   4.320   1.299
74813W        W43231   9.176  26.652   0.457
74814W        W43232  25.580  18.270   4.827
74815W        W43233  32.887  38.053   0.459
74816W        W43234  11.682  18.733   4.148
74817W        W43235   2.269   9.833   4.193
74818W        W43236   1.247  10.765  14.799
74819W        W43237  33.889  24.190   4.289
74820W        W43238  31.454  38.965   2.325
74821W        W43239   1.836  20.720   3.749
74822W        W43240  42.400  26.966   2.705
74823W        W43241   8.307  10.317   2.195
74824W        W43242  32.912  33.063   1.323
74825W        W43243  15.132   3.923   3.228
74826W        W43244   7.214  35.592   4.128
74827W        W43245   9.870  36.971  11.528
74828W        W43246   1.478   0.890   2.395
74829W        W43247  35.886  27.535   4.184
74830W        W43248  43.345  15.667   2.742
74831W        W43249   3.302  23.707  14.278
74832W        W43250  13.797  11.146   4.762
74833W        W43251  43.994  11.272  14.782
74834W        W43252  15.151   8.791  11.008
74835W        W43253  24.174  23.190  12.482
74836W        W43254   5.394  19.073   0.956
74837W        W43255  35.557  20.735   0.454
74838W        W43256  24.163  16.127   1.752
74839W        W43257  37.574  33.933  11.433
74840W        W43258  12.244  25.963  13.979
74841W        W43259  40.817  10.190   3.191
74842W        W43260  24.716   2.284   2.198
74843W        W43261  35.437  24.054   3.645
74844W        W43262  30.596  37.461  10.978
74845W        W43263  26.578  19.776  14.379
74846W        W43264  18.618  33.940  11.922
74847W        W43265   8.679  21.593  14.889
74848W        W43266  28.586  13.608  12.537
74849W        W43267   5.378  39.062  12.997
74850W        W43268   4.250  32.565  12.846
74851W        W43269  21.231  22.612  12.824
74852W        W43270  12.849  14.657   3.692
74853W        W43271  15.096  26.594  11.541
74854W        W43272   2.873  16.287  12.386
74855W        W43273   9.757  12.646   1.885
74856W        W43274  15.754  12.709   1.281
74857W        W43275  20.268  16.813  13.001
74858W        W43276  15.711  36.438   1.922
74859W        W43277  21.528   9.290   4.244
74860W        W43278  40.898  23.547  11.097
74861W        W43279  37.068  25.539   0.325
74862W        W43280  43.338  43.933  12.873
74863W        W43281  36.077  32.930  11.598
74864W        W43282  43.949  36.554   3.714
74865W        W43283  15.292  42.510  14.897
74866W        W43284  12.356   3.395  10.587
74867W        W43285  40.342   7.885   3.809
74868W        W43286  22.710  10.872   1.862
74869W        W43287   5.257  19.173   2.770
74870W        W43288  19.609  18.657  12.388
74871W        W43289  21.659  22.618   4.823
74872W        W43290   9.180  15.678  10.493
74873W        W43291  44.792  15.664   0.818
74874W        W43292  14.616  24.154   2.296
74875W        W43293  43.459  11.341  13.340
74876W        W43294   0.387  28.662  13.369
74877W        W43295  29.117  39.809   3.754
74878W        W43296  26.047  26.985   3.698
74879W        W43297  20.269   3.782   2.395
74880W        W43298   7.316  37.067   2.366
74881W        W43299   6.428  15.137   1.881
74882W        W43300  21.066  41.946  13.039
74883W        W43301  38.077  33.529   4.805
74884W        W43302  34.054  34.865   2.303
74885W        W43303  42.343  36.063   0.834
74886W        W43304  34.099  29.487  14.438
74887W        W43305  30.495   8.900  12.076
74888W        W43306   5.854  16.072  13.801
74889W        W43307   9.677  23.639  11.975
74890W        W43308  44.004  41.998  13.021
74891W        W43309  27.157   0.391   4.682
74892W        W43310  43.791  43.966  10.528
74893W        W43311  44.382   3.289   0.389
74894W        W43312  29.501   1.377  10.952
74895W        W43313  41.942  10.758   4.297
74896W        W43314  39.931   9.758  12.015
74897W        W43315   9.706  15.099   1.327
74898W        W43316  35.967  22.542  11.868
74899W        W43317  19.193  33.064  12.088
74900W        W43318  26.991  42.290  10.481
74901W        W43319   8.868  41.834   4.771
74902W        W43320  27.998  37.456   4.316
74903W        W43321  42.309  23.522  12.050
74904W        W43322  29.175  32.120   3.193
74905W        W43323  36.083   4.296  14.989
74906W        W43324  21.246  29.546   2.306
74907W        W43325  40.433  33.936   0.322
74908W        W43326  10.686  32.493   0.341
74909W        W43327  30.414  24.708  10.595
74910W        W43328  42.008   1.367  14.300
74911W        W43329  33.506  27.193   0.798
74912W        W43330   9.767  44.873  11.428
74913W        W43331  16.740  39.898   3.300
74914W        W43332   1.968  43.508   3.277
74915W        W43333  21.717   6.912  10.472
74916W        W43334  44.352  17.694   3.698
74917W        W43335  26.458  39.403  11.057
74918W        W43336  12.138  17.251   4.689
74919W        W43337  24.668  14.712   4.655
74920W        W43338  44.404  40.360   3.663
74921W        W43339  19.125  40.428   3.706
74922W        W43340  26.468  15.095   4.622
74923W        W43341  36.936  32.068   1.927
74924W        W43342  23.516  44.991   0.258
74925W        W43343  28.649  12.252   1.325
74926W        W43344  29.033   7.254  12.405
74927W        W43345  28.472  26.193   0.895
74928W        W43346  19.062  37.044  11.861
74929W        W43347  24.587  24.121   3.823
74930W        W43348  23.544  12.259   3.160
74931W        W43349  32.394  10.807  14.515
74932W        W43350  37.350  16.630   9.993
74933W        W43351  16.785  36.964   4.167
74934W        W43352  16.790  39.809   4.746
74935W        W43353   7.795   0.761  11.084
74936W        W43354   1.289  13.240  12.503
74937W        W43355  22.013  24.509   1.722
74938W        W43356  42.984  31.621   0.443
74939W        W43357  37.082  30.635   5.161
74940W        W43358  30.457   8.861  13.898
74941W        W43359  26.529  24.201   2.313
74942W        W43360  12.240  43.402   1.770
74943W        W43361  14.759  15.688  12.063
74944W        W43362  19.634  10.169  11.059
74945W        W43363  41.496  39.924  14.802
74946W        W43364  31.408  29.115   0.922
74947W        W43365  24.147  42.891  11.940
74948W        W43366  20.196  17.273  13.503
74949W        W43367   7.300  30.436  13.987
74950W        W43368  19.553  29.571  13.941
74951W        W43369  12.136  11.783   1.767
74952W        W43370  29.973   4.284  14.908
74953W        W43371   6.383  26.013  14.934
74954W        W43372  24.098   6.428   2.703
74955W        W43373  34.111  20.698   3.766
74956W        W43374  36.039  18.255   1.304
74957W        W43375  15.610   6.428  11.079
74958W        W43376  26.131  34.112   1.716
74959W        W43377  36.530  44.314   4.151
74960W        W43378  28.505  19.199   0.834
74961W        W43379   7.375  15.610  11.036
74962W        W43380  33.410  17.629   2.806
74963W        W43381  18.297  14.787  10.065
74964W        W43382  13.258   3.446   0.454
74965W        W43383  16.691  39.986   1.759
74966W        W43384  34.394  30.163   3.852
74967W        W43385   9.694  31.593   2.874
74968W        W43386   0.766  38.510   2.275
74969W        W43387   3.348   5.195   4.160
74970W        W43388   4.924  26.627   2.733
74971W        W43389  32.077  17.150   1.310
74972W        W43390  18.160  27.648   1.293
74973W        W43391  41.948   1.271  14.808
74974W        W43392  44.795  24.573   2.705
74975W        W43393  25.078  17.665   4.119
74976W        W43394   4.814  19.578   1.901
74977W        W43395  25.576  25.198   3.376
74978W        W43396   7.674  33.460   3.307
74979W        W43397   5.903   0.861  11.909
74980W        W43398  23.051  22.638  11.935
74981W        W43399  39.464  40.334   4.133
74982W        W43400  42.832  26.664   1.439
74983W        W43401  12.802  37.557   1.279
74984W        W43402  39.353  19.058   0.843
74985W        W43403  17.124   2.741   2.836
74986W        W43404   1.357  37.963   2.182
74987W        W43405  41.951  23.653   1.731
74988W        W43406  24.005  39.875  13.525
74989W        W43407  30.464  29.569   2.328
74990W        W43408  20.174  31.006   2.821
74991W        W43409  26.473  31.928  10.521
74992W        W43410   4.281   8.678  14.359
74993W        W43411  35.562  40.486  13.346
74994W        W43412   3.254   2.722   2.766
74995W        W43413  15.594  40.444  12.872
74996W        W43414  31.445   0.357   0.813
74997W        W43415   0.798  16.215  14.975
74998W        W43416  33.132   2.393  11.980
74999W        W43417  27.030   3.359  13.422
75000W        W43418  29.927   5.413  12.068
75001W        W43419  33.520  31.545   3.679
75002W        W43420  43.822  34.590  10.582
75003W        W43421  40.912  13.162  10.450
75004W        W43422  19.603  37.458  12.957
75005W        W43423  12.708   7.808   4.630
75006W        W43424  42.029  20.644  12.836
75007W        W43425  28.544  33.907   0.380
75008W        W43426  21.209   3.789  12.945
75009W        W43427   3.853  29.451   3.861
75010W        W43428  40.991  26.696  13.478
75011W        W43429  35.508  27.005   0.373
75012W        W43430  41.873   6.804  14.828
75013W        W43431  38.485  25.467   4.199
75014W        W43432  24.554  23.098  11.884
75015W        W43433  38.025  35.591   0.381
75016W        W43434  25.684  36.582   2.808
75017W        W43435   4.398  44.962   4.311
75018W        W43436  37.967   0.759   1.699
75019W        W43437   7.358  26.698   2.398
75020W        W43438  44.002  16.674   1.320
75021W        W43439   9.850  27.495   1.337
75022W        W43440  31.445  17.583  12.486
75023W        W43441  23.728  37.862   0.819
75024W        W43442  29.169  41.037  14.505
75025W        W43443   6.393  32.087   4.250
75026W        W43444  38.368  42.857  12.555
75027W        W43445  16.628  38.015   0.897
75028W        W43446  18.577  18.278  14.916
75029W        W43447  36.568   1.831  12.536
75030W        W43448  41.431  42.882  10.989
75031W        W43449  37.501   8.753  12.942
75032W        W43450  18.102  19.550  12.076
75033W        W43451  37.878  25.646   2.419
75034W        W43452  35.426  41.376  13.311
75035W        W43453  26.641  20.215   4.239
75036W        W43454  27.999  27.670   0.271
75037W        W43455   0.307  25.647   0.854
75038W        W43456  38.838   8.236   0.468
75039W        W43457  16.074  14.761  10.941
75040W        W43458  36.078  15.104   3.681
75041W        W43459  14.263  25.644  11.568
75042W        W43460  16.604  32.412   3.736
75043W        W43461  41.983  34.467   4.154
75044W        W43462   8.897   4.773   2.690
75045W        W43463  22.127  32.933  10.564
75046W        W43464  28.583  16.083  14.994
75047W        W43465  37.965  40.822   1.265
75048W        W43466  42.501  30.916   3.676
75049W        W43467  23.717  25.218  14.452
75050W        W43468  11.163  31.552   3.259
75051W        W43469  38.480  12.246   3.697
75052W        W43470  20.244  38.032  10.636
75053W        W43471  14.326   5.242  10.017
75054W        W43472  31.577   0.921  14.306
75055W        W43473  28.643  18.289  11.473
75056W        W43474  33.566  27.073  10.597
75057W        W43475  29.948  33.914   0.751
75058W        W43476   4.817  29.102   3.829
75059W        W43477  25.159  24.058   0.912
75060W        W43478   0.961  16.318  13.546
75061W        W43479  18.273  28.553  11.047
75062W        W43480  14.680   4.409  11.566
75063W        W43481  41.893   1.466  11.926
75064W        W43482  10.662  35.521   2.223
75065W        W43483  32.520  40.462   3.743
75066W        W43484   8.369   7.339   1.704
75067W        W43485  42.313  20.580  12.056
75068W        W43486  32.491  44.285  10.405
75069W        W43487  34.965  19.671   1.402
75070W        W43488  37.844  14.799   3.634
75071W        W43489  44.377  14.752  12.021
75072W        W43490  11.208  18.788  12.016
75073W        W43491  35.020  34.012   0.371
75074W        W43492  17.665  44.774   0.966
75075W        W43493  42.896  38.944   4.824
75076W        W43494  40.492   3.752  12.508
75077W        W43495  10.869  40.376   0.253
75078W        W43496  18.214  28.458   2.256
75079W        W43497  16.692  43.769  10.544
75080W        W43498  17.677   2.397   4.316
75081W        W43499  40.980  23.715  14.313
75082W        W43500  17.281   5.352   0.734
75083W        W43501  27.625  21.196   1.398
75084W        W43502   1.904  28.464  11.476
75085W        W43503  23.018  27.654   3.321
75086W        W43504  44.354  29.073   3.688
75087W        W43505  14.173  44.351  14.802
75088W        W43506   2.780  27.137  12.399
75089W        W43507  20.710  42.854   1.376
75090W        W43508  26.505  28.644   4.216
75091W        W43509  44.285  24.127   2.274
75092W        W43510  16.213  12.161  12.479
75093W        W43511  24.130  41.294  14.942
75094W        W43512  37.522  42.303  14.016
75095W        W43513  33.622  23.116  10.532
75096W        W43514  32.414   2.945  13.513
75097W        W43515  26.009   5.746  12.496
75098W        W43516  32.933  23.711  10.621
75099W        W43517  31.428  33.617   4.202
75100W        W43518   1.842  12.610   0.367
75101W        W43519  20.216  18.782   1.282
75102W        W43520  18.242   8.894  11.498
75103W        W43521  36.411  34.417  13.440
75104W        W43522  38.921  36.858  14.356
75105W        W43523  26.951  19.676  14.475
75106W        W43524   7.247   0.854  14.937
75107W        W43525   1.341   6.690  13.842
75108W        W43526  44.868  23.011  13.863
75109W        W43527   7.331  13.690  10.616
75110W        W43528  41.492  10.220  14.014
75111W        W43529  15.181  34.878   4.666
75112W        W43530  18.088  10.241  11.917
75113W        W43531  25.562   6.799   0.365
75114W        W43532  16.200  13.319  10.996
75115W        W43533  39.396  42.292  13.923
75116W        W43534   9.382  36.563   4.126
75117W        W43535  33.064  15.823   2.775
75118W        W43536  22.157  17.773   3.647
75119W        W43537  25.104  43.838  11.910
75120W        W43538  40.313  11.837   5.243
75121W        W43539  13.713  17.566  13.015
75122W        W43540  27.978  18.120  14.328
75123W        W43541  36.971  16.576  11.429
75124W        W43542  33.428  26.182   1.778
75125W        W43543  41.030   4.817   0.267
75126W        W43544   9.679  43.345  11.572
75127W        W43545  11.741  43.415   2.731
75128W        W43546  30.104   5.723  13.801
75129W        W43547  36.524  27.614  12.390
75130W        W43548   2.307   3.383   0.907
75131W        W43549  35.930   5.819   3.244
75132W        W43550  21.249  23.601   3.843
75133W        W43551   4.749  38.418  10.119
75134W        W43552  16.767  22.596   3.717
75135W        W43553  16.286   4.892  14.790
75136W        W43554   3.378  29.555   3.710
75137W        W43555  25.096  31.127  13.338
75138W        W43556  36.070  18.681  12.010
75139W        W43557   0.263   4.259  12.860
75140W        W43558  27.139  18.197   1.712
75141W        W43559  32.974   2.747  10.413
75142W        W43560  18.105  42.330  13.987
75143W        W43561  12.333  29.990   4.746
75144W        W43562  29.462  25.171   3.270
75145W        W43563  32.109  18.176   0.839
75146W        W43564  16.759  40.814  13.914
75147W        W43565   7.204  13.653  11.406
75148W        W43566   0.985  31.935  14.946
75149W        W43567   0.347   4.287  11.879
75150W        W43568  20.201  11.737   4.739
75151W        W43569  39.406   2.791  12.887
75152W        W43570  42.390  34.548   2.891
75153W        W43571  37.464  19.239  14.000
75154W        W43572   2.284   8.305   0.472
75155W        W43573   3.930  40.931   1.217
75156W        W43574  11.362  23.710   4.213
75157W        W43575  18.592  32.057  14.448
75158W        W43576  14.761  26.653   2.219
75159W        W43577  24.128  40.512  10.642
75160W        W43578  13.674  15.124   3.701
75161W        W43579   2.957  12.238   4.280
75162W        W43580   9.164  22.175  10.419
75163W        W43581  18.272  39.374   2.901
75164W        W43582  38.453  43.873  12.002
75165W        W43583   8.882  13.277   0.836
75166W        W43584  13.323  30.527  11.942
75167W        W43585  20.066  35.046   4.834
75168W        W43586  29.650  20.534  10.578
75169W        W43587   1.890  19.228   0.864
75170W        W43588  34.999   8.216   3.200
75171W        W43589  30.593  15.112  14.019
75172W        W43590   4.230  32.487   1.433
75173W        W43591  38.547  26.530  12.993
75174W        W43592  38.025  26.508   1.296
75175W        W43593  11.651   9.171  12.080
75176W        W43594  43.892  44.958  14.008
75177W        W43595   7.208   5.854  11.467
75178W        W43596  21.214   9.665  11.904
75179W        W43597   2.369  28.544   0.431
75180W        W43598  27.520  31.911  14.485
75181W        W43599   3.436  15.700   2.825
75182W        W43600  14.261  21.580  11.482
75183W        W43601  40.486  36.421  12.907
75184W        W43602  15.713  39.363  14.474
75185W        W43603  12.214  39.414   4.139
75186W        W43604  31.577  22.122   3.291
75187W        W43605  38.430  24.622  11.575
75188W        W43606  20.153  33.130   1.376
75189W        W43607  10.281   1.952  13.441
75190W        W43608  30.561  25.175  12.357
75191W        W43609  13.842  11.633  11.451
75192W        W43610  39.836  44.843   1.226
75193W        W43611  23.730  11.733   2.843
75194W        W43612  32.455  29.630   1.915
75195W        W43613  43.409  24.226  12.987
75196W        W43614  11.685   7.820  14.886
75197W        W43615  27.973  36.889   1.367
75198W        W43616   5.245   6.723   0.833
75199W        W43617  12.707  38.828  14.428
75200W        W43618  42.021   3.297   1.748
75201W        W43619  26.977  40.022  11.569
75202W        W43620  35.506   7.745  13.957
75203W        W43621  27.963  39.441  10.556
75204W        W43622   8.407  12.209   3.244
75205W        W43623  36.947  28.099   0.401
75206W        W43624  22.636  36.996  12.560
75207W        W43625  26.616  36.031  11.461
75208W        W43626  28.505  20.139  11.474
75209W        W43627  13.771  31.050   2.352
75210W        W43628   6.782  28.995   0.788
75211W        W43629  15.176  19.275  11.054
75212W        W43630  24.594  20.238   3.261
75213W        W43631  26.587   7.367   5.313
75214W        W43632   3.781   1.306   3.634
75215W        W43633  20.570  27.194  12.932
75216W        W43634  38.883  26.462  13.473
75217W        W43635  20.617  26.068   1.740
75218W        W43636   8.272  21.606  12.052
75219W        W43637  22.730  44.953  12.015
75220W        W43638  41.327  44.907  10.457
75221W        W43639  43.933  36.056   2.279
75222W        W43640   5.288  12.170  13.832
75223W        W43641  37.343   9.302  13.503
75224W        W43642  41.794  19.635  12.060
75225W        W43643   4.772  43.362   9.996
75226W        W43644  38.985  15.800   5.234
75227W        W43645  13.759  18.265  13.418
75228W        W43646   8.363  20.169   1.235
75229W        W43647   5.687  38.348   2.315
75230W        W43648  24.500   7.186   1.751
75231W        W43649   9.695  25.062  14.455
75232W        W43650  33.400  29.424  14.425
75233W        W43651  39.869   8.855   1.444
75234W        W43652   6.222   1.960  14.385
75235W        W43653  17.222  13.330  14.283
75236W        W43654   8.896  30.987  14.826
75237W        W43655   1.413  13.234   2.245
75238W        W43656  18.701  11.233   2.231
75239W        W43657   2.239  13.173   3.277
75240W        W43658  37.407  44.445  13.919
75241W        W43659  22.023  17.732   0.963
75242W        W43660   7.751  19.235   3.669
75243W        W43661  36.843   8.895   1.866
75244W        W43662   6.307  20.183  13.825
75245W        W43663  38.459  24.718  10.516
75246W        W43664  35.441   9.849  11.495
75247W        W43665  19.263  35.529   0.431
75248W        W43666  20.243  33.000  11.423
75249W        W43667  25.215  24.185   2.335
75250W        W43668   1.835  40.965   1.764
75251W        W43669  11.160  20.102   0.754
75252W        W43670  35.495  20.060  14.999
75253W        W43671  16.145  33.990   2.678
75254W        W43672  20.646  21.535  12.085
75255W        W43673  33.402  12.803   4.318
75256W        W43674  42.289  28.477   1.875
75257W        W43675  24.104  31.547  14.846
75258W        W43676   9.815  39.328  11.033
75259W        W43677  37.851  14.716  12.427
75260W        W43678  16.181  12.737  13.820
75261W        W43679  30.432  17.721   0.242
75262W        W43680  11.367  21.220  11.569
75263W        W43681  32.064  44.830   3.858
75264W        W43682  26.098  40.325  14.277
75265W        W43683  39.512  10.167  13.527
75266W        W43684  30.922   8.247   2.759
75267W        W43685  35.429  19.101   2.831
75268W        W43686  27.010  36.447  11.592
75269W        W43687  32.510  34.016  11.944
75270W        W43688   9.251   6.275   4.797
75271W        W43689  38.383  40.836   4.761
75272W        W43690  30.473  38.886   2.276
75273W        W43691   6.339  43.399   2.792
75274W        W43692   0.410  38.043   4.249
75275W        W43693  25.653  17.180  10.904
75276W        W43694   7.762  35.043  12.528
75277W        W43695   4.297   8.838   5.268
75278W        W43696  23.610  32.102  10.621
75279W        W43697  39.434  18.645   0.264
75280W        W43698  16.775  14.689  12.387
75281W        W43699  28.159  43.385   2.184
75282W        W43700  35.537  20.632   3.274
75283W        W43701  26.967  18.213  11.878
75284W        W43702  21.545  12.207  10.633
75285W        W43703  36.512  41.462  11.957
75286W        W43704  42.923   9.212  14.334
75287W        W43705  37.897   7.892   1.213
75288W        W43706   3.381   2.821  12.933
75289W        W43707  14.613  15.619   4.733
75290W        W43708  24.122  25.041   1.433
75291W        W43709  26.698  18.654   1.381
75292W        W43710  15.161  37.349  12.841
75293W        W43711  27.688  33.471  12.359
75294W        W43712  18.179  15.717   4.265
75295W        W43713  27.998  30.993   3.752
75296W        W43714   1.818  36.490  10.911
75297W        W43715  35.891   0.475   3.227
75298W        W43716  31.555  36.400   3.188
75299W        W43717  41.918  21.236   1.845
75300W        W43718  20.546  41.816   1.889
75301W        W43719  44.392  18.595   0.347
75302W        W43720  14.144  26.968   2.397
75303W        W43721  18.083  42.939   0.782
75304W        W43722   3.746  34.042  14.924
75305W        W43723  30.981  36.886   2.348
75306W        W43724   5.792  12.302   1.890
75307W        W43725  39.442  44.984  12.530
75308W        W43726  13.761  31.471   1.871
75309W        W43727  26.057  38.833  11.559
75310W        W43728  12.696  28.523   0.393
75311W        W43729   3.270  18.552   2.847
75312W        W43730  29.440  37.926  12.560
75313W        W43731  31.404  11.691  11.465
75314W        W43732  29.552  34.593  12.881
75315W        W43733  44.379   0.486  11.014
75316W        W43734  23.035   2.283   0.262
75317W        W43735  42.454  23.494   2.337
75318W        W43736  11.689  16.571  11.376
75319W        W43737   2.777   7.284   3.791
75320W        W43738  15.653   7.729   2.399
75321W        W43739  11.332   2.246   3.185
75322W        W43740  16.154   2.318  11.424
75323W        W43741  37.924  37.525   4.167
75324W        W43742  33.951  12.653   1.325
75325W        W43743  31.040  17.663   4.620
75326W        W43744   4.208  42.972   0.959
75327W        W43745   0.279  22.100  10.029
75328W        W43746  44.883  30.087   1.438
75329W        W43747  34.989  33.387   1.738
75330W        W43748  13.276   9.862  11.064
75331W        W43749  21.214  38.047   3.247
75332W        W43750  30.014  38.569   4.695
75333W        W43751   5.299  18.262   0.841
75334W        W43752  35.968  12.188   2.669
75335W        W43753  32.615  10.632   3.195
75336W        W43754  24.592  33.097   3.163
75337W        W43755  21.676  16.244  13.817
75338W        W43756  37.851   7.811   3.681
75339W        W43757  24.671  22.051   0.793
75340W        W43758  18.735  36.039  14.381
75341W        W43759  19.620   4.806  10.450
75342W        W43760   4.414   0.963   3.823
75343W        W43761   2.230   4.443  14.910
75344W        W43762  33.026  38.485  13.835
75345W        W43763  18.612  27.000   3.701
75346W        W43764  37.519  30.044  11.895
75347W        W43765   8.889  44.990   2.762
75348W        W43766   1.928  16.690   0.309
75349W        W43767  18.220   1.926   1.899
75350W        W43768  33.512   0.289   3.711
75351W        W43769  10.692   9.815  11.944
75352W        W43770  16.668   1.778   1.847
75353W        W43771  11.189  22.043  12.003
75354W        W43772  30.995   2.848  13.012
75355W        W43773  35.425  15.124   3.823
75356W        W43774  12.285  38.835   4.114
75357W        W43775   0.324  44.386  14.441
75358W        W43776   5.823  36.485  14.801
75359W        W43777  19.763  29.131   4.779
75360W        W43778  21.205  27.023  13.481
75361W        W43779  32.038  11.833  12.400
75362W        W43780  16.271  23.073  11.441
75363W        W43781  42.880  12.688   2.265
75364W        W43782  29.470  43.963  11.973
75365W        W43783  35.546  32.972  10.954
75366W        W43784   5.237  37.576  12.898
75367W        W43785  35.599   1.264  14.790
75368W        W43786  19.617   2.396   0.962
75369W        W43787  44.346  21.575   0.812
75370W        W43788  35.090  30.525   4.741
75371W        W43789   2.245  29.154  13.428
75372W        W43790  25.503  33.533   0.293
75373W        W43791  43.785  13.169  13.852
75374W        W43792   2.367   7.728  14.922
75375W        W43793  40.961   4.918   4.806
75376W        W43794  27.151  43.833  12.030
75377W        W43795   6.746  29.522  13.932
75378W        W43796   0.376  25.598   3.204
75379W        W43797  27.624  19.748  12.890
75380W        W43798   5.339  37.023  12.549
75381W        W43799  13.843  31.903  11.862
75382W        W43800  28.973  26.696   4.647
75383W        W43801  32.065  25.629   0.268
75384W        W43802  35.008  42.797   1.236
75385W        W43803  37.572  17.752  11.001
75386W        W43804  14.757  44.365   2.319
75387W        W43805  38.396  25.094   3.331
75388W        W43806  18.573  40.855  13.410
75389W        W43807   0.444  18.767   0.422
75390W        W43808   8.162   4.854   1.235
75391W        W43809  13.671  24.018  12.456
75392W        W43810  41.016   1.974   2.676
75393W        W43811  13.741   5.746   2.297
75394W        W43812  18.558  21.201   2.869
75395W        W43813  11.636  10.171   0.855
75396W        W43814  30.142  36.581   1.700
75397W        W43815  16.758  22.063   0.454
75398W        W43816  36.953   0.809   4.809
75399W        W43817  31.946  10.316   5.125
75400W        W43818  33.466  30.466   2.363
75401W        W43819  31.071  30.982   3.200
75402W        W43820  42.423  11.165   0.892
75403W        W43821   3.798  30.475  11.086
75404W        W43822  40.404  33.434   4.666
75405W        W43823   3.801  14.295  13.026
75406W        W43824  27.004  36.908   0.423
75407W        W43825  17.071   0.418  12.842
75408W        W43826  30.118   7.745   0.433
75409W        W43827   8.294   0.389  14.982
75410W        W43828  39.886  39.835   1.742
75411W        W43829  15.306   5.796  12.003
75412W        W43830  28.136  28.559  11.458
75413W        W43831  23.986  37.998  10.643
75414W        W43832  15.614   1.887  10.889
75415W        W43833  26.092  24.551  11.457
75416W        W43834  39.816  26.652   3.663
75417W        W43835  41.374   1.794   1.354
75418W        W43836  41.983  28.033   0.307
75419W        W43837   7.198   5.243  13.383
75420W        W43838   9.876   7.681  10.511
75421W        W43839  18.608  14.706   0.276
75422W        W43840  18.153  39.055  13.487
75423W        W43841  25.216   3.397   3.347
75424W        W43842   8.250  26.136   0.862
75425W        W43843   1.753  42.483   4.324
75426W        W43844  38.949  38.491   9.976
75427W        W43845   5.231  19.066  13.846
75428W        W43846  22.612  27.050   0.769
75429W        W43847   8.796  41.872  13.999
75430W        W43848  32.574  21.531  11.035
75431W        W43849  19.559  27.181   4.205
75432W        W43850   4.340   6.723  12.900
75433W        W43851  11.320  32.980   0.892
75434W        W43852  19.191  39.558   3.261
75435W        W43853  14.219  41.447  11.376
75436W        W43854   2.928  41.334  11.459
75437W        W43855  24.645  44.935   2.766
75438W        W43856  26.511  39.357   2.200
75439W        W43857  34.612  28.049  14.355
75440W        W43858  43.893   3.849   4.343
75441W        W43859   5.233  37.848  12.012
75442W        W43860  23.075  23.717  11.081
75443W        W43861  40.424  21.258   1.410
75444W        W43862  29.479  41.534  11.454
75445W        W43863   4.835  42.026   2.826
75446W        W43864  15.776  29.931   1.842
75447W        W43865  25.984  42.375  10.598
75448W        W43866   1.865   3.724   5.280
75449W        W43867  40.482  20.036   4.134
75450W        W43868   5.793  44.340  11.974
75451W        W43869  34.990   3.769  12.443
75452W        W43870  39.049   6.714  11.491
75453W        W43871  12.735  33.553  10.520
75454W        W43872   3.882  41.795   4.691
75455W        W43873   2.338  12.611  14.798
75456W        W43874  22.532  13.718   0.370
75457W        W43875  36.942  15.773  13.042
75458W        W43876  17.306  36.898   0.795
75459W        W43877   2.727  39.868   0.873
75460W        W43878  33.594  15.736  13.318
75461W        W43879   4.870  16.071  12.942
75462W        W43880  30.646   5.375   0.270
75463W        W43881  20.683   8.268  10.899
75464W        W43882  31.002  40.332  12.435
75465W        W43883  22.114  20.112  12.476
75466W        W43884   0.750  13.636   1.716
75467W        W43885  20.266  24.181   3.360
75468W        W43886   0.381  29.143  11.959
75469W        W43887  33.125   0.755  10.432
75470W        W43888   4.929  37.953  13.521
75471W        W43889   3.237  28.487  13.352
75472W        W43890   4.922  23.532   0.398
75473W        W43891  32.449  16.152   0.465
75474W        W43892  33.549  42.363   0.800
75475W        W43893  35.516  24.716  12.356
75476W        W43894  44.357   0.404   4.351
75477W        W43895  25.551  28.666  12.864
75478W        W43896  24.210   2.257   0.311
75479W        W43897  33.579  28.583  14.901
75480W        W43898  35.967  10.354   4.317
75481W        W43899   3.290   9.153   0.941
75482W        W43900   2.449  31.483   4.139
75483W        W43901   8.291  34.380   2.713
75484W        W43902  11.724   6.869   3.800
75485W        W43903   7.294  31.915  12.439
75486W        W43904  34.910  21.251  14.415
75487W        W43905  20.727  22.107   2.793
75488W        W43906  24.618  22.726  11.924
75489W        W43907  38.362  14.617  13.968
75490W        W43908  13.818   8.213   0.864
75491W        W43909   7.873  38.538  13.889
75492W        W43910  11.294   9.863   2.307
75493W        W43911  32.408  41.506   4.208
75494W        W43912  29.111  28.452   3.147
75495W        W43913  23.733  20.729   0.773
75496W        W43914   3.920  31.458  13.883
75497W        W43915  10.341  14.152   0.453
75498W        W43916   1.254  38.871   2.794
75499W        W43917  22.128  21.517   2.243
75500W        W43918  16.218  29.065  10.890
75501W        W43919  18.276  13.167   0.305
75502W        W43920  33.103  25.084   3.852
75503W        W43921  33.447  20.173  13.942
75504W        W43922  36.095  40.943  12.869
75505W        W43923  27.032  32.406   0.428
75506W        W43924  40.471   8.206  13.344
75507W        W43925  15.243  19.717  10.543
75508W        W43926   1.369  44.273   1.780
75509W        W43927  30.991  26.019  11.975
75510W        W43928  33.947  13.701   4.297
75511W        W43929  16.098  41.450   2.350
75512W        W43930  41.000  42.929   3.734
75513W        W43931  20.572  11.322   0.472
75514W        W43932  31.134  15.820  10.112
75515W        W43933  24.040  26.021   1.885
75516W        W43934  20.228   5.880   4.201
75517W        W43935  40.890   8.241   0.424
75518W        W43936  40.999  21.549  14.760
75519W        W43937  25.557  33.113  12.080
75520W        W43938  13.788  14.223  12.471
75521W        W43939   6.240  40.036   3.375
75522W        W43940  20.594  43.913   3.359
75523W        W43941  31.136   1.840   1.909
75524W        W43942   3.781  23.045   0.896
75525W        W43943  24.528  38.961  12.366
75526W        W43944   3.840   0.285   4.762
75527W        W43945  26.114  28.467  14.006
75528W        W43946  31.439  40.886  10.424
75529W        W43947  10.208  24.078  10.500
75530W        W43948  34.893   6.821   1.244
75531W        W43949  35.397  43.379  14.792
75532W        W43950  14.634  36.997  10.405
75533W        W43951  23.081  16.710   2.290
75534W        W43952  20.691  29.043  11.948
75535W        W43953  34.899   4.927  13.984
75536W        W43954   3.220  28.960   4.814
75537W        W43955  42.408   9.658   2.675
75538W        W43956  37.369  10.758   1.296
75539W        W43957  16.640  23.228   2.891
75540W        W43958  31.619  26.068  12.376
75541W        W43959   7.818   9.668  14.466
75542W        W43960   5.852   6.751   1.238
75543W        W43961  13.271  25.091  10.504
75544W        W43962  34.867   4.410   2.745
75545W        W43963   5.911  26.104   3.746
75546W        W43964  30.548  42.910  13.430
75547W        W43965  16.100  37.977  11.406
75548W        W43966  39.401  33.901   0.758
75549W        W43967  43.336  16.209   4.694
75550W        W43968  32.046  39.856   4.250
75551W        W43969  32.461  32.532  10.405
75552W        W43970  38.552  41.468  12.873
75553W        W43971  32.979  39.946   0.951
75554W        W43972  12.678  19.767   0.471
75555W        W43973  23.685  29.122  10.933
75556W        W43974   6.337  23.139   9.932
75557W        W43975   1.408  40.807  12.041
75558W        W43976  11.272  36.450   1.322
75559W        W43977  15.687  31.541  12.831
75560W        W43978  35.051  15.769  14.360
75561W        W43979  15.131  13.230  10.632
75562W        W43980  21.728  42.990  12.960
75563W        W43981  36.962  38.554   2.322
75564W        W43982  11.357  38.050  11.936
75565W        W43983   6.293   0.422  11.049
75566W        W43984  16.187  10.643  14.513
75567W        W43985  20.769  32.605   2.412
75568W        W43986   3.866   0.249  14.781
75569W        W43987   2.886  32.529  12.399
75570W        W43988  22.076   6.270  14.853
75571W        W43989  43.877  40.960  14.486
75572W        W43990  16.778  43.816   0.936
75573W        W43991  26.971  25.021  14.306
75574W        W43992  13.685   4.298   2.288
75575W        W43993  41.478  32.425  12.567
75576W        W43994  24.635  29.013   4.209
75577W        W43995  18.603  29.026   0.378
75578W        W43996   8.341  35.502  13.319
75579W        W43997  33.475  27.625   3.279
75580W        W43998  32.416  38.828   1.906
75581W        W43999   6.207  22.518  13.544
75582W        W44000  10.824   9.768   4.792
75583W        W44001  26.498  33.445   0.963
75584W        W44002  20.738  23.520   4.237
75585W        W44003  43.508   6.896  11.908
75586W        W44004  31.444  20.054   1.699
75587W        W44005  13.316  29.140   3.718
75588W        W44006   4.374  24.199  11.504
75589W        W44007   8.874  13.698  13.914
75590W        W44008   1.932  28.090   0.872
75591W        W44009  10.753  13.743  10.974
75592W        W44010  13.300  30.921   0.424
75593W        W44011   8.767  41.825  14.805
75594W        W44012  19.133  25.481   3.687
75595W        W44013  39.859  42.856   3.340
75596W        W44014  35.959  26.639  12.438
75597W        W44015  26.074   2.380   3.825
75598W        W44016  33.041   1.827  11.461
75599W        W44017  41.497   3.903  11.998
75600W        W44018  44.995  42.376  11.108
75601W        W44019  10.366  31.527  12.066
75602W        W44020  23.676  12.766   1.857
75603W        W44021  11.318  21.206  10.030
75604W        W44022  18.725  10.877   2.790
75605W        W44023   1.893  12.654  13.976
75606W        W44024  19.681  17.062   2.308
75607W        W44025  28.655  41.956  10.476
75608W        W44026   6.719  23.662  13.332
75609W        W44027  19.250  11.300   1.337
75610W        W44028  26.169  16.779   2.264
75611W        W44029   0.857  19.215   4.233
75612W        W44030  13.714   7.866   2.745
75613W        W44031  21.585  40.941   4.649
75614W        W44032  42.495  37.037  12.979
75615W        W44033  38.514   1.858   3.694
75616W        W44034  44.840  25.995  14.815
75617W        W44035  36.882   7.902  10.554
75618W        W44036   6.330  21.199  14.947
75619W        W44037   8.296   9.205   0.894
75620W        W44038  43.433   4.425   3.856
75621W        W44039  32.886  33.486   2.329
75622W        W44040   7.263  30.114  12.481
75623W        W44041   8.213  23.190  11.515
75624W        W44042  17.637  43.508  12.387
75625W        W44043  21.565   8.697   2.244
75626W        W44044  39.366  36.005   2.703
75627W        W44045  42.352  32.420   4.785
75628W        W44046   4.220  10.755  12.041
75629W        W44047  19.115  28.539  14.842
75630W        W44048   8.882   5.703   4.720
75631W        W44049  11.311  44.772   2.375
75632W        W44050  43.862  39.478   5.086
75633W        W44051   2.782  19.220   1.844
75634W        W44052  19.626  25.053  11.974
75635W        W44053  11.314   4.845   1.713
75636W        W44054  13.729  27.451  12.952
75637W        W44055  27.625  38.040   0.898
75638W        W44056  19.244  11.152   1.929
75639W        W44057  29.476   4.837   1.782
75640W        W44058   2.890  19.732   4.832
75641W        W44059  15.221  32.541  13.499
75642W        W44060  21.603  16.728  11.063
75643W        W44061  13.679  37.036   0.309
75644W        W44062  22.066  29.629   4.742
75645W        W44063   1.972   6.889  12.001
75646W        W44064  23.538  43.013  14.860
75647W        W44065  20.085   8.837   9.953
75648W        W44066   5.247  34.920  14.298
75649W        W44067  32.527  22.508  12.005
75650W        W44068  23.513  27.193   3.375
75651W        W44069  21.741  37.446   0.365
75652W        W44070  28.984   8.392   0.431
75653W        W44071  11.225   0.485   1.932
75654W        W44072   8.841  41.299   4.170
75655W        W44073  17.736  30.632  14.456
75656W        W44074  21.038   9.242   1.275
75657W        W44075   8.245  38.461  12.356
75658W        W44076  35.000  11.810  12.493
75659W        W44077  36.452   9.740   4.732
75660W        W44078  26.492  21.028   0.463
75661W        W44079   0.934   6.833  12.065
75662W        W44080  19.074  28.447   1.831
75663W        W44081  27.529  37.896   4.627
75664W        W44082   6.322  16.606   1.871
75665W        W44083  32.121  44.888  11.518
75666W        W44084  22.193  30.659   0.850
75667W        W44085  11.741  29.997  14.281
75668W        W44086  44.320  36.405  12.967
75669W        W44087  12.678  29.013  13.461
75670W        W44088   1.415  21.199   3.630
75671W        W44089   9.652   5.242   4.242
75672W        W44090  18.182  27.102  12.056
75673W        W44091  17.721  11.131   0.824
75674W        W44092  31.533   5.335   1.301
75675W        W44093  16.714  31.493   4.293
75676W        W44094  38.334  24.017   3.279
75677W        W44095  40.043  18.593  13.964
75678W        W44096  13.702  39.495  12.912
75679W        W44097  20.234   0.742  14.287
75680W        W44098  18.102  11.332   0.448
75681W        W44099  26.619  17.616   0.770
75682W        W44100  25.599  10.379   4.137
75683W        W44101  10.751  28.495   1.373
75684W        W44102  43.319  24.672   3.830
75685W        W44103   3.744  41.817  12.866
75686W        W44104  22.713  18.593   2.745
75687W        W44105   3.300  34.878   2.817
75688W        W44106  35.523  43.958   0.820
75689W        W44107   1.806  13.137   1.247
75690W        W44108  44.925  32.517   1.215
75691W        W44109  16.776  44.335  13.909
75692W        W44110   5.290   0.978  13.440
75693W        W44111  15.263  39.537   2.839
75694W        W44112  44.995  32.420   3.367
75695W        W44113  36.957  36.570   1.412
75696W        W44114  44.975  34.103   4.609
75697W        W44115  19.150  15.600  10.890
75698W        W44116  36.463  19.198   2.205
75699W        W44117  31.553  28.990   2.892
75700W        W44118  33.911  30.628   2.876
75701W        W44119  37.527   7.796  11.900
75702W        W44120  10.731  34.504   0.929
75703W        W44121  14.315  44.936  11.455
75704W        W44122  13.340  41.442  10.124
75705W        W44123   8.870  31.941   2.239
75706W        W44124  39.472   4.862   0.903
75707W        W44125  28.077  19.230  13.371
75708W        W44126   1.937   9.239  13.383
75709W        W44127  12.654   2.388  12.938
75710W        W44128  29.455  13.624  10.556
75711W        W44129  29.945  16.124  14.787
75712W        W44130  34.995   6.869   3.255
75713W        W44131  15.304  28.140  11.541
75714W        W44132  40.435  40.984  10.633
75715W        W44133   5.315  26.617  11.990
75716W        W44134  15.115  16.205   1.746
75717W        W44135  24.511   7.317  13.875
75718W        W44136  38.504  17.561   4.692
75719W        W44137  15.320  29.651   1.912
75720W        W44138   0.309   4.349   0.319
75721W        W44139  14.766  39.015   2.679
75722W        W44140   8.860   4.285  12.003
75723W        W44141   2.281  22.615  14.781
75724W        W44142  24.667  41.409   1.319
75725W        W44143  35.405  22.106  10.554
75726W        W44144  21.194  14.253   3.266
75727W        W44145   0.805  14.633   2.786
75728W        W44146  22.730  19.167   9.930
75729W        W44147  31.998  20.235  11.502
75730W        W44148  18.776  15.622   4.726
75731W        W44149   5.359  37.887   2.394
75732W        W44150  34.984  24.719   2.360
75733W        W44151  17.079  11.230   3.865
75734W        W44152  28.156  36.068  14.859
75735W        W44153  35.928  21.701   4.615
75736W        W44154  32.634   6.395  14.844
75737W        W44155  35.944  19.556   3.297
75738W        W44156  19.663  13.844  14.498
75739W        W44157  40.546  36.021   5.166
75740W        W44158   7.321   3.799   4.338
75741W        W44159  13.183  37.548   3.319
75742W        W44160  26.537  37.037  10.465
75743W        W44161   0.312  28.038   0.744
75744W        W44162   8.196  44.901  12.360
75745W        W44163  13.127  21.636  14.312
75746W        W44164  10.706  42.317  14.358
75747W        W44165  44.822  20.210   3.187
75748W        W44166  25.008  21.132   3.727
75749W        W44167  16.303  14.637   2.903
75750W        W44168  40.502  22.707  10.028
75751W        W44169  43.916  38.868   4.277
75752W        W44170  18.716   0.806  13.419
75753W        W44171  10.227   1.839   3.247
75754W        W44172  10.651  12.242  13.349
75755W        W44173   2.844  40.959  13.931
75756W        W44174   3.807  32.043  11.101
75757W        W44175  42.468   4.859  11.458
75758W        W44176  30.546   4.854   2.290
75759W        W44177  14.808  21.638   1.734
75760W        W44178   4.428  34.451   1.218
75761W        W44179   6.225   3.775  11.975
75762W        W44180  20.122  37.555   1.880
75763W        W44181   3.257  13.811  13.311
75764W        W44182  34.908  35.888   4.335
75765W        W44183  21.712  41.445  13.378
75766W        W44184   2.927  28.563   0.903
75767W        W44185  35.957  41.903   0.472
75768W        W44186  15.280  10.167  14.910
75769W        W44187   3.345   0.744   4.630
75770W        W44188  22.121  38.021  13.498
75771W        W44189   7.909  34.451  12.475
75772W        W44190  37.887  30.095  13.466
75773W        W44191   2.398  17.583  11.439
75774W        W44192  11.658  13.215   1.390
75775W        W44193   0.482  13.830  13.896
75776W        W44194  26.993  37.392   0.385
75777W        W44195  44.279   4.704   2.862
75778W        W44196   2.254  20.127   9.588
75779W        W44197   6.208  11.705   0.371
75780W        W44198  34.486   6.807   3.719
75781W        W44199   6.773  31.923  10.588
75782W        W44200  32.958  13.720  14.936
75783W        W44201  19.059  15.770  14.998
75784W        W44202   7.785  36.989  10.997
75785W        W44203  16.813  15.582   1.445
75786W        W44204  27.558  12.198   4.684
75787W        W44205  37.053  31.008  11.431
75788W        W44206  17.618  28.107  10.433
75789W        W44207  14.274  26.031   0.429
75790W        W44208  22.021  33.609   3.304
75791W        W44209  11.743  13.123  10.476
75792W        W44210  37.058  37.081  12.941
75793W        W44211  18.254  35.039   2.297
75794W        W44212   5.878  31.085   0.288
75795W        W44213  37.012  34.868  12.371
75796W        W44214   1.377   9.160   1.891
75797W        W44215  18.111  17.768   2.813
75798W        W44216  27.683  16.568   0.410
75799W        W44217  30.912  16.767  10.492
75800W        W44218   5.704  26.103  11.998
75801W        W44219  32.528  31.068  11.380
75802W        W44220  34.413  21.650  13.363
75803W        W44221   9.182   6.416   0.873
75804W        W44222   9.726   5.305   4.762
75805W        W44223  33.573  19.273  12.090
75806W        W44224  40.994  23.659  13.020
75807W        W44225   1.433  34.433   1.743
75808W        W44226  19.098  24.990  13.362
75809W        W44227  42.903  44.848  10.581
75810W        W44228  23.130  41.962  11.460
75811W        W44229  35.884  38.029   1.816
75812W        W44230  10.874   2.312  10.615
75813W        W44231  14.125  32.033  13.379
75814W        W44232  41.011  35.564   2.752
75815W        W44233   2.452  25.003   4.629
75816W        W44234   6.410  38.981   1.910
75817W        W44235  14.643  34.412  12.578
75818W        W44236   0.939  16.664  11.959
75819W        W44237  34.582  31.488   1.233
75820W        W44238  26.998  33.022   0.279
75821W        W44239  31.464  10.255   1.291
75822W        W44240  22.668  32.113  13.409
75823W        W44241  40.440  26.504   2.306
75824W        W44242  12.344  18.164  11.981
75825W        W44243  20.539  23.500  11.089
75826W        W44244  22.639  27.049   0.359
75827W        W44245  14.627  16.312  11.887
75828W        W44246   4.805  22.601   3.230
75829W        W44247  39.835  38.899   1.306
75830W        W44248  17.165  44.779  12.474
75831W        W44249  13.123  36.968  13.412
75832W        W44250  19.678  33.034   0.443
75833W        W44251   3.793   9.691  12.973
75834W        W44252  29.074   3.224   1.776
75835W        W44253  10.740  26.065   2.414
75836W        W44254  31.629  40.352   1.923
75837W        W44255  13.204  23.719  13.910
75838W        W44256  16.743  26.163   4.306
75839W        W44257  25.993   2.228   0.915
75840W        W44258  27.564  25.173  13.394
75841W        W44259   1.275  20.597  12.028
75842W        W44260  26.137  29.968   1.804
75843W        W44261   5.916  39.462  10.411
75844W        W44262  24.128  38.569   4.621
75845W        W44263  32.543  26.477  11.453
75846W        W44264  21.553  28.659  10.958
75847W        W44265  40.509   8.655   2.289
75848W        W44266  42.951  11.811   9.570
75849W        W44267  30.104  23.991  10.889
75850W        W44268  44.951  10.266  12.059
75851W        W44269  23.192  44.387   3.819
75852W        W44270  33.028   9.875   4.333
75853W        W44271  36.088  35.092   5.085
75854W        W44272  12.844   7.350   3.801
75855W        W44273   8.772  44.453   4.685
75856W        W44274  26.970  33.400  12.831
75857W        W44275   0.478  30.544  10.475
75858W        W44276  21.169  31.583  12.027
75859W        W44277  43.365  31.100  13.887
75860W        W44278  29.599   0.410  12.488
75861W        W44279  11.761  15.258   3.357
75862W        W44280  25.638   1.793  10.894
75863W        W44281  34.598  24.217   0.775
75864W        W44282   8.686  13.776   1.372
75865W        W44283  14.257  32.126  14.393
75866W        W44284   5.206  32.029  10.580
75867W        W44285   0.783   7.268   4.659
75868W        W44286  36.998  24.556   1.703
75869W        W44287  12.665  35.388   2.369
75870W        W44288   4.750  36.561   1.749
75871W        W44289  17.738  16.734  14.965
75872W        W44290  27.058  24.703   4.837
75873W        W44291   4.746  39.406   2.375
75874W        W44292  38.555  36.006   0.260
75875W        W44293  10.806   2.237   3.680
75876W        W44294  30.461  18.071   1.311
75877W        W44295  32.925  35.435   4.804
75878W        W44296  16.093  13.819  11.003
75879W        W44297  20.687  31.030   0.477
75880W        W44298  18.707   7.849   0.476
75881W        W44299  11.371  27.644  14.892
75882W        W44300  29.550  23.162   1.761
75883W        W44301  27.481  28.586  13.375
75884W        W44302  39.532  29.668  10.992
75885W        W44303  42.298  24.504   0.482
75886W        W44304  19.770   1.394   1.332
75887W        W44305   4.422  41.824   0.335
75888W        W44306  35.011  22.082  11.065
75889W        W44307  14.794  26.196  12.353
75890W        W44308  24.537  24.631  14.790
75891W        W44309  10.320   8.309   0.737
75892W        W44310   9.803   1.852   3.338
75893W        W44311  30.992  41.494  13.509
75894W        W44312  32.918   6.390   3.182
75895W        W44313  24.110  44.312   3.768
75896W        W44314  11.780  10.159  10.080
75897W        W44315   9.755  12.765  14.485
75898W        W44316  40.534  16.105  12.932
75899W        W44317  35.478  26.538   0.246
75900W        W44318  36.841   0.414   2.313
75901W        W44319  30.598  43.919  11.964
75902W        W44320   7.736  37.384  13.396
75903W        W44321  39.033   7.210   0.866
75904W        W44322  44.347  12.611   1.821
75905W        W44323  32.048  36.035   2.329
75906W        W44324  28.571  16.784   1.764
75907W        W44325  27.036  38.437  10.488
75908W        W44326  40.868  34.096  10.988
75909W        W44327  13.271  41.852   3.812
75910W        W44328  35.092   5.863  13.994
75911W        W44329  31.897  35.452  14.319
75912W        W44330  21.530  23.150   3.358
75913W        W44331   1.473  39.482  12.516
75914W        W44332  30.122  11.231   4.793
75915W        W44333  24.158  42.476  13.830
75916W        W44334   7.374  11.268  10.917
75917W        W44335  19.087   0.837  14.424
75918W        W44336   6.258   2.873  14.513
75919W        W44337   8.692  35.046   2.393
75920W        W44338  44.435  35.858   4.178
75921W        W44339  37.919  23.106  14.397
75922W        W44340  32.112  12.188   1.922
75923W        W44341  41.909  40.363  13.906
75924W        W44342  15.683  37.875  13.494
75925W        W44343  21.632  22.743   9.926
75926W        W44344  16.302  32.080  13.484
75927W        W44345  27.100  20.052  14.337
75928W        W44346  18.131  24.611  10.023
75929W        W44347  24.059  34.924   4.209
75930W        W44348  32.418  27.112  14.846
75931W        W44349   5.421  10.319   3.859
75932W        W44350  21.725  31.449   2.820
75933W        W44351  39.834  24.572   4.247
75934W        W44352   6.723  27.513   0.315
75935W        W44353  34.897  18.216   2.718
75936W        W44354  16.697  29.543   2.699
75937W        W44355  10.843  33.474  13.918
75938W        W44356  35.947  10.138  11.067
75939W        W44357  37.896  19.695  14.956
75940W        W44358  21.090   8.704  10.918
75941W        W44359  29.042  29.490   3.697
75942W        W44360   5.382   7.363   4.698
75943W        W44361  10.197  31.628  11.113
75944W        W44362  30.474  25.207   2.189
75945W        W44363  33.920  34.928  10.897
75946W        W44364  34.426  25.655   4.251
75947W        W44365  19.724  38.851   5.273
75948W        W44366   7.769   2.233   2.872
75949W        W44367  12.851  29.525  13.379
75950W        W44368  40.955  38.455  13.363
75951W        W44369  13.742  39.011  13.897
75952W        W44370  22.233   6.724  12.929
75953W        W44371  37.483   0.836   1.767
75954W        W44372  25.503   9.741   1.242
75955W        W44373  39.931  18.781  12.974
75956W        W44374  40.512  37.022  12.024
75957W        W44375   1.836  13.133   2.320
75958W        W44376  22.096   7.878   0.337
75959W        W44377  43.000  19.580   3.776
75960W        W44378  35.853  28.025  12.876
75961W        W44379   0.369  11.849   3.804
75962W        W44380  37.355  10.272   3.825
75963W        W44381  18.716  43.335   0.426
75964W        W44382  38.381  24.596   0.843
75965W        W44383   4.304   2.902  11.450
75966W        W44384   7.199   7.373  10.939
75967W        W44385  19.550  41.443  14.005
75968W        W44386  20.585  43.900  10.601
75969W        W44387  19.583   6.375  13.911
75970W        W44388  14.828  18.077   4.727
75971W        W44389  29.650  28.147  12.048
75972W        W44390  12.122  14.272  12.976
75973W        W44391  36.990   9.741  13.334
75974W        W44392  36.013  38.371  13.314
75975W        W44393  43.336  17.173   3.380
75976W        W44394   6.732  28.460   3.166
75977W        W44395  38.933  34.556   3.636
75978W        W44396  29.572  16.685   1.762
75979W        W44397  39.358  37.488   5.141
75980W        W44398  17.635   8.846   5.294
75981W        W44399  41.305   8.827  10.513
75982W        W44400  22.150  18.644  12.554
75983W        W44401   4.925  17.585  11.520
75984W        W44402  11.655   2.331   1.727
75985W        W44403   7.194  35.023  14.394
75986W        W44404  25.967  25.050   3.816
75987W        W44405  16.267   0.465   5.316
75988W        W44406  30.565  44.757  11.413
75989W        W44407  30.514  22.099  14.440
75990W        W44408  23.075  33.622   3.830
75991W        W44409  25.549   3.315  10.109
75992W        W44410  35.584  36.550   9.591
75993W        W44411  23.132  24.650   2.294
75994W        W44412  41.358  16.225  10.586
75995W        W44413  14.757  12.259  11.883
75996W        W44414  33.443  16.683   2.335
75997W        W44415  17.632   3.237  10.917
75998W        W44416  33.943  44.326  13.974
75999W        W44417  18.217  34.942  13.441
76000W        W44418  10.671  15.202   3.779
76001W        W44419  38.476  20.213  13.895
76002W        W44420  17.227   4.371  12.829
76003W        W44421  17.247  15.595  14.316
76004W        W44422  13.159   2.447   1.377
76005W        W44423  24.589  35.471   3.811
76006W        W44424  32.623  15.689   2.213
76007W        W44425  30.549  31.121   4.759
76008W        W44426  11.357  43.800  11.058
76009W        W44427   7.860   9.836   4.218
76010W        W44428  17.625  19.735  13.005
76011W        W44429  36.068  30.659  13.458
76012W        W44430  37.942   1.926  14.338
76013W        W44431  31.592  44.776   4.164
76014W        W44432  34.399  15.776  13.799
76015W        W44433  30.086  10.822   0.827
76016W        W44434  11.636  17.653   3.344
76017W        W44435   4.902  29.960   1.419
76018W        W44436  43.768  39.520  12.047
76019W        W44437  18.639  38.887  11.597
76020W        W44438  10.809  42.281  10.949
76021W        W44439   5.900   7.784   0.317
76022W        W44440  26.191  11.651   1.389
76023W        W44441   7.828   0.977   1.277
76024W        W44442  12.233  39.319   3.695
76025W        W44443   5.277  36.096  10.629
76026W        W44444   8.195   9.813  10.997
76027W        W44445  20.718  23.155  13.391
76028W        W44446  29.598   0.902   5.109
76029W        W44447  22.553   3.819   4.134
76030W        W44448  32.953  31.028  11.966
76031W        W44449  33.558  23.563   1.869
76032W        W44450  32.405   7.357   4.800
76033W        W44451  31.424  16.168  13.500
76034W        W44452  20.652  26.672   2.795
76035W        W44453  35.908  18.774   4.117
76036W        W44454  17.138   3.310   4.264
76037W        W44455  32.104  25.172   3.363
76038W        W44456  40.441   6.256  13.436
76039W        W44457  28.173  20.033   1.750
76040W        W44458  22.520   4.894  12.016
76041W        W44459  27.027   4.884   2.359
76042W        W44460  13.304  27.658  10.925
76043W        W44461  26.692  33.980   0.394
76044W        W44462  15.775  32.473  12.901
76045W        W44463   9.301  26.175  11.454
76046W        W44464  12.139   2.960  14.902
76047W        W44465  43.798   6.793  13.011
76048W        W44466   8.681   5.235  12.474
76049W        W44467   6.394  29.644   4.336
76050W        W44468  29.065  14.329  12.036
76051W        W44469   3.446  16.112   2.418
76052W        W44470  29.029  17.763  11.062
76053W        W44471   9.184   5.901   1.305
76054W        W44472  35.894   4.425  11.885
76055W        W44473  34.611   0.747  11.123
76056W        W44474  16.772  22.740   3.330
76057W        W44475   4.422  30.439  11.516
76058W        W44476   3.715  25.988   2.808
76059W        W44477  19.721  40.517   4.183
76060W        W44478   5.906  42.897  14.825
76061W        W44479  40.875   4.754   2.743
76062W        W44480  20.540  28.651   4.789
76063W        W44481  25.542   7.268   2.391
76064W        W44482  25.148  24.101  13.907
76065W        W44483   2.757  32.020   4.782
76066W        W44484  32.573   2.268  10.637
76067W        W44485  27.054  10.656  14.288
76068W        W44486  19.198  29.085   2.662
76069W        W44487  23.669  23.727   4.611
76070W        W44488  27.598  42.492   3.713
76071W        W44489  38.985  41.878  13.881
76072W        W44490  43.932  22.681   0.409
76073W        W44491  35.989  19.548  11.382
76074W        W44492   8.680  36.063  12.011
76075W        W44493   3.898  40.402   1.267
76076W        W44494  43.377  39.850   1.785
76077W        W44495  24.184  40.974   0.923
76078W        W44496  38.503  34.117   4.742
76079W        W44497  39.402   4.910   3.708
76080W        W44498  24.181  11.765   2.850
76081W        W44499  31.438  18.051   4.212
76082W        W44500  35.456   1.839  11.061
76083W        W44501  39.059  41.803   5.159
76084W        W44502  40.454  29.013  13.036
76085W        W44503  35.076  44.967   1.934
76086W        W44504   4.331  18.207  13.992
76087W        W44505  20.692  12.719   5.786
76088W        W44506  24.670  22.099  14.445
76089W        W44507  13.792  31.111  14.409
76090W        W44508  11.861  30.444   2.773
76091W        W44509  10.787  14.231  12.913
76092W        W44510   2.329  32.426   4.318
76093W        W44511  24.210  15.322  11.996
76094W        W44512  21.049  17.712   2.324
76095W        W44513  36.350  16.191  14.898
76096W        W44514  20.738  32.589  13.056
76097W        W44515   1.305  15.317  12.485
76098W        W44516  33.478  10.147   2.710
76099W        W44517   5.248  21.721   2.716
76100W        W44518  26.512  41.367   4.292
76101W        W44519   4.407  35.376  14.468
76102W        W44520  16.626  14.804   4.132
76103W        W44521   0.938  16.274   3.195
76104W        W44522   3.357  34.101  12.979
76105W        W44523  44.871  33.468   1.272
76106W        W44524   4.892  42.487  12.973
76107W        W44525   4.348   7.260  14.348
76108W        W44526  15.219  35.393  11.446
76109W        W44527  32.997  41.314  11.062
76110W        W44528  41.870  16.263   0.352
76111W        W44529  27.450   9.338  11.897
76112W        W44530  40.484  22.045  13.044
76113W        W44531  12.342  41.987  12.366
76114W        W44532  18.257  29.439  13.997
76115W        W44533  42.967  11.209  13.035
76116W        W44534  42.429  17.103  11.998
76117W        W44535  24.490  10.239   3.236
76118W        W44536  18.194  34.043  10.420
76119W        W44537  27.996  42.321  12.545
76120W        W44538  20.708  27.664  11.030
76121W        W44539  30.596  25.477  12.433
76122W        W44540  40.841  36.062   3.725
76123W        W44541  27.479  41.790  14.810
76124W        W44542  27.065  31.935  13.497
76125W        W44543  30.619  36.500  11.946
76126W        W44544  20.088   6.204   3.293
76127W        W44545  43.999  24.562   2.221
76128W        W44546  35.372  10.278   0.962
76129W        W44547  27.476   5.704  14.450
76130W        W44548  20.550  43.369  14.853
76131W        W44549   1.331  19.211  13.459
76132W        W44550  44.320  16.081  10.457
76133W        W44551   9.301  25.541  10.605
76134W        W44552  10.718  27.949   0.355
76135W        W44553  42.807   1.868  14.296
76136W        W44554  17.267  27.048   3.835
76137W        W44555   2.870  15.644   4.178
76138W        W44556   3.437  22.123   5.696
76139W        W44557  19.566  11.746   2.841
76140W        W44558   3.886  25.599  12.993
76141W        W44559   4.920  29.091   5.295
76142W        W44560  31.644  20.565   2.346
76143W        W44561  25.115   4.279   2.338
76144W        W44562   4.893  38.071  12.466
76145W        W44563  39.442  40.921   2.675
76146W        W44564  42.289   8.752  13.792
76147W        W44565  29.651  26.579   4.690
76148W        W44566  31.473  33.973   2.239
76149W        W44567  40.409   1.863  13.804
76150W        W44568  34.470   6.273  13.886
76151W        W44569   0.887  12.178   4.125
76152W        W44570  44.833  16.579   4.344
76153W        W44571   1.457  26.499   4.711
76154W        W44572  23.161  21.532   3.828
76155W        W44573  18.110  29.071  13.533
76156W        W44574  10.215  36.048  14.029
76157W        W44575  11.714  24.091   0.312
76158W        W44576  20.554  16.605  10.498
76159W        W44577   4.293  27.978  10.587
76160W        W44578  29.952  28.033  14.887
76161W        W44579  12.735  35.065  13.949
76162W        W44580  39.422  31.071   0.274
76163W        W44581   5.246   9.351   4.632
76164W        W44582  20.143   9.664   1.700
76165W        W44583   5.690  38.393   1.914
76166W        W44584  16.657  17.724   2.230
76167W        W44585  31.456  16.599  10.912
76168W        W44586  34.601  22.247   0.411
76169W        W44587  16.119  32.488   3.833
76170W        W44588  24.499  14.311  11.937
76171W        W44589   1.326   0.305  11.396
76172W        W44590  10.272   8.255  13.848
76173W        W44591  21.222   3.884   4.748
76174W        W44592  30.136  32.634  12.514
76175W        W44593  37.381  14.235  14.009
76176W        W44594  37.519  41.001   2.779
76177W        W44595  21.192  24.066  10.911
76178W        W44596   9.278  35.418  11.912
76179W        W44597  11.356  17.675  14.348
76180W        W44598  18.209  27.487  13.470
76181W        W44599  44.852  19.543  14.482
76182W        W44600  37.508   0.947  11.122
76183W        W44601   2.231  41.441  11.024
76184W        W44602  15.316   0.433  13.796
76185W        W44603  20.594  20.084   1.375
76186W        W44604   8.342  12.246  11.476
76187W        W44605  33.908   9.886   2.189
76188W        W44606   0.407  21.261  13.902
76189W        W44607  10.680   4.296  13.921
76190W        W44608  18.132  17.290   3.653
76191W        W44609  32.997   0.793  13.432
76192W        W44610  38.452  27.142   4.183
76193W        W44611   2.453   5.750  10.498
76194W        W44612  23.517  27.477  10.559
76195W        W44613  26.680   1.958   0.398
76196W        W44614  44.892   9.705   0.444
76197W        W44615   5.256  25.688   3.370
76198W        W44616   8.197  23.151   2.835
76199W        W44617  38.494  44.756   2.809
76200W        W44618  21.519  42.852   0.962
76201W        W44619   4.239  27.522  12.005
76202W        W44620  32.564  30.960   2.797
76203W        W44621  12.843  25.096   0.329
76204W        W44622  21.678  14.257   0.871
76205W        W44623  11.157  15.232   3.303
76206W        W44624  23.040   3.405  14.317
76207W        W44625  33.035   3.902  13.458
76208W        W44626   3.934  17.618  12.367
76209W        W44627  37.972  16.311   1.405
76210W        W44628  37.058  11.274   0.852
76211W        W44629  27.624  16.095   2.317
76212W        W44630  39.866  36.076  11.081
76213W        W44631  23.001  30.647   3.260
76214W        W44632   2.848   6.342   2.842
76215W        W44633   5.358  38.965   0.297
76216W        W44634   5.717   1.463  14.454
76217W        W44635  21.641  13.307  12.488
76218W        W44636  12.655  35.869  12.843
76219W        W44637  19.628   2.460  13.857
76220W        W44638  41.000  13.651  12.474
76221W        W44639  37.057   0.957   0.795
76222W        W44640   6.710  25.615   0.829
76223W        W44641   5.431  28.987  13.380
76224W        W44642   0.801  36.878   1.935
76225W        W44643   7.766  25.674   0.293
76226W        W44644   1.960  28.630  11.937
76227W        W44645  13.244   2.953   0.782
76228W        W44646  24.641   2.252  14.975
76229W        W44647  36.979  18.266  14.290
76230W        W44648  13.278  33.384   1.731
76231W        W44649  30.940  32.554   3.375
76232W        W44650  25.114  27.586   1.736
76233W        W44651   3.240  41.803  10.947
76234W        W44652  15.758  33.590   4.324
76235W        W44653  15.588   6.818   1.436
76236W        W44654  41.332   2.241  10.982
76237W        W44655  42.353  31.933  11.492
76238W        W44656   8.862  11.698  11.535
76239W        W44657   3.923  31.487  14.450
76240W        W44658  35.999  26.560   2.666
76241W        W44659  15.180   7.770  11.477
76242W        W44660  15.288  42.892  14.370
76243W        W44661  28.483  23.647  11.448
76244W        W44662   7.303  32.470   1.362
76245W        W44663  40.486  11.847  14.361
76246W        W44664  33.127  17.291   4.330
76247W        W44665   1.948  28.513  13.974
76248W        W44666  17.275  13.340  14.835
76249W        W44667  32.637  26.594  14.011
76250W        W44668  34.455  29.093   1.216
76251W        W44669   4.287  39.869   0.771
76252W        W44670  19.189  43.419   2.721
76253W        W44671  18.691  36.351   2.199
76254W        W44672  42.927   1.777   4.259
76255W        W44673  38.394  19.579  11.875
76256W        W44674   5.722  40.411   4.805
76257W        W44675  16.673  12.680  14.507
76258W        W44676  31.634  12.353   1.700
76259W        W44677  31.079  41.915   4.838
76260W        W44678  11.844   6.241   5.116
76261W        W44679  34.515  12.706  12.026
76262W        W44680  32.531  28.533  13.470
76263W        W44681  14.623  33.382   0.807
76264W        W44682  21.199  29.670   3.809
76265W        W44683  16.677  29.458  11.488
76266W        W44684  11.855  39.467  10.892
76267W        W44685   3.868   9.679  10.618
76268W        W44686  28.653   5.328  13.923
76269W        W44687  35.103  31.146  11.910
76270W        W44688  17.567  16.800  14.472
76271W        W44689   2.744  35.368  12.964
76272W        W44690   6.218   3.858  13.986
76273W        W44691   0.294  28.150  10.573
76274W        W44692  19.651  18.777  11.609
76275W        W44693  38.569  36.519   0.952
76276W        W44694  15.808   5.202   1.713
76277W        W44695  36.424  44.896   0.276
76278W        W44696   8.183  38.561   3.308
76279W        W44697  15.658  42.353   0.261
76280W        W44698  26.457  28.037   2.190
76281W        W44699  35.028  40.354  14.818
76282W        W44700  31.413   8.685  10.624
76283W        W44701  42.298   3.445   1.838
76284W        W44702  11.656  27.986  14.843
76285W        W44703  32.955  32.617  12.830
76286W        W44704  27.675  21.126   4.285
76287W        W44705  28.084  44.360  11.440
76288W        W44706  17.118  34.100   3.810
76289W        W44707  10.683  43.470  14.887
76290W        W44708  14.294   8.782  11.505
76291W        W44709  18.172   6.313   2.712
76292W        W44710  25.094   5.227  10.499
76293W        W44711  29.508   7.668   0.484
76294W        W44712  12.734  21.736   2.827
76295W        W44713  25.522  11.328  14.967
76296W        W44714  38.362  20.598   0.866
76297W        W44715   4.378  26.533  11.495
76298W        W44716  20.756   8.272  11.549
76299W        W44717  13.288  33.566  11.014
76300W        W44718  23.598  22.133   0.897
76301W        W44719   2.758   3.272  10.477
76302W        W44720   6.392  10.312  10.155
76303W        W44721  16.765  18.557  13.937
76304W        W44722  31.060  21.071   3.830
76305W        W44723  16.195   8.674  13.974
76306W        W44724  24.979  18.109   3.672
76307W        W44725   5.260  33.100   2.217
76308W        W44726  26.642  25.694   4.297
76309W        W44727   9.154  37.338   3.287
76310W        W44728   2.437   0.871  10.551
76311W        W44729  27.592  15.780  13.401
76312W        W44730  41.960  38.982   0.823
76313W        W44731  32.569  33.043   3.788
76314W        W44732   7.778  33.532  11.072
76315W        W44733  37.543  40.472  14.940
76316W        W44734  37.386   8.865   1.448
76317W        W44735   8.206   9.718   3.372
76318W        W44736   9.800  25.696  14.786
76319W        W44737  15.229  34.563   1.397
76320W        W44738  11.809  37.926   3.672
76321W        W44739  42.522   8.703  12.351
76322W        W44740  41.895  13.626   1.800
76323W        W44741  17.237  10.368  11.914
76324W        W44742   3.337  16.799   3.268
76325W        W44743  39.515  30.577  13.466
76326W        W44744  34.460  13.670  11.879
76327W        W44745  23.700  22.212   3.762
76328W        W44746  24.599  33.985  14.323
76329W        W44747  28.447  17.783  13.977
76330W        W44748  42.848  18.712  10.991
76331W        W44749  16.745  33.483  13.805
76332W        W44750  27.677   9.876   1.229
76333W        W44751   8.387   9.160  14.890
76334W        W44752  35.426   9.345   0.906
76335W        W44753  10.174  38.893   1.445
76336W        W44754  29.021  14.135   0.263
76337W        W44755  28.052  28.033  14.844
76338W        W44756  34.099  23.142  11.897
76339W        W44757   2.782  26.657   2.841
76340W        W44758  12.714  33.530  13.882
76341W        W44759   5.247  22.028   2.305
76342W        W44760  25.538   4.309  14.324
76343W        W44761  22.523   5.753  11.969
76344W        W44762  35.882   2.889   0.343
76345W        W44763  25.199  33.400  14.894
76346W        W44764  27.535  33.070  13.911
76347W        W44765  20.585  35.885  14.017
76348W        W44766  11.208  33.529  11.115
76349W        W44767  10.877  32.132   4.130
76350W        W44768  39.440  33.625   4.803
76351W        W44769  34.928  44.801   2.177
76352W        W44770  36.496  14.660  11.392
76353W        W44771  35.053  24.127  14.880
76354W        W44772   7.904  24.673  13.454
76355W        W44773  42.331  16.315   4.213
76356W        W44774  20.064  23.009  11.373
76357W        W44775  39.434  39.361   4.139
76358W        W44776  43.811  34.005   2.198
76359W        W44777  29.113   3.789  13.542
76360W        W44778  34.557  20.659   3.199
76361W        W44779  21.135  44.466   2.261
76362W        W44780  35.852  15.602  11.967
76363W        W44781  36.004  25.569   3.836
76364W        W44782  37.864  27.955   1.846
76365W        W44783  37.447  39.057   0.379
76366W        W44784  35.007  12.771  14.004
76367W        W44785  19.280  41.301   2.303
76368W        W44786  27.197  27.624  13.927
76369W        W44787  42.844  41.878   2.802
76370W        W44788  41.449  26.636  13.001
76371W        W44789  44.412  24.133   0.401
76372W        W44790  41.969  34.486   0.430
76373W        W44791   8.292  17.210   0.894
76374W        W44792   8.173   2.301   2.884
76375W        W44793  15.105  37.370  11.911
76376W        W44794  31.409   1.408   0.840
76377W        W44795  26.646  10.331  12.085
76378W        W44796  25.604  19.670   3.172
76379W        W44797  16.244  31.604  14.476
76380W        W44798  38.361  31.483  10.453
76381W        W44799  21.613  32.028  11.504
76382W        W44800  43.885   0.761  14.896
76383W        W44801  21.118  19.228  14.844
76384W        W44802   9.189  33.111   2.863
76385W        W44803   1.794  32.985   0.828
76386W        W44804  28.135  36.480  13.396
76387W        W44805  17.205  30.478  12.439
76388W        W44806  39.064  40.933  10.910
76389W        W44807   9.649  12.847  14.810
76390W        W44808   2.787  20.147  13.060
76391W        W44809   7.856  24.149  12.892
76392W        W44810  13.141  24.206  13.048
76393W        W44811  23.216  17.095  11.037
76394W        W44812  42.350  16.700  11.581
76395W        W44813  37.388  28.103   1.383
76396W        W44814  28.997  31.474   3.267
76397W        W44815  42.790  32.072  10.599
76398W        W44816  32.591   0.750  11.075
76399W        W44817  33.542  28.936   0.341
76400W        W44818  34.892  26.152  10.491
76401W        W44819   6.293  33.571   3.678
76402W        W44820   3.220  42.453   0.952
76403W        W44821  41.422  28.108   3.357
76404W        W44822  14.336  28.111  13.344
76405W        W44823  37.472   0.397  13.417
76406W        W44824  30.964  33.911   1.789
76407W        W44825  32.437  15.319   4.687
76408W        W44826   9.699   9.187  11.940
76409W        W44827  38.875   0.958  13.383
76410W        W44828  42.348  37.369  12.378
76411W        W44829   0.291  19.545  11.118
76412W        W44830  43.852  31.539  14.903
76413W        W44831   8.807   3.412  10.416
76414W        W44832  11.671  27.074   0.423
76415W        W44833  30.543  21.257  10.993
76416W        W44834   3.410  12.744   2.770
76417W        W44835  20.598  40.966  13.501
76418W        W44836  13.293  20.525   0.912
76419W        W44837  29.424   6.346  11.125
76420W        W44838   5.820  17.681   3.281
76421W        W44839  16.580  14.830  10.562
76422W        W44840  16.294  25.534   1.211
76423W        W44841   4.842   5.791  12.047
76424W        W44842   3.771   7.842  10.404
76425W        W44843  25.558  24.707   2.715
76426W        W44844   5.394  35.540  10.553
76427W        W44845  21.116  38.561   1.237
76428W        W44846   1.928  23.643  12.823
76429W        W44847  22.196  13.225  12.373
76430W        W44848  33.621  37.474  12.427
76431W        W44849  16.081  43.468  13.347
76432W        W44850  23.641  36.534  13.514
76433W        W44851   9.232  35.480   0.795
76434W        W44852  23.034  28.680  13.839
76435W        W44853  13.165  22.162   2.179
76436W        W44854  10.659  14.311  13.317
76437W        W44855  30.653   7.176  12.981
76438W        W44856   6.367  35.894  10.622
76439W        W44857   0.438   7.208   1.326
76440W        W44858   2.943  35.877  11.048
76441W        W44859   2.959  35.061  10.567
76442W        W44860  18.789   5.256  11.400
76443W        W44861   3.288  13.328  14.908
76444W        W44862  32.931  40.440  13.928
76445W        W44863  42.791  11.275   1.705
76446W        W44864  29.960  10.719  13.524
76447W        W44865  28.156  13.653   3.818
76448W        W44866   1.906  12.653  14.882
76449W        W44867  35.895  43.800   1.223
76450W        W44868   9.231  21.023   1.449
76451W        W44869  35.380  14.276  14.442
76452W        W44870   7.878  40.869  14.365
76453W        W44871  16.586  33.573  11.993
76454W        W44872  34.951   6.764  12.547
76455W        W44873  27.099   9.845   9.513
76456W        W44874  23.220  40.332   5.283
76457W        W44875  31.146   8.839  11.963
76458W        W44876  18.639   7.230  13.811
76459W        W44877  34.560   3.925  14.374
76460W        W44878  18.121  25.525   1.907
76461W        W44879  19.728  20.132  10.407
76462W        W44880  31.063  31.501  14.956
76463W        W44881  24.681   9.368   0.401
76464W        W44882   2.360  32.037   1.842
76465W        W44883  37.502  40.319  14.382
76466W        W44884   1.901  22.547   4.825
76467W        W44885   9.282  37.056   1.886
76468W        W44886  37.386  16.678  11.449
76469W        W44887  30.001  13.106  11.413
76470W        W44888  17.628  33.945  14.407
76471W        W44889   1.331  26.160  12.977
76472W        W44890  43.481  37.962   4.680
76473W        W44891  24.507  34.871   2.679
76474W        W44892  10.871  13.334   0.815
76475W        W44893   1.414   6.335   0.760
76476W        W44894  20.566  29.984  14.370
76477W        W44895   0.279  40.328   2.400
76478W        W44896   0.375  42.449   2.669
76479W        W44897  10.643  39.325  13.491
76480W        W44898  37.925  20.640   3.367
76481W        W44899  32.935  24.086   4.305
76482W        W44900  25.519  26.091   4.286
76483W        W44901   9.679  28.166  10.626
76484W        W44902   3.416   5.357   0.349
76485W        W44903  37.926  14.670   1.420
76486W        W44904   8.271  21.176  11.403
76487W        W44905  17.620   5.293  13.472
76488W        W44906  18.764   9.331  13.434
76489W        W44907  40.398  12.196  12.839
76490W        W44908  15.797   1.917   4.834
76491W        W44909   8.796  26.514   4.121
76492W        W44910  26.466  16.231  12.477
76493W        W44911  30.987  18.603  11.939
76494W        W44912   6.290  14.639   4.269
76495W        W44913  14.602  22.245   4.247
76496W        W44914  24.120  22.250  11.090
76497W        W44915  28.619  41.499   0.335
76498W        W44916  42.525  31.548  10.569
76499W        W44917  35.064  43.919  10.496
76500W        W44918  35.561  14.259   1.898
76501W        W44919  27.043   5.288  11.419
76502W        W44920  12.210  38.345  13.043
76503W        W44921  19.537  44.387  12.837
76504W        W44922  44.302  41.797  12.522
76505W        W44923  34.562   2.734  13.516
76506W        W44924  30.549  37.080  13.945
76507W        W44925   8.722  36.540  11.106
76508W        W44926  42.379  19.182   1.389
76509W        W44927  29.602  29.091  14.871
76510W        W44928  24.666   8.762  12.978
76511W        W44929  16.694   6.882   3.292
76512W        W44930  11.857  32.960   1.323
76513W        W44931  39.972  39.937  10.928
76514W        W44932  16.206  21.239   2.214
76515W        W44933  25.217  18.726   3.654
76516W        W44934  18.724  34.075   1.260
76517W        W44935  18.751  13.156   3.773
76518W        W44936   5.251  39.823   3.330
76519W        W44937  35.026  15.677  14.770
76520W        W44938  27.073  27.164  14.419
76521W        W44939   8.720   3.723  13.949
76522W        W44940  17.306  31.404   3.856
76523W        W44941  25.111  28.123   1.773
76524W        W44942  24.673   8.681  13.947
76525W        W44943  39.892   7.242  14.918
76526W        W44944  12.345  32.953   1.913
76527W        W44945  19.128   4.906  12.082
76528W        W44946   2.934  22.704  14.352
76529W        W44947  42.897  14.336   3.289
76530W        W44948  25.595  40.948   2.185
76531W        W44949  11.153  30.155  13.948
76532W        W44950  42.957  36.981   0.438
76533W        W44951  44.307  41.869  11.065
76534W        W44952   6.334   1.285   4.725
76535W        W44953  43.816  28.150  13.382
76536W        W44954   7.887  13.306   2.306
76537W        W44955  41.848   6.230  12.344
76538W        W44956  15.122  24.159   1.414
76539W        W44957   0.820  35.913  12.555
76540W        W44958  27.450  35.375   0.366
76541W        W44959  41.937  23.237   9.966
76542W        W44960  10.214   1.937   0.846
76543W        W44961  18.143  17.302   2.380
76544W        W44962  34.014  21.244   3.257
76545W        W44963  24.106  11.631  11.871
76546W        W44964  12.631  34.548  13.526
76547W        W44965  13.622   5.284  12.383
76548W        W44966  25.644  29.064   4.652
76549W        W44967  37.956  34.612   3.211
76550W        W44968   6.200  20.137  10.054
76551W        W44969   6.776   6.351   1.723
76552W        W44970   3.944  25.093   2.341
76553W        W44971  23.115  19.137   0.400
76554W        W44972   5.774  38.855   0.316
76555W        W44973   0.354   6.184   2.343
76556W        W44974  42.833  34.119   4.676
76557W        W44975  35.461   8.254   0.249
76558W        W44976  35.037  19.058   2.818
76559W        W44977  27.194  42.933   1.865
76560W        W44978   8.240   3.784   4.305
76561W        W44979  32.629  17.702   3.786
76562W        W44980  20.575  21.069  11.410
76563W        W44981  19.577  15.119   0.423
76564W        W44982  13.111  44.290  11.965
76565W        W44983  39.323  37.083   0.477
76566W        W44984   0.288  24.553   1.240
76567W        W44985  38.465  11.827  11.596
76568W        W44986   5.912   3.906   2.309
76569W        W44987  41.836  38.430  10.133
76570W        W44988  18.691   3.934  13.009
76571W        W44989   0.399  29.122  10.943
76572W        W44990  43.852   0.404  14.781
76573W        W44991  34.872  39.394  13.391
76574W        W44992  30.493  22.239   4.304
76575W        W44993  30.524  13.760  10.545
76576W        W44994  17.122  15.689   3.868
76577W        W44995   5.255  10.344  10.548
76578W        W44996   0.456  17.187  13.883
76579W        W44997  30.086  32.021   2.812
76580W        W44998  41.423  39.926   3.172
76581W        W44999  30.960   4.925   1.232
76582W        W45000  34.991  13.203   1.355
76583W        W45001  16.139  35.444   2.381
76584W        W45002  16.264  26.103  13.975
76585W        W45003  14.689   5.353  13.863
76586W        W45004  36.483  38.020  12.505
76587W        W45005  24.049  33.085   1.424
76588W        W45006   1.386  33.607  12.897
76589W        W45007  33.499  32.116  14.807
76590W        W45008  27.458  38.891   1.934
76591W        W45009  42.326  33.067  13.831
76592W        W45010  30.525  36.374   4.184
76593W        W45011  33.408  27.691  12.890
76594W        W45012  28.564  30.983  14.926
76595W        W45013  35.601  42.458   2.325
76596W        W45014  33.920   1.350   2.240
76597W        W45015  18.278   3.896   4.346
76598W        W45016  28.100   7.887  13.952
76599W        W45017  15.311  26.150   2.182
76600W        W45018  25.674   1.894  14.451
76601W        W45019  32.496  34.057   1.418
76602W        W45020  40.931   7.746  14.948
76603W        W45021  23.203   1.244   2.744
76604W        W45022  18.657  30.530   3.833
76605W        W45023  28.966   1.927   1.314
76606W        W45024  35.896   5.767   1.360
76607W        W45025  25.034  44.796  12.567
76608W        W45026  16.604  23.713   0.374
76609W        W45027  17.741  23.670   1.843
76610W        W45028   7.233  30.931  11.421
76611W        W45029  40.887  19.548  14.292
76612W        W45030  16.732  27.675   1.351
76613W        W45031   9.330  42.934  14.950
76614W        W45032  24.030   0.959   1.825
76615W        W45033   2.446  10.828  12.363
76616W        W45034  29.461  19.660  12.415
76617W        W45035   9.774  15.762  13.882
76618W        W45036   1.320  43.896   4.653
76619W        W45037  22.585  23.727  13.350
76620W        W45038  33.067  13.782   0.365
76621W        W45039   4.748   9.835   1.334
76622W        W45040  35.881  12.637  12.853
76623W        W45041  18.604  33.539   3.293
76624W        W45042  10.655   4.818  14.804
76625W        W45043  31.550  19.560   0.744
76626W        W45044  31.117  42.524   3.695
76627W        W45045  16.789  31.017  14.807
76628W        W45046  23.207   9.790  13.953
76629W        W45047  31.509  44.911   2.365
76630W        W45048  34.023  33.041   1.903
76631W        W45049  33.996  13.241   3.636
76632W        W45050  42.881  24.047  13.897
76633W        W45051  22.555   6.299  11.919
76634W        W45052  18.093  43.405  13.358
76635W        W45053   1.828  44.859  10.577
76636W        W45054  10.854  43.406  13.999
76637W        W45055  32.537  21.091   0.439
76638W        W45056   6.340  20.086  11.404
76639W        W45057  43.871  22.118   5.203
76640W        W45058   4.703   5.384   2.668
76641W        W45059   2.891   5.788  11.094
76642W        W45060  38.545  19.629   1.361
76643W        W45061  16.640   1.328   0.417
76644W        W45062   4.394  10.803   0.944
76645W        W45063  37.389  34.119  10.487
76646W        W45064  32.017  27.162   4.255
76647W        W45065  26.994  13.185  14.004
76648W        W45066  30.050  16.600   4.207
76649W        W45067  41.443  18.209  12.483
76650W        W45068   6.417   6.270   2.252
76651W        W45069  22.167   8.851  13.535
76652W        W45070  10.826  40.546  10.147
76653W        W45071  18.759  17.108   0.845
76654W        W45072   0.962  10.327  12.844
76655W        W45073  25.493  27.953   0.436
76656W        W45074  19.143  30.016  14.409
76657W        W45075  22.212  14.120  12.884
76658W        W45076  41.013  12.807   1.225
76659W        W45077  37.453  19.568   4.711
76660W        W45078  12.793   6.406   3.789
76661W        W45079  33.970   5.777  12.463
76662W        W45080   0.253  38.037   2.409
76663W        W45081  10.765   0.986  12.396
76664W        W45082   2.791  35.438  14.842
76665W        W45083  28.025  42.029  14.778
76666W        W45084  19.281   6.749   4.812
76667W        W45085  32.028  40.461  13.816
76668W        W45086  30.130  37.068   2.682
76669W        W45087  34.608  22.570   3.799
76670W        W45088  37.058  17.792  10.537
76671W        W45089   6.752  35.526  14.353
76672W        W45090   9.182  15.628   3.844
76673W        W45091  20.604   8.869  13.313
76674W        W45092  34.016  32.573  12.453
76675W        W45093  14.161  19.169   2.277
76676W        W45094  34.868   1.784   1.837
76677W        W45095  34.939  32.955   1.290
76678W        W45096   6.396  29.148   0.752
76679W        W45097  21.251  43.487  10.925
76680W        W45098  42.384   1.427   0.299
76681W        W45099   1.296  29.564  14.786
76682W        W45100  27.483  25.690  14.935
76683W        W45101  31.615  39.907  13.451
76684W        W45102  33.514  36.989   1.381
76685W        W45103   2.256  21.081   4.266
76686W        W45104  41.024  23.016  13.986
76687W        W45105  10.370   9.183  10.459
76688W        W45106  10.313  17.761  14.788
76689W        W45107  23.995  43.855   4.718
76690W        W45108  35.002  35.495   4.691
76691W        W45109  19.181  32.128  11.027
76692W        W45110  40.334  36.082   1.804
76693W        W45111   5.272   8.348  14.491
76694W        W45112  24.184  36.081  14.448
76695W        W45113  44.933  21.747   1.704
76696W        W45114  42.284  27.164   4.155
76697W        W45115  11.866  33.032   0.251
76698W        W45116  43.915   9.156  12.966
76699W        W45117  30.164  39.828  13.381
76700W        W45118   1.744  15.250   1.846
76701W        W45119  26.509   1.349   0.326
76702W        W45120  10.367  36.018   0.283
76703W        W45121  22.520  19.269   0.283
76704W        W45122  16.612  40.359   0.886
76705W        W45123  24.528  28.680  14.364
76706W        W45124  10.697  17.620   3.683
76707W        W45125  34.016  28.027   0.250
76708W        W45126  19.129  17.184  11.412
76709W        W45127  33.105   4.756  14.957
76710W        W45128  29.610   3.261  14.302
76711W        W45129  19.065  17.561   4.756
76712W        W45130  21.052  15.110   2.179
76713W        W45131  33.515   9.690   1.293
76714W        W45132  17.108  13.639   1.764
76715W        W45133  21.520  41.802   3.298
76716W        W45134   9.680   8.697  13.849
76717W        W45135  36.041  21.698   0.769
76718W        W45136  44.800  32.911  12.834
76719W        W45137  35.563  25.170   4.658
76720W        W45138  25.541   6.883   3.198
76721W        W45139  32.897  40.830   4.733
76722W        W45140   3.435  16.219   3.759
76723W        W45141   3.265   8.689  13.447
76724W        W45142  31.419   6.423  12.543
76725W        W45143  34.524  44.444  14.903
76726W        W45144  11.643  28.663  10.507
76727W        W45145  36.928   9.244  10.586
76728W        W45146  12.824  22.150   2.770
76729W        W45147  38.522  27.191   0.460
76730W        W45148  34.965  44.425   5.120
76731W        W45149   3.771  16.298   2.293
76732W        W45150   3.395   6.182  13.841
76733W        W45151   8.296  36.078  11.479
76734W        W45152  39.047  19.230   1.351
76735W        W45153  39.855  42.861   5.305
76736W        W45154  20.690  39.324   4.786
76737W        W45155  36.349  20.628  14.976
76738W        W45156  28.620   0.852  11.599
76739W        W45157  30.948  40.544  12.016
76740W        W45158   5.362  27.019   2.814
76741W        W45159  15.810  15.287  14.493
76742W        W45160   5.228   1.352  10.521
76743W        W45161  36.879  19.042   1.242
76744W        W45162  14.271  23.559   4.714
76745W        W45163   5.198   2.255  11.981
76746W        W45164  26.586  15.681   3.360
76747W        W45165  25.077  17.072  13.062
76748W        W45166   2.750  11.170   3.160
76749W        W45167  11.283   6.782  13.355
76750W        W45168  24.047  18.242   2.826
76751W        W45169  11.192  40.429  12.038
76752W        W45170  25.112   8.791   3.764
76753W        W45171   2.741   0.767   0.838
76754W        W45172  33.004  31.093   2.258
76755W        W45173   2.467  11.677  14.858
76756W        W45174  12.719  18.065  11.868
76757W        W45175  27.167  19.258  11.076
76758W        W45176  13.124   3.227   5.157
76759W        W45177   0.477   6.915  12.069
76760W        W45178  44.834   2.452  12.505
76761W        W45179  35.467  14.740  11.059
76762W        W45180  15.156   1.406  14.021
76763W        W45181  24.633  19.249   0.769
76764W        W45182  42.512  32.618  13.355
76765W        W45183  32.615  44.906   3.631
76766W        W45184  28.958   7.853  14.824
76767W        W45185  23.547  20.677  10.599
76768W        W45186  20.244  42.892  13.819
76769W        W45187   6.321  28.490  14.295
76770W        W45188  43.875  42.515   3.763
76771W        W45189  38.965  31.552  14.443
76772W        W45190  12.221  23.236  10.488
76773W        W45191  26.025  42.462  14.970
76774W        W45192  37.871  27.621  10.461
76775W        W45193  28.971   3.346  14.336
76776W        W45194  33.620  33.936   4.749
76777W        W45195   3.765  16.259   4.170
76778W        W45196   5.373  30.945  14.976
76779W        W45197  17.628  38.948   1.709
76780W        W45198  24.010  18.250  12.985
76781W        W45199   4.232  21.738   4.827
76782W        W45200  16.615  12.355  11.564
76783W        W45201  18.653  14.284  14.481
76784W        W45202  25.048  34.437  11.461
76785W        W45203   7.840  42.028  12.458
76786W        W45204  10.318  44.867  10.901
76787W        W45205  11.281  23.586  11.426
76788W        W45206  36.925  21.592  12.055
76789W        W45207  18.266  38.439  10.960
76790W        W45208   7.330  20.231  12.450
76791W        W45209  28.009  20.242  10.921
76792W        W45210   5.843  25.059  12.062
76793W        W45211  33.002   2.784   2.228
76794W        W45212  30.075   2.884  11.586
76795W        W45213  39.364  38.894   1.402
76796W        W45214  44.871  22.523   4.817
76797W        W45215  13.343   1.338   4.341
76798W        W45216  28.067  39.531  11.987
76799W        W45217  42.351  44.925  14.465
76800W        W45218  31.608  41.507  13.337
76801W        W45219  31.413  12.330  11.404
76802W        W45220  16.568   7.765   2.900
76803W        W45221  12.813  34.965   4.206
76804W        W45222  44.447  29.547  13.886
76805W        W45223  11.170   3.452   2.723
76806W        W45224  39.480   3.905  13.984
76807W        W45225  19.052  14.741  13.512
76808W        W45226  27.680  34.370   4.129
76809W        W45227  28.529  34.956   1.439
76810W        W45228   8.389  28.497   2.874
76811W        W45229  40.490  22.575   0.283
76812W        W45230  28.436   1.288   0.398
76813W        W45231  32.126  21.667  11.064
76814W        W45232  28.960  30.024   3.684
76815W        W45233  25.675  27.465   0.369
76816W        W45234  32.999  13.687   4.143
76817W        W45235   1.471  19.136   3.350
76818W        W45236   6.820  24.510   2.719
76819W        W45237  22.154   9.877  12.974
76820W        W45238  31.587  22.166   1.774
76821W        W45239   7.410  38.964  10.537
76822W        W45240   1.731  19.110   3.653
76823W        W45241  14.669  40.326  10.104
76824W        W45242  13.646   2.232   2.725
76825W        W45243  16.638  17.649   1.219
76826W        W45244   8.241  29.617  14.448
76827W        W45245  37.847  38.867   1.318
76828W        W45246  44.836  35.087   4.732
76829W        W45247  13.792   7.367  13.427
76830W        W45248  35.985  35.989   0.482
76831W        W45249  44.296  10.825  11.468
76832W        W45250  32.482  38.367   2.891
76833W        W45251   6.894   3.828   2.802
76834W        W45252   2.304  35.485   2.221
76835W        W45253  29.482   1.874   0.921
76836W        W45254  33.098  43.273  13.407
76837W        W45255  26.545  25.202   5.141
76838W        W45256  21.678  27.996  10.549
76839W        W45257  26.502  40.468  10.974
76840W        W45258  44.781  15.776  13.807
76841W        W45259  12.311  29.172  13.832
76842W        W45260  22.040  38.861  14.510
76843W        W45261  28.535  43.959   3.168
76844W        W45262   8.679  37.370   1.897
76845W        W45263  12.270  27.082  13.827
76846W        W45264  43.434  10.195  13.462
76847W        W45265  34.519   3.256  13.386
76848W        W45266  31.098  39.845   1.401
76849W        W45267  15.224  42.426  12.828
76850W        W45268  23.675   0.360  13.495
76851W        W45269  36.411  29.036   3.751
76852W        W45270   1.344  33.928   3.791
76853W        W45271  14.263   0.760   3.835
76854W        W45272  44.400  42.432   1.397
76855W        W45273  34.443   1.274  10.513
76856W        W45274  38.504  42.326   4.155
76857W        W45275  22.115   7.222   4.790
76858W        W45276  19.081  30.552   3.274
76859W        W45277  17.614  21.669   1.750
76860W        W45278  18.201  24.228   0.924
76861W        W45279  12.158  39.519  13.464
76862W        W45280  25.218  16.764  11.974
76863W        W45281  28.127  13.269  12.413
76864W        W45282  35.106  12.807  14.978
76865W        W45283  10.660   4.245   2.878
76866W        W45284   4.379  26.011   1.316
76867W        W45285  18.657   2.733  13.893
76868W        W45286   4.789  42.338   3.871
76869W        W45287   1.465  44.296   3.860
76870W        W45288  23.044  33.925   0.326
76871W        W45289   7.254  40.334   4.816
76872W        W45290  20.526  22.713  12.900
76873W        W45291  35.097  14.658   2.783
76874W        W45292  15.275   9.692   4.157
76875W        W45293   0.454  43.478  12.542
76876W        W45294  32.447  33.906   1.778
76877W        W45295   2.448  36.980  12.909
76878W        W45296  14.609  23.153  14.022
76879W        W45297  43.864  13.711   3.280
76880W        W45298  31.625   6.752  11.521
76881W        W45299  36.541  24.134  12.457
76882W        W45300  42.023  25.696   3.758
76883W        W45301  16.775   0.793  13.846
76884W        W45302  20.099   0.375   1.857
76885W        W45303  37.446  20.052   2.754
76886W        W45304   8.677  40.410  14.801
76887W        W45305  36.863  43.925   1.913
76888W        W45306  34.425  19.757   2.328
76889W        W45307  26.995  24.989  10.405
76890W        W45308  22.059  40.930   0.943
76891W        W45309  32.554  23.109   0.803
76892W        W45310  10.792  32.573   3.282
76893W        W45311  11.832   1.816   0.357
76894W        W45312  35.890  33.950   4.228
76895W        W45313  42.994  17.277   5.134
76896W        W45314  23.212   4.350  14.405
76897W        W45315  23.570  29.920  13.311
76898W        W45316  20.705   3.251   0.837
76899W        W45317  24.494  38.819   2.831
76900W        W45318  25.149   0.921  11.523
76901W        W45319  20.568  39.490   2.243
76902W        W45320  34.929  38.888   3.230
76903W        W45321  28.498   9.347   1.763
76904W        W45322  30.652  39.811  11.512
76905W        W45323  30.628  33.512   1.884
76906W        W45324   3.760   5.724   1.247
76907W        W45325   7.296  38.366  13.506
76908W        W45326  29.475   4.792   4.746
76909W        W45327   9.213  30.441   0.371
76910W        W45328  30.064  38.029   1.790
76911W        W45329  18.565   6.813  12.997
76912W        W45330  26.021  17.253  13.424
76913W        W45331  33.043  10.660  10.554
76914W        W45332  19.648   5.419  13.810
76915W        W45333   8.745   0.859  11.474
76916W        W45334  43.834  19.240   0.464
76917W        W45335  42.004  44.349  10.420
76918W        W45336  34.971  14.313   2.871
76919W        W45337  24.584  32.471  11.406
76920W        W45338  20.116   4.437   3.751
76921W        W45339  11.842  16.311   0.776
76922W        W45340  36.395  36.988  10.906
76923W        W45341  18.594   9.697  11.489
76924W        W45342   9.857  41.037  14.766
76925W        W45343  12.280  10.226   0.853
76926W        W45344  30.088  39.872  12.366
76927W        W45345  19.202  15.129  12.832
76928W        W45346  20.058  28.948  11.559
76929W        W45347  16.276  42.440  10.519
76930W        W45348  42.510  37.540  14.836
76931W        W45349  44.936  21.702   5.317
76932W        W45350  22.519   3.433  11.903
76933W        W45351  22.700   2.442   0.366
76934W        W45352  24.639  20.136  12.413
76935W        W45353  35.887  43.783   4.832
76936W        W45354  25.532  10.237  12.914
76937W        W45355  13.345  40.455   1.238
76938W        W45356   9.703  37.494  10.466
76939W        W45357  41.833  23.493  14.888
76940W        W45358  11.157  17.190   2.845
76941W        W45359   7.865   5.216  11.486
76942W        W45360  25.122  20.095   4.150
76943W        W45361   2.393  43.293   4.127
76944W        W45362  19.112   2.774  11.117
76945W        W45363   4.737   6.415  12.855
76946W        W45364   2.750  14.764  12.497
76947W        W45365   6.731  14.188   1.774
76948W        W45366  17.175  20.058   0.809
76949W        W45367  35.420  32.405   1.224
76950W        W45368   1.465  40.030   3.245
76951W        W45369  15.798  24.664   3.360
76952W        W45370  35.562  17.071  12.967
76953W        W45371  43.496  22.721   2.843
76954W        W45372   8.400  38.480   1.261
76955W        W45373   6.256  17.594  11.909
76956W        W45374  21.696  29.154   3.315
76957W        W45375  14.303  39.900   3.160
76958W        W45376  43.498  35.926   4.627
76959W        W45377  17.776  40.397  10.634
76960W        W45378  25.206  10.310  14.346
76961W        W45379  18.688   1.839  13.520
76962W        W45380   8.752  25.650   3.206
76963W        W45381  28.129  42.491  13.960
76964W        W45382  15.746  13.705  13.038
76965W        W45383  24.610   5.392  14.010
76966W        W45384  14.302  21.728  14.306
76967W        W45385  23.046   8.395   2.296
76968W        W45386  27.485  26.024  11.506
76969W        W45387  39.044   2.727   2.189
76970W        W45388  33.885  33.591  12.061
76971W        W45389  24.625   9.266   2.847
76972W        W45390  24.494  29.071   1.898
76973W        W45391  19.658  37.948   4.156
76974W        W45392   9.215  43.891  11.079
76975W        W45393   5.200  40.913  13.027
76976W        W45394  29.559   0.963  14.780
76977W        W45395   2.467  31.140  14.411
76978W        W45396   0.935  18.191  10.124
76979W        W45397  13.209  39.846   0.913
76980W        W45398  25.585  27.590  13.062
76981W        W45399  41.302  15.293   0.830
76982W        W45400  20.243   2.359   2.693
76983W        W45401  14.245  18.750   2.220
76984W        W45402  20.139  44.776  14.383
76985W        W45403  18.694  26.565   3.719
76986W        W45404   5.419  11.307  12.868
76987W        W45405  43.965  35.878  12.922
76988W        W45406  44.841  35.035   1.809
76989W        W45407  35.108  17.117   1.347
76990W        W45408   2.917   9.262   3.303
76991W        W45409  32.446   3.736   2.773
76992W        W45410  22.566   6.820   0.319
76993W        W45411  16.767  11.856  11.459
76994W        W45412  33.033  14.671  10.590
76995W        W45413  24.101   4.938  14.866
76996W        W45414   5.257   7.812   0.419
76997W        W45415  35.062   8.761   4.294
76998W        W45416  10.645  43.926  12.386
76999W        W45417  20.622  22.542  14.860
77000W        W45418  11.130  37.337   3.230
77001W        W45419  18.727  37.564  14.953
77002W        W45420  20.230  17.712   3.719
77003W        W45421  28.061   9.310   4.271
77004W        W45422   8.898  30.093  11.973
77005W        W45423  24.203  26.042  13.028
77006W        W45424  12.170  25.052   0.946
77007W        W45425  27.446  31.533  11.436
77008W        W45426  12.298  30.914  12.526
77009W        W45427   4.404  19.749  13.416
77010W        W45428  25.139  17.728  12.028
77011W        W45429  17.130  13.723  14.023
77012W        W45430  40.337  13.675  13.842
77013W        W45431  17.610  19.660   1.285
77014W        W45432  10.187  39.855   1.711
77015W        W45433  23.517  26.476  13.418
77016W        W45434  38.535   5.216   4.136
77017W        W45435  43.861  12.308   2.768
77018W        W45436  30.636  42.350  13.050
77019W        W45437   9.174  38.334  11.874
77020W        W45438  18.180  36.442   3.339
77021W        W45439   9.241  44.760   1.431
77022W        W45440  15.733  42.426   4.690
77023W        W45441   4.329   9.261   3.305
77024W        W45442  19.691  41.841  12.940
77025W        W45443   6.854   4.325   1.931
77026W        W45444  18.751  22.179   1.924
77027W        W45445  13.672  27.135  10.605
77028W        W45446   2.803  16.248   3.660
77029W        W45447  43.515   3.380  12.882
77030W        W45448  18.277  22.691  14.901
77031W        W45449  25.497  37.423  13.034
77032W        W45450   2.744   6.295   0.257
77033W        W45451  24.577   4.254   2.335
77034W        W45452   3.427  25.624  12.492
77035W        W45453   4.919  20.149  13.437
77036W        W45454   7.687  19.577  14.306
77037W        W45455   3.910  17.145   1.875
77038W        W45456  41.980   4.869  14.793
77039W        W45457   8.215  27.056   4.138
77040W        W45458  26.537  25.554   2.900
77041W        W45459   8.198  41.469  10.582
77042W        W45460  41.865  44.914   3.740
77043W        W45461  10.261  29.537  14.032
77044W        W45462  18.705  12.220   9.978
77045W        W45463  21.057   7.405   3.674
77046W        W45464  26.666  28.082  14.942
77047W        W45465  34.053  25.053   0.937
77048W        W45466  20.129   8.245  11.991
77049W        W45467  38.531   5.854   1.414
77050W        W45468  12.223   9.337   0.947
77051W        W45469   4.881  21.151  12.940
77052W        W45470  13.809  31.576   2.417
77053W        W45471   0.852  43.871   2.318
77054W        W45472  32.109  11.172  14.413
77055W        W45473  42.477  17.302  10.906
77056W        W45474  22.597  42.810   3.300
77057W        W45475   1.324  10.194  14.313
77058W        W45476  28.069   2.446  14.878
77059W        W45477  13.822  11.647   1.363
77060W        W45478  22.190  32.540  14.031
77061W        W45479  42.905  17.110  14.307
77062W        W45480  43.941  10.650  13.855
77063W        W45481  17.135  27.161   3.349
77064W        W45482   9.306   2.928  14.501
77065W        W45483   9.889  42.777   2.778
77066W        W45484  25.609  43.378  14.873
77067W        W45485   0.962  25.652  14.326
77068W        W45486  17.722  12.295   0.423
77069W        W45487   4.885  23.216   4.279
77070W        W45488  21.158   6.300  13.880
77071W        W45489  27.068  29.161   0.799
77072W        W45490   2.438  43.879  13.887
77073W        W45491  22.529  39.957   2.334
77074W        W45492  12.831  11.198  11.923
77075W        W45493  10.793  42.362  13.912
77076W        W45494  35.895   2.830   2.359
77077W        W45495  12.227   6.871  12.480
77078W        W45496  25.689   6.868  14.003
77079W        W45497  20.710  20.049  13.014
77080W        W45498  20.571  32.964  12.053
77081W        W45499  18.092  24.086   3.769
77082W        W45500   5.773  18.194   4.597
77083W        W45501  30.439   0.431   2.293
77084W        W45502  10.321  26.559   1.930
77085W        W45503  12.743  21.209  10.502
77086W        W45504  10.645  26.202   4.641
77087W        W45505   4.272  44.302   0.795
77088W        W45506  22.573  34.536  12.555
77089W        W45507   3.770   1.934   3.328
77090W        W45508  13.133   1.734  12.977
77091W        W45509   3.936  36.976   1.280
77092W        W45510  28.530  22.595   1.361
77093W        W45511  21.515  35.429   3.319
77094W        W45512  15.756   2.924  12.920
77095W        W45513  19.768  18.647   2.239
77096W        W45514  17.094  22.196  14.787
77097W        W45515   5.793  19.253  13.532
77098W        W45516  32.564  17.672  10.612
77099W        W45517  31.461  21.653   0.363
77100W        W45518  13.649  20.567  11.592
77101W        W45519  23.571   5.285   4.121
77102W        W45520   4.406  41.481  13.390
77103W        W45521   9.789   3.715   3.332
77104W        W45522  29.654  12.158  13.514
77105W        W45523   7.207  34.006   3.160
77106W        W45524   6.213  26.048   4.352
77107W        W45525  19.165   4.809  14.447
77108W        W45526  25.561  12.694  11.541
77109W        W45527  25.172  30.421  12.841
77110W        W45528  41.812  31.418   1.338
77111W        W45529  30.647  35.466  11.861
77112W        W45530  33.580  11.824  12.875
77113W        W45531  22.596   1.864   2.196
77114W        W45532  11.694  41.380  13.026
77115W        W45533  35.411  31.049   3.815
77116W        W45534  14.287  41.386  12.985
77117W        W45535  35.898  37.417  10.915
77118W        W45536   1.864  40.394  13.529
77119W        W45537   7.417  14.117  11.484
77120W        W45538  19.574  35.529   2.289
77121W        W45539  16.795  25.138   3.767
77122W        W45540  13.215  28.031  13.336
77123W        W45541  34.509   6.236   3.351
77124W        W45542  31.926  30.586  14.428
77125W        W45543  23.602  36.396  12.474
77126W        W45544  33.019  43.932   0.292
77127W        W45545  27.067  15.114  13.053
77128W        W45546  23.617   1.841   3.166
77129W        W45547   0.395  44.822   3.355
77130W        W45548  33.911  30.037   4.337
77131W        W45549  39.483   2.287   3.825
77132W        W45550   0.789   9.177  11.078
77133W        W45551  31.130  20.044  12.934
77134W        W45552   2.291  39.822  14.031
77135W        W45553  40.868  15.292   0.888
77136W        W45554  17.150   2.463   2.212
77137W        W45555  17.708  24.709  14.355
77138W        W45556  38.873   3.886   2.266
77139W        W45557   0.265   9.859   0.259
77140W        W45558  17.263   3.849   3.228
77141W        W45559  40.402   9.710  10.935
77142W        W45560  10.778   6.238   0.787
77143W        W45561   3.355  25.995   4.126
77144W        W45562  32.604  28.447   1.298
77145W        W45563  11.695  27.185   1.280
77146W        W45564  38.051   8.210   0.480
77147W        W45565  33.546  28.964  11.081
77148W        W45566  22.723  12.298   2.322
77149W        W45567   9.878  27.983   3.840
77150W        W45568  42.523  21.091   3.333
77151W        W45569  32.025  18.744   0.771
77152W        W45570  12.200  29.095   3.863
77153W        W45571  23.568  31.103   4.756
77154W        W45572  25.113  44.950  11.578
77155W        W45573  34.922  19.609  10.456
77156W        W45574  30.643  10.145   0.463
77157W        W45575  25.031  26.970   2.708
77158W        W45576  29.931  39.406  13.934
77159W        W45577  26.167  15.103  13.877
77160W        W45578  32.117  38.531   2.370
77161W        W45579  23.145  23.646   0.295
77162W        W45580  15.249  44.873   1.435
77163W        W45581  41.377  29.536   4.650
77164W        W45582   2.890  35.463  10.637
77165W        W45583   3.935  17.650  11.385
77166W        W45584  22.016   2.916  11.467
77167W        W45585  43.981   8.831  12.474
77168W        W45586  23.684  24.544  14.388
77169W        W45587  27.626  25.701  12.945
77170W        W45588  11.806  24.033   5.306
77171W        W45589   3.897   4.708  14.899
77172W        W45590  33.923   0.944   0.964
77173W        W45591  28.992  25.604  13.934
77174W        W45592  22.026  32.482   0.778
77175W        W45593   8.287  44.927  12.934
77176W        W45594  10.333  14.218  13.371
77177W        W45595   5.891   3.233   1.335
77178W        W45596  35.953  12.666  10.538
77179W        W45597  29.568  27.591  10.423
77180W        W45598  17.304  18.179  11.033
77181W        W45599  36.033  29.515   4.323
77182W        W45600  16.780   0.979   3.288
77183W        W45601  13.691  30.053  10.952
77184W        W45602  26.196  32.635  11.526
77185W        W45603  27.450  18.728  11.451
77186W        W45604  16.097  40.468   1.282
77187W        W45605  31.026  31.445   0.769
77188W        W45606  24.979   0.777  11.004
77189W        W45607   6.857  14.324  11.047
77190W        W45608  24.480   1.939   3.347
77191W        W45609  16.572  12.274   0.750
77192W        W45610  18.690  40.022   0.420
77193W        W45611   6.747  31.049  13.001
77194W        W45612  16.092  16.085  14.315
77195W        W45613   0.431  27.161   0.882
77196W        W45614   6.362  30.103  11.941
77197W        W45615  43.437   2.780   4.795
77198W        W45616  18.633  38.054  13.924
77199W        W45617  18.548  19.546   4.762
77200W        W45618   8.264  24.111  14.817
77201W        W45619  27.954  21.196   2.685
77202W        W45620  19.642   0.432  13.817
77203W        W45621  41.530   7.736  12.467
77204W        W45622  26.965  34.370   1.260
77205W        W45623  18.145   4.209   4.787
77206W        W45624  25.130  27.119  14.316
77207W        W45625  28.656  26.603  13.472
77208W        W45626  18.296  29.653  12.363
77209W        W45627  26.583   7.841  12.503
77210W        W45628  26.090  40.483   2.302
77211W        W45629  27.566  37.891  13.888
77212W        W45630  16.729   9.284  14.814
77213W        W45631  25.030  36.033  10.612
77214W        W45632  40.507  12.850  11.487
77215W        W45633  36.096  40.862  14.451
77216W        W45634   7.764  37.833   2.818
77217W        W45635  15.790  26.188   1.804
77218W        W45636  26.018   2.742   1.315
77219W        W45637  29.001  17.224  14.485
77220W        W45638  43.437  16.282   3.671
77221W        W45639  31.905  27.080   3.151
77222W        W45640  21.735  31.133   4.242
77223W        W45641  11.857   0.368   2.408
77224W        W45642  32.099  44.438   3.736
77225W        W45643  42.507  41.796   1.752
77226W        W45644  19.273  37.449   5.126
77227W        W45645  23.521  11.274  10.570
77228W        W45646   1.369  16.226  11.944
77229W        W45647  43.814  38.874   3.799
77230W        W45648  33.988  21.617   0.341
77231W        W45649  26.661  13.162  14.914
77232W        W45650  11.231  27.012  13.469
77233W        W45651  29.018  22.081  11.603
77234W        W45652   2.301   0.767   4.185
77235W        W45653  30.049  26.563   0.423
77236W        W45654  23.103  14.161   2.686
77237W        W45655  16.222  28.149   0.305
77238W        W45656   2.259   3.851  14.823
77239W        W45657  39.454  10.379  12.463
77240W        W45658  38.963   4.440   2.785
77241W        W45659  39.480   0.931  11.379
77242W        W45660  31.118  36.897   4.123
77243W        W45661  36.945  42.811   1.804
77244W        W45662  22.023  22.667   1.734
77245W        W45663  43.447   4.449  13.006
77246W        W45664  36.031  12.317  14.812
77247W        W45665  12.678  30.418  13.315
77248W        W45666  39.475  13.768   0.269
77249W        W45667  39.328  17.196  11.938
77250W        W45668  12.669  21.184  14.982
77251W        W45669  30.073  34.085   4.756
77252W        W45670  23.723  35.943   4.670
77253W        W45671  17.072  10.641   9.961
77254W        W45672  15.802   2.347   4.602
77255W        W45673   2.781  19.740  13.867
77256W        W45674   8.363   4.381   3.311
77257W        W45675  42.359  29.103   1.767
77258W        W45676   1.453  16.228   3.344
77259W        W45677  36.929  37.444  10.111
77260W        W45678  27.952  31.921  10.013
77261W        W45679  37.996  18.200  14.768
77262W        W45680  38.965  12.355  14.908
77263W        W45681  33.946   7.822  12.570
77264W        W45682  43.876   7.217   4.674
77265W        W45683   8.182  12.709  14.480
77266W        W45684  30.641  27.994  11.457
77267W        W45685  25.661   1.821   3.294
77268W        W45686  17.216   2.380  12.356
77269W        W45687  13.154  28.506   2.255
77270W        W45688  26.502   2.897  13.485
77271W        W45689  11.318  13.166  12.492
77272W        W45690   3.439  39.890   4.148
77273W        W45691   9.283   5.922   4.809
77274W        W45692  31.073  16.287   1.706
77275W        W45693  20.236  41.038   0.907
77276W        W45694  11.352   6.717  14.864
77277W        W45695  24.229  17.614  12.497
77278W        W45696  44.910  17.224   3.688
77279W        W45697   8.721   5.329   4.177
77280W        W45698  13.298  36.557  11.479
77281W        W45699  16.624  34.904   4.772
77282W        W45700   7.362  12.772  12.501
77283W        W45701  16.811  26.060  14.803
77284W        W45702  23.113  18.264   4.729
77285W        W45703  41.842  15.311   1.906
77286W        W45704   9.342  11.797   1.923
77287W        W45705  35.976   0.415  13.908
77288W        W45706  37.864  16.743   4.290
77289W        W45707  24.077  17.260   1.836
77290W        W45708  26.467  22.569  11.954
77291W        W45709   9.292  27.073   0.784
77292W        W45710   9.285  10.809   0.964
77293W        W45711   2.881  16.259  14.493
77294W        W45712  32.109  27.575  10.979
77295W        W45713  26.121   7.287  10.111
77296W        W45714  32.544  37.569  10.423
77297W        W45715   3.719  26.571  14.461
77298W        W45716  43.365  24.584  10.507
77299W        W45717  12.247   0.863   4.135
77300W        W45718  29.540  24.988  11.944
77301W        W45719   6.753  39.967  12.934
77302W        W45720  20.641   5.208   4.265
77303W        W45721   4.865  35.542  14.286
77304W        W45722  36.882  14.185   4.694
77305W        W45723  27.113  35.534   1.816
77306W        W45724  21.528  42.414   0.906
77307W        W45725  28.472   8.730   2.733
77308W        W45726  24.986   1.905   0.291
77309W        W45727   9.351  42.854   1.803
77310W        W45728  41.345  18.143   3.274
77311W        W45729   3.295   3.944   2.899
77312W        W45730  14.714  34.944  11.956
77313W        W45731  29.532  35.403   0.339
77314W        W45732  22.664  36.961   1.395
77315W        W45733   8.847  36.846   3.630
77316W        W45734  32.141  13.750   1.283
77317W        W45735  42.340  28.447   3.254
77318W        W45736  23.724  40.480   3.316
77319W        W45737   4.940  25.162  13.939
77320W        W45738  23.058  13.350   2.768
77321W        W45739  13.794   0.850   0.350
77322W        W45740  40.961  22.222  12.546
77323W        W45741   8.369  14.296   1.841
77324W        W45742  18.199  18.694  13.392
77325W        W45743  39.062  40.501   4.236
77326W        W45744  37.518   1.806   4.313
77327W        W45745   9.781  42.418   4.608
77328W        W45746  35.504  37.866   1.424
77329W        W45747  26.143  12.855   2.785
77330W        W45748   5.923   5.296   4.686
77331W        W45749  44.760  10.694  11.912
77332W        W45750  17.775  31.920  12.980
77333W        W45751  33.907   4.362   0.418
77334W        W45752   2.953  23.025  10.934
77335W        W45753  36.566  17.061  11.436
77336W        W45754   6.678  40.041   2.239
77337W        W45755  37.922  41.838   4.259
77338W        W45756  43.810  43.393  12.941
77339W        W45757  14.292  17.226  13.795
77340W        W45758  41.968  26.072   2.303
77341W        W45759  39.009  43.968   9.974
77342W        W45760  16.795  33.997   2.383
77343W        W45761  35.485  22.032  11.454
77344W        W45762   2.260   5.772  13.314
77345W        W45763  13.265  30.976  13.018
77346W        W45764  38.347  42.823  11.469
77347W        W45765  31.541   9.348   2.814
77348W        W45766  28.079   5.821   4.804
77349W        W45767  40.031  26.160   1.431
77350W        W45768  20.259   7.841  12.064
77351W        W45769  35.450  19.683   2.242
77352W        W45770   3.416  19.571   1.835
77353W        W45771  37.383   1.849  13.337
77354W        W45772  31.606  32.396  14.965
77355W        W45773   7.856  10.264  14.410
77356W        W45774  10.677  11.131   0.727
77357W        W45775  29.605  41.835  13.473
77358W        W45776  37.420  24.175   0.737
77359W        W45777  27.948  38.504   1.796
77360W        W45778  44.341   5.889   4.825
77361W        W45779  16.253   9.755  14.821
77362W        W45780  34.067  43.491   4.643
77363W        W45781   1.388   2.826   3.773
77364W        W45782  36.401   8.791   0.824
77365W        W45783   1.970  32.040  12.935
77366W        W45784  29.103  43.312   0.338
77367W        W45785  40.882  22.024  13.491
77368W        W45786  41.921  25.099  13.064
77369W        W45787  28.161  19.766   2.310
77370W        W45788  15.161  26.172   1.704
77371W        W45789  13.628  35.102   0.748
77372W        W45790  21.677  15.226  10.963
77373W        W45791   2.282  12.614  14.386
77374W        W45792   3.421  22.058  11.073
77375W        W45793  31.945   4.877   5.227
77376W        W45794  10.279  19.086  12.881
77377W        W45795   5.319  28.083  11.398
77378W        W45796  36.408  31.032   0.431
77379W        W45797  14.273  42.463   1.373
77380W        W45798   2.425  20.569  12.480
77381W        W45799  16.145  32.528   1.304
77382W        W45800  42.352   2.428   4.308
77383W        W45801   2.877  27.481   3.333
77384W        W45802  41.838  13.169   2.329
77385W        W45803  22.162  19.770  14.769
77386W        W45804  43.486  36.531  12.829
77387W        W45805  44.406  19.677   4.812
77388W        W45806  44.269  18.088   0.966
77389W        W45807  19.100   9.255   0.301
77390W        W45808   5.820  26.182   3.237
77391W        W45809   9.301  42.306  10.641
77392W        W45810   6.750  17.718   4.231
77393W        W45811  43.388  10.791   3.180
77394W        W45812  28.978  14.203  10.485
77395W        W45813  39.478  39.514  13.902
77396W        W45814  34.414   9.804   1.213
77397W        W45815  16.134  14.238   2.181
77398W        W45816   4.436   3.272   0.430
77399W        W45817   7.284  34.952   3.266
77400W        W45818  24.164  39.933   4.679
77401W        W45819  38.879  35.519   1.921
77402W        W45820  32.598  37.838  12.049
77403W        W45821  10.171  20.099   2.804
77404W        W45822  19.653   9.321   0.776
77405W        W45823  32.617  13.697   4.253
77406W        W45824  42.901   2.821   0.912
77407W        W45825  23.735  16.765   2.203
77408W        W45826   0.289  30.079   1.290
77409W        W45827  44.906  31.507   3.331
77410W        W45828  25.617  14.640  12.460
77411W        W45829  36.409  39.057   5.206
77412W        W45830  17.089  31.938  12.489
77413W        W45831  39.863  28.481   2.747
77414W        W45832  32.424  33.897  11.125
77415W        W45833  19.671  19.159   2.854
77416W        W45834  21.554  27.129  13.335
77417W        W45835  42.405  15.584   0.346
77418W        W45836   0.293  19.585   0.378
77419W        W45837  22.660   5.384  10.092
77420W        W45838  38.348  21.054   0.779
77421W        W45839  43.406  13.115   0.966
77422W        W45840   2.420  36.075  10.566
77423W        W45841   6.397  31.406  11.948
77424W        W45842  22.683  17.217  10.494
77425W        W45843  37.431  11.183   4.259
77426W        W45844  22.667  28.555  11.935
77427W        W45845  36.025  36.986  13.005
77428W        W45846  25.193  36.896  12.860
77429W        W45847  22.085   8.208   4.666
77430W        W45848  35.938   6.258  12.003
77431W        W45849  12.298  22.622  13.371
77432W        W45850  22.656  12.809   2.725
77433W        W45851  25.081  41.356   4.795
77434W        W45852   3.725  17.094   0.875
77435W        W45853   3.358  37.368   0.771
77436W        W45854  43.453  11.372   4.760
77437W        W45855  35.100  18.247  12.461
77438W        W45856   8.195  14.754   4.797
77439W        W45857  40.812  11.127   0.388
77440W        W45858  40.311  34.905  12.839
77441W        W45859  29.433  37.402  14.800
77442W        W45860  32.484   1.466   4.311
77443W        W45861  11.220  15.113  12.912
77444W        W45862  21.113  37.458   3.774
77445W        W45863  41.517   0.853  14.991
77446W        W45864  22.508   7.291  11.063
77447W        W45865  15.785   6.323  10.404
77448W        W45866  23.681  17.793  14.493
77449W        W45867  42.996   1.771   0.327
77450W        W45868  31.612   5.791  13.946
77451W        W45869   0.975   5.861   3.316
77452W        W45870  24.069  22.713   5.155
77453W        W45871   9.700  14.139   1.279
77454W        W45872  41.442  11.327  10.459
77455W        W45873  20.109  41.986   4.240
77456W        W45874  10.187  27.530  10.422
77457W        W45875  24.054  42.879   3.814
77458W        W45876  41.852  13.324   2.869
77459W        W45877  31.917  10.787  14.356
77460W        W45878  17.080  37.059  13.343
77461W        W45879   6.403   8.674   2.193
77462W        W45880  25.522  24.122   1.733
77463W        W45881  13.816  37.886  10.603
77464W        W45882  27.476  37.483  14.496
77465W        W45883  16.233  28.186  11.488
77466W        W45884  26.556  37.358  10.422
77467W        W45885  16.173   8.343  10.589
77468W        W45886   8.798  23.551  11.599
77469W        W45887  41.018  41.892  10.498
77470W        W45888  15.181   0.745   4.255
77471W        W45889  38.955  38.417  10.499
77472W        W45890  16.697  42.852  14.433
77473W        W45891  18.092  42.358  11.052
77474W        W45892  44.493  29.501  14.506
77475W        W45893  27.584  14.125  11.124
77476W        W45894  39.880   6.360  13.891
77477W        W45895  24.512  12.722  12.888
77478W        W45896  34.531  35.403  11.117
77479W        W45897   4.737   1.283  10.454
77480W        W45898  42.873   2.861   2.826
77481W        W45899  23.165  34.952  14.848
77482W        W45900  41.960  36.965   2.253
77483W        W45901   1.936  13.187   1.823
77484W        W45902   2.950  43.376  11.601
77485W        W45903  16.663   6.808   9.645
77486W        W45904  39.516  16.314  13.395
77487W        W45905  40.890  37.015   1.879
77488W        W45906   4.929  31.564   0.901
77489W        W45907  11.838  22.178   0.746
77490W        W45908  14.799  12.186  13.491
77491W        W45909   5.799  14.145   4.637
77492W        W45910  21.603  20.121   1.902
77493W        W45911  27.663  17.670  12.048
77494W        W45912  37.493  38.422  12.015
77495W        W45913   9.677  20.523  10.592
77496W        W45914  40.311  18.177   3.201
77497W        W45915  33.117   1.870   3.826
77498W        W45916   5.870   3.820   1.756
77499W        W45917  10.803  22.598  12.437
77500W        W45918  18.145  15.108   3.336
77501W        W45919  37.933  30.573   4.710
77502W        W45920  27.599  31.104  10.607
77503W        W45921  34.593  32.123  13.379
77504W        W45922  39.882   2.777  13.326
77505W        W45923   9.676  15.729   4.321
77506W        W45924  12.240  12.616   1.399
77507W        W45925  41.929  23.203  11.519
77508W        W45926  13.333  12.258  13.896
77509W        W45927  18.609  25.172   1.426
77510W        W45928  39.480   8.759   4.293
77511W        W45929  29.544  13.687  14.309
77512W        W45930  12.619  26.534  11.117
77513W        W45931   7.761  37.080   2.271
77514W        W45932  14.616   0.893  10.566
77515W        W45933  25.632  39.415   1.871
77516W        W45934  20.162  41.463   3.221
77517W        W45935  23.727  26.113  13.805
77518W        W45936  12.149   2.257  11.995
77519W        W45937  29.531   1.344   0.781
77520W        W45938   7.210  33.125   4.731
77521W        W45939  27.451  19.260  12.017
77522W        W45940   8.764  29.989   2.757
77523W        W45941  16.776   8.789  10.423
77524W        W45942  42.307  10.201  11.126
77525W        W45943   1.845   4.713  13.870
77526W        W45944   6.368   1.267   2.791
77527W        W45945  32.906  22.109  14.793
77528W        W45946  30.510  43.423   3.255
77529W        W45947   3.738  40.304   0.868
77530W        W45948  33.502  14.263   4.191
77531W        W45949  35.081  42.918   1.862
77532W        W45950  10.805  24.997  11.558
77533W        W45951   8.777  11.745  11.030
77534W        W45952  44.386  36.351  12.415
77535W        W45953  14.774  12.162  14.890
77536W        W45954   0.348   9.805   4.759
77537W        W45955  14.196  30.002   0.272
77538W        W45956  16.741   2.784   0.395
77539W        W45957   1.335  36.865  13.796
77540W        W45958  23.241   7.839  11.018
77541W        W45959  24.668  29.647   4.645
77542W        W45960  36.851   0.255  13.813
77543W        W45961  40.409  25.691  13.921
77544W        W45962  33.495   7.717   3.664
77545W        W45963  26.619  37.411   0.242
77546W        W45964   4.713  24.710   0.469
77547W        W45965  21.634  29.928  11.517
77548W        W45966  14.196   5.336  11.461
77549W        W45967  22.619   4.892  12.466
77550W        W45968   6.827   1.936   2.254
77551W        W45969  22.612  15.670  10.897
77552W        W45970   5.760  38.836   3.637
77553W        W45971   0.965   9.220  13.485
77554W        W45972  19.541  38.860   2.805
77555W        W45973  28.487  35.486  13.036
77556W        W45974  31.512  14.681  11.568
77557W        W45975  33.388  27.460  13.964
77558W        W45976  36.028   6.798  10.573
77559W        W45977  37.466  13.203  12.351
77560W        W45978  40.313  29.159  12.036
77561W        W45979   5.768   6.787  12.555
77562W        W45980   2.416  12.696   3.158
77563W        W45981  35.026  35.549   4.334
77564W        W45982  30.504  19.121   0.427
77565W        W45983  17.210   1.782   2.853
77566W        W45984  19.632  39.376   1.302
77567W        W45985  13.340  30.157   2.840
77568W        W45986  36.954  14.266   3.198
77569W        W45987  34.382  24.047  13.867
77570W        W45988  24.007  30.007  11.586
77571W        W45989  15.296  34.996  12.975
77572W        W45990  13.650   9.187  12.038
77573W        W45991   5.769  17.772  11.033
77574W        W45992  44.486  26.146   2.716
77575W        W45993   1.795  44.763   0.288
77576W        W45994  30.956  19.114   2.876
77577W        W45995   5.217  11.316   1.338
77578W        W45996  35.905  27.958  13.980
77579W        W45997  32.419   0.759   4.339
77580W        W45998  11.633  14.114   5.186
77581W        W45999  15.690  20.170  13.028
77582W        W46000  29.611  37.864  13.964
77583W        W46001  26.515  42.934  13.490
77584W        W46002  25.982  38.366  10.448
77585W        W46003   1.794  25.536  14.911
77586W        W46004  43.344  35.524  10.553
77587W        W46005  32.945   5.879   3.179
77588W        W46006  14.292   5.402  10.626
77589W        W46007  30.613  35.960   0.450
77590W        W46008  35.073  44.787  12.002
77591W        W46009  36.013  12.261   4.604
77592W        W46010  31.026  26.699  11.885
77593W        W46011   5.266  24.661  12.923
77594W        W46012  10.330  40.951  10.948
77595W        W46013  39.910  23.517   1.449
77596W        W46014  16.186  23.097   2.250
77597W        W46015   8.298  26.999   0.249
77598W        W46016  39.413  37.453  14.855
77599W        W46017  32.500  23.184   3.756
77600W        W46018  16.295   0.790   0.922
77601W        W46019  35.516  27.062   1.887
77602W        W46020  10.758  41.410  11.536
77603W        W46021  20.269  10.196  12.042
77604W        W46022   9.786  27.584  11.534
77605W        W46023  27.583  22.185   2.676
77606W        W46024  10.325  31.401   1.375
77607W        W46025  18.061  24.225   3.373
77608W        W46026  26.546  21.056  11.426
77609W        W46027   9.688  17.208   4.291
77610W        W46028  33.568  39.529  13.796
77611W        W46029   5.363   9.344  12.065
77612W        W46030   0.398  10.367  10.494
77613W        W46031  12.618  23.552  14.886
77614W        W46032  17.307  39.950  10.960
77615W        W46033  19.537  24.626   3.712
77616W        W46034  18.231  32.435   4.294
77617W        W46035  20.732  38.355  11.879
77618W        W46036  39.809  15.674   2.241
77619W        W46037   9.675  41.538  13.034
77620W        W46038   9.202  18.781   0.776
77621W        W46039  28.114  31.483  14.863
77622W        W46040   4.242  36.533  13.925
77623W        W46041  35.080  40.902   0.459
77624W        W46042  41.790  40.428  10.466
77625W        W46043  22.105  44.417   2.215
77626W        W46044  38.510   6.907  12.022
77627W        W46045  33.062  15.219  14.818
77628W        W46046  27.471   3.322   4.136
77629W        W46047  43.438  42.378   1.353
77630W        W46048  26.975  10.281   4.202
77631W        W46049  43.319   3.896  14.812
77632W        W46050  26.166  42.948   1.253
77633W        W46051  19.763  30.621  11.570
77634W        W46052  26.464   8.730   0.294
77635W        W46053  20.169  10.768  14.900
77636W        W46054   5.763   7.858   1.405
77637W        W46055  16.745   0.394  11.118
77638W        W46056  18.160  35.923  12.937
77639W        W46057  20.652   0.876  12.009
77640W        W46058  31.426  27.482  14.931
77641W        W46059  29.471  14.228   2.192
77642W        W46060  18.258   0.405  14.789
77643W        W46061  32.489  44.299   3.167
77644W        W46062  28.523  32.518  10.888
77645W        W46063  31.952  24.137   5.315
77646W        W46064  30.020  26.573   0.744
77647W        W46065  20.098   8.228   3.657
77648W        W46066  10.842  39.342   3.794
77649W        W46067  24.499   5.891   2.806
77650W        W46068   7.291  43.453   4.683
77651W        W46069   3.423  39.316  10.972
77652W        W46070  33.499  28.145  13.797
77653W        W46071  44.857  33.877  10.405
77654W        W46072   5.776  35.562  11.530
77655W        W46073  41.933  23.988   3.781
77656W        W46074  44.282  11.858  13.886
77657W        W46075  28.571  14.662  14.858
77658W        W46076  21.169   1.378  12.438
77659W        W46077  41.489  11.151   2.756
77660W        W46078  36.395   0.421   4.155
77661W        W46079   0.368  19.691   2.823
77662W        W46080   4.247   1.938  14.025
77663W        W46081  35.589  11.657  12.397
77664W        W46082  35.875  23.563   3.753
77665W        W46083  31.054  36.939  10.525
77666W        W46084  31.466  44.793  11.437
77667W        W46085  36.990  31.109  12.452
77668W        W46086  27.635  12.120  11.113
77669W        W46087  23.998   9.689  11.525
77670W        W46088  17.221   9.761  10.503
77671W        W46089  43.915   0.434   4.269
77672W        W46090  25.167  40.476  14.350
77673W        W46091  13.264  42.311   4.193
77674W        W46092  21.260  13.705  12.823
77675W        W46093   6.301  17.782   4.740
77676W        W46094  12.232  11.829   2.778
77677W        W46095  22.096  43.770   4.145
77678W        W46096  33.562  37.846  10.588
77679W        W46097  10.219  19.774   1.851
77680W        W46098   2.313  36.446   3.288
77681W        W46099  31.503  42.344  11.959
77682W        W46100  42.809  44.945   1.445
77683W        W46101  35.966  39.960   3.171
77684W        W46102  28.072   2.428   2.210
77685W        W46103  28.011  22.179   2.792
77686W        W46104   0.453  39.506  10.527
77687W        W46105  40.800  19.746  10.916
77688W        W46106  14.592  17.575   2.663
77689W        W46107  24.693  44.459  13.027
77690W        W46108  40.845   4.410  13.868
77691W        W46109  30.082  28.572  13.321
77692W        W46110  23.625  31.097   0.450
77693W        W46111  13.659   4.338   4.170
77694W        W46112  17.140  18.678  12.432
77695W        W46113  29.151   5.705   4.758
77696W        W46114  15.219  33.568  11.119
77697W        W46115  30.105   7.724   0.826
77698W        W46116  12.633  10.328   4.641
77699W        W46117  15.634  27.170  13.468
77700W        W46118   2.367  40.392   2.766
77701W        W46119  29.017   3.292  12.063
77702W        W46120   9.209  44.491  14.813
77703W        W46121  37.908  20.247   2.727
77704W        W46122  15.816  20.205   4.708
77705W        W46123   6.688   4.892  12.399
77706W        W46124  22.642   2.740  12.411
77707W        W46125  42.938  13.144   1.278
77708W        W46126   0.929  37.018  14.964
77709W        W46127  11.229  23.213   4.803
77710W        W46128  17.229   3.413  11.025
77711W        W46129  16.232  29.621  12.902
77712W        W46130  22.590  24.719  12.873
77713W        W46131  10.233  41.472  11.948
77714W        W46132  37.446  30.536  10.068
77715W        W46133  29.563  42.986  10.540
77716W        W46134   4.211  24.037   1.803
77717W        W46135  13.348  13.669   2.337
77718W        W46136   9.225  16.651  11.384
77719W        W46137  15.749  40.842   2.234
77720W        W46138  13.644  23.541   2.299
77721W        W46139  32.621  12.634   2.900
77722W        W46140  39.038  30.639   4.307
77723W        W46141   8.814   4.927   0.344
77724W        W46142   5.271  11.840   2.184
77725W        W46143  24.636   9.731  12.456
77726W        W46144   9.361  12.302   4.616
77727W        W46145   5.759  41.938   4.698
77728W        W46146   5.710   1.739   3.821
77729W        W46147  14.719  42.856   4.758
77730W        W46148  18.627  35.986  13.028
77731W        W46149  25.566   8.856  13.798
77732W        W46150  12.612  41.466  14.826
77733W        W46151   0.753  38.390   0.448
77734W        W46152  28.651  17.139   3.745
77735W        W46153   0.831  40.924   3.275
77736W        W46154  18.781  32.093  12.889
77737W        W46155  30.121   1.945   3.180
77738W        W46156  21.527  31.608  12.912
77739W        W46157  23.514   1.898  13.051
77740W        W46158  39.452  39.824  10.432
77741W        W46159   7.318   6.848  11.898
77742W        W46160  26.070  41.534   1.377
77743W        W46161   0.755  37.073  11.437
77744W        W46162  22.168  11.804   0.307
77745W        W46163  15.240   1.962  13.792
77746W        W46164   6.879  25.616   0.317
77747W        W46165  31.955  41.848   4.647
77748W        W46166  42.435   4.294  11.867
77749W        W46167  38.878  21.160   0.273
77750W        W46168  36.050   4.737  14.406
77751W        W46169  27.634  15.787   4.734
77752W        W46170  38.449  12.751  10.618
77753W        W46171  28.122  27.564   4.278
77754W        W46172  21.261  39.362   4.754
77755W        W46173  26.195  33.567  13.984
77756W        W46174  29.482  35.461  12.982
77757W        W46175  35.431  33.397   1.384
77758W        W46176  35.599  15.632  12.359
77759W        W46177  36.922   2.730   2.679
77760W        W46178  41.926  41.007  12.971
77761W        W46179  18.544   2.359  11.875
77762W        W46180  18.135  25.150   4.719
77763W        W46181   9.756   2.740   2.847
77764W        W46182   1.477  33.422  12.415
77765W        W46183  11.767  19.640  11.484
77766W        W46184  12.665  16.253  12.989
77767W        W46185  33.033  38.979  12.455
77768W        W46186  31.511   2.758   3.680
77769W        W46187  26.099  27.955   2.246
77770W        W46188  24.608  29.153  11.496
77771W        W46189   4.796  41.992   0.286
77772W        W46190  10.748  20.549  12.462
77773W        W46191   0.940   8.891   1.769
77774W        W46192  18.584  20.090  10.582
77775W        W46193  31.595  29.428  12.939
77776W        W46194  43.781  29.146   0.448
77777W        W46195   9.324  14.322   0.483
77778W        W46196  40.046  15.144   3.733
77779W        W46197   8.242  29.511   3.296
77780W        W46198  44.847  32.416   0.285
77781W        W46199   3.299   3.920   5.193
77782W        W46200  13.117  25.611  13.500
77783W        W46201   9.381   7.746  13.967
77784W        W46202  12.642   4.877   9.985
77785W        W46203  25.026  11.706   4.300
77786W        W46204  20.598  15.250  13.522
77787W        W46205  20.240  28.998  10.501
77788W        W46206   3.890   4.226  12.036
77789W        W46207  17.686  17.280   0.947
77790W        W46208  37.377  26.120  12.959
77791W        W46209   9.268  17.225   0.735
77792W        W46210  28.539  43.281   1.710
77793W        W46211  21.571  10.738  13.848
77794W        W46212  24.196   6.894   4.300
77795W        W46213  39.948   2.867   1.280
77796W        W46214  17.620  40.937   0.946
77797W        W46215  18.144  39.371  11.869
77798W        W46216  39.337   8.887   2.884
77799W        W46217  42.482  13.291   1.369
77800W        W46218  42.776  26.595   0.919
77801W        W46219  36.585  39.992   4.310
77802W        W46220   2.437  41.360   0.456
77803W        W46221   8.285  27.959   4.152
77804W        W46222  37.836  17.712   4.800
77805W        W46223  42.016  24.633   3.741
77806W        W46224  19.597   7.780   1.721
77807W        W46225  41.975  30.428  11.955
77808W        W46226  29.960  41.451  12.983
77809W        W46227  40.910  27.943  10.408
77810W        W46228  27.128   6.312   1.246
77811W        W46229  15.632   6.369  11.553
77812W        W46230  31.907  24.063  11.084
77813W        W46231  19.754  25.211  14.513
77814W        W46232  19.662  27.084  12.541
77815W        W46233  10.185  32.923  10.948
77816W        W46234  30.158  14.128   3.773
77817W        W46235  16.722  11.769  13.998
77818W        W46236  27.045   0.747   4.151
77819W        W46237  18.641  28.045   5.229
77820W        W46238  15.745  40.797   0.828
77821W        W46239   6.377  18.288   0.389
77822W        W46240  18.637   2.934   0.409
77823W        W46241  12.214  20.536  13.048
77824W        W46242   6.877  25.482  13.965
77825W        W46243  41.535  29.653  14.766
77826W        W46244  34.502   8.388   4.664
77827W        W46245   5.372  15.295  12.926
77828W        W46246   6.831  40.505   4.281
77829W        W46247  30.977  13.142  12.826
77830W        W46248  25.094   5.870   0.407
77831W        W46249  38.037  21.197   2.677
77832W        W46250  23.185  21.055  11.010
77833W        W46251  37.962  13.190   1.928
77834W        W46252   8.372  35.431  11.929
77835W        W46253   7.739  24.047   4.769
77836W        W46254  37.982   1.283  11.497
77837W        W46255  21.043   6.910   2.363
77838W        W46256  15.232  27.135   1.310
77839W        W46257  16.808  21.654  14.026
77840W        W46258  21.081  44.989   4.255
77841W        W46259  41.833  28.000   3.227
77842W        W46260  37.387  33.385  14.283
77843W        W46261   8.752  10.221  11.449
77844W        W46262   0.300   8.812   2.404
77845W        W46263   5.202  32.952  11.569
77846W        W46264  42.860  44.905   3.348
77847W        W46265  19.601  23.198   0.320
77848W        W46266   9.268  15.180  13.449
77849W        W46267  25.179   5.929   0.798
77850W        W46268  31.083  24.204  12.899
77851W        W46269  42.898  14.662   3.769
77852W        W46270  30.005   3.377  11.954
77853W        W46271  25.204   9.777   2.255
77854W        W46272  43.852  10.879   3.686
77855W        W46273  10.308   3.249  13.342
77856W        W46274  41.928  31.410  10.433
77857W        W46275  39.023  18.088  14.473
77858W        W46276  32.108  14.180  11.991
77859W        W46277  33.877  13.830   2.198
77860W        W46278  20.197  28.442  13.546
77861W        W46279   1.436  41.035   4.201
77862W        W46280  41.994  18.153  12.371
77863W        W46281   6.192   0.978  13.893
77864W        W46282  18.173  43.488   0.883
77865W        W46283  28.170   8.823   4.172
77866W        W46284  12.838   0.286  13.488
77867W        W46285  31.551  30.001   1.428
77868W        W46286  21.597  39.895  13.328
77869W        W46287  26.651  11.627  14.384
77870W        W46288   0.436  18.125   1.719
77871W        W46289  10.738  20.144  12.450
77872W        W46290  22.163  14.787   2.670
77873W        W46291  14.218  12.155   2.820
77874W        W46292  29.172  24.526  13.443
77875W        W46293  43.445  19.687   4.634
77876W        W46294  15.752  43.330   0.737
77877W        W46295  13.200  27.531   1.870
77878W        W46296  31.539  24.674   1.404
77879W        W46297  22.223  28.092   1.256
77880W        W46298  24.990  13.337  12.925
77881W        W46299  39.535  39.014   3.638
77882W        W46300   6.861  33.556  13.871
77883W        W46301  22.095  18.157   2.824
77884W        W46302  10.827  22.568  10.961
77885W        W46303   3.740  40.030  11.565
77886W        W46304  13.770  38.347   2.852
77887W        W46305  34.387  25.598  12.997
77888W        W46306  26.522  18.698  10.894
77889W        W46307  26.954  33.491   3.259
77890W        W46308   9.763  34.378   3.162
77891W        W46309  36.384   1.300  11.494
77892W        W46310  20.726  10.830  14.788
77893W        W46311  11.777  19.087   0.924
77894W        W46312  35.544  29.040   3.327
77895W        W46313   1.829  36.977  11.591
77896W        W46314  22.598  21.063  10.539
77897W        W46315   2.917  36.949  10.941
77898W        W46316  29.593  29.063  10.583
77899W        W46317  44.837  26.539   9.930
77900W        W46318  33.107  39.990   4.181
77901W        W46319  12.610  18.186  12.976
77902W        W46320  22.149   9.814  11.568
77903W        W46321   5.256  18.294   4.347
77904W        W46322  28.082   6.770  10.948
77905W        W46323  15.183  23.158  14.335
77906W        W46324  37.879  43.933   3.858
77907W        W46325  11.137  42.923  12.523
77908W        W46326  16.305  34.945   1.831
77909W        W46327  36.939   8.884  13.525
77910W        W46328  20.576  31.619  13.056
77911W        W46329  30.089  14.711  13.899
77912W        W46330  30.951  14.665  14.347
77913W        W46331  39.469  28.461  10.570
77914W        W46332  13.217   0.829  11.110
77915W        W46333  12.191  15.302   3.187
77916W        W46334   5.878  28.110   3.252
77917W        W46335   5.229   6.839  13.315
77918W        W46336   7.682  34.119   2.327
77919W        W46337   7.184  11.659  10.634
77920W        W46338  19.181  31.550   1.364
77921W        W46339  28.584  33.446  11.937
77922W        W46340   7.365  39.840   1.260
77923W        W46341  22.133   9.346   4.710
77924W        W46342  43.790  22.127  13.322
77925W        W46343  37.853  14.146  14.851
77926W        W46344  18.771   3.364  10.610
77927W        W46345  32.088  17.232   3.797
77928W        W46346  42.495  26.540  11.488
77929W        W46347  13.305  15.735  14.419
77930W        W46348   8.884   1.806   0.475
77931W        W46349   2.429  13.666  10.520
77932W        W46350  33.613  35.514  13.990
77933W        W46351  41.417  17.177  14.914
77934W        W46352  28.149  24.656   2.839
77935W        W46353  28.648  30.632   0.324
77936W        W46354   6.691   3.399   0.313
77937W        W46355   2.459  38.558  10.462
77938W        W46356  24.602  18.760  13.881
77939W        W46357  40.801  28.495   4.824
77940W        W46358  43.910   6.397   2.730
77941W        W46359   5.402  25.671   0.248
77942W        W46360   8.386  23.034   0.955
77943W        W46361  43.512  42.851  13.830
77944W        W46362  42.429  41.522  14.353
77945W        W46363  33.551  38.887   2.828
77946W        W46364  24.645  13.307  11.860
77947W        W46365  19.239  39.004  11.448
77948W        W46366  14.792   8.867   0.283
77949W        W46367   8.221   1.753   4.679
77950W        W46368  17.786  41.913   1.886
77951W        W46369  38.998   5.876  11.528
77952W        W46370   6.884  26.539   2.733
77953W        W46371  23.014  38.426   5.584
77954W        W46372  19.537  33.567  12.492
77955W        W46373  20.758  33.382   0.946
77956W        W46374  32.487  26.530   9.932
77957W        W46375  44.265  43.471  14.995
77958W        W46376  36.391  21.701  14.797
77959W        W46377   3.407  35.581  14.983
77960W        W46378  33.396  15.594   0.396
77961W        W46379  41.811  13.111  10.583
77962W        W46380   8.683  21.161   4.328
77963W        W46381  41.407  20.031  11.568
77964W        W46382  36.489  10.802  11.899
77965W        W46383   3.395   2.450   0.756
77966W        W46384  43.486  19.675  12.889
77967W        W46385  42.895  33.533  10.983
77968W        W46386   2.278   4.755  11.121
77969W        W46387  44.847  13.217   2.836
77970W        W46388  31.922   7.222   1.295
77971W        W46389  25.487  21.094  12.867
77972W        W46390  25.695  41.495  11.441
77973W        W46391  16.750  17.141   2.770
77974W        W46392  33.482  27.683  11.502
77975W        W46393  10.341  24.601   2.355
77976W        W46394  34.585  43.876   3.181
77977W        W46395  39.363  32.587   0.449
77978W        W46396  44.407   3.263   3.716
77979W        W46397  25.579   7.194  12.477
77980W        W46398   8.205   7.666   1.253
77981W        W46399  16.764  30.523  11.483
77982W        W46400  25.123   0.944  10.542
77983W        W46401  31.523  22.064   0.307
77984W        W46402  11.850  25.173  13.332
77985W        W46403  27.664  33.502   3.729
77986W        W46404  43.013  32.496  14.369
77987W        W46405   2.748  13.341   4.281
77988W        W46406  37.487   3.931   1.245
77989W        W46407  38.053  38.571   2.205
77990W        W46408   2.816  44.312   4.117
77991W        W46409   7.329  40.331  11.093
77992W        W46410  30.625   6.297   1.695
77993W        W46411  13.239  44.346   5.234
77994W        W46412   1.818  17.792  12.851
77995W        W46413  32.921  26.601   3.176
77996W        W46414   8.247  37.984   1.819
77997W        W46415  17.673  42.933   4.689
77998W        W46416  25.596   0.470   3.385
77999W        W46417  43.864   2.265  11.119
78000W        W46418  12.219  41.419  11.045
78001W        W46419  12.767   5.281   1.414
78002W        W46420  11.859  37.929   2.209
78003W        W46421  40.866  31.410   2.781
78004W        W46422  14.814   7.250   1.801
78005W        W46423   4.868  11.812  13.821
78006W        W46424  28.935  27.982  11.501
78007W        W46425  19.580   8.402  14.880
78008W        W46426  26.461   4.715  11.885
78009W        W46427   1.959  43.795  12.876
78010W        W46428  43.495  43.515  12.954
78011W        W46429  23.006   6.864   0.855
78012W        W46430  25.191   3.787   4.734
78013W        W46431  41.442  15.192  13.416
78014W        W46432  42.511  37.497   3.304
78015W        W46433  22.648  21.187   3.216
78016W        W46434  15.624  20.526  14.293
78017W        W46435   5.747  34.044  13.414
78018W        W46436  21.674  21.150   2.355
78019W        W46437   9.240  16.101  12.513
78020W        W46438  15.195  43.948  14.001
78021W        W46439  14.112  30.647   3.701
78022W        W46440  27.604  12.308  14.928
78023W        W46441  18.102  40.343   3.194
78024W        W46442   3.919  33.050  11.943
78025W        W46443  15.652  10.768  11.073
78026W        W46444  18.654  18.184   1.308
78027W        W46445  16.232   7.794   4.726
78028W        W46446  22.623  18.751   4.614
78029W        W46447  11.184  15.234   2.724
78030W        W46448  32.112  33.447  14.425
78031W        W46449  22.229  20.200   2.866
78032W        W46450  44.406  14.791   4.307
78033W        W46451  43.512  11.725  11.382
78034W        W46452   4.763  30.921  11.122
78035W        W46453  33.078   5.894  11.487
78036W        W46454   6.799  31.457   4.622
78037W        W46455  21.576  24.025   9.632
78038W        W46456  16.647   4.782   0.342
78039W        W46457   5.860  30.049  13.998
78040W        W46458  22.541  36.393   3.837
78041W        W46459  18.578  17.178   3.799
78042W        W46460  12.291  27.674   4.156
78043W        W46461  42.954   3.257   1.317
78044W        W46462  28.014   9.717   9.967
78045W        W46463   4.430  16.136   1.402
78046W        W46464   3.882  39.540  11.563
78047W        W46465   8.691  41.038   3.776
78048W        W46466   8.743  14.140   4.238
78049W        W46467  20.736   3.252   2.897
78050W        W46468  29.570  41.482  13.836
78051W        W46469   4.411  39.378   0.408
78052W        W46470  18.736  36.956  13.349
78053W        W46471  43.375  31.062  13.439
78054W        W46472   8.899  10.216  11.012
78055W        W46473  40.993  12.257   4.829
78056W        W46474  14.241   3.751  11.981
78057W        W46475   2.890  11.670   4.337
78058W        W46476  15.179  35.417   1.263
78059W        W46477  40.369  15.776   4.354
78060W        W46478  33.937   8.187  14.291
78061W        W46479  18.707  15.186  12.542
78062W        W46480  13.136  27.969  10.119
78063W        W46481  31.574  41.330   3.386
78064W        W46482  35.919  21.027   3.274
78065W        W46483  13.194   7.876  12.017
78066W        W46484  25.032  37.054  14.297
78067W        W46485  20.694   0.895  11.112
78068W        W46486  37.511   5.349  11.467
78069W        W46487  16.692  25.571  13.048
78070W        W46488  19.641  18.280   0.286
78071W        W46489   1.870   2.323  11.910
78072W        W46490  37.529  44.335  12.368
78073W        W46491  28.055  43.270   0.430
78074W        W46492  37.555  24.155   0.469
78075W        W46493  20.220  15.689  11.070
78076W        W46494   8.286   9.671  11.973
78077W        W46495  20.046  19.180   1.269
78078W        W46496  39.817  33.090   3.757
78079W        W46497  26.173   7.787  11.477
78080W        W46498   7.680  39.392  11.119
78081W        W46499  31.496  25.622   2.300
78082W        W46500  10.331  31.125  10.519
78083W        W46501  10.855  16.300  10.909
78084W        W46502  29.046  24.203   0.898
78085W        W46503  41.475  39.997   4.339
78086W        W46504   8.658  39.325   3.711
78087W        W46505   9.889  24.161  12.958
78088W        W46506   8.819   2.300   1.883
78089W        W46507  27.140   0.276   4.239
78090W        W46508   7.773  30.426   0.418
78091W        W46509  12.339   3.311   4.258
78092W        W46510  41.817  27.645   2.833
78093W        W46511  22.122  37.963  12.998
78094W        W46512  39.553   1.773   1.273
78095W        W46513  13.839  33.954   3.311
78096W        W46514  28.969   8.713  11.116
78097W        W46515  30.530   5.331  11.901
78098W        W46516  27.948  29.968   2.215
78099W        W46517  36.497   3.243   2.681
78100W        W46518  32.130  14.103   3.230
78101W        W46519  22.058  21.660  12.451
78102W        W46520   2.803  28.616   3.808
78103W        W46521  42.352  43.458  11.053
78104W        W46522  20.158  11.751   4.187
78105W        W46523  22.540  21.141  12.340
78106W        W46524   5.372  33.483   3.870
78107W        W46525  22.663  25.144   2.346
78108W        W46526  37.398   2.428   4.116
78109W        W46527  18.155  24.097   1.810
78110W        W46528  38.069   5.892   4.221
78111W        W46529  11.223  13.617   0.375
78112W        W46530  12.778  25.593   2.365
78113W        W46531  19.189  11.713   3.203
78114W        W46532  26.660  10.785   1.933
78115W        W46533  31.410   0.459   2.840
78116W        W46534   4.924  14.630  13.463
78117W        W46535   8.373  25.089  13.004
78118W        W46536  26.572  16.799   0.941
78119W        W46537  38.891  29.042  12.434
78120W        W46538   6.816  25.157  14.963
78121W        W46539  25.659  27.522   2.727
78122W        W46540  30.467  19.074   2.311
78123W        W46541  15.141   3.716   1.370
78124W        W46542  15.817  32.598   4.267
78125W        W46543   4.707   2.323   4.140
78126W        W46544  25.529  11.790   0.337
78127W        W46545  43.781   2.335   0.745
78128W        W46546  29.658  21.570  11.038
78129W        W46547  34.926  11.246  12.380
78130W        W46548  31.448  21.143   0.310
78131W        W46549  44.297  25.066  14.776
78132W        W46550   0.254  32.463  11.423
78133W        W46551  11.628  22.996   2.802
78134W        W46552   4.448  30.907  10.525
78135W        W46553   0.310  42.389  13.910
78136W        W46554  35.994   3.287   2.221
78137W        W46555  17.257  28.451   3.242
78138W        W46556  30.957  43.390  12.003
78139W        W46557  18.772  17.567   2.208
78140W        W46558  33.958   9.199  14.971
78141W        W46559  31.090   4.290  14.942
78142W        W46560  26.185   6.360  13.799
78143W        W46561  38.841   2.226  11.469
78144W        W46562  10.634  43.297   0.828
78145W        W46563  22.705  43.000  12.016
78146W        W46564  19.646  13.845   3.831
78147W        W46565  40.452  24.211   2.351
78148W        W46566  31.572  27.189  13.944
78149W        W46567  35.875   6.797   3.631
78150W        W46568   9.311  12.170   0.741
78151W        W46569   1.384  36.430   3.816
78152W        W46570   6.887  16.636  12.909
78153W        W46571   0.253  13.714  13.352
78154W        W46572  30.988   6.317   3.689
78155W        W46573  34.863   4.403   0.246
78156W        W46574  18.769  14.252  10.986
78157W        W46575  28.569  34.091  11.575
78158W        W46576  27.582  20.600   3.261
78159W        W46577   8.687   0.316  14.410
78160W        W46578  27.465   2.752  10.581
78161W        W46579  24.159  38.820   0.873
78162W        W46580   1.365  36.571  14.381
78163W        W46581  37.992  28.148   9.932
78164W        W46582  22.195  38.945   0.286
78165W        W46583  27.943  34.396  13.473
78166W        W46584   0.313  36.548   3.710
78167W        W46585  28.155   1.831  11.014
78168W        W46586  34.572  23.237  12.933
78169W        W46587  28.059  24.156  14.886
78170W        W46588  38.925   8.257   2.402
78171W        W46589   4.778  10.217   4.251
78172W        W46590  41.346   1.391   1.863
78173W        W46591  14.326  40.821  13.905
78174W        W46592  37.453   9.864   2.832
78175W        W46593  24.184   9.643   1.239
78176W        W46594   3.725  40.440  13.816
78177W        W46595  21.243   9.672  13.495
78178W        W46596  29.152  42.988  12.496
78179W        W46597   6.283   8.872   3.658
78180W        W46598  44.361  20.061  12.571
78181W        W46599  18.152  28.968   2.234
78182W        W46600  10.845  28.955   1.926
78183W        W46601  30.095  38.825  14.462
78184W        W46602  18.274  44.336   4.776
78185W        W46603   1.806  14.212  10.475
78186W        W46604  33.578  26.641  11.514
78187W        W46605  33.131  43.874  10.460
78188W        W46606  10.808  30.986  14.887
78189W        W46607   9.655  30.561   0.935
78190W        W46608  42.880  23.984  14.323
78191W        W46609  24.984  20.740   3.194
78192W        W46610  44.776  16.585   2.706
78193W        W46611  37.070  35.591   4.301
78194W        W46612  34.421   5.273   1.704
78195W        W46613  26.013  34.433   3.227
78196W        W46614   0.879  13.682  13.524
78197W        W46615  39.950  30.424   3.868
78198W        W46616   2.810  32.558   0.479
78199W        W46617   6.425   8.765   4.122
78200W        W46618  24.485  30.002   0.919
78201W        W46619  13.642   5.317  13.337
78202W        W46620  43.272   6.209   3.246
78203W        W46621  12.778  41.000   0.921
78204W        W46622  19.187  18.674  14.930
78205W        W46623   0.328  17.579   0.772
78206W        W46624  10.692  43.922  11.943
78207W        W46625  13.790  41.876   3.355
78208W        W46626  43.425  13.734  12.845
78209W        W46627   8.164  29.653   0.809
78210W        W46628   4.310  39.053   4.123
78211W        W46629  42.492   9.665   0.824
78212W        W46630   8.753  40.941  13.913
78213W        W46631  23.053  22.246  12.554
78214W        W46632  44.400  37.391   3.297
78215W        W46633   5.316  27.665   4.298
78216W        W46634  40.509  24.706   2.735
78217W        W46635   6.696  14.196  12.031
78218W        W46636   3.400  39.345   2.701
78219W        W46637  11.144   3.236   1.344
78220W        W46638   5.849  41.304   2.416
78221W        W46639  29.009   3.942  10.536
78222W        W46640   5.198  27.940  10.534
78223W        W46641   1.269  43.013   4.175
78224W        W46642   4.375  35.597   0.883
78225W        W46643   7.810  23.632  12.397
78226W        W46644  40.455  38.516   1.718
78227W        W46645  19.086   5.800  12.538
78228W        W46646   1.337  37.933  14.965
78229W        W46647  22.234  25.604   1.247
78230W        W46648  43.768   8.336  11.417
78231W        W46649   4.776  11.322  12.019
78232W        W46650  11.310  38.448  10.550
78233W        W46651  29.924  26.073   0.842
78234W        W46652  40.334  44.784   1.844
78235W        W46653  23.672  11.686   3.370
78236W        W46654  44.357   7.730   1.443
78237W        W46655  22.251  34.495   4.153
78238W        W46656  38.993  35.886   3.661
78239W        W46657   8.900   2.736   2.280
78240W        W46658  27.084  27.182   4.825
78241W        W46659  35.884  22.192   4.716
78242W        W46660   2.766  24.101  12.375
78243W        W46661  24.100  42.006   4.835
78244W        W46662  43.456  24.654   4.748
78245W        W46663  14.743   6.836  12.075
78246W        W46664  29.612  35.919   4.652
78247W        W46665  39.521  37.488  12.423
78248W        W46666   9.216  38.448  13.342
78249W        W46667  28.041  40.814  12.877
78250W        W46668  35.064   0.329   2.811
78251W        W46669  12.335  32.021   4.656
78252W        W46670   1.928  30.540  12.572
78253W        W46671  15.701  38.548  12.978
78254W        W46672  13.324   6.340  11.976
78255W        W46673  39.351  11.127  14.794
78256W        W46674   9.833   8.820   3.167
78257W        W46675  15.193  18.268  12.899
78258W        W46676  45.000  32.419   3.802
78259W        W46677  38.368  39.065   1.743
78260W        W46678  39.835   0.984  11.546
78261W        W46679  17.171  23.673   2.710
78262W        W46680  22.247   3.888  13.968
78263W        W46681  16.590  34.932  10.640
78264W        W46682  24.522  20.742  11.072
78265W        W46683  32.628   4.834  13.431
78266W        W46684  35.479  42.509   4.735
78267W        W46685  29.966   7.301  14.892
78268W        W46686  13.105   9.154  13.997
78269W        W46687  14.771   0.272   2.346
78270W        W46688  40.487  15.775  11.428
78271W        W46689  12.824   0.250  14.873
78272W        W46690   8.896  30.092  10.974
78273W        W46691  24.644  18.073   1.717
78274W        W46692  41.495   6.784  14.435
78275W        W46693  41.874  12.755   4.698
78276W        W46694  42.907  13.285  13.309
78277W        W46695   0.889  27.628   1.333
78278W        W46696  37.016   1.281  11.492
78279W        W46697  15.657  39.988  13.545
78280W        W46698  30.479   9.223  12.366
78281W        W46699  30.000  42.433   0.471
78282W        W46700  26.036   2.933  14.794
78283W        W46701  11.711  17.220   3.843
78284W        W46702  37.870  36.923  10.940
78285W        W46703   6.236  11.772   3.215
78286W        W46704  27.576  31.480  14.979
78287W        W46705  20.578  38.994   1.826
78288W        W46706  20.720  33.414  12.530
78289W        W46707   7.319  37.925  12.994
78290W        W46708  20.674  41.001   2.265
78291W        W46709  33.448  14.279  12.472
78292W        W46710  24.054  23.595   5.209
78293W        W46711  36.588  40.418  14.401
78294W        W46712  19.581  17.114  11.021
78295W        W46713   5.803  41.391  14.488
78296W        W46714  34.111  32.039   0.442
78297W        W46715  18.271  43.866   3.156
78298W        W46716  37.854  21.128  11.113
78299W        W46717   2.837  12.742  11.082
78300W        W46718  32.470  11.355  11.054
78301W        W46719  17.714  13.203  13.961
78302W        W46720  39.435   7.251   4.787
78303W        W46721  31.985  40.009  10.892
78304W        W46722  38.443  39.343  14.004
78305W        W46723  35.041  39.064   9.923
78306W        W46724  10.730  37.551  12.084
78307W        W46725  39.394  35.009  11.921
78308W        W46726  26.468  16.741  11.031
78309W        W46727  31.640  29.573  10.586
78310W        W46728  18.564  33.071   3.731
78311W        W46729  39.552   6.814   0.845
78312W        W46730  12.193  44.483  13.945
78313W        W46731   7.383  29.512   2.318
78314W        W46732   3.869   7.194   4.253
78315W        W46733  20.147  23.180   3.728
78316W        W46734  30.948  39.967  12.882
78317W        W46735   6.701  36.568   2.734
78318W        W46736   5.404  26.489  10.413
78319W        W46737  43.913  23.037  11.960
78320W        W46738  15.112   1.978  12.393
78321W        W46739  17.712  25.598   3.658
78322W        W46740   5.901   8.286   3.759
78323W        W46741  33.556  11.181  13.936
78324W        W46742   8.828   3.454   0.828
78325W        W46743  18.199  40.509   2.407
78326W        W46744  23.589  20.221   0.813
78327W        W46745  42.925   3.838  10.964
78328W        W46746  38.550  43.003  11.024
78329W        W46747  19.234  25.075   9.994
78330W        W46748  38.047   9.855   4.226
78331W        W46749  16.159  23.708  11.114
78332W        W46750   3.852  41.835  11.983
78333W        W46751   7.740  28.568  12.443
78334W        W46752   6.283  43.276   0.901
78335W        W46753  20.622   2.781  11.094
78336W        W46754  40.330  41.330  12.845
78337W        W46755  11.130  37.081   2.662
78338W        W46756  42.957  42.503   2.806
78339W        W46757  11.245   1.455  12.406
78340W        W46758  15.596  40.465  10.601
78341W        W46759  16.652  39.891  14.770
78342W        W46760  35.430   3.940  12.389
78343W        W46761  24.162  44.457  13.523
78344W        W46762   7.185   2.439   2.742
78345W        W46763  39.362  35.511  14.953
78346W        W46764  12.840  21.252   0.896
78347W        W46765  14.334  15.659   3.306
78348W        W46766  20.676  31.983   2.838
78349W        W46767   3.820  30.656   0.960
78350W        W46768  16.143  44.354  14.418
78351W        W46769  21.718  18.665   0.850
78352W        W46770  28.438  17.307   0.333
78353W        W46771   6.882  18.728  12.858
78354W        W46772  37.469  16.601   2.377
78355W        W46773  22.057   8.192  14.500
78356W        W46774   1.327   5.741  13.362
78357W        W46775  20.687  17.730   1.293
78358W        W46776  14.598   2.950   4.328
78359W        W46777   4.776   4.798   2.817
78360W        W46778  15.158   5.286  14.999
78361W        W46779  20.758   9.286  13.005
78362W        W46780  22.625  19.279  14.386
78363W        W46781  43.908  18.053   2.359
78364W        W46782  27.660  24.203   0.781
78365W        W46783  14.215  40.857   3.757
78366W        W46784  31.441  41.837  11.962
78367W        W46785  19.128   4.281  14.922
78368W        W46786  41.326  37.864  13.859
78369W        W46787  31.031  32.102  10.608
78370W        W46788  20.109   3.260   1.250
78371W        W46789   0.266  27.490   4.651
78372W        W46790  41.371  28.524  14.278
78373W        W46791  29.515  41.012   2.802
78374W        W46792  31.081  18.682  14.937
78375W        W46793   2.307  14.098  10.640
78376W        W46794  19.261  39.011  12.416
78377W        W46795   0.921  25.216  11.470
78378W        W46796  44.271  27.589  10.941
78379W        W46797  16.092  18.295   5.244
78380W        W46798  24.187   4.249  12.086
78381W        W46799   0.488  23.516   1.282
78382W        W46800  24.067  12.767   3.324
78383W        W46801   0.830  34.486  11.922
78384W        W46802  19.052  22.146   4.203
78385W        W46803  33.904   6.357   2.874
78386W        W46804  35.574  23.671   0.794
78387W        W46805  35.441   3.844  11.907
78388W        W46806  29.485  30.558  13.801
78389W        W46807  15.812  30.924  11.025
78390W        W46808  10.676  27.634   2.892
78391W        W46809   3.732  31.637   1.919
78392W        W46810  24.621  20.661   3.291
78393W        W46811   3.757  37.942   2.252
78394W        W46812  10.374  11.259  13.514
78395W        W46813  43.797  13.155  11.944
78396W        W46814  39.927  13.232   0.888
78397W        W46815   7.891   6.891   0.410
78398W        W46816  16.674   7.703  14.949
78399W        W46817  14.671   6.872   2.696
78400W        W46818  38.469  36.426   4.660
78401W        W46819  23.993  32.082  10.410
78402W        W46820   2.807  24.720  12.012
78403W        W46821  23.683  32.576  14.810
78404W        W46822  28.661   8.203  14.983
78405W        W46823   6.806  42.325   1.305
78406W        W46824  39.371  30.959  13.834
78407W        W46825  18.565  13.109   0.440
78408W        W46826  44.756  21.158   4.194
78409W        W46827  37.004  43.963   0.917
78410W        W46828  16.189  15.119   3.365
78411W        W46829  31.447  10.227  10.639
78412W        W46830  11.372   4.281  14.290
78413W        W46831  23.014  35.526   4.284
78414W        W46832  27.641  17.143   0.815
78415W        W46833  13.635  37.936  10.929
78416W        W46834   6.275  13.799   1.244
78417W        W46835  22.027  35.003  11.429
78418W        W46836  44.436  44.787   0.792
78419W        W46837  22.639   1.430   2.897
78420W        W46838   8.273  29.928   1.924
78421W        W46839  42.481  27.940   1.253
78422W        W46840  30.985  21.535  11.595
78423W        W46841  26.586  10.788  12.359
78424W        W46842  18.608   0.759  10.619
78425W        W46843   1.246  43.906  11.949
78426W        W46844  35.594   8.741  10.611
78427W        W46845  15.740  41.938  13.803
78428W        W46846  17.302  29.143  12.484
78429W        W46847   4.373  12.851   0.311
78430W        W46848  13.327   0.742   1.276
78431W        W46849  11.154  41.893   2.227
78432W        W46850  31.935  12.313  14.381
78433W        W46851  23.169  31.140   1.298
78434W        W46852  30.056   7.854   4.243
78435W        W46853   9.833  24.984   0.749
78436W        W46854   6.720  22.222   1.426
78437W        W46855   9.821  34.066   1.233
78438W        W46856   5.781  13.171  10.975
78439W        W46857  16.231  19.780  11.604
78440W        W46858  26.693  18.095   4.325
78441W        W46859  14.222   9.332  13.537
78442W        W46860   2.779  42.522   2.741
78443W        W46861   6.862  13.670   0.262
78444W        W46862  28.465  24.006   1.751
78445W        W46863  43.845  19.259   3.275
78446W        W46864   1.293  30.936   1.805
78447W        W46865  38.441  34.071  13.382
78448W        W46866  21.648   7.278   1.289
78449W        W46867  39.042  13.126   5.243
78450W        W46868  40.846  22.535  10.930
78451W        W46869  14.101  29.043   3.213
78452W        W46870  10.376  11.707  12.941
78453W        W46871  42.949  18.116   2.188
78454W        W46872  22.140  43.307   2.332
78455W        W46873  30.932  44.262   0.752
78456W        W46874  42.871  34.084   0.944
78457W        W46875  38.413  24.013  10.499
78458W        W46876  30.129  24.061  10.620
78459W        W46877  34.899   2.288   0.728
78460W        W46878   1.303  33.448  11.103
78461W        W46879  24.486  38.325  12.093
78462W        W46880  34.433  10.835   1.751
78463W        W46881  24.041  38.446   9.530
78464W        W46882  15.810  14.246   4.721
78465W        W46883  27.502  21.677   1.411
78466W        W46884  23.165  13.600  13.841
78467W        W46885  32.099  35.007  13.381
78468W        W46886  21.688  24.046   3.188
78469W        W46887  34.583  14.278  10.630
78470W        W46888  39.064  15.162  11.031
78471W        W46889  31.074   0.476   4.148
78472W        W46890  35.436  13.680  14.463
78473W        W46891   0.290  42.874  13.376
78474W        W46892   8.234  23.177  14.427
78475W        W46893   7.898   8.707   0.399
78476W        W46894  35.028  21.043  13.376
78477W        W46895  18.180  23.735   0.784
78478W        W46896  28.116  29.612  13.328
78479W        W46897  30.440  40.028  10.468
78480W        W46898  43.298  23.205   0.331
78481W        W46899  39.884  37.444   2.663
78482W        W46900  15.748  34.011   1.383
78483W        W46901  13.319   4.719  11.085
78484W        W46902  18.292  44.316   2.273
78485W        W46903  20.056  11.359   3.733
78486W        W46904  13.191  21.092  12.879
78487W        W46905  26.458  38.046   3.162
78488W        W46906  24.586   1.845  11.383
78489W        W46907  28.591   9.777   0.912
78490W        W46908   4.373  42.895   0.354
78491W        W46909   5.291  27.943  14.322
78492W        W46910   1.335  29.539  12.831
78493W        W46911   1.349  40.876  11.032
78494W        W46912  13.301  21.187   0.949
78495W        W46913  38.983  24.609   4.802
78496W        W46914  39.463   0.785   4.748
78497W        W46915  31.909  41.437  11.930
78498W        W46916  44.288  11.682  12.975
78499W        W46917  14.171  28.596  10.421
78500W        W46918  28.015  41.919  12.482
78501W        W46919  19.764  42.380   1.216
78502W        W46920   4.759   2.818   0.450
78503W        W46921   5.358   8.318   0.740
78504W        W46922  43.385  25.093   4.192
78505W        W46923  35.445  10.235   1.892
78506W        W46924  42.907  30.039  11.412
78507W        W46925  10.775  23.674   2.798
78508W        W46926  23.634  28.448  13.866
78509W        W46927   9.358  37.006  10.893
78510W        W46928  32.907  29.063   3.758
78511W        W46929  38.379  22.155  14.772
78512W        W46930  21.153  25.612   5.143
78513W        W46931  25.149  33.540  11.122
78514W        W46932  23.672  43.895  12.417
78515W        W46933   5.430  43.789  13.952
78516W        W46934  26.177  39.496   4.645
78517W        W46935  42.021   7.305   3.359
78518W        W46936  19.181  17.599  12.567
78519W        W46937   1.770   5.370  14.863
78520W        W46938   1.977   8.892  14.766
78521W        W46939   6.284  12.134  13.434
78522W        W46940  33.543   4.715   2.237
78523W        W46941   5.926  10.358  10.967
78524W        W46942   2.863  42.386   0.351
78525W        W46943  32.078  37.503  11.929
78526W        W46944  37.405  44.268   0.883
78527W        W46945   9.205  41.888  11.471
78528W        W46946   6.309   7.852  14.012
78529W        W46947  29.093  40.315   3.251
78530W        W46948   7.301  18.071  13.927
78531W        W46949  10.206  27.533  14.027
78532W        W46950  16.255   2.883  14.832
78533W        W46951   5.733  16.652   2.207
78534W        W46952  27.081   0.284  14.807
78535W        W46953  37.070  35.445   3.338
78536W        W46954   5.240  43.428   2.348
78537W        W46955  34.071  13.712   2.789
78538W        W46956   8.357  38.833  13.500
78539W        W46957   0.455   1.971  11.582
78540W        W46958   7.752  38.967   3.222
78541W        W46959  27.578  41.437   1.368
78542W        W46960  32.550   0.866  14.002
78543W        W46961  25.968  35.518  14.482
78544W        W46962  13.709   2.915   2.404
78545W        W46963   7.403  37.884   2.295
78546W        W46964  28.155  38.432   2.669
78547W        W46965   8.239  25.565  11.479
78548W        W46966  30.612   1.834  13.057
78549W        W46967  18.112  44.438   2.895
78550W        W46968  14.631  24.151   4.268
78551W        W46969  18.717  10.339  10.153
78552W        W46970   1.280  29.988   3.677
78553W        W46971   4.833  17.208  14.854
78554W        W46972   7.291  19.248   1.757
78555W        W46973  40.478  34.433   3.829
78556W        W46974  26.068  30.450  11.510
78557W        W46975  44.810  35.590  11.966
78558W        W46976  28.521  37.383   4.632
78559W        W46977   4.409  26.632   2.296
78560W        W46978  27.478  23.215  13.357
78561W        W46979   5.216  28.125  11.912
78562W        W46980  22.153  22.215   1.927
78563W        W46981  28.649  30.148   3.372
78564W        W46982  13.167  24.607   2.356
78565W        W46983  37.998  10.849  11.471
78566W        W46984  29.572  37.836  11.387
78567W        W46985  22.018  32.893   3.172
78568W        W46986  33.403  21.625   4.151
78569W        W46987  21.238   7.743   0.251
78570W        W46988  10.205  17.249  14.348
78571W        W46989   9.163  42.437   2.272
78572W        W46990  36.424  26.500  11.390
78573W        W46991  25.584  21.220   3.316
78574W        W46992  22.033  24.986  10.920
78575W        W46993   4.836   6.873  14.395
78576W        W46994  36.494  20.627   2.727
78577W        W46995   2.382  24.156   0.289
78578W        W46996  43.403  37.977  12.936
78579W        W46997  38.935   2.417  14.961
78580W        W46998   0.294  37.373  10.576
78581W        W46999  11.841  26.159   2.396
78582W        W47000  39.341  34.498  11.067
78583W        W47001  37.473   7.351   4.832
78584W        W47002  23.239  27.083  14.436
78585W        W47003  43.496  44.318  14.485
78586W        W47004  19.671  12.159   3.828
78587W        W47005   5.689  23.182   1.269
78588W        W47006  24.199  28.966   0.774
78589W        W47007  16.198  33.048   1.835
78590W        W47008  44.443  36.347  14.800
78591W        W47009   0.313  39.023  14.399
78592W        W47010   2.306  17.256   4.277
78593W        W47011  14.627  33.124   2.705
78594W        W47012  23.719  41.434   2.758
78595W        W47013   0.815  15.747  11.948
78596W        W47014  38.824   8.352  12.016
78597W        W47015  43.360  31.007   3.852
78598W        W47016  40.486  22.996  14.899
78599W        W47017   0.455   2.453   0.419
78600W        W47018  23.147   5.244   3.258
78601W        W47019  27.055  24.507   2.722
78602W        W47020  22.628  17.098   1.787
78603W        W47021   6.317  27.503   0.308
78604W        W47022   7.707  27.165   1.916
78605W        W47023  18.097  37.834   1.729
78606W        W47024   3.829   3.429  14.767
78607W        W47025  41.830  37.546  13.540
78608W        W47026  21.122   1.962   0.436
78609W        W47027  40.424   0.418   3.645
78610W        W47028  22.102  34.939   3.668
78611W        W47029  17.726   6.280   3.755
78612W        W47030  11.828  23.990   2.314
78613W        W47031   7.694  13.659  11.940
78614W        W47032  26.459  22.631   4.336
78615W        W47033   3.265  14.824  14.986
78616W        W47034  26.599   3.222   1.895
78617W        W47035  44.790  40.967   4.352
78618W        W47036   0.365  31.953   0.242
78619W        W47037  13.331  41.390   3.798
78620W        W47038  44.891   6.408   3.210
78621W        W47039  31.971  33.387  12.833
78622W        W47040  33.558  38.924   1.286
78623W        W47041  25.599  28.144   2.216
78624W        W47042   6.698  32.414  11.087
78625W        W47043  31.473  30.547  10.447
78626W        W47044  20.058  43.456  12.473
78627W        W47045  22.194  15.686  14.012
78628W        W47046  35.018  40.531   3.642
78629W        W47047  31.514   1.757   4.175
78630W        W47048   4.907   7.696  14.820
78631W        W47049  21.074  11.702  13.028
78632W        W47050  13.227  24.203  11.996
78633W        W47051  42.388   8.356  11.919
78634W        W47052  20.670   6.710   3.233
78635W        W47053  33.537  31.051   0.740
78636W        W47054  11.152  30.942   2.313
78637W        W47055  24.206  26.561   2.667
78638W        W47056  31.481  12.226   4.239
78639W        W47057  23.514  11.822  14.407
78640W        W47058  24.133  29.124  13.962
78641W        W47059  19.763  27.066  13.999
78642W        W47060  39.911   7.737  11.596
78643W        W47061  16.244  30.445  13.382
78644W        W47062   1.299  41.526   4.689
78645W        W47063  42.309  17.083  14.432
78646W        W47064   1.863   7.804  14.335
78647W        W47065   8.843   4.709   4.835
78648W        W47066  12.324  43.384  13.901
78649W        W47067  34.880  15.207   0.848
78650W        W47068  14.108  31.402   2.238
78651W        W47069   3.285  36.910  14.451
78652W        W47070  16.603   4.313   2.203
78653W        W47071  37.474  10.140   3.214
78654W        W47072   8.278  40.315  11.018
78655W        W47073   2.382  42.444   1.844
78656W        W47074   9.274  28.031   3.223
78657W        W47075  43.944  13.260   3.727
78658W        W47076  18.635   0.840   3.360
78659W        W47077  28.992   7.806   5.301
78660W        W47078  27.606  17.633   4.645
78661W        W47079  29.479  19.554  14.890
78662W        W47080  25.007  41.302  10.572
78663W        W47081   7.196  19.229  13.489
78664W        W47082  30.980  28.081  14.913
78665W        W47083  13.122  19.664  13.855
78666W        W47084  20.147  23.045  13.404
78667W        W47085  32.075  34.944  10.588
78668W        W47086  22.721  35.440   1.786
78669W        W47087  28.987  38.327   1.447
78670W        W47088   3.434  37.345   5.118
78671W        W47089  29.932  20.112   4.628
78672W        W47090  16.638   8.259   3.165
78673W        W47091  15.191   6.300   2.268
78674W        W47092  23.173   6.372  10.501
78675W        W47093  44.897  24.514   2.364
78676W        W47094  19.167  14.676   4.814
78677W        W47095  30.622  27.517   0.878
78678W        W47096  15.651  39.903   1.902
78679W        W47097  24.027   5.785  12.961
78680W        W47098  20.749  42.363   0.946
78681W        W47099  26.134  12.149   0.882
78682W        W47100   5.896  23.218  10.489
78683W        W47101  22.506  44.807  12.578
78684W        W47102  21.036  32.022  14.370
78685W        W47103  22.176   3.727   0.899
78686W        W47104  13.344  22.619   1.320
78687W        W47105  17.696  37.459   2.894
78688W        W47106   1.894   0.793   3.236
78689W        W47107  26.684  10.246   4.669
78690W        W47108  42.468  20.060  13.924
78691W        W47109  27.971  11.254   1.232
78692W        W47110  14.248  14.594   0.962
78693W        W47111  18.127  38.887   4.348
78694W        W47112  26.975  18.093  10.636
78695W        W47113  30.966  33.913  11.377
78696W        W47114  22.160  32.439   4.646
78697W        W47115  10.830  29.625  13.799
78698W        W47116   4.907  17.799   2.300
78699W        W47117  38.059  36.908   2.386
78700W        W47118  16.617  12.714  10.624
78701W        W47119  31.591  39.893  12.525
78702W        W47120   3.900   6.305   0.320
78703W        W47121  27.115  27.562   4.662
78704W        W47122  10.738  10.701  14.761
78705W        W47123  33.078  30.013  14.499
78706W        W47124  17.663  28.665  13.542
78707W        W47125  40.391  27.092   3.852
78708W        W47126  16.570   6.241   4.686
78709W        W47127  34.931  42.796  13.488
78710W        W47128  12.667  22.728   4.314
78711W        W47129  43.421  16.251  14.842
78712W        W47130   9.763  32.474  11.000
78713W        W47131  12.823  43.291  12.911
78714W        W47132   1.896   3.869   4.327
78715W        W47133  11.155  37.050   3.693
78716W        W47134  44.900  27.451   0.363
78717W        W47135   6.275  26.034   3.378
78718W        W47136   3.894  44.996   3.267
78719W        W47137  42.820  38.456  14.009
78720W        W47138  16.750  34.391  11.958
78721W        W47139   2.313  21.758  12.881
78722W        W47140   6.708  24.973   3.704
78723W        W47141  16.113  10.732  12.557
78724W        W47142  15.260  21.720   1.402
78725W        W47143  30.155  33.094   1.711
78726W        W47144   9.376   3.393   5.123
78727W        W47145  44.809  38.571   4.308
78728W        W47146   6.378  43.474  11.096
78729W        W47147   8.170  37.005  11.434
78730W        W47148  27.083  33.575  14.355
78731W        W47149  27.102  16.307  13.539
78732W        W47150  16.735  43.814   0.315
78733W        W47151   8.795  33.072  10.450
78734W        W47152   2.758  25.640   4.204
78735W        W47153  27.463  44.267  12.392
78736W        W47154   1.949  19.621  12.351
78737W        W47155   9.740  30.555  14.841
78738W        W47156  22.654  42.478  12.541
78739W        W47157  23.029   2.416   1.829
78740W        W47158  33.048  22.190   3.245
78741W        W47159  28.965  15.321  11.415
78742W        W47160  31.951  38.021   1.448
78743W        W47161  34.037  34.407  10.425
78744W        W47162  22.609  20.575  10.897
78745W        W47163   7.175   2.257  13.805
78746W        W47164   7.667   4.413   0.483
78747W        W47165   1.968   8.741  13.945
78748W        W47166  43.994  16.140   0.873
78749W        W47167  38.907  29.170  13.037
78750W        W47168  43.008   0.804  12.853
78751W        W47169  17.277  12.743   4.703
78752W        W47170  40.416  43.450   4.749
78753W        W47171  14.339  34.513   2.804
78754W        W47172  12.282  37.915  12.383
78755W        W47173  41.031  44.500   1.225
78756W        W47174  31.041   2.464  11.398
78757W        W47175  23.096  30.447   1.845
78758W        W47176  21.151  14.265   0.478
78759W        W47177  44.827  37.085   3.260
78760W        W47178  16.661  15.685  13.806
78761W        W47179  13.320  29.495  11.440
78762W        W47180  14.164   9.701   3.631
78763W        W47181  25.710  12.663  13.799
78764W        W47182  26.097   3.245   3.152
78765W        W47183  25.018  10.323  12.566
78766W        W47184  15.605  18.140  10.134
78767W        W47185  16.079  11.680   3.775
78768W        W47186  33.596  15.174   4.790
78769W        W47187   8.879  14.683  11.588
78770W        W47188  18.279  22.180   3.693
78771W        W47189  17.210  12.132   3.187
78772W        W47190  24.077  23.189  14.350
78773W        W47191  14.707   7.332  13.909
78774W        W47192  38.922  44.479  13.908
78775W        W47193  39.369   9.329  12.883
78776W        W47194  17.631  28.643  12.357
78777W        W47195   5.709   6.392  11.569
78778W        W47196  43.021   9.167  11.384
78779W        W47197  44.753  32.530   4.761
78780W        W47198  22.732   5.205   0.258
78781W        W47199  10.840  11.700   3.290
78782W        W47200  16.161  41.472   3.376
78783W        W47201  15.310  18.747   3.373
78784W        W47202   7.696  36.005  10.047
78785W        W47203   3.268  32.100  13.947
78786W        W47204  14.117  15.737  12.960
78787W        W47205   3.813  37.522   4.597
78788W        W47206   0.812  26.047  13.917
78789W        W47207   6.198  24.098   2.222
78790W        W47208  30.554  21.228   3.687
78791W        W47209   0.397  35.544   1.707
78792W        W47210  35.592   2.250   0.889
78793W        W47211  24.982   0.967   0.441
78794W        W47212  26.020   5.318  10.990
78795W        W47213  32.087   7.238  13.853
78796W        W47214  32.941  44.891   0.762
78797W        W47215  38.879  29.501   1.437
78798W        W47216  12.783   5.335  10.543
78799W        W47217   4.904   9.308  10.915
78800W        W47218   4.203  25.569   0.810
78801W        W47219  32.411  12.336   3.824
78802W        W47220  40.412   5.889   3.810
78803W        W47221  31.556  38.866  12.464
78804W        W47222  41.958  29.081  11.562
78805W        W47223  28.678  36.941   0.432
78806W        W47224  14.094  36.939   1.738
78807W        W47225  16.311  34.091  11.935
78808W        W47226  34.929   7.790  12.931
78809W        W47227  19.706  23.218  13.431
78810W        W47228  18.121  13.703  11.916
78811W        W47229  31.133  30.509   4.315
78812W        W47230  41.812  36.367   2.180
78813W        W47231  13.772  43.324  10.935
78814W        W47232  43.375  41.043  14.441
78815W        W47233  19.546  29.116  13.950
78816W        W47234  41.389  38.015  12.001
78817W        W47235   6.880  21.226   3.355
78818W        W47236  27.973  14.271   4.766
78819W        W47237   6.345  44.299  10.560
78820W        W47238  17.075   8.282  12.853
78821W        W47239  36.422  37.947   0.826
78822W        W47240  44.881  23.080   1.914
78823W        W47241  13.141  10.228   3.714
78824W        W47242  16.212  10.367  13.396
78825W        W47243   6.858  40.937  14.422
78826W        W47244  19.244  26.178   2.839
78827W        W47245  28.441  20.730  14.436
78828W        W47246  10.174   7.406  10.921
78829W        W47247   2.292  14.323  14.505
78830W        W47248   4.250  29.959   0.965
78831W        W47249  32.404  30.075   1.317
78832W        W47250  26.003   8.256  14.350
78833W        W47251   3.256  29.953  14.879
78834W        W47252  23.657   2.328   3.741
78835W        W47253  37.975  26.555  14.854
78836W        W47254  15.123  11.201   3.637
78837W        W47255   0.264   2.937  11.903
78838W        W47256  43.905  14.199  13.489
78839W        W47257  18.627  19.073   4.252
78840W        W47258  41.994   3.822  13.792
78841W        W47259  43.826  27.058  11.082
78842W        W47260  25.214  14.317   4.284
78843W        W47261  19.649  17.673  14.475
78844W        W47262  10.652  44.778  11.997
78845W        W47263  39.893  43.833  14.945
78846W        W47264   4.243   4.280  12.984
78847W        W47265  41.930   0.786  11.506
78848W        W47266  12.274  36.011  11.124
78849W        W47267   5.351   3.891  14.924
78850W        W47268  34.472   2.743   1.273
78851W        W47269  26.600  31.503  12.902
78852W        W47270   6.379  15.620   2.663
78853W        W47271  14.206  16.165  11.609
78854W        W47272  14.338  39.960   0.781
78855W        W47273  26.142   6.383  11.457
78856W        W47274  26.178   3.226  11.481
78857W        W47275   6.382   1.826  14.013
78858W        W47276   2.232  10.727   4.810
78859W        W47277  29.093  16.639   2.253
78860W        W47278   3.810  19.742  10.570
78861W        W47279  36.510  32.026   2.824
78862W        W47280  38.520  22.535  13.904
78863W        W47281  15.720  37.386  12.529
78864W        W47282  39.471  20.572   2.270
78865W        W47283  14.326   1.783  12.011
78866W        W47284  11.658  32.406   4.165
78867W        W47285   7.201  18.236   2.873
78868W        W47286  12.143  20.679  12.449
78869W        W47287  20.764  14.119   0.435
78870W        W47288  39.398  41.980   1.911
78871W        W47289  41.378   5.724  14.479
78872W        W47290  33.894  22.087   4.817
78873W        W47291   8.814   0.772  10.580
78874W        W47292  43.431   0.823  13.359
78875W        W47293  40.382  24.124  10.617
78876W        W47294  23.126  43.942   4.604
78877W        W47295  20.224  11.646   5.092
78878W        W47296  29.952  26.539   3.713
78879W        W47297   9.815  32.054  10.480
78880W        W47298   9.862  41.401   0.330
78881W        W47299  29.092  20.681  14.994
78882W        W47300  33.527  42.796  12.571
78883W        W47301  14.781  15.256   1.253
78884W        W47302  17.264  15.171  10.897
78885W        W47303  16.577  32.589   3.170
78886W        W47304  43.301   7.888   2.833
78887W        W47305   0.422   2.909   3.205
78888W        W47306   3.944  18.680   2.699
78889W        W47307  15.583  26.994  12.840
78890W        W47308   2.363  41.858  12.382
78891W        W47309  38.331  19.762   0.846
78892W        W47310  23.097   0.270  11.953
78893W        W47311  11.148  24.118  12.882
78894W        W47312  13.132   3.369  12.923
78895W        W47313  15.184  43.484  12.061
78896W        W47314  43.395  23.549  13.357
78897W        W47315  25.001  37.032  12.042
78898W        W47316  35.927  33.534  10.114
78899W        W47317  13.628  25.530   3.747
78900W        W47318  36.087  16.075   4.763
78901W        W47319  39.894  27.507   4.796
78902W        W47320  10.292  27.575   4.315
78903W        W47321  29.539  18.187  14.921
78904W        W47322  15.707   4.401   3.789
78905W        W47323  19.763  42.949  13.346
78906W        W47324   0.253  34.611  12.371
78907W        W47325  19.566  39.856  13.864
78908W        W47326  31.401  43.430   4.273
78909W        W47327   7.282  44.442  13.927
78910W        W47328  20.098   4.320  11.459
78911W        W47329  24.491  36.902  11.112
78912W        W47330   0.866  11.814   0.306
78913W        W47331  18.090  12.234  11.927
78914W        W47332  29.568   7.368   5.313
78915W        W47333  14.308   4.419  13.816
78916W        W47334  34.454  43.804  11.127
78917W        W47335  30.435  29.053  14.027
78918W        W47336   5.909  40.333  13.372
78919W        W47337  12.851   4.744  13.947
78920W        W47338  13.241   5.835  11.114
78921W        W47339   1.779  27.058   3.337
78922W        W47340   2.759  17.584  14.788
78923W        W47341   7.839  23.583  14.956
78924W        W47342  15.704  17.748   2.368
78925W        W47343  10.703  34.118   2.400
78926W        W47344  36.352  40.825  10.517
78927W        W47345  24.496  25.525   3.652
78928W        W47346   8.701  24.483   0.764
78929W        W47347  31.958   0.365   2.359
78930W        W47348  32.032  11.775  12.994
78931W        W47349  37.839  11.167  13.351
78932W        W47350  32.493   5.783  11.454
78933W        W47351  25.033  26.966  12.831
78934W        W47352  18.119  12.280   3.208
78935W        W47353  32.071  17.560  10.452
78936W        W47354   6.205  12.856   0.942
78937W        W47355  33.491   2.305  13.829
78938W        W47356  11.336  30.019  13.533
78939W        W47357  44.962  11.751   9.507
78940W        W47358  38.856  16.731   2.343
78941W        W47359   5.708  19.605   2.213
78942W        W47360  14.827   3.218   2.377
78943W        W47361  43.417  43.411  14.370
78944W        W47362   0.362  13.685  12.541
78945W        W47363  37.984  29.606  10.633
78946W        W47364   2.740  23.669  11.970
78947W        W47365  12.152  30.158   2.756
78948W        W47366  38.538   5.197  14.942
78949W        W47367   5.799  13.818  12.828
78950W        W47368  25.487  15.640  10.073
78951W        W47369  38.982  40.016  10.151
78952W        W47370   3.317  39.974   0.743
78953W        W47371  28.554  17.660  14.831
78954W        W47372  38.567  17.689  13.038
78955W        W47373   6.415  35.401  11.105
78956W        W47374  16.242   0.966  13.003
78957W        W47375  20.722  36.956  10.531
78958W        W47376  13.609   2.320   3.790
78959W        W47377   2.876   8.675  14.959
78960W        W47378  21.093  11.730  13.923
78961W        W47379  10.685   9.229   3.824
78962W        W47380  36.521  34.533  10.995
78963W        W47381  41.500  42.335   2.261
78964W        W47382   0.867   4.823  10.073
78965W        W47383  32.914  43.502  12.347
78966W        W47384  35.562  25.098  13.485
78967W        W47385  25.595  39.850  13.999
78968W        W47386  39.463  13.141   4.735
78969W        W47387   3.385  30.433   2.761
78970W        W47388  13.351  44.329   0.731
78971W        W47389  21.615  19.676  11.454
78972W        W47390  25.963  26.155   3.656
78973W        W47391   4.302   7.758   0.482
78974W        W47392  11.272  21.620  11.910
78975W        W47393  30.558   8.826  12.391
78976W        W47394  19.110  35.943   3.236
78977W        W47395  41.843  11.227   4.731
78978W        W47396  14.590  34.482   0.923
78979W        W47397  28.548   8.321   1.911
78980W        W47398  38.877   9.804  11.462
78981W        W47399  28.526  20.192  13.895
78982W        W47400  44.473   3.261  10.596
78983W        W47401  34.928  14.152   4.266
78984W        W47402  13.651  26.084   0.732
78985W        W47403  33.449  10.808   4.295
78986W        W47404   5.849   6.769   0.920
78987W        W47405   9.810  39.327  13.497
78988W        W47406  40.533  21.628  12.922
78989W        W47407  40.426   0.488  11.959
78990W        W47408  35.393  16.574  13.407
78991W        W47409  27.612  18.644  14.874
78992W        W47410  28.553  15.135   4.178
78993W        W47411  21.144   2.361  14.794
78994W        W47412  22.648  22.028   1.795
78995W        W47413   3.354  37.988   4.732
78996W        W47414  34.415  39.870   2.713
78997W        W47415  33.902   0.360   3.154
78998W        W47416   9.339  10.146   0.829
78999W        W47417  32.582  25.625  13.930
79000W        W47418   2.364   9.840  11.034
79001W        W47419   0.842  44.807   2.809
79002W        W47420  26.988  14.721   3.175
79003W        W47421  11.359  30.464  12.975
79004W        W47422  37.982  20.070  11.449
79005W        W47423  38.515  11.629  10.936
79006W        W47424  40.352  23.547  12.470
79007W        W47425  19.580  21.204   4.278
79008W        W47426  38.559   3.714   3.160
79009W        W47427  23.021  34.421   2.708
79010W        W47428   8.336  18.256   2.814
79011W        W47429  30.074   5.809   1.343
79012W        W47430  34.462  33.022   3.158
79013W        W47431   7.351  37.354  11.375
79014W        W47432  18.144  40.342   3.750
79015W        W47433  13.146  28.531  14.325
79016W        W47434  39.531  42.813   0.363
79017W        W47435  32.504  24.194   2.405
79018W        W47436   0.824  31.619  12.375
79019W        W47437  23.128  27.459   3.734
79020W        W47438   0.823   9.262   0.876
79021W        W47439  19.716  24.604  13.019
79022W        W47440   7.264  30.970   2.258
79023W        W47441   9.713  43.838  13.441
79024W        W47442  33.608  16.740   1.248
79025W        W47443  28.037  11.239   4.309
79026W        W47444  13.347  21.572  13.865
79027W        W47445  13.698  17.723   0.247
79028W        W47446  37.946  18.574   4.729
79029W        W47447   3.342  23.060   0.870
79030W        W47448  36.019  14.273   2.844
79031W        W47449   4.288  30.141   2.693
79032W        W47450   1.436  37.398   4.618
79033W        W47451  32.501  31.052  13.308
79034W        W47452  34.114  26.026  12.995
79035W        W47453  14.710  33.589   0.253
79036W        W47454   8.730   1.867  12.861
79037W        W47455  15.197  38.034  12.916
79038W        W47456  26.480  17.237  12.354
79039W        W47457  26.004  42.928   0.889
79040W        W47458  43.331  11.201   5.148
79041W        W47459  16.306  15.268   2.411
79042W        W47460  33.028  16.308  14.852
79043W        W47461  26.065   1.280   3.190
79044W        W47462  24.624  41.871  11.981
79045W        W47463  20.126  10.870   3.312
79046W        W47464  41.348  31.487   1.927
79047W        W47465  41.356  32.984   0.278
79048W        W47466   9.206   4.753  12.002
79049W        W47467  15.701  42.464  13.976
79050W        W47468  25.641  25.166  13.054
79051W        W47469  27.553  36.070  14.945
79052W        W47470  26.122  33.078  14.316
79053W        W47471  37.830   6.781   2.738
79054W        W47472  31.976  25.962  11.011
79055W        W47473  14.146  19.605  11.953
79056W        W47474  14.730  22.716  11.878
79057W        W47475  21.703   8.757  11.878
79058W        W47476  14.674  24.183  11.076
79059W        W47477  44.939  16.170   3.698
79060W        W47478  26.480   1.338   0.963
79061W        W47479  42.317  13.786  14.848
79062W        W47480  16.179  37.384  13.522
79063W        W47481  14.823  16.116  10.635
79064W        W47482  26.974  43.768  13.969
79065W        W47483  32.120  35.009  11.446
79066W        W47484  10.791  15.329   1.446
79067W        W47485  18.780   6.409   1.287
79068W        W47486   4.296  25.085   3.648
79069W        W47487   8.362  37.423  13.312
79070W        W47488  31.997  31.104  14.338
79071W        W47489  32.591  24.026  11.885
79072W        W47490   2.421  37.494  10.627
79073W        W47491  27.059  43.469  13.010
79074W        W47492  33.951  29.024   1.814
79075W        W47493  34.101  10.723  10.911
79076W        W47494  33.947   7.182  14.287
79077W        W47495   3.369  17.281  12.972
79078W        W47496   8.726   9.658   0.398
79079W        W47497  15.215  38.449  13.329
79080W        W47498  27.175  33.544  10.089
79081W        W47499  43.388  12.174  12.085
79082W        W47500   3.265   3.299   3.654
79083W        W47501  29.590  12.290  14.803
79084W        W47502  13.664  38.963  10.974
79085W        W47503  32.052  21.241   0.784
79086W        W47504   7.799  10.282  11.509
79087W        W47505  35.471  25.049  14.422
79088W        W47506   4.303  44.828  12.070
79089W        W47507  36.958   6.903   2.283
79090W        W47508  25.597  32.517  10.991
79091W        W47509  14.817  17.646   0.727
79092W        W47510  12.308   9.766  14.416
79093W        W47511   5.317  42.511   1.228
79094W        W47512  19.150  43.854  10.516
79095W        W47513  39.446   0.897  11.114
79096W        W47514  23.519  17.212   0.398
79097W        W47515  21.042  42.967  13.838
79098W        W47516   1.296  44.950  14.359
79099W        W47517  37.863  17.088  13.348
79100W        W47518  43.808  28.539   2.190
79101W        W47519   7.670  20.708   0.805
79102W        W47520  22.661   8.799   2.818
79103W        W47521   2.472  20.135  12.495
79104W        W47522   6.902  11.753   4.685
79105W        W47523  10.712  32.538   2.267
79106W        W47524   2.378  24.542   3.698
79107W        W47525  22.517   9.383   4.124
79108W        W47526   2.945   7.900  11.038
79109W        W47527  14.803  19.672  13.825
79110W        W47528  10.739  20.157   1.824
79111W        W47529   4.283  14.787  10.606
79112W        W47530   7.414  21.243  14.887
79113W        W47531  28.069   0.311   3.832
79114W        W47532  38.045  14.165  11.901
79115W        W47533  26.672   2.450  11.460
79116W        W47534  17.220  24.199  13.473
79117W        W47535  31.618   4.440   4.301
79118W        W47536  33.076  36.875   2.762
79119W        W47537   3.254  32.441   0.750
79120W        W47538  34.423  25.538  11.586
79121W        W47539  35.524  19.142   4.172
79122W        W47540  17.637  10.826   4.192
79123W        W47541  12.647  43.892   2.851
79124W        W47542  39.413  34.488  13.984
79125W        W47543  40.542  12.220  10.986
79126W        W47544  25.471   8.757   1.830
79127W        W47545  26.458  13.808   4.640
79128W        W47546  26.512  38.500  12.552
79129W        W47547  38.046  11.364   0.357
79130W        W47548  37.512  37.027  14.841
79131W        W47549  23.518   2.915   2.296
79132W        W47550  18.105   8.194   4.691
79133W        W47551  21.112  10.175   1.444
79134W        W47552  22.107  20.256  11.584
79135W        W47553  15.821  25.061   3.723
79136W        W47554  44.270  32.439   3.694
79137W        W47555  43.420  14.617   4.690
79138W        W47556  41.894  18.254  13.961
79139W        W47557  28.568  16.089   0.407
79140W        W47558  21.634  16.080   2.419
79141W        W47559  30.923  35.390  12.494
79142W        W47560   2.825  31.508   4.208
79143W        W47561  35.416   3.901   2.392
79144W        W47562   4.859  23.506  10.456
79145W        W47563   0.272  18.790   3.855
79146W        W47564  34.876  16.754   1.323
79147W        W47565  27.960  43.792  11.940
79148W        W47566  17.238   4.942  14.392
79149W        W47567  43.001  19.202   3.381
79150W        W47568  42.793  14.122  12.908
79151W        W47569  17.095  33.430  10.555
79152W        W47570   8.834  43.991   1.913
79153W        W47571  19.198   8.258  13.506
79154W        W47572  36.575  42.487  11.565
79155W        W47573   1.396  22.237  12.997
79156W        W47574  44.859  30.637   4.126
79157W        W47575  32.398  16.791  12.842
79158W        W47576  35.922  20.198   0.957
79159W        W47577  35.927  44.307  10.461
79160W        W47578  20.029   2.378   0.243
79161W        W47579  28.032   9.150   9.504
79162W        W47580  11.135   3.274  12.385
79163W        W47581  20.175   1.816   1.338
79164W        W47582  19.266  13.630  11.902
79165W        W47583  31.970  43.328   2.703
79166W        W47584   5.270  44.411   3.233
79167W        W47585  26.004  43.936  10.536
79168W        W47586   2.847  34.883  13.838
79169W        W47587   7.856  39.373   1.415
79170W        W47588   1.970  16.717  13.027
79171W        W47589   2.287  27.129   3.248
79172W        W47590  31.551  25.537  11.855
79173W        W47591  38.921  18.220  13.466
79174W        W47592  18.072   3.385   3.215
79175W        W47593  14.720  44.886  12.049
79176W        W47594  17.697   9.244   0.437
79177W        W47595  31.942  18.687   3.757
79178W        W47596   0.310   8.335   1.405
79179W        W47597  32.959   6.364  12.065
79180W        W47598   9.326   1.938  14.010
79181W        W47599  14.712  42.850   5.113
79182W        W47600   9.351  30.054   2.670
79183W        W47601   2.822  43.316   1.416
79184W        W47602  12.307   7.362   4.709
79185W        W47603  13.129  28.108  14.001
79186W        W47604  22.575  41.446   4.190
79187W        W47605  11.367  32.903   4.191
79188W        W47606  26.999  24.666  12.079
79189W        W47607  44.925  26.671  10.937
79190W        W47608  31.581  35.538   0.286
79191W        W47609  22.072  16.085   2.409
79192W        W47610  43.444  42.019   0.764
79193W        W47611  11.285  12.637  13.008
79194W        W47612  17.145  32.078  12.894
79195W        W47613  26.964   5.252  12.061
79196W        W47614  41.393  19.562  13.315
79197W        W47615   2.307  29.626   4.779
79198W        W47616  37.887  30.465  11.021
79199W        W47617  10.151  12.695  13.441
79200W        W47618  16.761  40.869  14.463
79201W        W47619  23.104  19.232   4.693
79202W        W47620  31.142  44.809   2.782
79203W        W47621  20.143  20.076   0.819
79204W        W47622   3.427  11.824  13.977
79205W        W47623  42.007   0.971   1.767
79206W        W47624  18.240  33.415   4.164
79207W        W47625  35.903  21.608  10.544
79208W        W47626  10.200   8.375  11.544
79209W        W47627  21.201   6.374  14.931
79210W        W47628  10.843   6.276  14.944
79211W        W47629  21.254  21.619  11.879
79212W        W47630  13.249  27.563  14.374
79213W        W47631  11.643  35.596   4.737
79214W        W47632  21.187  38.993   2.853
79215W        W47633  23.990   4.753   0.439
79216W        W47634  40.471  39.428   2.733
79217W        W47635  26.689  31.503   4.222
79218W        W47636  38.469  29.935   2.299
79219W        W47637  35.980   2.903   3.796
79220W        W47638   9.663  37.047   1.887
79221W        W47639  14.132  40.540   5.289
79222W        W47640  43.831  35.910  10.581
79223W        W47641  20.156  35.533  11.467
79224W        W47642  24.186  40.962  11.085
79225W        W47643  17.574  10.270   3.830
79226W        W47644   3.952   9.168  14.809
79227W        W47645  24.195   0.768  10.574
79228W        W47646  33.445  14.600  10.476
79229W        W47647  22.027  33.617  11.099
79230W        W47648  24.633  31.093  13.428
79231W        W47649  43.365  35.949  12.049
79232W        W47650   6.917  40.938   1.353
79233W        W47651  18.664   2.877  10.977
79234W        W47652  32.459  19.704  14.934
79235W        W47653  16.676   1.757   1.398
79236W        W47654  35.511   9.764  14.499
79237W        W47655   0.340  42.852   3.362
79238W        W47656  15.672   7.375   5.134
79239W        W47657  27.096  31.100   1.239
79240W        W47658  15.244  41.340  14.768
79241W        W47659   5.840  42.803   5.218
79242W        W47660   3.743  28.139  10.081
79243W        W47661   3.453   5.343   3.716
79244W        W47662  28.522  30.944  14.289
79245W        W47663   0.748  41.900  11.051
79246W        W47664  16.127  12.256  14.886
79247W        W47665  39.048  26.561   0.929
79248W        W47666  25.673  18.761   0.852
79249W        W47667  26.684  37.929  10.645
79250W        W47668  38.862  25.183   2.236
79251W        W47669  33.888   7.271   0.352
79252W        W47670  15.084  10.747  12.091
79253W        W47671  36.002  14.613   3.298
79254W        W47672  35.483  32.444  12.932
79255W        W47673  25.974  18.709   4.760
79256W        W47674   3.439  18.296   2.306
79257W        W47675  21.664   2.320   3.847
79258W        W47676  23.606  27.486   0.418
79259W        W47677  43.993   5.893  12.875
79260W        W47678  37.943  36.847  14.782
79261W        W47679  15.323  12.698  11.537
79262W        W47680  31.012  38.343  14.409
79263W        W47681   5.711  20.187  11.959
79264W        W47682  28.013  32.445  13.448
79265W        W47683  27.452  18.686   3.777
79266W        W47684  24.090  35.069   4.693
79267W        W47685   1.784   4.407   0.845
79268W        W47686  25.651   7.735   0.433
79269W        W47687   1.376  20.058   1.357
79270W        W47688  37.390  13.832   0.313
79271W        W47689  41.388   4.877   3.185
79272W        W47690  41.007  26.113  13.358
79273W        W47691  28.564  43.344  13.335
79274W        W47692  31.009  11.663   2.309
79275W        W47693   5.886  15.224  11.989
79276W        W47694  26.658  37.032   3.255
79277W        W47695   1.438  22.673   2.786
79278W        W47696  10.650  36.419  10.947
79279W        W47697  20.740  31.453   0.343
79280W        W47698  27.154   4.238  12.002
79281W        W47699  10.852  37.974   3.848
79282W        W47700   7.380  22.210  14.354
79283W        W47701  41.421  41.915   4.347
79284W        W47702  10.847   2.723  11.548
79285W        W47703  28.028  35.551   2.898
79286W        W47704  40.306  13.692  13.490
79287W        W47705  11.202  17.561  12.026
79288W        W47706   6.322  13.230   4.291
79289W        W47707  13.742  33.905   3.797
79290W        W47708  22.013  24.593   5.310
79291W        W47709   0.870  32.995   2.248
79292W        W47710  21.618  34.448  11.874
79293W        W47711   1.819  22.243   0.403
79294W        W47712  35.007  29.569  11.611
79295W        W47713  19.118  43.432  12.078
79296W        W47714   4.712  19.567   0.801
79297W        W47715   4.388   5.897   0.329
79298W        W47716  25.708  11.136  11.445
79299W        W47717  21.161  39.810   3.751
79300W        W47718   9.874  23.200  10.592
79301W        W47719  28.015  20.049  11.469
79302W        W47720   1.757  44.898   4.830
79303W        W47721  14.104  10.310  14.402
79304W        W47722  35.936   2.795  11.118
79305W        W47723  41.469  22.671   2.685
79306W        W47724  33.060  14.659  13.958
79307W        W47725  43.989  26.102   3.145
79308W        W47726   6.702  33.021  12.511
79309W        W47727   8.686  15.268  13.814
79310W        W47728  19.671  12.750   2.807
79311W        W47729  25.169   4.803  12.449
79312W        W47730  44.821  18.080  11.444
79313W        W47731  41.385  37.048  13.956
79314W        W47732  38.890  24.537  13.845
79315W        W47733  36.498  29.992   3.836
79316W        W47734  35.363  38.493  10.422
79317W        W47735   7.749  35.908   0.890
79318W        W47736  40.359  44.478   1.449
79319W        W47737  25.637  16.268   2.358
79320W        W47738  28.455  24.210  11.480
79321W        W47739  14.177  14.594   0.359
79322W        W47740  11.233  16.707   0.757
79323W        W47741  19.208   5.867   4.344
79324W        W47742  39.060  19.609  12.342
79325W        W47743  28.550  16.202  10.961
79326W        W47744  17.077  40.017   3.637
79327W        W47745   1.388   2.320  11.423
79328W        W47746  23.098  37.939   5.611
79329W        W47747  40.314  34.889  14.277
79330W        W47748  43.404  18.696  11.566
79331W        W47749   2.902  44.400   4.706
79332W        W47750  23.211  38.339  13.378
79333W        W47751  44.002  24.111  12.066
79334W        W47752  29.654  14.283   3.352
79335W        W47753  37.521  13.741   3.765
79336W        W47754  13.105  11.248   2.726
79337W        W47755  33.110  22.178  13.014
79338W        W47756  12.303  28.456  12.422
79339W        W47757  35.034   0.885   4.127
79340W        W47758  12.790   6.772  13.481
79341W        W47759  35.080  39.315  12.043
79342W        W47760  21.538   3.872   2.874
79343W        W47761  30.414  41.981   1.807
79344W        W47762  28.149  37.933   1.900
79345W        W47763  32.979  38.882   3.859
79346W        W47764  41.903  25.652  13.004
79347W        W47765  41.958  36.058  13.063
79348W        W47766  18.264  31.902  11.477
79349W        W47767  13.621   3.767   2.688
79350W        W47768  18.553   0.494   1.356
79351W        W47769  34.575  30.114  10.992
79352W        W47770  44.940   9.306  13.906
79353W        W47771  34.872  35.425   3.869
79354W        W47772  24.479  18.623   3.387
79355W        W47773  19.265  28.154   3.327
79356W        W47774  39.490  38.511   1.912
79357W        W47775  42.482  23.157   0.267
79358W        W47776  41.984  40.856  14.381
79359W        W47777  11.628   5.765  12.900
79360W        W47778  20.761  15.310   3.270
79361W        W47779  31.585   1.865  12.484
79362W        W47780  19.616  11.709  13.964
79363W        W47781   3.732   8.901   1.412
79364W        W47782  16.277  44.754   3.192
79365W        W47783  13.746  10.222   0.810
79366W        W47784  14.316  44.004  10.454
79367W        W47785   8.368  35.029   4.131
79368W        W47786  39.519  32.068   3.708
79369W        W47787  41.297  18.738  14.877
79370W        W47788  21.249  33.112  10.138
79371W        W47789   8.220   3.399  13.360
79372W        W47790  18.091  25.691  12.493
79373W        W47791  34.991   5.425  14.439
79374W        W47792  26.002   2.875  10.488
79375W        W47793  39.003   0.868   2.251
79376W        W47794  25.472  35.373  12.971
79377W        W47795  18.220  33.485   0.808
79378W        W47796  40.338  10.808  12.480
79379W        W47797  17.273  11.183   1.731
79380W        W47798  43.897   2.920  11.566
79381W        W47799  39.965   9.752  10.484
79382W        W47800  36.045   4.910  13.356
79383W        W47801  24.532  15.735  14.473
79384W        W47802  13.739  37.954   3.268
79385W        W47803  14.331  25.041   2.685
79386W        W47804  31.032  40.054  11.435
79387W        W47805   1.814  20.033   0.392
79388W        W47806  19.177  20.212  10.977
79389W        W47807   5.251  36.940  14.819
79390W        W47808   4.359  32.631  11.881
79391W        W47809  22.022  40.327   0.338
79392W        W47810  14.709  15.174  14.786
79393W        W47811  36.426  37.948  12.876
79394W        W47812  19.162  33.901  11.035
79395W        W47813  20.529  42.999  12.543
79396W        W47814   6.250  34.955   1.446
79397W        W47815  27.065  21.144  14.489
79398W        W47816  42.898  33.446   4.153
79399W        W47817  33.560  39.890   3.728
79400W        W47818   3.855   3.764  12.835
79401W        W47819  37.027  41.480   1.297
79402W        W47820  22.717  12.249  13.544
79403W        W47821  19.050  27.630  14.017
79404W        W47822  10.775  29.986   3.740
79405W        W47823   0.818  32.431  11.537
79406W        W47824  11.701  30.012   0.936
79407W        W47825  15.085  27.677  12.895
79408W        W47826   7.766   5.709  10.618
79409W        W47827   5.792  40.515  10.481
79410W        W47828  34.086  17.300   1.323
79411W        W47829  38.526  42.365   3.161
79412W        W47830  19.234  13.750   2.845
79413W        W47831  40.884  12.732   4.216
79414W        W47832  27.092  43.363  14.813
79415W        W47833  20.159  40.807  14.449
79416W        W47834   2.842  11.623  12.529
79417W        W47835  25.999  40.403  11.388
79418W        W47836  10.264  37.066   0.451
79419W        W47837   6.398   9.675  11.976
79420W        W47838  36.415  37.004   9.948
79421W        W47839  18.112   8.832   2.192
79422W        W47840  14.164  37.470   1.324
79423W        W47841  34.111  26.046   0.429
79424W        W47842   8.190  25.180  12.504
79425W        W47843   3.396  38.522  11.917
79426W        W47844  11.621  18.567  14.841
79427W        W47845  16.739  25.043  13.829
79428W        W47846   8.201  18.595   1.321
79429W        W47847  36.485  10.849  13.516
79430W        W47848  14.339  28.056  10.554
79431W        W47849  39.917   2.831  14.313
79432W        W47850  28.047  40.948   0.909
79433W        W47851  28.962  39.486  13.930
79434W        W47852   5.815  23.058  11.111
79435W        W47853  22.563  29.962   0.902
79436W        W47854  29.073   0.795  13.015
79437W        W47855  10.766   1.934   2.766
79438W        W47856  25.036  30.652   2.293
79439W        W47857  12.180  44.796   1.323
79440W        W47858   3.401  20.087  14.338
79441W        W47859  31.522  33.449   3.163
79442W        W47860   6.332   8.376  14.785
79443W        W47861  21.126   0.269   1.295
79444W        W47862  10.326  16.782   0.307
79445W        W47863  11.625  26.698  13.954
79446W        W47864  35.000   9.350  13.377
79447W        W47865  14.661  41.335  10.151
79448W        W47866  24.054   3.446   3.165
79449W        W47867  27.572  13.261  12.908
79450W        W47868  29.984  10.821   1.333
79451W        W47869  10.382  19.587   4.785
79452W        W47870  22.587  15.241   0.852
79453W        W47871   5.291   4.731  10.924
79454W        W47872  12.681  43.879  13.804
79455W        W47873   2.259  11.263  14.451
79456W        W47874  12.705   1.741   2.741
79457W        W47875  24.686   5.715  10.918
79458W        W47876  18.093   5.793   2.682
79459W        W47877   5.254  20.758   0.958
79460W        W47878   0.400   5.208  13.977
79461W        W47879  36.865  10.196  13.821
79462W        W47880  19.718  21.574   2.268
79463W        W47881  40.412  20.193   4.754
79464W        W47882  20.609   4.834   3.267
79465W        W47883   4.379  33.518   3.256
79466W        W47884  34.449  19.734  12.431
79467W        W47885  38.047  42.964   5.145
79468W        W47886  13.662  44.967   1.829
79469W        W47887  12.210  31.070  13.473
79470W        W47888  23.511  34.047   3.206
79471W        W47889   1.937  36.032  11.107
79472W        W47890  18.101  44.374   3.757
79473W        W47891  41.356  44.884  14.378
79474W        W47892  23.201  41.463   9.660
79475W        W47893  37.453  35.088  11.966
79476W        W47894  38.990  32.005  13.792
79477W        W47895  29.552  10.771  11.443
79478W        W47896  26.687  15.139   1.313
79479W        W47897   4.714  17.249  14.437
79480W        W47898  23.531   9.885  11.125
79481W        W47899  19.039  27.584   1.713
79482W        W47900  32.514   3.293   1.301
79483W        W47901  41.413  44.402   2.388
79484W        W47902  11.359  15.745   3.171
79485W        W47903  39.031  30.014   4.244
79486W        W47904  30.961   5.770   0.315
79487W        W47905  14.226  36.009  10.999
79488W        W47906  44.456   6.688  10.958
79489W        W47907   7.728  22.048  12.064
79490W        W47908  29.658   3.737   0.431
79491W        W47909  31.021  25.089   5.264
79492W        W47910  31.089  33.879   0.883
79493W        W47911  30.924  22.650  11.069
79494W        W47912  35.366  40.429  11.082
79495W        W47913  25.999  27.194  11.372
79496W        W47914  11.756   6.758   2.824
79497W        W47915   8.352  42.816   0.809
79498W        W47916  25.487  29.024  13.831
79499W        W47917  41.501  31.036  13.314
79500W        W47918   3.378  12.646  12.473
79501W        W47919  23.501  18.752   4.200
79502W        W47920  37.029   0.446   1.725
79503W        W47921  21.524  19.088   2.340
79504W        W47922   6.677  39.549   4.200
79505W        W47923  28.589  23.657   2.748
79506W        W47924   1.845   5.424   4.246
79507W        W47925  31.558  42.848  12.851
79508W        W47926  22.153  28.053   0.464
79509W        W47927  40.490  12.342   4.813
79510W        W47928  23.011   6.767   2.840
79511W        W47929  22.222  41.025   5.717
79512W        W47930  19.554  26.101  10.927
79513W        W47931   0.414  26.618   1.761
79514W        W47932  25.644  32.036  11.390
79515W        W47933   5.814  28.594  14.828
79516W        W47934  33.571   9.156   2.675
79517W        W47935  39.031  27.093   0.397
79518W        W47936  24.635   9.265  14.901
79519W        W47937  33.007  33.115   0.359
79520W        W47938  37.938   1.296   1.312
79521W        W47939  37.068  28.615   2.257
79522W        W47940  20.228  37.078  13.443
79523W        W47941  36.882   7.183   4.819
79524W        W47942   9.378   9.324  10.937
79525W        W47943  42.503  35.939  13.023
79526W        W47944  33.035  38.847   4.649
79527W        W47945  34.369  15.139  10.501
79528W        W47946  10.855  42.030  11.472
79529W        W47947  27.146  34.539   1.908
79530W        W47948  17.725  26.575   1.316
79531W        W47949  11.249   7.400   2.305
79532W        W47950  23.146  32.976  12.576
79533W        W47951   4.932  27.490  14.363
79534W        W47952   1.737  34.885  11.032
79535W        W47953   2.966  44.942  10.595
79536W        W47954  42.438   4.363   2.873
79537W        W47955  18.073  21.588   1.214
79538W        W47956  26.176   8.728   0.343
79539W        W47957  24.589  11.271  14.943
79540W        W47958  33.617  11.304   3.335
79541W        W47959  19.228   2.921  14.278
79542W        W47960  22.012  19.136  13.037
79543W        W47961   9.255  11.792   3.754
79544W        W47962   8.848  12.818  11.913
79545W        W47963  27.024  36.899  14.790
79546W        W47964   8.298  13.811   0.255
79547W        W47965  30.491   6.746  14.006
79548W        W47966  40.305  10.157  12.058
79549W        W47967   1.272  30.042   4.198
79550W        W47968   9.707  28.050   2.762
79551W        W47969  26.042  22.603   4.755
79552W        W47970  29.456  18.738   4.160
79553W        W47971  34.886  43.976   2.863
79554W        W47972  37.442   4.274   2.783
79555W        W47973  29.962  40.365  12.436
79556W        W47974  18.790  11.845   1.901
79557W        W47975  35.380  14.611  14.437
79558W        W47976  43.362  17.135  10.905
79559W        W47977   6.281   1.435   1.331
79560W        W47978  23.584  33.533   0.423
79561W        W47979  12.323  28.013  13.037
79562W        W47980  10.196  19.206   3.195
79563W        W47981   3.937  38.879  10.103
79564W        W47982   4.782  25.476  11.056
79565W        W47983  44.987  42.983  14.880
79566W        W47984  15.157   1.957  11.956
79567W        W47985   4.215  10.848   3.785
79568W        W47986   8.765  16.234  13.014
79569W        W47987   7.712  26.085   4.728
79570W        W47988  23.682   7.709  14.347
79571W        W47989  16.251  40.384   1.844
79572W        W47990  36.879  14.717  11.018
79573W        W47991  31.948  37.876   1.765
79574W        W47992  17.233  25.078   0.728
79575W        W47993  19.658   3.216  13.500
79576W        W47994  40.852  14.713  11.017
79577W        W47995  39.905   1.461  11.524
79578W        W47996  21.614  42.845   1.416
79579W        W47997  14.739  29.954   2.891
79580W        W47998  13.705  10.203  13.507
79581W        W47999  32.577  15.577   3.761
79582W        W48000   4.319  42.813   4.668
79583W        W48001  41.528  30.610  14.371
79584W        W48002  10.800  30.020  10.619
79585W        W48003  42.317  14.717   9.974
79586W        W48004  24.165  12.637   0.738
79587W        W48005   1.852  18.762  13.379
79588W        W48006   1.911  25.497  12.079
79589W        W48007  27.562  17.281   0.248
79590W        W48008   6.923  37.890   2.885
79591W        W48009  24.192  29.633   4.732
79592W        W48010  41.388   9.154  10.466
79593W        W48011  40.049  26.190  11.597
79594W        W48012  26.196  17.663  11.938
79595W        W48013  36.371  34.414  10.106
79596W        W48014  28.435  35.931   0.307
79597W        W48015  32.409  26.152   1.901
79598W        W48016  16.159  33.558   2.303
79599W        W48017  35.078  42.797  14.996
79600W        W48018  26.520  19.127   3.208
79601W        W48019  30.124  17.171   4.685
79602W        W48020   2.818  40.905  12.891
79603W        W48021  24.685   1.297   2.259
79604W        W48022  28.564  14.190  14.933
79605W        W48023   8.293  25.123  14.933
79606W        W48024   7.380  10.647  11.420
79607W        W48025   0.861  25.612   4.175
79608W        W48026   5.735  34.605  10.527
79609W        W48027  19.606  27.065   0.730
79610W        W48028  35.573  17.579   4.233
79611W        W48029  32.047   2.756  10.566
79612W        W48030  43.831  14.596  14.841
79613W        W48031  42.401  13.681  10.538
79614W        W48032  13.307   5.697   4.124
79615W        W48033  27.169  43.414   1.212
79616W        W48034  13.145   3.420  14.445
79617W        W48035  44.300  11.343   9.966
79618W        W48036  20.549  10.290  11.458
79619W        W48037   9.204  23.986   0.342
79620W        W48038  13.245   5.894   3.629
79621W        W48039  24.710  44.929   2.234
79622W        W48040  38.352   5.751   3.644
79623W        W48041  40.346  31.966   9.984
79624W        W48042  41.394  43.828   0.276
79625W        W48043  19.089   8.828   3.259
79626W        W48044  20.694  11.312  10.983
79627W        W48045   9.335   8.746  13.440
79628W        W48046  28.027  34.881   0.871
79629W        W48047  28.475  17.243   2.676
79630W        W48048  33.502  15.175  13.932
79631W        W48049  30.049  19.217   0.254
79632W        W48050  28.032  39.909  13.055
79633W        W48051  10.823  31.094   0.422
79634W        W48052  22.027  38.367   0.764
79635W        W48053  42.426  10.175  11.944
79636W        W48054   4.395  11.868   0.407
79637W        W48055  31.521  16.273  10.556
79638W        W48056  15.307  39.965  13.897
79639W        W48057  36.068  39.018   2.411
79640W        W48058  41.021  42.384   3.322
79641W        W48059  13.608  41.958   4.120
79642W        W48060  36.475  19.245  12.454
79643W        W48061  12.351  42.423  11.927
79644W        W48062  22.134  25.169   5.805
79645W        W48063  41.842  35.103   4.259
79646W        W48064  17.193  30.111   3.751
79647W        W48065  27.056  11.131   1.405
79648W        W48066   6.779  38.076  14.881
79649W        W48067  22.533  22.619  12.393
79650W        W48068  42.320   2.368   3.838
79651W        W48069  43.919  37.947  11.033
79652W        W48070  42.840  42.782  12.460
79653W        W48071  11.236  14.196  12.402
79654W        W48072  39.365  41.847   4.774
79655W        W48073  18.107  29.626   0.375
79656W        W48074  19.109  24.222  12.041
79657W        W48075   1.829  11.763  11.959
79658W        W48076   7.363  31.978   1.327
79659W        W48077   8.829   7.220   1.357
79660W        W48078  27.508  13.799   2.340
79661W        W48079  42.968  19.173   4.259
79662W        W48080  11.288   5.321   4.217
79663W        W48081  11.738   8.178  10.440
79664W        W48082  35.926  36.039   4.353
79665W        W48083  31.420  27.659   2.842
79666W        W48084  19.077  39.321  14.028
79667W        W48085  43.021   5.765  14.321
79668W        W48086  42.989  25.091  10.610
79669W        W48087  11.281  22.538  11.017
79670W        W48088  17.183  17.278   9.936
79671W        W48089  38.414  26.663   0.321
79672W        W48090   5.433  23.135  14.930
79673W        W48091  37.464  16.127   2.327
79674W        W48092  39.356   2.316  11.106
79675W        W48093  21.587  41.820   2.825
79676W        W48094   4.279  44.885  10.519
79677W        W48095   4.715  32.044   1.443
79678W        W48096  29.535  42.404   0.897
79679W        W48097  32.021  19.067   1.838
79680W        W48098  36.921   6.296  10.989
79681W        W48099  38.465  38.932  10.606
79682W        W48100  34.556  12.621   2.309
79683W        W48101   9.828  17.620   4.262
79684W        W48102  19.267  24.189  14.826
79685W        W48103  18.283  16.803  11.428
79686W        W48104  37.860   0.313  10.911
79687W        W48105  13.738  36.589  10.496
79688W        W48106   1.412  41.415   4.247
79689W        W48107  22.143  10.263   1.291
79690W        W48108  23.119  27.029   2.801
79691W        W48109  23.649   9.734   3.676
79692W        W48110  36.479  44.957  14.467
79693W        W48111   7.363  10.184  13.938
79694W        W48112  18.077  41.423   1.322
79695W        W48113   6.742  37.538  12.890
79696W        W48114  41.907  31.605  14.351
79697W        W48115  18.249  26.675  12.847
79698W        W48116  20.710  44.865  11.492
79699W        W48117  27.553  35.370  13.327
79700W        W48118  20.058  38.000  13.988
79701W        W48119  43.964  11.796  11.911
79702W        W48120  15.181  25.519   2.837
79703W        W48121  27.611  17.556  10.607
79704W        W48122  35.506  30.659   1.349
79705W        W48123  30.558  30.436   1.281
79706W        W48124   3.723   9.316  13.805
79707W        W48125  34.411  41.534  11.942
79708W        W48126   8.389   3.753  14.986
79709W        W48127  16.240   2.312   3.167
79710W        W48128  38.854  11.756   3.791
79711W        W48129  42.021   0.296  12.357
79712W        W48130  20.537  18.551  11.055
79713W        W48131  12.763  29.012   2.330
79714W        W48132  15.658  30.973  14.336
79715W        W48133   8.697  41.384  13.919
79716W        W48134  29.458  13.783  13.863
79717W        W48135   9.651  12.177  14.330
79718W        W48136  11.188  19.206   3.697
79719W        W48137   9.155  41.953  13.923
79720W        W48138  42.335  23.710  10.592
79721W        W48139   5.378  24.706   1.381
79722W        W48140   4.348  36.544   1.397
79723W        W48141  10.348  10.233   1.713
79724W        W48142  23.593  36.582  11.588
79725W        W48143  25.089  27.474  12.008
79726W        W48144  27.532  30.924   0.831
79727W        W48145  37.340   4.409   2.364
79728W        W48146  17.249   3.391   2.828
79729W        W48147  16.270   0.287   3.702
79730W        W48148  34.602   4.411  10.499
79731W        W48149  44.766   8.373   4.349
79732W        W48150  40.332  15.083  14.424
79733W        W48151   5.879  29.567   0.876
79734W        W48152  23.018  28.099  12.398
79735W        W48153   1.881  17.753  13.847
79736W        W48154  16.257  33.973  14.373
79737W        W48155  14.813  38.014  14.999
79738W        W48156  41.987   0.917   2.794
79739W        W48157  39.559  36.552  13.457
79740W        W48158  35.509   8.161  11.546
79741W        W48159  16.581   5.878  12.545
79742W        W48160  10.181   8.755   1.412
79743W        W48161  24.174   7.222   4.157
79744W        W48162   3.951  38.880  13.026
79745W        W48163  20.060  29.143   3.351
79746W        W48164  16.645   7.782  10.962
79747W        W48165   5.817   6.395  14.352
79748W        W48166  21.166  19.068  14.329
79749W        W48167  12.287   9.692   1.276
79750W        W48168  41.937   7.198   4.641
79751W        W48169   4.840   7.899   0.336
79752W        W48170  14.251  37.910  12.465
79753W        W48171  16.225  41.042  10.963
79754W        W48172  11.334  35.016  14.439
79755W        W48173   5.738  14.796   2.673
79756W        W48174  30.625   5.207  14.962
79757W        W48175  30.063   2.950   0.449
79758W        W48176  41.828   6.711  10.901
79759W        W48177  35.369   6.804   4.296
79760W        W48178   9.879  38.565   3.263
79761W        W48179   4.859  44.264  11.437
79762W        W48180  22.014  16.179   1.848
79763W        W48181   9.238   9.375   0.792
79764W        W48182  14.258   7.379  12.871
79765W        W48183  16.748   4.422  12.528
79766W        W48184  23.097  34.873   3.157
79767W        W48185  33.455  30.066   3.829
79768W        W48186   7.771   1.963   1.270
79769W        W48187  44.930  23.652  14.783
79770W        W48188  42.445  40.530   1.413
79771W        W48189  34.601  16.768  12.035
79772W        W48190  11.269  16.599  14.369
79773W        W48191  41.967  11.267   4.213
79774W        W48192  21.652  37.034  13.805
79775W        W48193  29.936  43.778  13.406
79776W        W48194   1.885  29.662  13.497
79777W        W48195  22.666   9.189   2.384
79778W        W48196   0.902  26.002   4.154
79779W        W48197  28.944   0.891   2.790
79780W        W48198   4.398   3.745  11.920
79781W        W48199  42.879  40.854   4.351
79782W        W48200  38.401  42.815   0.885
79783W        W48201  31.545  23.205  13.966
79784W        W48202  20.159  14.237  11.091
79785W        W48203  40.932  10.286   0.936
79786W        W48204  19.260  29.467   3.204
79787W        W48205  12.802  17.064   2.205
79788W        W48206  27.692  44.483  11.422
79789W        W48207  29.444  42.459  11.510
79790W        W48208  14.590  21.222  14.784
79791W        W48209   0.919  19.731   3.263
79792W        W48210  26.076  21.113   3.824
79793W        W48211   6.812  21.731  11.912
79794W        W48212  27.970  37.863   4.241
79795W        W48213   6.764  14.254   2.836
79796W        W48214  42.339  36.975   2.754
79797W        W48215  28.492  42.875   2.691
79798W        W48216  37.043  29.579   0.306
79799W        W48217  43.841   4.748  12.908
79800W        W48218  35.556  42.317  12.504
79801W        W48219   1.475  13.772  14.350
79802W        W48220  44.343  30.964  13.835
79803W        W48221  14.811  18.233  14.882
79804W        W48222  15.217  13.717   2.268
79805W        W48223  38.034   4.730   2.885
79806W        W48224  17.231   2.736   4.818
79807W        W48225   9.387  25.102   2.393
79808W        W48226   6.837  39.048  12.542
79809W        W48227  33.447  21.520  12.858
79810W        W48228  21.578  35.971   1.433
79811W        W48229  25.109  21.046   3.357
79812W        W48230  25.488  33.530   5.189
79813W        W48231  44.480  23.705   2.201
79814W        W48232  24.975  19.231   0.329
79815W        W48233   9.344   0.982  12.879
79816W        W48234   5.194  16.109   1.210
79817W        W48235  14.317  21.152   2.793
79818W        W48236  34.499  23.615   3.831
79819W        W48237  43.316   4.811  13.821
79820W        W48238  35.072  37.004   0.466
79821W        W48239   6.272  19.663  10.069
79822W        W48240  22.716  36.447   4.262
79823W        W48241  26.193  24.713   1.241
79824W        W48242  10.706   2.955  12.419
79825W        W48243  24.182  10.689  10.443
79826W        W48244  11.663  42.861  11.002
79827W        W48245  39.559   5.913   1.396
79828W        W48246   5.365   9.345   4.287
79829W        W48247  27.103  17.275  14.491
79830W        W48248  26.056   8.727  14.982
79831W        W48249   4.234   2.891   1.333
79832W        W48250   4.860  24.022   1.324
79833W        W48251  19.162   2.856   3.357
79834W        W48252   5.320   8.674  10.913
79835W        W48253  18.051  24.528   2.719
79836W        W48254  20.643   5.724   3.639
79837W        W48255  20.262   3.862   3.674
79838W        W48256  21.679  32.572   2.694
79839W        W48257   2.803  12.221  11.439
79840W        W48258  19.206  40.969   3.664
79841W        W48259  34.518   0.763  12.838
79842W        W48260  18.693  42.337  11.974
79843W        W48261  28.165   1.772   5.137
79844W        W48262  33.015  44.398   0.407
79845W        W48263  44.359   4.339   4.833
79846W        W48264   0.475  16.163   2.728
79847W        W48265  16.163  19.211  10.569
79848W        W48266  27.085   5.774   3.365
79849W        W48267  12.832   4.317  11.976
79850W        W48268  38.330  32.614  10.596
79851W        W48269  24.001   1.765   3.264
79852W        W48270  15.759   8.772   1.928
79853W        W48271  44.341  26.094   4.273
79854W        W48272  33.054  28.025   2.771
79855W        W48273  13.341  17.127  14.769
79856W        W48274  41.031   4.384   0.274
79857W        W48275  31.632  37.352  14.331
79858W        W48276  36.385  26.073  14.396
79859W        W48277  14.707  23.528  13.914
79860W        W48278   8.345  23.723  11.063
79861W        W48279  32.451  41.980   2.279
79862W        W48280  21.708  33.399   0.248
79863W        W48281  34.975  32.027  13.465
79864W        W48282   6.278   7.192   2.269
79865W        W48283  14.142  39.921   4.707
79866W        W48284  25.027  32.630   0.967
79867W        W48285  19.688  10.186   3.663
79868W        W48286  27.630  19.770  10.549
79869W        W48287  27.018  38.822   3.719
79870W        W48288   2.962  31.985   3.275
79871W        W48289   3.424  16.760  12.026
79872W        W48290  12.119  23.677   1.286
79873W        W48291  30.958  25.672  11.400
79874W        W48292   7.860  33.446  14.876
79875W        W48293   8.306  31.636  12.404
79876W        W48294  33.443  18.079  10.934
79877W        W48295   0.752  34.909  12.845
79878W        W48296  26.059  37.941  14.480
79879W        W48297   8.795  37.435   1.391
79880W        W48298  22.728  43.976   4.224
79881W        W48299   9.205  37.914   3.696
79882W        W48300   7.812  39.929   1.355
79883W        W48301  19.170  39.337  11.879
79884W        W48302  32.592  33.418  11.543
79885W        W48303  12.172  38.567  13.353
79886W        W48304  14.655  26.071  13.884
79887W        W48305  34.423   6.740   0.296
79888W        W48306  26.147  26.587  12.437
79889W        W48307  39.984  30.658   0.867
79890W        W48308  43.439   6.228  13.835
79891W        W48309  26.193  44.346   3.290
79892W        W48310  39.982  38.389  14.514
79893W        W48311  12.168   3.922  14.886
79894W        W48312  42.023   3.906  11.511
79895W        W48313  25.096  11.728   4.832
79896W        W48314  28.036  11.162   3.195
79897W        W48315  23.721  34.110  12.385
79898W        W48316  13.715  43.287   1.372
79899W        W48317  21.089  10.811   0.845
79900W        W48318  41.509  43.022  10.075
79901W        W48319  28.437  30.014   2.375
79902W        W48320  37.840   9.775   3.159
79903W        W48321  32.132  24.120   4.682
79904W        W48322  28.971  22.729   4.148
79905W        W48323  12.230  17.761  14.976
79906W        W48324  36.874  27.556  12.027
79907W        W48325   3.430   8.162  13.810
79908W        W48326   2.375  44.385   9.924
79909W        W48327  24.580   0.461   2.391
79910W        W48328  42.921  27.016  11.397
79911W        W48329  28.493  33.123   1.227
79912W        W48330  26.626  41.882  11.880
79913W        W48331  42.830  39.381   9.980
79914W        W48332  27.111  31.051  12.519
79915W        W48333  40.857  43.920  13.875
79916W        W48334  32.538   8.371   1.805
79917W        W48335  40.042  34.042   4.674
79918W        W48336  16.739   2.381  11.866
79919W        W48337   6.273  15.214  14.796
79920W        W48338  39.879   7.358   3.825
79921W        W48339  18.735  16.809   3.300
79922W        W48340   4.808  39.378  11.051
79923W        W48341  24.035  21.513  14.501
79924W        W48342  34.609  20.169   3.708
79925W        W48343  33.895   7.700   3.168
79926W        W48344  11.862  31.028  14.764
79927W        W48345  16.718  41.951   1.335
79928W        W48346   2.259  41.861  14.516
79929W        W48347  20.644  33.486   4.717
79930W        W48348  24.182  29.474   5.320
79931W        W48349  25.565  14.755  13.046
79932W        W48350  26.690  43.907  11.964
79933W        W48351  28.044  35.551  14.429
79934W        W48352  15.160  13.109  14.325
79935W        W48353  32.400  14.226   0.832
79936W        W48354   5.702  15.156   3.769
79937W        W48355  11.792  29.978  11.869
79938W        W48356  13.724  26.620   1.283
79939W        W48357   0.363  28.550   4.652
79940W        W48358  39.328  28.988   2.252
79941W        W48359  43.983  29.576  12.885
79942W        W48360  15.088  39.475  14.965
79943W        W48361  44.985  10.171   4.119
79944W        W48362  14.773  28.669   2.703
79945W        W48363  25.651  27.555   2.307
79946W        W48364   9.652  31.470  10.609
79947W        W48365  14.761  18.064  11.386
79948W        W48366  22.662  30.468   0.444
79949W        W48367  20.168   6.690   1.918
79950W        W48368  21.102   6.769  11.116
79951W        W48369  16.290   3.250   3.366
79952W        W48370  26.618  20.145   3.214
79953W        W48371  15.688  30.113  10.411
79954W        W48372  26.966  43.477  13.400
79955W        W48373  15.641  36.844   3.765
79956W        W48374   7.783   8.748  12.564
79957W        W48375   4.733  16.163   2.737
79958W        W48376  40.940  15.713  12.978
79959W        W48377   5.776  12.328  14.436
79960W        W48378  16.141  16.760   4.804
79961W        W48379  43.362  16.637  11.097
79962W        W48380  25.487  11.173   4.801
79963W        W48381  25.520   3.227  11.081
79964W        W48382   1.804  18.268   1.361
79965W        W48383  12.284  27.540  11.494
79966W        W48384   4.776  21.024  12.090
79967W        W48385  38.411  27.519   3.644
79968W        W48386  26.636  15.632   3.644
79969W        W48387  44.889   4.703   4.146
79970W        W48388  25.707  29.459  11.024
79971W        W48389  29.667  36.072  12.361
79972W        W48390  41.449  44.399  12.425
79973W        W48391  22.543  41.500  13.988
79974W        W48392  27.143  21.110  11.539
79975W        W48393  15.698   4.269  11.417
79976W        W48394  36.503   1.344   3.374
79977W        W48395  29.956  12.822   3.789
79978W        W48396  14.131  18.555   0.351
79979W        W48397   4.836  44.433   4.218
79980W        W48398   5.217   8.854   1.885
79981W        W48399  42.316   6.755   3.662
79982W        W48400  35.522  33.391   2.262
79983W        W48401   1.299  15.638  14.958
79984W        W48402  43.429  26.177  12.912
79985W        W48403  14.737   4.906   3.160
79986W        W48404  23.691  14.247   1.906
79987W        W48405  33.398  25.018   2.407
79988W        W48406  27.977   2.358   0.800
79989W        W48407  36.556  37.477   0.812
79990W        W48408  33.992  31.018   4.799
79991W        W48409   4.909  35.067   3.687
79992W        W48410  33.425  11.695   4.642
79993W        W48411  13.187  22.721   4.669
79994W        W48412  40.853  11.134   4.338
79995W        W48413  44.446  38.861  11.903
79996W        W48414   5.703   9.273   4.673
79997W        W48415  24.578  41.880   1.852
79998W        W48416  13.179  30.996   1.312
79999W        W48417  26.185  18.746  14.338
80000W        W48418  15.100  10.818   3.832
80001W        W48419  27.998  36.579  10.637
80002W        W48420   3.754  14.098   0.799
80003W        W48421  14.287  36.923  10.938
80004W        W48422  17.290   9.852   0.881
80005W        W48423  27.532  15.328  11.601
80006W        W48424   2.424   7.256  10.405
80007W        W48425  18.285  44.794  11.985
80008W        W48426  19.644  30.078   3.756
80009W        W48427  26.183  39.421   0.284
80010W        W48428  18.194  42.351   1.812
80011W        W48429  10.753  33.887  12.051
80012W        W48430  14.723  36.403   3.259
80013W        W48431  21.730   2.242   0.346
80014W        W48432  15.258  44.945  14.012
80015W        W48433  33.480   1.432   2.366
80016W        W48434  14.737   4.367   2.194
80017W        W48435  36.027  42.462  13.460
80018W        W48436  11.207  35.997   1.220
80019W        W48437   8.827  37.549  14.863
80020W        W48438  28.460  31.512   4.609
80021W        W48439  13.610  19.765   0.810
80022W        W48440  26.664  34.923   1.369
80023W        W48441  43.863  41.829   4.221
80024W        W48442   9.827  18.714  10.420
80025W        W48443  39.466  38.402  11.972
80026W        W48444  22.609  12.685   0.822
80027W        W48445  34.029  10.141   0.337
80028W        W48446  43.364  12.753   4.244
80029W        W48447  39.482  38.514   3.246
80030W        W48448  23.155  15.261   1.731
80031W        W48449  40.422   6.202  14.298
80032W        W48450  38.977  44.965   2.665
80033W        W48451  27.645  25.974   2.817
80034W        W48452  37.997  42.311   0.310
80035W        W48453  27.162  29.138   2.717
80036W        W48454  36.550  24.517   0.751
80037W        W48455   3.715  14.711  10.986
80038W        W48456  40.415  37.952   4.290
80039W        W48457  15.739  44.503   1.268
80040W        W48458  13.254  10.333  10.615
80041W        W48459  32.536  17.091  10.545
80042W        W48460  31.054  44.484  10.078
80043W        W48461  37.448  15.614   0.280
80044W        W48462  26.173   0.380  11.102
80045W        W48463  26.074  31.900   3.792
80046W        W48464  15.744  24.229  11.379
80047W        W48465  17.239  27.604  11.566
80048W        W48466  25.107  20.175  13.540
80049W        W48467   1.321  40.942   0.460
80050W        W48468  33.473  18.619   2.365
80051W        W48469  40.800  35.385   1.417
80052W        W48470  21.555  32.992  10.982
80053W        W48471  38.390  34.411   0.889
80054W        W48472  42.500  31.476   0.446
80055W        W48473   5.721   1.926  14.292
80056W        W48474  23.559   4.888   4.634
80057W        W48475  37.015  34.505   2.195
80058W        W48476   2.380  16.661  11.938
80059W        W48477  25.004  33.570  13.517
80060W        W48478  39.473  15.185  13.362
80061W        W48479  35.394  35.988   5.148
80062W        W48480  38.875   6.679  10.472
80063W        W48481  42.823  43.922   2.882
80064W        W48482  20.099  17.196  10.127
80065W        W48483  43.996   6.828  14.305
80066W        W48484   7.841   7.205   0.382
80067W        W48485  38.553  17.677   2.312
80068W        W48486  32.485  11.370   3.339
80069W        W48487   6.698  13.314   4.647
80070W        W48488  33.586   7.800   4.195
80071W        W48489  14.339  43.808   2.300
80072W        W48490  22.191  17.612   2.327
80073W        W48491  33.489  42.474   4.221
80074W        W48492   5.302  12.792   0.253
80075W        W48493  15.312  39.859   1.930
80076W        W48494   9.324  38.027  10.587
80077W        W48495  21.186  25.615   2.819
80078W        W48496  32.998  41.429  13.922
80079W        W48497  13.167   3.389  13.351
80080W        W48498  22.085  31.084   4.790
80081W        W48499   7.225  31.905  10.488
80082W        W48500  17.637  14.591  14.760
80083W        W48501   4.885   2.465   0.364
80084W        W48502  43.318   8.840   0.434
80085W        W48503  32.973   6.892  11.978
80086W        W48504  34.942  44.978  12.415
80087W        W48505  39.952   9.277  11.863
80088W        W48506   7.290  24.211  10.532
80089W        W48507  39.368  32.501  10.493
80090W        W48508   8.171  16.298   4.640
80091W        W48509  29.011  11.201   4.783
80092W        W48510  31.555  11.371   1.364
80093W        W48511  20.231  44.919  14.806
80094W        W48512  44.462   8.378   0.891
80095W        W48513  16.621  17.146   0.951
80096W        W48514  14.143  12.677  11.540
80097W        W48515   0.313  21.225   4.716
80098W        W48516  11.185  21.224  10.443
80099W        W48517  14.653  18.787  13.418
80100W        W48518  13.286  17.647   3.329
80101W        W48519  39.381  32.519  12.496
80102W        W48520   0.864  23.513  10.920
80103W        W48521  17.689   7.183  13.485
80104W        W48522  27.640  22.240  13.442
80105W        W48523   1.368  21.243  14.020
80106W        W48524   7.791  21.176   1.426
80107W        W48525   6.906  29.949   4.713
80108W        W48526  21.041  42.463  12.359
80109W        W48527  44.336  29.493   2.901
80110W        W48528   1.446  27.082   4.272
80111W        W48529  35.922  37.400  12.454
80112W        W48530  27.501  17.236  12.077
80113W        W48531  31.515  20.621  13.038
80114W        W48532   3.246  38.377  10.951
80115W        W48533  38.963  40.364  10.956
80116W        W48534  12.614  39.500   2.891
80117W        W48535  16.224   0.266  12.885
80118W        W48536  29.442  27.131   3.803
80119W        W48537  33.513   7.272  10.899
80120W        W48538   3.292  12.680   3.671
80121W        W48539  29.128  24.145  10.505
80122W        W48540  39.897  34.519  14.773
80123W        W48541  41.457  17.607  13.831
80124W        W48542   4.843  28.518   5.231
80125W        W48543  43.485   7.199  12.029
80126W        W48544  17.269  32.563   3.164
80127W        W48545  24.689  26.478   3.701
80128W        W48546   2.842   9.736   1.428
80129W        W48547  22.720  42.524   2.314
80130W        W48548  11.328  29.509   3.787
80131W        W48549   4.823   4.251   2.269
80132W        W48550  31.482  40.453   2.822
80133W        W48551   5.303  23.143  11.379
80134W        W48552  14.215  15.811  14.937
80135W        W48553  13.263  32.112   2.305
80136W        W48554  36.437   7.747  13.924
80137W        W48555  41.463   3.373   2.896
80138W        W48556   9.297   5.912  11.056
80139W        W48557   2.285  24.150   3.385
80140W        W48558  28.935   7.765   0.891
80141W        W48559   8.728  33.524   3.824
80142W        W48560  28.632  40.017   0.414
80143W        W48561  39.000  42.808   5.155
80144W        W48562  28.946  24.210  14.322
80145W        W48563   1.405   9.652  14.938
80146W        W48564  34.975   8.900   3.685
80147W        W48565  15.103  32.952  11.456
80148W        W48566  13.695  38.563   3.802
80149W        W48567  10.832   5.381  12.349
80150W        W48568  15.240  28.674  10.413
80151W        W48569  19.580  19.053  10.951
80152W        W48570   9.222  42.830  14.312
80153W        W48571  41.381  16.268  11.111
80154W        W48572  13.190  40.814  12.414
80155W        W48573  11.310  33.888  11.556
80156W        W48574   9.801  34.090  14.428
80157W        W48575  41.487   6.242  12.471
80158W        W48576  27.002  30.651  11.421
80159W        W48577  40.511   9.349  13.364
80160W        W48578  23.491  31.582   2.778
80161W        W48579   9.828  31.581  11.481
80162W        W48580   7.364  21.132   3.273
80163W        W48581   6.396  12.715   0.267
80164W        W48582  41.853  39.978   2.757
80165W        W48583  18.630  36.544  10.998
80166W        W48584  23.101  15.087  14.319
80167W        W48585  42.475  20.767  12.492
80168W        W48586  22.233   3.386   4.619
80169W        W48587   7.189   3.859   3.703
80170W        W48588   1.462  24.976  12.404
80171W        W48589  22.714  21.646  12.886
80172W        W48590  32.451  25.684   3.738
80173W        W48591  14.139  23.561  14.375
80174W        W48592  36.526   7.357  13.412
80175W        W48593  41.937  27.581  13.969
80176W        W48594  39.355   6.266   3.762
80177W        W48595  21.603  34.066   4.136
80178W        W48596  12.281  39.522  10.602
80179W        W48597   9.220   5.369  14.468
80180W        W48598  43.449  42.451  11.978
80181W        W48599  36.993  18.680  11.579
80182W        W48600  39.988  19.638  12.438
80183W        W48601  41.325  23.057  11.431
80184W        W48602   5.697  39.871  12.092
80185W        W48603  44.807   4.937  14.306
80186W        W48604  19.132   4.398  13.342
80187W        W48605  38.488  32.929   1.830
80188W        W48606  38.518  24.027  11.434
80189W        W48607  17.256  42.986  14.393
80190W        W48608  17.301  32.886   1.306
80191W        W48609   6.745   8.291   0.439
80192W        W48610  11.631   7.372   3.810
80193W        W48611  14.726  17.658  14.886
80194W        W48612  13.658  20.150  14.463
80195W        W48613   7.232  36.395   4.653
80196W        W48614   6.218  41.808  13.009
80197W        W48615  14.152   7.172  13.877
80198W        W48616  20.629   8.279  11.967
80199W        W48617   1.903  36.556   1.226
80200W        W48618  20.651  40.948  11.879
80201W        W48619  33.561  29.020  13.436
80202W        W48620   5.220  15.606  11.464
80203W        W48621   5.344   5.335   3.174
80204W        W48622  15.632  26.188   4.795
80205W        W48623  13.739  44.884   0.750
80206W        W48624   3.899  22.027   2.301
80207W        W48625  43.949  10.208  10.485
80208W        W48626  28.664  22.551  11.524
80209W        W48627  27.666  32.479   1.817
80210W        W48628   8.383  24.212  10.538
80211W        W48629  21.234   2.786   2.271
80212W        W48630  33.404  25.495   0.780
80213W        W48631  42.778  37.899  10.986
80214W        W48632  24.509  29.010   0.251
80215W        W48633  12.748   3.245   1.839
80216W        W48634  13.329   4.924   3.277
80217W        W48635  36.030  35.447   2.723
80218W        W48636  10.273  20.617  11.389
80219W        W48637  43.853   5.846  11.971
80220W        W48638  34.900   7.202  14.312
80221W        W48639  13.205  24.094   2.255
80222W        W48640  20.036  31.505  11.876
80223W        W48641  26.576  24.231   2.667
80224W        W48642  41.515  27.048  14.359
80225W        W48643  19.736   9.310   4.243
80226W        W48644  11.366   9.815   3.259
80227W        W48645  17.248  34.953  10.526
80228W        W48646  30.091  19.720   4.191
80229W        W48647  34.437  14.280  11.875
80230W        W48648  13.811   9.271  11.453
80231W        W48649  39.060  21.513  10.932
80232W        W48650  23.097  39.498  13.439
80233W        W48651   8.656  21.193  13.935
80234W        W48652  26.060  30.156   1.312
80235W        W48653  33.113  37.562   4.164
80236W        W48654  32.918  16.588   2.680
80237W        W48655  15.620   9.873   0.303
80238W        W48656  40.453  28.489  13.890
80239W        W48657   7.385  15.750   4.228
80240W        W48658   1.238  18.255  13.871
80241W        W48659  34.447  39.455  11.965
80242W        W48660  12.216  24.654  12.846
80243W        W48661   3.249   9.186   2.758
80244W        W48662  42.526   2.925   2.291
80245W        W48663  30.917  26.088   4.286
80246W        W48664  33.400  11.278   4.349
80247W        W48665  44.401   4.720  13.794
80248W        W48666  30.478   1.751   0.745
80249W        W48667   1.743  14.164  11.374
80250W        W48668  14.830  20.183   1.252
80251W        W48669  11.707  43.988  12.931
80252W        W48670   3.715   8.204   1.922
80253W        W48671  37.419   8.750   4.312
80254W        W48672  37.929   6.866   1.293
80255W        W48673  15.247  44.916   4.637
80256W        W48674  16.625  34.090   3.690
80257W        W48675  38.003  44.395   2.326
80258W        W48676   1.312  20.145  10.998
80259W        W48677   1.417  36.919  14.991
80260W        W48678  35.388  41.834   4.770
80261W        W48679  10.380   3.396   1.263
80262W        W48680  15.219  19.732   3.215
80263W        W48681   6.881  22.130   2.790
80264W        W48682   9.283   9.866  13.310
80265W        W48683   4.442  38.975  13.532
80266W        W48684   3.862   7.403   1.776
80267W        W48685  10.263   3.235  14.367
80268W        W48686  43.304  34.384  11.049
80269W        W48687  34.598   5.886   1.248
80270W        W48688  37.844  39.051   0.431
80271W        W48689   0.778  24.130  13.058
80272W        W48690  32.455  28.127  11.528
80273W        W48691  31.582  29.032  10.546
80274W        W48692  32.462   7.354  14.423
80275W        W48693  24.627  10.351   2.727
80276W        W48694  15.130   6.359  10.458
80277W        W48695  21.206  40.460   3.360
80278W        W48696  19.570   1.778  12.518
80279W        W48697  27.654  36.426   3.174
80280W        W48698  28.979   1.858   3.680
80281W        W48699  44.977  25.531  14.948
80282W        W48700  27.552  26.984  13.821
80283W        W48701  39.055  17.209   2.665
80284W        W48702  29.140  41.946  12.056
80285W        W48703   9.320  28.134  14.486
80286W        W48704   7.355  39.830  13.934
80287W        W48705  37.873   3.461  10.153
80288W        W48706  33.066  24.610   0.888
80289W        W48707   5.385  39.391   2.675
80290W        W48708  39.980  31.048  13.923
80291W        W48709  30.467  28.936   2.898
80292W        W48710  43.358  32.004  13.831
80293W        W48711  29.102  31.079  11.024
80294W        W48712  37.044  16.255  12.405
80295W        W48713  12.743  30.909  14.933
80296W        W48714  31.429  41.531   0.797
80297W        W48715  16.164  20.688   4.783
80298W        W48716  33.415  44.002  13.462
80299W        W48717  20.144   2.411  13.030
80300W        W48718  37.939   5.744  14.383
80301W        W48719  34.009   9.842   0.827
80302W        W48720  28.677   5.348   2.359
80303W        W48721  23.630  12.684   0.425
80304W        W48722  25.650  12.238  12.910
80305W        W48723  33.410   4.324  10.136
80306W        W48724   2.258  19.133   2.853
80307W        W48725  33.621   9.185   2.214
80308W        W48726   0.488  23.501   3.683
80309W        W48727  17.665  27.688   3.303
80310W        W48728  19.180  18.788  13.332
80311W        W48729  19.586  21.757   0.483
80312W        W48730  44.293  38.431  13.051
80313W        W48731  11.847  12.743   4.318
80314W        W48732   8.256  26.542  13.012
80315W        W48733  34.529  41.513  11.056
80316W        W48734  25.211  21.546  14.513
80317W        W48735  10.142  40.444  13.447
80318W        W48736  31.023  34.920   2.675
80319W        W48737  40.363  15.749  12.866
80320W        W48738  13.162  13.223   4.693
80321W        W48739  14.302  30.613  12.024
80322W        W48740  39.062  29.143  11.507
80323W        W48741  26.566  27.185   3.753
80324W        W48742  20.745  29.540   2.316
80325W        W48743  31.978  10.375   0.941
80326W        W48744   1.840   1.404  12.453
80327W        W48745  13.712  22.246   4.214
80328W        W48746  37.581  14.231   3.771
80329W        W48747  18.276  28.000   1.900
80330W        W48748  21.220  22.141   1.924
80331W        W48749  38.551  21.231   0.464
80332W        W48750  44.386  40.337  12.381
80333W        W48751  26.079  36.445   3.799
80334W        W48752  22.714   0.907   3.824
80335W        W48753  41.978   2.388  13.834
80336W        W48754  43.432   5.792  11.453
80337W        W48755  40.800  13.204   1.906
80338W        W48756  21.740  25.620  13.384
80339W        W48757  40.916  44.358   1.802
80340W        W48758  34.446  24.215   1.823
80341W        W48759  10.324  32.976  12.562
80342W        W48760  14.745   7.193  11.475
80343W        W48761  35.955  30.081  10.934
80344W        W48762  24.993   5.739  13.879
80345W        W48763  33.020  35.388   4.254
80346W        W48764  40.437   8.393   1.753
80347W        W48765  39.916  15.140   3.147
80348W        W48766  29.435   9.152  11.945
80349W        W48767  32.420  40.973  13.828
80350W        W48768   3.246   9.645   1.720
80351W        W48769  35.586  26.647  11.417
80352W        W48770  40.338  34.476   4.303
80353W        W48771  24.159  43.925  14.802
80354W        W48772  18.212  44.882  13.417
80355W        W48773  27.086  35.880   4.136
80356W        W48774  35.557  32.474   3.738
80357W        W48775   6.829  30.649   2.340
80358W        W48776  38.963  29.491   3.282
80359W        W48777   7.402  36.400   3.760
80360W        W48778  37.369  11.289   0.256
80361W        W48779  27.656   9.290  11.610
80362W        W48780  13.306  27.027   3.867
80363W        W48781  19.151  37.067  11.002
80364W        W48782   5.713   0.390   2.757
80365W        W48783  33.585  41.818   1.853
80366W        W48784  30.951  27.182  14.828
80367W        W48785  24.162  11.796   3.212
80368W        W48786   5.330  29.540   0.409
80369W        W48787  19.704  20.582  13.988
80370W        W48788   5.429  27.101  13.050
80371W        W48789  29.533  10.875  10.620
80372W        W48790  12.695   8.316  13.905
80373W        W48791  37.838  17.129   2.352
80374W        W48792  42.991   4.735  12.439
80375W        W48793  23.048  23.542  12.434
80376W        W48794  41.998  24.711   0.798
80377W        W48795  29.169  12.201   4.810
80378W        W48796  22.206  25.168  14.978
80379W        W48797  21.647   4.732   0.406
80380W        W48798  15.205  11.865   0.283
80381W        W48799  14.335  15.295  14.015
80382W        W48800  44.299   8.735   4.835
80383W        W48801  41.966  10.238   5.081
80384W        W48802  12.802  32.522  14.421
80385W        W48803  39.927  16.751  11.579
80386W        W48804  44.403  35.993  12.932
80387W        W48805  24.656   3.356   4.292
80388W        W48806  18.257  18.607   3.729
80389W        W48807  22.692   7.280   0.903
80390W        W48808  39.934  11.265  14.032
80391W        W48809  29.039   6.866  10.457
80392W        W48810   1.291  44.335   4.220
80393W        W48811  29.018  13.303  11.884
80394W        W48812  36.958  16.080  13.307
80395W        W48813  21.749   0.459  13.862
80396W        W48814  33.563  27.993  14.854
80397W        W48815  34.464  14.289   0.742
80398W        W48816  25.137  41.837  12.562
80399W        W48817  24.098  12.751  12.921
80400W        W48818   2.875  11.272   2.746
80401W        W48819  32.084  13.614   2.241
80402W        W48820  23.110  19.625   1.280
80403W        W48821  41.909  13.715  13.837
80404W        W48822   3.425  23.719  11.608
80405W        W48823  29.097  41.381   3.235
80406W        W48824  13.275   3.844   1.283
80407W        W48825  27.545   9.744   2.857
80408W        W48826   8.228  21.025  10.567
80409W        W48827  42.825   6.217   1.443
80410W        W48828   3.427  30.062   1.395
80411W        W48829   6.741  15.654  10.642
80412W        W48830  41.384   8.334   4.709
80413W        W48831  34.960  43.302  11.374
80414W        W48832  10.735  19.190   4.749
80415W        W48833   9.184  40.894   4.279
80416W        W48834  25.542  27.066   2.820
80417W        W48835   7.369  30.629   3.385
80418W        W48836  41.836  41.804  13.504
80419W        W48837   5.207  41.368   0.432
80420W        W48838  15.594   9.260  13.452
80421W        W48839  33.029  40.947  13.897
80422W        W48840   9.652  26.132   4.160
80423W        W48841  25.477   7.899  13.475
80424W        W48842   1.930  35.879  13.876
80425W        W48843  19.245  27.463  14.331
80426W        W48844  33.571  32.987  12.990
80427W        W48845  33.403   9.201   0.315
80428W        W48846  41.324   8.384  14.468
80429W        W48847  43.801  40.848   4.242
80430W        W48848   1.323  21.610  14.000
80431W        W48849  41.014  22.720   1.933
80432W        W48850   4.879   9.778   2.205
80433W        W48851   2.465   4.426  12.415
80434W        W48852  20.536   1.337   0.749
80435W        W48853   0.374  12.180  10.034
80436W        W48854   0.417  24.703  10.423
80437W        W48855  42.981  35.034   0.417
80438W        W48856  33.105  35.519   0.299
80439W        W48857  11.647  12.149  12.573
80440W        W48858  18.107   2.405  12.877
80441W        W48859   5.929  18.123  12.997
80442W        W48860  36.396  23.003   0.450
80443W        W48861  20.231  32.580  13.505
80444W        W48862  20.175   5.837   9.984
80445W        W48863  13.701  36.533  14.861
80446W        W48864  12.259  25.037  10.419
80447W        W48865  30.420  37.350   3.221
80448W        W48866  28.634   7.736   4.688
80449W        W48867  35.098  33.517   3.649
80450W        W48868  14.643  22.088   2.776
80451W        W48869  30.152  16.643   3.743
80452W        W48870   5.925  21.017  11.000
80453W        W48871   2.936   9.668   2.815
80454W        W48872  32.495  23.112   4.727
80455W        W48873  19.238  19.154   0.456
80456W        W48874  13.294  34.017   2.186
80457W        W48875  13.603   7.855   3.836
80458W        W48876   7.390  17.087  10.562
80459W        W48877  38.324   6.345  14.347
80460W        W48878  36.466   1.931  10.978
80461W        W48879  21.169  23.505   1.910
80462W        W48880  42.983   3.847  10.614
80463W        W48881  20.253  36.897   0.732
80464W        W48882  44.419   6.416   1.809
80465W        W48883  17.131  39.426  13.931
80466W        W48884  40.347   7.868  14.375
80467W        W48885  18.569  16.300  13.446
80468W        W48886  31.637  32.063   2.831
80469W        W48887  17.670  19.587   2.283
80470W        W48888  12.651  16.162  13.877
80471W        W48889  20.635  21.695  13.056
80472W        W48890  30.582  44.952  10.925
80473W        W48891  28.930  37.393   0.368
80474W        W48892   2.293  27.566   2.715
80475W        W48893  37.408  24.693  10.416
80476W        W48894  13.247   4.724   4.718
80477W        W48895  29.548  18.551  12.339
80478W        W48896  28.084  11.623  11.974
80479W        W48897  19.729  35.535   4.256
80480W        W48898   9.645  16.290   0.740
80481W        W48899   1.241  21.702   1.345
80482W        W48900  40.332  34.591   0.942
80483W        W48901   9.813   5.292   1.717
80484W        W48902  39.000  29.661  10.910
80485W        W48903   7.215  37.351  12.904
80486W        W48904  21.563  38.476   9.475
80487W        W48905   1.451  37.062  10.429
80488W        W48906  35.575  37.440   5.199
80489W        W48907   6.718   6.686   3.350
80490W        W48908  35.938  31.111   5.292
80491W        W48909   0.843  32.596   3.858
80492W        W48910  23.684   9.360  10.891
80493W        W48911  38.872  12.225  11.526
80494W        W48912   8.719  14.824  10.889
80495W        W48913  37.863  12.798   1.400
80496W        W48914  44.430   0.322  12.911
80497W        W48915   5.198  35.024   3.374
80498W        W48916   2.314   7.861  12.894
80499W        W48917  30.061   4.708   4.722
80500W        W48918  44.929  22.040   9.573
80501W        W48919  42.857  40.525   3.799
80502W        W48920  27.101   8.196   3.740
80503W        W48921   1.292   8.796   4.164
80504W        W48922   4.846  43.833   4.135
80505W        W48923   0.796  42.804   3.314
80506W        W48924   4.903   5.692   1.389
80507W        W48925   3.910  16.745   4.345
80508W        W48926  25.628  24.515  10.453
80509W        W48927   6.288  43.986   2.826
80510W        W48928  33.399   0.433   4.733
80511W        W48929  34.074  19.078   4.231
80512W        W48930  36.427  31.077   2.363
80513W        W48931   3.432   1.918  12.392
80514W        W48932   2.383  27.524   3.209
80515W        W48933  21.238  27.100   0.780
80516W        W48934  13.178   8.250   0.860
80517W        W48935  30.654  13.209   1.247
80518W        W48936  35.546  36.924   2.360
80519W        W48937  24.165  37.444  11.567
80520W        W48938  37.021  28.090   0.823
80521W        W48939  13.647  29.442   2.787
80522W        W48940  24.139  42.349   0.448
80523W        W48941  38.348  30.517  14.493
80524W        W48942   4.403  10.302  10.458
80525W        W48943   1.844   3.758  10.955
80526W        W48944   8.393  26.702   1.709
80527W        W48945  40.429  41.829   0.731
80528W        W48946  30.926  41.518   2.416
80529W        W48947  24.134  43.398  12.485
80530W        W48948  29.057  25.552  12.390
80531W        W48949  42.321  11.729   3.725
80532W        W48950   2.836  10.241   4.146
80533W        W48951  37.506  42.940  13.530
80534W        W48952  32.017  10.673   4.783
80535W        W48953   4.826  15.779  13.461
80536W        W48954  24.006   9.726   0.455
80537W        W48955   0.255  10.368  11.407
80538W        W48956  25.217  22.724  10.521
80539W        W48957  16.248  38.841   1.328
80540W        W48958  34.486   2.336   1.294
80541W        W48959  10.382   5.738   1.252
80542W        W48960  39.467   0.373   1.307
80543W        W48961  44.451  37.866   3.802
80544W        W48962  41.836  23.616   5.173
80545W        W48963  34.963  32.942   0.481
80546W        W48964  36.571  25.714  11.575
80547W        W48965  44.842  32.142  14.775
80548W        W48966  16.575  19.095  14.380
80549W        W48967  37.424  31.602   3.772
80550W        W48968  37.473  23.719  14.765
80551W        W48969   2.770  35.059  11.388
80552W        W48970  15.693  35.072   4.119
80553W        W48971  41.849   5.883   2.686
80554W        W48972  37.905  17.073  10.603
80555W        W48973  38.340  15.110  13.966
80556W        W48974  23.076   5.925   3.332
80557W        W48975  35.489  22.090   0.406
80558W        W48976   8.397  19.606   1.320
80559W        W48977   8.171  19.775   0.298
80560W        W48978  26.501  18.584   5.245
80561W        W48979  27.461  39.039   0.848
80562W        W48980  41.517   1.969  12.494
80563W        W48981  14.170   5.415   3.293
80564W        W48982   6.341  23.164  12.385
80565W        W48983  42.871  35.484  13.858
80566W        W48984   5.897  14.215  10.587
80567W        W48985  41.881  20.272   2.368
80568W        W48986  27.493  17.664  14.493
80569W        W48987  43.420  25.513  10.508
80570W        W48988  36.559  19.094  12.971
80571W        W48989  39.440  19.232  14.490
80572W        W48990  40.853  27.016  13.499
80573W        W48991  19.633  39.342   1.885
80574W        W48992   3.438  17.082   4.620
80575W        W48993  39.527  16.615   4.661
80576W        W48994  23.198  30.425   4.799
80577W        W48995   9.675  43.874   3.270
80578W        W48996  16.082  39.439   0.320
80579W        W48997  41.868  41.850   1.731
80580W        W48998  29.626   6.380   4.712
80581W        W48999  13.790   6.228  13.794
80582W        W49000  30.437  43.968  14.432
80583W        W49001  38.831  39.838  10.558
80584W        W49002  16.804   3.249  13.028
80585W        W49003   4.822   1.881  11.095
80586W        W49004  21.614  30.984   3.336
80587W        W49005  26.155  35.468  12.520
80588W        W49006  38.823   3.365  13.829
80589W        W49007  36.488  15.179  12.876
80590W        W49008  20.714  27.555  11.371
80591W        W49009  26.481  35.018   0.400
80592W        W49010  18.634  36.935  12.020
80593W        W49011  44.501  32.903  13.316
80594W        W49012  22.249  13.129  14.863
80595W        W49013  22.218  34.880  10.464
80596W        W49014   7.839  31.897  11.441
80597W        W49015  18.724  14.252   1.906
80598W        W49016  29.950  17.789   2.404
80599W        W49017  24.987  27.181  11.517
80600W        W49018  20.539  40.873   4.238
80601W        W49019  38.570  39.981  10.558
80602W        W49020  43.817  42.351  12.369
80603W        W49021  13.284  20.078   3.209
80604W        W49022   2.892   8.771   0.291
80605W        W49023  43.375   4.434   3.222
80606W        W49024  44.805   0.293   0.337
80607W        W49025  10.279  39.057  12.880
80608W        W49026  26.965  38.536   2.419
80609W        W49027  40.992  19.198  12.521
80610W        W49028   5.322  26.989   1.885
80611W        W49029  13.829   0.338   0.345
80612W        W49030  42.941   5.745  14.854
80613W        W49031  25.997   3.334   3.775
80614W        W49032  29.138  29.646   1.386
80615W        W49033  43.843  43.386   3.316
80616W        W49034  17.628  36.556  14.774
80617W        W49035  19.626   3.778  13.460
80618W        W49036   7.347   1.420   3.824
80619W        W49037   5.252  36.932   2.876
80620W        W49038  40.340  44.803  11.115
80621W        W49039  20.243  38.928  12.390
80622W        W49040   0.791  39.420   3.212
80623W        W49041  15.259   2.361   4.305
80624W        W49042  40.509  35.059   3.728
80625W        W49043  25.600   2.729   4.691
80626W        W49044  30.439  25.004  13.803
80627W        W49045   6.312  30.025  13.922
80628W        W49046  34.610  31.007  14.784
80629W        W49047  36.545   5.228  12.092
80630W        W49048  19.656  38.894   0.828
80631W        W49049   3.956  10.264   0.887
80632W        W49050  35.603  10.798   4.219
80633W        W49051  24.526  44.477   1.412
80634W        W49052  31.420  23.061   1.862
80635W        W49053  22.168  30.059   1.272
80636W        W49054  29.563  32.057   0.887
80637W        W49055  15.780  29.553  10.896
80638W        W49056   4.311  24.507   2.200
80639W        W49057  35.017  16.642  14.871
80640W        W49058   4.909  44.321  13.343
80641W        W49059  15.681  15.208   1.852
80642W        W49060  32.006  40.024   0.330
80643W        W49061  28.522   1.875   3.153
80644W        W49062  30.077  16.724   2.411
80645W        W49063  29.952  23.603   0.796
80646W        W49064   8.674  23.995  11.389
80647W        W49065  37.488  18.577  13.939
80648W        W49066   1.778  16.192  12.062
80649W        W49067   6.894  19.626  14.395
80650W        W49068  34.075  12.165   0.757
80651W        W49069  20.650  25.613   1.776
80652W        W49070  42.300  19.099  10.642
80653W        W49071  16.315   4.344   1.761
80654W        W49072  42.956   9.300  12.580
80655W        W49073  36.936  14.741  10.475
80656W        W49074  22.620  11.733   0.463
80657W        W49075   0.752  33.426  12.356
80658W        W49076   2.407  12.358  13.874
80659W        W49077   0.865  37.020   3.224
80660W        W49078   5.914  31.437   3.234
80661W        W49079  22.995  44.344  13.848
80662W        W49080   9.176  41.494  13.018
80663W        W49081  42.403  11.200   5.660
80664W        W49082  34.605  37.457   1.313
80665W        W49083   7.728  37.844   2.388
80666W        W49084  30.592   7.743  13.806
80667W        W49085   5.341  31.930  13.904
80668W        W49086  40.506  38.841   4.338
80669W        W49087  11.799  15.635  10.157
80670W        W49088  18.270  25.676  10.610
80671W        W49089  11.181   9.260   1.451
80672W        W49090  17.253  44.946  13.047
80673W        W49091  37.936  41.975   0.842
80674W        W49092  32.497  38.390  14.466
80675W        W49093  37.490  30.973   2.793
80676W        W49094  41.345  26.994  12.365
80677W        W49095  39.032  22.652   2.791
80678W        W49096  30.530  39.523   4.786
80679W        W49097  19.733   1.465   0.965
80680W        W49098  18.215  10.315  12.397
80681W        W49099  23.547  27.639   3.704
80682W        W49100  13.690   5.801  14.934
80683W        W49101  29.101  38.029   4.619
80684W        W49102  35.370  19.159  10.637
80685W        W49103  44.919  34.878  11.991
80686W        W49104  25.676  23.668   2.855
80687W        W49105  41.351  31.477  12.862
80688W        W49106  33.093  43.513   3.169
80689W        W49107  13.709  28.461   2.318
80690W        W49108  11.695  25.564  14.416
80691W        W49109  15.214  22.046  14.786
80692W        W49110  31.643   0.274  12.070
80693W        W49111  44.886  18.712  10.942
80694W        W49112  10.875  40.366  12.955
80695W        W49113  15.286  42.853  13.978
80696W        W49114  25.001  24.621   1.388
80697W        W49115   1.375  13.325   0.404
80698W        W49116  11.193  10.246   1.878
80699W        W49117  24.508  39.962  12.512
80700W        W49118  40.810  44.899   2.355
80701W        W49119  25.535   0.277  10.919
80702W        W49120   7.700  35.870  12.371
80703W        W49121  26.669  23.526   3.290
80704W        W49122  38.072  10.704  10.479
80705W        W49123  22.164   7.382   4.195
80706W        W49124  17.787  28.956  13.396
80707W        W49125   0.975  16.115   0.436
80708W        W49126  12.120  14.689   0.482
80709W        W49127   2.753  36.861   3.271
80710W        W49128  33.047   6.906  14.869
80711W        W49129   8.825  13.349   3.298
80712W        W49130   3.885  20.172  13.949
80713W        W49131   7.291  33.053   3.721
80714W        W49132   6.279  39.873  10.093
80715W        W49133  15.665  13.813  13.341
80716W        W49134  15.685   0.394  14.443
80717W        W49135  40.799  25.976   2.691
80718W        W49136  25.010  21.598   0.430
80719W        W49137   5.754  31.098  10.425
80720W        W49138  36.351   5.814  11.894
80721W        W49139  39.007  21.097  10.592
80722W        W49140  23.663  11.311  13.896
80723W        W49141  12.320  29.984  12.016
80724W        W49142  19.284  15.797   5.112
80725W        W49143  44.813  31.564   0.305
80726W        W49144  32.003   4.744   0.758
80727W        W49145   4.352  10.344   1.447
80728W        W49146  26.673   2.356   3.693
80729W        W49147  36.352  28.484   0.468
80730W        W49148  22.662  30.497  10.107
80731W        W49149  29.002  41.428   4.328
80732W        W49150  14.218  27.478   0.373
80733W        W49151  35.889  30.543   1.292
80734W        W49152   3.947  22.746   4.722
80735W        W49153  18.545   7.367   0.269
80736W        W49154  12.758   6.898  14.484
80737W        W49155  35.867   1.923   2.393
80738W        W49156   7.671  20.736  10.618
80739W        W49157  27.662   4.858   0.446
80740W        W49158  43.769  34.024  11.928
80741W        W49159   3.814   4.228  12.839
80742W        W49160  39.497  17.284   2.672
80743W        W49161   1.835  18.722   1.298
80744W        W49162  42.390  22.664  11.431
80745W        W49163   2.830   7.322  14.368
80746W        W49164  14.121  37.891   4.327
80747W        W49165  25.159  17.770  14.426
80748W        W49166  14.199   0.835  14.397
80749W        W49167  27.153  31.975   3.807
80750W        W49168  12.266  19.656  13.794
80751W        W49169  41.943  35.495  13.524
80752W        W49170  42.944  32.501   2.874
80753W        W49171   3.240  24.516  11.012
80754W        W49172  32.069  41.865   1.406
80755W        W49173  24.010  41.941  13.342
80756W        W49174   5.434  36.412   1.801
80757W        W49175  18.586  39.848   1.783
80758W        W49176   6.362  11.715  10.565
80759W        W49177  11.188   3.441  10.538
80760W        W49178  31.489  34.588  11.572
80761W        W49179  34.093  42.020   2.880
80762W        W49180  10.813  21.624  10.531
80763W        W49181  36.980  35.072  14.921
80764W        W49182  37.488  34.453  10.012
80765W        W49183  30.948  41.392   1.698
80766W        W49184  28.487  29.041   4.764
80767W        W49185  29.975  26.633  10.577
80768W        W49186  38.380  23.728  14.324
80769W        W49187  37.566  28.002  10.595
80770W        W49188  23.701  25.689   2.725
80771W        W49189  37.062  12.324   1.747
80772W        W49190  12.731  41.529   2.363
80773W        W49191  12.192  33.620  14.944
80774W        W49192  35.399  34.492  12.941
80775W        W49193  36.036  10.378   1.352
80776W        W49194  16.675  14.602   4.743
80777W        W49195   2.398   7.321   4.345
80778W        W49196  19.249  21.088   0.767
80779W        W49197  14.224  15.095  11.018
80780W        W49198  39.900  23.996   3.800
80781W        W49199  33.962  23.014  14.017
80782W        W49200   6.853   3.843  11.088
80783W        W49201  16.638  14.250   4.648
80784W        W49202  14.650  40.010  14.413
80785W        W49203   8.215  26.479   4.746
80786W        W49204  30.489  42.870   0.754
80787W        W49205  28.506  12.779  12.473
80788W        W49206  12.243  30.130  13.987
80789W        W49207  12.693  42.476  12.539
80790W        W49208   9.274  42.382   1.325
80791W        W49209   7.840   8.365  14.308
80792W        W49210  25.547  16.720  11.376
80793W        W49211  38.957  24.695   2.693
80794W        W49212  43.824  20.531  13.534
80795W        W49213  17.690  18.733   0.446
80796W        W49214  21.243  12.330  13.492
80797W        W49215  37.389  20.701   1.872
80798W        W49216  22.061   7.316  13.804
80799W        W49217  28.576  27.140  14.474
80800W        W49218   1.744   9.185   0.464
80801W        W49219  41.405  19.092   3.666
80802W        W49220   1.304  39.815  12.535
80803W        W49221  41.023  35.394  11.590
80804W        W49222  17.225  13.324   3.295
80805W        W49223   7.267  11.163  12.924
80806W        W49224  28.065  37.913  13.828
80807W        W49225  29.559  39.033   0.266
80808W        W49226  25.205  38.951   1.872
80809W        W49227  10.831   4.370   3.660
80810W        W49228  27.107  28.119   9.935
80811W        W49229  40.522  42.960  13.403
80812W        W49230  36.547  43.770  13.350
80813W        W49231  41.910  26.464  11.538
80814W        W49232  21.527  14.652   1.236
80815W        W49233  19.106  24.006   4.692
80816W        W49234  37.339  37.043   2.262
80817W        W49235  34.472  40.327   0.778
80818W        W49236  20.059   3.248   2.302
80819W        W49237  34.085  42.829   2.873
80820W        W49238  38.471  31.493  14.339
80821W        W49239  24.025  11.301   1.272
80822W        W49240  21.587  35.539   1.880
80823W        W49241  14.785  25.595  13.359
80824W        W49242  16.753   6.843  12.994
80825W        W49243  23.535  10.760  11.920
80826W        W49244  18.615  19.763  10.949
80827W        W49245   4.397   6.194  13.415
80828W        W49246   5.297  39.352   4.251
80829W        W49247  40.386  36.527  11.066
80830W        W49248  13.147  22.573  12.388
80831W        W49249  19.122  11.860  13.426
80832W        W49250   9.317   4.884   4.633
80833W        W49251   9.760   1.272  11.521
80834W        W49252  36.019  30.475   2.862
80835W        W49253   9.201  37.864   0.728
80836W        W49254   7.234  25.637   3.277
80837W        W49255  38.916  37.988  11.436
80838W        W49256  21.229  16.092   4.350
80839W        W49257  23.575  34.521  11.994
80840W        W49258  36.559   2.966  10.894
80841W        W49259  40.384  36.516   4.215
80842W        W49260  42.326   0.349   1.785
80843W        W49261  23.080   1.780   1.751
80844W        W49262  19.543  21.566   2.748
80845W        W49263  35.938  27.630  13.039
80846W        W49264  11.827  31.468   0.387
80847W        W49265  34.923  10.310   0.791
80848W        W49266  43.834  44.997  13.455
80849W        W49267  35.069   3.848   1.436
80850W        W49268  15.667  42.925  11.610
80851W        W49269   0.281  21.719   2.676
80852W        W49270  30.636  11.263  13.979
80853W        W49271  11.762  18.724  11.461
80854W        W49272  25.548  39.508  12.471
80855W        W49273  15.278  29.604  11.910
80856W        W49274  18.731  24.081  11.910
80857W        W49275  42.957  44.260   3.244
80858W        W49276  19.207  15.107  10.560
80859W        W49277  39.354  35.056   1.791
80860W        W49278  35.063  42.799  10.644
80861W        W49279  25.169   7.224   2.298
80862W        W49280  37.525  30.121  13.794
80863W        W49281  39.931  26.989  11.481
80864W        W49282   9.327  22.076   1.896
80865W        W49283  44.762  18.110   1.290
80866W        W49284  17.167  36.990   1.890
80867W        W49285  42.967  38.326  11.437
80868W        W49286  38.911  38.366   4.143
80869W        W49287   6.366  15.114   3.202
80870W        W49288  15.708  32.476  13.447
80871W        W49289  15.704  22.637   0.907
80872W        W49290  27.975  41.023  10.428
80873W        W49291   7.760   9.363  14.455
80874W        W49292  28.089   2.862  11.604
80875W        W49293  40.517  11.318  11.004
80876W        W49294  24.135   7.389   0.380
80877W        W49295  40.412   3.751   1.876
80878W        W49296   2.280  12.207   1.769
80879W        W49297  29.160  22.078   3.659
80880W        W49298  31.463  41.393  11.907
80881W        W49299   4.397  14.218   4.837
80882W        W49300  10.843   6.248   1.722
80883W        W49301  43.324  29.165  12.360
80884W        W49302  29.128  35.937   0.864
80885W        W49303  43.980  43.900   2.793
80886W        W49304  16.220  22.057  12.468
80887W        W49305   4.443  13.306   1.342
80888W        W49306  27.490  43.305   0.946
80889W        W49307   3.728   2.844   1.725
80890W        W49308  41.860  11.695   1.861
80891W        W49309  39.833  37.404   3.821
80892W        W49310  32.982  29.459   2.327
80893W        W49311   9.165  24.531   0.428
80894W        W49312  43.473  14.121   5.618
80895W        W49313  34.513  10.685   0.760
80896W        W49314   2.457  33.938  12.834
80897W        W49315  13.214  21.513  12.377
80898W        W49316   7.271  44.488   2.754
80899W        W49317  39.054  14.724   0.279
80900W        W49318  39.560  25.186   4.352
80901W        W49319  37.509  16.786   2.902
80902W        W49320  22.652  25.565  14.855
80903W        W49321  42.888  27.569   3.643
80904W        W49322  16.767  26.697  13.814
80905W        W49323  22.548  41.964   0.432
80906W        W49324   0.296   9.313  11.474
80907W        W49325  41.809   7.770  13.056
80908W        W49326  36.988  11.371   1.307
80909W        W49327  17.659  17.659  10.540
80910W        W49328  12.360  36.483  14.280
80911W        W49329   5.243   3.747  12.375
80912W        W49330  14.212  27.532  13.452
80913W        W49331  38.489  22.701   2.831
80914W        W49332  34.486   5.701  11.020
80915W        W49333  32.563  24.227   4.322
80916W        W49334   9.667  18.746   3.716
80917W        W49335   8.685   1.246  12.475
80918W        W49336   0.833  37.376   5.247
80919W        W49337  36.350   8.367   0.758
80920W        W49338  41.031  35.904  10.427
80921W        W49339  15.663   6.810  12.975
80922W        W49340   5.784  35.553   1.260
80923W        W49341  22.049  29.020   1.230
80924W        W49342  38.371  10.317  12.513
80925W        W49343  12.668  13.708   4.723
80926W        W49344  36.493  37.949   3.337
80927W        W49345  31.419  17.574  14.332
80928W        W49346  26.493  44.433   0.871
80929W        W49347  41.822  24.204   4.178
80930W        W49348  24.514  35.067   4.735
80931W        W49349  43.900  15.265   3.758
80932W        W49350  30.602  41.461  12.353
80933W        W49351  16.267  26.194   4.669
80934W        W49352   9.363  40.491  14.863
80935W        W49353  10.672  41.826  12.045
80936W        W49354  35.413   3.306  11.991
80937W        W49355  26.646   7.319  14.945
80938W        W49356  37.412   8.860  14.303
80939W        W49357  39.983   9.884   0.847
80940W        W49358  39.899  17.687  12.965
80941W        W49359  15.214  14.754   4.732
80942W        W49360   3.741  16.673  13.869
80943W        W49361  23.023   4.416   2.237
80944W        W49362  26.011   8.889   2.696
80945W        W49363  22.193  35.956  11.930
80946W        W49364   9.649   5.278  11.435
80947W        W49365  42.850  24.129   1.905
80948W        W49366  39.844   6.221  14.812
80949W        W49367  39.951  38.001  10.923
80950W        W49368  36.996  37.032   3.670
80951W        W49369  34.113  11.288   1.697
80952W        W49370  26.478   3.416   1.298
80953W        W49371  29.027  19.165   2.774
80954W        W49372   8.730  21.154  10.921
80955W        W49373  16.588  13.695  12.047
80956W        W49374  39.418  41.000   4.319
80957W        W49375  17.264  18.645  11.924
80958W        W49376  36.355  35.075  10.931
80959W        W49377  42.370  26.466   2.677
80960W        W49378  42.843   0.348   2.770
80961W        W49379  40.534  31.064  11.511
80962W        W49380  36.844   2.401  10.594
80963W        W49381  12.735  38.892  10.580
80964W        W49382   2.374   2.755  10.930
80965W        W49383  42.918  43.854   2.411
80966W        W49384  41.355  29.052  14.392
80967W        W49385  32.632   4.820  11.407
80968W        W49386  16.207  12.850  10.545
80969W        W49387   6.699  43.866   4.287
80970W        W49388  20.181  26.037   4.714
80971W        W49389  23.167  44.855   1.382
80972W        W49390  44.309  12.119   2.853
80973W        W49391  17.297  32.963   4.724
80974W        W49392  22.545  38.448   2.799
80975W        W49393  40.999  11.716  14.828
80976W        W49394  34.910   9.720   1.803
80977W        W49395  14.617   2.425   1.316
80978W        W49396  19.739  28.979   2.334
80979W        W49397  18.585  28.525  11.053
80980W        W49398  39.911  11.866  10.560
80981W        W49399  10.785   3.923  13.008
80982W        W49400  38.539  21.616   4.827
80983W        W49401  33.005  33.622  13.030
80984W        W49402  36.082  13.627   3.679
80985W        W49403  17.085  38.495  11.946
80986W        W49404  41.495  44.315   0.952
80987W        W49405   4.848  29.117  11.595
80988W        W49406  16.591  33.465   3.191
80989W        W49407  28.013  34.917  11.501
80990W        W49408  22.037  15.797   0.336
80991W        W49409  43.992  30.963   2.753
80992W        W49410   1.282  11.675  13.840
80993W        W49411  44.339  39.045   0.839
80994W        W49412   7.747  39.865   1.815
80995W        W49413  10.678  16.569   1.364
80996W        W49414  34.023  37.485   3.847
80997W        W49415  35.015  25.489  10.513
80998W        W49416  15.294  27.446  11.531
80999W        W49417  40.840  27.669   2.326
81000W        W49418  25.578   2.852   1.375
81001W        W49419  29.537  34.972  11.583
81002W        W49420  32.892  38.442  13.012
81003W        W49421   8.343   6.921  11.128
81004W        W49422  37.893  15.248  12.975
81005W        W49423   2.286  25.593  13.793
81006W        W49424  11.373  43.294   0.864
81007W        W49425  29.168  24.637  14.396
81008W        W49426  44.914   4.401   1.899
81009W        W49427  29.009  32.612   0.931
81010W        W49428  39.336  42.354  12.373
81011W        W49429  26.687  24.086  12.900
81012W        W49430  24.703   7.817  10.955
81013W        W49431  19.756  39.502  14.326
81014W        W49432  41.415   5.429  14.455
81015W        W49433  33.994   1.371  13.318
81016W        W49434   7.759   1.769   4.267
81017W        W49435   1.928  35.859   3.236
81018W        W49436  42.776  10.751   1.325
81019W        W49437  43.889  16.092   2.270
81020W        W49438   5.899  36.882   3.709
81021W        W49439   3.389  39.481  14.823
81022W        W49440   8.402  37.447   0.954
81023W        W49441  12.180   2.303   4.206
81024W        W49442  22.553   0.318  10.908
81025W        W49443  23.656  21.615   4.641
81026W        W49444  23.662  34.597  11.559
81027W        W49445  44.383  11.203  11.862
81028W        W49446  15.715  14.721  14.348
81029W        W49447  31.421  22.505   4.185
81030W        W49448  22.092  24.155  10.474
81031W        W49449   8.165  26.459   0.960
81032W        W49450  21.023  33.610  10.960
81033W        W49451  36.347  40.387   4.283
81034W        W49452   1.957  25.114  12.534
81035W        W49453  13.686  44.856  12.386
81036W        W49454  33.553   3.452  11.448
81037W        W49455   3.817  18.294  14.504
81038W        W49456  20.079  20.038   2.379
81039W        W49457  41.958  38.526   3.194
81040W        W49458  25.608  30.157   4.694
81041W        W49459   2.919  35.468  12.082
81042W        W49460  35.478   3.888  11.415
81043W        W49461  12.275  34.370  12.464
81044W        W49462   5.734  13.715  14.433
81045W        W49463   1.767  16.621   3.846
81046W        W49464  35.402  43.836  10.590
81047W        W49465   6.831  26.204   2.727
81048W        W49466   3.710  28.179   1.833
81049W        W49467  14.290  18.196   2.334
81050W        W49468  32.079  42.469   2.820
81051W        W49469  26.541  27.637  13.022
81052W        W49470  20.726  10.869   0.289
81053W        W49471  22.037  41.318   5.189
81054W        W49472  22.028  41.810   3.669
81055W        W49473  44.434   2.306   4.235
81056W        W49474  29.117   0.345  10.629
81057W        W49475  11.865  22.602   1.338
81058W        W49476  33.611  23.175   1.710
81059W        W49477   6.205  13.192   3.211
81060W        W49478  43.328  44.364  12.943
81061W        W49479  35.388  22.242   4.174
81062W        W49480  30.048  11.803  10.992
81063W        W49481  20.198  33.989   0.884
81064W        W49482   6.231  11.136  10.977
81065W        W49483  41.995   7.797  10.606
81066W        W49484   0.349  38.526  13.892
81067W        W49485  32.423  14.638  11.103
81068W        W49486   5.297  27.195  12.436
81069W        W49487  31.446  34.405   2.179
81070W        W49488   3.405  32.072  11.925
81071W        W49489   8.326   2.882   4.250
81072W        W49490  19.565  25.592  12.354
81073W        W49491   2.360  15.660   3.295
81074W        W49492   3.426  21.745  11.997
81075W        W49493  14.230   5.933   1.728
81076W        W49494   4.407  12.232   0.454
81077W        W49495   4.400  27.054   3.865
81078W        W49496  29.468  41.942  14.305
81079W        W49497  41.829  32.116   3.376
81080W        W49498  10.229   8.711  12.855
81081W        W49499  34.435  12.786  14.483
81082W        W49500  33.414   6.722   3.153
81083W        W49501   9.707   5.775  13.338
81084W        W49502   7.802  35.048   2.809
81085W        W49503  37.517  40.914   4.673
81086W        W49504  30.935  32.892  12.078
81087W        W49505  32.580  21.249  13.406
81088W        W49506   2.348  26.556  14.804
81089W        W49507  32.537  42.914   0.254
81090W        W49508   1.415  24.492   4.634
81091W        W49509  38.847  21.205  13.431
81092W        W49510  33.970  38.923   4.323
81093W        W49511  24.516  10.678  11.439
81094W        W49512  22.112   3.447  14.990
81095W        W49513  37.467  41.859   3.244
81096W        W49514  31.041   0.427   1.443
81097W        W49515  29.104   8.820   9.612
81098W        W49516   0.336  36.465  14.812
81099W        W49517  14.284  11.215  14.371
81100W        W49518  24.201  36.377  12.362
81101W        W49519  23.030   6.319  12.378
81102W        W49520  19.258  44.297  10.586
81103W        W49521   3.844  18.193   0.479
81104W        W49522   5.391   4.344  14.769
81105W        W49523   2.888   6.871   4.651
81106W        W49524  16.694  22.049  12.831
81107W        W49525  19.225  35.852   2.771
81108W        W49526  42.320   5.707  12.571
81109W        W49527  20.696  11.844   3.256
81110W        W49528  41.513  16.271  14.891
81111W        W49529  40.048  15.255  13.545
81112W        W49530  41.804  36.985   1.260
81113W        W49531  35.561  44.811  13.442
81114W        W49532  42.321   6.308   2.396
81115W        W49533   3.323  24.201   2.249
81116W        W49534  10.726   6.337  13.413
81117W        W49535  26.135   7.814  12.884
81118W        W49536  28.118  25.167   5.227
81119W        W49537  36.093  35.439   1.260
81120W        W49538  43.834   1.481   0.882
81121W        W49539  37.574  36.063   0.346
81122W        W49540  24.180   5.704  14.913
81123W        W49541  42.982  37.408  13.902
81124W        W49542  36.908  21.602   3.780
81125W        W49543  44.335  36.033  13.857
81126W        W49544   8.286   1.292   2.331
81127W        W49545  15.674   0.855   0.923
81128W        W49546   7.393  25.614  12.347
81129W        W49547  32.027  24.222   1.926
81130W        W49548  38.330   2.860   3.833
81131W        W49549   5.774   5.382   2.808
81132W        W49550  30.616  14.600  11.028
81133W        W49551  34.421  31.068   4.736
81134W        W49552  10.683  32.023  12.915
81135W        W49553  17.167  22.183   2.419
81136W        W49554  19.734  37.836   0.468
81137W        W49555  16.588   7.177  14.422
81138W        W49556  39.533   7.666   1.343
81139W        W49557  35.437  27.469  14.831
81140W        W49558  41.873   0.387  10.601
81141W        W49559  34.939  22.075  11.882
81142W        W49560  29.617  35.954   2.259
81143W        W49561   9.231  40.034   1.213
81144W        W49562  15.165  14.130  11.429
81145W        W49563  25.163  38.367  11.397
81146W        W49564   5.783  39.954  13.520
81147W        W49565   4.443   5.332   1.422
81148W        W49566  44.351  33.456   3.648
81149W        W49567   4.867  38.919  11.900
81150W        W49568  29.557  40.360   1.445
81151W        W49569  29.492  15.157   0.376
81152W        W49570  36.459  14.334  14.323
81153W        W49571   4.209  38.001   1.229
81154W        W49572   5.307  37.558  10.442
81155W        W49573  16.303   6.221  10.954
81156W        W49574  13.831  15.797   4.180
81157W        W49575  11.336  39.933  10.927
81158W        W49576  13.738  17.673  12.370
81159W        W49577  39.400  14.604   1.335
81160W        W49578  39.355  35.983   4.243
81161W        W49579  30.612  44.378   1.420
81162W        W49580  25.067   0.761  13.975
81163W        W49581  31.899   0.273  11.916
81164W        W49582  43.464  30.046   1.870
81165W        W49583   7.292   9.658  10.972
81166W        W49584   9.769  13.318  13.034
81167W        W49585  34.114  22.704   2.333
81168W        W49586   1.311   2.761   0.838
81169W        W49587  17.801   3.405  12.544
81170W        W49588  19.048  29.648  12.475
81171W        W49589   4.866  33.062  11.517
81172W        W49590   5.931  25.695   2.398
81173W        W49591  36.079  12.356  13.507
81174W        W49592  41.039   8.188   1.891
81175W        W49593  17.180  14.804   1.915
81176W        W49594   2.342  22.206   5.302
81177W        W49595   5.842   9.391   3.707
81178W        W49596  23.175  31.591   3.202
81179W        W49597  43.492  34.969   2.856
81180W        W49598  21.026   2.243   3.817
81181W        W49599  31.912   8.684   2.394
81182W        W49600  20.655  29.111   0.403
81183W        W49601  25.112  27.114  10.577
81184W        W49602  31.482  43.965   2.752
81185W        W49603  43.447   4.760  10.005
81186W        W49604  34.958  34.563  11.485
81187W        W49605   6.374   5.306  14.510
81188W        W49606  20.149  10.744   3.737
81189W        W49607   1.899  34.054   2.184
81190W        W49608  28.047   3.914   0.847
81191W        W49609  44.944  28.671  10.412
81192W        W49610  20.260   0.974   0.386
81193W        W49611  42.962  17.170  14.831
81194W        W49612  35.557  39.361  12.368
81195W        W49613  30.114  43.478   3.755
81196W        W49614  28.643   9.172   2.368
81197W        W49615  43.371  19.040  13.471
81198W        W49616  21.573  25.471  14.818
81199W        W49617  14.710  35.891   0.906
81200W        W49618  37.454  37.372   5.238
81201W        W49619  36.055  14.739  14.468
81202W        W49620   4.855  28.062   2.696
81203W        W49621  32.524  39.953  10.983
81204W        W49622   2.727   1.331   4.766
81205W        W49623  39.999  28.109  13.352
81206W        W49624   0.910  38.025  11.549
81207W        W49625  44.296   7.342   2.670
81208W        W49626  13.163  18.570   3.153
81209W        W49627  35.435   5.932  13.329
81210W        W49628  14.656  30.009  13.369
81211W        W49629  25.157  24.609   0.879
81212W        W49630  39.547  23.153   3.284
81213W        W49631  35.886  42.452   4.129
81214W        W49632  33.597  34.867  14.966
81215W        W49633   8.830  42.899   1.405
81216W        W49634  43.938  38.562  14.484
81217W        W49635  13.346  41.014   0.786
81218W        W49636  32.961  26.540   0.382
81219W        W49637  41.416  13.730   5.284
81220W        W49638  27.460  12.650   0.366
81221W        W49639   0.746   2.261   1.292
81222W        W49640  36.861  13.688   3.208
81223W        W49641  12.787  34.907  14.508
81224W        W49642   9.251   2.249  12.046
81225W        W49643  12.252  38.051  13.470
81226W        W49644  41.021  42.437   4.837
81227W        W49645  29.003  27.562  10.522
81228W        W49646  37.539   6.241  11.587
81229W        W49647   2.373   8.753   3.862
81230W        W49648  33.395  17.586  12.503
81231W        W49649  23.131   3.355   4.735
81232W        W49650  39.439  29.560   4.669
81233W        W49651  43.788  27.497  13.015
81234W        W49652  38.377  42.831   1.895
81235W        W49653  13.668   6.311   2.284
81236W        W49654  36.565  25.214   2.681
81237W        W49655   0.333   7.799  13.851
81238W        W49656  24.723  17.749   2.402
81239W        W49657  40.501  34.034  14.310
81240W        W49658  17.754  13.113   4.824
81241W        W49659  28.632   8.794  11.518
81242W        W49660  15.137  12.768   4.708
81243W        W49661  34.887  34.386  12.904
81244W        W49662  11.201  42.001  11.016
81245W        W49663   3.366  21.547  14.844
81246W        W49664  33.038  26.511  11.967
81247W        W49665   0.339   2.781  12.463
81248W        W49666  23.680  17.679  10.549
81249W        W49667  11.802  36.054   1.362
81250W        W49668  30.955   1.889   4.332
81251W        W49669  37.061   7.891   3.197
81252W        W49670  11.863  38.065  11.029
81253W        W49671  22.659   7.401  13.910
81254W        W49672  13.704  33.399   3.257
81255W        W49673   2.237  37.349  11.383
81256W        W49674  21.017  35.468  11.952
81257W        W49675  30.468  28.966  12.545
81258W        W49676  17.124  29.996  13.470
81259W        W49677   8.180  28.936  12.462
81260W        W49678  28.174  31.524   2.772
81261W        W49679   5.894   6.294  12.510
81262W        W49680  25.541   9.294  10.585
81263W        W49681  10.293  13.618  12.091
81264W        W49682  18.706  14.197  14.983
81265W        W49683  11.298  17.209  11.925
81266W        W49684  39.424  43.334   3.789
81267W        W49685  23.187  35.922   4.163
81268W        W49686  41.534   1.315   2.228
81269W        W49687  18.759  25.525  10.023
81270W        W49688  17.246  40.512   5.281
81271W        W49689  20.620  30.965   2.305
81272W        W49690  10.850   6.273  13.056
81273W        W49691   2.796  19.217   0.816
81274W        W49692  34.541  19.750  13.893
81275W        W49693   9.158  13.143  11.511
81276W        W49694   0.934  35.378   0.425
81277W        W49695  42.426  13.295  13.309
81278W        W49696  43.295  28.027   4.608
81279W        W49697  36.373  33.944  11.077
81280W        W49698  17.657  37.553   2.354
81281W        W49699  29.525  41.510   3.721
81282W        W49700  37.356  43.951   4.233
81283W        W49701   8.362  13.316  11.904
81284W        W49702  41.537  36.926   1.333
81285W        W49703  36.464  36.553   4.717
81286W        W49704  42.905  35.524   1.298
81287W        W49705  26.029  18.684  12.019
81288W        W49706  16.579  36.882  12.367
81289W        W49707  29.489  40.496   3.762
81290W        W49708   0.926   4.790  10.937
81291W        W49709  27.687  32.612   3.860
81292W        W49710  25.020  25.974   4.767
81293W        W49711   8.750  11.781  13.449
81294W        W49712  44.352  30.130   4.789
81295W        W49713  27.037   6.719  11.504
81296W        W49714  38.829  31.566  14.847
81297W        W49715  18.553  11.130   0.266
81298W        W49716   1.791  13.633  14.390
81299W        W49717   7.339   7.364  12.446
81300W        W49718  28.032   7.240   1.842
81301W        W49719  11.268  21.052  12.366
81302W        W49720  32.609  12.126  10.612
81303W        W49721  13.655   6.759  14.367
81304W        W49722  24.079  43.915   2.721
81305W        W49723  15.312   0.859  14.480
81306W        W49724  14.207   1.824   1.284
81307W        W49725  25.699  33.522  13.333
81308W        W49726   2.907  42.808  14.830
81309W        W49727   7.302  37.418  10.970
81310W        W49728   1.749   8.386  13.379
81311W        W49729  21.103  41.827  12.565
81312W        W49730  24.551  38.444  12.940
81313W        W49731  31.008  41.866  13.890
81314W        W49732  25.057  33.088   1.315
81315W        W49733  15.251  44.756  11.027
81316W        W49734  43.458  20.718  10.035
81317W        W49735  20.114   7.397  10.987
81318W        W49736  17.619  22.158  14.925
81319W        W49737  43.323   3.295  14.360
81320W        W49738  12.851  27.117   3.656
81321W        W49739   9.647   0.362   3.697
81322W        W49740  17.694  13.228   2.182
81323W        W49741  33.901  42.869   4.656
81324W        W49742  43.299  33.952  13.798
81325W        W49743   9.345  20.538   0.753
81326W        W49744  27.623   9.331   5.170
81327W        W49745  27.191   6.364   2.261
81328W        W49746  25.043  25.669   1.740
81329W        W49747  11.171  11.687   1.277
81330W        W49748  39.404  23.589  13.876
81331W        W49749  15.652  13.266   3.286
81332W        W49750  32.471  22.167   2.204
81333W        W49751  40.797  15.804  14.958
81334W        W49752  21.076  29.491  12.015
81335W        W49753   7.369  42.351  13.840
81336W        W49754  18.235  18.755   4.284
81337W        W49755   0.356  32.594   2.276
81338W        W49756  24.205  19.120  11.910
81339W        W49757  25.515  40.840  11.502
81340W        W49758   2.750  20.576   0.770
81341W        W49759  24.976  17.104   0.319
81342W        W49760  15.122  29.527   2.273
81343W        W49761   6.698  26.597  11.865
81344W        W49762  41.855  30.137   0.340
81345W        W49763  33.582  11.359  13.064
81346W        W49764  24.149  24.659   3.172
81347W        W49765   4.923   3.911  14.497
81348W        W49766  13.257  25.515  13.842
81349W        W49767  30.419  35.991   2.753
81350W        W49768  11.175  32.509  10.524
81351W        W49769  34.010  31.462   3.733
81352W        W49770   7.690  35.990  12.907
81353W        W49771  26.982   8.895   4.691
81354W        W49772  43.303  40.815   9.940
81355W        W49773   3.817  16.074  13.033
81356W        W49774  41.316   0.341   4.783
81357W        W49775  37.377   8.817   1.833
81358W        W49776  26.192  36.393   1.232
81359W        W49777  20.766  29.518  12.381
81360W        W49778  27.087   5.354   1.364
81361W        W49779   7.350  14.226   3.287
81362W        W49780  31.094  39.019  12.404
81363W        W49781  15.790  22.020  11.895
81364W        W49782  27.980  44.011   1.359
81365W        W49783  44.976  20.536   5.579
81366W        W49784  12.835  21.586   0.783
81367W        W49785  23.185  11.140  11.506
81368W        W49786   9.240  39.880  13.850
81369W        W49787  36.413  33.063  12.867
81370W        W49788  22.568  26.655   0.403
81371W        W49789   9.166  21.255  11.474
81372W        W49790  37.569  43.016  11.496
81373W        W49791  17.571  11.302  10.459
81374W        W49792  43.304  21.056  13.879
81375W        W49793  42.827  29.032   2.351
81376W        W49794  26.969  39.870   3.767
81377W        W49795   5.315  43.837   3.676
81378W        W49796  30.628   1.273  10.403
81379W        W49797  20.122  23.644   0.482
81380W        W49798  44.906  37.851  14.839
81381W        W49799  36.009  22.139  11.571
81382W        W49800  31.489  22.633   0.888
81383W        W49801  17.165  19.074  13.542
81384W        W49802  32.460  23.993  14.397
81385W        W49803  16.154  34.103   4.826
81386W        W49804  39.867  11.804   3.694
81387W        W49805  33.612  24.594   2.833
81388W        W49806  38.927  26.158  13.894
81389W        W49807  12.613  11.193  12.353
81390W        W49808   6.918  22.656   4.270
81391W        W49809  21.742  41.499  10.529
81392W        W49810  16.652  15.280  14.394
81393W        W49811  17.140  31.116  12.375
81394W        W49812   5.868   4.414  12.998
81395W        W49813  21.129   4.409   4.297
81396W        W49814  42.891  24.147  11.892
81397W        W49815   1.854  33.612  11.059
81398W        W49816  33.891  15.761   3.740
81399W        W49817  21.585  44.480  14.292
81400W        W49818   5.352   0.452   5.168
81401W        W49819  29.618  12.622  11.382
81402W        W49820  29.065  43.771   3.646
81403W        W49821   1.477   7.414   2.287
81404W        W49822   1.894  36.545  10.466
81405W        W49823  23.541   6.373  12.868
81406W        W49824  30.551  27.625   4.836
81407W        W49825  44.350   6.302  12.499
81408W        W49826   1.964   5.232   2.717
81409W        W49827  41.357  22.133  12.525
81410W        W49828  39.827  33.072  13.440
81411W        W49829  21.543   5.810   2.798
81412W        W49830  22.078  32.922  10.994
81413W        W49831   7.309  33.947   1.746
81414W        W49832  11.254   7.338  12.851
81415W        W49833  21.127  33.058   2.867
81416W        W49834  11.330  24.688  11.067
81417W        W49835  38.363  42.783  14.868
81418W        W49836  29.172  29.546  13.901
81419W        W49837  31.475   2.383   0.351
81420W        W49838  33.104   8.806   1.901
81421W        W49839  36.496  26.490   4.295
81422W        W49840  41.972  11.235  14.286
81423W        W49841  42.449  18.138   2.284
81424W        W49842  28.650   6.217  12.920
81425W        W49843  34.472  32.931  11.050
81426W        W49844  35.482  27.967   3.248
81427W        W49845   8.178   3.440   2.701
81428W        W49846  18.715  32.504  13.325
81429W        W49847   8.225   0.397  13.940
81430W        W49848  38.481  20.739  11.505
81431W        W49849  26.471  26.551   1.699
81432W        W49850  20.722   3.290   3.825
81433W        W49851   6.329  42.317   3.802
81434W        W49852   8.234  34.992   4.787
81435W        W49853  28.092  22.703  13.341
81436W        W49854  20.064  33.978   3.372
81437W        W49855  12.334  11.332   0.744
81438W        W49856  34.454  16.591   4.715
81439W        W49857   9.207  18.051   0.306
81440W        W49858  27.967  10.356   3.252
81441W        W49859  28.454  20.233  11.055
81442W        W49860   8.167  13.702  13.312
81443W        W49861  16.086  43.288  11.947
81444W        W49862   8.223   7.206  13.827
81445W        W49863   0.467  15.611  11.445
81446W        W49864  39.411  23.179   1.738
81447W        W49865   3.259   2.772   1.291
81448W        W49866   0.379   5.697  14.298
81449W        W49867  21.697  14.615   4.659
81450W        W49868  29.572  12.656  13.539
81451W        W49869  21.154  31.510  11.385
81452W        W49870  34.567  12.686   1.405
81453W        W49871   2.747  44.340   2.691
81454W        W49872  41.408  10.335  11.549
81455W        W49873  41.512   4.919   0.480
81456W        W49874  13.768   4.760  14.328
81457W        W49875   3.237  29.965  13.792
81458W        W49876  42.920  14.137  10.092
81459W        W49877   4.244  43.311   1.830
81460W        W49878  31.598  37.380   3.836
81461W        W49879  13.267  19.561   4.231
81462W        W49880   1.450  24.626   2.671
81463W        W49881   8.256  22.662  13.004
81464W        W49882   3.268  15.263   4.315
81465W        W49883  20.722  11.171   4.257
81466W        W49884  38.875  44.776  14.917
81467W        W49885   1.454  11.154   0.346
81468W        W49886   8.229  19.651   4.162
81469W        W49887  35.420  13.680  14.799
81470W        W49888  23.152  32.972  13.327
81471W        W49889  39.975  26.597   0.428
81472W        W49890  40.874  32.491  14.968
81473W        W49891  20.752  21.667  14.792
81474W        W49892  39.483  28.530   2.269
81475W        W49893   2.797  26.095   0.763
81476W        W49894   0.322  38.455  10.636
81477W        W49895  12.759  10.717  11.092
81478W        W49896   8.693  28.170   2.283
81479W        W49897  34.883  28.121   3.360
81480W        W49898  44.954  34.918   0.899
81481W        W49899  18.703  43.298  12.921
81482W        W49900   3.339   5.804   2.328
81483W        W49901  42.960  35.466  12.986
81484W        W49902  34.071   9.346   2.204
81485W        W49903  20.718  27.673   1.915
81486W        W49904  19.207  17.105   3.302
81487W        W49905  39.460  12.741  11.012
81488W        W49906  41.810  16.719   2.894
81489W        W49907  35.570  26.559  11.890
81490W        W49908  44.761  20.234   5.269
81491W        W49909  19.132   1.898  11.897
81492W        W49910  31.058   3.227   4.287
81493W        W49911  29.014  17.119   4.219
81494W        W49912  42.406   8.378   2.305
81495W        W49913  37.983  41.043   2.408
81496W        W49914  36.977  15.260   0.440
81497W        W49915  15.666  23.659  12.495
81498W        W49916  25.967  35.586   0.728
81499W        W49917  43.439  28.052  10.571
81500W        W49918   9.338  14.179   0.942
81501W        W49919  23.586  35.087   3.712
81502W        W49920  36.034  43.822  11.459
81503W        W49921  28.053  27.018   4.675
81504W        W49922   5.727  25.612  12.030
81505W        W49923  16.108  17.666  11.524
81506W        W49924  35.458  19.083  14.906
81507W        W49925  37.438  18.556   4.140
81508W        W49926   9.869  29.070   2.274
81509W        W49927   6.297  19.238  12.520
81510W        W49928  27.159   8.371   4.185
81511W        W49929   3.298  24.499  14.354
81512W        W49930  24.595  23.624   0.772
81513W        W49931  26.458  40.020  14.281
81514W        W49932  28.610  12.241  13.944
81515W        W49933   8.721  25.541   5.208
81516W        W49934  24.085   9.158  10.514
81517W        W49935  30.507  32.981   4.631
81518W        W49936  16.105  39.810   1.825
81519W        W49937  27.654  43.343   3.154
81520W        W49938  26.604  12.650  12.398
81521W        W49939  12.754  34.976   2.400
81522W        W49940   0.315   6.771   0.346
81523W        W49941   9.848  11.771  12.566
81524W        W49942  19.687  24.717   3.157
81525W        W49943  33.579  37.058   2.325
81526W        W49944  10.383   7.779  13.523
81527W        W49945   9.748  13.612  12.536
81528W        W49946  23.235  18.208   1.900
81529W        W49947   9.263   6.914   4.186
81530W        W49948  42.931  33.959   1.733
81531W        W49949  16.595   8.180  14.358
81532W        W49950   2.917  16.664   4.708
81533W        W49951   4.415  42.455   4.167
81534W        W49952   8.398  21.681  11.390
81535W        W49953   6.843  35.012   2.389
81536W        W49954   6.239  22.527  11.022
81537W        W49955  24.976  17.105   4.288
81538W        W49956   2.810  39.382   2.771
81539W        W49957  34.403  16.251  11.927
81540W        W49958  13.292   4.245  14.959
81541W        W49959  40.373   6.234   2.732
81542W        W49960  27.177  22.703  11.855
81543W        W49961  16.603  29.667   3.220
81544W        W49962  40.003  29.928  14.324
81545W        W49963  36.028  34.601  13.978
81546W        W49964  34.967  40.496   2.711
81547W        W49965  19.663  12.362   4.717
81548W        W49966   8.764   8.300  14.476
81549W        W49967  38.990  13.627   3.830
81550W        W49968  39.943   9.688   1.354
81551W        W49969  12.355   9.184  10.913
81552W        W49970   2.324   3.257  10.043
81553W        W49971  15.770  43.275   2.264
81554W        W49972  42.881  16.777   2.392
81555W        W49973  30.951  26.665  12.367
81556W        W49974   5.784  36.552  13.794
81557W        W49975   5.215  30.577   3.324
81558W        W49976  14.650  31.008   4.313
81559W        W49977   8.878  19.773   1.770
81560W        W49978  43.958  28.107   0.924
81561W        W49979  33.057  25.114   1.787
81562W        W49980  29.946  14.244   1.251
81563W        W49981  13.706  13.132  14.983
81564W        W49982  29.040  41.826  13.041
81565W        W49983   5.928  24.070  10.948
81566W        W49984  40.944  20.722   4.777
81567W        W49985  44.462  18.551   4.796
81568W        W49986  11.773   3.318  14.310
81569W        W49987  31.559  28.011  11.514
81570W        W49988  25.648  41.955  13.937
81571W        W49989  10.167  29.968  13.055
81572W        W49990  10.261  35.893  11.077
81573W        W49991   9.845  29.623   3.743
81574W        W49992  33.381  32.947  10.595
81575W        W49993   2.388   6.212   3.747
81576W        W49994  35.429  17.118  14.874
81577W        W49995  31.494   1.773  11.045
81578W        W49996  19.092  31.518   4.151
81579W        W49997  30.158   4.738   0.881
81580W        W49998  36.980  32.915   4.678
81581W        W49999  37.530  27.554   4.319
81582W        W50000  11.627  23.215   1.279
81583W        W50001  25.964  13.627  14.867
81584W        W50002  38.571  40.884   2.859
81585W        W50003  11.260  16.141  13.840
81586W        W50004  38.492  40.969  13.845
81587W        W50005  19.285   3.294   2.184
81588W        W50006  26.953  11.770  11.453
81589W        W50007  33.547  25.093  11.934
81590W        W50008  44.329  11.666  12.402
81591W        W50009  11.179  21.239   0.303
81592W        W50010  13.759   1.443  10.545
81593W        W50011  24.003  22.022  13.062
81594W        W50012  22.153  42.515   4.346
81595W        W50013  17.238  37.959   0.829
81596W        W50014  23.577  12.343   0.904
81597W        W50015  37.023  20.149  13.432
81598W        W50016   8.900  17.593  14.436
81599W        W50017   9.186   3.946   3.783
81600W        W50018  16.232  19.603   4.794
81601W        W50019  29.427  12.857  13.051
81602W        W50020  43.495  39.508   0.431
81603W        W50021  11.327  30.513   1.912
81604W        W50022  41.989  13.765  13.049
81605W        W50023   1.389  25.529  13.541
81606W        W50024  30.005  43.351   4.694
81607W        W50025   4.371   7.699   2.676
81608W        W50026  12.723  28.113   0.920
81609W        W50027  25.992  44.270   1.343
81610W        W50028  11.139   7.902   4.116
81611W        W50029   5.415   5.197  13.506
81612W        W50030  11.810   3.906  10.927
81613W        W50031   3.893   5.352   4.811
81614W        W50032  17.280  11.836  13.387
81615W        W50033  19.090   8.278  14.943
81616W        W50034   1.914  17.069   0.266
81617W        W50035  31.148  17.773  10.525
81618W        W50036  36.006  17.739  13.028
81619W        W50037  18.677  34.058  13.425
81620W        W50038   9.645  43.481  11.105
81621W        W50039   4.320   8.220  10.456
81622W        W50040  13.317  15.748   2.701
81623W        W50041   7.206   7.742  10.446
81624W        W50042   3.845  29.982  11.974
81625W        W50043   7.225  43.410  12.528
81626W        W50044  15.209  23.085   4.139
81627W        W50045  23.608   9.781   3.185
81628W        W50046   4.808  18.218   0.905
81629W        W50047  17.109  19.700   2.812
81630W        W50048   3.887  24.033  12.419
81631W        W50049  20.739  40.401  12.096
81632W        W50050   1.854  20.593   5.157
81633W        W50051  31.419  44.769   0.946
81634W        W50052   0.752  29.438  14.768
81635W        W50053  14.735  40.388  14.354
81636W        W50054  40.854  18.736  11.128
81637W        W50055  19.681  18.745   3.262
81638W        W50056   0.401  22.620  13.960
81639W        W50057  10.240  26.105   0.958
81640W        W50058  37.903   5.794  10.544
81641W        W50059  35.546  11.287  12.030
81642W        W50060  42.404   7.372   0.849
81643W        W50061   6.922  41.331   0.950
81644W        W50062   9.886  39.374   3.290
81645W        W50063   4.215  18.201   1.353
81646W        W50064   8.321   3.290   2.296
81647W        W50065  42.844   6.204   1.859
81648W        W50066  18.210  25.553  13.361
81649W        W50067  42.987  25.495  12.562
81650W        W50068  35.963  28.485   3.352
81651W        W50069  16.305   4.358  14.909
81652W        W50070  17.658  18.548  11.987
81653W        W50071   0.331  25.106  12.560
81654W        W50072  44.968  30.977  11.551
81655W        W50073  26.520  37.961   2.839
81656W        W50074  37.986  33.904  12.918
81657W        W50075   5.226  19.255  12.559
81658W        W50076  30.594   9.233   3.842
81659W        W50077  26.699   1.261  14.875
81660W        W50078  19.615  19.161   3.347
81661W        W50079  17.290  18.769  14.912
81662W        W50080  16.119  33.510   2.713
81663W        W50081  16.267  35.971   2.376
81664W        W50082  40.929  42.441   2.378
81665W        W50083  30.472  28.101  14.353
81666W        W50084  11.201  33.972  14.967
81667W        W50085  34.984  20.096   1.267
81668W        W50086  15.673  32.958   1.350
81669W        W50087  24.517  32.928  13.923
81670W        W50088  18.125  15.630   3.842
81671W        W50089   6.212  15.088   2.848
81672W        W50090  16.205  28.557  13.822
81673W        W50091   1.968  23.238  14.026
81674W        W50092  35.074  16.154   0.937
81675W        W50093  40.914   8.170  14.435
81676W        W50094  33.534  18.295   0.741
81677W        W50095   6.229   8.267   1.882
81678W        W50096   2.794  26.071  10.960
81679W        W50097  21.145  41.494   4.186
81680W        W50098  33.447  28.010  10.444
81681W        W50099   5.263  35.008  11.060
81682W        W50100   8.827  35.044  14.961
81683W        W50101   3.322  24.662   0.361
81684W        W50102  39.949  11.708   3.357
81685W        W50103  36.948  29.087  13.414
81686W        W50104  43.515  26.692   1.423
81687W        W50105   9.718  23.239   2.386
81688W        W50106  13.147  17.733   1.417
81689W        W50107   3.720  27.595   2.887
81690W        W50108  44.952  11.820   5.625
81691W        W50109  17.188  35.546  13.019
81692W        W50110  40.961  22.503   1.213
81693W        W50111  42.931  42.961  11.534
81694W        W50112  38.939  39.053  13.467
81695W        W50113  13.829  42.031  11.917
81696W        W50114   6.199  37.549   5.238
81697W        W50115  20.243   3.434   2.852
81698W        W50116  28.090  18.597   4.258
81699W        W50117  24.526  34.903  10.515
81700W        W50118  15.259  21.030  11.935
81701W        W50119  21.546  13.835   2.342
81702W        W50120  31.567   2.451  14.958
81703W        W50121  21.587  42.886  12.360
81704W        W50122  16.082   2.798  11.480
81705W        W50123   8.805  26.174  12.070
81706W        W50124   9.362  28.591  14.420
81707W        W50125  41.294  37.931   4.617
81708W        W50126  40.824  20.182  14.493
81709W        W50127  12.834  26.049   1.874
81710W        W50128  39.938  25.205   4.697
81711W        W50129   1.924   5.908  10.951
81712W        W50130  15.758  31.984   2.708
81713W        W50131   1.765   2.859   3.311
81714W        W50132  14.725  18.159   3.159
81715W        W50133   9.254  20.107  13.354
81716W        W50134  35.460  26.962   3.171
81717W        W50135  13.648   6.909   3.714
81718W        W50136   9.198  11.812   1.333
81719W        W50137   2.818  42.828  12.063
81720W        W50138  26.095  37.383  14.435
81721W        W50139  28.640  43.938   2.749
81722W        W50140  38.048   0.936   4.258
81723W        W50141   6.226  17.074   4.136
81724W        W50142  21.049  35.562  10.477
81725W        W50143  17.638   2.342  14.790
81726W        W50144  26.156   8.699  10.472
81727W        W50145   1.361   9.186  14.318
81728W        W50146  19.736  30.111  13.519
81729W        W50147  19.744  24.136  11.555
81730W        W50148  33.951  43.396  11.855
81731W        W50149   0.814   4.770  12.964
81732W        W50150  29.642  31.131  11.103
81733W        W50151   2.353   9.387   0.427
81734W        W50152  23.585   6.796   1.866
81735W        W50153  26.058  29.159  14.001
81736W        W50154  40.411   7.266   0.959
81737W        W50155   6.906  10.207  12.486
81738W        W50156  22.086  38.032   3.649
81739W        W50157   4.437  44.433  14.024
81740W        W50158   2.852  19.579  11.999
81741W        W50159   1.344   0.453   1.366
81742W        W50160  38.047  39.341  11.118
81743W        W50161   5.332  21.733   4.829
81744W        W50162  11.684   1.321  14.961
81745W        W50163  30.438  36.883   3.688
81746W        W50164   9.331  27.687  14.902
81747W        W50165  40.481  27.959   2.857
81748W        W50166   2.378   1.966  10.436
81749W        W50167   4.893   7.798   4.227
81750W        W50168   3.446  18.734   3.697
81751W        W50169  30.035  37.364  10.921
81752W        W50170   2.828  40.469  13.480
81753W        W50171  22.058  31.560   4.793
81754W        W50172   6.770  22.668  11.039
81755W        W50173  40.323   9.247  13.846
81756W        W50174  34.529  34.594   0.957
81757W        W50175   6.389  40.853  12.385
81758W        W50176  14.713  24.702   1.252
81759W        W50177   3.851   3.336  10.564
81760W        W50178  43.873  33.969  13.037
81761W        W50179  21.529   4.339   3.776
81762W        W50180   1.948  12.765   3.830
81763W        W50181  27.125  16.300  12.891
81764W        W50182  39.879  30.498   1.744
81765W        W50183  20.722  41.519   4.161
81766W        W50184  43.307  10.775   3.741
81767W        W50185   9.752  34.966  11.513
81768W        W50186  25.164   1.352   0.889
81769W        W50187   5.889  13.184   3.749
81770W        W50188  11.188   3.713  10.467
81771W        W50189  29.031   2.258  14.863
81772W        W50190  32.596   3.760  10.417
81773W        W50191  10.784  35.019  14.929
81774W        W50192  28.939   4.912   4.206
81775W        W50193  24.064  27.001   0.359
81776W        W50194  36.419  17.697   0.793
81777W        W50195  18.210  34.094  12.497
81778W        W50196  26.952  31.464   0.832
81779W        W50197  42.944  42.848  13.974
81780W        W50198  11.747  40.899   0.387
81781W        W50199  40.424   7.326   1.884
81782W        W50200   9.654  29.517   4.753
81783W        W50201  43.451  29.456   1.346
81784W        W50202  22.521  27.011   3.747
81785W        W50203  33.528   2.350  11.930
81786W        W50204   1.923  37.387   2.236
81787W        W50205  11.791  27.646  13.039
81788W        W50206  23.141  12.823   4.256
81789W        W50207  40.460  24.691  12.863
81790W        W50208   1.331  35.551   3.816
81791W        W50209  25.107  33.036   2.329
81792W        W50210  39.926   5.283   1.301
81793W        W50211   6.740  24.011   0.422
81794W        W50212  44.330  31.520  12.848
81795W        W50213  42.929   6.258   3.806
81796W        W50214  18.759  15.665  14.935
81797W        W50215  18.787  30.136   0.826
81798W        W50216   8.221  40.422  12.467
81799W        W50217  23.500  10.648   4.802
81800W        W50218  16.696   8.198  11.038
81801W        W50219   9.249  22.639   3.839
81802W        W50220   3.932  16.250  10.929
81803W        W50221   3.755   3.418   3.785
81804W        W50222  11.159  41.447  12.473
81805W        W50223  14.623  16.200   1.364
81806W        W50224   5.904  42.303  14.409
81807W        W50225   0.332  22.163   9.498
81808W        W50226  41.384  11.198  12.061
81809W        W50227  26.677   6.401   1.743
81810W        W50228  13.251  20.170   4.730
81811W        W50229   9.695   6.295   3.825
81812W        W50230   2.266   4.887  11.598
81813W        W50231  17.193   7.869  12.387
81814W        W50232  26.647  33.003   2.211
81815W        W50233  23.497  41.469   0.745
81816W        W50234  11.367  15.322  14.779
81817W        W50235  22.706  29.497  11.375
81818W        W50236   1.889  39.556  11.612
81819W        W50237   7.233   7.409   4.257
81820W        W50238  30.493  38.936  11.606
81821W        W50239  22.665  35.995  11.387
81822W        W50240  21.530  14.733  12.344
81823W        W50241  20.576  35.445  14.438
81824W        W50242   4.927  31.038   3.767
81825W        W50243  39.420   9.387  13.980
81826W        W50244  27.126  21.656  14.972
81827W        W50245   6.302  30.521  10.979
81828W        W50246   0.279  31.511   3.306
81829W        W50247  40.813   4.395  14.872
81830W        W50248  19.218  42.364  10.558
81831W        W50249  34.508   5.901   0.734
81832W        W50250  18.559  15.213  11.093
81833W        W50251   2.951  14.250  11.946
81834W        W50252  31.490  35.896   2.301
81835W        W50253  11.681  12.272  13.329
81836W        W50254  20.743   0.470  11.855
81837W        W50255  11.772   7.860   4.736
81838W        W50256   2.379  15.201  11.571
81839W        W50257  23.077  22.111   0.346
81840W        W50258  30.423  31.909  14.339
81841W        W50259  22.708   8.846  14.943
81842W        W50260  31.116   2.782   4.148
81843W        W50261  43.277  11.729  13.491
81844W        W50262  35.019   6.214  13.372
81845W        W50263  38.895  16.142  11.888
81846W        W50264  41.917   2.359  10.438
81847W        W50265  10.756  19.233   3.777
81848W        W50266  12.818   2.913   2.797
81849W        W50267  15.661  38.851   1.842
81850W        W50268   6.763  21.647   0.741
81851W        W50269  21.048   8.771   5.294
81852W        W50270  10.289  34.899   3.350
81853W        W50271  29.108   7.358   0.862
81854W        W50272   9.756   6.830   1.324
81855W        W50273  14.094   4.251  14.429
81856W        W50274  40.477  15.167   3.771
81857W        W50275  43.417  23.003  13.848
81858W        W50276  22.550  24.169  13.463
81859W        W50277  29.539  41.902   3.244
81860W        W50278  36.536  27.951   4.309
81861W        W50279  21.736  13.209   3.760
81862W        W50280  29.107   9.177   4.651
81863W        W50281  14.132  41.029   3.290
81864W        W50282  36.937  27.648  13.357
81865W        W50283  43.789  30.016   4.182
81866W        W50284  34.444  19.088  14.430
81867W        W50285  20.274  24.589   3.832
81868W        W50286  10.828  14.126   1.736
81869W        W50287  30.450  42.331  13.945
81870W        W50288  18.602  42.797  12.904
81871W        W50289   5.384  28.955  11.001
81872W        W50290  44.980  31.628   4.214
81873W        W50291  39.964  12.749   1.796
81874W        W50292  24.499  15.153   0.323
81875W        W50293   8.889  18.736  14.943
81876W        W50294  33.007  34.994  13.973
81877W        W50295  18.719  24.062   2.241
81878W        W50296  37.377  42.316  12.444
81879W        W50297  32.607  33.491  14.369
81880W        W50298  10.673  20.710   4.758
81881W        W50299  33.103  15.314   3.855
81882W        W50300  19.104  44.994   1.328
81883W        W50301  16.113   8.197  14.465
81884W        W50302  11.741  20.182   3.148
81885W        W50303  38.026  37.430   2.898
81886W        W50304  14.141  32.564  13.836
81887W        W50305   3.338  40.945  14.772
81888W        W50306  32.572  32.561   4.276
81889W        W50307  14.741  14.293  11.041
81890W        W50308  11.718  35.919   2.219
81891W        W50309   3.780  43.942   4.243
81892W        W50310  36.546   1.294  11.081
81893W        W50311  14.205  40.434  10.586
81894W        W50312   4.348  27.645  11.053
81895W        W50313  23.626  10.793   1.399
81896W        W50314   4.296   1.777   0.937
81897W        W50315  11.157  27.643   3.282
81898W        W50316  15.101   4.302  10.069
81899W        W50317  29.489  17.249   1.426
81900W        W50318  39.549  29.554   4.258
81901W        W50319  39.474  12.243   3.386
81902W        W50320  22.557  12.828  13.545
81903W        W50321  22.544  44.415  11.460
81904W        W50322  15.088  38.916   4.657
81905W        W50323  30.500   8.346  11.112
81906W        W50324  20.681  13.191   4.341
81907W        W50325  37.468   8.323   2.272
81908W        W50326  32.912  22.510  14.834
81909W        W50327  11.647  33.877   4.220
81910W        W50328  34.482   4.341   3.344
81911W        W50329  27.483  30.612   3.349
81912W        W50330   9.372   3.456   2.344
81913W        W50331   4.219  20.605  10.598
81914W        W50332  17.687  37.948   4.836
81915W        W50333  11.314  19.172   0.866
81916W        W50334  40.033   9.308   1.931
81917W        W50335  29.971  31.487  13.516
81918W        W50336  16.169  32.904  12.384
81919W        W50337  18.266   3.915  13.427
81920W        W50338  40.305  30.958  12.043
81921W        W50339  26.074  31.524   1.245
81922W        W50340  23.598  40.446  14.878
81923W        W50341  40.351  36.077  11.942
81924W        W50342  26.600   4.331  14.369
81925W        W50343   1.886  16.255  11.575
81926W        W50344  12.280   5.764  14.428
81927W        W50345  41.375  30.061  11.985
81928W        W50346  37.949  44.435   3.336
81929W        W50347  18.141  22.639  12.524
81930W        W50348   0.377   8.853  13.382
81931W        W50349  32.897  34.028   3.330
81932W        W50350  24.038  41.800   0.366
81933W        W50351  22.528   6.395  14.949
81934W        W50352  28.660  16.089  12.899
81935W        W50353   3.741  11.867  11.379
81936W        W50354   0.461  40.328   4.269
81937W        W50355  32.907   1.465  14.776
81938W        W50356  38.929  30.909  13.902
81939W        W50357  20.142   6.870   1.450
81940W        W50358   7.714  15.631   2.186
81941W        W50359  29.008  29.474   4.278
81942W        W50360  18.064  39.411  11.553
81943W        W50361  42.869  36.435  14.457
81944W        W50362  38.356  16.291   1.238
81945W        W50363   6.751  43.499  11.046
81946W        W50364  20.269  39.872   4.286
81947W        W50365   4.831  15.707  11.029
81948W        W50366   7.775  15.629   0.838
81949W        W50367  17.578  10.705   0.757
81950W        W50368  11.724  41.002  14.443
81951W        W50369  22.166   7.894   3.185
81952W        W50370  26.488  32.616   4.717
81953W        W50371  33.108  38.374   1.427
81954W        W50372  20.153  25.546   3.199
81955W        W50373  40.933   3.321   3.822
81956W        W50374   9.303   1.429   0.960
81957W        W50375  26.111  35.998  13.388
81958W        W50376  19.069  16.075   4.231
81959W        W50377  26.479  38.034   3.673
81960W        W50378  27.673  35.574   2.338
81961W        W50379  10.677  33.400  14.819
81962W        W50380   3.279  40.464   0.738
81963W        W50381  17.296   7.202   3.299
81964W        W50382  37.425  38.949   3.339
81965W        W50383   8.325  40.054  12.035
81966W        W50384  24.672  38.844   0.856
81967W        W50385  29.439   4.426  12.465
81968W        W50386  28.528   4.795  11.959
81969W        W50387  15.705  43.368  11.029
81970W        W50388  24.606  36.571   0.844
81971W        W50389   3.778  25.503   0.316
81972W        W50390  37.494  34.479  10.570
81973W        W50391  32.114   4.746   3.359
81974W        W50392  21.641  11.208  12.018
81975W        W50393  31.572  26.693   4.254
81976W        W50394   8.763   9.667   2.741
81977W        W50395  28.679  23.494   0.944
81978W        W50396  27.140  40.937   3.869
81979W        W50397  13.341  37.996   4.149
81980W        W50398   2.273  44.429  13.981
81981W        W50399  17.305  13.289  11.975
81982W        W50400  10.166   2.739   1.382
81983W        W50401  13.754  22.516  13.994
81984W        W50402  23.582   5.285  14.770
81985W        W50403   4.434   1.284  14.418
81986W        W50404  40.354  14.335   4.238
81987W        W50405  44.958  28.545   0.947
81988W        W50406  39.024  27.144  11.539
81989W        W50407  17.750  17.753   0.877
81990W        W50408  29.937   1.285  12.831
81991W        W50409  25.591   7.681  13.827
81992W        W50410   3.272  17.205   0.263
81993W        W50411   9.167  42.888  11.907
81994W        W50412  37.432  39.866   4.312
81995W        W50413  22.667   3.773  11.098
81996W        W50414   5.834  27.494   4.658
81997W        W50415  10.360  31.435   2.896
81998W        W50416  37.561   6.697   2.896
81999W        W50417  29.487  27.163   1.210
82000W        W50418  29.600  40.926   1.298
82001W        W50419  28.638  31.520  14.984
82002W        W50420  15.299  15.207   1.876
82003W        W50421  38.481  20.616   4.741
82004W        W50422   1.455   0.837   4.138
82005W        W50423   3.891   4.211   1.847
82006W        W50424  32.474  18.706  13.804
82007W        W50425  13.682   0.453  10.500
82008W        W50426  26.633  15.778  12.441
82009W        W50427  13.724   0.842  11.121
82010W        W50428   1.938  16.157  13.019
82011W        W50429   8.901  11.167  14.285
82012W        W50430  11.650  12.314  14.424
82013W        W50431   7.807  11.819  11.871
82014W        W50432  12.855  13.674   3.748
82015W        W50433   1.949  22.074  13.985
82016W        W50434  12.348   0.906   2.684
82017W        W50435  14.120  26.186   2.717
82018W        W50436  33.608  22.147  11.505
82019W        W50437  14.269  39.948   2.731
82020W        W50438  20.550  13.780   2.854
82021W        W50439   9.661  38.413  11.498
82022W        W50440  29.659   5.303  14.388
82023W        W50441  18.645  18.074   0.758
82024W        W50442  25.965  27.036  14.832
82025W        W50443  11.781  22.173   4.760
82026W        W50444  35.462  29.651   0.275
82027W        W50445  20.165  16.803  11.558
82028W        W50446  22.569  43.878   4.782
82029W        W50447  42.023  18.250   4.690
82030W        W50448  37.408   1.798  10.036
82031W        W50449  16.648  28.971   4.717
82032W        W50450  25.561  42.849   5.106
82033W        W50451  24.116  43.868   1.891
82034W        W50452  17.299  15.137   4.603
82035W        W50453  11.685  10.870   0.392
82036W        W50454  18.135  12.780   2.179
82037W        W50455  24.659  26.630   4.117
82038W        W50456  26.480  39.061  10.582
82039W        W50457  40.407  31.577  12.577
82040W        W50458  42.892  28.551  11.091
82041W        W50459  40.044  12.300   0.396
82042W        W50460  10.802   9.155  14.804
82043W        W50461  37.061  35.895  11.599
82044W        W50462  24.060  27.634   3.662
82045W        W50463  39.014  10.192   0.378
82046W        W50464  16.238  37.555  10.631
82047W        W50465  33.073   6.768  12.921
82048W        W50466   6.841  16.073   2.357
82049W        W50467  39.961  22.040  13.334
82050W        W50468   1.280  20.692  10.551
82051W        W50469  25.151  38.473  14.942
82052W        W50470  21.745  26.991  10.475
82053W        W50471  28.437  14.661   2.376
82054W        W50472  31.049  13.726  12.375
82055W        W50473  22.117   1.397  10.473
82056W        W50474  11.280   0.897  14.513
82057W        W50475  24.008  22.708  11.998
82058W        W50476   0.976  30.654   3.838
82059W        W50477  39.381  20.117   0.286
82060W        W50478   1.732  20.200   3.319
82061W        W50479  37.942  32.563  11.858
82062W        W50480  30.537   1.842  12.483
82063W        W50481   5.406  28.457   1.909
82064W        W50482  17.704   8.250  12.064
82065W        W50483  14.754  18.565   1.832
82066W        W50484   5.435  17.112   4.169
82067W        W50485  37.020   8.357   3.155
82068W        W50486   2.289  38.823   2.749
82069W        W50487  38.504  28.625   4.327
82070W        W50488  32.923  37.890  13.896
82071W        W50489  27.618  16.643  13.912
82072W        W50490   2.744  16.080   1.882
82073W        W50491  32.467  11.207  12.867
82074W        W50492  15.285   8.796   1.900
82075W        W50493  37.058  10.698   3.251
82076W        W50494  14.749  24.602   2.265
82077W        W50495  27.017  35.915  12.017
82078W        W50496   6.834  39.457   4.641
82079W        W50497  36.862  36.915  14.941
82080W        W50498  17.152  12.624  10.465
82081W        W50499  38.493   9.261   2.702
82082W        W50500  44.756  42.797   1.896
82083W        W50501  18.115  15.823   2.337
82084W        W50502  22.503  13.655  12.577
82085W        W50503  34.424   2.441   1.813
82086W        W50504   9.819  15.747   0.867
82087W        W50505  14.184  38.895   0.895
82088W        W50506  44.986   5.316  11.609
82089W        W50507   8.879  23.137  13.423
82090W        W50508   5.748  37.963  12.851
82091W        W50509  35.036  12.639   3.302
82092W        W50510  41.336  27.471   4.747
82093W        W50511   6.337  43.393  12.580
82094W        W50512  33.543   0.389   3.184
82095W        W50513   8.787  37.421   3.685
82096W        W50514   6.705   9.854  10.593
82097W        W50515  12.625  37.988  14.785
82098W        W50516   5.691  18.678   3.867
82099W        W50517  31.410   5.890  14.914
82100W        W50518  36.433  15.755  14.417
82101W        W50519   3.328   9.795   2.743
82102W        W50520  28.142  40.865   3.218
82103W        W50521  26.622   8.818   5.317
82104W        W50522   1.302  10.714   2.340
82105W        W50523  39.357  28.622  12.086
82106W        W50524  12.815  17.779  13.479
82107W        W50525   4.408  30.583   2.670
82108W        W50526  31.624  20.077   2.378
82109W        W50527  40.370   0.943  10.128
82110W        W50528  15.248  26.525   1.358
82111W        W50529   2.913   5.730  11.449
82112W        W50530  39.862  32.942  14.904
82113W        W50531  39.887  30.088   3.800
82114W        W50532  22.009   1.877  14.833
82115W        W50533  32.913  16.086  13.489
82116W        W50534  14.159  24.123  11.070
82117W        W50535  12.786  26.537   2.350
82118W        W50536  29.026   5.282  13.038
82119W        W50537  11.209  12.727   1.790
82120W        W50538  21.575  12.243  13.489
82121W        W50539  13.313   1.893  14.369
82122W        W50540  22.180  28.513   0.778
82123W        W50541  35.977  31.145  12.052
82124W        W50542  35.489  24.496  10.481
82125W        W50543  41.903  34.442  11.497
82126W        W50544  35.534  20.038   3.799
82127W        W50545  12.642   1.281  13.999
82128W        W50546  13.750  28.151  12.512
82129W        W50547  29.526  15.656  12.425
82130W        W50548  11.247  38.500   0.755
82131W        W50549  34.383  31.151  14.282
82132W        W50550  20.634  37.430   3.819
82133W        W50551  12.347  42.496  10.908
82134W        W50552  33.618   8.736  14.964
82135W        W50553  40.410  39.385   2.327
82136W        W50554  35.531  13.671   1.227
82137W        W50555  36.406  40.315  10.138
82138W        W50556  35.454  24.610   1.818
82139W        W50557  11.660  14.164   0.884
82140W        W50558  26.128  32.426  11.979
82141W        W50559  15.163  40.409  10.442
82142W        W50560  30.119  31.517  11.576
82143W        W50561  32.977  35.474  10.486
82144W        W50562  34.927  21.198  11.505
82145W        W50563  19.694  34.456  13.936
82146W        W50564  19.164  25.475  11.055
82147W        W50565  26.566  32.498  10.627
82148W        W50566  36.855   6.783   3.734
82149W        W50567  14.721  41.033   0.770
82150W        W50568   5.332  44.293  10.450
82151W        W50569   4.816   0.321  14.011
82152W        W50570   5.408  34.006  14.279
82153W        W50571  11.695  34.590  13.366
82154W        W50572  38.418  20.242   0.407
82155W        W50573   2.284  33.950  11.087
82156W        W50574  12.669  30.020  10.616
82157W        W50575   3.458   8.875  14.969
82158W        W50576  16.163  24.637  12.071
82159W        W50577   1.819  22.605   2.225
82160W        W50578  30.440  36.062  10.632
82161W        W50579  37.017  13.699  12.531
82162W        W50580  41.438  18.209   2.201
82163W        W50581  24.134  15.590   4.726
82164W        W50582  24.217  14.718  13.997
82165W        W50583  34.049   9.225  12.035
82166W        W50584  26.042  24.494  10.634
82167W        W50585  37.986  43.953   4.639
82168W        W50586  21.190  32.908   4.651
82169W        W50587  19.641   4.397   2.731
82170W        W50588   2.832  34.004   0.388
82171W        W50589  14.601   2.751   3.224
82172W        W50590  33.624  35.912   0.454
82173W        W50591  21.647  13.746  12.438
82174W        W50592  41.009   1.275   4.296
82175W        W50593  34.482  24.599   4.705
82176W        W50594  32.952  24.159  11.924
82177W        W50595  19.196  23.585  14.337
82178W        W50596  10.168   8.678   4.291
82179W        W50597  26.152  41.430  12.033
82180W        W50598   4.328  30.937   3.633
82181W        W50599  38.344   0.907  13.950
82182W        W50600  15.589   7.182   4.604
82183W        W50601  21.207  12.252   3.360
82184W        W50602  31.503  13.324   1.874
82185W        W50603  31.003  37.444   0.821
82186W        W50604  33.441  10.281   0.301
82187W        W50605  35.555  26.540  13.905
82188W        W50606  40.028  38.031  13.361
82189W        W50607  40.848  44.977   0.880
82190W        W50608  27.623   0.274   1.825
82191W        W50609   8.220  36.893   3.769
82192W        W50610   2.264  39.420  14.442
82193W        W50611  37.355  36.538   2.866
82194W        W50612  39.019  13.282   2.832
82195W        W50613  24.565  20.037  13.922
82196W        W50614  17.268  19.729  14.935
82197W        W50615   6.297   0.889   0.876
82198W        W50616  17.779  36.393   3.665
82199W        W50617  16.132  31.544  10.602
82200W        W50618  22.694   6.286   3.325
82201W        W50619   2.955  38.853   2.788
82202W        W50620  22.629  27.481  10.454
82203W        W50621  39.911  29.009   1.399
82204W        W50622   5.693  27.619  12.341
82205W        W50623   4.387  44.984  12.364
82206W        W50624  26.580  28.482  14.894
82207W        W50625  28.474  15.233   4.680
82208W        W50626  40.052   4.341  12.963
82209W        W50627   6.235  37.048  12.914
82210W        W50628  15.790  18.113  13.400
82211W        W50629  11.311  16.074   4.315
82212W        W50630  41.396  41.030   1.767
82213W        W50631  27.033  15.114   2.727
82214W        W50632  19.108  39.475   0.769
82215W        W50633  11.214  31.528  14.835
82216W        W50634  23.644  15.195   3.704
82217W        W50635   2.932  42.883  14.486
82218W        W50636   0.796  32.530  14.899
82219W        W50637  39.433  24.724  10.989
82220W        W50638  18.149  21.530  11.599
82221W        W50639  36.358  10.216   5.240
82222W        W50640  19.082  24.507   5.221
82223W        W50641   8.718  36.035  13.453
82224W        W50642  43.452  25.625   0.864
82225W        W50643  42.890   8.188  14.340
82226W        W50644  35.470   7.701   2.363
82227W        W50645  13.715  12.773   0.261
82228W        W50646  42.998  22.633  10.509
82229W        W50647  18.716  43.874  12.389
82230W        W50648  37.029   5.336  12.377
82231W        W50649  26.458  16.244  14.425
82232W        W50650  30.042  10.251   0.291
82233W        W50651  21.098  19.684  11.875
82234W        W50652  25.475  35.390  14.964
82235W        W50653  28.635  30.525  12.895
82236W        W50654  11.198  32.596   1.865
82237W        W50655  20.574  15.708  14.305
82238W        W50656  10.293  43.884  11.865
82239W        W50657  32.582   3.379   4.624
82240W        W50658  38.866  15.292  13.863
82241W        W50659  43.813  28.604   1.232
82242W        W50660  16.682  35.038   1.289
82243W        W50661   6.920   5.198   0.743
82244W        W50662  16.738  24.065   0.738
82245W        W50663  16.577  12.800   2.686
82246W        W50664  37.871  39.503   3.731
82247W        W50665  20.687  25.519  12.527
82248W        W50666  40.006   2.252  11.450
82249W        W50667  30.139  25.532   2.834
82250W        W50668  32.398  32.530  13.539
82251W        W50669   3.248  33.106   3.174
82252W        W50670  26.669  11.324  11.610
82253W        W50671   8.274  16.780  14.976
82254W        W50672  39.049  13.830   4.233
82255W        W50673   4.792  43.479   0.446
82256W        W50674  37.901  15.701  14.968
82257W        W50675  17.556  13.633   2.831
82258W        W50676   7.703  18.648  13.538
82259W        W50677  13.157  36.525  13.055
82260W        W50678  14.236  11.136   4.328
82261W        W50679  28.160  31.490   3.725
82262W        W50680  16.211  13.794  13.878
82263W        W50681  21.127  12.171  13.864
82264W        W50682  14.769  16.656  12.463
82265W        W50683  21.589  23.032  14.025
82266W        W50684  15.678  39.968  14.770
82267W        W50685   0.895  44.796  12.410
82268W        W50686  18.738  16.794  12.371
82269W        W50687  18.190  20.170   2.851
82270W        W50688  34.471  19.707   0.457
82271W        W50689   8.339  28.510  12.358
82272W        W50690  25.523   7.347   3.163
82273W        W50691  22.065  10.279   4.714
82274W        W50692  42.814  35.986   0.947
82275W        W50693  10.273   9.314   2.405
82276W        W50694  31.040  30.519  11.987
82277W        W50695   2.433  26.695  12.900
82278W        W50696  31.044  44.487  10.627
82279W        W50697  14.784  42.923   1.822
82280W        W50698  38.839  15.176  10.408
82281W        W50699  21.256  14.787   5.127
82282W        W50700  11.650   0.916  14.853
82283W        W50701  11.641  21.559   0.895
82284W        W50702  15.820  30.475  14.873
82285W        W50703  24.697   7.332   0.329
82286W        W50704   4.740  39.913   1.389
82287W        W50705  37.906  43.020  14.493
82288W        W50706  33.481  13.351  13.353
82289W        W50707  34.392  19.073   0.738
82290W        W50708  19.088  41.983   4.249
82291W        W50709  25.972  17.087  11.530
82292W        W50710  24.606  25.700  10.595
82293W        W50711  42.796  20.670  14.308
82294W        W50712   6.199   4.224  14.385
82295W        W50713  20.633  30.644   0.836
82296W        W50714  33.119  34.049  12.395
82297W        W50715  40.848  17.627  14.994
82298W        W50716  23.195  34.375  11.961
82299W        W50717  10.798  22.636  13.360
82300W        W50718  17.195   1.288  10.415
82301W        W50719   8.732  37.496  10.577
82302W        W50720  29.482   0.302  12.062
82303W        W50721   8.806  12.362   3.333
82304W        W50722  22.596  25.044   1.731
82305W        W50723  21.181   4.223  12.046
82306W        W50724  10.742  38.979  13.520
82307W        W50725  36.860  40.389  12.339
82308W        W50726  30.021  21.645  12.997
82309W        W50727  32.522  28.443   2.253
82310W        W50728  19.152   1.282  13.863
82311W        W50729  21.180   4.287  12.510
82312W        W50730  37.063  27.603   4.658
82313W        W50731  35.857  26.585   3.800
82314W        W50732   3.278  33.483   4.158
82315W        W50733   2.766  10.748  12.523
82316W        W50734  10.755  23.017   4.655
82317W        W50735  32.957  28.004   3.674
82318W        W50736  26.995  15.329   0.468
82319W        W50737  43.486  31.422  14.015
82320W        W50738   0.884  29.101   0.457
82321W        W50739   2.425  19.127  13.884
82322W        W50740  39.847   2.242  14.497
82323W        W50741  31.530  28.121  11.015
82324W        W50742   6.692   2.319  13.875
82325W        W50743   9.204  32.475  14.392
82326W        W50744  39.489  36.869  10.981
82327W        W50745  30.121   5.374  13.853
82328W        W50746   7.220  24.065  12.934
82329W        W50747  20.740  44.820   0.391
82330W        W50748  10.292  34.520  14.000
82331W        W50749   6.210  32.494   3.694
82332W        W50750  44.812   3.231  13.794
82333W        W50751  41.973  38.943  14.997
82334W        W50752  38.865  24.076   1.920
82335W        W50753  37.546  34.029  14.853
82336W        W50754  14.132  31.515  10.136
82337W        W50755  11.649  44.982   4.122
82338W        W50756  24.719  20.095  10.410
82339W        W50757   3.327  19.271  13.527
82340W        W50758  32.614  33.930   4.708
82341W        W50759  18.558   5.225   1.755
82342W        W50760  27.540   0.331  13.369
82343W        W50761  10.754   5.905   1.445
82344W        W50762   3.424  19.537   1.295
82345W        W50763   4.247  12.845   3.320
82346W        W50764  15.195  32.418   2.672
82347W        W50765  23.240  25.207   4.801
82348W        W50766  15.298  33.882  13.420
82349W        W50767  42.901  17.305  11.396
82350W        W50768  22.059  21.645   4.215
82351W        W50769  24.602  23.022   1.398
82352W        W50770  23.159  28.125  10.437
82353W        W50771  28.107  13.809  10.612
82354W        W50772  40.468  36.515  10.634
82355W        W50773  23.006  14.686   0.310
82356W        W50774   0.430   6.880  11.434
82357W        W50775  25.112  28.129   2.314
82358W        W50776  18.285  14.675  11.503
82359W        W50777  42.469  26.024  13.933
82360W        W50778  31.105  38.527   0.801
82361W        W50779   1.289  22.551  14.387
82362W        W50780  23.148  22.079  11.002
82363W        W50781   6.846   7.828   2.414
82364W        W50782  20.661   2.786   2.262
82365W        W50783  28.519   8.212   4.772
82366W        W50784   4.365  29.594   2.395
82367W        W50785  39.002   7.221   1.805
82368W        W50786  26.087  25.622  12.388
82369W        W50787  22.118  35.901  11.009
82370W        W50788  23.045  35.536  10.568
82371W        W50789  44.402  42.910   3.223
82372W        W50790  20.562  37.336   4.685
82373W        W50791  29.650  27.003  13.479
82374W        W50792  43.019  25.580  11.544
82375W        W50793  32.542  37.578   3.335
82376W        W50794  19.122  11.191   2.899
82377W        W50795  24.702  13.612   0.827
82378W        W50796  11.837  13.623   0.397
82379W        W50797  23.712  26.058  10.988
82380W        W50798  40.000   8.844  13.447
82381W        W50799  17.670  30.485  11.872
82382W        W50800  36.465  39.059   3.648
82383W        W50801  44.478   4.363   9.986
82384W        W50802  13.814  34.413  11.583
82385W        W50803  12.189  21.687  11.501
82386W        W50804  13.192   0.427   4.624
82387W        W50805  41.499  24.208   2.336
82388W        W50806  36.899  28.933  12.527
82389W        W50807  12.233  10.721   1.864
82390W        W50808  44.383   2.964   4.258
82391W        W50809   3.779  28.974   1.831
82392W        W50810  24.491  42.792  11.556
82393W        W50811   6.259  38.982  11.956
82394W        W50812  15.300  12.344  11.393
82395W        W50813   5.702  37.380  13.420
82396W        W50814  36.056  32.977  12.532
82397W        W50815  43.407  32.044  12.580
82398W        W50816  29.069  28.617  11.497
82399W        W50817  41.449   2.959   2.857
82400W        W50818  18.103   4.845  12.545
82401W        W50819  16.571  24.187  12.382
82402W        W50820  20.118   3.885   1.337
82403W        W50821  21.542  26.616  11.977
82404W        W50822  28.544  20.740   4.703
82405W        W50823  39.488  23.995   3.678
82406W        W50824   4.430  43.377  12.965
82407W        W50825  29.161  24.134  13.006
82408W        W50826  14.614  21.731   4.661
82409W        W50827  26.151  23.001   4.207
82410W        W50828  26.138  41.874   0.437
82411W        W50829  17.580  28.078   2.225
82412W        W50830   4.778  30.160   4.608
82413W        W50831   0.744  22.685   1.932
82414W        W50832   8.349  11.220  10.575
82415W        W50833  16.133   9.381   0.333
82416W        W50834  19.138  14.631  11.385
82417W        W50835  30.520  10.800  13.427
82418W        W50836   5.755  34.883   3.337
82419W        W50837   6.252  36.944  14.291
82420W        W50838  44.779  30.088   0.346
82421W        W50839  26.600  25.175  13.336
82422W        W50840  23.709  25.091   3.193
82423W        W50841  42.483  29.037  13.835
82424W        W50842  44.893  13.350   0.924
82425W        W50843  18.276  12.816   3.227
82426W        W50844  24.023   8.756  12.845
82427W        W50845  18.777  21.157   4.303
82428W        W50846   4.266  10.331   4.327
82429W        W50847  42.876  25.474  14.481
82430W        W50848   4.865  24.661  11.050
82431W        W50849  36.431  31.435  12.889
82432W        W50850  37.902  22.100   3.687
82433W        W50851  21.519  34.499  11.597
82434W        W50852  13.783  24.064   4.692
82435W        W50853  10.285  15.687  13.535
82436W        W50854  14.106  39.037   3.735
82437W        W50855  10.790  38.004   3.374
82438W        W50856  21.735  15.177  11.934
82439W        W50857  10.310  21.029   1.320
82440W        W50858  40.475  29.451  11.032
82441W        W50859  44.936  22.157   4.747
82442W        W50860  15.588  33.515   5.142
82443W        W50861  11.645  21.595   3.334
82444W        W50862   4.214   6.896   4.137
82445W        W50863  35.050  18.658   1.417
82446W        W50864   2.446  43.351  10.473
82447W        W50865  17.576  24.042   3.757
82448W        W50866  16.105  14.238   1.903
82449W        W50867   3.420   3.360   0.373
82450W        W50868  13.689  25.183   3.831
82451W        W50869  33.107  20.180   0.298
82452W        W50870  20.036  40.025  12.422
82453W        W50871  39.903  42.843  10.447
82454W        W50872  33.592  10.678  10.557
82455W        W50873  37.865   6.724  12.912
82456W        W50874  36.579   9.157   0.355
82457W        W50875   5.296   5.892   1.847
82458W        W50876  22.210  27.469  14.451
82459W        W50877  31.499  31.074  14.950
82460W        W50878  41.445   0.902  11.469
82461W        W50879  30.570  23.496   3.713
82462W        W50880  16.610  25.710   3.165
82463W        W50881  38.548   5.215   2.736
82464W        W50882  41.032   0.874  14.912
82465W        W50883   8.769  22.060   3.690
82466W        W50884  39.928   8.323   4.699
82467W        W50885  24.981   4.913  10.892
82468W        W50886  27.652   4.282  12.021
82469W        W50887  35.511   5.371  12.837
82470W        W50888   5.407  11.285  13.814
82471W        W50889   1.860   8.254  11.421
82472W        W50890   1.828   3.337   1.221
82473W        W50891  20.715  34.090   1.719
82474W        W50892  20.547  13.659   3.343
82475W        W50893  10.327  20.110   2.211
82476W        W50894  43.343  25.472  14.811
82477W        W50895  14.732  20.586  13.949
82478W        W50896  35.467   9.253   1.395
82479W        W50897  25.158  41.879   5.214
82480W        W50898  22.996   3.790   4.259
82481W        W50899  29.084  22.525  12.090
82482W        W50900  42.952  25.103   1.818
82483W        W50901   7.244  20.054  13.872
82484W        W50902  29.548  11.690  13.062
82485W        W50903  13.760  39.039  11.529
82486W        W50904  20.109   2.792   3.247
82487W        W50905  18.607  18.584   2.218
82488W        W50906   9.684   1.738   4.628
82489W        W50907  41.881  39.819  11.371
82490W        W50908  11.199   6.913   3.705
82491W        W50909  24.081  41.472  13.058
82492W        W50910  20.693  24.693  13.351
82493W        W50911  27.555   8.654   0.833
82494W        W50912   8.714  14.686  10.624
82495W        W50913   4.373  13.337  11.947
82496W        W50914   8.822  16.095   0.311
82497W        W50915  36.567   4.826   3.702
82498W        W50916   3.353   0.935   0.456
82499W        W50917  21.556  13.115   0.421
82500W        W50918  44.756   1.419   0.425
82501W        W50919  10.768   5.881  11.440
82502W        W50920  42.452   0.905   2.263
82503W        W50921  35.567   3.271  10.041
82504W        W50922  43.867  19.720  13.355
82505W        W50923  32.560   2.817   4.347
82506W        W50924  38.400  41.381  13.806
82507W        W50925  42.373  10.195  13.919
82508W        W50926  32.096  39.551  13.470
82509W        W50927  17.307   4.708   5.123
82510W        W50928  11.711   9.356   2.741
82511W        W50929   5.902  27.673   0.900
82512W        W50930   5.424  43.881   3.306
82513W        W50931  13.627  25.647   1.449
82514W        W50932  11.183  14.705   3.159
82515W        W50933  32.569   0.839   1.373
82516W        W50934  32.539  16.782  13.509
82517W        W50935  42.426  30.546   0.946
82518W        W50936  29.938  22.241   3.288
82519W        W50937  10.375  13.675   3.825
82520W        W50938   5.419  14.791   4.662
82521W        W50939  32.399  34.006   0.869
82522W        W50940   2.265   7.385   4.804
82523W        W50941  13.289   2.836  14.339
82524W        W50942  39.434  35.501   2.254
82525W        W50943   5.196  43.405  11.459
82526W        W50944   9.351  23.056  12.489
82527W        W50945  32.422  23.610  14.508
82528W        W50946  28.603  11.269   3.717
82529W        W50947   7.810   7.371   3.358
82530W        W50948  40.491   6.425   1.771
82531W        W50949  41.536  44.957   3.266
82532W        W50950  30.483  43.794   0.819
82533W        W50951  33.544  10.269   0.955
82534W        W50952   9.715   5.286  12.980
82535W        W50953   8.337   4.401  10.622
82536W        W50954  11.248  26.151  14.957
82537W        W50955   1.901  33.117   3.184
82538W        W50956   3.854  18.621   2.324
82539W        W50957  26.010  23.043  10.628
82540W        W50958   5.420  15.206  11.914
82541W        W50959  28.118   3.856   2.705
82542W        W50960  14.175  19.050  10.432
82543W        W50961  35.579  42.809   0.900
82544W        W50962  14.768  14.798  14.427
82545W        W50963   0.809  11.773   2.857
82546W        W50964   2.366  37.509  14.350
82547W        W50965  23.657  22.685   0.371
82548W        W50966  16.192  24.500   1.375
82549W        W50967   3.428  25.042  11.070
82550W        W50968  18.153  44.936   1.735
82551W        W50969   0.961  44.763  10.418
82552W        W50970   8.323  18.583   0.398
82553W        W50971  13.213  30.996  12.457
82554W        W50972  35.905  14.766  14.898
82555W        W50973  42.363  35.974   2.667
82556W        W50974  21.238  15.730   4.710
82557W        W50975   2.412  37.432   3.347
82558W        W50976  19.119  20.125   0.478
82559W        W50977  31.602  21.017   4.674
82560W        W50978   6.866   7.888   1.291
82561W        W50979  43.764  41.981  12.380
82562W        W50980  14.772  28.933   2.754
82563W        W50981  17.609   1.469   4.149
82564W        W50982   8.273  17.757  14.344
82565W        W50983  34.090  15.797   4.788
82566W        W50984  18.158   7.350   3.845
82567W        W50985  21.551  10.691  12.378
82568W        W50986  20.253   0.249  10.529
82569W        W50987   6.342  27.556  12.531
82570W        W50988  10.292  26.667  10.993
82571W        W50989  20.526  18.577  13.932
82572W        W50990  33.566  22.543  11.076
82573W        W50991   9.307  31.575  13.920
82574W        W50992  33.419  26.465   5.284
82575W        W50993  31.532  27.644  12.408
82576W        W50994  10.292   7.186   1.912
82577W        W50995  11.856   9.198   0.879
82578W        W50996  26.681  38.338   0.915
82579W        W50997  18.773  29.929  11.924
82580W        W50998  35.465  26.480   4.674
82581W        W50999  41.375   1.875   0.740
82582W        W51000   5.259  11.821   1.279
82583W        W51001  29.952  41.507   1.732
82584W        W51002  31.431  15.643  13.941
82585W        W51003  28.675   4.818   3.725
82586W        W51004  16.246  17.201   1.701
82587W        W51005   6.819  34.864  13.447
82588W        W51006  39.973  13.719  12.888
82589W        W51007  24.536  25.517  12.562
82590W        W51008  20.601  43.928   1.235
82591W        W51009   4.802  18.577  12.873
82592W        W51010  22.144  29.059  13.962
82593W        W51011  15.209  16.698  11.456
82594W        W51012   7.380  43.010   3.652
82595W        W51013   0.908  12.138   2.364
82596W        W51014  44.786   7.862  13.854
82597W        W51015  22.627   4.833  14.378
82598W        W51016  39.542  31.615   4.637
82599W        W51017  22.073  29.001  11.545
82600W        W51018  17.591   0.862   3.769
82601W        W51019   0.285  31.460   3.652
82602W        W51020   3.370  33.937  10.596
82603W        W51021  37.042  39.472   1.713
82604W        W51022  40.847  27.536   0.427
82605W        W51023  31.604  30.651  11.417
82606W        W51024  37.529  36.021   3.302
82607W        W51025  37.003  42.941   1.322
82608W        W51026  20.214  28.609  10.468
82609W        W51027  20.558  11.824   2.236
82610W        W51028  19.560  24.480   4.748
82611W        W51029  15.287  21.522   4.645
82612W        W51030  16.718  21.600  14.414
82613W        W51031  41.449  13.775  13.977
82614W        W51032  35.472   2.472  12.047
82615W        W51033  30.945  21.627   0.730
82616W        W51034  19.214  12.331  11.895
82617W        W51035  10.856  28.010  10.083
82618W        W51036  43.918   4.740  14.306
82619W        W51037  28.531   5.831   3.715
82620W        W51038  28.059  25.033  13.403
82621W        W51039  30.059  14.256   0.794
82622W        W51040  35.070  23.988   0.482
82623W        W51041   8.791  29.509   0.822
82624W        W51042  29.154  33.572   3.221
82625W        W51043  35.456  35.947  14.448
82626W        W51044  39.541  44.858  13.029
82627W        W51045  24.613  12.688   0.460
82628W        W51046  36.078  41.819  12.537
82629W        W51047  27.004  38.937  14.930
82630W        W51048  40.885  24.996   4.682
82631W        W51049  14.257  19.722  14.283
82632W        W51050   8.868  19.612  13.940
82633W        W51051  21.729  32.042   2.841
82634W        W51052   9.843  44.905   3.772
82635W        W51053   5.746  33.917  14.337
82636W        W51054   0.400  26.016  11.467
82637W        W51055  42.289  18.178   4.212
82638W        W51056  33.514  38.859   3.336
82639W        W51057  21.246  42.869   0.860
82640W        W51058  41.406  34.001  13.497
82641W        W51059  31.029  41.522  10.003
82642W        W51060  24.984  25.120  11.102
82643W        W51061  12.762   2.296  11.511
82644W        W51062  24.020  43.404   3.234
82645W        W51063  17.726  17.080   2.339
82646W        W51064  25.079  32.559  14.305
82647W        W51065   3.417   6.705   4.207
82648W        W51066  44.907  26.684   0.893
82649W        W51067  18.061  21.140  10.505
82650W        W51068  18.743  41.384   2.690
82651W        W51069   1.796  42.829   3.376
82652W        W51070  36.348  13.732   4.784
82653W        W51071  37.952  20.609  14.279
82654W        W51072  36.462  22.108  12.532
82655W        W51073  22.706   4.869  11.016
82656W        W51074  16.754  15.324   2.323
82657W        W51075  32.569   5.239  10.599
82658W        W51076  15.268  12.838  13.039
82659W        W51077  35.922  38.065  12.437
82660W        W51078  40.364   7.261   3.684
82661W        W51079   7.364   4.440   0.940
82662W        W51080  24.189  40.519   4.733
82663W        W51081  22.035  39.957   3.295
82664W        W51082  17.802   8.390   0.293
82665W        W51083  25.186  25.471  10.960
82666W        W51084  42.455  11.248  12.938
82667W        W51085  24.034  21.614   0.300
82668W        W51086  42.443  40.928   2.807
82669W        W51087  11.159   3.371  11.040
82670W        W51088  28.073  35.892  13.959
82671W        W51089  37.088   6.791   0.777
82672W        W51090   8.358  31.623  13.798
82673W        W51091  28.983  17.112  13.930
82674W        W51092  21.734  21.734   2.402
82675W        W51093  36.948  19.230   1.749
82676W        W51094   5.204  29.921   1.374
82677W        W51095   7.899  20.262   4.780
82678W        W51096  17.642  42.375  12.851
82679W        W51097  30.540  29.989   0.382
82680W        W51098  42.413  33.883  12.967
82681W        W51099  30.926   4.838   1.745
82682W        W51100   8.289  42.359   0.753
82683W        W51101  26.457  31.112   4.721
82684W        W51102   5.817  37.386  10.599
82685W        W51103  38.494  37.386  14.377
82686W        W51104  17.662  40.328  14.934
82687W        W51105   1.949  15.163  11.963
82688W        W51106  18.163   1.746  13.328
82689W        W51107  14.716   9.277   1.760
82690W        W51108  32.549   0.375  11.868
82691W        W51109   4.815  17.766   1.833
82692W        W51110  35.511  13.735   0.798
82693W        W51111  15.300   6.908  11.930
82694W        W51112   4.319   9.245  14.400
82695W        W51113  32.025  39.857  10.487
82696W        W51114  30.126  15.190  12.427
82697W        W51115   6.698   7.417  12.026
82698W        W51116  41.441  43.861  12.454
82699W        W51117  27.137  23.503  14.351
82700W        W51118   7.265  25.656   4.173
82701W        W51119   0.399  41.922   1.233
82702W        W51120  15.803  16.118  13.862
82703W        W51121  35.565  44.290  13.937
82704W        W51122  13.790  38.894  14.478
82705W        W51123  14.797  19.110   0.318
82706W        W51124  40.524  39.033  11.019
82707W        W51125  39.961  36.440   1.356
82708W        W51126  18.219   1.255  11.911
82709W        W51127  22.645  42.340  11.059
82710W        W51128   1.928   3.931   1.421
82711W        W51129  27.475  29.454  13.884
82712W        W51130  33.033  30.533   3.320
82713W        W51131  27.538  36.524  14.786
82714W        W51132  10.277   5.408   2.679
82715W        W51133  39.905  36.373  11.107
82716W        W51134  10.636  16.720   0.383
82717W        W51135  38.982  38.849   1.722
82718W        W51136   7.303  29.608  14.489
82719W        W51137  35.045   5.370  14.980
82720W        W51138  18.725  16.135   2.826
82721W        W51139  16.677  36.095  14.948
82722W        W51140  28.438   0.290   1.226
82723W        W51141  27.085  29.053   2.317
82724W        W51142   6.891  21.613  12.877
82725W        W51143  20.622  41.463  13.384
82726W        W51144  12.362  38.342  11.436
82727W        W51145  40.925   6.876   1.696
82728W        W51146  30.057  35.101  14.977
82729W        W51147  27.457  22.586   4.259
82730W        W51148  43.972  15.086  10.638
82731W        W51149   1.381  29.129   1.299
82732W        W51150  33.619  24.684  11.929
82733W        W51151  28.042  35.875  12.561
82734W        W51152  36.416  15.093  13.811
82735W        W51153  23.686  26.637  10.938
82736W        W51154  25.209  38.394  14.443
82737W        W51155  37.934  11.724  13.939
82738W        W51156  33.483  32.979   1.272
82739W        W51157  14.671   8.778  11.463
82740W        W51158  43.368  14.340  12.968
82741W        W51159   1.754   3.755   1.829
82742W        W51160   0.909  12.834   2.260
82743W        W51161   1.320  25.005   0.361
82744W        W51162  19.750  11.728  13.357
82745W        W51163  10.783  33.030  10.414
82746W        W51164  44.474  11.757   3.845
82747W        W51165   3.905   0.915   2.300
82748W        W51166  18.176  21.727   1.834
82749W        W51167  21.261  15.175   3.645
82750W        W51168  37.488  32.600   1.419
82751W        W51169  12.697  40.045  12.853
82752W        W51170  29.634  42.910   0.342
82753W        W51171  36.435  37.490   2.712
82754W        W51172  23.985  44.302  11.451
82755W        W51173   7.879  11.798   0.291
82756W        W51174  44.500  20.089  13.812
82757W        W51175  35.568  10.191  13.845
82758W        W51176   7.377   6.852   3.337
82759W        W51177   7.699   6.349  13.919
82760W        W51178  13.342  36.935   1.737
82761W        W51179  17.197   0.872  12.455
82762W        W51180   2.438  36.353  11.111
82763W        W51181  11.178  40.891  14.461
82764W        W51182   4.810  20.072  11.408
82765W        W51183   1.288  42.282  14.878
82766W        W51184   0.840  24.652   3.777
82767W        W51185  22.692  41.005   0.303
82768W        W51186  27.463  12.290  10.506
82769W        W51187  27.571  29.940  14.913
82770W        W51188  15.766  32.485  10.629
82771W        W51189  43.324   4.360  12.036
82772W        W51190  28.119  21.649   0.900
82773W        W51191  23.153  15.203   4.825
82774W        W51192   1.479  42.944  12.082
82775W        W51193   0.757  42.794  11.584
82776W        W51194  38.908  11.861  11.005
82777W        W51195   4.920  11.369  11.060
82778W        W51196  10.347  44.461   2.881
82779W        W51197   7.757  10.305   4.305
82780W        W51198  15.735  29.427  11.489
82781W        W51199  39.400  17.098   4.749
82782W        W51200  30.623  37.438  13.856
82783W        W51201  11.667  25.620  13.471
82784W        W51202   6.303  30.456   1.409
82785W        W51203  41.376  25.693  12.940
82786W        W51204  36.372  39.822   1.766
82787W        W51205  20.523   3.766   2.380
82788W        W51206  18.203  35.084   1.882
82789W        W51207  31.997  29.091  10.641
82790W        W51208   9.303   8.189   4.202
82791W        W51209  22.007  42.911   2.685
82792W        W51210  18.296  28.108  10.445
82793W        W51211  15.216  16.784  10.972
82794W        W51212   5.866  36.007   3.166
82795W        W51213   9.296  16.182  13.923
82796W        W51214  44.959   9.201  12.934
82797W        W51215  14.807  15.694  11.448
82798W        W51216  29.546  29.632   2.282
82799W        W51217  41.335  32.519  13.409
82800W        W51218  36.470   4.857  11.586
82801W        W51219  28.082  14.629   3.731
82802W        W51220   0.852  23.191  14.826
82803W        W51221   6.834   9.376   3.765
82804W        W51222  20.157   6.902  13.877
82805W        W51223  18.081   5.293  10.426
82806W        W51224  36.079  31.036  13.893
82807W        W51225  32.098  36.380   3.697
82808W        W51226  32.544  34.021  12.558
82809W        W51227  20.673   8.814   0.428
82810W        W51228  39.018  24.222  12.835
82811W        W51229  41.973  21.202  13.537
82812W        W51230   5.379   1.957  12.051
82813W        W51231  13.604  29.082  10.406
82814W        W51232   6.404  14.326   3.203
82815W        W51233   5.840  32.431  11.387
82816W        W51234  23.523  28.163  12.372
82817W        W51235   2.792  36.977  12.829
82818W        W51236  39.061   5.933   9.971
82819W        W51237  29.924  21.748   4.725
82820W        W51238  31.915  36.083  11.005
82821W        W51239  27.010  22.032  13.381
82822W        W51240  20.679  11.656  10.503
82823W        W51241  25.060  42.464   1.318
82824W        W51242  16.677   1.973   2.419
82825W        W51243  18.682  36.437  13.944
82826W        W51244  38.022  39.521  11.438
82827W        W51245  36.581  21.115  12.506
82828W        W51246  18.559  20.123   4.804
82829W        W51247  14.173  18.616  14.278
82830W        W51248   1.835   1.446  11.517
82831W        W51249  31.507  25.156  10.569
82832W        W51250  12.811  40.404  14.874
82833W        W51251  15.741  11.691  10.585
82834W        W51252   1.438   7.765  11.925
82835W        W51253  28.474  11.795   4.664
82836W        W51254   0.867   5.328  12.499
82837W        W51255  29.937  28.930  13.858
82838W        W51256  24.664  13.830  10.608
82839W        W51257  31.057  24.128  11.891
82840W        W51258   4.344   3.954   3.773
82841W        W51259   6.325  43.997   3.867
82842W        W51260   8.256  22.192  13.384
82843W        W51261  10.246  36.541  10.472
82844W        W51262   0.938  41.511   0.282
82845W        W51263  41.326  29.455   0.738
82846W        W51264  12.619  40.889   2.364
82847W        W51265   2.941  20.097  14.410
82848W        W51266   8.830  18.648  13.881
82849W        W51267  15.738   6.883  12.021
82850W        W51268   4.798  10.292  11.072
82851W        W51269   8.892   1.800   1.890
82852W        W51270  14.731   2.260   4.711
82853W        W51271  11.291  19.172  14.864
82854W        W51272  23.637  31.420  13.814
82855W        W51273  16.704  17.565  10.971
82856W        W51274   9.179  11.793   2.404
82857W        W51275  23.165  19.655   2.248
82858W        W51276  35.080  43.398   0.930
82859W        W51277  20.756  35.980  10.964
82860W        W51278   5.355  42.987  10.967
82861W        W51279  28.178  15.123   4.270
82862W        W51280  30.629  42.912   1.805
82863W        W51281   8.876  15.584   4.832
82864W        W51282  44.777   9.382  11.859
82865W        W51283  38.926  36.045   1.419
82866W        W51284  36.040  37.379   2.287
82867W        W51285   2.425   7.837   1.741
82868W        W51286   2.386   9.679   2.681
82869W        W51287  12.800   2.303   3.820
82870W        W51288   5.909  27.507   2.708
82871W        W51289  35.908   3.711  13.057
82872W        W51290   5.373  31.972  10.890
82873W        W51291  13.655  37.489  10.972
82874W        W51292  34.535  37.892   4.820
82875W        W51293  15.769   4.328   4.142
82876W        W51294   6.861  10.331   0.263
82877W        W51295  18.220   6.374  14.442
82878W        W51296  44.269  21.533  12.832
82879W        W51297  36.028  22.538   3.797
82880W        W51298  41.455  37.920   0.359
82881W        W51299  14.216  40.518  12.018
82882W        W51300  26.615   2.852  12.069
82883W        W51301  44.882   2.876  14.948
82884W        W51302  20.240  36.026   3.226
82885W        W51303  11.722  16.749  14.981
82886W        W51304  11.257  13.759  13.932
82887W        W51305  26.072  14.253  13.427
82888W        W51306  39.497  19.117   0.361
82889W        W51307  11.318  43.452   2.279
82890W        W51308  41.456  22.703   4.725
82891W        W51309  13.310   8.382  14.926
82892W        W51310  19.689  40.943   2.768
82893W        W51311  31.510  14.686   3.784
82894W        W51312  38.543   8.368   1.733
82895W        W51313  26.627  24.980   0.748
82896W        W51314  33.059   3.877  14.283
82897W        W51315   2.394   3.825   2.349
82898W        W51316   5.917   3.783   0.800
82899W        W51317  14.814  39.521   0.849
82900W        W51318  42.969   1.784  12.353
82901W        W51319   2.315  20.524  13.444
82902W        W51320  36.578  20.247  12.976
82903W        W51321  42.471  38.895   3.709
82904W        W51322   5.801  33.025   2.322
82905W        W51323  31.064  40.428   1.848
82906W        W51324  18.112  40.029  14.974
82907W        W51325  33.029  42.982   4.343
82908W        W51326  36.448  42.294  12.910
82909W        W51327  31.932   0.957   0.366
82910W        W51328  11.202  23.109   4.240
82911W        W51329  22.128  31.504   0.424
82912W        W51330  29.465  16.309  13.476
82913W        W51331   5.343   4.870   0.443
82914W        W51332  31.938   8.678   1.916
82915W        W51333   1.751  17.070  11.509
82916W        W51334  43.394  18.284  10.550
82917W        W51335  38.922  36.945  11.934
82918W        W51336  17.228  15.701   5.195
82919W        W51337  37.461  42.992   3.790
82920W        W51338  23.087  22.599  12.886
82921W        W51339  28.460  27.621  11.927
82922W        W51340  23.518  35.502  11.437
82923W        W51341  11.355  33.055  11.592
82924W        W51342  25.597  10.704  14.366
82925W        W51343   9.875   6.870  12.381
82926W        W51344  20.734  43.811   2.247
82927W        W51345  14.326  44.418  14.441
82928W        W51346  18.767  20.087  14.833
82929W        W51347  14.314  28.062   4.237
82930W        W51348  37.442   6.225   0.810
82931W        W51349   6.697  32.545  12.404
82932W        W51350  34.567  32.575  12.901
82933W        W51351  17.265  16.758   3.250
82934W        W51352  44.418  23.162   9.956
82935W        W51353  20.140  14.770  12.463
82936W        W51354   0.359  24.102  12.546
82937W        W51355  33.084  25.185  14.993
82938W        W51356  40.466  37.830  13.833
82939W        W51357  28.448  16.272   4.302
82940W        W51358  35.490  12.775  11.055
82941W        W51359  14.208   5.928   5.115
82942W        W51360   5.320   5.209   0.438
82943W        W51361  12.165  23.599   3.191
82944W        W51362  22.651  12.795  10.915
82945W        W51363   9.786   7.902   4.610
82946W        W51364   9.835  24.980  13.494
82947W        W51365  35.887   7.799   3.832
82948W        W51366  34.391  33.113  10.544
82949W        W51367  34.369  43.914   1.433
82950W        W51368  21.563  15.774   9.929
82951W        W51369   2.887  44.753  12.518
82952W        W51370  34.500  44.428  12.453
82953W        W51371  27.174  29.164   3.763
82954W        W51372  30.450   0.765  11.509
82955W        W51373  33.036  15.610  10.610
82956W        W51374  36.557  29.060   0.473
82957W        W51375  18.787  41.889   2.743
82958W        W51376  34.592  21.634   1.805
82959W        W51377  36.895   2.934   0.850
82960W        W51378  11.344  30.099   4.298
82961W        W51379  17.250  33.047   2.380
82962W        W51380  30.100   7.723  12.558
82963W        W51381  32.012  34.977   4.618
82964W        W51382  40.526   5.836  12.882
82965W        W51383   2.285  13.312   2.316
82966W        W51384  29.985  17.139  11.974
82967W        W51385  38.013  43.393  10.619
82968W        W51386  35.981  21.613  13.310
82969W        W51387   7.686   3.429   4.196
82970W        W51388  36.876  24.537   0.409
82971W        W51389  17.571  37.910   3.170
82972W        W51390  44.892  12.352  11.099
82973W        W51391  30.910  14.314   4.279
82974W        W51392  24.017  18.614   4.339
82975W        W51393  18.180   7.742  12.913
82976W        W51394  24.081   2.841  10.461
82977W        W51395  26.697  35.959   2.826
82978W        W51396  43.283  13.258  14.346
82979W        W51397  40.452   0.886   1.259
82980W        W51398  37.408  33.893  14.357
82981W        W51399  22.734  40.528   5.699
82982W        W51400  40.364  36.959  10.487
82983W        W51401  15.291  39.392  11.042
82984W        W51402  38.033  23.654   4.234
82985W        W51403  35.358  18.787   0.243
82986W        W51404  14.136  41.524   0.747
82987W        W51405  15.726  16.752   3.162
82988W        W51406  26.701  42.477  12.026
82989W        W51407  42.422  40.322  12.574
82990W        W51408  25.110   6.752   4.776
82991W        W51409  40.833  15.638  13.363
82992W        W51410  42.312  22.528  13.423
82993W        W51411  32.902  23.183   3.646
82994W        W51412  35.557  28.106  10.898
82995W        W51413  24.503  31.049   3.359
82996W        W51414  10.256  43.881  10.464
82997W        W51415   8.823  34.084   2.861
82998W        W51416  38.047  16.600  13.996
82999W        W51417   1.241  33.904   2.853
83000W        W51418  37.344   7.385  11.964
83001W        W51419  15.307  10.835  12.429
83002W        W51420  22.097  39.384   3.304
83003W        W51421  26.518   5.772   1.324
83004W        W51422  39.987  28.129   4.748
83005W        W51423  35.427  41.870   2.757
83006W        W51424  39.814  32.959  14.338
83007W        W51425  42.940  13.239   3.668
83008W        W51426   9.870  30.473  10.515
83009W        W51427  32.457  39.438   4.128
83010W        W51428  23.561  30.473  11.551
83011W        W51429   3.733  37.387  14.824
83012W        W51430  35.027  19.760   0.751
83013W        W51431   5.418  25.527   3.665
83014W        W51432  30.650   6.873   2.678
83015W        W51433  24.179   9.165  14.900
83016W        W51434  18.556  17.773   0.953
83017W        W51435   5.692   8.892   9.992
83018W        W51436  13.174  23.114   2.678
83019W        W51437   0.847  20.737   3.809
83020W        W51438  17.211  35.944  14.441
83021W        W51439  12.146  34.087   3.817
83022W        W51440  18.742   3.739   0.790
83023W        W51441  19.221  37.472   0.311
83024W        W51442   7.910  15.263  11.946
83025W        W51443  34.045   1.339  14.857
83026W        W51444  31.925   3.850   1.309
83027W        W51445  30.491   0.888   0.268
83028W        W51446  41.417  13.226  15.000
83029W        W51447  15.254  39.536   2.348
83030W        W51448  17.084  15.654  10.070
83031W        W51449  40.466  40.412  13.480
83032W        W51450   4.765   4.210   4.198
83033W        W51451  29.615   0.785  14.418
83034W        W51452   8.665  33.496   2.341
83035W        W51453  37.863   9.665  10.476
83036W        W51454  28.647  19.743  12.899
83037W        W51455   8.802  15.733   2.399
83038W        W51456  12.809  31.616   4.650
83039W        W51457  13.632  14.818   3.231
83040W        W51458  36.848  27.005   2.818
83041W        W51459  27.019  38.378   1.331
83042W        W51460   0.878  43.993   3.778
83043W        W51461   2.861  14.201  11.399
83044W        W51462  32.137   4.356  12.856
83045W        W51463  23.987  29.595   0.380
83046W        W51464  11.733  29.144  11.015
83047W        W51465  12.654  24.680   3.344
83048W        W51466  34.970  17.706   0.283
83049W        W51467  30.141  34.407  12.451
83050W        W51468  25.022  40.878  13.499
83051W        W51469   2.285  16.571  12.860
83052W        W51470  15.101  13.282  14.006
83053W        W51471  41.889  14.283   4.201
83054W        W51472   2.818   6.365   3.159
83055W        W51473  11.675  36.545  10.420
83056W        W51474  14.267  35.080  11.043
83057W        W51475   3.948  13.154   2.237
83058W        W51476  27.690  17.639   2.819
83059W        W51477  35.517   4.378   3.646
83060W        W51478  12.152  35.101  13.362
83061W        W51479  31.107  15.815   0.899
83062W        W51480  30.977  28.052  10.406
83063W        W51481  19.269  12.339   3.704
83064W        W51482  19.663  27.137  11.538
83065W        W51483  37.047   6.864  13.363
83066W        W51484  14.651  34.088  11.430
83067W        W51485  16.697  33.024   0.788
83068W        W51486  25.512  23.189  13.860
83069W        W51487  37.396  29.509   0.879
83070W        W51488  19.272  43.919   2.756
83071W        W51489   7.798  10.244   0.851
83072W        W51490   6.388  42.974   2.374
83073W        W51491  26.083  36.382  14.810
83074W        W51492  23.638  23.072   3.744
83075W        W51493  20.722  23.028   9.528
83076W        W51494   2.913  37.928   1.369
83077W        W51495  39.369  11.202   2.700
83078W        W51496  31.913  27.167  14.779
83079W        W51497  14.271   7.863   9.961
83080W        W51498  17.619  22.234   4.799
83081W        W51499   0.879   5.751   2.754
83082W        W51500  36.904  43.984   4.680
83083W        W51501  18.284  24.139  12.558
83084W        W51502   0.275  13.201  13.053
83085W        W51503  34.942   4.854  12.342
83086W        W51504  30.015  34.490   2.701
83087W        W51505   3.910  28.964  10.558
83088W        W51506   0.878  18.138   0.740
83089W        W51507   9.724   1.410  12.556
83090W        W51508  20.655  36.496  14.304
83091W        W51509   1.925  18.218   4.784
83092W        W51510   0.837   9.818   3.148
83093W        W51511  15.714  35.527   1.340
83094W        W51512  16.101  17.558   2.283
83095W        W51513   3.359  13.710  10.464
83096W        W51514  42.011  35.495  11.601
83097W        W51515  17.248  44.379   3.271
83098W        W51516  26.656  16.273  10.524
83099W        W51517   4.928  24.581  13.939
83100W        W51518  18.275  40.506   1.278
83101W        W51519  43.889   5.912  10.631
83102W        W51520  41.043  31.611   4.727
83103W        W51521  32.030  42.920  14.943
83104W        W51522  19.767  34.951   2.769
83105W        W51523   8.268  28.443   3.676
83106W        W51524   3.440  29.667  11.551
83107W        W51525  15.637  16.254   1.730
83108W        W51526  38.402   7.699   3.715
83109W        W51527   1.272  16.242  14.913
83110W        W51528  27.629   6.253   0.264
83111W        W51529  23.724  21.570  11.015
83112W        W51530  17.778  28.973   2.197
83113W        W51531  41.820  44.334   2.275
83114W        W51532  15.266  15.167   3.183
83115W        W51533  14.125  11.764   2.686
83116W        W51534  10.846  31.588   0.420
83117W        W51535  17.684  13.653  12.526
83118W        W51536  36.471  36.935  12.987
83119W        W51537  22.134   4.372  10.471
83120W        W51538  27.062  14.611  12.341
83121W        W51539  29.589  28.451  13.971
83122W        W51540   3.871  11.222   9.975
83123W        W51541  31.580  12.613   0.844
83124W        W51542  10.763  10.378   1.893
83125W        W51543  16.313  32.462  12.466
83126W        W51544  44.919   9.310   4.249
83127W        W51545  30.527  24.023  14.908
83128W        W51546   2.356  38.051  12.055
83129W        W51547  44.913   3.272   1.222
83130W        W51548   6.366  29.502  12.868
83131W        W51549  33.076   8.719   0.357
83132W        W51550  28.146  31.897   3.367
83133W        W51551  41.013  28.113  14.909
83134W        W51552  38.325  15.780   2.211
83135W        W51553  43.866  25.146   0.902
83136W        W51554  16.282  19.649  10.503
83137W        W51555  34.017   8.716  12.555
83138W        W51556  25.003  38.866   0.270
83139W        W51557  20.040  16.224   0.928
83140W        W51558  23.584  38.362  14.472
83141W        W51559  22.110  43.818  13.955
83142W        W51560  22.672  36.976  10.628
83143W        W51561  30.914  36.012  11.586
83144W        W51562  35.004  36.427   4.343
83145W        W51563  25.080  34.881   1.352
83146W        W51564   0.819  29.132   4.314
83147W        W51565  15.125  10.145   0.735
83148W        W51566  29.499   7.764  11.591
83149W        W51567  16.214   9.649   0.319
83150W        W51568  15.297  16.702  12.926
83151W        W51569  34.563   5.265   0.853
83152W        W51570  37.843  20.531   1.273
83153W        W51571   6.372  24.996  12.952
83154W        W51572  40.837  12.647   4.813
83155W        W51573  35.583  36.869   4.249
83156W        W51574  43.901  30.990   4.632
83157W        W51575   8.399  15.304  10.530
83158W        W51576  10.212  24.575  11.515
83159W        W51577  39.893  17.689  14.871
83160W        W51578  30.072  41.327   3.166
83161W        W51579  36.480  19.616  14.327
83162W        W51580  40.331  39.499   3.826
83163W        W51581  12.743  16.073   1.761
83164W        W51582   7.862  10.784   3.681
83165W        W51583  28.036  22.057  13.545
83166W        W51584   4.435   7.680   3.784
83167W        W51585  37.379  35.507   0.388
83168W        W51586  27.010  43.443   0.833
83169W        W51587  32.412  25.522  11.493
83170W        W51588  15.217  25.144   0.433
83171W        W51589  22.229  26.010   4.737
83172W        W51590  25.069   2.357  12.390
83173W        W51591  19.153  21.188   4.722
83174W        W51592   7.406   2.453  14.902
83175W        W51593  30.617   6.196  11.598
83176W        W51594  37.352   8.219  13.010
83177W        W51595  37.343  39.866  12.027
83178W        W51596   7.803   6.728  14.397
83179W        W51597  42.912  37.465   2.778
83180W        W51598  30.498  40.005   2.347
83181W        W51599  38.547   6.202  11.566
83182W        W51600  16.650  23.173  14.863
83183W        W51601  44.462  28.151   2.214
83184W        W51602   4.795  19.165  14.009
83185W        W51603  27.488  41.389   3.831
83186W        W51604  23.723   7.843  11.577
83187W        W51605  41.882   6.267  13.004
83188W        W51606  27.609   1.772  12.346
83189W        W51607  18.265  42.846   3.248
83190W        W51608  16.140   7.838   0.878
83191W        W51609  29.551  25.589  14.929
83192W        W51610  20.724  44.783   4.653
83193W        W51611  38.439  30.415   3.330
83194W        W51612  36.491  11.361  12.947
83195W        W51613   7.334   2.888  11.127
83196W        W51614   7.719  34.456   4.801
83197W        W51615  35.449   3.457  13.885
83198W        W51616  27.099  21.040  12.957
83199W        W51617  12.769  34.506   3.307
83200W        W51618   3.801  34.869   1.436
83201W        W51619  37.506  34.884   0.965
83202W        W51620  23.110   7.362  11.372
83203W        W51621  43.368  42.483  13.431
83204W        W51622  31.616  37.998   2.721
83205W        W51623  21.529   4.908  12.392
83206W        W51624  25.217   6.784  13.927
83207W        W51625  34.948  44.302   0.464
83208W        W51626  40.957  23.500  14.909
83209W        W51627  32.059  14.299   1.301
83210W        W51628   1.360   9.347   2.330
83211W        W51629  13.665   2.313  13.320
83212W        W51630  18.655  41.379   2.178
83213W        W51631  25.027  31.135  14.951
83214W        W51632  25.607  14.794  11.527
83215W        W51633   5.277  37.992  14.811
83216W        W51634  10.175  22.733   1.824
83217W        W51635  25.545  40.523   3.780
83218W        W51636  24.057  33.058   2.275
83219W        W51637  28.036  37.425   3.842
83220W        W51638  41.520  31.964   4.743
83221W        W51639  32.493  29.483  14.499
83222W        W51640  20.705  23.991   2.900
83223W        W51641   7.410  34.451  11.496
83224W        W51642  30.533  28.151  10.588
83225W        W51643  24.498  28.178  10.408
83226W        W51644   6.921   5.417  10.960
83227W        W51645  42.889  18.693  12.366
83228W        W51646  12.790  29.977  13.939
83229W        W51647  21.044  15.115   4.132
83230W        W51648  22.186  44.391   0.753
83231W        W51649   1.241  17.224   1.281
83232W        W51650  23.566  12.622   2.745
83233W        W51651  22.056  26.536   4.295
83234W        W51652  35.449  22.734  11.037
83235W        W51653  24.532  12.118  11.108
83236W        W51654  26.526  44.420  12.901
83237W        W51655   1.338   6.710   2.305
83238W        W51656   5.359  34.381  11.870
83239W        W51657  30.049   0.266   0.923
83240W        W51658  37.436  13.174   1.702
83241W        W51659  44.842  19.744  12.481
83242W        W51660  33.016  13.192   0.920
83243W        W51661   4.354  36.406   3.723
83244W        W51662  27.526  41.889  11.034
83245W        W51663  11.674   7.268  11.549
83246W        W51664  44.946  18.692   3.336
83247W        W51665   3.937  20.114   5.144
83248W        W51666   6.796  14.828   4.623
83249W        W51667  29.514  17.622  10.571
83250W        W51668  19.657  28.475   1.872
83251W        W51669   1.962  27.454  10.605
83252W        W51670  13.166  36.361  14.446
83253W        W51671   4.332  17.217   2.338
83254W        W51672  16.280   4.268   0.474
83255W        W51673  13.828  33.932   0.855
83256W        W51674  12.667  34.505  11.928
83257W        W51675  18.186  33.003  11.986
83258W        W51676  31.609  17.171   1.427
83259W        W51677  19.599   6.839  10.633
83260W        W51678   8.655  28.943   0.251
83261W        W51679  43.825  34.945   1.240
83262W        W51680  22.069  35.557  11.869
83263W        W51681  22.605  29.068  11.939
83264W        W51682   9.755   2.845  12.565
83265W        W51683  41.842  34.008  12.414
83266W        W51684  42.787  19.628  12.005
83267W        W51685  10.225  37.999   5.123
83268W        W51686  30.553   5.760  13.825
83269W        W51687   4.811  13.265   3.231
83270W        W51688  36.935  43.881  11.862
83271W        W51689  29.108  33.042   4.824
83272W        W51690  21.653  33.447   2.240
83273W        W51691  19.595  40.008  12.408
83274W        W51692  17.653  14.726   3.848
83275W        W51693   9.824  18.640   1.800
83276W        W51694  27.074  30.422   2.266
83277W        W51695  11.835   4.841   1.216
83278W        W51696  29.108   8.886   4.172
83279W        W51697  20.557  15.215   4.249
83280W        W51698  32.526  38.060   1.349
83281W        W51699  14.736  36.020   0.436
83282W        W51700  16.201  43.330   0.479
83283W        W51701  18.085  13.214   4.336
83284W        W51702  38.458   8.355  12.414
83285W        W51703  38.013  11.226  12.903
83286W        W51704  24.600  27.560  12.344
83287W        W51705  12.324  23.730   2.740
83288W        W51706  42.519  21.628  11.079
83289W        W51707  31.006  23.202  12.441
83290W        W51708  15.102  36.851   2.278
83291W        W51709  31.435  26.555   1.735
83292W        W51710  27.052  41.041   2.309
83293W        W51711  32.455  31.571   1.715
83294W        W51712  38.499   5.828  10.585
83295W        W51713   8.386   8.214   4.138
83296W        W51714  10.285  26.022   5.315
83297W        W51715  34.991   0.970  14.946
83298W        W51716   2.859  30.605   4.301
83299W        W51717  25.168  35.942   3.384
83300W        W51718  21.184  21.605   3.229
83301W        W51719  35.448   8.684   4.662
83302W        W51720   7.692   3.438  12.479
83303W        W51721  27.032  40.047   1.934
83304W        W51722  24.976  20.094   2.281
83305W        W51723  43.918  16.591  13.025
83306W        W51724  24.063   5.929  14.352
83307W        W51725   2.255  22.191   0.409
83308W        W51726  16.770   3.805   2.257
83309W        W51727  31.151  41.443  14.945
83310W        W51728   0.986   3.218  10.002
83311W        W51729  28.965  42.361  12.937
83312W        W51730  26.154  30.990   4.631
83313W        W51731  10.203   8.280  14.378
83314W        W51732  33.485  17.259  13.492
83315W        W51733  19.097  28.517   3.147
83316W        W51734  43.423  16.698  12.839
83317W        W51735   4.404  20.037  10.483
83318W        W51736  43.960  34.047  13.999
83319W        W51737  10.218  17.607  13.998
83320W        W51738  39.060  17.304   4.824
83321W        W51739  34.063  25.613  11.124
83322W        W51740  28.088  37.938  11.100
83323W        W51741  22.561  40.359  12.949
83324W        W51742  42.892  20.144  13.437
83325W        W51743  34.887  14.720   3.245
83326W        W51744  15.102  40.459  13.972
83327W        W51745  35.555  40.802   2.825
83328W        W51746  29.002  16.661  14.385
83329W        W51747   4.257   3.432   4.688
83330W        W51748  30.519  19.626  14.434
83331W        W51749   9.732  19.636   4.164
83332W        W51750  18.556  13.742  12.350
83333W        W51751  40.364   8.731  13.031
83334W        W51752  26.017  35.893  12.983
83335W        W51753  12.261  10.704  10.505
83336W        W51754  17.584  31.611   2.852
83337W        W51755  17.778  17.608  12.094
83338W        W51756   7.202  41.370  14.931
83339W        W51757  39.329  27.164  12.913
83340W        W51758  27.143  32.036   1.419
83341W        W51759  22.744  10.658  14.907
83342W        W51760  31.509  29.943  10.453
83343W        W51761   9.713  14.152  13.534
83344W        W51762  36.849   6.691  13.057
83345W        W51763  34.903  16.774   3.365
83346W        W51764   1.881  14.136   0.739
83347W        W51765  36.940  36.362  14.772
83348W        W51766  43.325   2.365  11.067
83349W        W51767  28.170  22.050  11.402
83350W        W51768  22.052  11.829   1.396
83351W        W51769  27.596   2.908  13.855
83352W        W51770  26.015  21.042  13.334
83353W        W51771  25.035  44.913   0.774
83354W        W51772   4.767  37.082  13.008
83355W        W51773  24.083  29.504   1.884
83356W        W51774  29.475   3.336   1.929
83357W        W51775  38.876  21.633   2.211
83358W        W51776  21.241  12.247  12.513
83359W        W51777  36.420  17.745  13.839
83360W        W51778  39.029  20.268  13.497
83361W        W51779  27.625  19.603  11.424
83362W        W51780  37.970   7.416  11.912
83363W        W51781   7.237  33.524  10.938
83364W        W51782  14.336  36.923  14.432
83365W        W51783  41.329  13.746   9.991
83366W        W51784  36.502  14.732   0.747
83367W        W51785  22.186  41.856   5.586
83368W        W51786   5.787  15.329   1.224
83369W        W51787  26.683   5.809  11.450
83370W        W51788   0.256  22.012  14.833
83371W        W51789  12.825   8.660  10.042
83372W        W51790  23.714  32.494  13.007
83373W        W51791   7.368   9.162   4.191
83374W        W51792  22.096  25.700  14.858
83375W        W51793  40.049   0.829   2.861
83376W        W51794  26.676  23.227   4.602
83377W        W51795  12.732   3.907  14.454
83378W        W51796  22.532  15.744   3.735
83379W        W51797  38.374  17.266  11.098
83380W        W51798   9.362  19.149   1.369
83381W        W51799   2.467   7.189   0.244
83382W        W51800  22.108  12.613   4.266
83383W        W51801   2.874  24.211   0.308
83384W        W51802  34.560  15.656  10.589
83385W        W51803  30.163  15.160  12.876
83386W        W51804  33.923  44.314  13.056
83387W        W51805  28.055  17.750  14.817
83388W        W51806  25.676  10.782   0.958
83389W        W51807  10.209  32.912  12.016
83390W        W51808   8.827  34.398   2.282
83391W        W51809  44.502  12.323   3.789
83392W        W51810  44.439   6.861  12.991
83393W        W51811  31.971  32.614   0.814
83394W        W51812  13.627  36.497  11.963
83395W        W51813  24.503  15.156  14.371
83396W        W51814   5.349  26.519   3.654
83397W        W51815  23.995   2.241  10.500
83398W        W51816  15.696  12.181   2.328
83399W        W51817  40.017  34.458  10.549
83400W        W51818  35.395  42.505  11.606
83401W        W51819   2.888  20.221  12.081
83402W        W51820  21.032  24.058   0.756
83403W        W51821  19.751  25.065  12.504
83404W        W51822  36.556  39.500   5.605
83405W        W51823  20.187  39.953  11.912
83406W        W51824   0.970  22.612  11.442
83407W        W51825  31.011   5.708   1.771
83408W        W51826   6.909  16.625  12.027
83409W        W51827   3.719  17.306  11.877
83410W        W51828  21.652  29.996   3.763
83411W        W51829  43.903  37.066   1.220
83412W        W51830   9.278   3.403   4.208
83413W        W51831  21.647  35.015  11.520
83414W        W51832  21.250  12.316  10.558
83415W        W51833  26.537   9.378   0.250
83416W        W51834  33.585  32.427  14.310
83417W        W51835  15.268  17.222   3.377
83418W        W51836  10.240   0.366   2.694
83419W        W51837  21.023  18.090  11.447
83420W        W51838   5.358  35.428  12.565
83421W        W51839  40.393  35.478  11.920
83422W        W51840  33.917  38.567   5.225
83423W        W51841  26.528  28.618   3.676
83424W        W51842   7.278  42.383   3.645
83425W        W51843  29.080  43.849  11.539
83426W        W51844   5.278   0.494  10.958
83427W        W51845  12.640  38.841   1.852
83428W        W51846  38.997  14.695  10.512
83429W        W51847  44.396  32.949   4.826
83430W        W51848  31.543  37.024  14.353
83431W        W51849   5.402  34.069   2.820
83432W        W51850  37.834  36.856  12.980
83433W        W51851  44.443  12.641   2.695
83434W        W51852  23.058  31.551  13.315
83435W        W51853   9.867  40.878   3.747
83436W        W51854  17.090  29.992   4.806
83437W        W51855  14.712   6.321  14.451
83438W        W51856  36.873   4.345   3.704
83439W        W51857  29.536  34.054  11.390
83440W        W51858  41.988   8.213  12.096
83441W        W51859   3.795   0.982  12.830
83442W        W51860  28.167  12.211  14.431
83443W        W51861  23.594  36.085   1.417
83444W        W51862   9.749  19.127   4.302
83445W        W51863  19.745  39.341  13.493
83446W        W51864   6.305  25.585   0.430
83447W        W51865  10.740  12.706   1.902
83448W        W51866  23.209   2.337  14.860
83449W        W51867   0.258  18.761   0.934
83450W        W51868  15.182  24.502  11.403
83451W        W51869  37.922  14.638  14.965
83452W        W51870  26.034   7.350  10.505
83453W        W51871  22.632   1.816   0.471
83454W        W51872  10.684   0.844  11.072
83455W        W51873  23.714  41.939   2.283
83456W        W51874  11.642   5.839  13.824
83457W        W51875  34.897   8.821  11.966
83458W        W51876  31.600  23.236  12.060
83459W        W51877  24.089  40.036   4.186
83460W        W51878  21.255  30.493  13.041
83461W        W51879  31.903   9.764   0.942
83462W        W51880  28.181  36.578  14.985
83463W        W51881  15.268  35.952  14.455
83464W        W51882  39.817  29.642   1.217
83465W        W51883  21.213   3.803   4.247
83466W        W51884  37.056  32.594  14.893
83467W        W51885   6.354  35.368  14.452
83468W        W51886  29.947  30.007  13.935
83469W        W51887  40.026  43.479   0.417
83470W        W51888   6.302  40.909   4.734
83471W        W51889  43.994  34.120  11.072
83472W        W51890  17.293  41.874   3.658
83473W        W51891  41.983   6.380  10.121
83474W        W51892  13.765   9.650  12.036
83475W        W51893  12.632  39.897   2.759
83476W        W51894  13.171   2.918  10.888
83477W        W51895  27.527  40.441  14.889
83478W        W51896   0.391   9.718  14.386
83479W        W51897  17.107  43.351  14.291
83480W        W51898  24.099  10.277   1.699
83481W        W51899   9.781  41.477  11.978
83482W        W51900  38.513  27.565  11.041
83483W        W51901  35.980  42.406   0.929
83484W        W51902  19.601  39.037  12.355
83485W        W51903  37.372   8.873  14.811
83486W        W51904  25.011  33.062  14.407
83487W        W51905  40.480  21.177  11.904
83488W        W51906  36.399  31.522  11.074
83489W        W51907   5.925  42.389  10.987
83490W        W51908  18.716  26.493  14.956
83491W        W51909  36.420   6.894   3.182
83492W        W51910  34.530  26.162  14.366
83493W        W51911  24.059   3.422  13.846
83494W        W51912  38.838   1.748  12.993
83495W        W51913  32.102  35.911  12.494
83496W        W51914  11.739  41.808  12.041
83497W        W51915  14.135   7.756  13.884
83498W        W51916  26.117  11.728  13.874
83499W        W51917  13.118  14.221  14.465
83500W        W51918   2.881  14.783   1.308
83501W        W51919  19.144  39.992   4.183
83502W        W51920  26.630  10.776  13.342
83503W        W51921   2.425  17.648   3.360
83504W        W51922  20.639  27.623   2.316
83505W        W51923  38.074   6.360  14.424
83506W        W51924  30.057   0.261  12.490
83507W        W51925  27.630  38.552   2.742
83508W        W51926  41.317  10.755   1.242
83509W        W51927  28.957  10.140   1.860
83510W        W51928  16.114  12.835   2.310
83511W        W51929  34.968  34.949  12.949
83512W        W51930  36.955  17.293   3.314
83513W        W51931  29.110   0.891  10.593
83514W        W51932  15.585  13.200   3.713
83515W        W51933   2.807  24.094  14.775
83516W        W51934   6.723  42.032   3.208
83517W        W51935  34.589   3.338  14.873
83518W        W51936   0.804   4.307  10.944
83519W        W51937  27.188  37.945   0.854
83520W        W51938  27.097  25.029  13.023
83521W        W51939   9.231   4.788  13.519
83522W        W51940  23.175  28.635   0.409
83523W        W51941  43.425  36.054   0.782
83524W        W51942   2.826  39.359  13.386
83525W        W51943  10.331  36.495   0.260
83526W        W51944  12.637  10.198  10.003
83527W        W51945  11.195  20.755  14.944
83528W        W51946  32.117   0.909  12.924
83529W        W51947  11.229  11.762  11.489
83530W        W51948  43.981  29.132   0.750
83531W        W51949  12.313  20.580   3.727
83532W        W51950  26.659  42.478  13.309
83533W        W51951  41.322  37.528   1.332
83534W        W51952  29.981  17.731  11.972
83535W        W51953  23.624  34.892   2.842
83536W        W51954  44.380  40.400   2.782
83537W        W51955  43.299  29.516  12.908
83538W        W51956  41.914   4.762  12.087
83539W        W51957  29.063  16.219   1.698
83540W        W51958  24.591  15.122  10.603
83541W        W51959  36.037  35.030   3.668
83542W        W51960  42.343  15.179  14.831
83543W        W51961  37.570  38.949   2.393
83544W        W51962  19.760  34.411  11.079
83545W        W51963  14.104  15.768   4.213
83546W        W51964   4.236  24.009  12.467
83547W        W51965  29.480   8.757   3.365
83548W        W51966   0.283  19.168   4.624
83549W        W51967   3.724   1.751   3.693
83550W        W51968  26.589  18.763   2.344
83551W        W51969  38.919  34.379   1.343
83552W        W51970   2.904  27.585   2.768
83553W        W51971   9.361  32.538   0.438
83554W        W51972  24.149  41.294  10.134
83555W        W51973  42.965   9.166   2.271
83556W        W51974  35.890   6.327   4.202
83557W        W51975  13.281  21.060  10.133
83558W        W51976  27.686  19.040  13.435
83559W        W51977  27.132   5.699   0.783
83560W        W51978  17.076  35.010   1.783
83561W        W51979  25.968   0.878   2.198
83562W        W51980  27.022  21.162   5.083
83563W        W51981  17.173  38.568   2.344
83564W        W51982  16.160  22.560  11.432
83565W        W51983  12.746   0.971   2.862
83566W        W51984   4.843  15.299   4.118
83567W        W51985  16.670  38.988  11.403
83568W        W51986  39.900  16.271   3.743
83569W        W51987   0.397  15.172   0.959
83570W        W51988   4.406   1.962   2.813
83571W        W51989  39.837  19.624   0.300
83572W        W51990  14.187  31.470  13.958
83573W        W51991   1.469  24.483  12.399
83574W        W51992  24.216   1.331  13.962
83575W        W51993  40.928  12.162  11.592
83576W        W51994   1.786  13.112  13.337
83577W        W51995  15.118  15.591   2.824
83578W        W51996  25.493  23.636  12.573
83579W        W51997   7.704  30.003   0.852
83580W        W51998  15.783  38.388   1.309
83581W        W51999  10.171  39.466  14.481
83582W        W52000   1.368   5.743   2.857
83583W        W52001  18.559  40.362   4.721
83584W        W52002  15.806  31.588   0.913
83585W        W52003   5.436  17.267  14.914
83586W        W52004  41.937   8.401  14.384
83587W        W52005  11.305  40.515  14.302
83588W        W52006   8.277  28.494  11.974
83589W        W52007  35.537  40.979  14.409
83590W        W52008  32.390   2.382   3.272
83591W        W52009  26.152  34.515   2.255
83592W        W52010   5.233  32.494   2.353
83593W        W52011  13.652  13.767   4.752
83594W        W52012  44.475  42.875   4.690
83595W        W52013  10.667   4.914   4.675
83596W        W52014  17.754  20.109   0.450
83597W        W52015   3.411  16.282  13.026
83598W        W52016  19.716  23.584   4.307
83599W        W52017   8.796  12.769  11.412
83600W        W52018  19.749  28.665  12.085
83601W        W52019  28.492   4.350   0.799
83602W        W52020  32.635  14.272   3.841
83603W        W52021   2.767   5.747  12.848
83604W        W52022  34.585  35.495   2.662
83605W        W52023   1.975  15.679  11.085
83606W        W52024   4.242   8.828  10.524
83607W        W52025  23.069  30.987   0.892
83608W        W52026  39.351  27.659  11.095
83609W        W52027   9.650  15.150   1.902
83610W        W52028  44.869  39.883   2.810
83611W        W52029  44.961   6.205  13.853
83612W        W52030  23.080  27.134  10.470
83613W        W52031  40.895   6.767  13.942
83614W        W52032  33.095   5.900   1.439
83615W        W52033  44.799  26.021   2.283
83616W        W52034  18.753  12.251  11.890
83617W        W52035  24.111   7.875   3.174
83618W        W52036  12.856  17.671   0.762
83619W        W52037  36.452  36.383  14.324
83620W        W52038  15.712  36.054   1.830
83621W        W52039   4.331  29.034   3.836
83622W        W52040  32.534  25.077  13.466
83623W        W52041   1.311  15.645   2.704
83624W        W52042  18.773  29.656  12.451
83625W        W52043  12.819  35.509  10.600
83626W        W52044  23.677  37.496   5.220
83627W        W52045   6.407  12.186  14.997
83628W        W52046   3.852  24.588   0.855
83629W        W52047  20.593  37.406   4.337
83630W        W52048  30.149  13.735   0.841
83631W        W52049  44.277  10.284  13.857
83632W        W52050  41.455  33.616   2.358
83633W        W52051   1.296  25.102  12.917
83634W        W52052  16.750  42.349   2.255
83635W        W52053   1.401  23.182   5.737
83636W        W52054   8.896  10.201  14.398
83637W        W52055  26.078  34.943   2.254
83638W        W52056  36.941   1.839   1.900
83639W        W52057  22.109  40.436   1.221
83640W        W52058  39.549  19.712  13.053
83641W        W52059   2.330  29.045   4.641
83642W        W52060   5.911   2.726  10.551
83643W        W52061   6.697  12.172   0.814
83644W        W52062   6.699  44.869   2.756
83645W        W52063   9.241  24.993  12.472
83646W        W52064  41.408  18.655  12.352
83647W        W52065  20.731  33.538  14.475
83648W        W52066  21.544  44.758  11.875
83649W        W52067  21.254  27.030   0.413
83650W        W52068  31.963  19.250  11.612
83651W        W52069   8.666  28.478  14.939
83652W        W52070  39.500  30.061   1.276
83653W        W52071  43.010  31.507   3.860
83654W        W52072   6.698  11.223  12.888
83655W        W52073  37.525  18.138  10.501
83656W        W52074  27.050  42.819  13.059
83657W        W52075  18.127  29.053   3.292
83658W        W52076  29.029  26.517   2.897
83659W        W52077  26.968  38.967  10.947
83660W        W52078  25.092  28.070   4.717
83661W        W52079  43.963   5.235   0.872
83662W        W52080  39.550  12.130   4.131
83663W        W52081  37.517  32.421  14.005
83664W        W52082  33.541  32.909  13.376
83665W        W52083  19.559  36.934   0.933
83666W        W52084   8.785  32.918   3.195
83667W        W52085   6.250  11.854   5.193
83668W        W52086   7.908  26.519  12.876
83669W        W52087  39.333   6.791   0.306
83670W        W52088   0.924  15.230   3.167
83671W        W52089  21.041  40.044   3.276
83672W        W52090  35.443   3.283  10.618
83673W        W52091  44.428   0.480  12.018
83674W        W52092   5.775   3.459   0.817
83675W        W52093  33.061   4.728   1.421
83676W        W52094  19.269  44.472  11.878
83677W        W52095  18.071  20.090  12.832
83678W        W52096  27.966   7.839  14.933
83679W        W52097   1.367  15.315   4.176
83680W        W52098  22.647   8.324   2.314
83681W        W52099  18.054   2.252  11.032
83682W        W52100  22.205  19.259  14.822
83683W        W52101  19.079  22.669   4.143
83684W        W52102  44.902  27.967   3.770
83685W        W52103  23.704  30.100  12.846
83686W        W52104  21.027  36.905  12.377
83687W        W52105  44.470  26.978  13.055
83688W        W52106  30.466  20.133  11.985
83689W        W52107   9.728  43.486   1.741
83690W        W52108  35.377  14.687  11.381
83691W        W52109  16.221  34.500   4.130
83692W        W52110  13.695  25.568   2.250
83693W        W52111   1.911  26.173   2.704
83694W        W52112  43.329  24.550   2.339
83695W        W52113  12.237  27.513   0.774
83696W        W52114   0.404  44.939  13.425
83697W        W52115  28.534   9.272   4.187
83698W        W52116  23.515  39.374  14.405
83699W        W52117  14.329  24.025   0.290
83700W        W52118  27.108  23.109  13.443
83701W        W52119  19.149  17.605  14.515
83702W        W52120  11.753   5.250   4.131
83703W        W52121  24.100   4.753  14.032
83704W        W52122  11.808  35.101   5.104
83705W        W52123  38.451   1.852  14.934
83706W        W52124  38.960  12.353   1.346
83707W        W52125  32.118   7.770  11.980
83708W        W52126  42.889  30.011  12.019
83709W        W52127  30.521   1.827  14.288
83710W        W52128  37.847  19.607   1.294
83711W        W52129   5.724  22.194  11.376
83712W        W52130  38.422  27.516   4.285
83713W        W52131  22.128  40.326   1.804
83714W        W52132   8.662   4.715   5.262
83715W        W52133  31.603  29.026   4.223
83716W        W52134  39.966  32.533   2.699
83717W        W52135  32.956   5.863  12.947
83718W        W52136  35.084  13.269  13.953
83719W        W52137  40.867  15.611   4.264
83720W        W52138  25.023   8.350  14.795
83721W        W52139  11.742  21.619   0.335
83722W        W52140  11.854  24.161  12.406
83723W        W52141  20.730  26.567   0.793
83724W        W52142  43.322  15.093  10.564
83725W        W52143  19.539  27.459  13.524
83726W        W52144  13.688  22.617  10.991
83727W        W52145  34.094  21.526   4.676
83728W        W52146  17.137  30.990  14.377
83729W        W52147  33.937   8.293  12.361
83730W        W52148  25.201   0.460  10.625
83731W        W52149  14.166  17.610  11.937
83732W        W52150   3.926   1.378  11.053
83733W        W52151  29.076   4.763  12.526
83734W        W52152  20.642   2.395   1.250
83735W        W52153  19.659  29.039   3.765
83736W        W52154  42.018  16.072   1.767
83737W        W52155  23.064  23.059   1.359
83738W        W52156  27.995  22.060   1.334
83739W        W52157   5.925  11.265  11.036
83740W        W52158  32.515  37.084   1.334
83741W        W52159  41.951  12.232   0.844
83742W        W52160  30.935  27.605  14.839
83743W        W52161  42.784  21.017   3.637
83744W        W52162  40.990  37.562  10.995
83745W        W52163  21.131   3.350  10.971
83746W        W52164   4.795   6.841   2.835
83747W        W52165   7.224   1.929  10.554
83748W        W52166  33.908  19.758   2.318
83749W        W52167  36.921  38.957  12.858
83750W        W52168  32.523  39.908  13.430
83751W        W52169  43.817  21.641   2.841
83752W        W52170  20.666  42.499  10.889
83753W        W52171   6.330   9.200   4.163
83754W        W52172  34.866  17.715   2.792
83755W        W52173  43.887   0.756   0.464
83756W        W52174  29.082   5.385   1.290
83757W        W52175  16.189  36.940  12.931
83758W        W52176   9.732  44.293   0.772
83759W        W52177  22.591  39.340   2.410
83760W        W52178  37.500  15.084   0.962
83761W        W52179  39.489  26.006  10.530
83762W        W52180  34.011  33.078  13.053
83763W        W52181  30.634  43.389  12.916
83764W        W52182   5.894  43.866  14.963
83765W        W52183   2.312  43.800   4.238
83766W        W52184  35.913  15.101   0.876
83767W        W52185  37.480  30.480   3.214
83768W        W52186  16.566   8.225  13.916
83769W        W52187   3.920  37.517  12.833
83770W        W52188  29.461  34.880  12.510
83771W        W52189  13.734  23.993   2.405
83772W        W52190   7.392  18.641  12.056
83773W        W52191  44.394   1.338   1.236
83774W        W52192   2.254  21.217  14.498
83775W        W52193   3.410  23.609   0.446
83776W        W52194   2.324  30.430  10.427
83777W        W52195   6.287  25.540  13.423
83778W        W52196   1.805  38.526  11.127
83779W        W52197  20.080  17.667  11.124
83780W        W52198  24.176  32.478  14.393
83781W        W52199  23.168  34.902  10.471
83782W        W52200  32.558  31.135   0.895
83783W        W52201  20.110  12.782  14.370
83784W        W52202   3.254  44.365   2.708
83785W        W52203  33.055  21.027   1.327
83786W        W52204  18.627  19.144   0.435
83787W        W52205   8.859  18.606   3.280
83788W        W52206  28.541  25.503   2.836
83789W        W52207  37.834  31.901  12.984
83790W        W52208  21.142   8.743   2.416
83791W        W52209  12.286  27.056  12.035
83792W        W52210  42.340  15.223  10.981
83793W        W52211  24.077  39.914  12.439
83794W        W52212  35.018  14.752  14.497
83795W        W52213  38.004  39.500   1.231
83796W        W52214   6.298  25.550  13.951
83797W        W52215  20.533  21.541   3.356
83798W        W52216  18.089  27.563   1.744
83799W        W52217   0.980   0.347  13.397
83800W        W52218  22.186   9.371  12.944
83801W        W52219  38.063  30.457   0.470
83802W        W52220  11.201  35.997  12.426
83803W        W52221  11.804  28.075   1.857
83804W        W52222  42.790  42.359   1.306
83805W        W52223  12.269  40.841  13.916
83806W        W52224  36.095  15.790  10.478
83807W        W52225  34.891   2.240  14.773
83808W        W52226  31.929  40.352  10.959
83809W        W52227  27.973  17.185  13.051
83810W        W52228  36.462   6.725  12.831
83811W        W52229  11.730   5.764  11.588
83812W        W52230  41.027  40.314   3.857
83813W        W52231  23.199  26.033  14.389
83814W        W52232  34.038  33.942   0.459
83815W        W52233   5.909   9.354  14.509
83816W        W52234  36.033  17.237   0.358
83817W        W52235   0.476  32.967   1.766
83818W        W52236   8.726   2.296   2.676
83819W        W52237  36.006   6.900   2.701
83820W        W52238  22.623  30.459  14.823
83821W        W52239  19.192  16.090  11.504
83822W        W52240  35.577  38.483  13.962
83823W        W52241  35.502  23.734  10.956
83824W        W52242  19.176   3.236  12.927
83825W        W52243  22.134  41.983   4.690
83826W        W52244  36.443   4.865  13.499
83827W        W52245  43.800  30.518   0.476
83828W        W52246  36.575  43.837  14.301
83829W        W52247   0.253  17.658   1.783
83830W        W52248  34.371  43.848   2.338
83831W        W52249  29.026   8.250  13.406
83832W        W52250  22.050   0.784   3.670
83833W        W52251  22.661  20.197  14.790
83834W        W52252   4.857  13.743  14.853
83835W        W52253  42.018  25.065  10.473
83836W        W52254  10.801  15.657  14.817
83837W        W52255  18.590  42.469  11.390
83838W        W52256  18.063  23.637  14.865
83839W        W52257  15.156  43.331  13.410
83840W        W52258  35.409  44.503  14.836
83841W        W52259  43.507  19.272   2.893
83842W        W52260  39.053  13.177  10.636
83843W        W52261   8.758  18.285  11.568
83844W        W52262  33.957  14.797  12.475
83845W        W52263  24.683  44.425  14.368
83846W        W52264  34.911  10.742  12.393
83847W        W52265  38.507  24.153  12.532
83848W        W52266  44.882   0.327  12.074
83849W        W52267  34.916  36.583   1.322
83850W        W52268  11.173  44.319   3.745
83851W        W52269  11.277   4.798  13.526
83852W        W52270  34.500  39.494  14.285
83853W        W52271  11.795  14.296   4.284
83854W        W52272   9.385  13.704  13.993
83855W        W52273  33.895   3.929  10.953
83856W        W52274  33.073  41.995   3.166
83857W        W52275  15.132   6.762  10.142
83858W        W52276  43.910  11.134   1.252
83859W        W52277  35.471   7.665  10.616
83860W        W52278  11.367  30.068   1.237
83861W        W52279  12.773  35.901  11.516
83862W        W52280  37.890  23.575  14.815
83863W        W52281  27.112  11.785   1.729
83864W        W52282   9.770  21.223   1.342
83865W        W52283   4.280  41.969   4.806
83866W        W52284  25.683   3.348   4.233
83867W        W52285   6.769  10.848   2.360
83868W        W52286   0.466  17.756  12.853
83869W        W52287  15.808   1.915   3.840
83870W        W52288   6.303  15.596  11.864
83871W        W52289  44.910  20.213  14.981
83872W        W52290  16.623  20.164   2.218
83873W        W52291  29.591  19.263   1.254
83874W        W52292   1.856  30.564   0.925
83875W        W52293  26.011  31.006  14.986
83876W        W52294  34.613  27.659   1.245
83877W        W52295  44.346  12.617   0.749
83878W        W52296  37.496  28.503  13.010
83879W        W52297  20.219  24.123   2.367
83880W        W52298  41.520  26.679   4.322
83881W        W52299  19.688  20.768  11.958
83882W        W52300   8.231  29.643  12.504
83883W        W52301  33.392  10.281  10.410
83884W        W52302  22.115  39.993   4.776
83885W        W52303  29.624  29.173   1.750
83886W        W52304  33.573  10.155   3.697
83887W        W52305  31.500  22.727   0.471
83888W        W52306   7.691  30.490  10.996
83889W        W52307  36.398   0.469   1.901
83890W        W52308  28.561  17.239   2.321
83891W        W52309   7.888  19.643   2.724
83892W        W52310  22.229  30.530  13.005
83893W        W52311  14.834  40.926  13.933
83894W        W52312   4.763  19.218   2.355
83895W        W52313   0.759  36.573  12.832
83896W        W52314  12.661  32.606   3.707
83897W        W52315   2.303  16.774   4.830
83898W        W52316  31.119  19.188   3.342
83899W        W52317  13.703   7.892   0.819
83900W        W52318  26.990  41.997   2.682
83901W        W52319  30.141   7.327  11.919
83902W        W52320  40.003  27.692   2.754
83903W        W52321  17.277   1.865  12.865
83904W        W52322  28.439  18.084   4.831
83905W        W52323  20.081  14.705   4.254
83906W        W52324  37.465  29.445   4.749
83907W        W52325  21.152  31.535  10.409
83908W        W52326  34.897  11.747   0.830
83909W        W52327  33.978  35.466  12.566
83910W        W52328   4.843  38.824  14.872
83911W        W52329  26.590  41.836  13.885
83912W        W52330  12.127  42.846   3.148
83913W        W52331  26.515   9.798  12.045
83914W        W52332  21.673  12.853   4.116
83915W        W52333  10.256  43.962  14.961
83916W        W52334  24.723  29.472  13.818
83917W        W52335   0.428  15.124   2.397
83918W        W52336  18.670  24.189   4.144
83919W        W52337  22.219  26.998  14.790
83920W        W52338  21.527  29.594  10.983
83921W        W52339  34.399  12.788   0.852
83922W        W52340  38.860  44.993   0.759
83923W        W52341  14.832  22.535  10.151
83924W        W52342   8.807  23.046   2.831
83925W        W52343  23.551  26.984   3.858
83926W        W52344  22.572  10.250  14.325
83927W        W52345  35.565   9.179   4.654
83928W        W52346  22.168  18.702   1.396
83929W        W52347  34.463  44.384  11.371
83930W        W52348  29.074   2.247   4.689
83931W        W52349  39.348  19.596  14.514
83932W        W52350  39.486  29.495   0.868
83933W        W52351  30.025  43.900  12.981
83934W        W52352  38.442  22.246   3.250
83935W        W52353  42.019  26.667   4.656
83936W        W52354  34.090  37.553  12.068
83937W        W52355  32.074  28.995   3.789
83938W        W52356  32.907  37.051   1.877
83939W        W52357   5.232   7.841  11.467
83940W        W52358  36.971  29.931  10.493
83941W        W52359  22.648  16.665  12.063
83942W        W52360  10.244  25.199   0.869
83943W        W52361  12.171  31.535   1.418
83944W        W52362  32.056  29.437   4.298
83945W        W52363  11.844   4.363  14.437
83946W        W52364  22.053  20.140   4.777
83947W        W52365  37.514  22.512  13.512
83948W        W52366  43.983  36.994   4.242
83949W        W52367  30.464  13.121   2.334
83950W        W52368  13.317   2.312  11.440
83951W        W52369  37.948  27.180   2.225
83952W        W52370  16.072   2.226   0.410
83953W        W52371  24.157   8.192   4.213
83954W        W52372  23.543  34.548  12.381
83955W        W52373  35.447  40.532  14.876
83956W        W52374  36.029  36.879   3.633
83957W        W52375  16.268   5.388  11.527
83958W        W52376  22.575  11.215  11.560
83959W        W52377  34.885  43.483   1.732
83960W        W52378   8.352  19.171  13.494
83961W        W52379  43.491  17.110   1.259
83962W        W52380   7.757  31.935  10.623
83963W        W52381   0.945  38.999   4.666
83964W        W52382  32.559  10.726   2.869
83965W        W52383   6.887  28.661   0.752
83966W        W52384  22.174  21.058  12.435
83967W        W52385  26.969  15.596  12.825
83968W        W52386  25.654  19.571  13.846
83969W        W52387  13.131   7.413   1.396
83970W        W52388  40.812  29.972  11.399
83971W        W52389  34.976  13.194  12.345
83972W        W52390  23.619  33.111  14.397
83973W        W52391  11.301  40.890   1.300
83974W        W52392  15.601  41.403   9.960
83975W        W52393  38.339  30.931  14.791
83976W        W52394  11.758   0.409   0.272
83977W        W52395  35.947  19.069   1.429
83978W        W52396  11.750  35.865   1.934
83979W        W52397  30.482  10.373   2.838
83980W        W52398   7.331  14.818  13.859
83981W        W52399  26.203   2.766  12.573
83982W        W52400  18.229  27.551   2.243
83983W        W52401  39.875  42.964   3.857
83984W        W52402   2.360  18.177   2.708
83985W        W52403  18.626   3.307  10.992
83986W        W52404  29.071  19.137   1.329
83987W        W52405  23.554  24.658   3.728
83988W        W52406  36.099   0.330   4.298
83989W        W52407  18.247   1.363   2.721
83990W        W52408   1.796  25.212   3.291
83991W        W52409  43.417  44.827   0.801
83992W        W52410  14.239  10.850   1.887
83993W        W52411  43.322  44.495   2.252
83994W        W52412  36.577  27.607  10.541
83995W        W52413   3.331  26.609  10.533
83996W        W52414  17.719  42.388  12.055
83997W        W52415  18.126   7.402  11.513
83998W        W52416  20.661  25.001   0.269
83999W        W52417  17.756  18.767   4.181
84000W        W52418  36.946  40.401  10.452
84001W        W52419   8.783   4.860   3.197
84002W        W52420  14.231  39.389  10.466
84003W        W52421   2.447  12.701  10.555
84004W        W52422  30.983  21.548   2.253
84005W        W52423  18.727  34.489  10.904
84006W        W52424   0.272   9.797   3.279
84007W        W52425  36.930   6.736  11.537
84008W        W52426  24.579   1.830   3.743
84009W        W52427  26.611  26.098   2.855
84010W        W52428  42.518  22.050   2.845
84011W        W52429  40.909  15.675  14.508
84012W        W52430  32.015  24.992   2.225
84013W        W52431  14.590  11.205  14.474
84014W        W52432  21.731   1.267   4.131
84015W        W52433   3.220  42.820   0.820
84016W        W52434  44.455  23.491   5.281
84017W        W52435  35.080   6.244  12.997
84018W        W52436  33.596   5.316  13.835
84019W        W52437  23.513  12.651   4.785
84020W        W52438   7.185  34.088   4.652
84021W        W52439  14.160  40.832   2.412
84022W        W52440  12.665   1.930  12.085
84023W        W52441   8.855   7.413   0.483
84024W        W52442   1.828  27.948   1.741
84025W        W52443  42.371  12.799   0.292
84026W        W52444  29.984  36.529  13.486
84027W        W52445  23.628  28.186   0.384
84028W        W52446   2.825  20.042  10.490
84029W        W52447  28.999  28.035   1.397
84030W        W52448  11.363   1.791   0.372
84031W        W52449   5.875  17.695  10.619
84032W        W52450   9.769  25.589  12.850
84033W        W52451  29.557  31.992  11.033
84034W        W52452   3.739  19.551   0.398
84035W        W52453  35.935  38.828  10.938
84036W        W52454  37.498  41.933  10.500
84037W        W52455   4.817   1.286  11.956
84038W        W52456  10.363   5.861   2.817
84039W        W52457  41.865  12.327  12.354
84040W        W52458  26.973  14.290  12.472
84041W        W52459   9.203  30.575   1.254
84042W        W52460  24.641  14.190   0.841
84043W        W52461  19.729  26.142  14.007
84044W        W52462  35.470  24.073  14.436
84045W        W52463  10.694   6.766   2.827
84046W        W52464   8.223  10.665   3.302
84047W        W52465  43.933  25.615   4.176
84048W        W52466   8.843  18.245   9.993
84049W        W52467  36.447   9.713   0.847
84050W        W52468  16.176   7.350  13.324
84051W        W52469  14.323  14.720  13.867
84052W        W52470   8.238  11.293   1.419
84053W        W52471   5.777  35.517   2.328
84054W        W52472  20.040  24.001   2.699
84055W        W52473  22.195  17.120  14.487
84056W        W52474  26.603  40.898  10.643
84057W        W52475   2.852  36.519  13.982
84058W        W52476   5.854  29.572  11.473
84059W        W52477  16.594  34.458  12.968
84060W        W52478  10.255  31.511  14.761
84061W        W52479   9.835   9.861  14.962
84062W        W52480  18.728  33.074  14.951
84063W        W52481  35.978  15.666  12.509
84064W        W52482  24.717  26.088  13.951
84065W        W52483  14.284  42.995   1.857
84066W        W52484  42.900   1.338   2.214
84067W        W52485  36.063  43.944  12.342
84068W        W52486  40.821  33.496  11.373
84069W        W52487  22.152  44.923  11.111
84070W        W52488   5.367  10.867  13.995
84071W        W52489   0.782  36.002   2.336
84072W        W52490  38.062  37.054   0.786
84073W        W52491   5.198  36.069  13.939
84074W        W52492  15.651   7.854  10.037
84075W        W52493  44.466  23.664  12.095
84076W        W52494  14.340   1.336   3.170
84077W        W52495  17.086  11.141   2.661
84078W        W52496  35.911  26.492   0.482
84079W        W52497  13.155  15.610  13.488
84080W        W52498  19.269  15.158  12.545
84081W        W52499  25.582  40.433   0.309
84082W        W52500  39.427  34.993   3.767
84083W        W52501  19.068  30.915   2.221
84084W        W52502  23.153   1.825   0.836
84085W        W52503   5.803  30.092   1.881
84086W        W52504  26.016  19.756   3.661
84087W        W52505  21.085  12.192   1.314
84088W        W52506  44.437   8.817  11.386
84089W        W52507  20.117  25.693  13.378
84090W        W52508  39.832  11.269  11.433
84091W        W52509  28.034  18.737   0.246
84092W        W52510   2.893  37.504   2.801
84093W        W52511  36.371  11.154  12.393
84094W        W52512  42.361  31.638  14.377
84095W        W52513   5.836  32.893  10.579
84096W        W52514  36.877  36.900  13.478
84097W        W52515  12.733  21.660  11.114
84098W        W52516   8.330   4.902  11.949
84099W        W52517  31.946  30.550   0.245
84100W        W52518  24.069   5.761  11.507
84101W        W52519  17.688  16.606   1.238
84102W        W52520  41.412  16.636  13.969
84103W        W52521  35.945  20.143  12.936
84104W        W52522  30.622  14.206  12.855
84105W        W52523  29.017  29.076   0.925
84106W        W52524  41.961  22.023  10.463
84107W        W52525   2.888   4.383   3.268
84108W        W52526  41.406  39.395  12.047
84109W        W52527  38.570   4.325  14.925
84110W        W52528  43.918   5.233   1.893
84111W        W52529  35.997   2.882  14.359
84112W        W52530   6.412  35.990   4.190
84113W        W52531  15.133   2.458   3.637
84114W        W52532  40.439  15.103   3.323
84115W        W52533  23.642  12.321  12.883
84116W        W52534   4.348  35.477  13.436
84117W        W52535  37.547  38.008  12.030
84118W        W52536  44.412  13.618   5.760
84119W        W52537  15.788  14.163   0.259
84120W        W52538  21.584  31.140   2.735
84121W        W52539  16.117  36.459  10.568
84122W        W52540  15.788  31.927  13.373
84123W        W52541   0.302  10.712  11.073
84124W        W52542  38.344  12.725  12.481
84125W        W52543  34.863  34.968   1.358
84126W        W52544  26.653   1.330  11.070
84127W        W52545  22.547  37.927  12.472
84128W        W52546  43.374  43.806   2.778
84129W        W52547   3.436  13.715  13.002
84130W        W52548  17.685  11.687   0.281
84131W        W52549  27.184  12.765   4.727
84132W        W52550  19.128   0.371   3.723
84133W        W52551  31.476  23.058   3.360
84134W        W52552  32.007   3.743   1.841
84135W        W52553  32.044  17.172  13.945
84136W        W52554  28.678  10.296   0.828
84137W        W52555   5.306   4.413   2.268
84138W        W52556  37.412  16.644  11.883
84139W        W52557   3.296   8.794  12.862
84140W        W52558  25.644   8.668  10.073
84141W        W52559  22.624  25.486  12.489
84142W        W52560  21.190  43.345   0.863
84143W        W52561  41.529   8.217   3.854
84144W        W52562  26.576   2.727  11.557
84145W        W52563   2.339  14.779  11.103
84146W        W52564  21.726   5.772   4.247
84147W        W52565  18.752  10.337  13.328
84148W        W52566  15.260  44.831  12.852
84149W        W52567  36.867  30.599   2.693
84150W        W52568  34.588  13.140  10.533
84151W        W52569   8.194  26.176   3.663
84152W        W52570  36.388  14.273   4.696
84153W        W52571   3.341   3.375   1.257
84154W        W52572  41.526  31.553  12.404
84155W        W52573  27.681  26.609  11.087
84156W        W52574  11.696  25.597  10.550
84157W        W52575  27.546  40.981  13.503
84158W        W52576   2.779  16.616  11.094
84159W        W52577  27.174   5.776   0.314
84160W        W52578  41.498   4.790   4.724
84161W        W52579  15.751  42.881   2.819
84162W        W52580   2.922  37.448  11.996
84163W        W52581  44.766  16.078   4.302
84164W        W52582  18.671  36.913   3.271
84165W        W52583  28.585  33.959   2.320
84166W        W52584  44.495  11.772  13.533
84167W        W52585  28.067  35.525  12.958
84168W        W52586  12.731  36.490  13.543
84169W        W52587  29.931   9.821   3.770
84170W        W52588  26.132  33.108  11.892
84171W        W52589  10.239  20.626   2.316
84172W        W52590  10.677  38.981  12.494
84173W        W52591  12.329  41.420  11.452
84174W        W52592   2.784  29.550  12.091
84175W        W52593  29.463  34.912   0.441
84176W        W52594  43.809  26.103  12.402
84177W        W52595  40.849  39.993   1.400
84178W        W52596  40.429  37.558   4.815
84179W        W52597  16.679  11.626   0.773
84180W        W52598  38.043  25.051  11.598
84181W        W52599  17.617   5.282   1.829
84182W        W52600  23.192   4.788   3.758
84183W        W52601  19.181  42.369   1.708
84184W        W52602   2.235  43.926  11.414
84185W        W52603  21.065  19.718  10.971
84186W        W52604  18.286   3.356   0.412
84187W        W52605  31.605  44.478   0.251
84188W        W52606   8.879  13.231  11.588
84189W        W52607   9.159  16.739  13.817
84190W        W52608  12.698  19.245   2.744
84191W        W52609   2.360  27.515  12.558
84192W        W52610  24.720   3.399  14.858
84193W        W52611  11.814   9.709   2.799
84194W        W52612  40.481  17.138  12.528
84195W        W52613  21.220  42.316   3.642
84196W        W52614  36.889  27.122  10.523
84197W        W52615  21.252  28.109  13.488
84198W        W52616  18.269  10.160  10.994
84199W        W52617  16.085  19.177   3.711
84200W        W52618   1.397  33.128   2.355
84201W        W52619  39.951  10.838   0.391
84202W        W52620   0.476   0.873   0.328
84203W        W52621  19.050  16.800  11.081
84204W        W52622   5.243   6.273  10.487
84205W        W52623  21.261  41.008  11.419
84206W        W52624   4.220  21.529   1.309
84207W        W52625   3.716  41.483  14.898
84208W        W52626   4.928  41.293  11.374
84209W        W52627  15.762   1.871  11.433
84210W        W52628  20.124  29.462   4.738
84211W        W52629  32.493  20.258  11.451
84212W        W52630   3.420  12.353   1.295
84213W        W52631   9.725  36.001   1.928
84214W        W52632   7.665   4.887   1.279
84215W        W52633  42.449   0.870   2.715
84216W        W52634   5.287   8.300  11.960
84217W        W52635  42.519  10.709  14.311
84218W        W52636  33.110   7.172   0.892
84219W        W52637   3.786   2.757   1.254
84220W        W52638  36.399  36.928   9.533
84221W        W52639  12.820  12.784  12.379
84222W        W52640   3.301  32.526  14.442
84223W        W52641  23.521   4.253   2.863
84224W        W52642   5.736  31.052   4.137
84225W        W52643   5.208  26.527   2.877
84226W        W52644  31.623  17.759   1.241
84227W        W52645  24.224  41.503  11.474
84228W        W52646  24.169  41.415   2.695
84229W        W52647   8.724  28.162  14.967
84230W        W52648  13.605  21.164   1.434
84231W        W52649   1.862   0.855   4.176
84232W        W52650   3.831  24.594   1.769
84233W        W52651  15.624   4.898  12.391
84234W        W52652  22.056  41.916  13.883
84235W        W52653  20.602  31.632  14.312
84236W        W52654  10.639  33.988  13.815
84237W        W52655  38.374   7.354   0.921
84238W        W52656  24.051   5.852  10.452
84239W        W52657  40.006  42.407   4.338
84240W        W52658   4.703  14.124   4.838
84241W        W52659  26.952  39.422  12.868
84242W        W52660  20.564   7.710   3.835
84243W        W52661  17.182  28.613   3.728
84244W        W52662  22.142  26.091  14.324
84245W        W52663  27.110  34.393  11.092
84246W        W52664   6.858  24.980   1.697
84247W        W52665   3.717   4.765  12.459
84248W        W52666  42.919   1.393  13.453
84249W        W52667  27.944  14.292  11.396
84250W        W52668  39.914   7.209  10.575
84251W        W52669  37.956  10.301   3.678
84252W        W52670  22.191  28.163   0.888
84253W        W52671  42.333  11.145  10.016
84254W        W52672  32.562  34.096  13.824
84255W        W52673  38.491  39.508  10.965
84256W        W52674   1.463  26.116   4.330
84257W        W52675  44.327  34.897  12.064
84258W        W52676   5.726   3.287   3.373
84259W        W52677  16.571   3.399  14.824
84260W        W52678  22.019  36.349   3.251
84261W        W52679  16.221  18.602  11.547
84262W        W52680  30.064  26.068  10.561
84263W        W52681  40.437  42.503   3.263
84264W        W52682  17.799   5.258   5.569
84265W        W52683  25.090  31.906  11.558
84266W        W52684  31.462  16.716   2.228
84267W        W52685  44.439   0.743  10.145
84268W        W52686   8.385  38.845   0.354
84269W        W52687  22.205  38.066  12.555
84270W        W52688  31.455  35.024  12.010
84271W        W52689  19.141   7.727  11.589
84272W        W52690  23.627  10.758   4.163
84273W        W52691   0.885  22.035  14.900
84274W        W52692  44.948  36.967  12.921
84275W        W52693  36.451   0.492  14.956
84276W        W52694  44.383  36.480   2.868
84277W        W52695  31.105   6.828   3.178
84278W        W52696  44.818  35.938  11.941
84279W        W52697  23.131  20.198  10.553
84280W        W52698  34.451  31.933   5.136
84281W        W52699   8.840  31.969   4.707
84282W        W52700  19.280  44.883  13.526
84283W        W52701  34.982  18.769   0.894
84284W        W52702   9.748  34.545   2.388
84285W        W52703  41.806  15.249   2.386
84286W        W52704  32.996  23.654   2.306
84287W        W52705  11.239  15.261  12.473
84288W        W52706  36.376   9.775   3.201
84289W        W52707  41.454  23.028  12.908
84290W        W52708  13.202  13.160   2.692
84291W        W52709  35.398  25.218  10.966
84292W        W52710  41.500  21.718   1.775
84293W        W52711  32.909   5.818  12.094
84294W        W52712  13.747  42.849  11.011
84295W        W52713  35.924  33.437  12.038
84296W        W52714  32.538  39.837   2.374
84297W        W52715  34.904   5.909  10.445
84298W        W52716  14.165   4.293  10.428
84299W        W52717  39.961  37.410  14.800
84300W        W52718  39.969  15.691  12.481
84301W        W52719  22.086  13.177   4.756
84302W        W52720  21.206  43.892   4.132
84303W        W52721   0.786  34.561  14.473
84304W        W52722   3.916  15.131   0.272
84305W        W52723  40.440  13.660  11.389
84306W        W52724  26.551  39.018   0.921
84307W        W52725   9.391  17.120  11.882
84308W        W52726  39.318  39.495   4.837
84309W        W52727  10.270  33.455   1.730
84310W        W52728  19.197  27.611  14.773
84311W        W52729  39.347  34.015  14.423
84312W        W52730  27.544  18.270   0.962
84313W        W52731  26.535   2.283   4.698
84314W        W52732  39.450  33.524   9.979
84315W        W52733   7.732  39.519  13.423
84316W        W52734  26.695   0.359   4.266
84317W        W52735   2.729  41.962  10.531
84318W        W52736   7.805  29.007  11.971
84319W        W52737   4.718   8.221   3.214
84320W        W52738  36.540  42.955   3.215
84321W        W52739  40.964  15.250   3.826
84322W        W52740  29.475  43.394  14.929
84323W        W52741  18.635   4.773  14.455
84324W        W52742  28.502  29.536   1.221
84325W        W52743  32.131   0.973   2.877
84326W        W52744   3.235  42.401  13.905
84327W        W52745  19.141  40.426  14.983
84328W        W52746  37.868  29.663   0.915
84329W        W52747  19.148  23.188   2.878
84330W        W52748  41.318  16.730   4.634
84331W        W52749  30.971  33.594   0.761
84332W        W52750  17.222  40.377   1.274
84333W        W52751  36.911  19.684  13.504
84334W        W52752  19.209   0.924   0.399
84335W        W52753  15.604   4.348   5.086
84336W        W52754  42.500  22.719   1.251
84337W        W52755  39.050  24.091  13.475
84338W        W52756   8.181  13.118   3.167
84339W        W52757  40.877   6.256   3.292
84340W        W52758  17.089  36.357   2.804
84341W        W52759  44.007  11.842  13.977
84342W        W52760   5.201   1.262   2.372
84343W        W52761   4.825  23.527  12.999
84344W        W52762  41.799   6.754   1.451
84345W        W52763  24.692  34.943   0.742
84346W        W52764   3.329  32.095  13.331
84347W        W52765  34.891  28.671   1.359
84348W        W52766  42.804   1.447  14.966
84349W        W52767  15.586  15.761   3.323
84350W        W52768  31.153  32.590   2.418
84351W        W52769  21.143  24.187   3.275
84352W        W52770  40.499  20.240  10.481
84353W        W52771  36.483  16.214  12.425
84354W        W52772  20.694   4.319  14.322
84355W        W52773  27.593  34.959  14.951
84356W        W52774  18.757   4.242  12.865
84357W        W52775  14.656  30.995   0.965
84358W        W52776  35.499  44.289  10.915
84359W        W52777   9.658  32.486  13.446
84360W        W52778  44.961   2.930  10.508
84361W        W52779  34.458  25.182  14.792
84362W        W52780  18.069  11.844  13.010
84363W        W52781   9.874  41.330   4.269
84364W        W52782  22.692  34.056   1.249
84365W        W52783   2.902  30.570  10.461
84366W        W52784  11.236  22.030   0.245
84367W        W52785  19.696  13.301  10.424
84368W        W52786   6.695  39.320   3.674
84369W        W52787   7.821  13.131   1.717
84370W        W52788   5.438  23.499  10.961
84371W        W52789  37.957  30.967   2.794
84372W        W52790  16.590   4.768  12.899
84373W        W52791  13.800  35.067   4.314
84374W        W52792  35.018  41.432   3.222
84375W        W52793  31.436   5.719   0.801
84376W        W52794  41.503  42.407   3.355
84377W        W52795  11.226  31.958  11.954
84378W        W52796  21.194   3.816  14.923
84379W        W52797  10.646  44.987   4.239
84380W        W52798  44.368  17.587   1.256
84381W        W52799  10.744  37.831  14.780
84382W        W52800  39.059  12.664   2.868
84383W        W52801  42.824  21.126   5.570
84384W        W52802  33.021  32.419  11.376
84385W        W52803   3.281  44.272  12.369
84386W        W52804  34.069  16.763  13.369
84387W        W52805  30.640  11.351   2.712
84388W        W52806  43.941  30.500   4.645
84389W        W52807  20.557  40.548  11.556
84390W        W52808  30.619   8.335   2.845
84391W        W52809  36.862  17.079   3.823
84392W        W52810  10.700  31.645  13.479
84393W        W52811   9.740  36.515  12.412
84394W        W52812  27.611  10.197   0.434
84395W        W52813   9.180  11.732  13.536
84396W        W52814   8.255  27.609  11.398
84397W        W52815  12.821  28.187   1.255
84398W        W52816  14.213  44.342   2.392
84399W        W52817  35.060  25.687   0.813
84400W        W52818  44.401  38.976   0.373
84401W        W52819  28.528   8.661   0.462
84402W        W52820  29.088  43.344  12.841
84403W        W52821  26.192  20.158  13.017
84404W        W52822  16.631  32.985  14.419
84405W        W52823  13.698   7.375  10.897
84406W        W52824   0.825  13.142   3.825
84407W        W52825  27.076  25.673  11.495
84408W        W52826  14.610   4.901   0.765
84409W        W52827   3.245  38.076  14.969
84410W        W52828   7.344  22.091  11.578
84411W        W52829  16.580  21.264  13.806
84412W        W52830   8.749  39.846   2.214
84413W        W52831  21.093  10.686   2.299
84414W        W52832  23.042  36.416  14.352
84415W        W52833  30.658  32.398   0.888
84416W        W52834   5.250  24.713  11.096
84417W        W52835  19.600  40.414   1.695
84418W        W52836  40.369  40.800   2.397
84419W        W52837   0.882  38.828  13.836
84420W        W52838  30.026  39.002  12.989
84421W        W52839   6.304  32.465  11.890
84422W        W52840  20.214  40.471  13.791
84423W        W52841  19.252  27.004  12.491
84424W        W52842  41.793  12.221   1.904
84425W        W52843  38.336  20.203  12.534
84426W        W52844  20.676  12.141  10.046
84427W        W52845  17.298  36.464  12.061
84428W        W52846  31.958  26.118  12.059
84429W        W52847  44.822  17.233   2.375
84430W        W52848  42.005  37.870   3.727
84431W        W52849   8.304   2.468   0.306
84432W        W52850   8.876  15.683   2.698
84433W        W52851  15.688  44.436  12.461
84434W        W52852  33.031  24.655  11.378
84435W        W52853  16.583   8.720  12.411
84436W        W52854  23.569  22.582  12.070
84437W        W52855   9.648  11.339  13.041
84438W        W52856   0.481   0.343  10.617
84439W        W52857  41.501  17.728  12.083
84440W        W52858  14.663  42.889   0.482
84441W        W52859  25.212  19.269   2.296
84442W        W52860  24.593   0.925  14.405
84443W        W52861   8.343   5.388   0.394
84444W        W52862  21.668  10.373  14.979
84445W        W52863   4.818  28.975  13.850
84446W        W52864  28.681  14.324  13.311
84447W        W52865  25.119  19.555   1.894
84448W        W52866  24.589  35.037  14.436
84449W        W52867   1.295   9.367  12.022
84450W        W52868  18.292   2.369   0.927
84451W        W52869  28.590  36.946  10.618
84452W        W52870  43.486  28.612  12.997
84453W        W52871  44.909  26.129  13.940
84454W        W52872  13.184   0.752  13.791
84455W        W52873   7.849  10.754  11.493
84456W        W52874  37.899  33.103   1.869
84457W        W52875  25.086  28.528  13.823
84458W        W52876  29.446   4.737   2.840
84459W        W52877  23.511  28.645  11.015
84460W        W52878  11.260  26.596  11.872
84461W        W52879  44.767  11.632  14.877
84462W        W52880  39.924  33.404   4.683
84463W        W52881  35.416   4.239   0.729
84464W        W52882  27.612  36.074  11.016
84465W        W52883   5.382   3.378   4.247
84466W        W52884  15.620   1.901   3.157
84467W        W52885  13.739  44.813   3.352
84468W        W52886  41.475  20.134  10.963
84469W        W52887   0.452  17.220   4.823
84470W        W52888   0.454  14.797  14.928
84471W        W52889  23.718  37.341  11.995
84472W        W52890  26.139  39.978   3.342
84473W        W52891  35.376  37.533  12.546
84474W        W52892  43.466  37.495   0.434
84475W        W52893  17.705   5.797  11.428
84476W        W52894  29.138   1.893  11.124
84477W        W52895  27.135  20.667   2.276
84478W        W52896  19.679  14.747   4.135
84479W        W52897  25.155   1.841   4.313
84480W        W52898   0.917  18.261   1.782
84481W        W52899  18.066  10.830  12.006
84482W        W52900  11.796  36.510   9.938
84483W        W52901  17.602   6.869   4.327
84484W        W52902  44.975  38.495   0.793
84485W        W52903  15.141   6.806   2.190
84486W        W52904  13.279  28.998  12.095
84487W        W52905  36.411  35.991   3.742
84488W        W52906  29.924  29.014   3.272
84489W        W52907  15.738  10.308   3.265
84490W        W52908   9.238  32.053   3.331
84491W        W52909  10.279   9.296   3.261
84492W        W52910   6.720   5.911  13.840
84493W        W52911  21.607  14.132   0.375
84494W        W52912  39.012   1.784   4.836
84495W        W52913  31.612   0.981   3.307
84496W        W52914  33.055  36.962  14.893
84497W        W52915  25.081  23.201   0.786
84498W        W52916  38.553   4.899   4.225
84499W        W52917  27.661  27.993  11.878
84500W        W52918  11.742  32.040   3.308
84501W        W52919  44.481  24.110  13.446
84502W        W52920   4.747   2.379   0.777
84503W        W52921  13.801   0.490  13.851
84504W        W52922  19.067  22.040  14.490
84505W        W52923   8.189  31.008  13.967
84506W        W52924   9.692  29.991   1.340
84507W        W52925  10.170  16.080  10.474
84508W        W52926   0.907   4.720  10.622
84509W        W52927  29.492  23.591   4.699
84510W        W52928  44.296  31.498  13.385
84511W        W52929  44.849   3.403   0.779
84512W        W52930  33.600  33.516   2.837
84513W        W52931   2.781  19.636   1.853
84514W        W52932  42.782   9.815   1.764
84515W        W52933  15.699   2.375   0.473
84516W        W52934   4.754  24.986   2.285
84517W        W52935  13.652  12.153  11.597
84518W        W52936   5.898  32.014   4.274
84519W        W52937  20.582  34.572   0.425
84520W        W52938   2.324  38.906  12.982
84521W        W52939  31.418  12.680  11.029
84522W        W52940  18.747  33.514  12.562
84523W        W52941  39.861  35.060  13.441
84524W        W52942   5.862  21.687  11.432
84525W        W52943  44.890  34.603  10.894
84526W        W52944  19.729  26.081   4.786
84527W        W52945  12.753  12.642   1.240
84528W        W52946  12.206   4.770   1.424
84529W        W52947   8.900  34.380   3.809
84530W        W52948  33.884  26.611   1.763
84531W        W52949   6.290  21.607   3.850
84532W        W52950  11.819  10.351  11.539
84533W        W52951  33.406   7.764   5.112
84534W        W52952  41.295  42.025   0.908
84535W        W52953  23.602  15.630   1.917
84536W        W52954  13.792  42.021   3.644
84537W        W52955  37.902  31.536   3.222
84538W        W52956   0.442  29.473  14.946
84539W        W52957  18.195  11.307   3.294
84540W        W52958  39.359   1.843   3.732
84541W        W52959  10.750  38.498   4.154
84542W        W52960   0.934   7.793  12.901
84543W        W52961  19.269  22.025  13.332
84544W        W52962   6.781  33.572   3.660
84545W        W52963  22.694  18.589   0.729
84546W        W52964  33.024  23.087  13.807
84547W        W52965  18.191  40.512  13.870
84548W        W52966   7.340  15.727  11.509
84549W        W52967  25.652   8.395  13.951
84550W        W52968  30.640  27.680   3.379
84551W        W52969   0.390  19.146  12.827
84552W        W52970  38.852  18.669   1.262
84553W        W52971  18.232   5.719  11.994
84554W        W52972  15.140  21.141   3.279
84555W        W52973  27.181  13.623  10.460
84556W        W52974   3.453  44.002  11.070
84557W        W52975  15.091   2.374   3.266
84558W        W52976  18.191  41.372  13.046
84559W        W52977  19.561  12.334   2.207
84560W        W52978   0.940  24.495   2.737
84561W        W52979  17.631   6.253   3.285
84562W        W52980  44.366  36.540   1.211
84563W        W52981  19.677  15.326   4.760
84564W        W52982   5.825  41.961   2.301
84565W        W52983   9.758  17.631  11.114
84566W        W52984  11.737  37.367  14.346
84567W        W52985  30.019  34.079  13.436
84568W        W52986  36.944  28.041  12.850
84569W        W52987  22.999   3.873  14.339
84570W        W52988  44.285  39.440   1.412
84571W        W52989  42.905  27.630  14.768
84572W        W52990   4.406  42.898   2.681
84573W        W52991   6.678  35.882   1.759
84574W        W52992   8.350  24.050   4.619
84575W        W52993  44.882  22.036  12.937
84576W        W52994  29.947   9.392  12.908
84577W        W52995  12.302  21.092  13.418
84578W        W52996  33.478  16.151  10.433
84579W        W52997  34.507  43.887  10.450
84580W        W52998  25.626   7.274   0.760
84581W        W52999  19.195   0.808   2.241
84582W        W53000  32.048  40.306  11.929
84583W        W53001  12.261  42.010  14.356
84584W        W53002  38.861  25.039   0.756
84585W        W53003  40.886  27.065   0.275
84586W        W53004  12.344   2.471  11.491
84587W        W53005   7.337   8.702   3.835
84588W        W53006  12.829  30.521  10.572
84589W        W53007  44.315  27.168   1.374
84590W        W53008   2.878  13.190  11.934
84591W        W53009  36.404  17.273  11.119
84592W        W53010  29.087  37.968  12.078
84593W        W53011   2.414  36.537   2.178
84594W        W53012  38.986  31.440  13.368
84595W        W53013  17.283  32.547  10.585
84596W        W53014  14.592  15.665  11.128
84597W        W53015  33.053  11.135   2.712
84598W        W53016  15.601  16.672   2.747
84599W        W53017  43.890  22.102  10.079
84600W        W53018  10.157  43.484  10.489
84601W        W53019  30.642   8.394  11.510
84602W        W53020   3.418  12.672   4.697
84603W        W53021  38.456  32.129   3.840
84604W        W53022  41.468  17.174   0.358
84605W        W53023  31.410  26.009   0.894
84606W        W53024   7.689  28.100  14.001
84607W        W53025   9.207  33.065   3.794
84608W        W53026  40.348   8.877  14.371
84609W        W53027  33.573  19.052   4.616
84610W        W53028  21.080   8.342  12.463
84611W        W53029  41.385  28.962   2.723
84612W        W53030  11.771  16.573   2.324
84613W        W53031  36.899  32.507  13.525
84614W        W53032  25.669   1.862  13.036
84615W        W53033  38.351  21.162   4.344
84616W        W53034  33.993  34.509   2.315
84617W        W53035  28.440   7.785   0.456
84618W        W53036   0.858  35.989   4.830
84619W        W53037  30.444   5.361   1.334
84620W        W53038  33.471   7.409   0.391
84621W        W53039   5.881   8.775  10.555
84622W        W53040  41.939  27.092   1.888
84623W        W53041  23.656  19.671  12.990
84624W        W53042  15.696   2.807  11.057
84625W        W53043  28.506  41.980   2.287
84626W        W53044  30.022  38.491  14.844
84627W        W53045  31.506  24.701  14.880
84628W        W53046  44.983  33.408   3.645
84629W        W53047  10.754  18.568   4.310
84630W        W53048  39.508  34.005  14.910
84631W        W53049  20.746  26.175   3.635
84632W        W53050  33.113  33.624  11.477
84633W        W53051   7.895  30.125  13.311
84634W        W53052  19.211  14.178  14.494
84635W        W53053  30.979  35.859   0.916
84636W        W53054  12.352  21.163  10.440
84637W        W53055  28.174  24.631   0.274
84638W        W53056  28.071  10.282   0.832
84639W        W53057  16.634  34.394   0.287
84640W        W53058  30.504  38.954  10.986
84641W        W53059  13.128  23.153  14.972
84642W        W53060   8.669   5.263  14.292
84643W        W53061  34.931  40.333   0.907
84644W        W53062  40.512  35.900  13.472
84645W        W53063  31.979  41.978   0.470
84646W        W53064   8.671   8.263   2.417
84647W        W53065   8.772  39.970   1.819
84648W        W53066  25.090  29.144   4.784
84649W        W53067  31.063  25.965  12.504
84650W        W53068  31.497  12.732   0.445
84651W        W53069  35.886  23.681  13.021
84652W        W53070   0.843  21.182  13.936
84653W        W53071  35.389  20.067  12.379
84654W        W53072  43.995  29.498  10.435
84655W        W53073   4.743  41.435  12.958
84656W        W53074  20.732  43.772   1.694
84657W        W53075  13.140  36.074   3.190
84658W        W53076  32.928  37.468  11.865
84659W        W53077  37.505  24.111   2.219
84660W        W53078  30.121  43.803   4.604
84661W        W53079  26.107  32.073   0.948
84662W        W53080  18.642  34.894   0.825
84663W        W53081  35.461  18.684   4.816
84664W        W53082   8.277   5.406   3.349
84665W        W53083  17.213   3.749  11.972
84666W        W53084  14.779  17.166  11.603
84667W        W53085  28.073  22.705   9.983
84668W        W53086  27.559  23.700  11.044
84669W        W53087  37.884  17.176  11.951
84670W        W53088  28.166  33.937  12.076
84671W        W53089  22.686  39.533   1.877
84672W        W53090  29.488  26.603  13.022
84673W        W53091   5.898   5.200   3.226
84674W        W53092  10.266  41.499  14.903
84675W        W53093  34.952  21.525  11.077
84676W        W53094  31.987  34.456   0.866
84677W        W53095   4.388  37.072  14.823
84678W        W53096  36.374  16.211  10.953
84679W        W53097  11.688  27.660  14.395
84680W        W53098  33.556  24.979  14.424
84681W        W53099  44.924  20.697   4.604
84682W        W53100  13.605  40.048  11.025
84683W        W53101  43.442  18.240   5.272
84684W        W53102  25.155  12.268   2.276
84685W        W53103  22.141  39.867   2.893
84686W        W53104  43.860  11.718   4.229
84687W        W53105  29.010  22.156   4.648
84688W        W53106  25.968  41.366  14.818
84689W        W53107  42.860   9.349   5.163
84690W        W53108   9.377   4.252   3.630
84691W        W53109  34.040  16.765   4.272
84692W        W53110  14.784  39.339   2.778
84693W        W53111  25.711  13.811   0.302
84694W        W53112   6.694  43.774   1.421
84695W        W53113  22.592  36.397   0.260
84696W        W53114  33.023  36.005   1.305
84697W        W53115   5.399   7.248  11.965
84698W        W53116  18.140  33.910   1.450
84699W        W53117  28.176   7.392   3.823
84700W        W53118  38.387  11.152  12.515
84701W        W53119  12.319  34.379   3.160
84702W        W53120  39.361  33.536  10.528
84703W        W53121  18.153  14.787  11.968
84704W        W53122  11.805  35.082   4.236
84705W        W53123  44.472  23.517  11.421
84706W        W53124  16.770   0.293   3.225
84707W        W53125  29.003  41.352  11.986
84708W        W53126  16.170  33.911  13.829
84709W        W53127  10.252  35.442   4.802
84710W        W53128  25.063  14.803   2.878
84711W        W53129  38.368  16.725  12.084
84712W        W53130  34.041  15.294  12.837
84713W        W53131  21.022  43.814  13.851
84714W        W53132  15.323  14.320  12.845
84715W        W53133  37.965  13.264  14.915
84716W        W53134   2.938  16.213  12.838
84717W        W53135  35.548  15.761   9.927
84718W        W53136   7.368  44.389  12.556
84719W        W53137  12.306  25.165  14.853
84720W        W53138  26.188  30.992  13.798
84721W        W53139  18.593  17.562  10.999
84722W        W53140   1.741  19.065  10.967
84723W        W53141  41.452  10.858   2.316
84724W        W53142  39.029   7.208  11.396
84725W        W53143  38.353  14.826   1.315
84726W        W53144   2.782  31.140  12.435
84727W        W53145   8.855  19.761  10.992
84728W        W53146  12.261  15.150   2.795
84729W        W53147  39.047  30.017  10.068
84730W        W53148   2.723  19.721   0.419
84731W        W53149  11.859  11.642   4.330
84732W        W53150   7.176  38.986  11.548
84733W        W53151  40.955  11.326   3.233
84734W        W53152   3.881   9.234  14.448
84735W        W53153  24.036  41.473  13.401
84736W        W53154  33.451  17.301  11.084
84737W        W53155  42.481  11.714  14.967
84738W        W53156   3.282  27.137   2.247
84739W        W53157  10.156   8.399   3.229
84740W        W53158  28.021  12.849   5.211
84741W        W53159  21.251  34.914   1.899
84742W        W53160   1.815  19.539   5.590
84743W        W53161  10.342  24.693   4.615
84744W        W53162  26.164  37.907   4.116
84745W        W53163  14.254  18.289   3.707
84746W        W53164  42.512  34.524  11.494
84747W        W53165   9.358   8.197   2.268
84748W        W53166  23.178  37.896  12.830
84749W        W53167  23.190  40.419  14.024
84750W        W53168  25.983  16.144  12.346
84751W        W53169  20.214  26.649   3.188
84752W        W53170  42.955  18.729   4.621
84753W        W53171   5.703   7.678  14.807
84754W        W53172   2.469  34.423  12.492
84755W        W53173  13.284  13.271  13.545
84756W        W53174  38.360   9.828   0.743
84757W        W53175  25.621  11.174  12.915
84758W        W53176  18.707  26.559   3.322
84759W        W53177   4.752   0.346   3.679
84760W        W53178   1.828  13.297  14.501
84761W        W53179  15.742  15.137   4.169
84762W        W53180   8.307  16.613   1.820
84763W        W53181   8.257   7.876  11.025
84764W        W53182  30.054  43.972  14.286
84765W        W53183  26.490   7.726  13.003
84766W        W53184  36.496   8.857   2.718
84767W        W53185  33.971  37.991  12.033
84768W        W53186  41.433   9.889   4.232
84769W        W53187  18.666   2.741  14.371
84770W        W53188   8.315   6.687  12.491
84771W        W53189  27.959   4.847  12.000
84772W        W53190  39.992  34.897   4.783
84773W        W53191   3.785  39.364  14.341
84774W        W53192   9.802  18.781   1.255
84775W        W53193  31.433  16.813   2.835
84776W        W53194  11.735  38.844  11.112
84777W        W53195  23.055  20.529   2.808
84778W        W53196  32.891  26.542  10.936
84779W        W53197  37.521  18.283  13.886
84780W        W53198   5.298  33.493  14.279
84781W        W53199  23.010  10.742   2.378
84782W        W53200  44.278  40.994   3.810
84783W        W53201  22.649  30.521   5.162
84784W        W53202  15.606  41.435  11.388
84785W        W53203  33.086  40.460   1.400
84786W        W53204   5.290  19.575   2.805
84787W        W53205   1.945  30.955   1.933
84788W        W53206   6.317  12.792  11.052
84789W        W53207  22.204  10.350  12.547
84790W        W53208  41.387  44.987  13.887
84791W        W53209  32.887  10.200   1.380
84792W        W53210  13.138  35.578  10.572
84793W        W53211  36.932  10.331  10.615
84794W        W53212  32.423  39.384  10.431
84795W        W53213  22.678  19.203   1.301
84796W        W53214  16.110  36.389   2.295
84797W        W53215  10.649  13.815  13.332
84798W        W53216  39.378  30.641  11.112
84799W        W53217  38.957  40.045  12.886
84800W        W53218  21.672  18.578   2.810
84801W        W53219  21.239   7.390  13.329
84802W        W53220  30.637  16.751  12.010
84803W        W53221  39.320  30.048   4.240
84804W        W53222  24.667  26.138   3.351
84805W        W53223   3.226  21.589   5.770
84806W        W53224  44.812   8.377   1.867
84807W        W53225   7.817   4.436  14.337
84808W        W53226  19.114   1.456   0.785
84809W        W53227  35.955  14.336   1.275
84810W        W53228  23.143  12.708  10.618
84811W        W53229  21.541  25.643   0.445
84812W        W53230   7.295  38.535  14.349
84813W        W53231  22.600  44.934  12.996
84814W        W53232  44.897  41.841  11.447
84815W        W53233  31.952   4.734  11.441
84816W        W53234  25.626  13.727   1.379
84817W        W53235  32.007  29.091   1.316
84818W        W53236  36.404   5.738   0.809
84819W        W53237   4.252  29.653   2.783
84820W        W53238  19.637  40.935  13.965
84821W        W53239  35.002   7.219  13.499
84822W        W53240  39.891  17.114  12.021
84823W        W53241  35.081   9.209   3.645
84824W        W53242  16.644  29.462   1.728
84825W        W53243  10.868  14.171  14.818
84826W        W53244   6.793  44.832  14.785
84827W        W53245  28.586  10.878   3.337
84828W        W53246   2.260  24.531   0.858
84829W        W53247  23.066  37.523   0.254
84830W        W53248  11.729  36.891   0.470
84831W        W53249  21.101  31.476   4.678
84832W        W53250  42.484   0.319  14.942
84833W        W53251  37.912  36.571  10.643
84834W        W53252  22.654  30.494  14.284
84835W        W53253  35.063  26.632  11.579
84836W        W53254   7.408  36.096   0.890
84837W        W53255  14.703  27.602  14.905
84838W        W53256  33.599   7.272   4.284
84839W        W53257  20.606  38.567  13.416
84840W        W53258  12.703   3.230  14.806
84841W        W53259  25.155  26.207   2.298
84842W        W53260  20.637  11.159   3.188
84843W        W53261   0.861  24.221  11.979
84844W        W53262  31.122   5.883   1.391
84845W        W53263  11.659  22.609   3.681
84846W        W53264  35.976  29.945  12.351
84847W        W53265  25.575  22.245  11.460
84848W        W53266  15.789  35.960   0.441
84849W        W53267   3.915  42.304   3.639
84850W        W53268  31.989  33.410   3.332
84851W        W53269  17.208  44.984  14.888
84852W        W53270  37.574  34.930   0.289
84853W        W53271   1.746  33.487   0.346
84854W        W53272  22.598  22.095  14.841
84855W        W53273  28.061  41.792   1.756
84856W        W53274   7.696  26.147  10.423
84857W        W53275  40.509  43.843  11.031
84858W        W53276  24.490  13.733   1.897
84859W        W53277  36.442  35.528   3.758
84860W        W53278  36.897  14.700   2.764
84861W        W53279  41.981  15.216   4.332
84862W        W53280  38.060  38.981  12.025
84863W        W53281  13.123  24.166  14.393
84864W        W53282  12.245   4.407   4.721
84865W        W53283  29.620   8.798  14.441
84866W        W53284   7.232  44.469   0.787
84867W        W53285  19.282  43.888   4.310
84868W        W53286  10.764  43.991   4.126
84869W        W53287  11.732  44.307   4.708
84870W        W53288  34.376  24.694  12.945
84871W        W53289  32.057  12.808   2.195
84872W        W53290  40.477  25.560   1.914
84873W        W53291  25.005  15.673  10.530
84874W        W53292  39.984  40.428  12.480
84875W        W53293  12.176  42.804   1.732
84876W        W53294  25.071  29.558   1.694
84877W        W53295  14.602   8.752  10.983
84878W        W53296   2.779   2.887  14.392
84879W        W53297  16.279  38.542  11.932
84880W        W53298   1.448  40.537  10.574
84881W        W53299  12.214   1.737   1.233
84882W        W53300  26.186   5.778   3.304
84883W        W53301  26.166  34.492  13.944
84884W        W53302  34.985  39.363  13.966
84885W        W53303  33.601   8.681   3.665
84886W        W53304  36.913  24.481  13.833
84887W        W53305  41.998  42.470   3.321
84888W        W53306  26.066   3.881   2.803
84889W        W53307  13.672  11.301  14.416
84890W        W53308  36.866   0.306   3.702
84891W        W53309  42.007   7.266   2.678
84892W        W53310   6.844  27.108  11.968
84893W        W53311  13.199  22.230   2.896
84894W        W53312  15.111  44.409   3.684
84895W        W53313  33.050   7.892  10.987
84896W        W53314  34.099  22.078   0.401
84897W        W53315   4.347  34.607  11.996
84898W        W53316  18.082   3.335  10.948
84899W        W53317   9.658  38.491   2.820
84900W        W53318  13.716   3.268   4.721
84901W        W53319  22.680  33.534   1.698
84902W        W53320  23.725  26.480   4.259
84903W        W53321  14.671  41.485  13.475
84904W        W53322   5.779  20.144  11.017
84905W        W53323   3.911  10.271   0.310
84906W        W53324  42.509   6.420   2.901
84907W        W53325  28.064   1.469  12.025
84908W        W53326  33.440  25.514  11.461
84909W        W53327  23.569  31.979   2.899
84910W        W53328  10.876  24.543   1.932
84911W        W53329  36.522  41.452  12.579
84912W        W53330  34.038  30.954  12.972
84913W        W53331  23.700  35.555   4.260
84914W        W53332  19.624  24.138   4.176
84915W        W53333  43.949  43.779   3.251
84916W        W53334  40.421  14.775  12.910
84917W        W53335  28.079  29.656   2.291
84918W        W53336  15.739   2.349  14.012
84919W        W53337   9.735  26.593   3.803
84920W        W53338  44.803   1.852  10.973
84921W        W53339  31.414  33.925   4.676
84922W        W53340   9.688  12.250   3.171
84923W        W53341  20.755  31.036  13.370
84924W        W53342   2.801   7.242   1.411
84925W        W53343   2.730  35.590   3.224
84926W        W53344  35.523  16.301   0.958
84927W        W53345  15.727  16.183   4.277
84928W        W53346  31.046   2.877   4.660
84929W        W53347  29.472   4.288  13.423
84930W        W53348  11.286  16.097   3.772
84931W        W53349  34.499   4.399   1.243
84932W        W53350   5.367  27.554  11.521
84933W        W53351  28.952  15.192   4.675
84934W        W53352  36.940  37.443  12.845
84935W        W53353   0.477   2.941   0.743
84936W        W53354  10.164  12.685  11.567
84937W        W53355  13.704  35.054   1.817
84938W        W53356  33.391  31.620  12.826
84939W        W53357   4.779  36.907  13.836
84940W        W53358  28.530  35.412  14.970
84941W        W53359   0.452  33.561  11.883
84942W        W53360   5.377  27.941   3.761
84943W        W53361  21.212  26.976  11.989
84944W        W53362  14.135  18.131   2.884
84945W        W53363  21.544  19.162  11.513
84946W        W53364   2.741  11.720  12.935
84947W        W53365  13.683  22.100   2.370
84948W        W53366   1.477   6.234  14.783
84949W        W53367   3.931  43.919  14.018
84950W        W53368  22.018  10.632   4.208
84951W        W53369  44.977  29.598   1.368
84952W        W53370  35.912  36.053   4.689
84953W        W53371  10.659  32.072  13.332
84954W        W53372  21.556  35.560  11.416
84955W        W53373  28.126   8.175  10.555
84956W        W53374   9.380   9.877   4.622
84957W        W53375   6.827  12.667   4.765
84958W        W53376  26.549   3.338  10.982
84959W        W53377  34.564  24.684   0.847
84960W        W53378  15.651   3.448   0.854
84961W        W53379  14.299  26.155  10.946
84962W        W53380  24.196  39.975  14.504
84963W        W53381  17.773   9.833   0.781
84964W        W53382  15.290  44.341  10.584
84965W        W53383  37.961  17.201   0.793
84966W        W53384  20.209  25.056  14.795
84967W        W53385  35.404  33.921   2.713
84968W        W53386  23.561  30.600   4.826
84969W        W53387  17.609  16.120  13.944
84970W        W53388  38.384  12.178  11.468
84971W        W53389  32.958   1.377   2.784
84972W        W53390   1.376  10.234   3.726
84973W        W53391   6.744  24.669  10.414
84974W        W53392  19.766  25.649  12.891
84975W        W53393  24.528   9.741  11.963
84976W        W53394  23.494  39.865  10.641
84977W        W53395  10.873  33.129   3.800
84978W        W53396  19.562   3.775   3.309
84979W        W53397  39.439  44.487   2.775
84980W        W53398  35.594  33.968   0.263
84981W        W53399  27.020  37.850   2.262
84982W        W53400  25.990  21.230   0.351
84983W        W53401  28.552  19.547   4.176
84984W        W53402  15.774  43.971  12.017
84985W        W53403   4.809  42.841  12.935
84986W        W53404  10.655  26.501   3.363
84987W        W53405  26.148  17.779   3.177
84988W        W53406   9.789   1.405   0.405
84989W        W53407  28.049  33.100  11.562
84990W        W53408  18.164   7.716   0.829
84991W        W53409  32.095  32.934   0.280
84992W        W53410   6.695   6.820  10.424
84993W        W53411  21.107   7.377   5.274
84994W        W53412   1.738  31.593  10.634
84995W        W53413  17.278  38.410   4.737
84996W        W53414  25.613  25.494  11.520
84997W        W53415  44.489  18.294  13.890
84998W        W53416  44.788  20.609  10.941
84999W        W53417  15.811   6.817  14.786
85000W        W53418  18.071   3.751   0.756
85001W        W53419  22.095  25.974   5.127
85002W        W53420  40.392   3.244   5.099
85003W        W53421  11.347  24.606  11.375
85004W        W53422  42.972   3.830   5.191
85005W        W53423  40.309  34.108  11.500
85006W        W53424  38.371  18.709  11.483
85007W        W53425  42.996  29.522   5.300
85008W        W53426  29.591  36.460  14.502
85009W        W53427   0.756  16.096   2.725
85010W        W53428   6.680   0.282   3.843
85011W        W53429  32.077  27.457  14.502
85012W        W53430  21.034  38.560   3.848
85013W        W53431  35.554  27.081   4.825
85014W        W53432  14.108  29.113  12.886
85015W        W53433   7.733  19.740   0.287
85016W        W53434  17.195  43.773  11.573
85017W        W53435  29.051  11.126   4.139
85018W        W53436  12.846  15.666   3.209
85019W        W53437  16.295  20.263  12.949
85020W        W53438  19.233  25.130   4.828
85021W        W53439  13.238  42.987   2.698
85022W        W53440   5.735   5.346   3.752
85023W        W53441  35.515  14.324   3.838
85024W        W53442  11.749  24.521  14.770
85025W        W53443  17.118   3.350  12.434
85026W        W53444  25.506  35.926   2.277
85027W        W53445  26.687  19.220  10.940
85028W        W53446  17.220  28.476   9.920
85029W        W53447  34.485  41.438   0.966
85030W        W53448  31.465  13.204  12.925
85031W        W53449  36.460  17.680   2.874
85032W        W53450  28.543  25.507   0.903
85033W        W53451  13.707   2.351  14.848
85034W        W53452  32.997  19.748   3.280
85035W        W53453  41.331  33.926  13.951
85036W        W53454  27.173   0.802   3.863
85037W        W53455  29.507  24.490  10.580
85038W        W53456  15.653   2.332   1.823
85039W        W53457  40.042  21.171   1.761
85040W        W53458  38.569   1.376   4.637
85041W        W53459   4.752  39.847  13.828
85042W        W53460  33.621  27.004  13.939
85043W        W53461  35.519  43.989   4.639
85044W        W53462   1.742  14.168   2.368
85045W        W53463  19.105  30.907   1.263
85046W        W53464  40.822  20.649   1.702
85047W        W53465  28.647  29.010   3.335
85048W        W53466   0.915  24.510  14.936
85049W        W53467  39.317  13.330   1.302
85050W        W53468  43.860  33.083  12.993
85051W        W53469   0.837  42.445  12.539
85052W        W53470  11.760   7.294   0.398
85053W        W53471  41.534  35.067   1.749
85054W        W53472  27.685  27.649   0.399
85055W        W53473  41.918  30.519   2.726
85056W        W53474  15.195   2.380   4.694
85057W        W53475  16.235  11.213  12.371
85058W        W53476  21.551  28.939   0.885
85059W        W53477  18.603  35.892  14.798
85060W        W53478  36.359  25.091   1.260
85061W        W53479  40.941  35.603  12.870
85062W        W53480   8.866  28.461  10.594
85063W        W53481  13.186  34.514   3.824
85064W        W53482  22.040   1.972  13.817
85065W        W53483  15.218  16.672   0.443
85066W        W53484  26.521  10.380   2.284
85067W        W53485   9.184  43.895  13.024
85068W        W53486   3.236   1.877   3.869
85069W        W53487  22.550  38.503  10.584
85070W        W53488  12.338  21.522  11.879
85071W        W53489  25.678  41.525   4.681
85072W        W53490  22.515  11.163   1.761
85073W        W53491  12.151  18.159   2.767
85074W        W53492  16.793  39.386  14.936
85075W        W53493  20.044  20.620  10.979
85076W        W53494   0.779  42.801   0.306
85077W        W53495  36.582  18.671   3.831
85078W        W53496  26.099  31.474   2.832
85079W        W53497  33.998  38.428   5.642
85080W        W53498  22.556  24.524   4.287
85081W        W53499  31.451   5.857   4.288
85082W        W53500  10.370  30.649  11.910
85083W        W53501  21.057  43.969   1.420
85084W        W53502  21.019  37.443  14.403
85085W        W53503  12.840  13.805   4.330
85086W        W53504  26.620  34.921  12.518
85087W        W53505  19.210  13.710  13.936
85088W        W53506  40.378   0.467   2.180
85089W        W53507  10.327  13.712  10.418
85090W        W53508  37.502  44.966   0.842
85091W        W53509   5.803  31.561  13.846
85092W        W53510  43.271   5.305  12.048
85093W        W53511  19.066   5.916   1.325
85094W        W53512  13.174  12.832   2.881
85095W        W53513   7.228  30.431  10.408
85096W        W53514  17.670   9.696   1.918
85097W        W53515  38.947  36.981  10.495
85098W        W53516  17.272  15.220   3.178
85099W        W53517  11.272  17.763  11.546
85100W        W53518  11.300  17.644  10.636
85101W        W53519  15.584  12.199   3.671
85102W        W53520  38.409  41.817  10.479
85103W        W53521   2.411  24.687   2.241
85104W        W53522   3.950  39.507   2.279
85105W        W53523  27.945  23.082   2.725
85106W        W53524  44.843  21.594   9.929
85107W        W53525  28.990  18.547   2.704
85108W        W53526  17.079   5.824   2.710
85109W        W53527  43.828  16.617  13.414
85110W        W53528  37.896  38.559   1.344
85111W        W53529   3.334  26.021  14.478
85112W        W53530  31.968  37.007   3.181
85113W        W53531  14.321  33.466  13.028
85114W        W53532  17.099   3.756  11.537
85115W        W53533   7.207  17.626   4.254
85116W        W53534   7.323  28.671  13.979
85117W        W53535  21.696  16.648   3.639
85118W        W53536  18.597   1.287   1.444
85119W        W53537  36.502  17.265   3.151
85120W        W53538  41.414  22.221   4.677
85121W        W53539   5.889  26.681  14.010
85122W        W53540   2.951  35.469  12.451
85123W        W53541   0.290  18.253  12.487
85124W        W53542  18.279  12.848  11.886
85125W        W53543  14.270   2.949  11.006
85126W        W53544  42.917  36.853  12.967
85127W        W53545   3.384  27.653  12.062
85128W        W53546   7.355  38.830  13.526
85129W        W53547  27.110  42.974  14.344
85130W        W53548  43.833  38.009   2.246
85131W        W53549  23.593  20.653   2.355
85132W        W53550  13.663  31.951  12.835
85133W        W53551  20.247  36.455   1.892
85134W        W53552   0.354  42.356  12.450
85135W        W53553  30.479  21.027   2.805
85136W        W53554   0.917  26.568   4.825
85137W        W53555  34.029  17.636   0.770
85138W        W53556  21.653  29.635  11.585
85139W        W53557  20.267  36.521  14.286
85140W        W53558   2.837  30.575  12.487
85141W        W53559  42.838  12.163  13.007
85142W        W53560  27.971  22.182   1.703
85143W        W53561  18.172  27.075   4.182
85144W        W53562   5.863  39.954  11.546
85145W        W53563  39.383  20.098   1.756
85146W        W53564   7.787  42.784  12.569
85147W        W53565  30.928  28.447  10.598
85148W        W53566   6.335   9.669   0.937
85149W        W53567  24.485   0.866  12.955
85150W        W53568  39.424   4.901  11.478
85151W        W53569  26.505  29.958   3.189
85152W        W53570   5.210  13.600   3.798
85153W        W53571  44.291   1.270   2.226
85154W        W53572  20.098  29.167  14.882
85155W        W53573  33.523   3.880   4.170
85156W        W53574  36.958  27.485  11.435
85157W        W53575  40.501  28.940  14.359
85158W        W53576  34.403  44.857   0.297
85159W        W53577  12.786  43.945  14.907
85160W        W53578   8.849  20.100   4.748
85161W        W53579  32.943  11.311   3.361
85162W        W53580   4.942  15.705   2.190
85163W        W53581  11.284  25.689   1.901
85164W        W53582  29.086  34.026   0.291
85165W        W53583  10.743   2.878   1.769
85166W        W53584  20.053   5.299   2.849
85167W        W53585  31.989  21.514  14.375
85168W        W53586  22.216  35.417   1.305
85169W        W53587  21.750  18.741  12.411
85170W        W53588  34.934  23.133   0.757
85171W        W53589  14.175  12.314  13.375
85172W        W53590   3.849   7.729   2.235
85173W        W53591  20.706  42.484  14.912
85174W        W53592  18.652   6.381  13.949
85175W        W53593  26.458   4.767  13.799
85176W        W53594  24.188  33.993   1.717
85177W        W53595   5.708  23.182   1.767
85178W        W53596  11.167  12.135   4.134
85179W        W53597  31.411  35.913   4.258
85180W        W53598  23.075   2.721  14.491
85181W        W53599  35.526   1.258   2.794
85182W        W53600   1.410  31.015   2.844
85183W        W53601  43.779  44.476  10.478
85184W        W53602  16.775   6.221   1.245
85185W        W53603  44.343  42.788   4.258
85186W        W53604   3.886  36.860  12.439
85187W        W53605  11.155  17.227   1.366
85188W        W53606   9.226  24.635   4.724
85189W        W53607   8.891  34.042   2.251
85190W        W53608  38.367  34.057  11.530
85191W        W53609  24.057  23.040  13.026
85192W        W53610   4.928  10.680  13.917
85193W        W53611  12.202  12.814  11.587
85194W        W53612  18.657   7.900   0.788
85195W        W53613   1.445  35.943  11.088
85196W        W53614  40.859   6.185   0.390
85197W        W53615   6.338  39.009   0.801
85198W        W53616  26.527  44.883   4.209
85199W        W53617  39.535  10.139   4.307
85200W        W53618  25.499  12.629   3.636
85201W        W53619  32.091   7.800  12.422
85202W        W53620   3.273  31.424  14.016
85203W        W53621   5.269  31.026  11.392
85204W        W53622  16.307   5.757   0.297
85205W        W53623  16.785   3.722   0.739
85206W        W53624  17.159  27.623  12.573
85207W        W53625  13.128  23.596  11.437
85208W        W53626   2.773  30.559  12.828
85209W        W53627  21.558   4.939   0.808
85210W        W53628  32.414  28.165   2.899
85211W        W53629  14.299   3.289   0.934
85212W        W53630  12.277  37.412   3.252
85213W        W53631  16.118  41.993   0.904
85214W        W53632  18.784  10.182  12.980
85215W        W53633  44.763  40.351   0.473
85216W        W53634  10.332   2.293   5.141
85217W        W53635  27.093   9.387  13.798
85218W        W53636  14.124  26.101   1.781
85219W        W53637  31.150  38.828   4.600
85220W        W53638  20.225  29.627  14.395
85221W        W53639  33.583  43.373   4.267
85222W        W53640   1.294   4.701  13.941
85223W        W53641   2.934  13.600   0.804
85224W        W53642   3.225  44.798   1.846
85225W        W53643   2.851  40.991   2.288
85226W        W53644  41.525   6.712  12.981
85227W        W53645  44.987  19.646   4.676
85228W        W53646   7.233   2.843   3.166
85229W        W53647  15.109  25.686  13.492
85230W        W53648  33.970  20.697  11.057
85231W        W53649  24.123  20.690   2.778
85232W        W53650  42.841  37.452  13.045
85233W        W53651  10.367  43.419  11.930
85234W        W53652  39.505   6.385  13.380
85235W        W53653  22.150  35.981   2.692
85236W        W53654  34.073  29.084  13.997
85237W        W53655  32.440  37.515   2.857
85238W        W53656  32.105   7.895   0.290
85239W        W53657   2.472  23.560   0.312
85240W        W53658  34.879   1.463  14.823
85241W        W53659  15.713   6.341   0.324
85242W        W53660  32.969  27.969  14.422
85243W        W53661  37.858  20.193  13.869
85244W        W53662  37.348  17.626  13.853
85245W        W53663   6.286  28.467   2.321
85246W        W53664   1.431  23.112  11.484
85247W        W53665  34.440  27.187   0.433
85248W        W53666  17.715   8.724   2.400
85249W        W53667  36.484  39.352  10.102
85250W        W53668  28.943  23.003  13.944
85251W        W53669   2.723  35.533  13.330
85252W        W53670  44.914  13.113   1.394
85253W        W53671   3.264   3.225  12.553
85254W        W53672  43.486  29.468  11.423
85255W        W53673  31.153   9.368  14.885
85256W        W53674  22.580  42.784   4.170
85257W        W53675  18.754  22.546   2.252
85258W        W53676  44.780  40.916   3.775
85259W        W53677   4.823   1.450   2.255
85260W        W53678  30.985  35.460  11.579
85261W        W53679   9.869  34.539  11.539
85262W        W53680  29.542  29.014   0.461
85263W        W53681   7.911  30.923   1.332
85264W        W53682  32.994   9.801  10.992
85265W        W53683  31.004   7.869   4.255
85266W        W53684  38.937  16.130   3.802
85267W        W53685  14.097  34.563  11.410
85268W        W53686  10.236   1.786   2.861
85269W        W53687  22.029  36.587   1.911
85270W        W53688  35.994  11.859  13.853
85271W        W53689  44.924  15.258   2.297
85272W        W53690   1.966   8.834  14.406
85273W        W53691   1.375  39.893   2.868
85274W        W53692  43.494  11.809  11.972
85275W        W53693  18.726  12.248  13.044
85276W        W53694  35.494  19.250   1.271
85277W        W53695   2.801   8.716  11.477
85278W        W53696  38.913   4.267  11.565
85279W        W53697  42.979   6.904  13.452
85280W        W53698  25.164  33.961   3.347
85281W        W53699  17.780  12.616   1.378
85282W        W53700   6.710  11.719  12.898
85283W        W53701  34.439  26.181  10.928
85284W        W53702  13.624  31.506   4.609
85285W        W53703   1.970  34.869   1.761
85286W        W53704  14.246  37.580   3.801
85287W        W53705  25.082  31.423   2.323
85288W        W53706  18.178  42.308  14.815
85289W        W53707  10.139   3.804   4.718
85290W        W53708   4.284  40.800   4.763
85291W        W53709   2.955  24.983  10.423
85292W        W53710  16.300   3.461   0.954
85293W        W53711  16.772  26.966   1.818
85294W        W53712  12.208  22.572  12.068
85295W        W53713  34.929  24.666   0.847
85296W        W53714  23.557  18.548  11.929
85297W        W53715  24.048  15.675   0.368
85298W        W53716   7.834   5.847  14.513
85299W        W53717  17.760  44.785   2.700
85300W        W53718  44.904  24.194   4.722
85301W        W53719   1.370  17.710  13.958
85302W        W53720  10.188  40.012   1.298
85303W        W53721  13.789  13.168   3.193
85304W        W53722  13.313  42.970   3.744
85305W        W53723  23.136  38.556  10.128
85306W        W53724  37.447  23.677  10.990
85307W        W53725  31.046  19.691   0.900
85308W        W53726  30.042  22.194  11.550
85309W        W53727  32.903   1.923   2.370
85310W        W53728  40.543  13.213  14.900
85311W        W53729  20.089   7.359   1.840
85312W        W53730  14.336  33.100   2.327
85313W        W53731  30.957  14.642  13.547
85314W        W53732  28.502  38.974  12.390
85315W        W53733  22.102  29.489  10.565
85316W        W53734  40.468  11.308   3.687
85317W        W53735  13.806  35.075  14.001
85318W        W53736  36.428  35.543  14.836
85319W        W53737  37.428   9.780   2.179
85320W        W53738  31.960  19.209  11.127
85321W        W53739  20.691   3.335   1.328
85322W        W53740  38.926  10.808  13.805
85323W        W53741   5.704  20.757  13.327
85324W        W53742  29.055   0.760  11.589
85325W        W53743   7.668  32.486  10.971
85326W        W53744  41.878  33.072  14.834
85327W        W53745  25.973  41.832   1.769
85328W        W53746  37.367   4.348   4.623
85329W        W53747  37.440  29.625  13.454
85330W        W53748  23.655  29.154  13.020
85331W        W53749   0.433  11.192   2.780
85332W        W53750   2.957  15.225  12.496
85333W        W53751  23.168  39.456  14.914
85334W        W53752  20.597  16.794  14.786
85335W        W53753  35.365  19.619  14.949
85336W        W53754   7.858  27.586  11.057
85337W        W53755   9.188  42.971   2.764
85338W        W53756  26.111   7.280   0.277
85339W        W53757  21.021   5.697  13.046
85340W        W53758  30.912  12.646   5.131
85341W        W53759  16.570   3.389   3.654
85342W        W53760  24.110   2.431  14.342
85343W        W53761  23.229  39.384   4.662
85344W        W53762  26.631  37.502   4.322
85345W        W53763   5.230   6.232   1.451
85346W        W53764  36.575  24.487   1.412
85347W        W53765   9.214   8.748   0.312
85348W        W53766   0.248  21.042  11.918
85349W        W53767  34.384  15.105  11.891
85350W        W53768  20.274  43.946  11.459
85351W        W53769   5.746   2.383   3.663
85352W        W53770  26.062  23.063   4.726
85353W        W53771   9.387  12.725   2.180
85354W        W53772  39.841  23.672  12.980
85355W        W53773   2.871  39.010  10.951
85356W        W53774   3.730  34.871   3.737
85357W        W53775  33.599  29.458   0.809
85358W        W53776   1.337   5.219  14.285
85359W        W53777  30.927  17.716   1.704
85360W        W53778  35.859  24.196   4.175
85361W        W53779  34.030  26.580  10.454
85362W        W53780  35.071  32.553  11.992
85363W        W53781  32.094  30.630  10.620
85364W        W53782  33.611  26.126   4.780
85365W        W53783   7.307  10.237  12.899
85366W        W53784   5.926   5.762  10.571
85367W        W53785  39.384  15.097   1.305
85368W        W53786  10.735  25.481   2.253
85369W        W53787  34.068  18.546  13.324
85370W        W53788  10.640  37.087   2.746
85371W        W53789  11.672  33.898  10.138
85372W        W53790  21.183  10.299  10.919
85373W        W53791  32.485   6.191  10.957
85374W        W53792   8.696   8.886   2.320
85375W        W53793  10.843  13.236  11.400
85376W        W53794  35.045  38.972  12.062
85377W        W53795  25.049  23.178   0.337
85378W        W53796  43.912  38.487  10.031
85379W        W53797  44.316  41.328  13.887
85380W        W53798  26.060  15.676  11.881
85381W        W53799  43.771  40.379  11.565
85382W        W53800  35.497  20.186   0.434
85383W        W53801  38.962  13.138   0.483
85384W        W53802   3.258  29.611  14.793
85385W        W53803  26.593  13.800  14.412
85386W        W53804  40.364   8.270   4.197
85387W        W53805  13.725  41.528   4.629
85388W        W53806  26.483   9.313   3.271
85389W        W53807  37.083  37.075   1.698
85390W        W53808   1.291   6.195  10.627
85391W        W53809  35.899  10.739  10.584
85392W        W53810  35.417  37.359  14.986
85393W        W53811  41.013  34.063   0.317
85394W        W53812  18.075   9.803   2.229
85395W        W53813  35.378  42.805  14.398
85396W        W53814   5.808  22.030  14.336
85397W        W53815   3.859   3.277  11.912
85398W        W53816  12.703  17.160  12.504
85399W        W53817  25.587  33.109   0.480
85400W        W53818   6.427  24.225  13.496
85401W        W53819  18.262  17.117   1.415
85402W        W53820  12.681  14.791   1.800
85403W        W53821  30.439   2.444   0.425
85404W        W53822   4.314  25.623  14.810
85405W        W53823   9.722  39.916   1.815
85406W        W53824  27.624  16.577  11.021
85407W        W53825  25.095  43.772  13.047
85408W        W53826  15.238  13.817  13.049
85409W        W53827   3.449  31.150  13.408
85410W        W53828  15.699  40.412  11.593
85411W        W53829  44.801  32.120   4.198
85412W        W53830   1.958   6.684  14.969
85413W        W53831   5.398   3.323  11.588
85414W        W53832   0.897  16.649   3.191
85415W        W53833  43.980  32.507  10.957
85416W        W53834  26.980  44.476  14.429
85417W        W53835   9.734   6.383  11.986
85418W        W53836  35.441  33.478   0.748
85419W        W53837  28.677  21.222  11.981
85420W        W53838  40.841  42.350   0.783
85421W        W53839  22.520  38.029   2.755
85422W        W53840  21.705  37.357   2.360
85423W        W53841  39.329  43.414   1.249
85424W        W53842   8.689   0.976  12.424
85425W        W53843  24.493  26.180   3.730
85426W        W53844  26.667   4.864  13.053
85427W        W53845  29.628  17.560  11.068
85428W        W53846   4.817  16.120  12.460
85429W        W53847  15.749  29.487  14.797
85430W        W53848   0.934  15.683   4.806
85431W        W53849  21.062  36.463   5.127
85432W        W53850  14.260  12.667   0.929
85433W        W53851  40.339  33.511   5.196
85434W        W53852  39.489  27.574   1.895
85435W        W53853   2.960  10.259  13.806
85436W        W53854  33.914  30.511   2.190
85437W        W53855  13.830  24.653   2.690
85438W        W53856  14.216  17.191   1.867
85439W        W53857  18.693  31.069  11.457
85440W        W53858  20.104  31.079   3.842
85441W        W53859  11.152   7.789   3.178
85442W        W53860  15.665  37.362  12.996
85443W        W53861  37.947  18.155  13.462
85444W        W53862  28.494  32.470   3.214
85445W        W53863  31.449  24.671  11.933
85446W        W53864  20.545  36.424  11.907
85447W        W53865   6.898  32.949  13.913
85448W        W53866   5.876  28.068   0.336
85449W        W53867   0.418  36.057  11.004
85450W        W53868  36.451  36.063   2.852
85451W        W53869  14.173  20.576  13.505
85452W        W53870  25.512  40.372   4.222
85453W        W53871   9.669   1.940  13.867
85454W        W53872  12.839  44.984   0.950
85455W        W53873  12.817  23.723  11.958
85456W        W53874  28.651  44.328  14.905
85457W        W53875  19.207   1.475   3.153
85458W        W53876  40.341   4.297   0.731
85459W        W53877   4.428  37.947   4.199
85460W        W53878   6.821  25.007  13.451
85461W        W53879  17.659   2.852  14.860
85462W        W53880   0.797   2.259  12.927
85463W        W53881  27.051  39.356   1.886
85464W        W53882  11.341  43.423   1.901
85465W        W53883  31.092  19.755   1.914
85466W        W53884  39.448  43.481  11.023
85467W        W53885  36.976  44.000  12.937
85468W        W53886  25.984  29.464   3.228
85469W        W53887  24.014  39.468  11.546
85470W        W53888  34.966  37.487  11.572
85471W        W53889  38.905  41.367  10.624
85472W        W53890  34.112  14.705  13.488
85473W        W53891   1.932   4.819  11.867
85474W        W53892  38.977  34.478  13.544
85475W        W53893  21.693  20.578   4.133
85476W        W53894   8.233  12.701   3.631
85477W        W53895  10.247   2.769  11.482
85478W        W53896  18.678  37.510   2.265
85479W        W53897  33.918  36.392   4.777
85480W        W53898  44.936  16.209  14.310
85481W        W53899   8.215   0.961  10.512
85482W        W53900  24.526  25.522   4.800
85483W        W53901  13.194  40.393  14.952
85484W        W53902   3.956  42.479   3.225
85485W        W53903   3.318  17.135   2.231
85486W        W53904  35.439  12.256   3.648
85487W        W53905   1.406  28.556   2.230
85488W        W53906   1.313   7.202  11.402
85489W        W53907   9.328  35.875  11.421
85490W        W53908  21.063  42.929  12.830
85491W        W53909  28.120   3.877   4.654
85492W        W53910  39.317  20.070  11.438
85493W        W53911  24.046  29.065  14.801
85494W        W53912  10.820  14.756   4.777
85495W        W53913  29.982  21.083  12.041
85496W        W53914  25.014  23.540   0.291
85497W        W53915  13.708  14.299  12.876
85498W        W53916  30.143  38.887   2.789
85499W        W53917  33.038  29.034   0.882
85500W        W53918  42.346  18.692   0.401
85501W        W53919  30.521  25.066  11.876
85502W        W53920   5.196  33.426  12.442
85503W        W53921  44.311  20.111  13.539
85504W        W53922  16.788  21.522   2.209
85505W        W53923  28.674  42.419   1.906
85506W        W53924  34.083  36.048  13.425
85507W        W53925   6.300  39.900   2.706
85508W        W53926  30.649  17.661  12.968
85509W        W53927  12.262  22.111   4.258
85510W        W53928  34.994  38.499  10.153
85511W        W53929  29.560   6.378   2.795
85512W        W53930  35.565  16.587   1.333
85513W        W53931  31.922  29.170   9.936
85514W        W53932  36.578  26.520  13.875
85515W        W53933  38.047  17.566   1.778
85516W        W53934  31.069  41.371  12.475
85517W        W53935  29.659   7.226  13.493
85518W        W53936   4.270  22.511  14.020
85519W        W53937   2.743  38.562  12.544
85520W        W53938  28.558  21.533  14.339
85521W        W53939  27.447  39.063  13.846
85522W        W53940  11.728  17.644   2.815
85523W        W53941  31.568  20.551   4.677
85524W        W53942  14.722  28.115   1.267
85525W        W53943  15.262  12.329   4.321
85526W        W53944  13.776  11.647  13.993
85527W        W53945  10.806   9.761   1.803
85528W        W53946  17.712  12.172  11.914
85529W        W53947  34.010   4.916  13.854
85530W        W53948  44.975  36.924   2.858
85531W        W53949   0.955  10.306   3.217
85532W        W53950  15.610   5.843  14.479
85533W        W53951   3.946   8.869   0.764
85534W        W53952  25.663  31.087   1.832
85535W        W53953  40.913  12.266   2.247
85536W        W53954   4.850  20.121   1.292
85537W        W53955  37.557  42.877  10.889
85538W        W53956   0.747   6.686  12.919
85539W        W53957   5.345  42.521   1.735
85540W        W53958  29.522  18.686  14.943
85541W        W53959  18.259  15.224  12.465
85542W        W53960  26.100  37.968  14.024
85543W        W53961  18.082  36.527   4.771
85544W        W53962  29.660  36.413   1.802
85545W        W53963  43.352   9.215   1.916
85546W        W53964  26.656   8.760   4.118
85547W        W53965  44.272  19.723  11.389
85548W        W53966  14.187  32.499   5.305
85549W        W53967  24.098  33.573   1.812
85550W        W53968  13.617  10.745  10.578
85551W        W53969   9.842  31.927  12.862
85552W        W53970  37.410  35.022  11.005
85553W        W53971  37.405   3.219   1.432
85554W        W53972  14.182  28.042  12.369
85555W        W53973   0.946  19.275   0.430
85556W        W53974  31.080  44.981   4.308
85557W        W53975  40.428  44.910   0.842
85558W        W53976  27.963   3.301   4.638
85559W        W53977  34.408  42.358   4.213
85560W        W53978   1.869  44.488  14.872
85561W        W53979  29.524  36.476   3.825
85562W        W53980  23.688  13.647  11.027
85563W        W53981  23.604  10.252  11.488
85564W        W53982  10.648   2.394  13.862
85565W        W53983  34.597  28.659   0.760
85566W        W53984   9.251   2.374   1.903
85567W        W53985  39.001  39.358   2.729
85568W        W53986  13.206   0.377  10.966
85569W        W53987  30.483  26.124   4.808
85570W        W53988   6.300   8.869  14.951
85571W        W53989  39.858  34.035  13.808
85572W        W53990  31.910  40.993   3.356
85573W        W53991  43.478  32.097   4.775
85574W        W53992   5.864   1.951   3.363
85575W        W53993  19.184   9.753   3.376
85576W        W53994  19.058  41.874  11.086
85577W        W53995  15.706  16.314  14.825
85578W        W53996  20.548  30.045   4.651
85579W        W53997   7.738  44.411  10.636
85580W        W53998  36.079  33.970  13.830
85581W        W53999   9.788  20.761  13.843
85582W        W54000  22.011  23.006   3.751
85583W        W54001  25.963   5.320  13.038
85584W        W54002  11.777  35.939  11.508
85585W        W54003  20.136   9.334   0.941
85586W        W54004  36.471  40.798   3.315
85587W        W54005  24.130  19.592  14.285
85588W        W54006  30.050  35.569  10.501
85589W        W54007  33.054   8.325   3.293
85590W        W54008  14.790   4.238   3.636
85591W        W54009  39.499  14.335   0.484
85592W        W54010   5.286  41.294   1.342
85593W        W54011  30.016  25.084  12.867
85594W        W54012   6.296  20.109   1.721
85595W        W54013  25.571  37.343   4.615
85596W        W54014   7.770  25.193  12.895
85597W        W54015  22.225  16.081   3.343
85598W        W54016  38.341  42.842   2.726
85599W        W54017  12.666  25.996  14.342
85600W        W54018  41.325  36.483  10.640
85601W        W54019  40.018   9.797   3.268
85602W        W54020   2.894  18.084   3.685
85603W        W54021  38.570  24.674   3.283
85604W        W54022  11.655  28.560  11.459
85605W        W54023   4.706  41.857   0.820
85606W        W54024  25.002   2.306   0.394
85607W        W54025  44.273   4.890   0.272
85608W        W54026  15.745  35.995   0.891
85609W        W54027  15.271  11.629   4.316
85610W        W54028  10.279  15.760  11.411
85611W        W54029  39.943  11.215   2.276
85612W        W54030  29.450  36.520   2.671
85613W        W54031  35.871  15.316  14.791
85614W        W54032  39.882  13.236  10.431
85615W        W54033   0.455  38.834   4.226
85616W        W54034   2.944   0.487  11.116
85617W        W54035  35.511  31.549   1.373
85618W        W54036  11.672  34.381  14.868
85619W        W54037  16.208  31.534   4.162
85620W        W54038   6.327  42.921   4.839
85621W        W54039  13.126  32.545   4.139
85622W        W54040  20.195   3.368  14.815
85623W        W54041   5.915  24.092   2.192
85624W        W54042  18.556  17.632   2.858
85625W        W54043   5.766   0.872   4.836
85626W        W54044  17.120   3.732   4.249
85627W        W54045   3.245  35.448  13.040
85628W        W54046  35.459  21.702   1.272
85629W        W54047  15.785  39.887  11.493
85630W        W54048  34.579  27.656  11.374
85631W        W54049  40.495  17.300   3.759
85632W        W54050  31.559  14.618  10.418
85633W        W54051  16.657  42.430   4.702
85634W        W54052  13.644  25.178  12.913
85635W        W54053  27.070  41.332  11.495
85636W        W54054  27.557  31.991  11.953
85637W        W54055  41.919   6.252  11.611
85638W        W54056  15.329  25.654  10.532
85639W        W54057  12.780   9.696   4.828
85640W        W54058   2.273  42.874  12.436
85641W        W54059  30.966  37.982   1.735
85642W        W54060  26.148  12.850  12.577
85643W        W54061  42.883  35.361  11.401
85644W        W54062   7.199  39.839   4.701
85645W        W54063  28.934  10.313  13.859
85646W        W54064  44.922  44.779  13.411
85647W        W54065   7.318  22.206   0.360
85648W        W54066  11.656   2.443  14.000
85649W        W54067  10.362  19.591   3.650
85650W        W54068   2.892  38.560   1.928
85651W        W54069  11.296  35.565  11.917
85652W        W54070  17.154  39.992   3.380
85653W        W54071  18.223  40.461   2.749
85654W        W54072  11.285  22.637   0.807
85655W        W54073  43.290  25.073   5.147
85656W        W54074  12.158   1.330  10.436
85657W        W54075  10.158  23.194  13.440
85658W        W54076   0.362  34.406   1.377
85659W        W54077  21.109  20.203  11.498
85660W        W54078  43.893  30.911   4.349
85661W        W54079  37.998  37.500   0.966
85662W        W54080   0.905  31.563   2.695
85663W        W54081  27.552  35.021  11.439
85664W        W54082  17.128   7.678  14.344
85665W        W54083  11.720  15.800  13.519
85666W        W54084  13.819  40.045   2.735
85667W        W54085   2.782  27.175   2.329
85668W        W54086  31.921  31.488   2.833
85669W        W54087  41.815  21.065   0.881
85670W        W54088   4.383  42.464  14.408
85671W        W54089   1.834   7.740   4.145
85672W        W54090  28.997   8.378   3.339
85673W        W54091   2.814  22.595   0.400
85674W        W54092  29.584  21.188  13.950
85675W        W54093   0.855  32.051  11.609
85676W        W54094   5.212  39.523   4.725
85677W        W54095  36.086  12.140  13.939
85678W        W54096  29.511  10.138   1.356
85679W        W54097  37.877   3.393  12.014
85680W        W54098  17.755  24.543   4.221
85681W        W54099  15.250  28.027   2.839
85682W        W54100  36.494  11.800  11.515
85683W        W54101  27.103  12.170  11.984
85684W        W54102  27.105   1.940   3.235
85685W        W54103  32.023  14.197  10.919
85686W        W54104  10.768   0.915   0.283
85687W        W54105  17.697  21.529  13.332
85688W        W54106  43.420   2.948  14.286
85689W        W54107   8.206  33.969   2.335
85690W        W54108  11.680   3.342  12.580
85691W        W54109   4.923  40.433   1.696
85692W        W54110  10.653  12.154  12.952
85693W        W54111   8.821  36.456  13.332
85694W        W54112  29.593   8.851  14.018
85695W        W54113  36.008  41.973  14.997
85696W        W54114  32.042   8.353  10.460
85697W        W54115  38.464  30.475   3.767
85698W        W54116  15.094  27.465  14.798
85699W        W54117  44.271  42.956  11.994
85700W        W54118  37.394  38.413   3.804
85701W        W54119  17.801   6.740  12.038
85702W        W54120  21.047  23.083   3.275
85703W        W54121   4.712  19.140  12.548
85704W        W54122  36.518  21.157   5.090
85705W        W54123   6.900  26.011   0.256
85706W        W54124  14.123   7.903  12.080
85707W        W54125  15.708   7.264   5.660
85708W        W54126  43.510  29.132  14.277
85709W        W54127  16.281  39.062   0.743
85710W        W54128  15.224   4.422  14.298
85711W        W54129  37.429  16.306   1.252
85712W        W54130  29.486  24.113   1.304
85713W        W54131  36.484  44.495   1.391
85714W        W54132  42.398  20.633   0.324
85715W        W54133  28.055  20.062   0.338
85716W        W54134  31.559  41.917  11.059
85717W        W54135  13.106  23.611  10.966
85718W        W54136  22.587  21.065   0.818
85719W        W54137  23.038  29.166  11.957
85720W        W54138  18.118  40.530  12.972
85721W        W54139  40.813  10.221  13.333
85722W        W54140  30.603  35.447  14.392
85723W        W54141  34.064  29.041  13.445
85724W        W54142   7.292  10.798  14.990
85725W        W54143  19.705  23.016  10.038
85726W        W54144   7.885  23.089   1.364
85727W        W54145  19.626  38.964  12.874
85728W        W54146   6.777   9.273  13.395
85729W        W54147  12.828   2.938  14.353
85730W        W54148  42.027  28.131  12.947
85731W        W54149   0.903  43.434  12.991
85732W        W54150  44.801   8.292  12.941
85733W        W54151  23.081  22.072  12.946
85734W        W54152  22.040  23.143   0.876
85735W        W54153  17.725  43.413  10.573
85736W        W54154   3.774  14.699  12.372
85737W        W54155  29.111  13.773  12.379
85738W        W54156  20.060   4.365  14.954
85739W        W54157  32.926  14.716   2.700
85740W        W54158   8.287   9.779   4.677
85741W        W54159  17.300  14.265   1.702
85742W        W54160  44.901  19.746   1.371
85743W        W54161  10.729  26.068   1.340
85744W        W54162  22.239  15.708   0.884
85745W        W54163  19.746   9.172  12.356
85746W        W54164  14.206   7.368   0.786
85747W        W54165  27.579   4.734   4.825
85748W        W54166  24.651   9.851  14.761
85749W        W54167  22.587   5.907   3.370
85750W        W54168  37.865  36.909  14.465
85751W        W54169   2.845  13.315   0.859
85752W        W54170  40.963  40.357  12.960
85753W        W54171  44.896  43.471  10.991
85754W        W54172  30.084  32.892  12.552
85755W        W54173   1.241  41.423  11.517
85756W        W54174  18.708   4.354   0.425
85757W        W54175  24.545   1.854  14.766
85758W        W54176  20.714   6.844  13.026
85759W        W54177  10.177  33.955  11.476
85760W        W54178  24.635   1.299  13.061
85761W        W54179  20.599  25.494  13.839
85762W        W54180  16.206  34.920  10.433
85763W        W54181   7.784  15.803   3.735
85764W        W54182  34.966  12.328   0.457
85765W        W54183  44.307  36.937  12.992
85766W        W54184  16.633  22.201  10.510
85767W        W54185  38.025  32.448   0.954
85768W        W54186  12.750  18.271  10.431
85769W        W54187  28.653   5.379  10.458
85770W        W54188  26.173  28.149   2.867
85771W        W54189  16.199  34.581  10.912
85772W        W54190  36.447  18.200  12.943
85773W        W54191   3.779  42.483  13.449
85774W        W54192   7.409  41.030   1.251
85775W        W54193   3.929  17.131  12.388
85776W        W54194   3.848  30.478  13.372
85777W        W54195   7.232  15.639   3.851
85778W        W54196  26.488  15.221   2.214
85779W        W54197  26.194  41.842  14.926
85780W        W54198   7.275  24.076  14.362
85781W        W54199  12.684  30.503  12.910
85782W        W54200  24.061  25.145   3.767
85783W        W54201  43.328  20.657   0.308
85784W        W54202   9.344  27.600   0.821
85785W        W54203  15.264  14.305  14.323
85786W        W54204  14.245   3.760   1.345
85787W        W54205  41.862  29.615   2.751
85788W        W54206  29.614  28.676   1.838
85789W        W54207   4.899   4.723   2.357
85790W        W54208  34.424  22.236   2.216
85791W        W54209  38.973  10.357  11.512
85792W        W54210   7.909   4.816  14.957
85793W        W54211   8.165  12.186   0.311
85794W        W54212  42.365  41.488  12.412
85795W        W54213   3.854   0.924  14.343
85796W        W54214  20.722  27.610   3.822
85797W        W54215   3.815  12.142  14.990
85798W        W54216  44.445   0.878  14.496
85799W        W54217  38.061  17.669   4.151
85800W        W54218  43.341   4.366  11.104
85801W        W54219  31.040   2.749  14.409
85802W        W54220   9.887   1.860   1.423
85803W        W54221  13.654  25.067  12.053
85804W        W54222   5.371  37.404   1.237
85805W        W54223  31.911  39.445  12.017
85806W        W54224  36.901  21.556  14.335
85807W        W54225  29.076  25.164  12.539
85808W        W54226  20.671  42.450   1.371
85809W        W54227  36.423  39.913  12.551
85810W        W54228  30.604  14.303  11.570
85811W        W54229  38.414   3.283   2.671
85812W        W54230  25.100   1.351  14.869
85813W        W54231  29.448  23.232  13.362
85814W        W54232  12.120  17.230   2.847
85815W        W54233   5.879  19.577  10.983
85816W        W54234  11.758   4.813   4.736
85817W        W54235  43.895  36.495   2.362
85818W        W54236   1.883  39.397   1.914
85819W        W54237  41.395  27.168   4.822
85820W        W54238  27.569  19.279   1.319
85821W        W54239  18.576   5.806  11.610
85822W        W54240  37.997   1.878   0.436
85823W        W54241  44.482  13.310   0.461
85824W        W54242  27.612  31.579   1.342
85825W        W54243  40.004  15.249  13.044
85826W        W54244  28.621  25.052   0.342
85827W        W54245  30.504  32.941  13.853
85828W        W54246  27.606  23.567  14.888
85829W        W54247  41.423  29.918  10.517
85830W        W54248   1.463  17.737  11.887
85831W        W54249  34.970   5.435  10.941
85832W        W54250   1.814   7.227   4.695
85833W        W54251  38.878  24.023   0.437
85834W        W54252  40.898  37.513  12.491
85835W        W54253  12.710  37.489  12.017
85836W        W54254  15.782   9.751   4.836
85837W        W54255   8.228  24.661  13.825
85838W        W54256  42.523  24.537   3.334
85839W        W54257  14.322  33.880   1.865
85840W        W54258  41.002  25.058  13.471
85841W        W54259  43.969  39.909   1.913
85842W        W54260   5.394   6.254   4.325
85843W        W54261  32.466  39.950  11.892
85844W        W54262  22.248  38.939   2.810
85845W        W54263  41.493  22.078   4.274
85846W        W54264  22.176  44.386   4.226
85847W        W54265  35.961  39.481  13.437
85848W        W54266  16.688  37.436  12.506
85849W        W54267   6.704  20.673  14.946
85850W        W54268   3.396   3.365  12.995
85851W        W54269  10.651  14.654  13.890
85852W        W54270  41.852   1.841   3.216
85853W        W54271   8.351  31.107   3.281
85854W        W54272  11.205   7.295   1.771
85855W        W54273  43.865  21.549   0.936
85856W        W54274  25.659  44.323   4.833
85857W        W54275  31.104   2.902   1.735
85858W        W54276   3.347   2.829   3.685
85859W        W54277  28.991  25.498   0.325
85860W        W54278  17.163  41.417  14.290
85861W        W54279  18.560  25.085  14.901
85862W        W54280  34.374  24.546  12.059
85863W        W54281  17.783   2.764  13.492
85864W        W54282  32.624   9.259  12.048
85865W        W54283  30.945  39.828   3.688
85866W        W54284  12.780  37.933  11.480
85867W        W54285  12.117  17.719  10.630
85868W        W54286   4.442  38.483  13.881
85869W        W54287  22.638  44.920  10.499
85870W        W54288  15.641  16.262   2.779
85871W        W54289  14.665  26.687   1.424
85872W        W54290  28.435  11.349   2.271
85873W        W54291   0.939  11.188  11.950
85874W        W54292  35.106  12.336   4.665
85875W        W54293  39.362   5.202  13.546
85876W        W54294  43.912  39.411   2.901
85877W        W54295  15.140   7.677   5.223
85878W        W54296  25.483  10.382   5.211
85879W        W54297  37.077  19.261   2.283
85880W        W54298  37.072   9.695  14.789
85881W        W54299  42.813  28.995  10.013
85882W        W54300  37.082   0.841   3.852
85883W        W54301  42.509   0.433   3.163
85884W        W54302  12.245  40.950  12.544
85885W        W54303   7.401  18.579   3.345
85886W        W54304  33.106   5.807   0.907
85887W        W54305  25.468   3.336  13.323
85888W        W54306  30.164   6.913  12.922
85889W        W54307  33.400  32.066  10.045
85890W        W54308  18.757  16.228   0.462
85891W        W54309  12.213  42.378   1.900
85892W        W54310   5.382  29.427  13.430
85893W        W54311  41.506  13.308  13.344
85894W        W54312  28.626  10.384  10.554
85895W        W54313  19.739  20.047   4.605
85896W        W54314  30.465   2.238  14.505
85897W        W54315  26.500  15.103  12.370
85898W        W54316  43.300  21.543   1.285
85899W        W54317   8.303  17.145  12.463
85900W        W54318  17.685  32.921   2.890
85901W        W54319  42.981   7.710   3.667
85902W        W54320  28.664   6.384   4.334
85903W        W54321  30.503   1.823  11.039
85904W        W54322  42.884   4.926  10.900
85905W        W54323  33.934   2.275   4.785
85906W        W54324  42.955  11.215  13.847
85907W        W54325  33.025  21.111   2.319
85908W        W54326   7.213  13.793  13.958
85909W        W54327  34.521  19.260  12.980
85910W        W54328  41.794   9.174   2.268
85911W        W54329  18.635  19.741  12.924
85912W        W54330  19.589  22.643  14.807
85913W        W54331  10.337  36.841  10.966
85914W        W54332  18.160  11.232   3.671
85915W        W54333  29.002  30.469  12.011
85916W        W54334  18.726  12.128   4.271
85917W        W54335  40.381  19.248   3.729
85918W        W54336  42.427  31.935   1.838
85919W        W54337  29.652   9.827   1.282
85920W        W54338   9.278  39.889  12.518
85921W        W54339  18.245  24.023   2.821
85922W        W54340   9.847   5.930  14.767
85923W        W54341   4.816   2.390   1.925
85924W        W54342  19.117  13.600  13.444
85925W        W54343  25.558  43.971  10.463
85926W        W54344  18.690  11.787   4.119
85927W        W54345  26.589   6.421  11.594
85928W        W54346  35.431   5.855   4.819
85929W        W54347  19.154  24.093  13.478
85930W        W54348  12.776  18.632  10.442
85931W        W54349  43.441  39.023   5.257
85932W        W54350  37.382  39.473   3.679
85933W        W54351  16.312   7.800   4.156
85934W        W54352  37.386  35.987   9.961
85935W        W54353  16.186   4.745  10.606
85936W        W54354  32.924  35.937  14.355
85937W        W54355  11.329   1.422   3.679
85938W        W54356  31.582   0.401  14.791
85939W        W54357  19.627  21.593  13.878
85940W        W54358  43.779  43.845  10.950
85941W        W54359   0.970  44.406  10.148
85942W        W54360  14.131   9.827   0.343
85943W        W54361   2.885  19.539   1.341
85944W        W54362   6.839  35.944  13.545
85945W        W54363   3.432  25.991  12.403
85946W        W54364  33.924  31.550   3.297
85947W        W54365  10.256  30.150   0.406
85948W        W54366  25.091  18.695  11.966
85949W        W54367  35.376  18.221  13.826
85950W        W54368  23.703   9.381  11.524
85951W        W54369  43.462  12.764   3.301
85952W        W54370  12.744  29.165  14.919
85953W        W54371  16.631  14.305  14.282
85954W        W54372  37.988  17.707   2.755
85955W        W54373  12.128  33.010  14.857
85956W        W54374  36.404  22.085  13.918
85957W        W54375   2.394  15.267   3.746
85958W        W54376  33.879  36.087   3.753
85959W        W54377  33.112  11.689   2.211
85960W        W54378  42.443  14.742   0.263
85961W        W54379  35.976   9.683  12.058
85962W        W54380  14.220  28.117  11.081
85963W        W54381   2.288  22.564  13.008
85964W        W54382  21.201  31.492   1.759
85965W        W54383  42.466  34.085  14.381
85966W        W54384  16.655  21.107   2.716
85967W        W54385  20.220  23.999  12.917
85968W        W54386  12.216  16.214   2.829
85969W        W54387  16.583  19.106   0.344
85970W        W54388  18.724   6.409   2.224
85971W        W54389  15.667  26.198  13.386
85972W        W54390  33.595   1.846   2.185
85973W        W54391   2.453  28.615   3.348
85974W        W54392  22.673  18.093  12.835
85975W        W54393  29.565   4.242  13.022
85976W        W54394  26.590  37.009   4.716
85977W        W54395  21.075  41.966   4.260
85978W        W54396  16.691  17.574   0.330
85979W        W54397  32.891  23.664   1.382
85980W        W54398  31.608  18.650  11.453
85981W        W54399  44.272   6.720   2.353
85982W        W54400  10.744  20.193  14.861
85983W        W54401  29.564  28.140  10.534
85984W        W54402  12.297  22.170  10.922
85985W        W54403  27.535   2.729   3.331
85986W        W54404   9.666  39.035  13.814
85987W        W54405  20.248  14.629   4.666
85988W        W54406  33.457  25.650   3.689
85989W        W54407  19.570   9.748   3.858
85990W        W54408  11.719  24.710  11.602
85991W        W54409  23.148  38.059   0.418
85992W        W54410   3.779   6.703  14.469
85993W        W54411  42.450  19.693  14.486
85994W        W54412  36.039   4.741   3.290
85995W        W54413  26.568  31.045   4.170
85996W        W54414  27.988  26.470   0.301
85997W        W54415   6.203  36.961   3.221
85998W        W54416  36.893  15.778   2.242
85999W        W54417  26.002   9.662   3.322
86000W        W54418   7.415  30.002   4.133
86001W        W54419  16.311  15.146  12.059
86002W        W54420  38.531   7.877  13.497
86003W        W54421  30.423  43.345  14.936
86004W        W54422   8.197  41.795   2.751
86005W        W54423  23.099  36.422  10.469
86006W        W54424  35.918  37.076  10.031
86007W        W54425  16.193  30.027  14.877
86008W        W54426   0.893  30.655   5.116
86009W        W54427  13.762  22.149  10.639
86010W        W54428   9.375  20.108   0.302
86011W        W54429  10.146  31.517  10.629
86012W        W54430   7.179   1.802  13.541
86013W        W54431  31.648   2.300   1.700
86014W        W54432  22.568  28.636  13.010
86015W        W54433  38.871   0.762   1.399
86016W        W54434  29.002  19.155  14.915
86017W        W54435   1.823  21.154   2.725
86018W        W54436  15.772  14.617  10.558
86019W        W54437  39.901  25.593   4.674
86020W        W54438   5.288  36.528   1.288
86021W        W54439  15.769  40.512   3.865
86022W        W54440  23.079  35.535  13.032
86023W        W54441  21.735   7.692   2.795
86024W        W54442  36.564   6.365  13.886
86025W        W54443  23.023  31.579   1.892
86026W        W54444   2.879   3.761   4.691
86027W        W54445  11.634  44.842  14.992
86028W        W54446  28.167   5.883   4.321
86029W        W54447  26.493   6.810   2.836
86030W        W54448  16.250  13.628  13.362
86031W        W54449  28.679   3.801   3.157
86032W        W54450  27.109  13.822  11.920
86033W        W54451  16.293  28.958  13.035
86034W        W54452  41.470  40.473  11.502
86035W        W54453   7.891  21.205   1.697
86036W        W54454   5.894  10.740  13.029
86037W        W54455   7.313  35.484  11.021
86038W        W54456  34.387  39.014  14.897
86039W        W54457   0.462  31.955  13.800
86040W        W54458   9.726  20.618   0.753
86041W        W54459  32.461  40.374  14.377
86042W        W54460   6.884  14.675  10.631
86043W        W54461   9.731   0.956   3.303
86044W        W54462  35.906   5.309  10.644
86045W        W54463  19.265   6.422  11.880
86046W        W54464  44.328  11.257   9.589
86047W        W54465  15.209  26.086  13.915
86048W        W54466   9.260  35.989  12.880
86049W        W54467  39.514  43.961   0.767
86050W        W54468   7.782  33.119  12.441
86051W        W54469  23.637  11.128   1.431
86052W        W54470  11.814   1.734  11.473
86053W        W54471  16.581  34.064  11.590
86054W        W54472   1.292  29.100   1.717
86055W        W54473   6.785  42.914   3.382
86056W        W54474  12.295  10.671  14.834
86057W        W54475   1.461   5.370   3.870
86058W        W54476  22.056  19.733   0.822
86059W        W54477  34.585  24.090  14.895
86060W        W54478  17.657  44.336  14.946
86061W        W54479  11.220  28.439  11.562
86062W        W54480   7.896  40.516  14.973
86063W        W54481  40.366   3.339   2.793
86064W        W54482   2.817  39.534   4.326
86065W        W54483  17.075  25.184   3.629
86066W        W54484  14.703  39.017   0.726
86067W        W54485  18.559  25.104  13.468
86068W        W54486  10.252  14.185   9.997
86069W        W54487  38.549  30.465  11.568
86070W        W54488  25.008  38.005  14.893
86071W        W54489  31.897  13.299   4.163
86072W        W54490  17.291  23.026   0.777
86073W        W54491  25.139  31.608  14.009
86074W        W54492  19.577   5.831  14.469
86075W        W54493  11.837  10.207   1.382
86076W        W54494  14.129  21.703  14.888
86077W        W54495  18.063   6.805  11.511
86078W        W54496  16.677  34.569  11.122
86079W        W54497  30.648   2.241  13.474
86080W        W54498  25.698  12.774   3.261
86081W        W54499  10.646  27.544   1.345
86082W        W54500  11.703   5.337   1.787
86083W        W54501  32.504  25.662   3.379
86084W        W54502  13.744  10.679   4.157
86085W        W54503   3.797   0.822   3.181
86086W        W54504   5.760  24.524   4.129
86087W        W54505  24.559  40.430  11.068
86088W        W54506  38.890  29.999   4.771
86089W        W54507  26.515  28.640   2.204
86090W        W54508  34.415  37.055   3.729
86091W        W54509   0.777  21.729  13.975
86092W        W54510  40.851  14.308   4.161
86093W        W54511  42.791  11.739   1.297
86094W        W54512  18.563  14.802  13.014
86095W        W54513  20.687  10.311  11.082
86096W        W54514  20.674   5.399   3.191
86097W        W54515  11.340  14.613  10.426
86098W        W54516  42.520   4.851  10.151
86099W        W54517  39.916  40.518  10.634
86100W        W54518  16.231  26.601   2.802
86101W        W54519   0.919  10.674   1.211
86102W        W54520  20.065  10.680  10.616
86103W        W54521  36.013  15.117  14.003
86104W        W54522  35.595  18.246  12.403
86105W        W54523  21.584   2.813  11.893
86106W        W54524  23.707  40.404   2.665
86107W        W54525  39.351  31.927   2.219
86108W        W54526  30.103  36.546  12.093
86109W        W54527  14.134   1.732  13.038
86110W        W54528  14.301   6.252  14.765
86111W        W54529   2.933  37.470   0.809
86112W        W54530  10.310  19.133  13.833
86113W        W54531  27.666   2.322   2.691
86114W        W54532  18.635  21.246   5.289
86115W        W54533   1.433  32.588   4.675
86116W        W54534   8.862  38.842  13.491
86117W        W54535  18.183  13.285  12.979
86118W        W54536   1.912  43.363   1.889
86119W        W54537  31.947  12.726  13.444
86120W        W54538  32.587  29.081   4.237
86121W        W54539  31.445   3.912   0.282
86122W        W54540  34.979  31.551  12.523
86123W        W54541  40.005  31.035   1.722
86124W        W54542   6.716  42.939   2.700
86125W        W54543   0.287  15.586  14.768
86126W        W54544  16.260  33.110   4.156
86127W        W54545  27.513   3.827  11.999
86128W        W54546   8.287   8.324  11.096
86129W        W54547   4.295  25.186  10.555
86130W        W54548  12.637  15.756   4.181
86131W        W54549  32.601  32.524  14.508
86132W        W54550   8.162   6.848  14.776
86133W        W54551   7.739   2.420   5.318
86134W        W54552  32.075  36.969  11.106
86135W        W54553  21.544  37.474  11.052
86136W        W54554  42.339   7.764  11.919
86137W        W54555   4.423  30.998   0.738
86138W        W54556  39.375  29.517  12.021
86139W        W54557   1.388  31.417  10.552
86140W        W54558  43.004  15.131   4.141
86141W        W54559  44.874  23.733   5.291
86142W        W54560  38.955  39.359   1.784
86143W        W54561  20.619  28.156  14.373
86144W        W54562  12.223  28.566   0.264
86145W        W54563  20.531  38.833   3.673
86146W        W54564   8.699  13.125  10.454
86147W        W54565   2.778  35.427   4.661
86148W        W54566  32.599  13.813  12.850
86149W        W54567  14.112  16.174   0.831
86150W        W54568   4.726  37.462  14.894
86151W        W54569  41.796  41.514   5.199
86152W        W54570  29.423  16.645   4.713
86153W        W54571  29.425   7.799  10.026
86154W        W54572  33.538  34.104  13.359
86155W        W54573  36.474  39.896  12.003
86156W        W54574   7.824  44.342   3.326
86157W        W54575  30.555  40.910  10.526
86158W        W54576  16.105   1.927  11.073
86159W        W54577  41.838  26.976   0.357
86160W        W54578  28.078  41.480   1.868
86161W        W54579  21.648  23.022   9.457
86162W        W54580   6.681  41.801  12.580
86163W        W54581   0.937  23.132  14.365
86164W        W54582  43.857  38.444  14.784
86165W        W54583   5.789  40.957  12.345
86166W        W54584  33.048  18.156  14.338
86167W        W54585   5.798  34.099   3.373
86168W        W54586  35.587  39.864  11.565
86169W        W54587  35.103   3.247   0.790
86170W        W54588  33.483  37.944  11.121
86171W        W54589  10.375  33.380   2.296
86172W        W54590  28.488   7.181   2.832
86173W        W54591   1.457  32.406   4.279
86174W        W54592  19.692  43.421  14.372
86175W        W54593  18.186  35.566  13.806
86176W        W54594  12.207  28.020   4.288
86177W        W54595  24.593  14.165   3.685
86178W        W54596  26.482  23.138   4.185
86179W        W54597   8.896  17.223  11.389
86180W        W54598   2.322  33.588   1.308
86181W        W54599  10.272   5.690   3.815
86182W        W54600  35.928  31.989  11.384
86183W        W54601  14.725  43.021  10.917
86184W        W54602  35.555  15.822  14.014
86185W        W54603  19.063  24.623   3.243
86186W        W54604  44.455  16.794   2.665
86187W        W54605  44.789   2.892  13.476
86188W        W54606  44.489  30.520  14.506
86189W        W54607  24.521  10.159   0.755
86190W        W54608  11.696  42.834  10.508
86191W        W54609  16.656  42.797  11.930
86192W        W54610  40.917  24.179   3.261
86193W        W54611  38.042  23.000  14.869
86194W        W54612  34.956  27.684   1.763
86195W        W54613  23.085  29.047   0.887
86196W        W54614  28.604   4.345   2.273
86197W        W54615   7.694  25.580   4.812
86198W        W54616   4.746   7.857   3.157
86199W        W54617  39.002  32.584   0.933
86200W        W54618   5.218  35.421   2.837
86201W        W54619  42.339   2.746   4.704
86202W        W54620  38.997  26.641  11.466
86203W        W54621   1.276  17.139  11.022
86204W        W54622  30.443   6.252   3.721
86205W        W54623  38.534  44.420   1.764
86206W        W54624  14.717  30.149   1.813
86207W        W54625  24.029  21.260  14.013
86208W        W54626  23.191  31.548  14.303
86209W        W54627  25.598  17.695   1.857
86210W        W54628  22.041  44.297  12.357
86211W        W54629  32.073  16.127  11.598
86212W        W54630   5.413  18.211  12.830
86213W        W54631  32.127   0.334   3.330
86214W        W54632  13.841  29.054   4.167
86215W        W54633  10.353  37.565  10.457
86216W        W54634   5.865   5.813   3.154
86217W        W54635  20.711  17.213   0.264
86218W        W54636  37.936  28.632   3.249
86219W        W54637   1.910   2.268  14.008
86220W        W54638  12.236  32.014   2.276
86221W        W54639  39.004  12.246  11.061
86222W        W54640  22.046   2.281  14.025
86223W        W54641  34.868   8.224  10.976
86224W        W54642  25.537  12.171  10.626
86225W        W54643  20.712  13.686  11.547
86226W        W54644  23.508  24.688   4.633
86227W        W54645  29.110   1.753  12.550
86228W        W54646  37.402  23.727  12.358
86229W        W54647  14.639  23.518   1.750
86230W        W54648  13.293  17.062   0.468
86231W        W54649  34.940  14.339  12.942
86232W        W54650  18.601  43.016  11.379
86233W        W54651  31.896   6.836   4.162
86234W        W54652  21.201  19.133  12.092
86235W        W54653  23.658  18.752   1.699
86236W        W54654  35.914  41.469  13.420
86237W        W54655  43.333  33.553  13.806
86238W        W54656  38.473  40.348  11.398
86239W        W54657  33.403  42.854   3.199
86240W        W54658  32.065  29.049  14.415
86241W        W54659  15.284  18.173   3.703
86242W        W54660  35.867   2.723  12.917
86243W        W54661   1.860   7.200   0.396
86244W        W54662  17.598  36.936   4.158
86245W        W54663  20.046  32.589  12.570
86246W        W54664  39.334  43.786   2.366
86247W        W54665  34.903  24.621   3.663
86248W        W54666  14.171  43.818  12.939
86249W        W54667  12.780   6.241  14.434
86250W        W54668  40.538  10.863   0.756
86251W        W54669   8.749   7.790   5.251
86252W        W54670  12.124   8.836   0.432
86253W        W54671  31.105  32.970  14.335
86254W        W54672  20.720   8.675  10.522
86255W        W54673   5.221  21.592   1.884
86256W        W54674  13.237  39.021   4.624
86257W        W54675  39.958  42.866   4.190
86258W        W54676  26.151  35.362  11.117
86259W        W54677   1.312   9.737   0.886
86260W        W54678  30.100  39.907   0.262
86261W        W54679  33.386  13.275   1.324
86262W        W54680  44.812  33.382   2.831
86263W        W54681   7.805  26.544  11.118
86264W        W54682  25.210  12.619  10.511
86265W        W54683  31.133  23.146  14.345
86266W        W54684  38.374  24.051  14.460
86267W        W54685   0.455  37.029  11.557
86268W        W54686  42.467  30.064  14.440
86269W        W54687   2.320  29.439  13.453
86270W        W54688   2.446   4.713   1.370
86271W        W54689  30.051   7.715  13.543
86272W        W54690  14.170  28.162  11.530
86273W        W54691  40.404   0.851  13.816
86274W        W54692  37.854  24.066   3.217
86275W        W54693  13.792  37.529  11.404
86276W        W54694  19.079  10.761  14.988
86277W        W54695  26.654   6.408  12.524
86278W        W54696   5.381  42.813  14.371
86279W        W54697  30.577   4.436   4.634
86280W        W54698   2.849  15.244   1.904
86281W        W54699  15.168   3.221   4.195
86282W        W54700  41.025  24.526  13.870
86283W        W54701  21.621  37.081  12.502
86284W        W54702  39.831  17.097   4.707
86285W        W54703  13.836  43.280  11.436
86286W        W54704   7.880  16.133  11.608
86287W        W54705  17.737   4.850   3.797
86288W        W54706  16.130  23.708  14.989
86289W        W54707  44.298  33.040  14.020
86290W        W54708  35.532  32.120  14.024
86291W        W54709  14.633  10.320  14.830
86292W        W54710   7.373  12.762  14.476
86293W        W54711  33.382  13.186  14.779
86294W        W54712  20.586  20.535  13.838
86295W        W54713  17.653   5.320  13.897
86296W        W54714  22.586  32.487  10.453
86297W        W54715  15.638  39.425   0.920
86298W        W54716  31.591  24.037  14.009
86299W        W54717  27.149  24.152  10.993
86300W        W54718   8.657   4.757  12.913
86301W        W54719  34.473  14.289   2.859
86302W        W54720   0.867  26.975  12.524
86303W        W54721  12.839  27.637  11.492
86304W        W54722  10.173   3.800  12.003
86305W        W54723   5.902  27.081   4.326
86306W        W54724  44.773  30.956   1.359
86307W        W54725  13.737   5.831   5.601
86308W        W54726  35.871  25.640   0.420
86309W        W54727  25.988   3.903  11.387
86310W        W54728  40.836  11.153   1.398
86311W        W54729  35.862  14.170   4.619
86312W        W54730  11.314  26.111  12.386
86313W        W54731  43.952  17.206   4.198
86314W        W54732  10.770  24.687  13.843
86315W        W54733  23.140  23.628  13.943
86316W        W54734  25.986  44.934  14.279
86317W        W54735  35.058  26.686  12.984
86318W        W54736  10.693  18.684   2.355
86319W        W54737  31.994  28.093   3.239
86320W        W54738  44.873  17.569   1.891
86321W        W54739   7.858  28.642  10.895
86322W        W54740   9.270  32.576  12.873
86323W        W54741  26.125  34.880   3.230
86324W        W54742   5.294  36.552  13.795
86325W        W54743   9.194  44.758   4.346
86326W        W54744  36.536  16.702   1.267
86327W        W54745  28.071  35.517   4.788
86328W        W54746  36.589  37.356   5.180
86329W        W54747   2.773  10.209   0.748
86330W        W54748  18.265  27.970   2.712
86331W        W54749  16.088   5.237   9.993
86332W        W54750   0.443  32.570  13.322
86333W        W54751  16.625  22.680   2.769
86334W        W54752  28.089  19.575  14.389
86335W        W54753  33.570  41.883   0.744
86336W        W54754  40.028   5.812   3.312
86337W        W54755  28.177  43.357  14.987
86338W        W54756  19.233   0.281  14.021
86339W        W54757  36.852  27.061   4.318
86340W        W54758  12.353   2.886  13.466
86341W        W54759  39.875  24.993   2.848
86342W        W54760  30.620   2.927  12.867
86343W        W54761  27.119  30.513  12.077
86344W        W54762  34.395  34.454  12.961
86345W        W54763  13.158  14.612   2.789
86346W        W54764  43.455  29.152   0.949
86347W        W54765  36.493  12.722   3.791
86348W        W54766  44.407  27.617  11.567
86349W        W54767  19.174   9.861  12.362
86350W        W54768  32.064  38.014  14.281
86351W        W54769  28.979   5.872  11.601
86352W        W54770  25.696   8.859  11.562
86353W        W54771   0.915  35.875   2.775
86354W        W54772   0.904  16.187  10.966
86355W        W54773   3.763  42.421   1.276
86356W        W54774  39.410  13.621  14.465
86357W        W54775   2.275  36.913  11.058
86358W        W54776  34.867  21.601   2.384
86359W        W54777   1.740  21.586  10.621
86360W        W54778  38.848  25.616  10.948
86361W        W54779  17.692  37.575  13.514
86362W        W54780   5.839  27.093  11.437
86363W        W54781   3.409  13.170   3.191
86364W        W54782  32.100  16.296  14.303
86365W        W54783  25.021  12.124   4.828
86366W        W54784  21.144  20.167   3.735
86367W        W54785  41.320  14.180   3.653
86368W        W54786   6.254  38.501  14.484
86369W        W54787   2.850  42.014   1.869
86370W        W54788   7.281  24.655  12.392
86371W        W54789  32.504  14.124  11.457
86372W        W54790  28.931   8.847   3.185
86373W        W54791   2.373  14.273  13.482
86374W        W54792   4.722  42.422  14.846
86375W        W54793  28.652  22.734   4.143
86376W        W54794  23.017  11.725   0.729
86377W        W54795  15.719  17.706   4.300
86378W        W54796  13.165   6.847  10.496
86379W        W54797  26.159  25.621  14.456
86380W        W54798  30.927  18.220   0.379
86381W        W54799  34.023  39.922   3.766
86382W        W54800   3.218  33.598   0.957
86383W        W54801  21.205  14.302  13.481
86384W        W54802   1.834  32.410   3.723
86385W        W54803  35.858  10.847  11.058
86386W        W54804  42.312  27.592   2.187
86387W        W54805  16.238  12.288  10.931
86388W        W54806  29.572  35.476  11.104
86389W        W54807  41.867  21.674  10.546
86390W        W54808  18.679  20.227   0.245
86391W        W54809   3.400   3.431  11.973
86392W        W54810  20.750  34.427   0.847
86393W        W54811  37.348  40.446  13.525
86394W        W54812  39.026  22.590  14.397
86395W        W54813   0.817  30.619   1.386
86396W        W54814  40.403  34.572   3.237
86397W        W54815  42.506  24.003  14.031
86398W        W54816   1.940  22.096   4.317
86399W        W54817  37.451   1.420   2.672
86400W        W54818  12.662  44.439   1.416
86401W        W54819  28.565  42.340   1.332
86402W        W54820  41.451  25.664   5.194
86403W        W54821  37.877  29.578   1.313
86404W        W54822  25.578   4.748   1.222
86405W        W54823  26.031   9.310   2.230
86406W        W54824  29.456  42.941   3.703
86407W        W54825  42.793  19.087  12.574
86408W        W54826  15.799  29.460  14.291
86409W        W54827  36.365  28.493  11.583
86410W        W54828  23.722  20.223  12.416
86411W        W54829  28.484  30.954   3.674
86412W        W54830   1.438  38.830   2.311
86413W        W54831  22.659   1.326  14.976
86414W        W54832   2.364  11.690  10.625
86415W        W54833  44.969  27.059  11.915
86416W        W54834   8.372  37.980  12.426
86417W        W54835  20.747   6.329  10.945
86418W        W54836  31.018  28.047   4.122
86419W        W54837  43.788  40.465  12.569
86420W        W54838  35.357  44.330   3.740
86421W        W54839  24.113  21.599   3.691
86422W        W54840  16.123   7.828   5.218
86423W        W54841   2.812  22.704   3.870
86424W        W54842  14.288   0.980   0.319
86425W        W54843  35.004  33.502   4.648
86426W        W54844  13.315  38.070  12.959
86427W        W54845   6.361  44.858  13.991
86428W        W54846   9.881  23.023   1.224
86429W        W54847  15.304  34.987   2.852
86430W        W54848   4.861   0.832   3.681
86431W        W54849  38.358  33.490  10.437
86432W        W54850  11.260  26.574   1.279
86433W        W54851  44.372   5.347   4.626
86434W        W54852   0.795  31.613   1.235
86435W        W54853   9.799   5.714   1.321
86436W        W54854  27.547  22.620  10.968
86437W        W54855   6.705  22.249  14.917
86438W        W54856  33.437  24.154   2.261
86439W        W54857  30.983  26.991   1.841
86440W        W54858   2.930  40.961   0.312
86441W        W54859  24.578  31.114   4.689
86442W        W54860  27.452  37.943   0.347
86443W        W54861  16.650  32.471  13.836
86444W        W54862   8.400  29.155   1.865
86445W        W54863  42.867  27.570   4.718
86446W        W54864  27.068  12.778   0.911
86447W        W54865   0.769  33.978  10.946
86448W        W54866   7.752  41.862   2.873
86449W        W54867   9.688  17.224   2.888
86450W        W54868  41.493  23.071  12.541
86451W        W54869  35.905  24.675   0.887
86452W        W54870   1.453  29.152   3.298
86453W        W54871  10.878  25.018  14.305
86454W        W54872  33.924  17.716   2.896
86455W        W54873  23.602   1.328   4.353
86456W        W54874  22.523  32.544  12.483
86457W        W54875  44.765  31.463  14.852
86458W        W54876  29.112   7.865  13.402
86459W        W54877   3.803   7.749   1.223
86460W        W54878   5.722  16.131   2.716
86461W        W54879  41.851  38.864  14.319
86462W        W54880  30.910  13.737  14.013
86463W        W54881  14.748  29.109  14.461
86464W        W54882  43.291  42.954  14.501
86465W        W54883  22.505  27.488   0.306
86466W        W54884  42.375  12.257   5.163
86467W        W54885  40.813  12.713  14.394
86468W        W54886  20.246  28.515   4.264
86469W        W54887   5.222  38.545  12.885
86470W        W54888  44.932  27.465   1.290
86471W        W54889  33.108  27.475   2.305
86472W        W54890  33.924  28.495  13.802
86473W        W54891  30.653  33.577  14.929
86474W        W54892  10.208  37.966  10.464
86475W        W54893  17.271  30.966  10.514
86476W        W54894  39.321  12.795   3.251
86477W        W54895   7.665  21.123  13.447
86478W        W54896  17.596  11.754   2.388
86479W        W54897  12.782   1.314  10.945
86480W        W54898  12.236  41.917  13.487
86481W        W54899  20.543   5.339  13.413
86482W        W54900  14.675  22.142   0.952
86483W        W54901  30.489  14.339  12.092
86484W        W54902  26.613   4.252   1.768
86485W        W54903  20.221  38.441   4.185
86486W        W54904   9.655  14.608   3.268
86487W        W54905  35.362  44.449   1.715
86488W        W54906   5.410  20.743  14.515
86489W        W54907   3.299  41.851   3.723
86490W        W54908   0.332  21.725   4.745
86491W        W54909   6.798  27.538  13.438
86492W        W54910  22.225  15.643  12.090
86493W        W54911  35.000  27.152   3.277
86494W        W54912  27.978   9.156  10.540
86495W        W54913   3.272  35.911  13.352
86496W        W54914  44.936   2.332   2.891
86497W        W54915  30.616  27.123  13.369
86498W        W54916  43.400  11.819   2.338
86499W        W54917  18.580  12.826  12.842
86500W        W54918   6.335  22.710  14.308
86501W        W54919  34.438  30.623   3.219
86502W        W54920  40.377  44.436  13.495
86503W        W54921  30.507  22.544   1.246
86504W        W54922  11.798  20.679  13.057
86505W        W54923  25.472  15.755  14.508
86506W        W54924  11.335  28.167   4.706
86507W        W54925  10.309  18.686  13.809
86508W        W54926  27.520  17.755  12.913
86509W        W54927  43.415   4.876  10.996
86510W        W54928  12.850  35.048  11.560
86511W        W54929  38.519   3.746  13.026
86512W        W54930  10.277  27.174   4.678
86513W        W54931  21.106  27.539   4.299
86514W        W54932  42.940  29.465   4.785
86515W        W54933  38.063  37.448  13.435
86516W        W54934  18.628  42.840  13.445
86517W        W54935  13.340  29.527  12.077
86518W        W54936   5.852  43.804  13.057
86519W        W54937  24.673   0.870  11.033
86520W        W54938  43.810  42.822   2.874
86521W        W54939  42.304  13.203  12.002
86522W        W54940   2.825   0.898   3.166
86523W        W54941  16.685   4.881  10.515
86524W        W54942  31.463  39.509   0.326
86525W        W54943  19.537   6.219   2.814
86526W        W54944  19.717   8.254  11.481
86527W        W54945  39.421  16.665  11.885
86528W        W54946  14.143  11.634   2.351
86529W        W54947   5.333  38.966   1.897
86530W        W54948  33.050   3.297   4.801
86531W        W54949  15.765   4.383   1.746
86532W        W54950  41.792  19.535  12.891
86533W        W54951  40.500   7.208   9.994
86534W        W54952   4.711   9.677  12.921
86535W        W54953  39.824   9.664   2.886
86536W        W54954  38.459  29.425   1.420
86537W        W54955  19.668  32.585   2.328
86538W        W54956   4.845   5.253   1.832
86539W        W54957  14.289  16.218  11.047
86540W        W54958  40.477  25.054  10.524
86541W        W54959   0.845  16.281  12.083
86542W        W54960  13.785  20.764   1.330
86543W        W54961  31.538  27.580  11.918
86544W        W54962   5.434   1.798  10.417
86545W        W54963  35.946  30.140   0.779
86546W        W54964   5.728   0.876   2.335
86547W        W54965   7.208   2.269  12.079
86548W        W54966  35.073  40.324   0.481
86549W        W54967  27.511   0.805   0.925
86550W        W54968  35.470  29.161  10.474
86551W        W54969   5.362  40.011   1.715
86552W        W54970   2.329   8.165  12.935
86553W        W54971   4.439   5.248   4.609
86554W        W54972   5.270  16.146  11.953
86555W        W54973  33.985   9.156  10.639
86556W        W54974   0.879  14.730   3.213
86557W        W54975  22.548   2.774   4.802
86558W        W54976  29.160   2.764  11.867
86559W        W54977   9.311   3.312   2.745
86560W        W54978  16.641  43.769  12.953
86561W        W54979  43.444  13.120  12.382
86562W        W54980  36.356  30.453  14.360
86563W        W54981  35.481  40.981   1.881
86564W        W54982  37.839   8.288  11.984
86565W        W54983  25.521  28.622   4.659
86566W        W54984  25.141   8.831  12.475
86567W        W54985  23.081  19.053   3.855
86568W        W54986  40.502  34.416   9.944
86569W        W54987   2.240   7.798  12.427
86570W        W54988  24.019  32.913   4.682
86571W        W54989   1.776  40.418  10.643
86572W        W54990  15.597  25.044  10.004
86573W        W54991   9.655  40.339  13.332
86574W        W54992  42.362  22.186  14.321
86575W        W54993  36.017  14.116  14.356
86576W        W54994  38.365   9.310   0.289
86577W        W54995  44.765  42.797   0.792
86578W        W54996  19.756  19.636  13.794
86579W        W54997  27.470  27.129   2.751
86580W        W54998  17.739  35.433   4.654
86581W        W54999  21.256  42.421  12.035
86582W        W55000  18.198  16.782   4.256
86583W        W55001  12.277  18.262  12.449
86584W        W55002  21.563   1.903  13.012
86585W        W55003  26.472  25.008   4.307
86586W        W55004  38.436  18.670  10.506
86587W        W55005  21.220  14.830   1.332
86588W        W55006  16.782  40.472  12.356
86589W        W55007  40.486  41.852  14.918
86590W        W55008   5.841  40.361  11.958
86591W        W55009  42.970  17.665   1.338
86592W        W55010  19.278  11.168   0.321
86593W        W55011  24.109  10.289   2.272
86594W        W55012  19.263  27.143  11.938
86595W        W55013  16.742  30.634   2.338
86596W        W55014   6.314  26.190   3.868
86597W        W55015  15.760  40.325  13.843
86598W        W55016  37.838  42.829   0.322
86599W        W55017  40.549  36.069  10.994
86600W        W55018  21.035   5.816   1.265
86601W        W55019   5.345  13.774  10.543
86602W        W55020   8.268   1.405  13.307
86603W        W55021  16.093  20.674   0.261
86604W        W55022  16.706   9.731  12.430
86605W        W55023  35.100  22.656  13.985
86606W        W55024   6.323   4.218   0.738
86607W        W55025   2.817   0.841   1.905
86608W        W55026   6.759  26.463  13.910
86609W        W55027  31.069  25.657  12.893
86610W        W55028  31.423  31.910  12.505
86611W        W55029  33.958  10.313   3.316
86612W        W55030  42.998  37.026   2.681
86613W        W55031  24.052  11.692   0.366
86614W        W55032  42.989  18.051  13.436
86615W        W55033  22.109   5.730   1.249
86616W        W55034   0.931   1.773  14.797
86617W        W55035  35.601  34.368  14.433
86618W        W55036  19.622  36.484   3.181
86619W        W55037   3.357   6.744   0.353
86620W        W55038   4.308  14.808   0.392
86621W        W55039   9.773  44.776  11.020
86622W        W55040  42.811  40.517  12.914
86623W        W55041  31.972   1.949  10.437
86624W        W55042  40.465  18.184   0.939
86625W        W55043  12.732  40.398   4.708
86626W        W55044   4.800  24.685   2.899
86627W        W55045   3.415  33.560  14.461
86628W        W55046  22.109   0.807  14.373
86629W        W55047  33.905   6.903  12.412
86630W        W55048  25.584  17.582  12.484
86631W        W55049   7.288  42.923  14.472
86632W        W55050  22.617  13.339   2.728
86633W        W55051   5.873   4.247  14.955
86634W        W55052  14.301  29.669  14.866
86635W        W55053  20.575  31.059  10.472
86636W        W55054   5.415  40.324   4.182
86637W        W55055  41.325  28.002   0.928
86638W        W55056  41.809  29.017  14.953
86639W        W55057  33.956  37.992  11.376
86640W        W55058  16.668  31.583  14.330
86641W        W55059  27.179  40.473  11.474
86642W        W55060  13.646  38.060  14.954
86643W        W55061   1.848   6.412  11.864
86644W        W55062  23.180   6.728  10.614
86645W        W55063  42.794  14.314   3.750
86646W        W55064   1.904  30.620  13.051
86647W        W55065  12.775  38.337   3.722
86648W        W55066  30.999   3.859  13.933
86649W        W55067  12.251   7.303  12.890
86650W        W55068  39.316  36.443  11.566
86651W        W55069   4.359  41.888   2.866
86652W        W55070  38.376  39.916  13.829
86653W        W55071  39.956  14.692  11.462
86654W        W55072  39.327  17.631  14.939
86655W        W55073  21.119  38.554  12.018
86656W        W55074  29.047   5.843  14.496
86657W        W55075  17.102  44.859  13.818
86658W        W55076  17.677  40.357  14.452
86659W        W55077  44.965   0.455   1.725
86660W        W55078  43.404  13.153  11.015
86661W        W55079  11.165  36.386  13.486
86662W        W55080  31.940  22.110   0.898
86663W        W55081  12.310  14.138  14.393
86664W        W55082  21.145  10.264  10.425
86665W        W55083  37.489   2.417  11.490
86666W        W55084  27.684  34.517   4.821
86667W        W55085   2.908  33.090  11.923
86668W        W55086  27.048  23.633   3.728
86669W        W55087  36.949  12.353   0.730
86670W        W55088  25.531  37.397   0.948
86671W        W55089  16.207  38.510   3.782
86672W        W55090  38.376   4.267   2.308
86673W        W55091  39.991  13.248   1.292
86674W        W55092  10.828  28.635   4.677
86675W        W55093  39.506  37.880   1.413
86676W        W55094  16.797  38.416   4.761
86677W        W55095   0.839  27.132   3.357
86678W        W55096   0.815   4.849   5.152
86679W        W55097  17.068  44.282  12.386
86680W        W55098   6.249  15.248  12.823
86681W        W55099   6.204  25.712   3.841
86682W        W55100  27.027  21.721   2.312
86683W        W55101  41.379  14.700   2.891
86684W        W55102  28.625   8.290   1.365
86685W        W55103  37.406   1.807   3.175
86686W        W55104  10.236   3.232   2.842
86687W        W55105  24.533  18.712   3.665
86688W        W55106  34.509   3.293   0.736
86689W        W55107   0.849   0.957  11.574
86690W        W55108  23.182  14.610   3.262
86691W        W55109  10.738  17.300  11.077
86692W        W55110  33.896  42.379   3.833
86693W        W55111  40.348  31.540  14.989
86694W        W55112  38.509  25.172   4.691
86695W        W55113  28.064  39.479   1.745
86696W        W55114  20.747   2.396  11.443
86697W        W55115   1.426  15.590  12.403
86698W        W55116  25.479   7.187  12.038
86699W        W55117   2.228  17.210   5.204
86700W        W55118  11.855  33.116  14.011
86701W        W55119  28.495  16.294  10.451
86702W        W55120  33.601  35.460   0.403
86703W        W55121  43.967  27.609  12.508
86704W        W55122  18.776   5.854  14.332
86705W        W55123  42.831  40.418  10.467
86706W        W55124  20.117  37.514   2.302
86707W        W55125  43.463  23.203   3.233
86708W        W55126  44.340  30.532  14.971
86709W        W55127  42.786  36.394  12.876
86710W        W55128   1.288  21.629  10.952
86711W        W55129  10.641  12.792  13.941
86712W        W55130  36.032  32.014   4.798
86713W        W55131   0.968   8.830   3.735
86714W        W55132  20.102  27.563   4.246
86715W        W55133  18.719  39.382   2.811
86716W        W55134  17.272   2.750  13.329
86717W        W55135  16.230   9.193   0.874
86718W        W55136  42.822   5.698   1.917
86719W        W55137   2.402  40.008  14.512
86720W        W55138  19.184  30.495  13.384
86721W        W55139  39.858  32.447  13.858
86722W        W55140  30.618   4.869   1.903
86723W        W55141   7.183  17.227   3.704
86724W        W55142  33.914  19.270  11.532
86725W        W55143  35.481   1.439  11.911
86726W        W55144  19.547  44.847   3.746
86727W        W55145  10.372  36.463  14.957
86728W        W55146  34.574  42.408   3.220
86729W        W55147  15.815  13.243   2.747
86730W        W55148  41.954  38.413  10.580
86731W        W55149  35.066  35.071   2.309
86732W        W55150   1.323   9.249   4.781
86733W        W55151   4.233  23.533   1.355
86734W        W55152  37.392  33.417  11.114
86735W        W55153  24.699  32.044  12.405
86736W        W55154  31.562  36.449   4.628
86737W        W55155  41.426  25.038   2.839
86738W        W55156  35.594  33.470  12.410
86739W        W55157  26.173  19.718   5.272
86740W        W55158  40.393   2.428  12.023
86741W        W55159  39.962  18.163  11.122
86742W        W55160  20.689  26.529   1.348
86743W        W55161   7.329  18.157  14.959
86744W        W55162  14.723  11.232   3.846
86745W        W55163  29.519  34.465   3.813
86746W        W55164  30.462  35.572  13.476
86747W        W55165  34.387  12.269  10.472
86748W        W55166  34.921  20.576  13.931
86749W        W55167  22.121  42.020   1.831
86750W        W55168  36.846  23.511  13.535
86751W        W55169  13.154  38.000   2.246
86752W        W55170  20.747  21.020   1.291
86753W        W55171  19.090  33.556   2.212
86754W        W55172  26.500   9.852   4.812
86755W        W55173  27.057  11.865   3.631
86756W        W55174   9.189  37.973  14.393
86757W        W55175  29.565   7.350  14.468
86758W        W55176   7.693  43.937   0.478
86759W        W55177  25.035  39.337   3.361
86760W        W55178  28.642   0.904   4.797
86761W        W55179   5.918  37.572   0.890
86762W        W55180   9.646   4.725   3.169
86763W        W55181   0.816  28.589  10.043
86764W        W55182  40.486   3.907  13.421
86765W        W55183   1.407   0.355  10.615
86766W        W55184   1.321  23.067   0.376
86767W        W55185  37.048  29.506   2.816
86768W        W55186  28.184  23.535  11.445
86769W        W55187  17.303  42.432  13.419
86770W        W55188  23.538  14.707  12.565
86771W        W55189   1.344  14.675   4.346
86772W        W55190  42.802  24.698   1.798
86773W        W55191  32.409  28.443   1.836
86774W        W55192  26.978  13.753   4.260
86775W        W55193  13.729  11.759  13.037
86776W        W55194  30.496  33.929  13.900
86777W        W55195  29.425  25.657   0.377
86778W        W55196  42.025  20.187   0.271
86779W        W55197  26.606   8.853   2.680
86780W        W55198  25.055  12.318  10.513
86781W        W55199   3.396  39.451  13.828
86782W        W55200  30.632  40.811   0.298
86783W        W55201  12.804   7.292   1.820
86784W        W55202  20.194   4.717   2.844
86785W        W55203  10.787  17.796  11.374
86786W        W55204  18.555  24.654   1.353
86787W        W55205  24.557  41.534  10.563
86788W        W55206   4.428  39.471  13.841
86789W        W55207  16.248  11.633  13.969
86790W        W55208  17.689  25.618  11.900
86791W        W55209  23.143   7.688  12.378
86792W        W55210  26.998  30.105   0.468
86793W        W55211  10.324   7.318  14.003
86794W        W55212  14.676   0.747   0.343
86795W        W55213  31.924  41.385   0.284
86796W        W55214  26.080  19.199   0.461
86797W        W55215  14.275  29.021   2.223
86798W        W55216   0.970  15.599  12.366
86799W        W55217  44.877  25.580  13.876
86800W        W55218  22.557  24.681  14.499
86801W        W55219   6.695  32.025  13.485
86802W        W55220  35.948  16.242   1.415
86803W        W55221  29.050   7.310   5.696
86804W        W55222   9.258  15.103   4.275
86805W        W55223   6.361  15.646   4.672
86806W        W55224  38.061  32.626   2.381
86807W        W55225  33.398  26.037  11.865
86808W        W55226  15.223  39.960   4.825
86809W        W55227   5.825   3.421  12.353
86810W        W55228  23.118  14.795  14.282
86811W        W55229  22.195  13.317   1.792
86812W        W55230  13.161  29.163  11.000
86813W        W55231  35.462  14.229   1.269
86814W        W55232  30.490  19.205   2.679
86815W        W55233  28.035  11.657   4.695
86816W        W55234  18.218  32.011  13.961
86817W        W55235  26.003  10.269  14.444
86818W        W55236   5.841  15.195  12.418
86819W        W55237  39.526  25.621   1.826
86820W        W55238  34.077   3.455  11.449
86821W        W55239  14.280  18.203  11.046
86822W        W55240   9.737  42.301  10.488
86823W        W55241  41.916  17.258   3.707
86824W        W55242  38.566  25.075  11.563
86825W        W55243   3.747  41.413  11.391
86826W        W55244  25.025  27.650  14.398
86827W        W55245  29.588  13.647   2.395
86828W        W55246  22.105  42.863  11.492
86829W        W55247  37.011  42.846  13.487
86830W        W55248   9.759  24.162   2.254
86831W        W55249  40.935  31.040   3.359
86832W        W55250  38.012  38.894  13.385
86833W        W55251  18.174  10.799   0.748
86834W        W55252   7.408  10.252  11.859
86835W        W55253   9.753   5.222  10.548
86836W        W55254   9.193  12.682   0.251
86837W        W55255  26.511  19.118  11.541
86838W        W55256  33.469  41.351   3.255
86839W        W55257  33.004   9.302  13.960
86840W        W55258   5.227  29.071   1.359
86841W        W55259   1.946  24.974  10.605
86842W        W55260  36.499  10.359   1.342
86843W        W55261  17.193  36.410   0.872
86844W        W55262  34.380  36.871  12.031
86845W        W55263  22.738  42.430  13.878
86846W        W55264  21.693   8.764  11.381
86847W        W55265   9.305  16.200  10.944
86848W        W55266   9.387  16.571   0.913
86849W        W55267  22.201  30.596  13.989
86850W        W55268   9.277  13.661  10.449
86851W        W55269  11.312   9.745   1.906
86852W        W55270   7.892  28.039  14.762
86853W        W55271  14.826  37.050   0.404
86854W        W55272  16.672   3.951   1.929
86855W        W55273  32.095  44.386   0.326
86856W        W55274  34.039  24.702  10.984
86857W        W55275   3.949  25.020  12.420
86858W        W55276  41.901   4.333  14.984
86859W        W55277  15.328  41.312  11.428
86860W        W55278  16.641  41.328   0.810
86861W        W55279   5.224  26.023   4.155
86862W        W55280  29.032  34.077  12.852
86863W        W55281  16.170  16.198   4.350
86864W        W55282  14.652  26.468  10.977
86865W        W55283  35.603  44.937  12.062
86866W        W55284  20.757  41.446   3.784
86867W        W55285  12.322  26.130  12.346
86868W        W55286  13.629  33.003   0.861
86869W        W55287  12.734  21.558  11.387
86870W        W55288   8.364   5.386   2.722
86871W        W55289  40.939  12.848   0.384
86872W        W55290  41.932  10.350  10.923
86873W        W55291  26.510  21.059   4.283
86874W        W55292  12.843  42.863  10.959
86875W        W55293   6.696  22.515   2.201
86876W        W55294  29.027  25.676   1.729
86877W        W55295  12.230  23.198  14.282
86878W        W55296  20.548   4.920  14.853
86879W        W55297  40.355   1.880  12.975
86880W        W55298  28.607   5.909  11.863
86881W        W55299  10.642  22.664  13.951
86882W        W55300   2.420  15.216  13.964
86883W        W55301   6.751  43.925   3.237
86884W        W55302  33.105   4.238   3.300
86885W        W55303  13.246   5.921   2.789
86886W        W55304  42.373  42.983   4.613
86887W        W55305  34.986  12.703   4.341
86888W        W55306  15.241  32.596  12.402
86889W        W55307  35.969   8.242   4.780
86890W        W55308  40.009  16.590   1.710
86891W        W55309  26.548  17.727  14.760
86892W        W55310  16.761  16.784  11.459
86893W        W55311  26.145  42.938  11.105
86894W        W55312  44.830   7.291   0.842
86895W        W55313  14.819  36.439   2.898
86896W        W55314  41.299   0.418  12.987
86897W        W55315  44.384  12.677   0.480
86898W        W55316   2.298  30.528  11.972
86899W        W55317  37.882   4.414  12.996
86900W        W55318  15.171  22.177  11.923
86901W        W55319  41.033   4.289  11.922
86902W        W55320   0.820  14.637   1.745
86903W        W55321  20.210  38.017   4.666
86904W        W55322  30.956  33.964   4.345
86905W        W55323  23.229   6.315   4.686
86906W        W55324  12.188   6.736  10.900
86907W        W55325  17.159  18.212  10.467
86908W        W55326  20.545  30.014  13.433
86909W        W55327  10.876  11.337   4.353
86910W        W55328  15.621  42.880   0.796
86911W        W55329   9.389  18.643  12.513
86912W        W55330  33.593  13.119  12.965
86913W        W55331   7.232  29.986   4.832
86914W        W55332  12.205  23.721   0.390
86915W        W55333   4.374  13.814   0.842
86916W        W55334   8.180   9.326   2.730
86917W        W55335  34.902  34.064   2.714
86918W        W55336  41.021  37.942  13.791
86919W        W55337  44.763  33.581  13.397
86920W        W55338  16.223  34.582  14.822
86921W        W55339  43.335  15.130   1.276
86922W        W55340   2.859  21.041   2.847
86923W        W55341   1.927  41.912  10.925
86924W        W55342   7.414  40.973  12.051
86925W        W55343  44.458  29.507  14.916
86926W        W55344  19.083   6.410  13.339
86927W        W55345  42.793  30.949   4.642
86928W        W55346  18.268   7.215   2.314
86929W        W55347   1.859  21.057  12.466
86930W        W55348  11.213  39.330   3.361
86931W        W55349   8.811  22.179   0.384
86932W        W55350   0.930  43.343  13.362
86933W        W55351  42.992  35.476  14.371
86934W        W55352  31.993  12.159   1.284
86935W        W55353  27.082  20.041  12.512
86936W        W55354  35.391  40.454   5.113
86937W        W55355  10.834   8.673  12.351
86938W        W55356  13.204   2.274   0.277
86939W        W55357  15.705  43.964   1.324
86940W        W55358  15.188  30.920   2.181
86941W        W55359  23.570   8.173  10.914
86942W        W55360  43.770  36.853  11.119
86943W        W55361  37.398  23.168   2.230
86944W        W55362  26.536  21.174  14.421
86945W        W55363  30.517  28.099  11.027
86946W        W55364  16.106  37.491  12.578
86947W        W55365   4.847   1.738  13.912
86948W        W55366  20.603  14.765   1.282
86949W        W55367  24.486  18.694   1.438
86950W        W55368  36.074  13.643   4.197
86951W        W55369  35.513  15.644  14.873
86952W        W55370  32.468  34.999  14.288
86953W        W55371  19.282  35.079  10.484
86954W        W55372  37.850  22.106  13.913
86955W        W55373  33.392  13.166   1.753
86956W        W55374  13.633  42.394  14.458
86957W        W55375  42.417  22.532  10.998
86958W        W55376  10.162  11.257   1.809
86959W        W55377  15.644   7.813   4.694
86960W        W55378  26.602  35.107   4.665
86961W        W55379  15.304  13.206  11.900
86962W        W55380   7.730  32.482   0.872
86963W        W55381  38.474  30.636  14.936
86964W        W55382  14.244   0.968   1.743
86965W        W55383  28.991   9.808  14.278
86966W        W55384  18.591  35.983   5.095
86967W        W55385  12.683   6.773  10.462
86968W        W55386   5.814  11.697   2.763
86969W        W55387  17.189  13.688   5.309
86970W        W55388  14.105   0.832   2.293
86971W        W55389  28.622  19.576   3.173
86972W        W55390  20.623  37.369  10.594
86973W        W55391  37.453  26.572   5.302
86974W        W55392  29.992  26.469  12.861
86975W        W55393  20.044   2.348  14.008
86976W        W55394   2.934  20.566  13.372
86977W        W55395   3.390  16.102  14.984
86978W        W55396  31.426  19.595  14.857
86979W        W55397  17.703  10.781  14.913
86980W        W55398  14.306  10.296  10.604
86981W        W55399  19.610   1.837  12.026
86982W        W55400  19.067  29.122   2.183
86983W        W55401  27.600  38.333   3.658
86984W        W55402   9.763  32.892   3.230
86985W        W55403  12.632   7.812   3.147
86986W        W55404  12.152  43.900  11.921
86987W        W55405  24.996   0.898   3.750
86988W        W55406  35.028   3.268   2.676
86989W        W55407  19.215  29.618   1.793
86990W        W55408  34.097   8.734  14.374
86991W        W55409   4.747   4.743   4.811
86992W        W55410  44.493   8.851   1.412
86993W        W55411  29.170  22.563  12.985
86994W        W55412  33.911  12.362   2.759
86995W        W55413  39.934  26.084  10.541
86996W        W55414  13.755  19.582   2.289
86997W        W55415  44.493  15.141   1.729
86998W        W55416   7.255  23.007   0.444
86999W        W55417   6.281  44.344   1.211
87000W        W55418  42.924  23.048  12.543
87001W        W55419  42.406  12.731   5.276
87002W        W55420  15.266  37.477  12.534
87003W        W55421  15.287  35.890   4.669
87004W        W55422  33.563  28.073  11.995
87005W        W55423  35.517  19.681  12.979
87006W        W55424   0.963  16.280  13.921
87007W        W55425  12.630  42.007  14.968
87008W        W55426   0.916  34.434   0.423
87009W        W55427  37.916  28.108   4.279
87010W        W55428  30.051  30.123   2.368
87011W        W55429   9.219  19.752   2.411
87012W        W55430  41.521  42.977  14.983
87013W        W55431  15.110  39.944   3.704
87014W        W55432   4.410  13.721   1.833
87015W        W55433  28.084   1.780   3.757
87016W        W55434   9.384  28.063   0.895
87017W        W55435  41.946  41.409   4.833
87018W        W55436   4.900  43.412   1.276
87019W        W55437   5.916  21.685   4.667
87020W        W55438   2.945  16.139  13.518
87021W        W55439  32.582  19.763   2.814
87022W        W55440  15.259   8.812   0.389
87023W        W55441   3.759   8.310  12.877
87024W        W55442  26.460  40.833  13.972
87025W        W55443  16.077  17.134  10.908
87026W        W55444  25.467   2.294   2.720
87027W        W55445  35.908  28.457  13.879
87028W        W55446  33.612   3.919  13.846
87029W        W55447  14.244   9.334  11.521
87030W        W55448  23.189  25.113   4.116
87031W        W55449  12.246  27.455   3.844
87032W        W55450  39.323   5.816  11.533
87033W        W55451  38.552   2.900   4.795
87034W        W55452  31.492  38.562   3.716
87035W        W55453  16.751  42.777  10.534
87036W        W55454  20.712  36.387  11.110
87037W        W55455  22.742  19.656  13.036
87038W        W55456  23.064  18.185   2.793
87039W        W55457   2.918   1.751   0.482
87040W        W55458  27.454  35.529  12.850
87041W        W55459  41.021  18.739   4.728
87042W        W55460  29.433  30.504  11.477
87043W        W55461  25.157  37.573  14.776
87044W        W55462  36.916  37.552  13.437
87045W        W55463   2.903  34.400   4.134
87046W        W55464  33.010   1.965   3.364
87047W        W55465  42.286  16.613   1.272
87048W        W55466  34.507  34.403   1.232
87049W        W55467  44.983  38.021   2.236
87050W        W55468  15.726   3.409  10.936
87051W        W55469  12.133   9.336  10.501
87052W        W55470  18.288   5.899   4.610
87053W        W55471  35.866  38.921   0.383
87054W        W55472  43.884  11.207  10.982
87055W        W55473  42.462  37.538  11.938
87056W        W55474  10.780  37.513  13.411
87057W        W55475  40.933  20.125   4.138
87058W        W55476  17.088  33.924  13.854
87059W        W55477  18.623  16.776  12.901
87060W        W55478  18.706  11.355  11.521
87061W        W55479  25.182  44.892  11.122
87062W        W55480   1.411  16.228  12.948
87063W        W55481  16.122  18.115  11.598
87064W        W55482  11.203  24.677   4.331
87065W        W55483   5.803   1.480  11.046
87066W        W55484  37.891  28.044   1.342
87067W        W55485   9.161   1.404  13.964
87068W        W55486   1.263  10.365   1.373
87069W        W55487  23.681  17.277  10.586
87070W        W55488  18.098  33.076  13.409
87071W        W55489  41.515  41.447  12.830
87072W        W55490   6.336  30.037   4.727
87073W        W55491  32.894  44.915  14.368
87074W        W55492  12.215  43.317  11.530
87075W        W55493  41.481  39.977  10.599
87076W        W55494   7.779  43.486   1.769
87077W        W55495   8.730  24.083  10.454
87078W        W55496  17.604   3.716   2.902
87079W        W55497   7.191  13.811  13.406
87080W        W55498  26.109  39.838   3.793
87081W        W55499  26.031  15.093   3.709
87082W        W55500  12.234   9.851   3.277
87083W        W55501  24.201  20.189   4.316
87084W        W55502  27.596  28.552  12.533
87085W        W55503  20.140  18.259   2.184
87086W        W55504  15.235  15.188   0.275
87087W        W55505  29.550  36.052  14.330
87088W        W55506   7.875   1.949  10.600
87089W        W55507  37.837  38.454  12.512
87090W        W55508  26.164   6.329  10.463
87091W        W55509  14.728  38.044   1.832
87092W        W55510  43.329  12.775   4.608
87093W        W55511  34.386  25.185   1.223
87094W        W55512   5.224  26.171  10.913
87095W        W55513   6.251  21.738   1.917
87096W        W55514  13.689  18.667   0.301
87097W        W55515  29.168   7.297  11.012
87098W        W55516   9.889  27.017  14.934
87099W        W55517   7.404  13.706   2.417
87100W        W55518  18.072  29.094   2.739
87101W        W55519  24.095  24.978   0.967
87102W        W55520  13.123  17.631  13.449
87103W        W55521  30.517  17.561   2.280
87104W        W55522  30.989  40.303  13.991
87105W        W55523   5.411  22.010  14.328
87106W        W55524   1.455  27.984   4.607
87107W        W55525  17.657   5.397  10.448
87108W        W55526  43.515   5.927  10.925
87109W        W55527  15.816  29.930   1.437
87110W        W55528   0.957   7.350   0.814
87111W        W55529   0.472   7.704  12.556
87112W        W55530  24.495   8.798   0.287
87113W        W55531  15.737   9.713  14.775
87114W        W55532   6.808  37.521   2.285
87115W        W55533  12.786   4.874  12.949
87116W        W55534  25.049  29.027  12.413
87117W        W55535  36.508  15.782  12.511
87118W        W55536  39.954  32.974   1.783
87119W        W55537   8.897   1.363   1.357
87120W        W55538   9.316  10.192   4.834
87121W        W55539  17.638  21.594   2.715
87122W        W55540  44.846  39.500  13.489
87123W        W55541  42.382  15.176   3.174
87124W        W55542   1.269   8.850   1.745
87125W        W55543  15.309  23.118   1.353
87126W        W55544  27.474  14.669  12.850
87127W        W55545  43.020  19.091  11.052
87128W        W55546   4.262   9.771   2.756
87129W        W55547   6.355  23.036  14.285
87130W        W55548   4.846  36.931   1.918
87131W        W55549  28.956   8.754   5.590
87132W        W55550  13.800  13.149   0.392
87133W        W55551  23.598  22.075   4.646
87134W        W55552   1.320  25.980  13.401
87135W        W55553  13.193  33.966  13.806
87136W        W55554  19.643  11.168   3.850
87137W        W55555  34.513   2.796   1.881
87138W        W55556  10.333  32.543   4.116
87139W        W55557  31.526  40.939   3.150
87140W        W55558  32.965  12.836   2.900
87141W        W55559  38.855  34.118   2.759
87142W        W55560   9.747  22.019   0.384
87143W        W55561   2.320  11.717   0.772
87144W        W55562  23.075  41.856   0.293
87145W        W55563  32.590  30.994  12.441
87146W        W55564  32.471  40.356   4.753
87147W        W55565   8.848   5.373   3.777
87148W        W55566   5.899  24.161  10.593
87149W        W55567  10.183  15.632  10.960
87150W        W55568  19.126  41.807   1.327
87151W        W55569   9.881  43.275   3.728
87152W        W55570   6.407  35.032   2.338
87153W        W55571  22.247  38.335   3.201
87154W        W55572  43.412   5.380  13.039
87155W        W55573  20.581  17.130   0.759
87156W        W55574  13.777   9.333   4.181
87157W        W55575  38.534  23.706   0.356
87158W        W55576   6.677  27.946  12.847
87159W        W55577  19.660  12.325   5.211
87160W        W55578   1.446  23.998  13.398
87161W        W55579  26.585  37.509   1.705
87162W        W55580  27.128  25.680   3.175
87163W        W55581  37.388  23.196   1.696
87164W        W55582   1.825  32.917   2.752
87165W        W55583  13.761  33.055  10.454
87166W        W55584  16.105  41.448   0.878
87167W        W55585   1.775   4.804  12.956
87168W        W55586  33.409  14.241  11.044
87169W        W55587   2.308  40.328  10.493
87170W        W55588   8.273  20.529   0.948
87171W        W55589  40.049  19.202  11.583
87172W        W55590  26.625  38.922   1.702
87173W        W55591  14.120   8.765   4.626
87174W        W55592  34.590   8.731   2.872
87175W        W55593  39.976  22.603   3.672
87176W        W55594  36.505  32.486   1.877
87177W        W55595  42.328  31.138   2.710
87178W        W55596  39.474   5.802  10.515
87179W        W55597  43.788  38.427  12.464
87180W        W55598  35.860  16.677  13.342
87181W        W55599   6.191  21.084  10.618
87182W        W55600   0.790  22.027   1.850
87183W        W55601  29.091  26.174  10.477
87184W        W55602  40.819  39.521  13.520
87185W        W55603  43.357   3.240  13.868
87186W        W55604   2.267  40.836   1.838
87187W        W55605  33.012  14.635   2.355
87188W        W55606   3.728  43.361   3.707
87189W        W55607  42.936   1.402   3.291
87190W        W55608  22.723  36.511   1.810
87191W        W55609  42.527   1.733  10.465
87192W        W55610  24.213   0.863  11.925
87193W        W55611  43.333   6.872   1.379
87194W        W55612  41.433   3.453  11.509
87195W        W55613  41.311  38.017   1.831
87196W        W55614  16.602  19.058   4.330
87197W        W55615   4.783  43.995  10.076
87198W        W55616  10.218  24.704   2.727
87199W        W55617  32.004  12.347  14.953
87200W        W55618  31.022  12.759  10.635
87201W        W55619  36.951  10.315  11.584
87202W        W55620  27.584  35.911   3.333
87203W        W55621  18.780  32.443   1.737
87204W        W55622  17.228  44.335  14.464
87205W        W55623  40.364  13.152   1.777
87206W        W55624  43.447  31.935  14.966
87207W        W55625   3.313  15.315  11.095
87208W        W55626  11.678  29.621  14.445
87209W        W55627  26.186  14.198  12.865
87210W        W55628  10.713  29.462  14.413
87211W        W55629   4.404  28.534   3.801
87212W        W55630  11.785  15.741   2.205
87213W        W55631  21.722  40.965  10.025
87214W        W55632  13.672  13.247  12.992
87215W        W55633   5.300   0.916  14.368
87216W        W55634  30.463  44.377  11.080
87217W        W55635  28.995   5.846  12.436
87218W        W55636  14.767  23.095  12.376
87219W        W55637  22.560  24.589   1.701
87220W        W55638  39.354   6.827  11.402
87221W        W55639   2.848  15.758  13.507
87222W        W55640  38.564   1.926   0.830
87223W        W55641  20.708   3.347   1.767
87224W        W55642  32.024  43.852   3.236
87225W        W55643  20.053   7.816  10.894
87226W        W55644  15.602   6.207  14.407
87227W        W55645   2.284  20.674   3.356
87228W        W55646  35.958   6.337   0.896
87229W        W55647   6.308  24.710  10.974
87230W        W55648  42.022  29.658  10.610
87231W        W55649  37.535  41.443  14.325
87232W        W55650  31.149  28.507   4.611
87233W        W55651  10.377  38.919  11.984
87234W        W55652  12.150  40.316   1.842
87235W        W55653  17.130  19.210  14.825
87236W        W55654  34.426  25.098   3.801
87237W        W55655  15.149  30.510   3.216
87238W        W55656  21.220  27.536  13.347
87239W        W55657  16.120  31.974   3.746
87240W        W55658  10.659  37.047   0.901
87241W        W55659  18.254  30.622   2.741
87242W        W55660  44.424  21.528   5.707
87243W        W55661  29.950  31.957   1.694
87244W        W55662  22.176   3.838  11.914
87245W        W55663  23.210   8.242   3.304
87246W        W55664   8.793  18.735   2.347
87247W        W55665  26.643  44.828   3.226
87248W        W55666   5.307  17.151   2.242
87249W        W55667  37.463   5.259  10.544
87250W        W55668  12.737  44.358  12.434
87251W        W55669  36.082  17.230  12.510
87252W        W55670  32.055   8.864   1.310
87253W        W55671  38.442   8.743   1.263
87254W        W55672  43.868  38.870  11.420
87255W        W55673  29.646  19.670  10.074
87256W        W55674   9.847  43.854  14.759
87257W        W55675  44.866  15.739   4.295
87258W        W55676  26.592  31.629   0.834
87259W        W55677  19.563  27.474   0.884
87260W        W55678  26.615  16.609  14.019
87261W        W55679  36.097  39.966   4.778
87262W        W55680  25.151  25.160  11.550
87263W        W55681  39.465  38.830   1.724
87264W        W55682  31.036  29.075  13.871
87265W        W55683  32.518  30.921  14.845
87266W        W55684   4.733  12.190   3.688
87267W        W55685  36.080  44.293  13.061
87268W        W55686   2.783   5.791   0.280
87269W        W55687  44.490   6.781  13.936
87270W        W55688  31.079  12.729   1.275
87271W        W55689   4.732  35.100   1.380
87272W        W55690   4.852   1.255  13.414
87273W        W55691  34.083  38.978   1.708
87274W        W55692  30.041  23.529  10.544
87275W        W55693  20.565   7.702  13.333
87276W        W55694  19.633  20.129  12.389
87277W        W55695  24.512   1.856   2.226
87278W        W55696  21.551   2.770   4.154
87279W        W55697   7.840  10.681  10.495
87280W        W55698   8.751  30.116   0.911
87281W        W55699  12.682  42.413   4.322
87282W        W55700  38.345   1.763  10.549
87283W        W55701  39.943  31.531  12.490
87284W        W55702  41.797  26.651  12.982
87285W        W55703  29.008   3.339   3.701
87286W        W55704   8.320  16.225  11.506
87287W        W55705   4.349  25.653  13.503
87288W        W55706  37.410   5.362  11.075
87289W        W55707  35.968  21.660   1.425
87290W        W55708  27.589  42.029   4.632
87291W        W55709  17.750  10.201   2.313
87292W        W55710   0.776  18.647  14.991
87293W        W55711  27.466  36.458   1.218
87294W        W55712  44.904  37.898   0.941
87295W        W55713   3.735  28.943  11.124
87296W        W55714  40.931  42.892   0.252
87297W        W55715  38.010  27.669  11.514
87298W        W55716  17.745   4.283  13.963
87299W        W55717   3.714  24.189   1.724
87300W        W55718  40.923  18.148   2.294
87301W        W55719  29.534   8.783  14.878
87302W        W55720  13.823   2.873  13.056
87303W        W55721  30.516   7.679   0.278
87304W        W55722  37.887  26.138  13.406
87305W        W55723  11.308  22.155   0.820
87306W        W55724  25.511  37.396   5.127
87307W        W55725   2.315  18.094  14.468
87308W        W55726  20.223  33.932  10.485
87309W        W55727  33.512   7.277   2.806
87310W        W55728  44.470  32.900   4.223
87311W        W55729  18.123  19.262  12.964
87312W        W55730  11.295  36.957   1.910
87313W        W55731  10.745   5.310   0.848
87314W        W55732   9.260  17.731  13.001
87315W        W55733  28.533  35.581  10.934
87316W        W55734  22.557  14.333   0.783
87317W        W55735  35.543  24.134  10.535
87318W        W55736  29.534   2.458   3.371
87319W        W55737  10.174  39.010  12.387
87320W        W55738   8.231   0.786   0.925
87321W        W55739  31.038   0.937  14.344
87322W        W55740   2.750  19.261   2.711
87323W        W55741  43.993  42.403   1.427
87324W        W55742  28.948  35.107   4.266
87325W        W55743  27.948  25.553   0.830
87326W        W55744  32.623  38.371  13.916
87327W        W55745  41.842  22.024  10.048
87328W        W55746  20.090  43.966  14.399
87329W        W55747   1.896  25.646  10.890
87330W        W55748  34.955  43.441   2.341
87331W        W55749  16.780  10.143   1.900
87332W        W55750  35.971  20.164   2.308
87333W        W55751  17.236  43.844   1.828
87334W        W55752  26.033  35.375   2.267
87335W        W55753   7.886  37.878  12.442
87336W        W55754  30.998  38.015  12.965
87337W        W55755   1.901  24.129  10.981
87338W        W55756   2.289  16.582  14.498
87339W        W55757  34.045  38.392  13.804
87340W        W55758  22.737   6.799  12.091
87341W        W55759  14.302  39.850  11.549
87342W        W55760  13.795  16.586   0.858
87343W        W55761  43.398   5.763  14.307
87344W        W55762  30.443  21.714   2.761
87345W        W55763  13.145  10.156   1.336
87346W        W55764  41.388  21.637  13.538
87347W        W55765   2.412  21.550  11.032
87348W        W55766  39.985  17.165   4.141
87349W        W55767  15.285   0.314  12.078
87350W        W55768  20.730  34.032  14.435
87351W        W55769   4.256   9.375   2.662
87352W        W55770  25.132   8.773   2.893
87353W        W55771  41.866  22.027  12.562
87354W        W55772  38.946   8.850   1.235
87355W        W55773   7.355  32.524  12.014
87356W        W55774   2.397  20.030   4.182
87357W        W55775  35.439  19.123   0.797
87358W        W55776   4.877  30.979   1.226
87359W        W55777  29.065   3.405   2.186
87360W        W55778  39.513  36.520  14.995
87361W        W55779  37.361  28.504   0.882
87362W        W55780  27.618  39.863  11.066
87363W        W55781  12.645   6.396  12.921
87364W        W55782  43.402  26.590   2.262
87365W        W55783  33.490  34.900  12.952
87366W        W55784  44.491  37.543  13.053
87367W        W55785   1.843  22.022   4.763
87368W        W55786  33.928  18.055   2.869
87369W        W55787  33.978  30.123  11.859
87370W        W55788   9.735  15.784   2.873
87371W        W55789   7.195  14.216   4.273
87372W        W55790  40.871  18.221   0.398
87373W        W55791  36.540  28.121   3.675
87374W        W55792   0.985  36.540  11.480
87375W        W55793  10.242  29.598  12.840
87376W        W55794   6.901  35.409  13.526
87377W        W55795   0.323  18.295  14.300
87378W        W55796  30.592  10.844  11.957
87379W        W55797  24.975  26.633  13.323
87380W        W55798  11.796  41.025   4.712
87381W        W55799   9.327  35.433   4.295
87382W        W55800   4.866  37.551   2.893
87383W        W55801   2.918  19.278  14.323
87384W        W55802  10.701  18.240   4.734
87385W        W55803  26.032  25.135  14.304
87386W        W55804   8.392  20.644   3.246
87387W        W55805  37.418   4.779   3.378
87388W        W55806   3.454   5.370   1.312
87389W        W55807   3.249  39.456  12.899
87390W        W55808   0.355  45.000  14.313
87391W        W55809  40.849  21.636  14.279
87392W        W55810  34.601  39.968   0.848
87393W        W55811  27.512  14.608   3.658
87394W        W55812   5.695  25.141   5.099
87395W        W55813  14.201  17.636   0.880
87396W        W55814  11.742  14.174  12.516
87397W        W55815  14.648   8.766  13.405
87398W        W55816   8.894  28.574  11.870
87399W        W55817  29.007  17.251   3.632
87400W        W55818  44.793   0.346  13.539
87401W        W55819  44.394  14.146  12.866
87402W        W55820  23.015  14.762   2.728
87403W        W55821  32.483  17.264  10.929
87404W        W55822  16.731  20.748   2.398
87405W        W55823  15.689   7.842  14.016
87406W        W55824  12.157  36.392   4.733
87407W        W55825  10.299  27.038   1.258
87408W        W55826  23.002  25.677  13.389
87409W        W55827   2.899  37.858  10.419
87410W        W55828  10.368  23.207  11.021
87411W        W55829  23.153   6.267   0.732
87412W        W55830  44.410  14.276   2.208
87413W        W55831  26.171  22.658   1.788
87414W        W55832  38.370  11.697  10.611
87415W        W55833  20.698   0.844   0.904
87416W        W55834  43.333  26.527   5.246
87417W        W55835  39.869  12.831  12.916
87418W        W55836  19.743  14.250   0.763
87419W        W55837   1.853  10.354   3.285
87420W        W55838  28.633  35.998  10.940
87421W        W55839  26.201   4.751   4.267
87422W        W55840  14.628  41.378   5.305
87423W        W55841  17.578  14.239   0.279
87424W        W55842  35.064  26.080  14.903
87425W        W55843  33.957   4.716   3.319
87426W        W55844  19.758   2.851   2.671
87427W        W55845  27.940  36.426  11.380
87428W        W55846  29.499  36.013   2.699
87429W        W55847   6.793  31.448  13.517
87430W        W55848  16.659  28.140  13.449
87431W        W55849  38.507   1.365   4.122
87432W        W55850  44.281  34.909   0.869
87433W        W55851  37.892  25.001  13.496
87434W        W55852  26.025  27.595   1.312
87435W        W55853  21.172  39.547  11.942
87436W        W55854  39.326   7.257  14.888
87437W        W55855  24.047   2.887   4.349
87438W        W55856   3.275  30.118   1.777
87439W        W55857   2.398  31.134  10.889
87440W        W55858   3.435  19.143  11.112
87441W        W55859  16.667  20.255  13.043
87442W        W55860   7.337  43.371  13.469
87443W        W55861  24.697  18.102  13.320
87444W        W55862  21.149  22.166   9.958
87445W        W55863  41.399  33.981  11.981
87446W        W55864  31.568  24.189  12.013
87447W        W55865   5.699  32.516  14.497
87448W        W55866   4.853   8.206  14.881
87449W        W55867  17.202  31.969   5.148
87450W        W55868  41.898  11.780  13.438
87451W        W55869  19.579  35.965   3.193
87452W        W55870  13.300  31.565   0.347
87453W        W55871  37.854  40.439   4.277
87454W        W55872  39.458  31.605  13.319
87455W        W55873   2.900  30.447   1.935
87456W        W55874  43.874  23.511   2.304
87457W        W55875  11.661  35.860  12.082
87458W        W55876  44.954  35.095  14.989
87459W        W55877  31.482   5.211  14.445
87460W        W55878  10.757  14.769   1.344
87461W        W55879   7.699  32.630   1.866
87462W        W55880  44.428  17.300   0.830
87463W        W55881   1.887  19.186  11.866
87464W        W55882  40.467  36.023  11.400
87465W        W55883   8.739  15.246  11.888
87466W        W55884  24.053  24.620   3.668
87467W        W55885  44.312  24.686   4.664
87468W        W55886  10.719  11.159   1.321
87469W        W55887  29.542  33.001  14.454
87470W        W55888  34.879  15.593   9.941
87471W        W55889   4.731  20.255   2.276
87472W        W55890  29.498  37.537  13.943
87473W        W55891  18.221  34.864   0.871
87474W        W55892  22.112  37.369  11.378
87475W        W55893  26.054  44.491   4.640
87476W        W55894  29.064   6.293   4.718
87477W        W55895  10.830   0.925   4.257
87478W        W55896  43.414  15.664   4.617
87479W        W55897  19.771  40.350  11.509
87480W        W55898  21.649  15.787  13.847
87481W        W55899  33.582   0.259  10.587
87482W        W55900  20.625   0.757   4.131
87483W        W55901  18.204  23.002  14.940
87484W        W55902  37.400  35.549  12.054
87485W        W55903  20.693  26.965   9.482
87486W        W55904  36.391   2.751   1.765
87487W        W55905  34.398  21.214   1.305
87488W        W55906  14.621  36.998   1.216
87489W        W55907  39.551  14.282   0.832
87490W        W55908  41.882   5.294   1.423
87491W        W55909  14.281  40.523   2.817
87492W        W55910  35.918   9.270   2.702
87493W        W55911   0.384  34.500   3.746
87494W        W55912  30.520  35.574   4.809
87495W        W55913  23.531  17.573  12.345
87496W        W55914  38.946  33.441   4.170
87497W        W55915   1.406  18.758   4.335
87498W        W55916  30.562  35.035   1.275
87499W        W55917  21.020  37.067   3.161
87500W        W55918  44.847  28.952   3.800
87501W        W55919  32.080  41.443   3.341
87502W        W55920  26.689  44.954  12.446
87503W        W55921  35.545  31.984   2.820
87504W        W55922   5.754  19.206   1.764
87505W        W55923  38.907  37.967   2.695
87506W        W55924  38.570  43.405  13.838
87507W        W55925   5.389  20.643  13.983
87508W        W55926   1.835   1.349   0.810
87509W        W55927  38.877  29.057   3.286
87510W        W55928   4.719   5.796   4.317
87511W        W55929  19.621  19.210  13.383
87512W        W55930  25.685  37.434  14.285
87513W        W55931  28.665  29.467   4.314
87514W        W55932   9.711  22.696  14.776
87515W        W55933  41.332  16.603  14.974
87516W        W55934   1.317  12.146  12.411
87517W        W55935  13.297  24.226   2.790
87518W        W55936  35.035  17.674  13.842
87519W        W55937  37.067  26.984   3.754
87520W        W55938  24.985  22.698  12.452
87521W        W55939  14.835  40.907   3.282
87522W        W55940   1.764  35.058   4.721
87523W        W55941  18.731   4.786   2.818
87524W        W55942   8.800  31.996   0.922
87525W        W55943  27.487  42.796   2.809
87526W        W55944  27.152  44.896  14.869
87527W        W55945  32.624  19.165  13.059
87528W        W55946  26.613  37.522  11.917
87529W        W55947  10.685  26.117  12.042
87530W        W55948  43.860  39.037  14.758
87531W        W55949  42.841  42.516   4.759
87532W        W55950  10.175   8.197  13.310
87533W        W55951   7.380  33.571   0.380
87534W        W55952   1.735  33.415   1.823
87535W        W55953  41.802  22.676   2.860
87536W        W55954  39.041  44.998   3.662
87537W        W55955  16.090   9.277   4.686
87538W        W55956  13.164  26.093  13.445
87539W        W55957   7.289   5.826   0.790
87540W        W55958   6.349  19.584   3.149
87541W        W55959   4.251  43.924  14.835
87542W        W55960  40.453  12.206  13.819
87543W        W55961   0.305  37.453  14.912
87544W        W55962   2.375  27.581   0.918
87545W        W55963  41.459  44.932   3.658
87546W        W55964  38.016  24.029   2.744
87547W        W55965  23.100   2.285   1.339
87548W        W55966  13.202  25.547   2.393
87549W        W55967   3.730  30.995   1.215
87550W        W55968  37.897  43.836  12.494
87551W        W55969  23.109  41.408   4.784
87552W        W55970  13.179  33.115   2.250
87553W        W55971  11.306  18.763   4.605
87554W        W55972   6.260  23.054  10.566
87555W        W55973  36.441  41.385  10.627
87556W        W55974  33.952  11.225  12.008
87557W        W55975  27.610  34.460  14.889
87558W        W55976  42.891   0.877  12.035
87559W        W55977   9.717  42.012   3.233
87560W        W55978  30.077  42.924   0.245
87561W        W55979   3.794   6.251  12.355
87562W        W55980  41.308   0.773   1.432
87563W        W55981   7.879  29.659  13.064
87564W        W55982  32.397   3.727  14.833
87565W        W55983  31.147  28.489  10.942
87566W        W55984  13.111   1.304   0.825
87567W        W55985  19.242   6.375  14.995
87568W        W55986  31.637  14.830  12.915
87569W        W55987  38.934  31.095   4.155
87570W        W55988  29.998  18.289  14.485
87571W        W55989   1.428  40.042   0.863
87572W        W55990   0.446  22.632  11.919
87573W        W55991  43.443  25.515   0.455
87574W        W55992  43.309  28.060  11.982
87575W        W55993  24.567   1.251   1.744
87576W        W55994  24.575  14.334   0.468
87577W        W55995  19.730  43.323   3.800
87578W        W55996   3.854  23.132   2.742
87579W        W55997  35.376   1.885   1.310
87580W        W55998  44.961   9.779   3.218
87581W        W55999  12.696   6.185   0.789
87582W        W56000  24.026   3.764   1.421
87583W        W56001   1.945  29.430   1.392
87584W        W56002  37.961  25.686  12.976
87585W        W56003  17.147   1.759   4.688
87586W        W56004  10.816   1.816  12.384
87587W        W56005  41.026  43.826  14.939
87588W        W56006  19.542  22.160  11.398
87589W        W56007  17.718  13.604  13.886
87590W        W56008  31.562  29.034  11.893
87591W        W56009  39.868  32.607   2.398
87592W        W56010   3.789  12.150   2.410
87593W        W56011  44.379  30.141  10.495
87594W        W56012  25.981  34.871  10.496
87595W        W56013  31.100   5.355  13.809
87596W        W56014  15.617  25.550  11.942
87597W        W56015  17.727  18.641   0.811
87598W        W56016  24.140   9.841  10.547
87599W        W56017  10.358   0.344   3.382
87600W        W56018   4.753  11.156  14.942
87601W        W56019  43.356  32.582   2.394
87602W        W56020  31.949  18.257   3.787
87603W        W56021   6.196   5.410  10.902
87604W        W56022  15.706  27.594   4.337
87605W        W56023  25.582  19.684  11.592
87606W        W56024  24.176  19.589  11.999
87607W        W56025  43.453  40.374  13.811
87608W        W56026   9.797  23.638  10.597
87609W        W56027  41.813  10.712   0.760
87610W        W56028  39.497   7.214  13.967
87611W        W56029  21.570  38.536   5.720
87612W        W56030  20.555  14.629   5.674
87613W        W56031  23.115  20.629   4.164
87614W        W56032  30.052  30.933   2.402
87615W        W56033  41.010  28.587   3.188
87616W        W56034   0.948  39.483   2.707
87617W        W56035  29.634   6.212   3.851
87618W        W56036   4.711  36.891   0.835
87619W        W56037  27.588  27.190   2.363
87620W        W56038  29.586  42.862   2.342
87621W        W56039  17.656   9.861   2.330
87622W        W56040  25.655  11.736   2.307
87623W        W56041  24.616  37.896  14.961
87624W        W56042  12.128  15.750  13.815
87625W        W56043  10.210  31.497  14.294
87626W        W56044  21.722  25.023   9.989
87627W        W56045   2.371  29.965  14.002
87628W        W56046  12.124  26.531  11.892
87629W        W56047  35.916  40.883   4.187
87630W        W56048  18.128  24.535   0.755
87631W        W56049  40.929   6.825   0.883
87632W        W56050  39.054   7.741   4.650
87633W        W56051  24.698  12.806   0.957
87634W        W56052  22.057   3.342   2.785
87635W        W56053  30.086  14.158  13.325
87636W        W56054  35.007  30.965   3.853
87637W        W56055  44.311   8.192  10.005
87638W        W56056   2.299  29.566   1.854
87639W        W56057  20.554  34.465  14.391
87640W        W56058   0.765  14.785  11.398
87641W        W56059  16.279  14.184  11.947
87642W        W56060   7.701   0.946  14.279
87643W        W56061  19.243  27.632   2.232
87644W        W56062  10.292  29.647   2.228
87645W        W56063   1.797  33.613   3.856
87646W        W56064  23.179  39.485  12.849
87647W        W56065  20.728  14.185  12.089
87648W        W56066   1.361  44.275  14.373
87649W        W56067  25.708  12.758  11.096
87650W        W56068  35.950  29.546  13.542
87651W        W56069   4.332  27.532  10.510
87652W        W56070   9.847  21.685  11.005
87653W        W56071  20.609  37.073  13.441
87654W        W56072  13.790   5.746  11.107
87655W        W56073   3.258   9.233   1.815
87656W        W56074  32.084  28.983  12.479
87657W        W56075  23.687  35.933   3.694
87658W        W56076  42.292  13.243   4.198
87659W        W56077  25.212   4.774  14.483
87660W        W56078  32.570   4.338   1.929
87661W        W56079   4.317  34.078  14.327
87662W        W56080   1.465  38.001  13.022
87663W        W56081  18.166  22.520  14.421
87664W        W56082  18.230  16.184  11.474
87665W        W56083  32.116   8.215   3.361
87666W        W56084  27.009   2.386  13.472
87667W        W56085  21.563  21.025  11.884
87668W        W56086  28.616   1.238  13.870
87669W        W56087  14.340  43.281   3.214
87670W        W56088  18.105  12.289  13.377
87671W        W56089  36.868   6.387  12.051
87672W        W56090  20.565  34.492   4.757
87673W        W56091  11.176  27.025   4.750
87674W        W56092  27.098  31.620  13.353
87675W        W56093  23.233  11.324   1.371
87676W        W56094   8.174  15.127  13.329
87677W        W56095   9.212   0.468  10.491
87678W        W56096  42.358  26.506  13.802
87679W        W56097  26.510  40.306  10.548
87680W        W56098   6.683   7.343   3.673
87681W        W56099  44.995  22.535  14.323
87682W        W56100   0.339  34.011   0.861
87683W        W56101  39.984  19.248  12.352
87684W        W56102  21.564  40.512  14.770
87685W        W56103  36.400  37.884  10.571
87686W        W56104  19.256  29.621  11.392
87687W        W56105  12.156  22.088  14.769
87688W        W56106  21.546  21.713   4.746
87689W        W56107  32.399  15.308  13.335
87690W        W56108  39.020  34.498   2.793
87691W        W56109  30.050  44.896   1.857
87692W        W56110  10.794  19.250  12.932
87693W        W56111   0.949   9.386   2.277
87694W        W56112  32.442  18.154  14.348
87695W        W56113  21.666  10.694   3.693
87696W        W56114   6.280  17.794  10.427
87697W        W56115   7.671  12.250  11.391
87698W        W56116  28.458  43.475   4.127
87699W        W56117  32.136   1.914   0.829
87700W        W56118  44.418  14.705   4.626
87701W        W56119  19.258  33.129  10.413
87702W        W56120  17.078  44.874   1.805
87703W        W56121  36.436  38.838  11.432
87704W        W56122  38.455  18.770   4.806
87705W        W56123  10.312   7.834  14.276
87706W        W56124  13.230  33.110  12.828
87707W        W56125  20.685  44.431   4.632
87708W        W56126   1.391   3.791  14.390
87709W        W56127   1.836  30.645  14.956
87710W        W56128  16.205  38.859  13.933
87711W        W56129  31.117  10.220  14.293
87712W        W56130  18.567  21.666   3.189
87713W        W56131  11.215  26.175   4.743
87714W        W56132  22.704  43.344   2.325
87715W        W56133  24.511  31.596  11.941
87716W        W56134  40.375   5.796  12.366
87717W        W56135  29.016  38.355   0.956
87718W        W56136   6.225  29.050   1.901
87719W        W56137  29.440  34.508   0.425
87720W        W56138   6.312  10.321   1.277
87721W        W56139   1.339  12.673  11.602
87722W        W56140  29.998  17.696  13.936
87723W        W56141  42.410   1.909  11.008
87724W        W56142  14.705  16.216  10.961
87725W        W56143  33.884   9.763   3.343
87726W        W56144   3.219  10.781  14.918
87727W        W56145  33.538  17.134   1.786
87728W        W56146  18.098  12.615  10.954
87729W        W56147  21.133  10.331   2.840
87730W        W56148  14.725  37.378   4.669
87731W        W56149  24.689  31.566   2.736
87732W        W56150  15.140   7.708  10.114
87733W        W56151  27.603  34.917  12.438
87734W        W56152  22.534   0.957   1.436
87735W        W56153  36.584  26.591  11.093
87736W        W56154  38.857  23.680   0.386
87737W        W56155  28.597  32.437   4.207
87738W        W56156  39.011  40.881   3.858
87739W        W56157  30.549   8.346  12.953
87740W        W56158  25.031  36.494   0.844
87741W        W56159   0.486  15.231  11.954
87742W        W56160   9.845  41.374  14.400
87743W        W56161   3.746  32.513  14.785
87744W        W56162  36.963  43.002   3.833
87745W        W56163  21.116   8.351  14.804
87746W        W56164   2.761  40.016  12.975
87747W        W56165  14.162  24.080  14.869
87748W        W56166  43.289   1.264  11.608
87749W        W56167  41.383  31.084   1.776
87750W        W56168  19.699  36.463  10.983
87751W        W56169  11.214  36.566   2.827
87752W        W56170  36.415  27.167  12.526
87753W        W56171  23.223  40.346  13.018
87754W        W56172  39.521  10.685  14.787
87755W        W56173  34.955  16.634  10.015
87756W        W56174  12.130  43.924   2.214
87757W        W56175  21.116  13.746  14.827
87758W        W56176  19.109  30.580  11.121
87759W        W56177  26.021  39.029   4.294
87760W        W56178  39.876  33.120  12.430
87761W        W56179  10.664  31.456  10.942
87762W        W56180   4.731  20.724   2.393
87763W        W56181  18.171  23.205  10.905
87764W        W56182  24.643  36.852   1.292
87765W        W56183   2.815  24.028   1.373
87766W        W56184  10.818   5.340  11.401
87767W        W56185  38.530  31.066  13.355
87768W        W56186  15.764  22.699  10.902
87769W        W56187  29.602  24.088   5.295
87770W        W56188   1.916   3.367  14.499
87771W        W56189  20.214  20.694   2.759
87772W        W56190  41.922   9.750   4.836
87773W        W56191  16.185  26.207   2.666
87774W        W56192  21.206  25.200  10.564
87775W        W56193  27.613  32.460   2.343
87776W        W56194  17.671  31.499  10.620
87777W        W56195  42.983  40.868  10.088
87778W        W56196  25.541  38.848  10.572
87779W        W56197  25.179  27.445  13.798
87780W        W56198  32.506  41.027  10.512
87781W        W56199  39.940  38.022  10.618
87782W        W56200  28.981  29.476   2.280
87783W        W56201  19.752  18.570   4.788
87784W        W56202  25.043  23.713  11.586
87785W        W56203  16.641  24.567   4.783
87786W        W56204  18.154  14.650   0.446
87787W        W56205   3.763   5.303   0.768
87788W        W56206   4.918  13.173   0.329
87789W        W56207  36.039   5.364   2.720
87790W        W56208  21.166  26.180  11.914
87791W        W56209   5.881   8.325  10.635
87792W        W56210   5.844  23.986   0.786
87793W        W56211   7.340   7.889  12.499
87794W        W56212  10.677  36.516  14.806
87795W        W56213  13.843  31.093  11.944
87796W        W56214  38.992  16.796  13.506
87797W        W56215  18.645   8.738   5.104
87798W        W56216   9.783  35.410   1.784
87799W        W56217  41.470   5.807   0.377
87800W        W56218   9.862  40.461  10.914
87801W        W56219   4.826  22.185  12.346
87802W        W56220  28.526   4.766  13.826
87803W        W56221   8.325  27.491   1.438
87804W        W56222  28.955   7.232  11.476
87805W        W56223  35.494  44.393  13.497
87806W        W56224  18.773  10.179  10.456
87807W        W56225   3.840  11.355   1.718
87808W        W56226  40.871   1.787  10.589
87809W        W56227   3.940  30.165   4.234
87810W        W56228  36.992  40.995  14.925
87811W        W56229  31.145  18.633  13.481
87812W        W56230  31.996  24.718   1.335
87813W        W56231  13.735  28.117  14.974
87814W        W56232  19.744   6.714   1.834
87815W        W56233  44.291  23.619   5.590
87816W        W56234  33.035  26.567  10.587
87817W        W56235  28.995  17.703   1.256
87818W        W56236  24.977  15.277  11.988
87819W        W56237  21.041  24.230  14.408
87820W        W56238  35.078  35.072   1.886
87821W        W56239  23.115  44.844   3.325
87822W        W56240  15.132  10.291   3.746
87823W        W56241  40.549  15.671   0.774
87824W        W56242   1.312  29.482  14.480
87825W        W56243  37.844  44.955  11.861
87826W        W56244  32.551  12.224  11.588
87827W        W56245  28.069   7.292   5.294
87828W        W56246  44.940  17.669  14.966
87829W        W56247  20.209  25.712   2.746
87830W        W56248  34.609   2.439   0.761
87831W        W56249  38.563  44.297  10.105
87832W        W56250   0.365  23.138  14.774
87833W        W56251  37.039  31.558   2.673
87834W        W56252  12.158   6.840   3.347
87835W        W56253  44.493  26.531  14.418
87836W        W56254  29.175  16.186   1.339
87837W        W56255  33.493   5.379   1.825
87838W        W56256  18.574   5.391  11.869
87839W        W56257  16.653  28.156  10.635
87840W        W56258  41.316  23.496  14.424
87841W        W56259  23.613  18.209  14.357
87842W        W56260   0.485  18.094  12.867
87843W        W56261   2.740  38.466  11.884
87844W        W56262  31.118   0.287  10.520
87845W        W56263  40.417  37.484  12.522
87846W        W56264   0.754   4.762   3.693
87847W        W56265  14.753   4.254  13.353
87848W        W56266  21.622  44.263  10.460
87849W        W56267  18.764  18.611  13.919
87850W        W56268  15.189  11.845   2.284
87851W        W56269   1.387   2.256   3.235
87852W        W56270   9.173   8.335   0.745
87853W        W56271  25.023  27.604   4.153
87854W        W56272  35.090  44.785   0.271
87855W        W56273   9.822  33.114  11.549
87856W        W56274  17.767  22.168   3.373
87857W        W56275  14.143  31.455  13.032
87858W        W56276  22.531  16.614  11.555
87859W        W56277   0.907  10.292   5.146
87860W        W56278   4.921  44.463  10.157
87861W        W56279  41.855  27.040   3.720
87862W        W56280   9.699  13.699   2.343
87863W        W56281   8.706  26.128   3.305
87864W        W56282  21.728  16.809  12.970
87865W        W56283   0.489  20.622   3.649
87866W        W56284  10.159  11.789  11.491
87867W        W56285  32.569  12.145   2.225
87868W        W56286   4.394  37.572  11.984
87869W        W56287  40.906  30.065  10.432
87870W        W56288  16.133  44.459   1.924
87871W        W56289  37.423  18.637   2.744
87872W        W56290  14.832  28.083   4.688
87873W        W56291  18.230  18.201   4.135
87874W        W56292   1.276  21.183   4.212
87875W        W56293  27.021  38.398  14.021
87876W        W56294  22.240  35.048  12.894
87877W        W56295   0.900  12.698   1.789
87878W        W56296  12.721  42.498  10.413
87879W        W56297  13.789   1.941  14.869
87880W        W56298  41.978  25.046   0.921
87881W        W56299  24.182  29.127   4.125
87882W        W56300  14.190  42.810  10.634
87883W        W56301  26.120  14.245   4.285
87884W        W56302  23.098   8.851   2.811
87885W        W56303   8.773  44.470   0.804
87886W        W56304  37.003  35.864  14.367
87887W        W56305  15.249  42.824   3.730
87888W        W56306  24.100  40.947  14.868
87889W        W56307  29.659  19.238  11.375
87890W        W56308  10.702  13.241   3.687
87891W        W56309  19.138  21.728  14.493
87892W        W56310  35.960   6.760  10.899
87893W        W56311  27.446   5.400   2.351
87894W        W56312  23.034  27.145  11.596
87895W        W56313  31.997  33.076  14.918
87896W        W56314  38.427  34.937   3.826
87897W        W56315  10.309  42.863   3.697
87898W        W56316  25.025  33.891  11.455
87899W        W56317  41.415  15.655  11.529
87900W        W56318  38.832  15.713   2.756
87901W        W56319  13.730  35.852  14.412
87902W        W56320  21.753  31.079   3.821
87903W        W56321  24.990  12.273  11.534
87904W        W56322  20.592  42.443   2.803
87905W        W56323   3.806  36.450  13.995
87906W        W56324   0.384  27.532  13.352
87907W        W56325  22.246  12.289   3.746
87908W        W56326  29.157  11.824   3.166
87909W        W56327   3.446   1.455   4.620
87910W        W56328  42.295   1.786   3.837
87911W        W56329  21.098   5.881  13.382
87912W        W56330  32.994   4.729   3.721
87913W        W56331  35.950  36.452   2.737
87914W        W56332  27.464  18.692   2.319
87915W        W56333  25.074  13.120  12.045
87916W        W56334  21.676  22.623  13.850
87917W        W56335  14.293   0.885   2.890
87918W        W56336   3.394   8.844  10.515
87919W        W56337  13.117  12.289  14.995
87920W        W56338  32.926  33.443   1.729
87921W        W56339  40.538  30.490  11.003
87922W        W56340  13.342   5.414   4.774
87923W        W56341  35.856  24.564   4.671
87924W        W56342  43.934  43.458  11.084
87925W        W56343  18.558  23.616   3.155
87926W        W56344  16.601  44.903  10.512
87927W        W56345  26.110  36.896   1.907
87928W        W56346   9.168  41.494  14.852
87929W        W56347   5.252  23.690   4.829
87930W        W56348  23.059  12.622  13.952
87931W        W56349  43.813  15.268  13.363
87932W        W56350  30.505   3.723  12.386
87933W        W56351  12.626  11.147  11.451
87934W        W56352  21.258  42.975   4.775
87935W        W56353  24.673  22.237  12.342
87936W        W56354  37.411  38.917  10.453
87937W        W56355  30.493  39.509   1.350
87938W        W56356  22.646  22.630   0.278
87939W        W56357  15.703  40.991  14.347
87940W        W56358  22.672  30.575  11.503
87941W        W56359   3.832  26.171   1.697
87942W        W56360  43.500  10.247   0.385
87943W        W56361  20.698  16.725  13.936
87944W        W56362   1.751  25.470   3.198
87945W        W56363  20.525  23.200   4.696
87946W        W56364  20.732  37.860  14.812
87947W        W56365   0.897  27.970   1.218
87948W        W56366  42.955  16.113   2.664
87949W        W56367  18.214   5.810   1.739
87950W        W56368   1.359  19.277   9.593
87951W        W56369  42.828   8.183  14.964
87952W        W56370  26.516   9.156  14.854
87953W        W56371   0.953   4.429  12.491
87954W        W56372   0.945  37.521   1.852
87955W        W56373  30.616  41.518   2.899
87956W        W56374  39.937  41.014  14.805
87957W        W56375  32.579  33.385  13.530
87958W        W56376  23.018  28.676   4.703
87959W        W56377  15.723  39.507   2.849
87960W        W56378  12.166  20.579   1.895
87961W        W56379  37.938  44.756  13.005
87962W        W56380  21.640  26.056   3.785
87963W        W56381  25.613  21.036  11.561
87964W        W56382  29.430  36.522  11.034
87965W        W56383   8.722  24.725   4.324
87966W        W56384   5.310  14.702  10.990
87967W        W56385  26.071  35.007   4.632
87968W        W56386   3.274  38.075  10.897
87969W        W56387   7.211   2.792  10.558
87970W        W56388  44.995   4.931  14.845
87971W        W56389   0.862  25.976   3.313
87972W        W56390  44.003  31.617  12.028
87973W        W56391  24.230  18.646  11.941
87974W        W56392  33.949  35.899   2.881
87975W        W56393  44.328  24.094  12.422
87976W        W56394  24.217  40.891  13.413
87977W        W56395  13.710  11.769  13.311
87978W        W56396  34.606  13.606   1.813
87979W        W56397  21.588  41.396   1.780
87980W        W56398   0.902  11.272   2.416
87981W        W56399  28.031  44.001   0.883
87982W        W56400  28.064  34.555  14.385
87983W        W56401   9.205  38.352  13.001
87984W        W56402  17.799  29.509  12.060
87985W        W56403  20.216  22.532   2.828
87986W        W56404  35.937  35.035   3.204
87987W        W56405   1.400   7.363  10.473
87988W        W56406  21.603  31.972   2.312
87989W        W56407  22.044   8.675   3.208
87990W        W56408  10.709  34.920  12.381
87991W        W56409  27.623  19.189   3.163
87992W        W56410   4.781  19.728   1.238
87993W        W56411  37.926  15.242   1.211
87994W        W56412  10.274  23.227   1.813
87995W        W56413  32.403  38.392   4.276
87996W        W56414  16.609  41.806   3.244
87997W        W56415  24.218  28.521   3.231
87998W        W56416  27.148  26.101   2.300
87999W        W56417  42.526  33.958   0.887
88000W        W56418  20.639  19.765  11.103
88001W        W56419  33.569  33.896  12.942
88002W        W56420  18.549  22.074  11.966
88003W        W56421  21.172  38.462   2.895
88004W        W56422  29.465   3.400   1.358
88005W        W56423  31.911   3.838  14.971
88006W        W56424  13.199  12.280   4.264
88007W        W56425  14.623  25.056   2.234
88008W        W56426  17.637  36.372  13.479
88009W        W56427  27.525  29.517   0.316
88010W        W56428  16.301   4.225   5.729
88011W        W56429  39.428   6.797  12.089
88012W        W56430  22.038   9.756  12.466
88013W        W56431  34.402  39.014  10.094
88014W        W56432   3.861  12.833   2.305
88015W        W56433  29.076  23.717   4.631
88016W        W56434  25.550  10.345  10.893
88017W        W56435  37.935   2.259   0.939
88018W        W56436   9.295  14.643   2.210
88019W        W56437  10.709  28.640  13.021
88020W        W56438   3.809  14.196   2.702
88021W        W56439  41.448   8.818  11.530
88022W        W56440  25.605  37.867   2.372
88023W        W56441  12.745  40.366   1.352
88024W        W56442  29.142  15.243   1.784
88025W        W56443   2.835  24.633  12.422
88026W        W56444  37.407  20.212  14.944
88027W        W56445  28.462  12.257   2.786
88028W        W56446  33.591  19.583   3.259
88029W        W56447  21.605  31.528   0.783
88030W        W56448  30.528  36.557  14.916
88031W        W56449  25.706  38.532  12.933
88032W        W56450  15.668  18.606  11.379
88033W        W56451   9.665   1.437   3.370
88034W        W56452   4.445  15.168  11.577
88035W        W56453   5.333   6.344  13.351
88036W        W56454  27.068  11.311   4.652
88037W        W56455   9.194  29.517   1.904
88038W        W56456  42.961  35.855   1.426
88039W        W56457  43.342  30.465   1.729
88040W        W56458  39.028  10.643   0.396
88041W        W56459  13.165  38.449  13.511
88042W        W56460  21.562   5.846   0.884
88043W        W56461  31.986  15.594   2.886
88044W        W56462  40.440  32.462   0.315
88045W        W56463  33.033  38.452   0.801
88046W        W56464  36.506  25.188  10.558
88047W        W56465  25.692  23.008   2.854
88048W        W56466  25.978  31.633  10.525
88049W        W56467  42.387  20.200  13.376
88050W        W56468   5.836   3.373   0.369
88051W        W56469  13.758  37.076  14.776
88052W        W56470  22.535  28.942   4.734
88053W        W56471  30.539  28.105   0.741
88054W        W56472  21.686  38.412   4.130
88055W        W56473   1.455   1.307  13.044
88056W        W56474  40.995  35.983   2.799
88057W        W56475  28.063   8.244   3.695
88058W        W56476  29.616   8.218   1.266
88059W        W56477  19.269  19.766   2.327
88060W        W56478  28.034  28.177  11.097
88061W        W56479  34.448  24.195  13.374
88062W        W56480   1.951  36.593  14.501
88063W        W56481   7.292   2.791   0.776
88064W        W56482  41.805   9.862  11.372
88065W        W56483  32.518   7.326  12.429
88066W        W56484  35.559  11.216   3.756
88067W        W56485  13.821  32.940   0.351
88068W        W56486   7.804   1.768   9.970
88069W        W56487   2.406  23.527   0.861
88070W        W56488   8.237  20.102  13.985
88071W        W56489  21.698  27.494   3.360
88072W        W56490  25.480  29.608  12.025
88073W        W56491  30.537   5.900   2.256
88074W        W56492  34.580  22.730  14.908
88075W        W56493  39.417  33.038  11.596
88076W        W56494  29.122  28.070   0.276
88077W        W56495  40.946  18.132   0.819
88078W        W56496  28.530  34.065   4.144
88079W        W56497  13.243  16.686  11.912
88080W        W56498   3.385  40.532  13.793
88081W        W56499  26.664  10.864   0.922
88082W        W56500   7.258  21.088  10.611
88083W        W56501  27.447   5.211  14.869
88084W        W56502   6.698  39.391   0.333
88085W        W56503   4.252  38.551   2.687
88086W        W56504   2.823  43.287   4.660
88087W        W56505   8.229  24.180   2.800
88088W        W56506  31.976  33.398  11.448
88089W        W56507   7.686  24.620   0.873
88090W        W56508  35.069  21.261   2.860
88091W        W56509  34.043  40.797  14.816
88092W        W56510   9.156  31.424  13.492
88093W        W56511   2.320   7.708   0.312
88094W        W56512  41.348  36.024   0.369
88095W        W56513   3.252   7.665  14.314
88096W        W56514   4.358  43.911   4.193
88097W        W56515  26.699  25.516   0.913
88098W        W56516  36.097   0.760  10.443
88099W        W56517   3.808   9.381  13.008
88100W        W56518  22.688   6.300  10.108
88101W        W56519   5.409   1.807   3.189
88102W        W56520  25.690  22.222   3.645
88103W        W56521  34.061  33.464  10.890
88104W        W56522   9.756  24.012   1.375
88105W        W56523  42.953  36.847  11.973
88106W        W56524  27.048  25.995   4.831
88107W        W56525  27.990  11.736   4.191
88108W        W56526  18.139  21.162  11.888
88109W        W56527  44.765  14.772   0.301
88110W        W56528  23.538  38.893   4.336
88111W        W56529  25.984  37.849  10.494
88112W        W56530   4.724  40.877   1.297
88113W        W56531  32.953  22.627  12.439
88114W        W56532  23.083  20.690   1.366
88115W        W56533   4.706  40.498  14.458
88116W        W56534  43.840  16.581   3.718
88117W        W56535  34.880  11.304  14.358
88118W        W56536  23.509  25.041  12.823
88119W        W56537  19.760   3.364  12.085
88120W        W56538   6.893   9.690  11.009
88121W        W56539   0.975   2.776  12.946
88122W        W56540  39.424   6.367   4.133
88123W        W56541  11.138  13.307  11.559
88124W        W56542  23.166  30.575  11.011
88125W        W56543  42.381  23.181   0.798
88126W        W56544  43.428  26.611   2.665
88127W        W56545  31.415  36.041  14.329
88128W        W56546   2.442  20.140  14.360
88129W        W56547  16.705  27.120   0.739
88130W        W56548  31.942  44.439  14.812
88131W        W56549  32.566  38.022  12.837
88132W        W56550   6.726   2.961   3.848
88133W        W56551  20.718  36.946  12.458
88134W        W56552  25.995  25.667   0.890
88135W        W56553  22.997   9.156   2.865
88136W        W56554  22.100  39.495  14.500
88137W        W56555  38.864  41.866   2.812
88138W        W56556  13.686  38.911   2.358
88139W        W56557  32.518  13.196   3.195
88140W        W56558   9.209   3.803  10.540
88141W        W56559   5.378  36.090   1.830
88142W        W56560  43.486  22.714   0.308
88143W        W56561  29.110  21.047   3.173
88144W        W56562  14.241  22.190  12.368
88145W        W56563  25.490  38.470   1.412
88146W        W56564   7.775   7.899   2.805
88147W        W56565   4.768  16.614  10.898
88148W        W56566  16.574  38.344  11.982
88149W        W56567  40.956  14.180   4.734
88150W        W56568  25.559  43.279  12.370
88151W        W56569   1.326  28.678   4.202
88152W        W56570  44.842   8.750   0.731
88153W        W56571  32.017   8.655   4.649
88154W        W56572  16.096   4.783   3.185
88155W        W56573   9.371  12.255   3.359
88156W        W56574   1.734   4.775   4.753
88157W        W56575  34.007  40.466   4.693
88158W        W56576  10.660  14.225  14.495
88159W        W56577  12.202  42.360   3.219
88160W        W56578  27.493   8.737  14.466
88161W        W56579  33.564  15.657  14.892
88162W        W56580  28.513   9.765  12.525
88163W        W56581  25.491  23.206   0.793
88164W        W56582  32.984  44.776  10.619
88165W        W56583  12.660  24.167   3.868
88166W        W56584   2.925   4.729   0.247
88167W        W56585  30.162  39.016   4.808
88168W        W56586  42.817  42.797   1.212
88169W        W56587   6.722  44.416   3.300
88170W        W56588  23.534  30.947  12.033
88171W        W56589   5.907  27.980  14.878
88172W        W56590  15.207  37.378  10.901
88173W        W56591  33.905  35.360  12.847
88174W        W56592   7.252  16.190  11.508
88175W        W56593  28.964  10.782   2.707
88176W        W56594  40.915  42.993   2.255
88177W        W56595  40.377  39.458   4.177
88178W        W56596  12.175  28.617  11.470
88179W        W56597  16.122  30.138  13.310
88180W        W56598  16.099   9.770   0.799
88181W        W56599  36.438  33.386   3.345
88182W        W56600  34.067  44.394  11.464
88183W        W56601  13.686  33.555  12.850
88184W        W56602   3.442  39.059  12.989
88185W        W56603   0.331  42.507   3.381
88186W        W56604   5.198  33.454   0.432
88187W        W56605  23.103  17.669  11.091
88188W        W56606   5.704  33.391  11.477
88189W        W56607  16.185  16.708  12.342
88190W        W56608   8.893  24.210  12.533
88191W        W56609  40.367  37.465  10.083
88192W        W56610  15.313  33.108  14.430
88193W        W56611  15.613  19.561  13.414
88194W        W56612  18.780  13.232  13.509
88195W        W56613  19.048  29.956  13.795
88196W        W56614  29.070   2.757   2.693
88197W        W56615  14.299  10.342   3.322
88198W        W56616  12.261   0.857  14.017
88199W        W56617  28.062   2.931   4.318
88200W        W56618  44.433  19.631   4.234
88201W        W56619   6.193   0.812  10.561
88202W        W56620  24.112  23.143   3.660
88203W        W56621  42.302  40.954   5.666
88204W        W56622  10.640  40.541   4.284
88205W        W56623  37.002  35.078   4.756
88206W        W56624  16.198  10.365  12.971
88207W        W56625  27.175  37.416  12.851
88208W        W56626  32.982  39.349  10.550
88209W        W56627  21.640  36.037   4.774
88210W        W56628  20.568   9.784   3.682
88211W        W56629  36.548   2.421   1.765
88212W        W56630  18.097   0.767   0.796
88213W        W56631  41.793  27.478  12.493
88214W        W56632  23.529  40.536   1.414
88215W        W56633  42.875  44.929  14.948
88216W        W56634  12.834  41.991  12.367
88217W        W56635  19.105  14.206   1.362
88218W        W56636  39.412  10.645  11.004
88219W        W56637   3.236   4.817   1.756
88220W        W56638  20.108   8.398  12.478
88221W        W56639   3.920   8.779   0.348
88222W        W56640   9.305  40.390  10.042
88223W        W56641   2.764  13.823   1.398
88224W        W56642  36.370  40.000  13.915
88225W        W56643  14.147   5.713   2.834
88226W        W56644  33.491  19.771  12.393
88227W        W56645  18.662  40.906   4.826
88228W        W56646  30.972  10.232  13.494
88229W        W56647  14.773  18.714   3.178
88230W        W56648  29.153  11.749  13.418
88231W        W56649   8.212  34.398   0.384
88232W        W56650  23.530  24.597  10.603
88233W        W56651   7.694  34.927   3.159
88234W        W56652  23.695  36.407   1.884
88235W        W56653   3.792  11.299  14.297
88236W        W56654   3.773  20.237  11.581
88237W        W56655  43.362  23.129  13.333
88238W        W56656   0.858  21.121   1.350
88239W        W56657  22.206  43.899   3.742
88240W        W56658   8.325  14.166   2.874
88241W        W56659   1.349  22.252   4.257
88242W        W56660  30.931  25.652  10.913
88243W        W56661  26.151  28.091   3.378
88244W        W56662  26.030   5.832   0.804
88245W        W56663  43.442   6.756  10.543
88246W        W56664  15.718  20.061  13.427
88247W        W56665   8.855   0.915  13.995
88248W        W56666   5.697   2.329   2.231
88249W        W56667  44.281   1.860  13.449
88250W        W56668  12.733   6.833  12.429
88251W        W56669  14.629  23.007   2.698
88252W        W56670  34.913  14.330   0.767
88253W        W56671  40.035   8.246  13.535
88254W        W56672  20.527   3.934   0.895
88255W        W56673  40.365  21.654  11.865
88256W        W56674  17.174  22.552  14.333
88257W        W56675  17.611  40.002   3.159
88258W        W56676  18.670   1.928   2.188
88259W        W56677  13.819  26.100  14.503
88260W        W56678  43.975   4.256   4.724
88261W        W56679  17.707  23.580   3.805
88262W        W56680  41.295  12.325  13.876
88263W        W56681   0.906  13.663  14.924
88264W        W56682  30.089  41.468   3.821
88265W        W56683   4.365  24.609   4.653
88266W        W56684  12.856  38.859  13.330
88267W        W56685  14.659  43.001   2.411
88268W        W56686  26.006  41.379   1.799
88269W        W56687  11.718   4.750   3.254
88270W        W56688   2.762  22.648   4.345
88271W        W56689  16.807  16.635   2.792
88272W        W56690  44.460  16.623   2.405
88273W        W56691  15.783  29.038   0.760
88274W        W56692   7.884  34.528  13.883
88275W        W56693  44.886   2.787   4.811
88276W        W56694   0.958  21.074  14.492
88277W        W56695  20.159  21.568   0.327
88278W        W56696  34.910  33.056  10.544
88279W        W56697   5.850  12.311  14.950
88280W        W56698  10.659  25.022  10.988
88281W        W56699  26.671  39.550   3.646
88282W        W56700  20.559  19.666  10.432
88283W        W56701   0.899  34.423  13.522
88284W        W56702  15.166  18.732  10.977
88285W        W56703  40.478  36.428  11.412
88286W        W56704   6.792  33.398   4.771
88287W        W56705  32.021   1.363  13.029
88288W        W56706  43.842   8.694   0.281
88289W        W56707  36.919  37.396  12.031
88290W        W56708   1.920  10.188  13.794
88291W        W56709  19.078  41.390  14.853
88292W        W56710  26.672  44.854   0.874
88293W        W56711   6.689  10.247   4.800
88294W        W56712  20.542  10.863   4.711
88295W        W56713  15.672  37.934   1.412
88296W        W56714  38.050  24.184  12.852
88297W        W56715   9.226  13.310   0.837
88298W        W56716  27.974  29.983  13.974
88299W        W56717   0.949  13.148   2.892
88300W        W56718  44.490   9.679   4.303
88301W        W56719  23.663  25.056   0.880
88302W        W56720   2.944  37.837  11.560
88303W        W56721  12.831  30.915   1.289
88304W        W56722  33.413   5.367  13.013
88305W        W56723  21.111   9.250   0.262
88306W        W56724  32.900   7.366  10.888
88307W        W56725  35.479   4.449   0.432
88308W        W56726  26.047  12.680   0.401
88309W        W56727   6.728   5.871   2.232
88310W        W56728  13.318   2.794   1.851
88311W        W56729  44.378  28.125  13.873
88312W        W56730   3.776  31.510  12.416
88313W        W56731  16.196  37.974   4.202
88314W        W56732   9.299  27.691  13.051
88315W        W56733  32.614  13.632   3.198
88316W        W56734  16.715   3.279   0.943
88317W        W56735  42.030   8.168   1.215
88318W        W56736  27.533  22.587   1.884
88319W        W56737  28.000  11.348  11.449
88320W        W56738  13.247  41.297   3.169
88321W        W56739  25.670  36.860  13.517
88322W        W56740  39.043   2.387   1.329
88323W        W56741   4.422  20.249  11.960
88324W        W56742  20.533   0.384  10.433
88325W        W56743  44.804  11.256   9.510
88326W        W56744  28.506  40.452  11.994
88327W        W56745   6.759  11.277  10.514
88328W        W56746  21.082  32.465  11.123
88329W        W56747  12.354  28.036  14.030
88330W        W56748  28.074  15.768   2.265
88331W        W56749  21.615  31.971   0.284
88332W        W56750   6.254  39.343  12.904
88333W        W56751   2.737  43.475  14.461
88334W        W56752  22.581   6.735   1.412
88335W        W56753  21.201   3.869   2.888
88336W        W56754  34.475  13.733  13.408
88337W        W56755  14.733  17.119   4.305
88338W        W56756  19.224  16.277  11.041
88339W        W56757  43.287  13.346   2.859
88340W        W56758  10.853  20.154  13.451
88341W        W56759  30.510  28.495  13.868
88342W        W56760  29.928  29.148   4.804
88343W        W56761   2.831  32.047  11.461
88344W        W56762  22.740  20.571   3.638
88345W        W56763  37.456  12.833   4.199
88346W        W56764  12.729  26.575  10.096
88347W        W56765   6.309  18.134   2.892
88348W        W56766   8.391  40.038  14.005
88349W        W56767  40.913  24.017  11.962
88350W        W56768  28.640  28.953  13.392
88351W        W56769   3.904  24.504   2.714
88352W        W56770   6.918  22.187   3.750
88353W        W56771  26.198  14.825   2.802
88354W        W56772   8.694  32.041  13.856
88355W        W56773   7.233  10.307  11.411
88356W        W56774  36.973   3.299  12.400
88357W        W56775  17.256  30.436   3.809
88358W        W56776  28.159  12.225   3.145
88359W        W56777  31.609  30.591   0.470
88360W        W56778  33.487  30.967   4.285
88361W        W56779  15.121   6.880  12.870
88362W        W56780  21.097  40.478   4.257
88363W        W56781  16.695  17.143   2.290
88364W        W56782   7.854   8.320   4.722
88365W        W56783  43.319  31.134   0.812
88366W        W56784  26.189  22.605  10.416
88367W        W56785   8.885  22.174  13.351
88368W        W56786  14.276   7.679   1.739
88369W        W56787   5.875   8.231   4.789
88370W        W56788  21.624  11.789   2.822
88371W        W56789   1.809  40.885   4.133
88372W        W56790  36.017  32.117  12.001
88373W        W56791  28.535  27.114   3.686
88374W        W56792  13.811  21.642  14.767
88375W        W56793   7.833  33.401  14.469
88376W        W56794  42.423  29.162   4.713
88377W        W56795  18.103  24.148  11.004
88378W        W56796  11.631  38.844   5.244
88379W        W56797  36.019  27.156  13.468
88380W        W56798  18.152  37.966  11.381
88381W        W56799   0.295  28.540  12.352
88382W        W56800   7.813  36.592  14.889
88383W        W56801  24.130  10.209   3.851
88384W        W56802   6.851  11.248   0.337
88385W        W56803  13.668  39.501   1.816
88386W        W56804  27.450  21.576   1.759
88387W        W56805  20.749  34.960   2.401
88388W        W56806   1.896  44.273   0.330
88389W        W56807  42.425  43.773  13.509
88390W        W56808  14.804  37.886  11.983
88391W        W56809  25.525  38.073  14.484
88392W        W56810  22.242  24.678  10.159
88393W        W56811  21.159   6.415   1.316
88394W        W56812   8.178  23.671   1.737
88395W        W56813  33.561  43.864   3.785
88396W        W56814  26.611   4.320   3.641
88397W        W56815   9.751  26.473  12.397
88398W        W56816  29.056   1.442   4.706
88399W        W56817  24.682   3.894   2.665
88400W        W56818  43.899  19.080   4.330
88401W        W56819   4.928  13.189   4.797
88402W        W56820   8.813  29.646   1.239
88403W        W56821  39.512   2.958   0.304
88404W        W56822  23.622   1.829  13.507
88405W        W56823  31.593   6.767  11.889
88406W        W56824  35.926  33.970   3.653
88407W        W56825  32.984  41.424   2.887
88408W        W56826  17.161  38.331   0.790
88409W        W56827  23.687  36.937   2.847
88410W        W56828  10.634  30.648   2.899
88411W        W56829   9.243  32.010  10.514
88412W        W56830  33.952   0.380   3.723
88413W        W56831  37.997   5.837   0.927
88414W        W56832  33.435  35.909   3.862
88415W        W56833  16.790   4.449   2.895
88416W        W56834   3.402  43.487   1.867
88417W        W56835   8.681  42.859  14.023
88418W        W56836  20.759  36.425  14.014
88419W        W56837  34.589  29.154  13.441
88420W        W56838   9.805   2.817   1.707
88421W        W56839   9.767  13.285   2.878
88422W        W56840  36.509  41.388   3.314
88423W        W56841  17.654   6.286   2.846
88424W        W56842  26.058  11.272  12.078
88425W        W56843  11.301  26.152  11.508
88426W        W56844  43.312  14.287  13.958
88427W        W56845  21.727   4.723   2.257
88428W        W56846  31.069  15.171  12.953
88429W        W56847  44.363  16.090   4.348
88430W        W56848  14.758  26.161  11.115
88431W        W56849  22.124   2.269  13.023
88432W        W56850  20.558  23.058  11.484
88433W        W56851  11.267   6.893  12.491
88434W        W56852  35.068   6.355  11.072
88435W        W56853   3.919  37.864  12.837
88436W        W56854  37.949   9.158   0.349
88437W        W56855   3.428  22.632   1.829
88438W        W56856  40.365  12.703  14.493
88439W        W56857  43.420  11.622   1.728
88440W        W56858  30.161   3.853   4.671
88441W        W56859  16.281  16.172  11.424
88442W        W56860  35.890  15.165   2.290
88443W        W56861  11.354  29.974   3.743
88444W        W56862  30.157  14.654   1.449
88445W        W56863  32.546  28.677   4.147
88446W        W56864   0.756  32.545   4.310
88447W        W56865  20.700   9.214  10.584
88448W        W56866  40.509  36.993  13.383
88449W        W56867  25.637  41.037  14.464
88450W        W56868  39.370   8.758   0.842
88451W        W56869  28.948  38.002   3.645
88452W        W56870  25.052  19.156  11.106
88453W        W56871  20.218   8.396  14.836
88454W        W56872   9.311  20.698   1.866
88455W        W56873  21.556  44.010   4.623
88456W        W56874  44.347   3.839  12.458
88457W        W56875   1.832  37.502  14.464
88458W        W56876  16.574  33.559   0.956
88459W        W56877  22.054  21.250   1.390
88460W        W56878  25.968  21.520   0.476
88461W        W56879   3.771  40.935  13.342
88462W        W56880  38.968  18.675  10.505
88463W        W56881  40.904  32.951  10.472
88464W        W56882  21.053   7.373  10.151
88465W        W56883  24.544  39.958  13.481
88466W        W56884  42.527  27.458  12.855
88467W        W56885  14.135   4.916  12.037
88468W        W56886  10.357  35.956   0.750
88469W        W56887  37.004  43.019  10.596
88470W        W56888  20.553  32.633  13.887
88471W        W56889  27.504  32.413   4.622
88472W        W56890  33.501  26.069  10.585
88473W        W56891  22.163  33.396   2.230
88474W        W56892  31.423  37.919  14.778
88475W        W56893  11.810   7.763   0.765
88476W        W56894   5.887  44.969  11.993
88477W        W56895  26.609   4.828   4.291
88478W        W56896  31.080  17.279  12.478
88479W        W56897  13.636  19.078  13.508
88480W        W56898  33.018  34.021  11.865
88481W        W56899  37.453  13.222  13.796
88482W        W56900   9.722  30.085   2.881
88483W        W56901  28.949   8.247   9.985
88484W        W56902  25.525   5.727  11.069
88485W        W56903  24.625  37.502  10.933
88486W        W56904  43.929  38.453   0.432
88487W        W56905   8.806  36.875   4.672
88488W        W56906  20.639   8.263  13.041
88489W        W56907  11.145  29.970   1.900
88490W        W56908  39.506  29.947   2.230
88491W        W56909  20.189  19.724   0.847
88492W        W56910  42.400  42.351  14.329
88493W        W56911  21.733  21.062  14.455
88494W        W56912   4.698  17.734   4.690
88495W        W56913  10.288  15.687   0.333
88496W        W56914   5.405  25.970   2.316
88497W        W56915  33.975   2.965   3.809
88498W        W56916  16.227  21.143  12.849
88499W        W56917  37.552  18.088   0.754
88500W        W56918  21.031  15.714   5.276
88501W        W56919  31.631  43.417  14.796
88502W        W56920  24.722  14.690   1.274
88503W        W56921  10.807  40.466  12.535
88504W        W56922  28.656  11.262   4.166
88505W        W56923  14.656   8.268   0.477
88506W        W56924  36.927  33.993   3.281
88507W        W56925  31.408  18.552   0.938
88508W        W56926  43.482  10.770  12.925
88509W        W56927  41.969  24.563  12.344
88510W        W56928   6.300  33.020  12.475
88511W        W56929  11.292  38.960  11.479
88512W        W56930  38.435  38.555   0.356
88513W        W56931  24.223  31.576   4.231
88514W        W56932  18.743  29.995   3.319
88515W        W56933  18.689  40.871   1.376
88516W        W56934  35.899  33.034  14.328
88517W        W56935   9.155  41.371  12.451
88518W        W56936  27.166   2.419  12.492
88519W        W56937  34.118  38.926  13.851
88520W        W56938  26.079  29.085   2.840
88521W        W56939  22.612  17.727   3.732
88522W        W56940  18.136  17.227   4.164
88523W        W56941  10.380  28.540   1.753
88524W        W56942  19.193  40.410  12.441
88525W        W56943  16.698  26.529  10.918
88526W        W56944   0.317  42.302  11.382
88527W        W56945  24.650  40.468   3.167
88528W        W56946  29.086  43.957  14.795
88529W        W56947  18.631   8.298  11.412
88530W        W56948  31.939  25.659   2.215
88531W        W56949  37.562  26.140   4.692
88532W        W56950   9.794  30.085  13.822
88533W        W56951  22.174  39.314   4.182
88534W        W56952  29.548  34.946  11.999
88535W        W56953  27.563   6.896  10.032
88536W        W56954  39.828   9.687   1.838
88537W        W56955  11.138  30.567  10.940
88538W        W56956  14.688   1.384  14.313
88539W        W56957   5.357   6.885   3.197
88540W        W56958  43.848  11.179  14.330
88541W        W56959  22.540  40.858   4.152
88542W        W56960  13.785   6.242  12.877
88543W        W56961  33.416  41.830   2.363
88544W        W56962   7.835   6.780  10.890
88545W        W56963  13.676   3.427   4.283
88546W        W56964  42.297   3.460  12.890
88547W        W56965  18.057  12.194  14.443
88548W        W56966  21.638  21.199  12.479
88549W        W56967  37.351  34.880   4.328
88550W        W56968   7.202   7.258   3.320
88551W        W56969  24.592  15.089   3.820
88552W        W56970   7.291  14.781   2.724
88553W        W56971  43.490  34.377   1.781
88554W        W56972   5.262  18.055  10.990
88555W        W56973   2.318  27.131   0.323
88556W        W56974  19.114  29.142   0.842
88557W        W56975  24.655  27.085  13.481
88558W        W56976  31.145   8.393  13.936
88559W        W56977  17.209  39.537   1.250
88560W        W56978  33.546  34.925   1.435
88561W        W56979  38.830  10.330  11.000
88562W        W56980  39.339   8.808  12.558
88563W        W56981  29.163   7.901  11.098
88564W        W56982  14.146  29.018  11.499
88565W        W56983   4.892  27.539  12.084
88566W        W56984  42.422  15.138   0.810
88567W        W56985  14.602   0.768  14.428
88568W        W56986  16.741   7.186   0.879
88569W        W56987  42.969  43.887  10.452
88570W        W56988  25.490  43.450   3.192
88571W        W56989  37.043  42.462   3.159
88572W        W56990  16.280  10.206   0.804
88573W        W56991  42.961   5.372  10.903
88574W        W56992  23.085   0.750  11.084
88575W        W56993  39.463  44.392  12.884
88576W        W56994  32.597  28.680  14.395
88577W        W56995   2.269   6.251   1.397
88578W        W56996  26.140   2.412   0.321
88579W        W56997  10.762   2.441  10.894
88580W        W56998  42.874  26.191  10.634
88581W        W56999  25.700  38.477  14.993
88582W        W57000   0.489  11.794  11.124
88583W        W57001  21.597  26.687   0.272
88584W        W57002  32.030  43.956  14.940
88585W        W57003  43.844  43.407  10.415
88586W        W57004  33.484  26.967  12.059
88587W        W57005  23.579  24.723  12.991
88588W        W57006  37.882  44.339  12.470
88589W        W57007  11.340  35.914  11.404
88590W        W57008  17.750  19.238  13.972
88591W        W57009  38.439  34.391  13.900
88592W        W57010   1.342  14.740  14.301
88593W        W57011  38.978  42.298   4.323
88594W        W57012  37.944  44.862  14.328
88595W        W57013   2.382  14.114  12.573
88596W        W57014  39.397  36.039  11.939
88597W        W57015  28.487  30.650   1.370
88598W        W57016  44.416  40.997   5.746
88599W        W57017   6.385  25.656  14.293
88600W        W57018  44.823  21.256   5.639
88601W        W57019  29.592   0.456  10.581
88602W        W57020  35.949  21.555  12.001
88603W        W57021  39.406  22.111   4.354
88604W        W57022  21.248  25.497  11.071
88605W        W57023   0.396  23.192  14.029
88606W        W57024  39.426   2.297   1.913
88607W        W57025  16.602  11.817  12.414
88608W        W57026  10.634   5.892  11.940
88609W        W57027  11.272  34.094   4.792
88610W        W57028   9.807   9.207  13.020
88611W        W57029  11.181  37.434  11.923
88612W        W57030   3.937  29.438  11.016
88613W        W57031  35.069  39.341  10.068
88614W        W57032  38.926  22.023   0.299
88615W        W57033  17.067  41.371  10.957
88616W        W57034  39.022  14.326   3.829
88617W        W57035  11.652  36.023   3.182
88618W        W57036  27.670  18.088  13.977
88619W        W57037  29.929  27.087  14.883
88620W        W57038  29.618   8.363   0.321
88621W        W57039  35.869  39.999   1.715
88622W        W57040   8.809  19.156  14.010
88623W        W57041   5.817   8.784  12.065
88624W        W57042  19.766  40.854   3.151
88625W        W57043  40.010  29.066   2.362
88626W        W57044  20.715  29.579  10.439
88627W        W57045   2.961  10.254   2.236
88628W        W57046  40.988  28.628  12.933
88629W        W57047   6.919  39.423  13.329
88630W        W57048  27.971  23.645   2.230
88631W        W57049   5.387  38.478   2.376
88632W        W57050  31.587  11.782  14.019
88633W        W57051  15.662  34.508  13.392
88634W        W57052  44.903  19.040  14.455
88635W        W57053  19.114  25.082  12.506
88636W        W57054   3.369  10.697  10.635
88637W        W57055  36.081  37.028  12.074
88638W        W57056   9.717  44.400  13.929
88639W        W57057  12.304  21.190   5.206
88640W        W57058  35.984  34.607   2.284
88641W        W57059  22.060  28.659  14.022
88642W        W57060  35.928  28.936  13.334
88643W        W57061  40.482   3.746  10.472
88644W        W57062   5.822  29.172  14.899
88645W        W57063   7.752  24.227  13.435
88646W        W57064   0.798  12.822   0.319
88647W        W57065  28.562  42.981   1.886
88648W        W57066  34.924  19.741   2.347
88649W        W57067  27.642  10.356   5.215
88650W        W57068   5.797  26.604   4.600
88651W        W57069   5.438   4.824  11.866
88652W        W57070  38.959  26.953   3.855
88653W        W57071  42.827  36.537  14.958
88654W        W57072   4.812  41.035   4.726
88655W        W57073   9.187  42.406   3.373
88656W        W57074  37.867  28.595  13.958
88657W        W57075  18.100  27.154  14.804
88658W        W57076  43.331  43.410   0.764
88659W        W57077  42.886  41.043  10.566
88660W        W57078  31.988  38.894  14.315
88661W        W57079  30.421  30.590   2.274
88662W        W57080  15.703  11.662  11.452
88663W        W57081   5.799   3.847   4.351
88664W        W57082  26.992  17.125  12.458
88665W        W57083  22.114  43.349   3.694
88666W        W57084  13.280   8.387   3.249
88667W        W57085  43.474  42.005   3.795
88668W        W57086  21.049  15.086   4.799
88669W        W57087  18.728  35.408   4.666
88670W        W57088  25.074   8.219   0.306
88671W        W57089  19.101  15.279   1.725
88672W        W57090  13.644  31.912   3.638
88673W        W57091  43.865  23.525   4.757
88674W        W57092  18.557  43.410  11.928
88675W        W57093  14.668  11.706   3.838
88676W        W57094  19.586  14.222  14.362
88677W        W57095   0.400   0.469   3.364
88678W        W57096   7.724  39.371  14.844
88679W        W57097   2.325  21.621  13.360
88680W        W57098  28.571   5.869  11.508
88681W        W57099  33.588  37.535   3.804
88682W        W57100  38.985  37.539   1.760
88683W        W57101  21.728  40.821  14.419
88684W        W57102   4.372  18.642  10.521
88685W        W57103  43.289  41.535  14.788
88686W        W57104  35.554  27.171  14.016
88687W        W57105  41.339  29.467   0.253
88688W        W57106  24.691   3.360  12.013
88689W        W57107  24.121  29.506   1.218
88690W        W57108  44.997  43.783  14.457
88691W        W57109   1.294   0.481   0.419
88692W        W57110  23.673   7.322   4.209
88693W        W57111  33.002  32.565  13.358
88694W        W57112  35.407  43.457   1.241
88695W        W57113   4.433  40.437   0.907
88696W        W57114  43.917  39.468   2.183
88697W        W57115  44.890  39.065  10.477
88698W        W57116  27.955  22.151  14.360
88699W        W57117   6.192  19.250  14.397
88700W        W57118  18.126  41.909  14.281
88701W        W57119  35.953  20.668  14.335
88702W        W57120  14.681  13.288  14.832
88703W        W57121  12.330  12.824  14.327
88704W        W57122   5.252  12.117  12.399
88705W        W57123  37.086  32.917   3.262
88706W        W57124  14.717  10.293  10.092
88707W        W57125   1.461  36.992   1.781
88708W        W57126  19.716   4.880  13.368
88709W        W57127  34.925  42.310   1.237
88710W        W57128   9.693  42.947  11.590
88711W        W57129  17.118   3.838  12.537
88712W        W57130   5.807   5.366  12.342
88713W        W57131  33.989  24.643   3.324
88714W        W57132  44.424  11.203   5.091
88715W        W57133   6.714  42.406   3.756
88716W        W57134  10.775  18.154  13.448
88717W        W57135  17.601  25.546   3.219
88718W        W57136  30.637   7.243   4.642
88719W        W57137   1.301  39.345   3.871
88720W        W57138   4.920  26.168   9.974
88721W        W57139  24.065  40.942   3.352
88722W        W57140  28.109  27.121   3.865
88723W        W57141   8.839  13.781   0.803
88724W        W57142   8.369  20.060  10.960
88725W        W57143  11.196   8.226  11.531
88726W        W57144  38.512  30.155   3.865
88727W        W57145  10.875  37.433  13.855
88728W        W57146  21.119  40.379   4.773
88729W        W57147  21.697  33.927   0.943
88730W        W57148  44.270   9.310  10.554
88731W        W57149  11.744  42.781  13.815
88732W        W57150   3.891   4.327  14.888
88733W        W57151  13.678  13.625   0.796
88734W        W57152  25.968  22.042  11.036
88735W        W57153  33.063  22.006   3.756
88736W        W57154  28.499  12.756   0.298
88737W        W57155  23.599  19.763  11.989
88738W        W57156  10.147  20.090   3.782
88739W        W57157   0.292  27.191  13.946
88740W        W57158  33.522  39.062  13.882
88741W        W57159  24.137  39.376   4.265
88742W        W57160  11.134   5.794   2.379
88743W        W57161  27.491  32.515  12.570
88744W        W57162   0.301  35.069  12.907
88745W        W57163   7.311  16.619   3.205
88746W        W57164   5.890  34.470  12.021
88747W        W57165  15.147   4.920   0.897
88748W        W57166  34.114  17.771  12.430
88749W        W57167  24.051  30.970  12.915
88750W        W57168  37.947  40.358  10.451
88751W        W57169  36.893  21.264  10.920
88752W        W57170  32.548  19.049   0.959
88753W        W57171  35.597  20.740  12.481
88754W        W57172  38.423  39.532   3.370
88755W        W57173  11.836   0.784  10.523
88756W        W57174  23.570  15.672   2.337
88757W        W57175  32.936   8.791   3.175
88758W        W57176  37.408  42.385  10.453
88759W        W57177  35.036  33.937   1.418
88760W        W57178  22.096  44.399  14.432
88761W        W57179  37.376  33.421   2.680
88762W        W57180  23.172  14.795   0.894
88763W        W57181  37.362  34.865  11.569
88764W        W57182  27.561  34.381  10.547
88765W        W57183  35.521  40.414  13.062
88766W        W57184   7.739  44.965   4.331
88767W        W57185  33.995  44.949   3.152
88768W        W57186   2.420  20.573   1.925
88769W        W57187  31.606  16.593   3.177
88770W        W57188  27.130  17.308   0.852
88771W        W57189  31.036  31.064   1.388
88772W        W57190  13.153  40.494   0.789
88773W        W57191  24.671   3.388  11.522
88774W        W57192  41.490  27.586   1.451
88775W        W57193   2.777  33.607   2.718
88776W        W57194  37.362   6.772  10.451
88777W        W57195   4.412  15.610   3.238
88778W        W57196  25.532   5.765   1.739
88779W        W57197  24.693   9.196  12.354
88780W        W57198  25.556   1.395  11.556
88781W        W57199   4.776  44.419   5.296
88782W        W57200  38.937  20.177  14.929
88783W        W57201  24.002  19.720   0.263
88784W        W57202   3.234  41.464  13.446
88785W        W57203  43.359  29.956   3.169
88786W        W57204  41.001  28.519  12.021
88787W        W57205  41.520  32.119   2.368
88788W        W57206  10.325   3.238  10.439
88789W        W57207  35.016  25.070   3.383
88790W        W57208  29.076  42.340  14.380
88791W        W57209   0.823  27.497  12.857
88792W        W57210   1.818   0.874   2.207
88793W        W57211   4.767   4.889   0.249
88794W        W57212   0.487  22.719   2.778
88795W        W57213  31.467  35.405   4.220
88796W        W57214  16.236  16.112  13.830
88797W        W57215   1.291  13.795   2.830
88798W        W57216  21.096  26.004   4.175
88799W        W57217  20.720  34.889   3.338
88800W        W57218  20.250   3.842   4.114
88801W        W57219  41.018  34.028   2.178
88802W        W57220  25.114  19.675  13.045
88803W        W57221  17.718   4.900  14.005
88804W        W57222  38.552  44.428  13.378
88805W        W57223  44.441  21.718  11.893
88806W        W57224  43.875   2.865  12.854
88807W        W57225  39.950  34.520   0.950
88808W        W57226  22.126  24.524  14.837
88809W        W57227  41.020   0.404   4.182
88810W        W57228  22.746   8.831   4.148
88811W        W57229  14.738  38.376  13.018
88812W        W57230  24.486  37.466  12.564
88813W        W57231  27.193   0.889   9.979
88814W        W57232   8.897   5.844   0.849
88815W        W57233   2.388   7.362   2.228
88816W        W57234  38.363   5.415  13.475
88817W        W57235   6.424  44.801   0.740
88818W        W57236  31.571  38.933   1.709
88819W        W57237   1.734   6.425   2.665
88820W        W57238   1.950  25.050   4.727
88821W        W57239  25.134  39.017  12.491
88822W        W57240  23.497  24.146  13.801
88823W        W57241  11.322  25.661   3.340
88824W        W57242  27.998  15.221  11.926
88825W        W57243   3.227  42.424   3.147
88826W        W57244  38.538  15.181   1.282
88827W        W57245  26.626  26.674   4.219
88828W        W57246  32.114  29.110   0.922
88829W        W57247  14.224  31.590   3.382
88830W        W57248  43.948  32.601   0.945
88831W        W57249   9.781   1.292   2.198
88832W        W57250  44.788  35.557  11.553
88833W        W57251  17.252  13.162   1.371
88834W        W57252  21.213  20.083   2.877
88835W        W57253   9.368   0.277   0.946
88836W        W57254  19.180  11.730   3.843
88837W        W57255   6.195   2.858   3.765
88838W        W57256  42.877  18.750  14.304
88839W        W57257  36.417   4.857  14.820
88840W        W57258  20.545  31.542  13.447
88841W        W57259  28.978  11.638  12.484
88842W        W57260  20.733  39.904   2.378
88843W        W57261  10.845  40.986   3.246
88844W        W57262   5.859   8.257  13.320
88845W        W57263  14.790  27.994  14.897
88846W        W57264  12.647  27.687  10.562
88847W        W57265   0.751   9.290  13.910
88848W        W57266   6.198  35.400  12.939
88849W        W57267  29.970   3.841   4.188
88850W        W57268   1.372   4.382   2.688
88851W        W57269  26.586   1.753   3.658
88852W        W57270  17.644   2.837   1.281
88853W        W57271  35.942  17.558  10.528
88854W        W57272  10.706  24.123  14.791
88855W        W57273  26.125  21.185   2.733
88856W        W57274  26.108  40.920  11.864
88857W        W57275  36.572  25.007  11.980
88858W        W57276  39.461  36.066  13.500
88859W        W57277  20.727  25.638   0.304
88860W        W57278  20.144  35.371   3.659
88861W        W57279  21.194  38.919  12.507
88862W        W57280  36.574  13.790  12.481
88863W        W57281   5.365  42.951  11.856
88864W        W57282  24.150  14.613   3.281
88865W        W57283  23.734  19.754   1.705
88866W        W57284  16.613  42.798   5.191
88867W        W57285  43.297   3.456  10.555
88868W        W57286  21.527  11.666   2.398
88869W        W57287  35.940  40.318   3.162
88870W        W57288   1.256   2.291  13.516
88871W        W57289   1.295  32.042  12.492
88872W        W57290  13.130   7.855   1.803
88873W        W57291   4.398  36.586   0.264
88874W        W57292  35.997  34.074  10.926
88875W        W57293   5.431  41.957   2.268
88876W        W57294  31.132  44.977  14.924
88877W        W57295  28.676  10.724  10.430
88878W        W57296  19.584  30.433  12.911
88879W        W57297  35.583  31.571  11.443
88880W        W57298  13.330  38.976  10.093
88881W        W57299  37.832  36.471   0.912
88882W        W57300  11.747  22.085  12.825
88883W        W57301  38.074  15.125  11.580
88884W        W57302  30.630  22.730   4.650
88885W        W57303   4.806  16.699  11.390
88886W        W57304  38.956  37.992  10.534
88887W        W57305  32.887  25.517  13.419
88888W        W57306  31.523  21.057  11.430
88889W        W57307  33.973  33.594  14.779
88890W        W57308   1.252  44.353   0.754
88891W        W57309  17.783   1.896  12.507
88892W        W57310  17.184  26.500  12.446
88893W        W57311  24.010  22.079   2.799
88894W        W57312  33.939  40.975  11.417
88895W        W57313  36.395  39.874   3.837
88896W        W57314   3.262   2.840  11.415
88897W        W57315  42.959  28.665   2.848
88898W        W57316  19.779  33.405   1.736
88899W        W57317  28.005  28.477   4.352
88900W        W57318  30.002   5.392  11.005
88901W        W57319  44.368  26.014   1.259
88902W        W57320  22.689  32.036   5.241
88903W        W57321  27.471  14.801   1.910
88904W        W57322  20.639  42.327  12.511
88905W        W57323  22.124   5.841  13.486
88906W        W57324   2.747   2.768  12.395
88907W        W57325  43.449  41.312   3.647
88908W        W57326  20.764  11.170   2.700
88909W        W57327  37.854  28.978  11.546
88910W        W57328  30.052   8.770   2.355
88911W        W57329  29.105  36.846   3.702
88912W        W57330  17.781  31.513  11.498
88913W        W57331   4.903  21.031   2.205
88914W        W57332   7.407  25.152   3.235
88915W        W57333  17.733  16.167   4.618
88916W        W57334   6.801   9.177   1.838
88917W        W57335  28.018  17.773   3.732
88918W        W57336  28.109   0.430  11.464
88919W        W57337   9.333  13.709   0.893
88920W        W57338  36.000  17.664  11.124
88921W        W57339   1.298  12.230   0.818
88922W        W57340   4.718  38.988   3.865
88923W        W57341  16.278  12.649   0.816
88924W        W57342   0.257  39.014   2.668
88925W        W57343  35.543  27.024   1.215
88926W        W57344  29.475   3.320   5.262
88927W        W57345  19.771  37.486   3.846
88928W        W57346  43.926  37.434  14.507
88929W        W57347  37.462  29.923   2.701
88930W        W57348   2.313  35.517  14.979
88931W        W57349  23.116  35.089  10.926
88932W        W57350  26.535  17.579   4.643
88933W        W57351  16.225  28.080  13.030
88934W        W57352  44.487  38.835   2.875
88935W        W57353  18.143  34.014   1.764
88936W        W57354  16.582  16.269  12.957
88937W        W57355  31.532  19.584   3.276
88938W        W57356  32.108  42.828  12.457
88939W        W57357  37.346  39.361   1.417
88940W        W57358   7.826   1.810  10.948
88941W        W57359  23.084   8.274   0.917
88942W        W57360  17.205  15.579  12.461
88943W        W57361   5.706  44.354  10.554
88944W        W57362   2.239  25.566   3.827
88945W        W57363  34.601   5.740   3.215
88946W        W57364  18.111  33.086   4.353
88947W        W57365  12.234   4.386   2.725
88948W        W57366  30.416  38.972  12.000
88949W        W57367  10.727  16.074   2.668
88950W        W57368  12.772  39.022   2.860
88951W        W57369   1.284   1.311   0.750
88952W        W57370   2.313  14.163   2.388
88953W        W57371  34.992  29.972  10.545
88954W        W57372   1.462  31.614   0.906
88955W        W57373  42.903  10.731  10.471
88956W        W57374  26.147  28.131   0.773
88957W        W57375  25.558   3.421  11.448
88958W        W57376  11.801  13.787  13.977
88959W        W57377  33.094   2.400  13.836
88960W        W57378  11.135   3.934  10.927
88961W        W57379  27.034  36.858  11.396
88962W        W57380  24.149  36.517  11.603
88963W        W57381  42.367  21.535  11.860
88964W        W57382  23.078   4.412  12.944
88965W        W57383  25.085  14.751   1.881
88966W        W57384  42.321  10.795   1.287
88967W        W57385  40.476  22.024   1.720
88968W        W57386  18.727  36.028  13.541
88969W        W57387  41.910  33.008   4.188
88970W        W57388   3.795  16.138   0.244
88971W        W57389  17.152  35.008   5.292
88972W        W57390  34.997  38.851   4.603
88973W        W57391   2.471  32.911   0.287
88974W        W57392  39.864   4.722   3.654
88975W        W57393  41.848  12.196   2.885
88976W        W57394  37.356  36.499   0.273
88977W        W57395  19.223  27.104  11.062
88978W        W57396  27.650  24.078  12.412
88979W        W57397   5.755  12.211  12.018
88980W        W57398  19.103  10.770  11.496
88981W        W57399  22.224  36.842  13.509
88982W        W57400  32.042   4.773  13.843
88983W        W57401   5.393  22.675   1.278
88984W        W57402  18.698  11.626  12.538
88985W        W57403  41.923   1.757  12.033
88986W        W57404  30.099  37.455   0.403
88987W        W57405  21.171   4.809   0.738
88988W        W57406   0.491  16.621  12.470
88989W        W57407  21.536  37.941   5.094
88990W        W57408  27.649  36.917  14.020
88991W        W57409  10.765  32.067  10.635
88992W        W57410  22.613  35.016  11.382
88993W        W57411  17.254   4.798  13.038
88994W        W57412  18.632  37.370   1.229
88995W        W57413  37.436   3.409  10.645
88996W        W57414  24.093  27.194   1.935
88997W        W57415  33.535  29.110  11.457
88998W        W57416  33.005  10.270  12.532
88999W        W57417  16.624  18.254   0.795
89000W        W57418  38.511  16.106  10.434
89001W        W57419  29.522   7.815  13.495
89002W        W57420  38.923  31.113   0.481
89003W        W57421  41.487  13.242  11.602
89004W        W57422  13.257  42.422  12.051
89005W        W57423   2.778  13.803   4.207
89006W        W57424  22.053  43.784  14.799
89007W        W57425   5.403  33.475  13.030
89008W        W57426  16.715   6.275  11.373
89009W        W57427  32.106  25.023  11.112
89010W        W57428   1.892  12.183  12.871
89011W        W57429   6.724  40.877   4.348
89012W        W57430  13.127  44.354   3.335
89013W        W57431  30.089  37.075   3.298
89014W        W57432   2.249  23.586  10.558
89015W        W57433  38.010  42.484  12.476
89016W        W57434  40.986  16.297   0.853
89017W        W57435   1.915  21.718   4.134
89018W        W57436  24.579  38.460   4.606
89019W        W57437   0.456  40.983   2.419
89020W        W57438  32.453  34.370   0.946
89021W        W57439  20.251  22.655   3.739
89022W        W57440  41.396  36.495   1.283
89023W        W57441  36.922  27.044   0.749
89024W        W57442  23.708  38.899  12.924
89025W        W57443  20.135  33.618   4.277
89026W        W57444  16.213  12.684   1.821
89027W        W57445  14.159  10.312   2.277
89028W        W57446  43.775  16.598  10.502
89029W        W57447  24.196  42.862  14.506
89030W        W57448   6.679  37.908  12.365
89031W        W57449  21.245  15.635   4.120
89032W        W57450  34.604  35.432  11.465
89033W        W57451  42.996  43.913  12.059
89034W        W57452   5.711  25.644   3.244
89035W        W57453  33.917  31.584  11.461
89036W        W57454  30.448  33.477   1.423
89037W        W57455  37.900   5.902   3.807
89038W        W57456  21.132  25.082  11.612
89039W        W57457  28.632  15.626   2.687
89040W        W57458   4.327  38.073  12.537
89041W        W57459  42.871   8.720   2.316
89042W        W57460  20.765  31.090   4.332
89043W        W57461  26.985  21.554   2.821
89044W        W57462   8.810   8.762  14.030
89045W        W57463  10.808  39.450  11.113
89046W        W57464  28.438  17.562  14.406
89047W        W57465   9.719  31.501   0.338
89048W        W57466   2.361  44.845  12.398
89049W        W57467  27.581  35.410  11.437
89050W        W57468  32.552   1.443   0.847
89051W        W57469   7.880   9.648   3.198
89052W        W57470  41.909  21.155  11.929
89053W        W57471   1.781   9.353   3.157
89054W        W57472  29.450   2.273  14.463
89055W        W57473  10.728   6.420   1.345
89056W        W57474  11.161  24.164  10.630
89057W        W57475  35.591  24.990  14.831
89058W        W57476  38.023   2.407  12.384
89059W        W57477  23.131   7.213  14.012
89060W        W57478   9.798  23.489  11.531
89061W        W57479  22.623  24.181   3.300
89062W        W57480  21.558   0.414   3.269
89063W        W57481  42.437  41.932  13.921
89064W        W57482  14.302  12.620   0.309
89065W        W57483  28.123  36.548   3.730
89066W        W57484  23.705  31.934   0.962
89067W        W57485   1.243  19.744  12.089
89068W        W57486  25.577  30.438  13.792
89069W        W57487  15.634  16.754   4.643
89070W        W57488  33.041  38.402  13.464
89071W        W57489  15.210  38.401   2.412
89072W        W57490  19.603  15.749  11.440
89073W        W57491   7.832  37.906  12.941
89074W        W57492  17.266   7.348  12.016
89075W        W57493  20.157  36.538  10.476
89076W        W57494  38.568  43.983  12.479
89077W        W57495  31.521  30.645   2.824
89078W        W57496   1.799  29.535   0.466
89079W        W57497  24.538   5.804   4.617
89080W        W57498  44.380  44.821  11.594
89081W        W57499  10.695  42.494   2.315
89082W        W57500  42.431  22.515   0.469
89083W        W57501   9.205  22.505  11.970
89084W        W57502  39.979  40.856  12.415
89085W        W57503  12.212  19.550  14.884
89086W        W57504  21.237   4.835  12.464
89087W        W57505  30.467  33.887   4.730
89088W        W57506  27.567   8.395   2.314
89089W        W57507  10.332  21.625   4.694
89090W        W57508  25.121  28.001  13.920
89091W        W57509  20.251  44.944  11.059
89092W        W57510  44.344  38.833   3.702
89093W        W57511  14.659  29.435  13.017
89094W        W57512  43.794  35.509  12.448
89095W        W57513   6.416  26.005  13.862
89096W        W57514  28.462  26.550  14.376
89097W        W57515  29.514   9.709   3.214
89098W        W57516   7.188  30.444  12.490
89099W        W57517  20.083  18.109   5.171
89100W        W57518  44.844  29.603  10.611
89101W        W57519  12.820  11.840  14.028
89102W        W57520  28.623   4.939   1.832
89103W        W57521  15.582   0.941  12.363
89104W        W57522  18.116  32.982  13.050
89105W        W57523  27.469  36.972   4.131
89106W        W57524  21.648   7.848   3.228
89107W        W57525  24.674   4.734   9.932
89108W        W57526  25.546  26.698  10.149
89109W        W57527   1.278  22.575  12.547
89110W        W57528  21.758  36.442  11.427
89111W        W57529  25.161   8.752  14.816
89112W        W57530  41.984  10.145  12.930
89113W        W57531  16.719   6.757   5.258
89114W        W57532  26.978  24.554   2.419
89115W        W57533  39.949  40.876  10.636
89116W        W57534  38.021  21.556  14.966
89117W        W57535   2.917  38.064  11.093
89118W        W57536  14.768  12.773  13.357
89119W        W57537  38.949  42.398   4.674
89120W        W57538  39.837  36.973   4.235
89121W        W57539   0.924  37.038   3.754
89122W        W57540   1.795  18.600  14.009
89123W        W57541  40.974  12.152  12.488
89124W        W57542  38.470  11.359   1.241
89125W        W57543   7.393  28.471  14.820
89126W        W57544  35.013  22.023   2.395
89127W        W57545  15.749  44.879  14.381
89128W        W57546  11.829  35.892   0.417
89129W        W57547  17.731  18.123  12.991
89130W        W57548  36.999   1.405  10.566
89131W        W57549  19.088  14.146   1.845
89132W        W57550  44.936  42.847   3.630
89133W        W57551  37.468  11.730   2.313
89134W        W57552  18.086  25.104  13.049
89135W        W57553  19.187  26.032  14.377
89136W        W57554   8.362  32.962  14.447
89137W        W57555  19.670  17.583  11.458
89138W        W57556   9.676  11.850   0.833
89139W        W57557  29.663  36.072  12.847
89140W        W57558  43.473  39.970  14.509
89141W        W57559  34.453   6.273  12.936
89142W        W57560  37.988  43.312   3.828
89143W        W57561   7.217  20.066   2.201
89144W        W57562  22.176  25.585   0.474
89145W        W57563  24.010  38.826   2.843
89146W        W57564  41.863  26.093  11.906
89147W        W57565  22.658  10.267   4.640
89148W        W57566  44.390  38.002  11.059
89149W        W57567  17.618   1.907  14.001
89150W        W57568  17.631   0.418   1.759
89151W        W57569  37.336  36.962  12.472
89152W        W57570  19.742  13.691   0.753
89153W        W57571  19.257   7.860   2.734
89154W        W57572  21.242  13.621  10.487
89155W        W57573   5.926  34.414   0.281
89156W        W57574  23.169  32.547  14.936
89157W        W57575  29.031  35.420  13.531
89158W        W57576  44.791  12.143  14.368
89159W        W57577   1.856  16.666   4.695
89160W        W57578  42.881  27.617   4.122
89161W        W57579  43.978  32.119   0.447
89162W        W57580  36.069  39.042   0.766
89163W        W57581  34.080   1.787  13.505
89164W        W57582  34.960   4.345   1.285
89165W        W57583  34.925  28.561   2.858
89166W        W57584  17.272  10.380   1.418
89167W        W57585  40.927  44.264  14.511
89168W        W57586  10.179  41.024  14.760
89169W        W57587  15.288  18.634  10.447
89170W        W57588  13.774  17.278  14.847
89171W        W57589  33.889   7.187   1.341
89172W        W57590   9.266   1.774  14.309
89173W        W57591  12.244  43.923   0.764
89174W        W57592  29.150   5.875   3.693
89175W        W57593  34.503  38.010  12.034
89176W        W57594  20.174  37.508  10.040
89177W        W57595  10.359   2.740  14.879
89178W        W57596  43.017  20.226   2.902
89179W        W57597   5.432  35.932   0.329
89180W        W57598  36.541  26.123  11.116
89181W        W57599  37.013   1.446   4.319
89182W        W57600  16.301  43.393   4.651
89183W        W57601   2.727  17.282  12.495
89184W        W57602  36.425  33.041  13.442
89185W        W57603  40.303  19.285  11.562
89186W        W57604   1.850  15.775   4.264
89187W        W57605  34.944   3.941   0.306
89188W        W57606  24.179  13.818  10.573
89189W        W57607  29.494   3.773   2.279
89190W        W57608   6.895   7.704   4.164
89191W        W57609  15.248   3.744   5.317
89192W        W57610  19.198  15.620   0.382
89193W        W57611  35.903  19.114  12.076
89194W        W57612   5.702  29.080  13.832
89195W        W57613  22.227  28.967  14.275
89196W        W57614  29.438  25.168  10.147
89197W        W57615  32.617   7.398   1.753
89198W        W57616   3.343  15.220   0.474
89199W        W57617  31.004  20.121   0.270
89200W        W57618  10.697  43.784   1.928
89201W        W57619  42.020  35.966   4.303
89202W        W57620  33.916   9.809  11.503
89203W        W57621   0.839  26.954   1.871
89204W        W57622  10.865  18.097   2.182
89205W        W57623  20.617  14.744  11.953
89206W        W57624  40.414  44.348   2.413
89207W        W57625   3.236  43.365  10.444
89208W        W57626  21.552  36.937   0.441
89209W        W57627   8.657  11.751   0.961
89210W        W57628  37.502   7.790   3.378
89211W        W57629  19.580   0.984  13.469
89212W        W57630  24.524  24.642  13.402
89213W        W57631   9.854  24.975  10.461
89214W        W57632   6.883  34.582  13.824
89215W        W57633  18.701  43.347  14.479
89216W        W57634  16.312  37.005   1.248
89217W        W57635  18.610  21.135  12.848
89218W        W57636  10.378  21.241  10.901
89219W        W57637  34.439  17.073  13.344
89220W        W57638   1.733  20.578  13.480
89221W        W57639  37.502  32.461   1.740
89222W        W57640  17.653   2.431  11.410
89223W        W57641  15.250  28.936  10.534
89224W        W57642   3.800  17.607   3.202
89225W        W57643  13.646   9.212   0.424
89226W        W57644  27.482  37.388   2.295
89227W        W57645  37.953  34.487   4.351
89228W        W57646   7.674  17.062  12.846
89229W        W57647   9.796  36.068  12.094
89230W        W57648  14.173  35.890   2.304
89231W        W57649   8.222  13.251  11.127
89232W        W57650  16.118  42.955  13.001
89233W        W57651   9.643  36.535   2.816
89234W        W57652  44.336   0.940  10.889
89235W        W57653  10.718   5.200   4.273
89236W        W57654  28.458   6.275   0.942
89237W        W57655  24.551  27.646   3.325
89238W        W57656  17.238  24.143  13.852
89239W        W57657  35.486   4.417  14.441
89240W        W57658  42.801  15.127  11.957
89241W        W57659   6.191  33.431   4.609
89242W        W57660  41.383  43.435  10.408
89243W        W57661  43.412  22.612  14.383
89244W        W57662  18.144  42.874   1.764
89245W        W57663  24.165  25.159   1.743
89246W        W57664  17.576   6.907   3.218
89247W        W57665   4.813  34.537  14.785
89248W        W57666  30.151  41.823  14.027
89249W        W57667  19.088  31.953  12.040
89250W        W57668  26.993   5.784   1.407
89251W        W57669  44.396  32.481   3.259
89252W        W57670  19.060  10.723   0.966
89253W        W57671  33.528  27.446   1.447
89254W        W57672  36.984  29.017  11.069
89255W        W57673  17.220  20.763  12.070
89256W        W57674  43.858  32.048   3.730
89257W        W57675  27.486  14.211   4.651
89258W        W57676  28.128  19.554  11.508
89259W        W57677  10.155  31.101  14.378
89260W        W57678  16.146  13.790   1.880
89261W        W57679  44.835  10.636  10.552
89262W        W57680  16.141  38.008   1.916
89263W        W57681  37.873  42.978  13.862
89264W        W57682   2.432  33.105  13.958
89265W        W57683   2.253  33.998   4.755
89266W        W57684  38.932  17.727  10.638
89267W        W57685  19.710  35.497   1.889
89268W        W57686  35.050  34.924  11.379
89269W        W57687  16.633  32.035  13.311
89270W        W57688  27.547  18.752   0.331
89271W        W57689  32.464  39.519   2.706
89272W        W57690  15.086  36.524  10.431
89273W        W57691  16.689  19.160   3.782
89274W        W57692  40.848  29.457   0.476
89275W        W57693   9.324  11.865  12.085
89276W        W57694  42.976   2.270   2.766
89277W        W57695  20.118  31.970  11.436
89278W        W57696  23.049  14.208   3.662
89279W        W57697   1.915   7.718   0.370
89280W        W57698  25.170  36.524  11.063
89281W        W57699  30.644  18.088  12.997
89282W        W57700  18.268   2.362   2.814
89283W        W57701   9.744  35.412  13.500
89284W        W57702  29.166  32.983   0.879
89285W        W57703  11.231  17.109  11.429
89286W        W57704  16.168  25.066   3.330
89287W        W57705  20.653  38.035   1.390
89288W        W57706  38.450   7.385   2.373
89289W        W57707   7.277  41.809   3.646
89290W        W57708  35.537  23.667   4.296
89291W        W57709  18.065  25.484   2.394
89292W        W57710  40.514  20.103  13.972
89293W        W57711  42.992  22.547   1.346
89294W        W57712   2.425   1.971  13.877
89295W        W57713  31.627   4.757  11.422
89296W        W57714   5.816   4.772   1.282
89297W        W57715  38.069  21.066   2.364
89298W        W57716  17.275  14.260   0.273
89299W        W57717  21.246  36.448  10.475
89300W        W57718  42.414  20.666  10.599
89301W        W57719  22.181   0.342   3.699
89302W        W57720  14.606  43.341  13.935
89303W        W57721   3.890  32.906   0.938
89304W        W57722  29.459  36.938  10.598
89305W        W57723  38.384  39.858   4.245
89306W        W57724  16.793  22.633  10.928
89307W        W57725  27.130   7.366  12.548
89308W        W57726  34.450  26.523  13.425
89309W        W57727  33.983  13.624   3.869
89310W        W57728   3.344  44.476  13.951
89311W        W57729  34.930   0.978  13.473
89312W        W57730  25.495  34.482   1.218
89313W        W57731   0.396  19.757  14.343
89314W        W57732  10.268   1.315   3.793
89315W        W57733  31.642  40.315   4.205
89316W        W57734   7.732  23.996  11.101
89317W        W57735  28.547  34.108  14.978
89318W        W57736  18.769   1.908   1.334
89319W        W57737   2.233   7.227  12.027
89320W        W57738  42.004   9.351  14.783
89321W        W57739  11.651   8.861   4.629
89322W        W57740  29.003   3.793  13.814
89323W        W57741   1.430  27.574  12.571
89324W        W57742  26.013  30.051  14.509
89325W        W57743   2.813  33.117   3.324
89326W        W57744  29.097  14.780  12.363
89327W        W57745  18.735   6.325  10.533
89328W        W57746  30.921  10.149   1.827
89329W        W57747  33.437  39.433   3.189
89330W        W57748   5.362   2.873   3.668
89331W        W57749  35.947  24.553  12.386
89332W        W57750  13.112  40.008   0.460
89333W        W57751  38.075  44.995  12.367
89334W        W57752  16.594  30.647  13.946
89335W        W57753   7.825  33.449  11.373
89336W        W57754  32.075  42.308  10.639
89337W        W57755  32.494  15.733  11.049
89338W        W57756   1.806  34.560   2.879
89339W        W57757  38.364  15.228  10.476
89340W        W57758   5.688  35.948  12.880
89341W        W57759  43.004  14.746   9.647
89342W        W57760   6.211  20.080   2.792
89343W        W57761  13.659  15.108   2.383
89344W        W57762  42.776  44.379   3.824
89345W        W57763   9.768  37.080   2.695
89346W        W57764  42.512  35.960  13.817
89347W        W57765   0.842   5.288   3.789
89348W        W57766  28.632  22.539   1.908
89349W        W57767  11.673  28.091   0.455
89350W        W57768  23.209  27.488   0.748
89351W        W57769   6.889  35.019  12.893
89352W        W57770  19.612  31.520   4.833
89353W        W57771  25.161  25.475   4.743
89354W        W57772   1.777  20.130   5.254
89355W        W57773   0.944  29.972   4.160
89356W        W57774  30.941  20.207   3.743
89357W        W57775  40.480  20.075   3.721
89358W        W57776  29.964  22.700   4.622
89359W        W57777   6.691   2.873  13.406
89360W        W57778  19.757  21.750   0.842
89361W        W57779  33.528  30.107   3.160
89362W        W57780  12.653  22.111   3.664
89363W        W57781   7.369  35.974   0.250
89364W        W57782  31.645  11.368   2.275
89365W        W57783  31.122  15.260   1.223
89366W        W57784  40.996  12.770  10.548
89367W        W57785  39.426   2.398  13.013
89368W        W57786  37.477  39.354  14.470
89369W        W57787  29.606  35.908   3.677
89370W        W57788  40.949  35.449   0.911
89371W        W57789  26.963  32.551  13.531
89372W        W57790   7.780   8.691  11.974
89373W        W57791  28.131  43.999   2.701
89374W        W57792   8.839  35.466   4.818
89375W        W57793  13.765  21.616  13.840
89376W        W57794  23.171  37.343   4.261
89377W        W57795  40.360  26.627  14.777
89378W        W57796   8.222  20.725   4.664
89379W        W57797   1.262  22.652   1.725
89380W        W57798  42.000  43.284   4.713
89381W        W57799  36.867  33.480   0.389
89382W        W57800  30.141  12.684  13.047
89383W        W57801  42.802  38.049  14.816
89384W        W57802  23.125  34.035  10.420
89385W        W57803  43.009  26.147  14.797
89386W        W57804  24.677  27.040   2.292
89387W        W57805  15.195  32.503   3.304
89388W        W57806  20.769  35.006  10.610
89389W        W57807   4.220  36.423  12.344
89390W        W57808  27.525  13.213   1.849
89391W        W57809  36.933  24.084  14.913
89392W        W57810  24.975  27.559   0.321
89393W        W57811  10.876   5.395  13.954
89394W        W57812  26.474  25.685   1.340
89395W        W57813   5.240  39.917  12.536
89396W        W57814   6.317  44.322  12.407
89397W        W57815   1.320  31.532   4.669
89398W        W57816  26.051   0.489  13.547
89399W        W57817  21.153  41.906   4.599
89400W        W57818  44.395  40.347   4.221
89401W        W57819  37.512  14.821   0.756
89402W        W57820  11.207  15.246   1.257
89403W        W57821  24.192  12.801  12.470
89404W        W57822  15.107  25.583   1.855
89405W        W57823  38.380  16.651   4.637
89406W        W57824   9.664  27.160   3.755
89407W        W57825  36.419   5.220   4.833
89408W        W57826   4.355   0.328  10.429
89409W        W57827  19.160   8.891  14.418
89410W        W57828  22.535  39.808   1.694
89411W        W57829  43.840   1.288   1.367
89412W        W57830  29.549  38.917  11.920
89413W        W57831  39.537  24.004  11.504
89414W        W57832  41.293  40.362   1.867
89415W        W57833  18.600   4.221   3.859
89416W        W57834  31.557  27.615   4.712
89417W        W57835  31.419  29.964   0.938
89418W        W57836  34.470  13.607   4.658
89419W        W57837  19.278  20.544  11.063
89420W        W57838  13.106  37.364  11.086
89421W        W57839   8.231  18.182  10.591
89422W        W57840   3.410  15.671  10.593
89423W        W57841  42.516  15.605  14.418
89424W        W57842  15.206  24.074   0.795
89425W        W57843  25.574  38.364  11.076
89426W        W57844  19.099  19.592  10.626
89427W        W57845  43.901  28.933   1.410
89428W        W57846  22.053  31.918  10.939
89429W        W57847  14.664  10.325  13.038
89430W        W57848  23.647  28.942   0.315
89431W        W57849  44.766  18.244   3.782
89432W        W57850  28.461  26.686   4.736
89433W        W57851  12.229  15.579  11.454
89434W        W57852  27.645  41.311   0.791
89435W        W57853  13.646  27.094   2.360
89436W        W57854  33.622   4.941  11.527
89437W        W57855  39.506  10.143  13.957
89438W        W57856  33.049  16.244  11.528
89439W        W57857  12.148  17.239  12.948
89440W        W57858  41.902  42.948   0.366
89441W        W57859   1.886  36.510   0.772
89442W        W57860   8.729  10.789  14.873
89443W        W57861   9.155  10.647  11.475
89444W        W57862   7.293  31.588   3.174
89445W        W57863  34.471  39.902   2.204
89446W        W57864  41.038  35.993   1.321
89447W        W57865  35.084   6.226   4.351
89448W        W57866   5.920  34.943  11.866
89449W        W57867  39.959   5.883   0.382
89450W        W57868  10.278  34.896   2.190
89451W        W57869   4.259   3.289   1.282
89452W        W57870   3.861  16.639   1.750
89453W        W57871  30.049   1.399   3.784
89454W        W57872  44.808  40.825   9.484
89455W        W57873   4.720   1.814   0.763
89456W        W57874  23.006  29.652  14.001
89457W        W57875  25.695  21.066   0.876
89458W        W57876  39.872  21.594  10.509
89459W        W57877  27.482   2.360  11.933
89460W        W57878   2.946  30.943   3.732
89461W        W57879   7.722  18.155   3.337
89462W        W57880  37.057   9.739  13.986
89463W        W57881  37.959  15.290   0.932
89464W        W57882   1.305  32.923  14.920
89465W        W57883  22.549   8.370  14.859
89466W        W57884  39.464  14.818   0.347
89467W        W57885  19.193  26.963  10.503
89468W        W57886   1.237   1.327  11.979
89469W        W57887  25.647  42.525  14.823
89470W        W57888  34.570   6.289   0.480
89471W        W57889   0.345  38.442   1.820
89472W        W57890  11.308  22.152   1.848
89473W        W57891  20.692   3.252   2.286
89474W        W57892  38.426  28.935  12.388
89475W        W57893  20.650   2.458  11.062
89476W        W57894  10.727  42.432   0.420
89477W        W57895   5.781  31.076  12.898
89478W        W57896  41.310  29.510  13.468
89479W        W57897  11.638   8.682   2.211
89480W        W57898  11.779  33.066   2.336
89481W        W57899  33.954  43.797   4.635
89482W        W57900  17.674  15.204   2.708
89483W        W57901  12.277  26.127   2.816
89484W        W57902  42.930  23.717   0.411
89485W        W57903  40.494  11.227   1.770
89486W        W57904  42.814  26.527   3.167
89487W        W57905   9.268  12.640  13.850
89488W        W57906  29.616   2.255   2.727
89489W        W57907  28.002  12.359  10.578
89490W        W57908  32.089   7.242   2.378
89491W        W57909  33.914   3.227   4.180
89492W        W57910  23.554  44.403   2.755
89493W        W57911  26.149  19.089   0.820
89494W        W57912  44.307  29.170   0.358
89495W        W57913  15.232   4.908   1.775
89496W        W57914  11.720  38.882  12.370
89497W        W57915  10.316  14.635   1.257
89498W        W57916  12.635  40.305   0.726
89499W        W57917  22.167  16.110  10.411
89500W        W57918  15.680  29.070   4.795
89501W        W57919  35.439   9.764  12.456
89502W        W57920  10.258  16.597   3.242
89503W        W57921   0.251   0.937   1.451
89504W        W57922  41.493  11.790  14.297
89505W        W57923  17.176   4.715  10.959
89506W        W57924  21.262   8.277   2.360
89507W        W57925   1.359  25.550  14.977
89508W        W57926  29.161   9.150   5.308
89509W        W57927   0.463  19.098  11.861
89510W        W57928  10.269  20.659   3.663
89511W        W57929   2.903  37.546   0.282
89512W        W57930  23.179  39.042  12.551
89513W        W57931  19.679  41.390   2.825
89514W        W57932  30.509   3.940  14.433
89515W        W57933  12.346  39.936   0.346
89516W        W57934   0.985  41.375   3.704
89517W        W57935  21.750  15.642  11.412
89518W        W57936  18.135  10.233   4.243
89519W        W57937  11.223  20.132  11.404
89520W        W57938  11.330  31.961   0.764
89521W        W57939  38.908   8.773   2.201
89522W        W57940  22.527   1.307  11.418
89523W        W57941   7.747  36.090   3.317
89524W        W57942  24.003   8.173   3.838
89525W        W57943  20.715  13.119  10.451
89526W        W57944  12.714   0.853  12.094
89527W        W57945  42.390  27.188  13.461
89528W        W57946  23.236  37.908   1.801
89529W        W57947  16.318   2.407  13.966
89530W        W57948   6.769  28.525  14.856
89531W        W57949   9.664   5.708   0.754
89532W        W57950  43.306  21.059   5.722
89533W        W57951   4.418  33.536   2.742
89534W        W57952  13.106  17.263   4.660
89535W        W57953  10.701  17.607   1.930
89536W        W57954  41.882   6.389   3.790
89537W        W57955   7.363  26.512   2.753
89538W        W57956  30.074  30.134   1.348
89539W        W57957  22.684  35.427  11.994
89540W        W57958  44.328   2.732  12.371
89541W        W57959   3.812  21.732  10.911
89542W        W57960  13.188  11.843   4.345
89543W        W57961  41.902   6.705   4.211
89544W        W57962  22.038   4.864   2.882
89545W        W57963  43.278   5.843  11.866
89546W        W57964  34.383  33.892  13.996
89547W        W57965   4.305  21.173   2.778
89548W        W57966  31.966  19.740   2.790
89549W        W57967  33.024  41.034   1.341
89550W        W57968  16.682  21.170  11.400
89551W        W57969  20.619  39.843  14.347
89552W        W57970  41.372   2.301   0.324
89553W        W57971  33.974  19.082   1.715
89554W        W57972   9.173  39.851  11.080
89555W        W57973  26.473   0.847  12.979
89556W        W57974  38.867  11.680   0.775
89557W        W57975  30.037  11.822  11.865
89558W        W57976  35.105  36.037   1.441
89559W        W57977  21.648  23.223   2.813
89560W        W57978  16.152  24.620   4.320
89561W        W57979  34.052  15.710  10.601
89562W        W57980  23.514  11.357   1.926
89563W        W57981  12.309  37.534   1.901
89564W        W57982  27.182   7.853  10.043
89565W        W57983   2.379   5.290   2.743
89566W        W57984  39.970  12.738  14.448
89567W        W57985  24.494   7.679  13.923
89568W        W57986  27.146  30.981  14.978
89569W        W57987  39.349  16.612   1.242
89570W        W57988  25.094  37.479   1.424
89571W        W57989   0.943  38.382  11.053
89572W        W57990   2.452  25.471   0.398
89573W        W57991  35.090  14.189  14.444
89574W        W57992  26.518  32.122  13.852
89575W        W57993  33.039  13.786  11.918
89576W        W57994  33.593  29.068  12.973
89577W        W57995  39.376  33.443  13.318
89578W        W57996  42.303  28.180  11.976
89579W        W57997  31.930   6.419  12.461
89580W        W57998  21.551  24.694  13.949
89581W        W57999   5.729   9.218   3.302
89582W        W58000  24.602  39.478  12.024
89583W        W58001  19.718  29.496   1.310
89584W        W58002  10.173  19.080  12.554
89585W        W58003   6.768   9.368   4.764
89586W        W58004  22.576  23.224  14.802
89587W        W58005  36.884  27.578   2.898
89588W        W58006  29.920  20.030  12.917
89589W        W58007   5.905  16.137  10.901
89590W        W58008  29.466  13.735  11.584
89591W        W58009  23.127  26.045   1.414
89592W        W58010  39.988  43.792  13.536
89593W        W58011   2.338  18.573  12.560
89594W        W58012  18.658  11.794   5.117
89595W        W58013   9.743   4.230  14.960
89596W        W58014  32.106  22.237  14.011
89597W        W58015  23.733  24.579  13.448
89598W        W58016  34.573  26.157   2.704
89599W        W58017  42.314   9.395  14.842
89600W        W58018   8.808  34.106   4.182
89601W        W58019   1.920  14.124   1.738
89602W        W58020  27.566  43.949   0.892
89603W        W58021  31.477  33.561   0.312
89604W        W58022  25.586  37.535  10.631
89605W        W58023   2.292   6.291   5.130
89606W        W58024  30.440   5.309  10.628
89607W        W58025  31.547  32.998   3.371
89608W        W58026  39.945  20.650   3.312
89609W        W58027  24.593  21.642   2.219
89610W        W58028  24.616  35.511  12.479
89611W        W58029  38.041  38.960   5.734
89612W        W58030  19.637  16.636   3.192
89613W        W58031  17.084   6.723   0.390
89614W        W58032  26.197  41.033  14.333
89615W        W58033  24.137  19.642  14.856
89616W        W58034   5.733  26.464   5.228
89617W        W58035  44.259  21.101  14.336
89618W        W58036  11.266  38.358  11.052
89619W        W58037  24.659  36.888  14.983
89620W        W58038  14.668   3.880   2.224
89621W        W58039  37.525  10.370  12.481
89622W        W58040  41.494  29.645  14.456
89623W        W58041  40.865   5.422   0.250
89624W        W58042  26.100  11.763  10.465
89625W        W58043  18.661  11.682  10.033
89626W        W58044  22.040  33.499  14.003
89627W        W58045  17.777  22.531  14.829
89628W        W58046  24.717  43.773  13.843
89629W        W58047  41.352  24.032  10.920
89630W        W58048   3.743  13.110   4.718
89631W        W58049   6.396  35.862  13.847
89632W        W58050  12.281  25.216  12.390
89633W        W58051  12.705  35.965  12.545
89634W        W58052   9.297  25.531   1.230
89635W        W58053   4.906  44.490   2.745
89636W        W58054  29.638  29.935  12.060
89637W        W58055  12.647   3.345  14.406
89638W        W58056  36.021  27.621   3.386
89639W        W58057  35.045  26.575   1.795
89640W        W58058   3.927   0.337  13.848
89641W        W58059  19.272  24.194  12.444
89642W        W58060  43.014  26.569  13.001
89643W        W58061  35.546  26.494   0.966
89644W        W58062  34.072  13.710  14.418
89645W        W58063   3.403   0.311  14.989
89646W        W58064   0.791   6.893  12.575
89647W        W58065   0.280  18.671  14.938
89648W        W58066  25.623  33.409   2.684
89649W        W58067  32.541   1.377  10.612
89650W        W58068  19.261  42.861  14.283
89651W        W58069  27.085  35.520  14.932
89652W        W58070   1.936  38.549   3.789
89653W        W58071  27.088  24.110  13.019
89654W        W58072   9.153   1.278  12.978
89655W        W58073  20.700  37.928   2.222
89656W        W58074  36.581  22.033   3.372
89657W        W58075  26.697   2.416   1.253
89658W        W58076  42.371  32.124  13.466
89659W        W58077  31.960  10.214  14.854
89660W        W58078  38.926  35.069  13.939
89661W        W58079  44.270  13.607   9.948
89662W        W58080   2.339  18.274   9.937
89663W        W58081  23.083  16.134   4.188
89664W        W58082  20.257   0.317  10.983
89665W        W58083  26.170  38.531  14.765
89666W        W58084  22.713  41.336  10.497
89667W        W58085   9.328  44.349  14.502
89668W        W58086  21.532   9.863   1.758
89669W        W58087   0.827  11.338  10.894
89670W        W58088  26.654   7.787  13.925
89671W        W58089  43.362  23.641   0.921
89672W        W58090  25.076   9.658  12.391
89673W        W58091  29.666  25.207  13.539
89674W        W58092  25.670  28.530   1.435
89675W        W58093  22.633  38.016   4.626
89676W        W58094  39.898  21.158   3.732
89677W        W58095   9.314  42.887  10.980
89678W        W58096  44.898  40.319   3.324
89679W        W58097  26.993  14.337   3.242
89680W        W58098   7.287  37.461   2.383
89681W        W58099  30.015   3.296   0.729
89682W        W58100  13.742  31.130   1.848
89683W        W58101  37.088  44.904   4.652
89684W        W58102  12.353  21.735   1.226
89685W        W58103   3.825  43.363  14.835
89686W        W58104  39.865  24.055   3.239
89687W        W58105  34.451   7.745  12.021
89688W        W58106   7.875  20.152  12.915
89689W        W58107  31.920  31.473  14.842
89690W        W58108  42.375  27.660  10.979
89691W        W58109  20.588   9.776   1.865
89692W        W58110  41.464  35.980   3.633
89693W        W58111  11.742  21.067  14.353
89694W        W58112   2.890  11.814  14.294
89695W        W58113  15.795  33.540  14.793
89696W        W58114  14.671  41.803  11.020
89697W        W58115  14.770  35.439  12.086
89698W        W58116   6.785  42.303   2.776
89699W        W58117   2.801  13.640  12.948
89700W        W58118  27.533  17.618   3.201
89701W        W58119  16.076  41.391  11.551
89702W        W58120  36.939  40.453  14.011
89703W        W58121  13.728  14.719   2.280
89704W        W58122  34.575  38.977  12.413
89705W        W58123  11.187  20.642  10.417
89706W        W58124  43.816  23.573   2.804
89707W        W58125  31.152   6.872  10.439
89708W        W58126  23.620  33.401   1.210
89709W        W58127  36.902   7.877  11.455
89710W        W58128  30.433   8.287   3.273
89711W        W58129  39.366  18.136  14.458
89712W        W58130  11.308  36.565   0.939
89713W        W58131  16.148  35.591   3.836
89714W        W58132   7.378  37.006  12.526
89715W        W58133   1.960  11.255  13.950
89716W        W58134  33.011  32.094  14.411
89717W        W58135  40.507  32.636  12.359
89718W        W58136  40.893   9.245  13.334
89719W        W58137  28.997  39.390  11.916
89720W        W58138  18.073   3.918   2.360
89721W        W58139   4.901  28.448   1.768
89722W        W58140  29.495  44.921   1.731
89723W        W58141   6.788  22.035   0.934
89724W        W58142  44.943  35.958   4.199
89725W        W58143   0.299   3.282   4.724
89726W        W58144  30.060  40.534  11.565
89727W        W58145  10.242  29.461   3.224
89728W        W58146  16.663  29.967  14.310
89729W        W58147   2.810  15.677  13.843
89730W        W58148  42.870   0.347  14.344
89731W        W58149  18.153   5.414  13.345
89732W        W58150  32.947  15.734  13.522
89733W        W58151  24.490   2.775   4.726
89734W        W58152   9.750  37.497  13.885
89735W        W58153  12.732  24.025  11.030
89736W        W58154  27.982  39.859  13.890
89737W        W58155  34.503  21.256   3.632
89738W        W58156  29.926   4.814  14.361
89739W        W58157  18.697   0.892   4.666
89740W        W58158  15.099   2.235  14.868
89741W        W58159  25.029   4.224  11.483
89742W        W58160  10.266  24.072   1.728
89743W        W58161  13.825   1.796   3.715
89744W        W58162  37.429   4.788  13.963
89745W        W58163   1.783  26.100   3.279
89746W        W58164  15.820  25.060  13.466
89747W        W58165  16.628  15.701   4.139
89748W        W58166   3.393  10.682  12.933
89749W        W58167  23.138  35.954  10.410
89750W        W58168  26.013  30.504   3.192
89751W        W58169   9.218  34.609   1.819
89752W        W58170  36.977  15.664   1.342
89753W        W58171  10.875   7.876  14.778
89754W        W58172   7.410  30.033  13.455
89755W        W58173  11.826  20.765   0.420
89756W        W58174  43.792   0.803  14.383
89757W        W58175  12.742   4.851   0.297
89758W        W58176  23.198  37.907  13.940
89759W        W58177  17.087   2.908   1.297
89760W        W58178  22.244  19.700  12.524
89761W        W58179  33.504  11.840   0.926
89762W        W58180   6.347  16.713   0.306
89763W        W58181  41.918  42.018  13.827
89764W        W58182  29.486   2.332   1.829
89765W        W58183  24.077   6.374   4.689
89766W        W58184   2.853  29.639   2.755
89767W        W58185   6.216  13.218   1.709
89768W        W58186  42.956  34.503  12.059
89769W        W58187  21.060  20.667  10.539
89770W        W58188  17.689  17.799   2.903
89771W        W58189  20.614   2.343  12.842
89772W        W58190  27.034   6.303  10.100
89773W        W58191   3.322  22.142  12.917
89774W        W58192  29.639  35.906   4.324
89775W        W58193  18.175  35.579   3.194
89776W        W58194   3.424  25.106   3.684
89777W        W58195  44.802  17.612  12.411
89778W        W58196   1.775  22.571   9.578
89779W        W58197  31.146  27.474   2.734
89780W        W58198  39.359  14.698  13.035
89781W        W58199  28.609  33.410  13.961
89782W        W58200  42.391   2.420  11.084
89783W        W58201  25.503  41.453   3.162
89784W        W58202  12.767  41.440   4.735
89785W        W58203  17.133   0.260   1.850
89786W        W58204  11.808  18.754   4.789
89787W        W58205  27.478   7.753  10.416
89788W        W58206  23.131  12.272  10.419
89789W        W58207  38.983  18.155  12.408
89790W        W58208  41.436  33.580  12.444
89791W        W58209  39.407  30.579   0.743
89792W        W58210   2.227  44.777   1.228
89793W        W58211   9.191  42.895   1.253
89794W        W58212  19.632  27.995   0.848
89795W        W58213  33.573  18.224   4.829
89796W        W58214  43.777  39.862   0.739
89797W        W58215  10.256  24.713   3.733
89798W        W58216  38.376  19.770  10.971
89799W        W58217  26.642  17.149   1.894
89800W        W58218  21.168  39.328   1.750
89801W        W58219  24.060   8.682  11.541
89802W        W58220  41.439  41.815  10.025
89803W        W58221  13.816   6.853   5.112
89804W        W58222   9.838  35.041  14.467
89805W        W58223   9.180  37.436   5.155
89806W        W58224   0.345  43.935  14.980
89807W        W58225  12.677  36.453   1.905
89808W        W58226  16.105   9.669  13.972
89809W        W58227  27.533   3.215  10.547
89810W        W58228  12.290  28.582  14.415
89811W        W58229  36.393  38.382  11.052
89812W        W58230  27.510   5.751  10.099
89813W        W58231   8.286  43.000   4.171
89814W        W58232  31.982  21.177   3.645
89815W        W58233  30.157  19.243  14.031
89816W        W58234  37.378  37.925   2.807
89817W        W58235  44.472  10.147   0.271
89818W        W58236  32.521  22.715   4.739
89819W        W58237  44.383  22.581   4.166
89820W        W58238  20.029   3.460   1.759
89821W        W58239  24.211  17.140  10.977
89822W        W58240  36.466  32.993   0.366
89823W        W58241  24.516  25.094   0.368
89824W        W58242  22.155  23.518  13.472
89825W        W58243   7.372  28.555   4.136
89826W        W58244   2.844   1.270  12.349
89827W        W58245  22.130  38.042   2.315
89828W        W58246   2.342  38.933  12.500
89829W        W58247  14.265  41.924   1.714
89830W        W58248  44.487  41.494   5.209
89831W        W58249  17.123   0.366  13.855
89832W        W58250   9.649  43.938   0.365
89833W        W58251   6.419   8.663   1.730
89834W        W58252  38.501  34.882  13.341
89835W        W58253  22.121  12.791   3.257
89836W        W58254   9.709  38.402   2.191
89837W        W58255  36.544  34.901  12.414
89838W        W58256  31.539  32.473  13.424
89839W        W58257  36.390  38.852   4.803
89840W        W58258  10.300  35.520  10.541
89841W        W58259  34.384  38.921  14.405
89842W        W58260   2.746  40.343  14.843
89843W        W58261  42.510  43.374   3.667
89844W        W58262  36.381   2.758   4.216
89845W        W58263  32.419  26.106   2.314
89846W        W58264  40.363  33.968   1.361
89847W        W58265   7.192  17.102   1.441
89848W        W58266  14.779  32.441  11.069
89849W        W58267  19.146   8.750   2.825
89850W        W58268  17.193  42.925  11.451
89851W        W58269  23.504   0.318  13.791
89852W        W58270  11.834  18.152   1.350
89853W        W58271  38.947   7.347   0.304
89854W        W58272  15.579  44.922  12.078
89855W        W58273  17.796  35.911   1.385
89856W        W58274   5.889  36.083   4.179
89857W        W58275  40.397  11.336   1.437
89858W        W58276  40.858  12.672  13.053
89859W        W58277  24.039  42.960   2.415
89860W        W58278   6.332  35.941  14.974
89861W        W58279  40.976  28.479   0.954
89862W        W58280  44.987  42.352   0.800
89863W        W58281  24.201  26.662  13.416
89864W        W58282  25.484   7.345  10.915
89865W        W58283  14.820   6.752  11.042
89866W        W58284  44.917  29.116   2.900
89867W        W58285  27.656  41.823  12.968
89868W        W58286  12.697  25.640   4.706
89869W        W58287  44.905  12.794   4.317
89870W        W58288  14.603  31.632   1.291
89871W        W58289  31.116  23.574   0.928
89872W        W58290   5.719  26.629   2.250
89873W        W58291  23.225  14.722  11.595
89874W        W58292   6.288  13.822   0.925
89875W        W58293  33.591  14.716  12.016
89876W        W58294   3.810  14.277  11.513
89877W        W58295   4.863  26.606   0.305
89878W        W58296   1.913  29.612   3.783
89879W        W58297  11.273   2.769  13.886
89880W        W58298  39.447   4.708   2.260
89881W        W58299  44.505  37.978  13.838
89882W        W58300   7.201  18.122   4.240
89883W        W58301  21.151  23.079   0.900
89884W        W58302  42.405   5.706   3.163
89885W        W58303   6.261   5.798   3.666
89886W        W58304   8.298   8.705   1.362
89887W        W58305  17.154  15.824   3.159
89888W        W58306   4.386  29.485   1.397
89889W        W58307   0.251  29.053   2.871
89890W        W58308  32.467   0.492  12.987
89891W        W58309  40.922  27.587   4.755
89892W        W58310  30.973   4.944  11.982
89893W        W58311  24.479  42.314   4.328
89894W        W58312  12.712  12.766   3.247
89895W        W58313  10.653  39.007   1.886
89896W        W58314   7.845  14.200  10.493
89897W        W58315  25.630  39.860   3.662
89898W        W58316  27.491  15.192   0.292
89899W        W58317  11.828  33.499  11.044
89900W        W58318  23.055  20.125   3.383
89901W        W58319  37.022  37.512   1.223
89902W        W58320  41.535   1.300  10.600
89903W        W58321   2.310   8.366  14.280
89904W        W58322  33.996   9.665   0.272
89905W        W58323  34.093  17.745  14.477
89906W        W58324  39.920  38.359  10.553
89907W        W58325  40.850  39.350   2.759
89908W        W58326  31.517  24.650   2.889
89909W        W58327  31.148   2.321  10.989
89910W        W58328  29.425  43.889   3.838
89911W        W58329  19.258  19.194   3.333
89912W        W58330  26.158  42.525  12.963
89913W        W58331  40.921  36.369   2.293
89914W        W58332  10.344   6.308   2.770
89915W        W58333  18.181  31.565   0.807
89916W        W58334   4.374  19.662   3.758
89917W        W58335  20.560  30.462  13.514
89918W        W58336  19.073  25.546   9.523
89919W        W58337  18.262  28.607  14.012
89920W        W58338  22.662  33.051   2.724
89921W        W58339  27.008  43.397   4.134
89922W        W58340   2.898  31.585  13.333
89923W        W58341  42.422   9.310   1.447
89924W        W58342  15.226  26.581  12.553
89925W        W58343   3.885  13.259  14.856
89926W        W58344  31.093   0.378   1.767
89927W        W58345  35.555  35.033  13.023
89928W        W58346  23.224  38.355   9.657
89929W        W58347   0.272  15.777  10.921
89930W        W58348  12.838  24.191  12.486
89931W        W58349  21.714  32.448   2.200
89932W        W58350  33.984  31.496  14.416
89933W        W58351  14.311   0.295   3.774
89934W        W58352  44.011  29.965  11.422
89935W        W58353  13.632  40.304  13.539
89936W        W58354  35.444  33.898   4.153
89937W        W58355  27.106   7.823  14.383
89938W        W58356  16.314  36.423   1.233
89939W        W58357  37.906  17.254   0.357
89940W        W58358   4.349  21.541   0.260
89941W        W58359   6.236  15.653   0.862
89942W        W58360  20.530  37.868   3.663
89943W        W58361  11.234  41.903   3.680
89944W        W58362  28.134  42.009  10.951
89945W        W58363  13.337  38.364   1.862
89946W        W58364  40.947  11.720  12.823
89947W        W58365   8.712   6.239   2.231
89948W        W58366  27.554  39.343   1.864
89949W        W58367  38.410  15.158  14.441
89950W        W58368   4.347  12.796  13.476
89951W        W58369  43.316  12.828   1.366
89952W        W58370   6.846  29.088  10.515
89953W        W58371  36.060  38.559   3.351
89954W        W58372  28.055   5.875   2.707
89955W        W58373   6.688  38.416   0.433
89956W        W58374  33.416  34.407  13.531
89957W        W58375  35.027  25.615   3.653
89958W        W58376  12.206  14.282  13.872
89959W        W58377  23.628   0.446   0.804
89960W        W58378   8.351  44.281   1.720
89961W        W58379  36.002  26.665   4.645
89962W        W58380  39.857  34.018   2.194
89963W        W58381  15.744  11.363  14.985
89964W        W58382  13.763  42.954   2.339
89965W        W58383  18.052  26.179  14.809
89966W        W58384  16.746  32.612  13.338
89967W        W58385  19.570   4.437  11.567
89968W        W58386  26.502  17.604   0.303
89969W        W58387   1.742  11.187  13.424
89970W        W58388  25.070  29.434  12.467
89971W        W58389   4.246  10.383  13.859
89972W        W58390  27.070   3.332   1.264
89973W        W58391  33.457  24.572   2.408
89974W        W58392  17.711  38.451   1.426
89975W        W58393   1.969   7.890   2.671
89976W        W58394  20.068  34.895  13.013
89977W        W58395  40.346  40.865  12.447
89978W        W58396   9.354  43.515  12.910
89979W        W58397  12.726  44.822   3.670
89980W        W58398  27.553  30.414   4.116
89981W        W58399   9.177  38.413  12.480
89982W        W58400  30.979  38.923   2.307
89983W        W58401  43.823  41.005   4.820
89984W        W58402  24.003   6.227  10.451
89985W        W58403  20.143  11.706   0.445
89986W        W58404   8.400   9.192  12.580
89987W        W58405  43.839  13.719  10.940
89988W        W58406  36.858  16.307   3.687
89989W        W58407   1.242  16.234   4.774
89990W        W58408  28.663   8.679  13.024
89991W        W58409  33.115  32.923   2.287
89992W        W58410  26.567  18.117  12.949
89993W        W58411  42.359  20.272   1.372
89994W        W58412  40.382  34.530  13.345
89995W        W58413  11.316  33.044  13.810
89996W        W58414   6.915  29.011  14.427
89997W        W58415  37.832  16.260   4.301
89998W        W58416   5.354   8.721   3.794
89999W        W58417  13.677  11.288   3.864
90000W        W58418  19.565  19.544  11.469
90001W        W58419   9.818  32.107  10.104
90002W        W58420   9.208  41.863   2.372
90003W        W58421   0.412  20.227   2.770
90004W        W58422  25.023  34.086  13.380
90005W        W58423  23.174  29.529  11.477
90006W        W58424  37.906  40.974   1.764
90007W        W58425  13.290  40.517  14.018
90008W        W58426   1.893   4.937   2.705
90009W        W58427  37.409   9.720  14.493
90010W        W58428  33.935  41.416   3.227
90011W        W58429  30.649  21.649  12.447
90012W        W58430  32.413  44.763  13.338
90013W        W58431  22.509   4.325   4.691
90014W        W58432  23.730  36.863  11.027
90015W        W58433  36.083  25.029   0.453
90016W        W58434  28.616  17.659  12.018
90017W        W58435  28.030  27.602   2.826
90018W        W58436  43.860  14.184  14.464
90019W        W58437  11.294   6.193   4.155
90020W        W58438  37.494  35.987   2.275
90021W        W58439  32.045  16.764  10.996
90022W        W58440  34.564  12.714   3.806
90023W        W58441   1.940  41.479   3.737
90024W        W58442  12.755  17.639   4.250
90025W        W58443   3.840  13.651   0.742
90026W        W58444  29.517  42.926   3.221
90027W        W58445  25.006  36.426   2.669
90028W        W58446  12.626   9.689   1.211
90029W        W58447  36.478  30.619   2.785
90030W        W58448  16.602  43.948  11.897
90031W        W58449  44.409  32.415  13.939
90032W        W58450  19.617   9.367   0.358
90033W        W58451  24.664  30.499  14.953
90034W        W58452  13.668  37.356   4.154
90035W        W58453   3.432  20.251  12.388
90036W        W58454  35.423  40.054   0.771
90037W        W58455  24.005  30.618   0.452
90038W        W58456  26.205  41.035   1.373
90039W        W58457  14.802   2.771  10.561
90040W        W58458  36.004  12.762   4.615
90041W        W58459  14.188  28.495   3.706
90042W        W58460  28.971  23.166   2.280
90043W        W58461  11.832  11.187   0.319
90044W        W58462  21.069  39.052   4.218
90045W        W58463   9.311  16.142   0.325
90046W        W58464  39.476  31.628   3.326
90047W        W58465  39.056  14.826  12.093
90048W        W58466  25.981  38.925   3.316
90049W        W58467   2.730   3.917  12.929
90050W        W58468  13.767  43.960  10.553
90051W        W58469  22.574  17.703   0.774
90052W        W58470   8.816   5.252   3.154
90053W        W58471  22.667  44.263  11.025
90054W        W58472  29.590  17.120   2.331
90055W        W58473  33.070  42.431  12.927
90056W        W58474  39.865  24.571  10.439
90057W        W58475  11.243  29.980   2.306
90058W        W58476  44.349  22.025   2.677
90059W        W58477  41.312   8.390   1.809
90060W        W58478  24.170  44.772  11.099
90061W        W58479  27.566  29.478   3.797
90062W        W58480  36.481   4.394   3.262
90063W        W58481  24.196  10.768  13.926
90064W        W58482  16.715  17.208  13.515
90065W        W58483  13.299  25.649   0.901
90066W        W58484  35.432  17.091  11.417
90067W        W58485   6.286  16.242   1.414
90068W        W58486   4.748  42.386  13.425
90069W        W58487  37.877  28.548  12.867
90070W        W58488  11.753   3.816   2.687
90071W        W58489  38.393  39.503  12.895
90072W        W58490  36.888  25.064   2.182
90073W        W58491  21.710  16.683  14.962
90074W        W58492   8.277  17.145   4.178
90075W        W58493  13.642  28.498   0.292
90076W        W58494  20.121  16.750  14.286
90077W        W58495  42.811  33.611   5.293
90078W        W58496   7.240  23.530  14.966
90079W        W58497   2.930   1.742   4.145
90080W        W58498   3.816  30.939  11.423
90081W        W58499   7.886  15.582   4.167
90082W        W58500  39.991   9.158   3.747
90083W        W58501  36.558  16.606  14.445
90084W        W58502  36.537  25.179  11.505
90085W        W58503  35.501  29.495  10.993
90086W        W58504  28.975   4.347   4.171
90087W        W58505   7.264   9.659   3.819
90088W        W58506  21.080  40.939  10.134
90089W        W58507  24.538  41.405   3.786
90090W        W58508   5.758  21.192   2.740
90091W        W58509   5.219  44.760  10.594
90092W        W58510  41.860  35.418  14.438
90093W        W58511  31.938  42.347   3.148
90094W        W58512  29.544  23.623  13.855
90095W        W58513   5.933   6.820  10.406
90096W        W58514  21.104  34.965   3.300
90097W        W58515  23.238  10.705   3.639
90098W        W58516  38.484  43.277  12.570
90099W        W58517  32.562   1.972  12.553
90100W        W58518   2.374   7.235  13.466
90101W        W58519  14.600  16.175  14.509
90102W        W58520  25.024   4.876   2.192
90103W        W58521  30.087  10.251  13.012
90104W        W58522  23.989   4.765   4.612
90105W        W58523  32.555   3.796   0.727
90106W        W58524  23.163  11.709  14.841
90107W        W58525   2.937  40.387   0.785
90108W        W58526  19.719  23.654   3.312
90109W        W58527  24.034  34.560   5.177
90110W        W58528  30.151  37.551  10.598
90111W        W58529  38.356  40.490   0.371
90112W        W58530  24.028  12.338  10.506
90113W        W58531  22.230  37.340   9.966
90114W        W58532   6.850  31.090   1.898
90115W        W58533  27.528   7.248  11.018
90116W        W58534  24.686  39.892   3.309
90117W        W58535  34.598  15.795   2.342
90118W        W58536  43.837  27.475   0.747
90119W        W58537  19.214   5.820   2.854
90120W        W58538  24.118  37.373  12.476
90121W        W58539   1.961  32.961  10.635
90122W        W58540   9.266  37.061  12.866
90123W        W58541  18.546  34.423   0.939
90124W        W58542   6.748  32.469  14.970
90125W        W58543  26.467  29.077  13.439
90126W        W58544  32.465  33.530   3.382
90127W        W58545   2.945  35.999   4.734
90128W        W58546  42.952  36.499   5.181
90129W        W58547   0.791  37.528   3.210
90130W        W58548  41.000  34.494   1.735
90131W        W58549   5.827  41.923  11.444
90132W        W58550  25.558  16.595  14.821
90133W        W58551  34.435  43.283  10.419
90134W        W58552   3.293  36.458   3.741
90135W        W58553   7.826   2.854   2.775
90136W        W58554  18.208  39.528  14.985
90137W        W58555  19.630  28.048  14.973
90138W        W58556  27.986  31.899   1.324
90139W        W58557   4.898   3.762   1.301
90140W        W58558  19.669  34.095   2.726
90141W        W58559  32.601  42.498  13.884
90142W        W58560  12.235  10.848  14.381
90143W        W58561  38.403  25.143   0.859
90144W        W58562   1.249   5.719   0.906
90145W        W58563  27.451  32.597   4.272
90146W        W58564  10.172  20.615   1.449
90147W        W58565  31.066  43.791   3.663
90148W        W58566  30.469  19.205  11.608
90149W        W58567   8.282   8.786  12.408
90150W        W58568  39.883  37.412  13.509
90151W        W58569   6.191  11.178   4.241
90152W        W58570  18.257  23.495  12.347
90153W        W58571  23.092  25.557   4.277
90154W        W58572  35.006  10.366   1.430
90155W        W58573   2.949  40.549   3.642
90156W        W58574  14.643  43.463   2.218
90157W        W58575   7.877  40.025   2.334
90158W        W58576  34.871  27.014   1.412
90159W        W58577  35.880  24.111  12.553
90160W        W58578  32.955   7.796   0.765
90161W        W58579  30.137  34.102   3.348
90162W        W58580  41.931  43.939  13.464
90163W        W58581   4.852  29.155  12.945
90164W        W58582  40.863  27.019  11.872
90165W        W58583  17.287  32.414   2.358
90166W        W58584  30.558  28.057   1.312
90167W        W58585   8.758   0.863   3.197
90168W        W58586   6.412  30.540   3.651
90169W        W58587   2.268  17.163   2.226
90170W        W58588  30.533  41.006   3.734
90171W        W58589  24.987  19.072   0.783
90172W        W58590  14.158  12.848  13.884
90173W        W58591  43.780  34.530  13.834
90174W        W58592  23.002  29.946   0.921
90175W        W58593   1.437  26.097   2.713
90176W        W58594   9.284  28.474  13.061
90177W        W58595  19.093  21.671   3.786
90178W        W58596  38.074  28.976   3.374
90179W        W58597  39.058  29.010   4.767
90180W        W58598   2.336  22.156   1.279
90181W        W58599  19.080  40.304  14.378
90182W        W58600   8.236  26.604  12.037
90183W        W58601   1.754  41.302   4.794
90184W        W58602   9.317  13.180   4.157
90185W        W58603  18.677  33.099   1.385
90186W        W58604  29.009  26.085   4.297
90187W        W58605  31.950   2.264  12.554
90188W        W58606  30.521  17.666   3.749
90189W        W58607  14.252  35.994   3.264
90190W        W58608   9.788  19.779  13.876
90191W        W58609  13.622  23.008  10.565
90192W        W58610  43.983   1.397   1.909
90193W        W58611   0.782  12.623  14.885
90194W        W58612  18.790  17.142   2.368
90195W        W58613  43.391  31.579   4.128
90196W        W58614  15.151  39.449   0.324
90197W        W58615  10.657  36.350   3.236
90198W        W58616  17.196  25.066  14.362
90199W        W58617  23.675  12.793  12.079
90200W        W58618   1.770   3.855   0.266
90201W        W58619  16.210  16.771  13.806
90202W        W58620  19.204   1.740  14.859
90203W        W58621  18.157  10.731   2.234
90204W        W58622   6.823  19.088  13.867
90205W        W58623  17.606  12.707   1.779
90206W        W58624  37.991  39.861  12.356
90207W        W58625  27.582  40.914   3.260
90208W        W58626  27.144  12.705  14.405
90209W        W58627  28.075  27.511  10.987
90210W        W58628  16.098  19.089  12.881
90211W        W58629  18.685  41.341   3.314
90212W        W58630  20.258  29.457   2.864
90213W        W58631  34.876  37.396   3.171
90214W        W58632  35.578  38.987  10.620
90215W        W58633  22.100  10.259  11.965
90216W        W58634  38.859  12.618  13.853
90217W        W58635  13.723  43.455   4.598
90218W        W58636  12.659   4.878  10.930
90219W        W58637  16.643  36.510  14.514
90220W        W58638  42.857  43.961  10.943
90221W        W58639  18.782   6.886   4.224
90222W        W58640   7.371  21.692   1.239
90223W        W58641  19.582   2.231  11.085
90224W        W58642  23.011  10.362   2.694
90225W        W58643  16.175  19.043  14.996
90226W        W58644  19.565  36.047  14.838
90227W        W58645  24.577   0.288  13.989
90228W        W58646  12.725  19.090  11.583
90229W        W58647  21.683  38.901  10.410
90230W        W58648  24.174  42.997  10.538
90231W        W58649  13.840  28.541   4.643
90232W        W58650  31.483  12.162  13.329
90233W        W58651   7.851  17.116   1.232
90234W        W58652  13.609   7.346  12.450
90235W        W58653  19.625  12.153  14.828
90236W        W58654   5.251   6.848   3.755
90237W        W58655  32.998  21.176  13.474
90238W        W58656  27.116  10.658   1.694
90239W        W58657   4.849  20.698  10.913
90240W        W58658  43.409   9.691   3.368
90241W        W58659  16.152   7.885  12.450
90242W        W58660  31.616  31.449  13.384
90243W        W58661  31.510  23.676   0.939
90244W        W58662  20.044   9.294   4.805
90245W        W58663  16.139   1.748   0.752
90246W        W58664  37.065  40.853  13.959
90247W        W58665  44.876  15.084   4.735
90248W        W58666  11.844  44.810  13.863
90249W        W58667   4.328  34.910  13.845
90250W        W58668   8.792  25.215   4.344
90251W        W58669  14.132  44.760   4.802
90252W        W58670  11.370  44.787   2.712
90253W        W58671   5.359  22.184   1.351
90254W        W58672  41.965   1.934   4.202
90255W        W58673   6.270  39.332   4.227
90256W        W58674  18.567  24.599  13.364
90257W        W58675  18.139   5.746  10.502
90258W        W58676  22.097   4.266  11.533
90259W        W58677  41.503  43.000   0.378
90260W        W58678  18.225  39.363  14.440
90261W        W58679  10.874  26.526  10.980
90262W        W58680  37.489   9.299  10.598
90263W        W58681  34.535  18.293   0.360
90264W        W58682  36.861  27.602   1.750
90265W        W58683  39.820  44.924   2.240
90266W        W58684  21.103  28.605   0.338
90267W        W58685  42.935  15.671  11.419
90268W        W58686   0.879  34.898   1.334
90269W        W58687  20.079  19.670  12.860
90270W        W58688   1.251  39.454   0.314
90271W        W58689  44.260  28.112  11.870
90272W        W58690  22.696  22.038  13.032
90273W        W58691  19.102  10.818   1.409
90274W        W58692  29.019  26.167   0.828
90275W        W58693  11.316  18.720  11.005
90276W        W58694  42.836  35.401   4.780
90277W        W58695   3.443  39.529  14.399
90278W        W58696   6.837  38.353  10.620
90279W        W58697  18.110  12.690  12.908
90280W        W58698  38.061  26.103   1.279
90281W        W58699  25.557  42.800  10.437
90282W        W58700  15.199  40.446   4.732
90283W        W58701  37.486  33.565  10.479
90284W        W58702  14.630  40.364  13.044
90285W        W58703  25.522  22.734  14.293
90286W        W58704  20.253  25.195  12.473
90287W        W58705  11.165  40.456   0.782
90288W        W58706   0.892   6.821  13.871
90289W        W58707  27.037  14.216   4.130
90290W        W58708  17.675   7.868  13.802
90291W        W58709  27.574  28.660   1.907
90292W        W58710  44.839  44.871  12.946
90293W        W58711   0.894  18.266  13.842
90294W        W58712  11.657   5.823   3.332
90295W        W58713   1.784  43.486  12.534
90296W        W58714  11.815  32.016  10.098
90297W        W58715  34.538  17.150   3.381
90298W        W58716   7.312  11.236   0.312
90299W        W58717  11.335   7.239  11.396
90300W        W58718  43.857  30.050   0.434
90301W        W58719  17.294  40.935  12.495
90302W        W58720  39.840  26.696   5.274
90303W        W58721  17.226  17.307  10.578
90304W        W58722  26.175  17.177   3.640
90305W        W58723  44.926   6.347   2.835
90306W        W58724   3.419  41.812  10.634
90307W        W58725   1.354  22.016   9.636
90308W        W58726  43.335  40.818   4.170
90309W        W58727  20.138  27.972  13.516
90310W        W58728  37.972  16.225  11.981
90311W        W58729  14.760  39.970   0.401
90312W        W58730  31.461  18.605  12.930
90313W        W58731   5.408  11.837  12.048
90314W        W58732  29.621  36.927  10.994
90315W        W58733  22.037  17.623   4.160
90316W        W58734  30.964  10.292  10.041
90317W        W58735  21.660  31.505   2.362
90318W        W58736  43.885   6.395  13.040
90319W        W58737   6.279   0.960   0.309
90320W        W58738   9.215  21.173  13.490
90321W        W58739  33.897  26.476   2.772
90322W        W58740  35.450   8.704  13.825
90323W        W58741  10.761  38.442  13.064
90324W        W58742  29.651   8.254   3.188
90325W        W58743   5.203   6.281   2.210
90326W        W58744   3.454  27.168   0.931
90327W        W58745  43.475  35.508   2.241
90328W        W58746  27.134  29.050  14.346
90329W        W58747  15.611  11.170  10.044
90330W        W58748  33.436  26.501   1.797
90331W        W58749  19.653  40.938   1.240
90332W        W58750  14.139  30.553   4.352
90333W        W58751  22.214  27.956  14.854
90334W        W58752   7.743  34.928  10.632
90335W        W58753  30.118   5.277   3.257
90336W        W58754  34.003  23.173  10.505
90337W        W58755  43.887  17.788  13.922
90338W        W58756  42.516  22.686  10.616
90339W        W58757  24.139  13.778   0.435
90340W        W58758  13.175  15.733  10.508
90341W        W58759  44.379  25.165   4.118
90342W        W58760  19.665  39.504   2.306
90343W        W58761  11.352  15.732   2.355
90344W        W58762  35.975  32.489  14.926
90345W        W58763   7.258  17.635  14.982
90346W        W58764  19.764  37.862   3.278
90347W        W58765   9.820  30.118  11.577
90348W        W58766  41.413  17.270  11.974
90349W        W58767   8.212  25.154   1.263
90350W        W58768   4.434  10.823   0.472
90351W        W58769   1.419  27.611  13.400
90352W        W58770  30.149  31.534   1.417
90353W        W58771  20.742   9.760  12.958
90354W        W58772   6.353  40.427   1.370
90355W        W58773   3.806  22.668  13.317
90356W        W58774   5.801  40.904  12.022
90357W        W58775  19.132  37.445  13.971
90358W        W58776  36.860  13.322  13.473
90359W        W58777  21.258  25.714  10.086
90360W        W58778   6.266  17.195   2.336
90361W        W58779  21.578  19.629  14.973
90362W        W58780  22.551  32.571   3.233
90363W        W58781   7.363   0.449   2.202
90364W        W58782  19.641  34.506   2.853
90365W        W58783  43.505  29.032  14.819
90366W        W58784  40.327  38.474  11.121
90367W        W58785   9.727  27.129  13.855
90368W        W58786  35.938  35.917  12.379
90369W        W58787   9.840  22.720  14.026
90370W        W58788  17.620   8.405  10.928
90371W        W58789  10.731   5.317  11.008
90372W        W58790   1.439   2.239  12.366
90373W        W58791  18.590  19.561   2.211
90374W        W58792  29.119  14.134  13.909
90375W        W58793  18.104   3.299  11.523
90376W        W58794  20.079  31.144  12.429
90377W        W58795  16.170  31.627   4.729
90378W        W58796  30.963   6.869   1.701
90379W        W58797  25.590  21.099   1.252
90380W        W58798  28.098  20.606   0.776
90381W        W58799   3.373  13.616   1.853
90382W        W58800  16.591  24.684   2.792
90383W        W58801  23.497  38.869  14.817
90384W        W58802  23.558  14.611  12.950
90385W        W58803   0.881   9.867  10.907
90386W        W58804  21.619  23.586   5.179
90387W        W58805  41.312   4.270  11.378
90388W        W58806  10.173  27.513   5.105
90389W        W58807  31.460  22.157   3.656
90390W        W58808  15.306   9.740  11.881
90391W        W58809  38.913  11.283  14.847
90392W        W58810   6.414  40.430  13.006
90393W        W58811  15.679  22.015  13.850
90394W        W58812  30.020  36.348  11.388
90395W        W58813   2.466  17.663   4.774
90396W        W58814  25.113  32.010  14.385
90397W        W58815  34.606  14.833   1.738
90398W        W58816  43.822  40.817   0.886
90399W        W58817   0.335  30.951  14.511
90400W        W58818   5.344   0.466   0.945
90401W        W58819   8.356   4.322  14.343
90402W        W58820  15.650  32.924   2.204
90403W        W58821  14.589  43.846  11.939
90404W        W58822  26.529  38.400  14.803
90405W        W58823  23.157  18.752  11.935
90406W        W58824   6.211  17.130  10.531
90407W        W58825  37.569  40.864  14.990
90408W        W58826  37.930   2.942  13.855
90409W        W58827  34.545  32.406  12.030
90410W        W58828  24.157  21.620  13.519
90411W        W58829  31.057  44.446   2.194
90412W        W58830  18.715  29.450   3.233
90413W        W58831   0.308  11.858   2.212
90414W        W58832  37.038  39.527   2.715
90415W        W58833  13.717  40.383  14.916
90416W        W58834  18.195  13.706  10.464
90417W        W58835  25.150  34.987   0.920
90418W        W58836   2.416   7.285   3.848
90419W        W58837  31.113  34.423   2.800
90420W        W58838   1.805   2.460   0.910
90421W        W58839   3.941   2.924  12.523
90422W        W58840  28.576  27.070   2.815
90423W        W58841  19.537   6.401   5.240
90424W        W58842  18.076  32.027  13.029
90425W        W58843  22.599   5.347  11.005
90426W        W58844  38.355   5.216  11.583
90427W        W58845  34.550  39.029   2.208
90428W        W58846  20.214  26.604  14.353
90429W        W58847   6.757  43.797   0.276
90430W        W58848  15.209  29.967   4.682
90431W        W58849  18.603   8.169   4.703
90432W        W58850  25.002  26.995   0.319
90433W        W58851  29.945  13.634   3.685
90434W        W58852  36.937   9.149   0.776
90435W        W58853  27.179  44.322  14.026
90436W        W58854   7.340  16.175   0.926
90437W        W58855  12.851  23.604   0.429
90438W        W58856  32.913  23.219   0.350
90439W        W58857  13.718  28.010   3.797
90440W        W58858  12.177  12.627   0.962
90441W        W58859  39.357  36.536   1.443
90442W        W58860  22.526  43.881  11.510
90443W        W58861   7.186  17.658   3.263
90444W        W58862   6.836  27.174  11.455
90445W        W58863  42.492   8.875   4.635
90446W        W58864  12.179   9.207  14.982
90447W        W58865   5.419  15.213   4.206
90448W        W58866  22.746  11.129   1.260
90449W        W58867  18.567  35.416  14.296
90450W        W58868  33.959  22.536   0.740
90451W        W58869  43.917   7.872   0.739
90452W        W58870  36.911   2.255   0.440
90453W        W58871  40.877  18.234  10.958
90454W        W58872  34.038  28.004  11.498
90455W        W58873  44.896  27.163  13.370
90456W        W58874  30.965  15.597   2.769
90457W        W58875  17.667   7.389   2.312
90458W        W58876  41.001   3.335   4.780
90459W        W58877   6.348  23.096   1.429
90460W        W58878   8.817  14.152  13.047
90461W        W58879  42.840   9.254  11.032
90462W        W58880  36.444  26.152   0.789
90463W        W58881   0.314  41.360  14.884
90464W        W58882   8.225  23.648   4.260
90465W        W58883  32.027  15.657   4.298
90466W        W58884  24.579   4.345  10.490
90467W        W58885   2.277  39.809   3.273
90468W        W58886  12.136  35.588   1.805
90469W        W58887  29.590  32.480   1.303
90470W        W58888  26.679  14.767  12.423
90471W        W58889   0.388  18.092  11.999
90472W        W58890  26.660  37.355  14.814
90473W        W58891  29.934  44.424  13.965
90474W        W58892  34.444  28.467   4.827
90475W        W58893  18.144  21.038  12.412
90476W        W58894  26.202  17.222  10.993
90477W        W58895  31.559  33.875   3.158
90478W        W58896  14.176  23.062  12.909
90479W        W58897  33.078  11.749  13.794
90480W        W58898   6.680  24.640  14.025
90481W        W58899   5.429   0.305   0.305
90482W        W58900  15.149  10.189  10.439
90483W        W58901  25.030  42.377  10.585
90484W        W58902  43.420   7.204   3.778
90485W        W58903  19.650  17.643   0.323
90486W        W58904  29.948  24.209  13.408
90487W        W58905  18.661   3.925  14.760
90488W        W58906   1.872   2.348  13.461
90489W        W58907   5.867  34.080   3.817
90490W        W58908   4.214  20.752   0.366
90491W        W58909  22.552  43.330   1.434
90492W        W58910  28.560  11.263  12.952
90493W        W58911  42.821  30.161   0.277
90494W        W58912   0.970   7.822  13.999
90495W        W58913  39.824  37.432  12.013
90496W        W58914  34.480  30.528   1.437
90497W        W58915   4.853  23.517   2.746
90498W        W58916   1.910   0.353   2.306
90499W        W58917  29.990  15.725  13.913
90500W        W58918  32.563  31.091   4.624
90501W        W58919  38.554  10.843  14.910
90502W        W58920  39.886  28.538  12.545
90503W        W58921  14.168  23.714   0.767
90504W        W58922   6.894  32.984  14.939
90505W        W58923  44.462  26.607   5.096
90506W        W58924   7.821  22.058  11.456
90507W        W58925  28.133  21.716  14.894
90508W        W58926   6.407  18.773  11.527
90509W        W58927  40.372  32.916   3.688
90510W        W58928   4.305  32.439  10.485
90511W        W58929  33.457   6.711   1.752
90512W        W58930  15.597  20.667   3.261
90513W        W58931  21.751   8.767   1.705
90514W        W58932  31.618  12.219  13.973
90515W        W58933  15.703  44.903  13.902
90516W        W58934  22.736  19.169   4.265
90517W        W58935   6.345  37.028  13.538
90518W        W58936  11.762  28.967   4.210
90519W        W58937   9.670  27.994   0.293
90520W        W58938   8.363  31.599  14.341
90521W        W58939  43.465  35.383   3.685
90522W        W58940  22.623  31.113   4.651
90523W        W58941  11.822  32.402   0.332
90524W        W58942   7.346  26.015  10.499
90525W        W58943   2.840  27.609  12.832
90526W        W58944   9.354  15.248  11.536
90527W        W58945  11.281  18.767   0.749
90528W        W58946  27.029  35.441  12.428
90529W        W58947  43.981  12.116   4.804
90530W        W58948  32.539  43.866   2.876
90531W        W58949  40.839  21.049  13.848
90532W        W58950  13.668  18.237   4.338
90533W        W58951  35.923  21.039  12.030
90534W        W58952  12.820   1.833   4.347
90535W        W58953  25.983  29.658  14.311
90536W        W58954   8.772  16.780   4.354
90537W        W58955   3.406   9.754   0.359
90538W        W58956  40.413  17.258  10.904
90539W        W58957   0.971  36.887   4.223
90540W        W58958  27.167  27.525  11.484
90541W        W58959  30.499   7.765   3.353
90542W        W58960  31.071  27.544  11.045
90543W        W58961  28.990  26.084   1.395
90544W        W58962  18.267  24.004   2.314
90545W        W58963  26.625  11.267  10.920
90546W        W58964  11.260  29.597  11.887
90547W        W58965   8.766  24.167   4.166
90548W        W58966  16.779  32.917  14.787
90549W        W58967  24.663   5.761   4.346
90550W        W58968  28.449  27.451   2.765
90551W        W58969  19.620  25.154  13.002
90552W        W58970  32.070  42.003  12.941
90553W        W58971  38.560  32.118  14.479
90554W        W58972  20.111  21.746  11.582
90555W        W58973  39.366  27.686   1.305
90556W        W58974  43.469  11.334  12.411
90557W        W58975  26.188  28.461  12.340
90558W        W58976   4.324  43.439  12.412
90559W        W58977  25.671  21.524   1.398
90560W        W58978   6.423  19.650   1.383
90561W        W58979   6.280  22.547  14.798
90562W        W58980  41.309  18.146  13.913
90563W        W58981  31.139  39.979   0.396
90564W        W58982  36.524  13.684   0.810
90565W        W58983   6.314  38.465   4.645
90566W        W58984  30.450  29.928  10.911
90567W        W58985   2.413   5.271  10.560
90568W        W58986  19.147  43.890   3.239
90569W        W58987  16.582  37.012   2.179
90570W        W58988   4.866  29.132  12.431
90571W        W58989  17.283  25.013  12.042
90572W        W58990  26.486  25.188  11.612
90573W        W58991  32.504  23.992  10.578
90574W        W58992  16.293  42.775   5.259
90575W        W58993   1.318  43.955  11.528
90576W        W58994   1.464  29.991  12.432
90577W        W58995  13.697  10.763   2.729
90578W        W58996  13.660  39.455   4.347
90579W        W58997  34.372  38.956   4.291
90580W        W58998  35.462  37.358   0.266
90581W        W58999  12.830  30.064  12.027
90582W        W59000  41.905  34.939   3.829
90583W        W59001  28.545  22.019   1.391
90584W        W59002  10.830   9.362   0.769
90585W        W59003  29.616   1.734  11.913
90586W        W59004   0.274  25.669   4.323
90587W        W59005   8.660  33.914  11.123
90588W        W59006  30.558  37.384   2.733
90589W        W59007  18.645  43.350  12.468
90590W        W59008  43.014  40.504   1.230
90591W        W59009  10.285  15.684   0.869
90592W        W59010  44.378  12.288  12.055
90593W        W59011  24.707   1.473  11.916
90594W        W59012  12.707  25.609  11.888
90595W        W59013  25.577  21.724   2.903
90596W        W59014   5.730  12.853   1.813
90597W        W59015  22.557  26.662  12.427
90598W        W59016  14.206  34.892   2.772
90599W        W59017  41.371   8.242  12.824
90600W        W59018  36.910  35.442   4.673
90601W        W59019   2.844  18.684   3.275
90602W        W59020  41.984  28.637  13.326
90603W        W59021   3.329  34.939  10.898
90604W        W59022  19.227   0.381  13.542
90605W        W59023  36.399  20.168   0.405
90606W        W59024  30.088  10.697  13.045
90607W        W59025  31.936  13.711   3.833
90608W        W59026  11.680  12.637   1.359
90609W        W59027  34.379  29.480  13.407
90610W        W59028  40.491  28.457   0.377
90611W        W59029   2.881  36.921   1.361
90612W        W59030  11.247  36.569   0.423
90613W        W59031   2.374  10.159  12.442
90614W        W59032  17.120  21.250   5.100
90615W        W59033   2.302  35.527  13.062
90616W        W59034  35.976   8.330   0.442
90617W        W59035  44.316  32.476   4.640
90618W        W59036  22.655  17.586  11.374
90619W        W59037  33.435  41.364  10.609
90620W        W59038  22.080  28.649   4.642
90621W        W59039  36.505  19.689   2.239
90622W        W59040   6.250  18.239  12.988
90623W        W59041  29.560  39.879  13.878
90624W        W59042  17.191   9.668  12.003
90625W        W59043  25.668  33.541  14.389
90626W        W59044   8.356  24.703   2.414
90627W        W59045   4.934  34.922   4.731
90628W        W59046  11.782  20.604   2.731
90629W        W59047  14.589  16.225   2.717
90630W        W59048  39.382  12.721  14.389
90631W        W59049  25.153  31.508   1.252
90632W        W59050  29.991  21.065   2.269
90633W        W59051  24.104  14.185   0.895
90634W        W59052  38.495   8.320  14.409
90635W        W59053  29.523  36.444   4.216
90636W        W59054  36.003  33.455  14.898
90637W        W59055  43.493   4.231  12.497
90638W        W59056  28.514  19.166   4.287
90639W        W59057  34.996   9.827  13.958
90640W        W59058   1.934  16.721  14.284
90641W        W59059  28.052  36.551  12.950
90642W        W59060  41.405  20.749  14.854
90643W        W59061   9.740  37.471   3.344
90644W        W59062  17.192   1.908  12.470
90645W        W59063  17.646  39.864   1.855
90646W        W59064  26.046  41.916   0.769
90647W        W59065  24.150  26.531   4.759
90648W        W59066  16.111  15.299  14.811
90649W        W59067  28.079   8.857   9.925
90650W        W59068   6.262  27.005   4.833
90651W        W59069  35.009  26.510  14.986
90652W        W59070  21.097  37.533  14.969
90653W        W59071  27.533   3.855   4.733
90654W        W59072  43.984   5.760  11.551
90655W        W59073  20.728  30.447   4.725
90656W        W59074  14.244  39.535  12.559
90657W        W59075  15.162  13.835  13.812
90658W        W59076  12.178  31.956  12.891
90659W        W59077   9.391  33.433   1.290
90660W        W59078  44.427  31.900  14.333
90661W        W59079  28.486  34.873  12.562
90662W        W59080  20.730  14.711   0.366
90663W        W59081  31.138   3.417  14.030
90664W        W59082  26.525  23.546  14.441
90665W        W59083  21.189   4.801  10.524
90666W        W59084  21.182  21.742   2.236
90667W        W59085   0.399  15.281  14.455
90668W        W59086  34.916  10.141   3.717
90669W        W59087  39.477  23.062   4.604
90670W        W59088  23.128   6.915  12.832
90671W        W59089  29.972  43.382  13.927
90672W        W59090   7.408  33.588  14.410
90673W        W59091  44.882  36.478   0.914
90674W        W59092  38.926  43.980   0.761
90675W        W59093  40.946  28.636   4.167
90676W        W59094  35.858   9.819  14.912
90677W        W59095  24.087  39.538  12.957
90678W        W59096  27.543  16.181   4.834
90679W        W59097  38.325  36.945  14.349
90680W        W59098  30.967  36.591  13.859
90681W        W59099   4.213   3.712  10.917
90682W        W59100  42.020  16.251  14.450
90683W        W59101   9.379  27.181   4.670
90684W        W59102  27.156  29.668   4.775
90685W        W59103  22.638   3.377  11.415
90686W        W59104  18.110   9.265   1.925
90687W        W59105  35.524  32.464   4.223
90688W        W59106  35.473  29.964   0.829
90689W        W59107  43.876  21.186   4.665
90690W        W59108  25.968   4.931  11.375
90691W        W59109  41.808  11.337   0.776
90692W        W59110  24.625   4.900   4.797
90693W        W59111  15.094  15.162  14.834
90694W        W59112  16.137   6.310  10.139
90695W        W59113  34.055   4.806  12.927
90696W        W59114  30.112  31.497  12.033
90697W        W59115   6.272   4.269  12.536
90698W        W59116  29.667  13.306  12.890
90699W        W59117  13.156  15.183   2.738
90700W        W59118  24.092  34.382  10.045
90701W        W59119  24.509  15.599  12.509
90702W        W59120  14.811  29.484  14.005
90703W        W59121   7.816  32.580   2.379
90704W        W59122  20.563  17.248  10.942
90705W        W59123   9.794  35.085   4.121
90706W        W59124  37.575   4.927   4.340
90707W        W59125   1.847  34.384  11.947
90708W        W59126  24.977  30.472  10.888
90709W        W59127  13.325  11.152  14.320
90710W        W59128  19.592   1.817  14.288
90711W        W59129  10.751  41.371   1.871
90712W        W59130  38.838  28.550  12.062
90713W        W59131   4.368  10.859  11.509
90714W        W59132  27.959   0.903  10.622
90715W        W59133   2.837  43.891   4.625
90716W        W59134  16.291  19.176   0.882
90717W        W59135  30.563   0.901   3.239
90718W        W59136  19.236  11.161   5.305
90719W        W59137  11.760  16.701  12.563
90720W        W59138  41.942   2.456  14.466
90721W        W59139   4.396  42.509  10.951
90722W        W59140  19.539  28.123   3.279
90723W        W59141   0.295  29.052   0.372
90724W        W59142  38.548   6.200  12.369
90725W        W59143  12.640  11.185  10.919
90726W        W59144  39.322  43.928  12.064
90727W        W59145  27.593  12.756  12.385
90728W        W59146  31.533  13.631   1.908
90729W        W59147   2.423   0.479   0.278
90730W        W59148  35.511   3.240   1.798
90731W        W59149  27.507  30.012   2.718
90732W        W59150  28.636   8.888   3.299
90733W        W59151  38.498   9.249   4.660
90734W        W59152  18.278  12.251   4.350
90735W        W59153  39.875   0.357   1.368
90736W        W59154   5.420  15.176  13.484
90737W        W59155  22.654  19.176   3.641
90738W        W59156   1.742  34.533  12.340
90739W        W59157  30.153  43.309   0.281
90740W        W59158  13.126  37.558   0.315
90741W        W59159  15.108  39.459  13.449
90742W        W59160  13.796  36.990   2.229
90743W        W59161  36.045  16.199  10.549
90744W        W59162  38.368  25.493  14.888
90745W        W59163   9.693  16.783  14.417
90746W        W59164  23.722  28.479   1.398
90747W        W59165  19.170  39.449  14.971
90748W        W59166   5.724  39.374   1.280
90749W        W59167   2.468  39.468   2.356
90750W        W59168  36.440  29.527  13.018
90751W        W59169  41.953  19.208  14.361
90752W        W59170  33.935  21.555  12.043
90753W        W59171  12.144  24.119  12.845
90754W        W59172   3.219  41.442  13.978
90755W        W59173  19.625  30.064  14.347
90756W        W59174   2.285  21.645   3.362
90757W        W59175  24.114  34.925   3.212
90758W        W59176  28.039   1.446  10.420
90759W        W59177   8.237  34.020  12.988
90760W        W59178  36.943   7.403  10.629
90761W        W59179   5.390  34.525  13.033
90762W        W59180  42.349   8.730  11.890
90763W        W59181   7.192  43.922  13.935
90764W        W59182  15.229   1.238  14.797
90765W        W59183  39.451  39.527  12.416
90766W        W59184  30.562  13.657   4.805
90767W        W59185  24.998  22.664   3.285
90768W        W59186  39.548  38.928  13.495
90769W        W59187   2.281  44.768  13.812
90770W        W59188  38.346  37.363  13.389
90771W        W59189  29.570  42.981  10.140
90772W        W59190  20.661  20.160  10.439
90773W        W59191  29.547  10.792  12.535
90774W        W59192  14.608   8.741   1.236
90775W        W59193   2.935  25.556   4.599
90776W        W59194  33.952  33.497   4.638
90777W        W59195  43.850  39.957  11.002
90778W        W59196  44.820  16.204   4.693
90779W        W59197  33.542  43.810   1.763
90780W        W59198  42.903  19.157  14.763
90781W        W59199  14.270  36.373  14.982
90782W        W59200  35.072  25.176  13.373
90783W        W59201  39.323   1.399   1.835
90784W        W59202  35.980   3.819  11.075
90785W        W59203   6.701  35.385   2.247
90786W        W59204   6.349  41.011  11.125
90787W        W59205  21.717  28.051  13.797
90788W        W59206  28.577  25.614  12.491
90789W        W59207  41.844  13.625   5.105
90790W        W59208  15.174  22.048  10.950
90791W        W59209  30.923  31.114  12.345
90792W        W59210  20.649  35.051   2.826
90793W        W59211  20.526  22.606   0.944
90794W        W59212  13.775   8.897   2.298
90795W        W59213  27.092  32.949  13.862
90796W        W59214  35.955  14.740   4.652
90797W        W59215  29.469  44.342  11.574
90798W        W59216  34.396  35.071  12.032
90799W        W59217   9.382  28.522  11.398
90800W        W59218  24.102  35.594  13.041
90801W        W59219  28.061  31.997  13.052
90802W        W59220  34.455  32.909  11.418
90803W        W59221  28.154  42.524   4.811
90804W        W59222  41.502   7.367  11.542
90805W        W59223   8.772  15.087   4.330
90806W        W59224  39.967  18.654   0.426
90807W        W59225  12.335  44.365   0.306
90808W        W59226  37.354   3.294  14.925
90809W        W59227   6.233  44.773  11.496
90810W        W59228  34.870   0.483  11.524
90811W        W59229   4.852   7.343   1.247
90812W        W59230  40.920  15.717   3.857
90813W        W59231   7.177  15.220  14.913
90814W        W59232  36.431   0.386  14.299
90815W        W59233   5.279  42.456   0.461
90816W        W59234  13.329  12.124   1.746
90817W        W59235  37.552  43.436  11.942
90818W        W59236  28.114  12.347   1.771
90819W        W59237  35.861   9.372  11.100
90820W        W59238  35.488   8.276  13.314
90821W        W59239   6.865  29.447   0.366
90822W        W59240  10.194  35.435  12.957
90823W        W59241   6.867  44.383   1.401
90824W        W59242  31.412  17.301  10.462
90825W        W59243  35.371  23.155   3.313
90826W        W59244  20.684   4.852  11.904
90827W        W59245  13.183   2.350  12.845
90828W        W59246  16.574  25.027   0.923
90829W        W59247  19.128  40.878   0.916
90830W        W59248   3.261  22.747  10.480
90831W        W59249  38.518   4.742   4.694
90832W        W59250   2.724  41.017  10.520
90833W        W59251   9.717  25.712  13.799
90834W        W59252  12.724   1.897  10.908
90835W        W59253  37.014  33.997   0.862
90836W        W59254  36.081  31.512   3.203
90837W        W59255  35.600  33.614   4.288
90838W        W59256  16.736   6.231   4.147
90839W        W59257  19.582  28.623   4.765
90840W        W59258  38.840  30.647   1.365
90841W        W59259  36.909  29.123  14.938
90842W        W59260  21.564  27.940   1.874
90843W        W59261  42.912  17.304   3.349
90844W        W59262  21.584  32.534   4.679
90845W        W59263  14.830  30.032  12.387
90846W        W59264   4.877  27.134   2.836
90847W        W59265  29.034  40.997   1.448
90848W        W59266  34.048  33.903   4.708
90849W        W59267  10.857  13.753   4.708
90850W        W59268  27.613  32.492  14.807
90851W        W59269  42.020  11.336   3.866
90852W        W59270   7.729  29.989   3.643
90853W        W59271  32.492  43.328   3.316
90854W        W59272  18.758  32.080  11.451
90855W        W59273  42.353  33.919   1.718
90856W        W59274  43.272  21.592  10.119
90857W        W59275  31.058  44.855  12.513
90858W        W59276  36.068  42.501   1.412
90859W        W59277   5.811   1.739  11.082
90860W        W59278  27.567  34.875   3.386
90861W        W59279  13.175  27.654   4.180
90862W        W59280   2.835  43.953  12.926
90863W        W59281  11.636  19.272  13.059
90864W        W59282   7.743   1.385  12.901
90865W        W59283  16.717  27.164  13.021
90866W        W59284  19.127  12.303   1.381
90867W        W59285  12.300  41.355  14.320
90868W        W59286  20.269  15.693   1.788
90869W        W59287  22.570  37.974  11.968
90870W        W59288  10.635  39.036  13.044
90871W        W59289  14.660  11.851   3.324
90872W        W59290  35.584   4.730   0.746
90873W        W59291  31.071  11.373  11.922
90874W        W59292  40.337  13.674   4.642
90875W        W59293  41.851  24.518  12.885
90876W        W59294  42.329  44.320  10.478
90877W        W59295   9.666   7.320  14.952
90878W        W59296  44.342  21.130  11.374
90879W        W59297  16.668  10.831   3.256
90880W        W59298  26.639  19.255   1.922
90881W        W59299   1.792  23.546  11.932
90882W        W59300  15.772  39.536  11.379
90883W        W59301  30.970  33.583  13.915
90884W        W59302  41.375  24.485   2.823
90885W        W59303  21.214  26.694   4.598
90886W        W59304  25.472  26.562  14.370
90887W        W59305  33.496  28.127  10.928
90888W        W59306   9.881  11.659   0.298
90889W        W59307   5.371  21.532   3.819
90890W        W59308   5.328  35.601   4.790
90891W        W59309  25.600  20.056   1.909
90892W        W59310  41.917   4.860  13.800
90893W        W59311   2.928   1.247  13.059
90894W        W59312  10.825  19.719   1.431
90895W        W59313  23.511  20.561  12.878
90896W        W59314  43.442  31.483   3.825
90897W        W59315  30.156  22.210   4.758
90898W        W59316  40.009   6.691  12.889
90899W        W59317   5.221  39.526   0.431
90900W        W59318  21.256   7.313  14.807
90901W        W59319   4.843  25.575  13.992
90902W        W59320  41.311  41.294   4.693
90903W        W59321  33.510  37.956  14.778
90904W        W59322   3.732  29.624  11.584
90905W        W59323  22.164  35.445  13.987
90906W        W59324   9.199  35.042  11.885
90907W        W59325  31.614  28.636   3.720
90908W        W59326  17.101  27.490   4.161
90909W        W59327  31.098  42.359   4.828
90910W        W59328  28.675  31.507   1.734
90911W        W59329  18.566   3.286   0.909
90912W        W59330  18.251  17.300   0.842
90913W        W59331  40.840  17.287   3.353
90914W        W59332  29.575  40.837  14.415
90915W        W59333  41.511  12.300  12.875
90916W        W59334  16.761  40.993  10.970
90917W        W59335  43.465  15.281   0.473
90918W        W59336  41.024  34.525   0.957
90919W        W59337  21.661   7.229  12.536
90920W        W59338  40.854  24.060  13.922
90921W        W59339  27.662  34.022  10.457
90922W        W59340  26.564  19.717  10.559
90923W        W59341  21.146  42.426  11.089
90924W        W59342  38.475  38.916  13.320
90925W        W59343  31.941  21.119   5.086
90926W        W59344   7.895  41.480   2.388
90927W        W59345   3.840  22.998  12.401
90928W        W59346  32.080  44.445   5.213
90929W        W59347  43.420  35.878   1.757
90930W        W59348  40.048   8.346   3.166
90931W        W59349  40.361  33.053   1.284
90932W        W59350  10.793  33.109  11.490
90933W        W59351  23.150  29.968   2.724
90934W        W59352  15.097  29.956   1.378
90935W        W59353  27.067  20.751  13.435
90936W        W59354  43.279   1.318  12.365
90937W        W59355  44.788  11.744  12.093
90938W        W59356  23.583  43.325  12.090
90939W        W59357  23.643  31.524  14.424
90940W        W59358  21.166  34.997  13.373
90941W        W59359  35.362  12.791  11.893
90942W        W59360   0.303  30.481   1.213
90943W        W59361  21.188   7.243  10.603
90944W        W59362  26.132  29.589   3.867
90945W        W59363  27.512   0.895   1.239
90946W        W59364  31.424  35.048   3.373
90947W        W59365  41.451  12.660   3.738
90948W        W59366   1.754  17.251  10.575
90949W        W59367  32.137  23.591  10.480
90950W        W59368  23.025  14.782   3.720
90951W        W59369  16.574  26.091  11.414
90952W        W59370  26.580  41.458   0.406
90953W        W59371  40.454  20.108  14.888
90954W        W59372  19.646  36.886   2.676
90955W        W59373  40.922  27.093  14.415
90956W        W59374  12.314   9.198  11.985
90957W        W59375  41.840  38.974   3.870
90958W        W59376  33.516  33.516   4.119
90959W        W59377  27.559   7.233   3.265
90960W        W59378  43.986  22.234   4.192
90961W        W59379  28.444  37.064  14.811
90962W        W59380  22.174  24.192  14.336
90963W        W59381  23.142  16.262  14.021
90964W        W59382  13.154  24.495   4.768
90965W        W59383  37.973  31.645   0.804
90966W        W59384  14.204  39.338   1.212
90967W        W59385  41.007  41.530  12.913
90968W        W59386  42.415  14.614   1.210
90969W        W59387   0.934  41.512  13.497
90970W        W59388  22.708   7.871   3.262
90971W        W59389  10.233   7.856  12.886
90972W        W59390  13.203  26.044  14.842
90973W        W59391  10.800   4.777  12.347
90974W        W59392  17.063  37.016  11.112
90975W        W59393  44.884  39.934  12.945
90976W        W59394  34.027  38.415  11.921
90977W        W59395   9.202   7.786  12.398
90978W        W59396   4.301  40.928   0.919
90979W        W59397  44.489  37.980   0.263
90980W        W59398  15.314   7.373  11.555
90981W        W59399  23.098  29.167  12.407
90982W        W59400  26.085  15.326  14.925
90983W        W59401  10.285  11.136  11.490
90984W        W59402  25.582  11.766   1.267
90985W        W59403  38.431  26.579  10.921
90986W        W59404  36.544  41.368  12.837
90987W        W59405  14.827   9.353  10.550
90988W        W59406  25.491  28.044  13.390
90989W        W59407  32.062  36.029  13.405
90990W        W59408   8.790  19.049  10.997
90991W        W59409  31.636  38.518  12.387
90992W        W59410  42.329  35.985   3.272
90993W        W59411   1.263  29.445   3.646
90994W        W59412  39.334   4.291  13.807
90995W        W59413  36.993   0.397  14.430
90996W        W59414  19.778  24.023   2.728
90997W        W59415   6.892  42.280  14.507
90998W        W59416  20.706  39.939  12.059
90999W        W59417   3.415  35.481   0.426
91000W        W59418  40.354   9.372   1.252
91001W        W59419  42.485  19.551   2.412
91002W        W59420   9.659  40.399   0.846
91003W        W59421  10.240  41.914   2.252
91004W        W59422  10.358  17.247  14.009
91005W        W59423  42.965  29.921  12.343
91006W        W59424  24.574  32.889   1.364
91007W        W59425  31.046  20.768   2.712
91008W        W59426  15.678  25.667   3.370
91009W        W59427  25.031  44.341   4.762
91010W        W59428  22.577  39.365   4.738
91011W        W59429  29.435  11.756   0.773
91012W        W59430  20.100  17.756   4.255
91013W        W59431   3.778  39.914  10.557
91014W        W59432  23.530  43.910   3.291
91015W        W59433  20.177  28.028   0.413
91016W        W59434   4.836   0.369  10.058
91017W        W59435  16.223  26.055  10.589
91018W        W59436  39.014  13.602  11.863
91019W        W59437  12.116  22.235   2.301
91020W        W59438  29.080  44.436   4.775
91021W        W59439  38.064  12.230   3.376
91022W        W59440  11.637  39.464  12.002
91023W        W59441  36.920  36.499  12.007
91024W        W59442   8.728  41.399   2.355
91025W        W59443  39.848  33.044   4.598
91026W        W59444  36.352   4.369  14.899
91027W        W59445   3.897  43.847   0.963
91028W        W59446  25.017  23.675  10.433
91029W        W59447   3.809   1.267   0.861
91030W        W59448   1.918  39.552   1.380
91031W        W59449   0.273  17.301  10.931
91032W        W59450  27.586  34.546   0.342
91033W        W59451  28.487   4.432   2.742
91034W        W59452  26.606  34.987  14.276
91035W        W59453  34.468   8.664   0.853
91036W        W59454  11.701   3.790  10.621
91037W        W59455  21.206  36.062   4.275
91038W        W59456  15.132  44.470   2.317
91039W        W59457  17.707   0.900  13.380
91040W        W59458   5.811  37.018   3.278
91041W        W59459  14.765  32.637   4.240
91042W        W59460  35.029  20.146   3.826
91043W        W59461  33.574  31.906   2.742
91044W        W59462  42.526   4.763   1.262
91045W        W59463  34.915  19.728   3.182
91046W        W59464  11.313  28.457   3.319
91047W        W59465  23.086  33.954  12.450
91048W        W59466   1.841   7.740  13.443
91049W        W59467  25.634  10.204   3.683
91050W        W59468  43.906  43.796   0.279
91051W        W59469   3.720  38.424   4.354
91052W        W59470  17.715  20.182   0.763
91053W        W59471   3.217  15.204   3.655
91054W        W59472  42.979  24.097   9.441
91055W        W59473  33.095  19.757  14.440
91056W        W59474   3.716  20.562   5.586
91057W        W59475  37.021  36.494   2.267
91058W        W59476  11.629  15.262  12.918
91059W        W59477  25.480  27.148  13.803
91060W        W59478  24.083  25.160   0.362
91061W        W59479  16.254   9.807  10.542
91062W        W59480   0.415  36.029  12.940
91063W        W59481  14.832  13.781  12.096
91064W        W59482  13.784  14.802  13.891
91065W        W59483  30.983  24.540   3.253
91066W        W59484  30.054  37.557  13.901
91067W        W59485  13.168  32.926   0.271
91068W        W59486   8.405  37.485  13.917
91069W        W59487  35.061   1.445  13.040
91070W        W59488  16.713  37.439   0.900
91071W        W59489  15.108   1.742   3.205
91072W        W59490  36.998   1.912   2.668
91073W        W59491  21.754  43.500  13.907
91074W        W59492  38.069  20.698   0.435
91075W        W59493  32.925  27.618   4.778
91076W        W59494  18.104  31.474  12.459
91077W        W59495   9.791   5.296   2.869
91078W        W59496  39.447   1.974   4.152
91079W        W59497  26.028  30.994   3.367
91080W        W59498  15.598  43.818   3.701
91081W        W59499   2.771  23.610   4.802
91082W        W59500  11.663   2.333   4.709
91083W        W59501  37.414  24.598   1.445
91084W        W59502  41.875  41.407  10.461
91085W        W59503   1.800  33.447   3.201
91086W        W59504  28.649  20.672  11.382
91087W        W59505  32.132  28.938  13.442
91088W        W59506  33.428  13.230   5.099
91089W        W59507   4.858  39.517   0.380
91090W        W59508   1.963  38.442   1.220
91091W        W59509   4.715  37.065   3.847
91092W        W59510   9.857   0.923   2.667
91093W        W59511   3.727  15.726   4.816
91094W        W59512  40.932  28.106   2.311
91095W        W59513  39.317  21.085   4.628
91096W        W59514  10.645   2.866   2.871
91097W        W59515  23.039  10.215   4.806
91098W        W59516  22.205   0.854   3.152
91099W        W59517   5.763  37.883  14.281
91100W        W59518  20.757  35.370   3.835
91101W        W59519   2.264  36.509  11.379
91102W        W59520   1.889  41.834  12.857
91103W        W59521  27.124   0.750   2.736
91104W        W59522  31.049  16.185  13.500
91105W        W59523  11.193  39.506  14.968
91106W        W59524  36.871   3.903  10.963
91107W        W59525  44.776  11.768  11.567
91108W        W59526  16.699  36.898   0.805
91109W        W59527  35.891  35.392  12.968
91110W        W59528  37.883  22.048  10.493
91111W        W59529  36.425  30.599   4.662
91112W        W59530  20.242  27.608  13.538
91113W        W59531  18.239  39.839   0.247
91114W        W59532  23.575  40.922  10.014
91115W        W59533  18.077  34.609   1.305
91116W        W59534   5.823  31.997  14.941
91117W        W59535   6.902  26.171  12.833
91118W        W59536   9.881  41.950  11.585
91119W        W59537  22.228   1.896  13.490
91120W        W59538  25.614  18.240   2.745
91121W        W59539  21.570  38.372   4.663
91122W        W59540   7.695  23.125  11.435
91123W        W59541  24.019  29.997  13.501
91124W        W59542  33.979  37.041   4.641
91125W        W59543  40.386  30.511   4.308
91126W        W59544  42.951  35.436   0.434
91127W        W59545  42.027  11.359  14.836
91128W        W59546   4.311  30.616   3.342
91129W        W59547  37.989  12.779   1.761
91130W        W59548  25.133  22.151   3.237
91131W        W59549   2.796  26.681   0.819
91132W        W59550  30.158   8.681   3.324
91133W        W59551   3.276  28.939   3.653
91134W        W59552  29.968   7.720  12.963
91135W        W59553  38.848   2.403   2.299
91136W        W59554   4.377   4.882  11.607
91137W        W59555  35.583   2.402  11.494
91138W        W59556   9.865  33.116   1.773
91139W        W59557  11.691  28.579  11.073
91140W        W59558   7.717  37.364  12.092
91141W        W59559  24.214  31.110  11.545
91142W        W59560  36.898  21.243  11.384
91143W        W59561  44.969  11.234   2.389
91144W        W59562  23.076  37.078   3.772
91145W        W59563  31.153  30.556   2.237
91146W        W59564  39.549  25.704   0.320
91147W        W59565  10.353   2.725   0.922
91148W        W59566   0.746  42.360   4.253
91149W        W59567  10.269  37.971   3.684
91150W        W59568   7.678  29.138  12.855
91151W        W59569   4.756  10.637   3.736
91152W        W59570  34.480  22.554  11.093
91153W        W59571  42.946   9.204   4.737
91154W        W59572  25.632  44.324   1.391
91155W        W59573  32.104  27.986  10.933
91156W        W59574  28.653   8.820   2.340
91157W        W59575  13.230  31.009  12.064
91158W        W59576  15.128  39.900   0.287
91159W        W59577  15.310  31.132  13.008
91160W        W59578   1.748   7.411  11.060
91161W        W59579  41.439  25.670  10.418
91162W        W59580  41.531  38.571   3.688
91163W        W59581  42.830  24.703   5.210
91164W        W59582  25.565  34.040  13.933
91165W        W59583  18.151  21.114   4.321
91166W        W59584  11.127  36.499  11.469
91167W        W59585  40.981   4.923  14.891
91168W        W59586   6.900  23.539   4.291
91169W        W59587  43.389  14.217   0.753
91170W        W59588  32.492  30.455  13.038
91171W        W59589  12.764   8.194   4.617
91172W        W59590   7.891   5.849   2.885
91173W        W59591  26.539  21.736  13.801
91174W        W59592   2.905  24.038   4.185
91175W        W59593  36.885  17.106   4.115
91176W        W59594   6.838  27.512  14.025
91177W        W59595  40.915  22.174   2.397
91178W        W59596   8.216  25.666   0.359
91179W        W59597  10.875   9.697  13.844
91180W        W59598  12.731   5.214   1.887
91181W        W59599  30.507  11.633   4.616
91182W        W59600  36.867  16.570   3.745
91183W        W59601  29.509  34.944   5.158
91184W        W59602  10.332  12.627  14.341
91185W        W59603  15.267  24.108  14.394
91186W        W59604  36.962   0.848  13.469
91187W        W59605  17.628  21.062  13.493
91188W        W59606  31.973  16.099   0.909
91189W        W59607   7.225  17.659  11.518
91190W        W59608  18.754  42.450  13.006
91191W        W59609  19.203   0.896   3.791
91192W        W59610  26.568  22.089   3.853
91193W        W59611  10.148  35.042  11.916
91194W        W59612  42.450  14.300  13.504
91195W        W59613  25.602  32.886  10.543
91196W        W59614  20.744  23.119  10.522
91197W        W59615  40.835  34.385  11.554
91198W        W59616  16.232  11.655  10.554
91199W        W59617  34.916   0.323  14.026
91200W        W59618  23.707   4.913  10.961
91201W        W59619  35.399  41.910  13.969
91202W        W59620  43.310  35.421  12.862
91203W        W59621   3.912  25.109  14.959
91204W        W59622  19.206  34.019  10.503
91205W        W59623   0.254   6.732  10.612
91206W        W59624  28.159  29.603   4.119
91207W        W59625  22.693  30.495   3.750
91208W        W59626  42.980   5.925   3.819
91209W        W59627  34.535  21.578   3.204
91210W        W59628  23.149  33.948  11.904
91211W        W59629  34.078  35.518   2.376
91212W        W59630  18.129  26.599   3.289
91213W        W59631  19.671  22.012   2.291
91214W        W59632  34.400  20.251  12.340
91215W        W59633  26.535  42.787   1.913
91216W        W59634  37.068  35.439  12.417
91217W        W59635  37.566  23.217   0.850
91218W        W59636  18.560  31.625  12.002
91219W        W59637  15.707  38.352   2.738
91220W        W59638   3.373  10.740  11.575
91221W        W59639  41.505  27.169  13.013
91222W        W59640  28.558  14.687  13.466
91223W        W59641  40.852  12.641   2.358
91224W        W59642  32.088   7.811  10.973
91225W        W59643  32.922   2.922  13.935
91226W        W59644  30.139   7.766   5.244
91227W        W59645  11.243   6.378  14.764
91228W        W59646   7.270  23.048  13.062
91229W        W59647  42.991  14.821  14.902
91230W        W59648  37.401  34.557   3.233
91231W        W59649  44.005  20.081  13.460
91232W        W59650   0.350  20.580  11.999
91233W        W59651  39.063  26.655   3.248
91234W        W59652  26.194  36.374  14.427
91235W        W59653   1.940  30.960   3.808
91236W        W59654  27.504   1.912  11.487
91237W        W59655  43.014  37.539  10.110
91238W        W59656   5.923  38.440  13.056
91239W        W59657  18.777  18.078  11.571
91240W        W59658   8.865   0.404  10.552
91241W        W59659  32.084  41.367   4.325
91242W        W59660  14.160   9.809  10.571
91243W        W59661   7.797  30.143  10.600
91244W        W59662  12.826  42.940  10.637
91245W        W59663   2.432  23.592   5.202
91246W        W59664   9.735  42.931   0.883
91247W        W59665  40.377  37.841  12.872
91248W        W59666  19.049  28.599  13.923
91249W        W59667  16.798  16.091  10.447
91250W        W59668   6.263  19.065   1.431
91251W        W59669  42.986  28.522   3.868
91252W        W59670  19.265   9.663   4.249
91253W        W59671   8.817  19.719   0.742
91254W        W59672  17.205  44.505  14.913
91255W        W59673  12.135  38.970   2.321
91256W        W59674   1.421  21.599  11.440
91257W        W59675  30.153  23.044  13.984
91258W        W59676  35.973  42.282  11.105
91259W        W59677  23.726  21.263  12.495
91260W        W59678   7.895  34.475  11.566
91261W        W59679   2.825  10.289   2.750
91262W        W59680  34.091  19.285   0.477
91263W        W59681  26.460   6.272   3.262
91264W        W59682  36.093  35.014   2.671
91265W        W59683  20.552  25.980   5.225
91266W        W59684  41.980  40.343   2.326
91267W        W59685   4.381  11.226  13.443
91268W        W59686  40.014  12.723  14.768
91269W        W59687  23.569  42.827   0.730
91270W        W59688  10.830  42.482  12.351
91271W        W59689   8.197  40.343  14.899
91272W        W59690  26.982  12.844   3.748
91273W        W59691  12.254  21.758  13.860
91274W        W59692   0.369  12.329   5.800
91275W        W59693  41.984  11.173   0.283
91276W        W59694  30.953  12.655   9.964
91277W        W59695   2.722  32.556   0.764
91278W        W59696  38.013  19.695   1.768
91279W        W59697  15.800  39.505   3.259
91280W        W59698  32.018  17.699   4.181
91281W        W59699  10.245  35.869   1.442
91282W        W59700  39.433   8.751  11.439
91283W        W59701  28.139   9.768   3.198
91284W        W59702  34.370  41.892   0.342
91285W        W59703  11.818  37.446   4.675
91286W        W59704  44.868  12.134   0.277
91287W        W59705  13.127  11.767  14.903
91288W        W59706   4.843  24.558  12.382
91289W        W59707  44.353   0.440  14.922
91290W        W59708  30.087   8.176   1.435
91291W        W59709  26.043  31.126   2.807
91292W        W59710  17.699  15.744   1.858
91293W        W59711  27.080  33.562   1.788
91294W        W59712   7.681  31.640  14.449
91295W        W59713  37.013  38.013  12.049
91296W        W59714  10.758  10.805  11.429
91297W        W59715  14.602   2.789  13.950
91298W        W59716  38.526  16.311   0.453
91299W        W59717  21.700  33.409  12.435
91300W        W59718  18.752   8.857  10.999
91301W        W59719  10.190  38.404   5.217
91302W        W59720  24.633  24.144  13.853
91303W        W59721  23.520  33.111  12.522
91304W        W59722  25.117  16.144   2.696
91305W        W59723  38.476  22.567   4.619
91306W        W59724  43.017  12.825   4.258
91307W        W59725   5.698  38.989  14.763
91308W        W59726  38.983  25.157  12.962
91309W        W59727   2.761  42.840   0.923
91310W        W59728  20.039  27.658   3.776
91311W        W59729  12.854  15.284  14.992
91312W        W59730  32.065   3.451  12.038
91313W        W59731   7.272  41.387  11.436
91314W        W59732   3.793  10.791   3.677
91315W        W59733  26.696  26.660   3.209
91316W        W59734  43.904   1.876   2.406
91317W        W59735  11.270  27.659   2.705
91318W        W59736  27.053  42.392   2.319
91319W        W59737  22.576  10.292  11.914
91320W        W59738  38.563  42.490   2.798
91321W        W59739   2.463   8.220  10.453
91322W        W59740  11.747  26.059   3.718
91323W        W59741  40.404  16.303  10.945
91324W        W59742  18.604  11.667   2.256
91325W        W59743  35.959  36.049   3.155
91326W        W59744  42.941  21.114  13.798
91327W        W59745  44.479  20.761   0.933
91328W        W59746  38.518  18.601  12.378
91329W        W59747   9.824  37.977   0.299
91330W        W59748  39.537  10.291   4.832
91331W        W59749  27.550  13.281   1.289
91332W        W59750   2.386  43.839  14.427
91333W        W59751  18.675  40.016   1.424
91334W        W59752  18.150  29.921   1.834
91335W        W59753  33.054   2.414  14.469
91336W        W59754  21.227  31.925   0.389
91337W        W59755  13.318  28.999  14.377
91338W        W59756  17.736   1.380   1.901
91339W        W59757  21.159  24.129   4.244
91340W        W59758  23.688  10.740   2.358
91341W        W59759   6.402  35.049   0.758
91342W        W59760  37.386  39.380   3.312
91343W        W59761  24.204   5.713  12.396
91344W        W59762  14.741  22.138   3.855
91345W        W59763  11.264   9.284   2.762
91346W        W59764  19.133  37.372   4.296
91347W        W59765  15.644  20.114   2.311
91348W        W59766  24.078  20.255  14.875
91349W        W59767  44.387  22.246  14.322
91350W        W59768  39.484  32.094   0.461
91351W        W59769   3.317  18.113  12.824
91352W        W59770   3.348  16.301   4.826
91353W        W59771  11.738   5.412  11.080
91354W        W59772   1.772  10.172   4.644
91355W        W59773  16.683  27.459  14.827
91356W        W59774  13.801  11.856  10.923
91357W        W59775  35.367   9.392  13.375
91358W        W59776  20.651  35.870  11.890
91359W        W59777   8.783  24.595   3.675
91360W        W59778  19.142  26.550  14.851
91361W        W59779  33.571  18.051  11.884
91362W        W59780  12.323  12.358  11.595
91363W        W59781  25.496   0.400   0.942
91364W        W59782  40.473  32.565   3.219
91365W        W59783  10.168  35.096  14.966
91366W        W59784  42.820  24.708  10.952
91367W        W59785   8.340  11.208   3.651
91368W        W59786   3.261   6.221   1.827
91369W        W59787  15.792   1.949  10.144
91370W        W59788   5.236  41.932  14.851
91371W        W59789  31.438   6.366  12.037
91372W        W59790  11.747  18.785  12.370
91373W        W59791  11.324   7.683  12.424
91374W        W59792  11.369  12.641   0.418
91375W        W59793  31.950  26.699   4.767
91376W        W59794  13.614  39.983   0.941
91377W        W59795  23.583  16.290  14.344
91378W        W59796   5.365  43.287  10.429
91379W        W59797  24.194  43.462   4.675
91380W        W59798  28.597  16.616  13.351
91381W        W59799  29.061  23.511  14.379
91382W        W59800  18.553   8.283   2.677
91383W        W59801  28.118  32.111   5.197
91384W        W59802  42.355   7.412  14.480
91385W        W59803  12.846  24.628  11.483
91386W        W59804  44.781   0.963   3.330
91387W        W59805  12.284  28.669   1.316
91388W        W59806  27.565  29.642   3.315
91389W        W59807  37.905   3.438  11.033
91390W        W59808  13.181   5.729  11.527
91391W        W59809   8.168   9.724  12.907
91392W        W59810  15.202  37.974   1.397
91393W        W59811   9.712  17.674   3.798
91394W        W59812  33.477  35.449  13.404
91395W        W59813   0.318  36.529  12.345
91396W        W59814  44.440  29.496   4.626
91397W        W59815  32.525  44.278   1.839
91398W        W59816   3.811   7.727   1.922
91399W        W59817  12.684  36.363   4.333
91400W        W59818  33.109  34.443  10.564
91401W        W59819  30.641   7.716   2.188
91402W        W59820  10.708  42.799   0.274
91403W        W59821  43.362  18.706  12.535
91404W        W59822   7.825   5.776  10.146
91405W        W59823  41.848  15.687   0.767
91406W        W59824   2.960  13.247  14.936
91407W        W59825  29.558   0.823   4.287
91408W        W59826  35.389  40.408  10.626
91409W        W59827  23.560   5.806   3.864
91410W        W59828  44.858  43.289   4.709
91411W        W59829  35.963  36.935   2.771
91412W        W59830  40.877  38.870  11.489
91413W        W59831  16.704   9.813  13.969
91414W        W59832   9.675  41.849  14.395
91415W        W59833  27.572  30.110   3.718
91416W        W59834  39.828  29.469  12.350
91417W        W59835  17.766  44.957  11.589
91418W        W59836  20.763  10.296  12.998
91419W        W59837  41.400  22.172   2.337
91420W        W59838  27.558  20.208  12.038
91421W        W59839  19.068  25.138   1.709
91422W        W59840  32.610   3.311  10.444
91423W        W59841  19.569  37.043   1.232
91424W        W59842  43.836   7.245   0.261
91425W        W59843  32.119  23.100   0.259
91426W        W59844   7.232   6.268  13.499
91427W        W59845  14.164  11.295  11.055
91428W        W59846  32.983  22.531   0.460
91429W        W59847  43.377  20.731  14.328
91430W        W59848  12.720  35.568   4.221
91431W        W59849  34.101  37.502   1.388
91432W        W59850  41.797  19.634  12.430
91433W        W59851  18.273  39.520  13.391
91434W        W59852  11.778  31.469  14.292
91435W        W59853  38.514  21.707  10.478
91436W        W59854  28.470  21.735  12.366
91437W        W59855  23.522  11.744  14.950
91438W        W59856  41.317  27.958   5.114
91439W        W59857  32.117   1.807   4.180
91440W        W59858  40.357  41.404   5.195
91441W        W59859  44.473  24.526  13.847
91442W        W59860  19.046  38.533   4.624
91443W        W59861   5.918  16.299   1.933
91444W        W59862  18.766  32.091   3.170
91445W        W59863  33.597  10.840  14.280
91446W        W59864  27.472   2.291   0.338
91447W        W59865  10.163  18.554   1.289
91448W        W59866   5.297  17.098   2.877
91449W        W59867   5.350   6.777  13.954
91450W        W59868  29.985   2.957   2.387
91451W        W59869  40.432  17.279  14.313
91452W        W59870   9.183  16.757   4.276
91453W        W59871   2.232  38.937   1.305
91454W        W59872  14.637  24.227  14.800
91455W        W59873   5.909  44.924   4.830
91456W        W59874  37.507   6.277   3.146
91457W        W59875  39.884  36.092   4.611
91458W        W59876  10.309  19.164   2.278
91459W        W59877  20.197  20.601   3.270
91460W        W59878  24.590  40.007   4.643
91461W        W59879   5.313  38.983   1.428
91462W        W59880   8.211   4.751  14.466
91463W        W59881  28.511  43.796  11.987
91464W        W59882  21.741   6.324  13.819
91465W        W59883  12.698  40.002   3.768
91466W        W59884  18.286  18.552  10.600
91467W        W59885   0.901  42.392   4.776
91468W        W59886   4.863  27.581   1.740
91469W        W59887  25.617  42.421   4.164
91470W        W59888  41.958   9.308  10.485
91471W        W59889  15.206  44.477  12.823
91472W        W59890  20.727  44.272   0.289
91473W        W59891  42.285  36.566   0.258
91474W        W59892  44.349   1.394   3.813
91475W        W59893  41.992   8.323  12.959
91476W        W59894  41.319  24.059   3.278
91477W        W59895  18.072  18.578   3.271
91478W        W59896  42.904  29.052  11.067
91479W        W59897   7.827   3.846   0.926
91480W        W59898  42.939  37.436   3.315
91481W        W59899  12.353   1.372   4.692
91482W        W59900  12.140  17.136   2.378
91483W        W59901  10.376  43.308   2.882
91484W        W59902  26.169  28.636   4.226
91485W        W59903  19.700  18.272   4.179
91486W        W59904  28.175  14.689  14.389
91487W        W59905  17.617  14.230   1.301
91488W        W59906  43.006  25.164   4.128
91489W        W59907   7.387  28.091  13.414
91490W        W59908  30.943  36.437   2.752
91491W        W59909  33.581   5.300   2.278
91492W        W59910  18.285  30.982  14.771
91493W        W59911  31.022  32.546  13.968
91494W        W59912  24.090   4.931  12.434
91495W        W59913  28.104  27.681   4.705
91496W        W59914  40.429   3.449   4.835
91497W        W59915  36.080   6.341   2.329
91498W        W59916  40.906  25.067   0.777
91499W        W59917  38.967  35.892  14.459
91500W        W59918  32.564   6.205   4.269
91501W        W59919  44.953  10.344  11.440
91502W        W59920  26.174  37.909   0.376
91503W        W59921   9.726  29.128   0.781
91504W        W59922  37.952  16.117   1.831
91505W        W59923   5.341  31.072  10.418
91506W        W59924  38.537  33.600   1.737
91507W        W59925  37.028  13.703  10.613
91508W        W59926  42.775  43.408   0.935
91509W        W59927   7.760  17.300   2.376
91510W        W59928  28.092  34.059  11.400
91511W        W59929  40.939  10.335   2.267
91512W        W59930  22.645  44.776   1.874
91513W        W59931  28.950  28.508  13.403
91514W        W59932  36.991  27.615  10.529
91515W        W59933  39.467   1.417   1.254
91516W        W59934  17.198   4.261   1.217
91517W        W59935  33.985  22.188  14.407
91518W        W59936   1.892  12.820   4.681
91519W        W59937  43.013  10.800  14.288
91520W        W59938   5.373   8.273   4.220
91521W        W59939   6.907  24.044   3.238
91522W        W59940  11.656  12.749  11.998
91523W        W59941   5.435  30.140  14.787
91524W        W59942   1.358  33.054  11.124
91525W        W59943  28.524  42.302   4.643
91526W        W59944  14.720  41.837  13.502
91527W        W59945  25.072  43.379  13.881
91528W        W59946  34.451  38.397   3.310
91529W        W59947   0.331   9.321  14.992
91530W        W59948   9.326  31.977  12.459
91531W        W59949   8.364  15.127  14.379
91532W        W59950  23.015   1.824  14.848
91533W        W59951  13.780  34.920   0.429
91534W        W59952  24.995   8.380  13.866
91535W        W59953  37.993  29.437  12.361
91536W        W59954  16.589  37.022   3.300
91537W        W59955  44.986  31.560  11.498
91538W        W59956  27.111  23.521  13.424
91539W        W59957  28.960  11.325   3.341
91540W        W59958  27.665   2.929   0.295
91541W        W59959   2.914   0.967  10.558
91542W        W59960  36.433  12.730  13.334
91543W        W59961  20.713  26.955   0.942
91544W        W59962   5.283  31.621   3.868
91545W        W59963  20.661  18.765  14.380
91546W        W59964  30.438  37.483   3.756
91547W        W59965  44.414  32.481  12.531
91548W        W59966  41.962   2.386  13.049
91549W        W59967  26.188  40.537  14.846
91550W        W59968  19.105  26.170  11.442
91551W        W59969  32.119   4.299  14.998
91552W        W59970  23.615  33.080   2.764
91553W        W59971   0.912  31.495  12.909
91554W        W59972   8.207  39.518  14.314
91555W        W59973   2.392  40.376   0.915
91556W        W59974  13.688  34.594  14.019
91557W        W59975  43.995  36.849   2.404
91558W        W59976  17.577   6.712   0.965
91559W        W59977   6.362  40.995   4.125
91560W        W59978  44.409  34.896   5.303
91561W        W59979   2.878   0.839  10.901
91562W        W59980  20.143  24.095   0.460
91563W        W59981  25.474  42.883  11.098
91564W        W59982  40.870   1.293  10.888
91565W        W59983  38.381  28.452   1.857
91566W        W59984  27.464  25.084  14.800
91567W        W59985  31.136   1.279  10.581
91568W        W59986  22.062   4.234  12.952
91569W        W59987   0.348  39.467   1.832
91570W        W59988  18.211  29.113  14.995
91571W        W59989  16.704   5.851   0.267
91572W        W59990  17.135   1.829  13.436
91573W        W59991  42.031  23.132   1.278
91574W        W59992  44.407  32.404   2.282
91575W        W59993  16.261  19.754   4.273
91576W        W59994  33.940   6.291  10.608
91577W        W59995   2.392  38.369  14.317
91578W        W59996  37.485  33.092  12.001
91579W        W59997  16.614  31.966   3.235
91580W        W59998  15.644  27.065  13.862
91581W        W59999   4.374   1.825  14.800
91582W        W60000  24.040  34.405  12.546
91583W        W60001  25.027  38.464   2.747
91584W        W60002  37.981  10.764   3.831
91585W        W60003  26.684   8.731   1.263
91586W        W60004  37.930  13.815   0.795
91587W        W60005   5.933   9.249  12.998
91588W        W60006  15.309  18.709   1.867
91589W        W60007  11.655   7.321   2.825
91590W        W60008   1.895  18.649   1.881
91591W        W60009  23.222  38.395   2.800
91592W        W60010  15.322   4.364  11.524
91593W        W60011  31.589  30.538  14.468
91594W        W60012  39.972  22.719   3.159
91595W        W60013  10.710  13.742   3.158
91596W        W60014   7.376  37.414  11.972
91597W        W60015   5.834  15.262  13.930
91598W        W60016  38.871  18.149  14.016
91599W        W60017  28.061  31.107  10.536
91600W        W60018  40.865   5.421   3.218
91601W        W60019   6.733  43.928   2.221
91602W        W60020  23.054  44.353  10.940
91603W        W60021  42.780   6.311  11.577
91604W        W60022  40.950  19.629   2.195
91605W        W60023  16.088  31.021  13.903
91606W        W60024   3.885  42.327  13.042
91607W        W60025  35.856  43.450  14.411
91608W        W60026   5.814  34.420  14.027
91609W        W60027  14.204  31.079  10.588
91610W        W60028   9.707  12.182   1.275
91611W        W60029  35.448  31.035  12.892
91612W        W60030   7.258   7.727   3.180
91613W        W60031  13.841  25.708  13.046
91614W        W60032  26.623  10.657  11.383
91615W        W60033  35.595  39.820  13.457
91616W        W60034  37.024  16.807  13.824
91617W        W60035   8.834  23.628  12.433
91618W        W60036  44.946  38.417  14.299
91619W        W60037  27.477  32.916   1.345
91620W        W60038  21.536   4.726  12.932
91621W        W60039  43.485  16.804  13.495
91622W        W60040   5.207  25.085  12.371
91623W        W60041  33.077  15.309  11.862
91624W        W60042  17.717   0.359  13.506
91625W        W60043  39.489   7.284   3.267
91626W        W60044   9.791  21.554   2.186
91627W        W60045  38.985   2.287   5.122
91628W        W60046  35.561  33.550  14.483
91629W        W60047  44.945  24.705   3.819
91630W        W60048  39.812  20.638  12.436
91631W        W60049   6.228  33.387  12.868
91632W        W60050  28.179   5.802   0.343
91633W        W60051   6.767  37.863  11.388
91634W        W60052  33.503  41.315   2.386
91635W        W60053  39.922  31.018   0.888
91636W        W60054  19.189  10.843   3.220
91637W        W60055  23.499  44.302  12.906
91638W        W60056   4.813  10.856  12.517
91639W        W60057  32.101  20.589  11.558
91640W        W60058  15.287  22.104  12.478
91641W        W60059  34.879  12.275  13.807
91642W        W60060  33.956  16.094  13.024
91643W        W60061  34.508  30.097  12.342
91644W        W60062  19.098  20.758  13.061
91645W        W60063  25.181  24.658   2.719
91646W        W60064   7.378   5.754   2.772
91647W        W60065  44.953  26.207  13.486
91648W        W60066  10.237  35.390   4.184
91649W        W60067  39.435   3.789   3.785
91650W        W60068  29.541   0.885  12.514
91651W        W60069  44.455  33.131  12.369
91652W        W60070  23.645   0.959  12.897
91653W        W60071   0.321  35.074  11.018
91654W        W60072  37.060  27.075  13.991
91655W        W60073  40.861  22.602  13.882
91656W        W60074   5.274  27.996   0.788
91657W        W60075  19.079  11.253  12.414
91658W        W60076   1.880  15.803   2.212
91659W        W60077  26.054  16.246  10.961
91660W        W60078   3.330  15.649   3.164
91661W        W60079  11.847  21.094  14.028
91662W        W60080  27.477  41.805  11.929
91663W        W60081  12.809   3.817  13.007
91664W        W60082  37.355  43.353  12.927
91665W        W60083  29.469  26.615  10.640
91666W        W60084  43.380  44.481  10.936
91667W        W60085  25.982  40.003   2.787
91668W        W60086  12.140  40.460   0.404
91669W        W60087   4.880   2.732   2.376
91670W        W60088   9.215  41.536   3.375
91671W        W60089  31.578   0.382   4.832
91672W        W60090  28.996  37.844  13.033
91673W        W60091   9.742  40.370   3.810
91674W        W60092   5.261  10.154   0.799
91675W        W60093   6.191   3.404   0.820
91676W        W60094  43.834  10.278  13.928
91677W        W60095   4.837   6.222   1.900
91678W        W60096  21.752  10.334   2.777
91679W        W60097  22.707  36.851   2.235
91680W        W60098  12.707  10.178  11.888
91681W        W60099   5.219  33.114   3.855
91682W        W60100  38.952  31.477   4.803
91683W        W60101  43.019  40.352   2.849
91684W        W60102  23.232  20.098  14.307
91685W        W60103  23.686  34.528   0.441
91686W        W60104  41.908  42.977   1.357
91687W        W60105  26.625  22.058  13.843
91688W        W60106  41.336  38.459   1.878
91689W        W60107   6.196  32.910   4.737
91690W        W60108   1.939  14.270  13.455
91691W        W60109  18.744  21.226   1.895
91692W        W60110  21.611  37.063   4.224
91693W        W60111  34.610  40.513  11.865
91694W        W60112   5.341  20.089   0.958
91695W        W60113  26.584   8.761  12.344
91696W        W60114  12.171  41.485   1.299
91697W        W60115   7.241   1.822  12.003
91698W        W60116  13.319  42.450  13.340
91699W        W60117  33.095  19.558  12.089
91700W        W60118  13.343  44.434   0.469
91701W        W60119  17.617  12.196   3.813
91702W        W60120  25.101  12.818   0.359
91703W        W60121  30.615  14.802  13.867
91704W        W60122  43.792  36.086   0.381
91705W        W60123  35.596  38.844  12.565
91706W        W60124  12.712  43.509   3.282
91707W        W60125  22.996  14.195  12.856
91708W        W60126  27.958   3.387  13.862
91709W        W60127  28.556  36.453   4.199
91710W        W60128  16.245  24.023  13.895
91711W        W60129  34.958  24.636  13.382
91712W        W60130  31.640  26.076  11.935
91713W        W60131   0.849  35.916  10.061
91714W        W60132  28.582  12.204  12.530
91715W        W60133  28.475  37.986  12.090
91716W        W60134  24.584  29.077  11.975
91717W        W60135  42.393  21.735  13.311
91718W        W60136  15.618  19.751   2.777
91719W        W60137  39.444   7.669   2.808
91720W        W60138   5.885  43.392  13.389
91721W        W60139  28.491  34.372  14.324
91722W        W60140  36.964  19.556   4.234
91723W        W60141  40.892  34.462   3.247
91724W        W60142  14.129  13.627   0.818
91725W        W60143  41.383  38.492  14.878
91726W        W60144   2.384   5.197   0.357
91727W        W60145  19.153   1.808  12.566
91728W        W60146  22.649  27.076  14.837
91729W        W60147  22.021  29.954  10.640
91730W        W60148   7.699   7.219  10.058
91731W        W60149  11.273  16.217   0.837
91732W        W60150  22.670  38.359  14.399
91733W        W60151  25.690  43.345  11.567
91734W        W60152   1.389  11.271   2.818
91735W        W60153  14.609  33.917  12.414
91736W        W60154   0.982  38.032   2.770
91737W        W60155  16.185  17.302  12.361
91738W        W60156  37.534  25.515   3.800
91739W        W60157  39.859   2.418   2.255
91740W        W60158  42.975   9.810  11.009
91741W        W60159  21.577   1.893  11.999
91742W        W60160  44.454  29.025  10.431
91743W        W60161   6.406  18.055  14.998
91744W        W60162  40.446   9.821   1.354
91745W        W60163  10.278  28.548   0.736
91746W        W60164  41.523  41.827  10.614
91747W        W60165  25.588   3.352   0.263
91748W        W60166   9.645  40.009  14.417
91749W        W60167   7.302  38.456   0.792
91750W        W60168  43.903   7.191  12.427
91751W        W60169  12.126  35.942  13.965
91752W        W60170   9.807  16.811  12.876
91753W        W60171  23.668  35.517   3.766
91754W        W60172  37.522  11.149   1.415
91755W        W60173  13.153  19.254   2.756
91756W        W60174  31.018  13.319   2.745
91757W        W60175  36.544  10.652   4.277
91758W        W60176  15.165   0.988  13.518
91759W        W60177  11.263  43.767  11.442
91760W        W60178   6.881  36.998  14.770
91761W        W60179  21.699  11.170  14.402
91762W        W60180   1.367  29.987  10.557
91763W        W60181  18.204  13.140   2.825
91764W        W60182  35.373  12.213   2.782
91765W        W60183  41.339  19.051   0.748
91766W        W60184  41.874  26.462   4.320
91767W        W60185  22.641  44.780   1.354
91768W        W60186   3.271  21.256  14.301
91769W        W60187   3.835   2.322   3.326
91770W        W60188  25.213  41.524   9.929
91771W        W60189  26.192  12.307   4.313
91772W        W60190  37.029  10.708   3.814
91773W        W60191  24.044  11.309   4.279
91774W        W60192  40.400  31.067  12.461
91775W        W60193  29.544  15.325  12.382
91776W        W60194  24.602  41.013   4.224
91777W        W60195  35.422  11.141   3.239
91778W        W60196  44.765  24.074  10.093
91779W        W60197  28.086  28.475   1.829
91780W        W60198  21.200   8.264  10.939
91781W        W60199  41.846  28.127   1.847
91782W        W60200  30.073  36.404   3.704
91783W        W60201  41.527  20.155  12.379
91784W        W60202  33.406  31.574  12.386
91785W        W60203  40.497  42.321   0.312
91786W        W60204  14.270  18.089  13.513
91787W        W60205  37.034  36.412   0.419
91788W        W60206   0.352  37.344  13.450
91789W        W60207  12.126  12.136   0.258
91790W        W60208  15.268  43.854   3.843
91791W        W60209  41.451  21.636   2.859
91792W        W60210  25.709  22.180   0.912
91793W        W60211  34.024  11.271  11.434
91794W        W60212  18.161  35.872  12.078
91795W        W60213   5.858  29.925  14.874
91796W        W60214  37.937  28.452   1.789
91797W        W60215  34.086  33.092   3.373
91798W        W60216  41.473  12.723  10.500
91799W        W60217  40.330  17.093  12.042
91800W        W60218  41.983  36.986  12.974
91801W        W60219  16.295   0.949  14.032
91802W        W60220   9.194  37.346  12.957
91803W        W60221  13.816  34.554  13.360
91804W        W60222  12.825   5.750  14.946
91805W        W60223  38.884  43.472  14.457
91806W        W60224  18.581  32.395  14.854
91807W        W60225  20.666  40.343  10.122
91808W        W60226  40.970  40.465  11.482
91809W        W60227  17.061   4.210  14.956
91810W        W60228  26.500  10.197   3.230
91811W        W60229   3.738   0.783  12.471
91812W        W60230  41.823  29.018  10.076
91813W        W60231  29.033   1.297  11.537
91814W        W60232  36.013  21.072  11.386
91815W        W60233   3.755   6.322   4.743
91816W        W60234  41.876  23.161  11.036
91817W        W60235  37.382  17.750   3.806
91818W        W60236  22.646  26.691  11.947
91819W        W60237  22.237   3.260   2.344
91820W        W60238   6.200  23.092  12.011
91821W        W60239  17.172  34.054  11.909
91822W        W60240  22.637  36.913  11.409
91823W        W60241  35.369  12.856  10.544
91824W        W60242   2.724  10.810   1.741
91825W        W60243   8.759  39.928  13.887
91826W        W60244  32.017  26.104  10.623
91827W        W60245   1.856  35.966  11.972
91828W        W60246  35.900  39.418   4.610
91829W        W60247  22.546   3.382  14.370
91830W        W60248  38.510  27.082   1.786
91831W        W60249  21.076  19.161   0.730
91832W        W60250  20.189  13.335  14.493
91833W        W60251  43.949   3.928   4.704
91834W        W60252   7.265   1.381   2.749
91835W        W60253   0.813  35.423  12.556
91836W        W60254  11.286  36.500   3.250
91837W        W60255  39.548  30.497   2.663
91838W        W60256  39.020   8.845   4.254
91839W        W60257  35.895  25.501   4.170
91840W        W60258  15.783   2.411  13.534
91841W        W60259  15.240  26.125  12.840
91842W        W60260  13.161  28.147   0.938
91843W        W60261  43.787  12.714   4.181
91844W        W60262  14.110   2.824  11.401
91845W        W60263  41.907  40.052  13.333
91846W        W60264   6.275  30.986  13.487
91847W        W60265  26.050  44.973  13.352
91848W        W60266  26.182   8.790  12.059
91849W        W60267  25.035   4.791   2.810
91850W        W60268  17.741   1.395   2.243
91851W        W60269  34.025  18.766  12.063
91852W        W60270  12.843  35.926   0.267
91853W        W60271  13.245  42.443  11.092
91854W        W60272  22.717  22.099   3.832
91855W        W60273  34.882   5.787  14.464
91856W        W60274   5.203  43.482  12.382
91857W        W60275  13.351  14.306   4.332
91858W        W60276  24.707  44.400   4.225
91859W        W60277  26.628  19.764  10.155
91860W        W60278  24.200   8.654  14.870
91861W        W60279  38.368  11.794   2.178
91862W        W60280  10.865  31.126  13.970
91863W        W60281  43.392   9.197  11.468
91864W        W60282  43.310  34.916  14.397
91865W        W60283  19.118  25.045   5.230
91866W        W60284  41.995  19.609   1.794
91867W        W60285  37.523  40.001  10.910
91868W        W60286   9.877  30.934  14.835
91869W        W60287  30.068   0.817  11.567
91870W        W60288  30.540   5.344  12.831
91871W        W60289  28.034  33.930  10.506
91872W        W60290   9.784  42.969   3.378
91873W        W60291  30.936   2.359   1.362
91874W        W60292  32.021   1.777   4.661
91875W        W60293  40.980  41.366   1.343
91876W        W60294   0.854  20.049  12.864
91877W        W60295  44.785   1.834   3.321
91878W        W60296   6.825  30.419   1.925
91879W        W60297   2.767  26.620  11.469
91880W        W60298  40.840  37.568   3.334
91881W        W60299  39.327  43.920  10.447
91882W        W60300  36.046  19.079  11.029
91883W        W60301   5.344  26.015  12.954
91884W        W60302  11.135   2.779  14.819
91885W        W60303  33.061  11.356  12.081
91886W        W60304  14.193  41.951   0.442
91887W        W60305  15.789  22.170   1.300
91888W        W60306  32.523  25.015   3.164
91889W        W60307  18.765   8.801  13.860
91890W        W60308  17.077   3.446   0.867
91891W        W60309  30.146  23.500  11.126
91892W        W60310  31.909  23.071  10.892
91893W        W60311  23.634  12.168   1.709
91894W        W60312  32.965  17.629   2.839
91895W        W60313  10.658  26.970   3.725
91896W        W60314  42.976  13.164  14.961
91897W        W60315  31.027  28.152   3.849
91898W        W60316  24.630  32.438  10.637
91899W        W60317  29.017  42.899   2.701
91900W        W60318  23.184  43.957   1.716
91901W        W60319  15.129   2.836   1.913
91902W        W60320  25.033  29.641   2.818
91903W        W60321  29.159   6.747   4.747
91904W        W60322  22.565  21.118   4.133
91905W        W60323  22.120  27.605   0.316
91906W        W60324   6.267  16.654  10.510
91907W        W60325  31.015  44.929   1.852
91908W        W60326  14.801  41.960  13.970
91909W        W60327  41.033   4.766  13.923
91910W        W60328  40.798  21.615   4.829
91911W        W60329   5.195  37.424  13.991
91912W        W60330  28.042  42.424  11.497
91913W        W60331  13.822  10.172  13.047
91914W        W60332   7.173  17.599  11.086
91915W        W60333  19.774  38.372  10.945
91916W        W60334  22.700  19.659   0.273
91917W        W60335   9.370  38.073  12.860
91918W        W60336  39.876  39.851   2.313
91919W        W60337  11.156  19.596   0.481
91920W        W60338  17.759  28.585  13.818
91921W        W60339  19.716  26.613   0.791
91922W        W60340  36.346  30.429   3.712
91923W        W60341   7.198  32.595  14.415
91924W        W60342  11.191  38.524   3.204
91925W        W60343  14.235   4.437  14.927
91926W        W60344  27.468  24.634  12.031
91927W        W60345  37.071  24.650  13.048
91928W        W60346  44.302   5.227  11.565
91929W        W60347  23.525  35.459  10.943
91930W        W60348  39.823  27.615   0.808
91931W        W60349  17.278   5.311  13.457
91932W        W60350  28.524  40.798  12.874
91933W        W60351   0.767  31.011  11.895
91934W        W60352  18.783  44.762   4.651
91935W        W60353   9.815   9.394   2.891
91936W        W60354  33.092   3.819   1.248
91937W        W60355  29.614   3.825   1.417
91938W        W60356   9.807   9.844  13.801
91939W        W60357  33.546  24.051   0.921
91940W        W60358   1.931  10.685   2.391
91941W        W60359  26.006  37.429   2.893
91942W        W60360  24.199   7.380   4.671
91943W        W60361  26.543  16.289   3.239
91944W        W60362   3.357  22.247  14.446
91945W        W60363  42.364   9.795   2.339
91946W        W60364   8.712  44.407   1.280
91947W        W60365   4.707  36.874   3.378
91948W        W60366  13.168  43.516   2.714
91949W        W60367  41.293   0.913   1.706
91950W        W60368  22.238  15.306  13.457
91951W        W60369   5.921  22.604  14.007
91952W        W60370  31.994  17.167  11.604
91953W        W60371  26.147  17.678  11.014
91954W        W60372  44.934  17.208   3.266
91955W        W60373  42.877  34.601   9.964
91956W        W60374  20.063  42.403  11.613
91957W        W60375   1.897   8.348  13.054
91958W        W60376  39.827  38.338   0.413
91959W        W60377   2.355  35.480   4.255
91960W        W60378  25.035  12.758  13.506
91961W        W60379  16.703  14.121   1.734
91962W        W60380   4.236  14.205   2.339
91963W        W60381  42.475   3.233   4.194
91964W        W60382  21.100  41.329  14.925
91965W        W60383  24.038  23.990   0.404
91966W        W60384  12.203   0.291   3.172
91967W        W60385  39.527   8.165  14.783
91968W        W60386  11.233  10.306  12.968
91969W        W60387  41.884  19.276   0.804
91970W        W60388  16.252   6.860   4.717
91971W        W60389  30.980  34.042  12.939
91972W        W60390  41.874  24.067   3.238
91973W        W60391  35.489  43.492   1.709
91974W        W60392  24.674  19.158   3.330
91975W        W60393  18.692  21.542  11.879
91976W        W60394  35.041  41.882  12.842
91977W        W60395  19.283  34.873   1.378
91978W        W60396  44.793  11.773   5.246
91979W        W60397   2.324  22.571  14.339
91980W        W60398   7.729  36.960   4.713
91981W        W60399  35.530  26.103  11.467
91982W        W60400  33.472  31.960  13.799
91983W        W60401  18.287  34.907  13.849
91984W        W60402  19.107  44.838  12.852
91985W        W60403   8.787  28.940  13.406
91986W        W60404  42.359  24.664   2.867
91987W        W60405  43.376  17.646  12.945
91988W        W60406  39.828  43.964  13.792
91989W        W60407  38.526  17.138  14.924
91990W        W60408  25.059  42.893  11.377
91991W        W60409  28.558  41.423  14.012
91992W        W60410  14.141   2.244   5.203
91993W        W60411  40.822  42.816   0.946
91994W        W60412  41.422   6.710  12.386
91995W        W60413  18.596   7.389   2.408
91996W        W60414  30.982  14.140   3.680
91997W        W60415   8.670  15.168   4.618
91998W        W60416  25.608  34.573   0.310
91999W        W60417  22.058   9.290  13.814
92000W        W60418  12.614  29.163   1.880
92001W        W60419   0.849   5.216   2.867
92002W        W60420  37.412   4.928   0.286
92003W        W60421  15.317  37.945   3.169
92004W        W60422  42.791   5.385  11.935
92005W        W60423   9.348  16.147   1.752
92006W        W60424   6.290  31.568   1.874
92007W        W60425   2.313   2.405   0.934
92008W        W60426  31.628  37.514   0.338
92009W        W60427  35.091   0.795   2.726
92010W        W60428   0.351  19.232  13.884
92011W        W60429  16.248   8.361  13.805
92012W        W60430   5.799  28.586   2.666
92013W        W60431  28.525  39.501   0.454
92014W        W60432  21.697   7.354  11.127
92015W        W60433  24.664  19.182   2.305
92016W        W60434   9.230  29.988  14.957
92017W        W60435  13.723  42.447   1.782
92018W        W60436  35.424  11.846  14.505
92019W        W60437  10.362  31.055   4.298
92020W        W60438  28.006  21.551  13.457
92021W        W60439   7.843  27.479   3.151
92022W        W60440  10.167  16.165  11.471
92023W        W60441  36.386  38.959  12.440
92024W        W60442  14.221  41.314   1.238
92025W        W60443  30.646  35.927   3.171
92026W        W60444  26.529  29.984   3.828
92027W        W60445  24.573   3.413   3.269
92028W        W60446   7.326   7.220   3.671
92029W        W60447  22.584  10.382   4.166
92030W        W60448  23.617  13.839   2.728
92031W        W60449  18.668  31.528  13.064
92032W        W60450  20.228   4.844   5.296
92033W        W60451  19.539  33.439  11.960
92034W        W60452  30.434  43.284  14.348
92035W        W60453   0.934  20.699  12.979
92036W        W60454   8.362  37.976   2.726
92037W        W60455  11.657   8.824   3.740
92038W        W60456  13.316   2.245   0.893
92039W        W60457  40.996  15.282  12.916
92040W        W60458  42.878  10.830  12.409
92041W        W60459  44.386  21.052  14.835
92042W        W60460  37.057   9.222   4.823
92043W        W60461   1.876  36.993  11.936
92044W        W60462  30.633  38.941   0.252
92045W        W60463  22.575   7.774   1.280
92046W        W60464   3.762  21.575   0.351
92047W        W60465  18.156  28.655   0.873
92048W        W60466   2.261   9.270   2.786
92049W        W60467  36.347  33.490   4.287
92050W        W60468  15.655  42.024   2.693
92051W        W60469   6.902  15.764   4.632
92052W        W60470  32.547  33.616  10.525
92053W        W60471  29.937  32.908   3.329
92054W        W60472   7.810  40.497  13.934
92055W        W60473  30.512  24.012   1.277
92056W        W60474  29.656   3.343   0.352
92057W        W60475  32.037  17.284   5.134
92058W        W60476  12.221  11.254  11.899
92059W        W60477   3.923  22.615   0.322
92060W        W60478  36.095  33.469   4.733
92061W        W60479  32.412  39.824  12.435
92062W        W60480  29.079  17.588   4.678
92063W        W60481   6.199  23.718   2.698
92064W        W60482  28.563  20.258   3.759
92065W        W60483  14.650  14.240   1.915
92066W        W60484  24.041  44.823  14.301
92067W        W60485  43.805   0.871  11.923
92068W        W60486   8.829  11.276   2.374
92069W        W60487   0.463  20.075   2.303
92070W        W60488  15.621  36.940  13.389
92071W        W60489  18.786   4.248   4.692
92072W        W60490  17.192  15.730  12.088
92073W        W60491  10.707  40.407  14.930
92074W        W60492  12.354   9.824  13.319
92075W        W60493  18.777   1.739   1.843
92076W        W60494  27.184  19.129   1.714
92077W        W60495   3.874  15.609   9.948
92078W        W60496  17.659   1.955  10.446
92079W        W60497  24.501  27.162   3.758
92080W        W60498  38.363  25.613  10.598
92081W        W60499   8.304  16.736  12.065
92082W        W60500  17.780  20.165   2.331
92083W        W60501  37.077  34.991  13.381
92084W        W60502   3.394   4.277   4.264
92085W        W60503  35.380  12.152  10.910
92086W        W60504   5.308  32.937  13.366
92087W        W60505  41.018  35.023  14.837
92088W        W60506   2.247  12.338  12.972
92089W        W60507  43.837  25.581   3.858
92090W        W60508   2.344  12.288  11.375
92091W        W60509  33.061  17.708   4.617
92092W        W60510   7.786  37.487   0.803
92093W        W60511  31.418  33.989  13.818
92094W        W60512   2.870  28.000   3.633
92095W        W60513   3.771   0.251  12.544
92096W        W60514  25.024  26.073  13.052
92097W        W60515   8.259  35.885  11.033
92098W        W60516  21.141  15.600  10.998
92099W        W60517  15.322  37.915  11.934
92100W        W60518  41.926   7.304   3.825
92101W        W60519  36.526  14.262  14.793
92102W        W60520  37.885   9.382   3.785
92103W        W60521   9.865  15.287  11.988
92104W        W60522  22.228   3.715   4.187
92105W        W60523  43.803  20.708  14.318
92106W        W60524  36.082  13.658   2.374
92107W        W60525  22.553  43.775  10.996
92108W        W60526  40.902  29.575  13.390
92109W        W60527  34.965   7.200  10.639
92110W        W60528  32.019  24.131  13.043
92111W        W60529  33.552  32.417  13.500
92112W        W60530  23.637  33.898  10.638
92113W        W60531  16.151   0.422   3.162
92114W        W60532   0.335   1.348   4.177
92115W        W60533  10.330  43.911   3.240
92116W        W60534  44.758  32.630  14.458
92117W        W60535   3.434  37.879  13.827
92118W        W60536  37.489  43.860  11.513
92119W        W60537  35.926  15.699  14.808
92120W        W60538  29.100  21.646  10.588
92121W        W60539  24.707  35.381  11.033
92122W        W60540  12.310  10.230   1.248
92123W        W60541   0.758  38.440   1.789
92124W        W60542  28.138  13.263  10.525
92125W        W60543  41.447  26.082  13.430
92126W        W60544  30.056  32.606   1.380
92127W        W60545  16.241  25.479  14.895
92128W        W60546   0.965   9.171  11.916
92129W        W60547  11.317  33.062  14.496
92130W        W60548  13.674  29.559  14.014
92131W        W60549  42.031  33.061  14.300
92132W        W60550  28.518  28.963   2.867
92133W        W60551  40.836  18.698   0.743
92134W        W60552  20.617  14.107  12.962
92135W        W60553  20.683   9.295  14.821
92136W        W60554  37.457  18.612   4.752
92137W        W60555   2.393  13.775   4.197
92138W        W60556   4.731  43.273   4.229
92139W        W60557   6.705  15.176  12.578
92140W        W60558  23.643   4.443  10.494
92141W        W60559  26.028   0.771   1.272
92142W        W60560  17.724   9.680  13.846
92143W        W60561  14.782  44.940  14.900
92144W        W60562  33.925   6.802  11.084
92145W        W60563  37.368  13.337   2.269
92146W        W60564  16.772   9.209  12.876
92147W        W60565  32.456   5.285   1.233
92148W        W60566  38.568  37.955  10.525
92149W        W60567  11.216  15.677  10.947
92150W        W60568   9.749   5.828   2.708
92151W        W60569  10.337  24.119  11.023
92152W        W60570  12.676   4.300  14.338
92153W        W60571   9.304  25.711   2.307
92154W        W60572   2.366  42.843   3.207
92155W        W60573  36.049   2.764   1.229
92156W        W60574  39.993  39.340   3.161
92157W        W60575  17.216   0.981   2.884
92158W        W60576   3.883  23.054  10.910
92159W        W60577  29.500  44.382   2.367
92160W        W60578  16.675   6.184   9.935
92161W        W60579  13.115   9.669   1.917
92162W        W60580   5.386   2.789   0.736
92163W        W60581   7.224  33.997   0.243
92164W        W60582  22.251  39.893  14.410
92165W        W60583  37.466  11.218  13.022
92166W        W60584  15.798  18.551  13.912
92167W        W60585  17.276  18.652   3.279
92168W        W60586  31.602  20.699  13.473
92169W        W60587  13.617   7.345   1.417
92170W        W60588  34.017   3.265   2.714
92171W        W60589  26.477  34.421   3.761
92172W        W60590  34.917  18.739   5.247
92173W        W60591  12.762  20.053  14.281
92174W        W60592   3.279  26.998   3.769
92175W        W60593  22.159  25.577  12.923
92176W        W60594  44.300  17.127  13.814
92177W        W60595  44.502  38.484  11.541
92178W        W60596  18.742  17.791  14.978
92179W        W60597  26.615  15.700  12.888
92180W        W60598   0.449  26.041   1.236
92181W        W60599   3.432  38.434  12.548
92182W        W60600  31.919  23.723   3.856
92183W        W60601  22.222  13.676  10.441
92184W        W60602  20.232   7.682   1.370
92185W        W60603  13.641  14.616   2.707
92186W        W60604   1.970  42.990   1.373
92187W        W60605   8.889  16.765  14.446
92188W        W60606  17.795   9.329   0.849
92189W        W60607  34.085   4.262   3.322
92190W        W60608   1.449  39.413   1.388
92191W        W60609   3.909   4.717  13.874
92192W        W60610  22.134  10.311   3.713
92193W        W60611  10.357  43.945   1.359
92194W        W60612  32.584  24.705   1.288
92195W        W60613  37.916  38.070   4.266
92196W        W60614  40.847  44.928  14.861
92197W        W60615  24.579  21.734  14.333
92198W        W60616  32.525  38.826  12.942
92199W        W60617  27.017  31.452  14.485
92200W        W60618  18.271   3.371   2.365
92201W        W60619  38.399  23.682  12.995
92202W        W60620  19.223   2.755   4.695
92203W        W60621  19.119   8.228   3.811
92204W        W60622  20.525  30.431  14.995
92205W        W60623  27.601   9.860   5.135
92206W        W60624   9.812  28.448  14.807
92207W        W60625   4.411  42.303  11.534
92208W        W60626  17.756  19.208  12.420
92209W        W60627  33.616  34.883  11.463
92210W        W60628   8.329  11.295  14.430
92211W        W60629  12.646   3.794  13.790
92212W        W60630   8.249   5.378   3.698
92213W        W60631  33.101  35.866  13.362
92214W        W60632  34.899  14.634  11.974
92215W        W60633  23.137  13.303  11.559
92216W        W60634  22.170  21.674  12.867
92217W        W60635  14.772  28.465   1.334
92218W        W60636  27.169   6.218   1.923
92219W        W60637   0.465   0.304   4.626
92220W        W60638  12.670  41.311  11.997
92221W        W60639  16.130  41.972   2.398
92222W        W60640   4.303  42.471   3.187
92223W        W60641  39.914  35.902   1.764
92224W        W60642  14.140   1.296   1.779
92225W        W60643  35.099   2.880   1.930
92226W        W60644  16.728  16.254  11.475
92227W        W60645  19.647  18.612   1.432
92228W        W60646  15.588  29.094   3.276
92229W        W60647  18.626  41.377  14.457
92230W        W60648  21.590  33.984  12.477
92231W        W60649  32.457  23.734   0.967
92232W        W60650  19.679  33.405   3.384
92233W        W60651  35.456  37.413  13.531
92234W        W60652  44.864   8.773   4.330
92235W        W60653  36.848  23.705   2.376
92236W        W60654   9.692  20.108   4.800
92237W        W60655  11.836  24.201  13.359
92238W        W60656  43.802  14.819  13.878
92239W        W60657  35.554  36.548   4.119
92240W        W60658  40.892  30.089  13.951
92241W        W60659  19.176   6.890   1.437
92242W        W60660  24.188   3.411  12.943
92243W        W60661  19.052  16.760   1.357
92244W        W60662  39.029  41.360  10.945
92245W        W60663   6.806  19.258  13.510
92246W        W60664   1.458  36.034  13.353
92247W        W60665   7.255  35.416   3.773
92248W        W60666   9.840   7.681   0.906
92249W        W60667  36.495  31.615   2.818
92250W        W60668  40.954  44.362  10.467
92251W        W60669  10.820  24.573  10.449
92252W        W60670   4.764  21.692   2.801
92253W        W60671  36.849   3.447  13.362
92254W        W60672  27.489  42.913  14.919
92255W        W60673  34.868  25.712  10.936
92256W        W60674  36.941  29.446   0.829
92257W        W60675  10.760  28.070   3.386
92258W        W60676  10.238  24.698  12.906
92259W        W60677  31.511  32.039  11.496
92260W        W60678  21.529  42.842  10.434
92261W        W60679  11.851  11.809  10.493
92262W        W60680  34.434  24.600  10.444
92263W        W60681  40.799  26.496  12.841
92264W        W60682  31.611  23.128   4.729
92265W        W60683  25.173  35.511  14.970
92266W        W60684  19.258  16.297   2.809
92267W        W60685  19.263  32.465  11.463
92268W        W60686  36.851  36.446  13.967
92269W        W60687  29.063  36.587  12.462
92270W        W60688  24.562  34.569   2.313
92271W        W60689   2.763  31.016  12.934
92272W        W60690  33.932  43.445   4.317
92273W        W60691  35.010   6.387   2.884
92274W        W60692  33.432  43.464  13.499
92275W        W60693  12.223  16.080  12.447
92276W        W60694  18.662  31.132  12.563
92277W        W60695  15.128  43.485   1.879
92278W        W60696  24.660  21.177   0.837
92279W        W60697  38.023  20.185  13.314
92280W        W60698   8.897   0.816  11.944
92281W        W60699  19.687  40.304  10.473
92282W        W60700  29.935  44.303   3.767
92283W        W60701   2.330  32.932   3.845
92284W        W60702   3.284  35.109  12.966
92285W        W60703  44.011  34.543   0.807
92286W        W60704   3.268  25.548   3.376
92287W        W60705  18.656  16.648  14.366
92288W        W60706   9.240  10.820  13.863
92289W        W60707  43.948  22.587   4.209
92290W        W60708  20.264  25.037  10.899
92291W        W60709  19.126   4.875   0.323
92292W        W60710  10.341  33.583   1.284
92293W        W60711  44.354   7.403  11.038
92294W        W60712  20.556  16.646  12.928
92295W        W60713  39.817   6.741   4.194
92296W        W60714  21.241   7.184   0.786
92297W        W60715   1.334   3.848   4.203
92298W        W60716  11.294  20.698   0.350
92299W        W60717  40.401   3.947  14.434
92300W        W60718  40.503  12.844   3.731
92301W        W60719  42.825  32.117   3.314
92302W        W60720  16.213  40.822  11.555
92303W        W60721  19.585   1.893   2.382
92304W        W60722  14.277   4.766  14.282
92305W        W60723  36.554   5.213   0.400
92306W        W60724  41.839  39.907  10.105
92307W        W60725  14.146  31.127  13.945
92308W        W60726  44.282  42.376  13.977
92309W        W60727  28.038  40.538  13.406
92310W        W60728   5.227  12.336   1.923
92311W        W60729  38.909  30.972  14.498
92312W        W60730   6.367  40.322  12.403
92313W        W60731  27.475  42.004   2.183
92314W        W60732  10.244   1.845  14.512
92315W        W60733  27.119  40.847   4.608
92316W        W60734  26.081   9.851  12.941
92317W        W60735   2.803   4.919   3.755
92318W        W60736  26.585  34.914  10.623
92319W        W60737  31.147  32.061   2.872
92320W        W60738  25.672  42.026  14.853
92321W        W60739  36.864  11.344  13.859
92322W        W60740  44.764  23.600  13.425
92323W        W60741  31.604   5.199   4.150
92324W        W60742  44.392  26.152   1.858
92325W        W60743   0.790  27.480  10.427
92326W        W60744  19.096  16.303   3.710
92327W        W60745  24.200  40.886  12.935
92328W        W60746  14.822  39.447  12.477
92329W        W60747  19.684  37.525  10.915
92330W        W60748  24.129  44.953  12.826
92331W        W60749   4.275  26.096   2.796
92332W        W60750   2.472  14.256  11.484
92333W        W60751  16.616  27.663  14.332
92334W        W60752  19.105  27.041   0.293
92335W        W60753  39.315  17.167   0.315
92336W        W60754  44.354  31.579  14.439
92337W        W60755  25.479  32.517   0.807
92338W        W60756  34.609  21.183  13.992
92339W        W60757   6.340  43.436   1.719
92340W        W60758   3.754  32.038  14.409
92341W        W60759  24.022  35.505  11.113
92342W        W60760  18.212   3.877   3.816
92343W        W60761   0.375  18.773  13.398
92344W        W60762  16.650  12.166  10.998
92345W        W60763  10.377   4.421  13.955
92346W        W60764   9.311  12.829   3.766
92347W        W60765  44.374  20.585  14.484
92348W        W60766  13.252  28.634  13.988
92349W        W60767  36.404  21.655   4.238
92350W        W60768   2.964   6.248   0.818
92351W        W60769  34.105  12.743  14.309
92352W        W60770  22.130  13.631  12.939
92353W        W60771  20.635  39.477   5.586
92354W        W60772  39.384  41.794  14.948
92355W        W60773  26.117  15.312   2.869
92356W        W60774   5.437  43.487  14.792
92357W        W60775  31.498  38.982   1.380
92358W        W60776   9.336  35.065   2.831
92359W        W60777  35.441   7.254  12.034
92360W        W60778  13.143  18.738  13.343
92361W        W60779  39.387   2.417   2.330
92362W        W60780  22.633  41.363  14.781
92363W        W60781  22.245  14.251  10.966
92364W        W60782   0.756  22.663   2.814
92365W        W60783  34.511  18.651  12.053
92366W        W60784  30.053  41.867  14.921
92367W        W60785   6.909  21.584   2.288
92368W        W60786  27.968  39.937  14.286
92369W        W60787   6.695  20.086  11.950
92370W        W60788   9.664  17.655  11.984
92371W        W60789  16.634  10.686  13.468
92372W        W60790  10.704  15.153   0.796
92373W        W60791  21.055   5.911  11.070
92374W        W60792  19.776  38.523  12.060
92375W        W60793  17.270  20.678   3.836
92376W        W60794   5.328  19.125  11.955
92377W        W60795  13.315  39.382  14.494
92378W        W60796   7.701  37.908  14.979
92379W        W60797  17.726   0.299   2.285
92380W        W60798  15.773  35.357  10.446
92381W        W60799  44.984  15.653   2.317
92382W        W60800  16.264  32.540   3.214
92383W        W60801   7.689  24.996  13.388
92384W        W60802   2.414  39.521  11.514
92385W        W60803  17.789   8.385   2.275
92386W        W60804  41.451  40.996  13.506
92387W        W60805   9.326  29.556   4.650
92388W        W60806  20.705  29.634   3.793
92389W        W60807  26.578  25.629  10.585
92390W        W60808  38.833  20.115  12.422
92391W        W60809  20.600  33.431   2.703
92392W        W60810  39.404  39.420   3.725
92393W        W60811  29.941  33.068   3.730
92394W        W60812  13.752  40.305   0.344
92395W        W60813  25.594   8.724  12.552
92396W        W60814   8.385  32.118  10.552
92397W        W60815  14.612  13.239   4.725
92398W        W60816  28.077  37.352   9.940
92399W        W60817   2.258  39.930  11.528
92400W        W60818  14.154   8.266   4.132
92401W        W60819  34.950  36.043   1.881
92402W        W60820   1.306  11.840  10.528
92403W        W60821  24.201  36.069   1.919
92404W        W60822   2.377  33.985  14.987
92405W        W60823  24.168  44.951  14.940
92406W        W60824  40.337   0.387   1.796
92407W        W60825  37.078  12.158  12.349
92408W        W60826  16.282  24.526   4.701
92409W        W60827   6.316  42.012   2.178
92410W        W60828  35.439  16.167  14.843
92411W        W60829  39.059  15.717   4.127
92412W        W60830  26.564  35.592  12.545
92413W        W60831  21.071  21.597  13.046
92414W        W60832  25.040   2.453   4.173
92415W        W60833  43.767  26.604  12.087
92416W        W60834  35.078  28.101  10.558
92417W        W60835   0.792  28.468   1.451
92418W        W60836  43.374  22.534  10.507
92419W        W60837  40.005  32.537  13.425
92420W        W60838  40.816   5.797  14.335
92421W        W60839  43.877   4.826  10.428
92422W        W60840  40.051  14.722  14.970
92423W        W60841  18.633  31.411  14.901
92424W        W60842  27.493  33.580   3.172
92425W        W60843  43.878  13.301   0.921
92426W        W60844  33.924  28.456   3.385
92427W        W60845   4.850  30.572   1.918
92428W        W60846  28.505  22.038   0.406
92429W        W60847  18.747  32.031  13.979
92430W        W60848   3.421  22.068   2.775
92431W        W60849  39.503  27.492  13.438
92432W        W60850  36.368  40.897  12.368
92433W        W60851   4.429  19.129   3.262
92434W        W60852  15.124  24.162   2.794
92435W        W60853  13.733  29.087   2.376
92436W        W60854  28.134  10.204  14.423
92437W        W60855  21.070  38.344   4.305
92438W        W60856  39.482  28.446   1.810
92439W        W60857  10.833  30.552  12.454
92440W        W60858   5.889  13.210  13.473
92441W        W60859  18.692   9.659  13.460
92442W        W60860  10.376  15.207   0.869
92443W        W60861  25.577  25.619  14.490
92444W        W60862  18.164  38.535   4.120
92445W        W60863  33.539  30.637  11.568
92446W        W60864  20.042  21.050   0.855
92447W        W60865  25.033  12.226   2.765
92448W        W60866  34.387  43.796   1.870
92449W        W60867  44.466  42.853  11.466
92450W        W60868   0.866  24.040  14.423
92451W        W60869   5.693  18.738  12.009
92452W        W60870  18.119  18.177   4.794
92453W        W60871  21.246  18.112   4.219
92454W        W60872  14.823  35.936  13.347
92455W        W60873  44.459  26.559  11.858
92456W        W60874  17.181  25.622  11.440
92457W        W60875  37.914  22.208   0.852
92458W        W60876  30.566   5.218  13.857
92459W        W60877  27.132  42.835  11.375
92460W        W60878  44.008  44.922   3.268
92461W        W60879  31.903  31.550   4.788
92462W        W60880  39.413  35.504  11.056
92463W        W60881   2.741  29.033  10.937
92464W        W60882  44.005   3.933  14.341
92465W        W60883  43.458   2.843  10.483
92466W        W60884  42.511  22.579   3.705
92467W        W60885  31.015  19.121  11.429
92468W        W60886   1.333  34.894  14.336
92469W        W60887  24.075  12.357  12.557
92470W        W60888   6.358  10.376  12.907
92471W        W60889  21.147  12.840  11.449
92472W        W60890  29.565  30.575   4.779
92473W        W60891   1.299  12.848  14.965
92474W        W60892   6.226   5.289   3.225
92475W        W60893  33.956  31.515  10.617
92476W        W60894   1.798  40.797  14.304
92477W        W60895  28.029  36.035  10.587
92478W        W60896  39.496   6.370  13.969
92479W        W60897  12.220  29.936   0.760
92480W        W60898   1.291  40.468  14.818
92481W        W60899  40.430   3.247  13.887
92482W        W60900  16.247  35.437   4.279
92483W        W60901  34.000  40.998   3.150
92484W        W60902  40.303  30.532   9.980
92485W        W60903  32.476  36.034  12.433
92486W        W60904  42.309   3.309   3.320
92487W        W60905   8.752  25.649   0.751
92488W        W60906   4.795   2.340  12.421
92489W        W60907  35.983  39.421  12.492
92490W        W60908  32.583  34.433  12.971
92491W        W60909  12.177  19.173   0.900
92492W        W60910  30.552  18.684   0.835
92493W        W60911  35.377   8.743   3.278
92494W        W60912  15.582  27.083  12.070
92495W        W60913  44.986  19.628   3.861
92496W        W60914  11.234  28.671   2.759
92497W        W60915  37.553  31.438   1.876
92498W        W60916  43.853  33.568  11.597
92499W        W60917   4.298  44.302   4.828
92500W        W60918   4.408  26.191  13.971
92501W        W60919  17.771   9.241   4.141
92502W        W60920  29.591  20.190   4.294
92503W        W60921   7.375  16.681  14.028
92504W        W60922  25.037  32.048  11.936
92505W        W60923  15.185  36.023  13.357
92506W        W60924  33.448  37.000  11.378
92507W        W60925  19.548  34.954  12.888
92508W        W60926  27.194  21.252  10.613
92509W        W60927  25.577  40.055  10.451
92510W        W60928   6.323  21.116  13.366
92511W        W60929  42.925  34.932  12.390
92512W        W60930   4.823  24.496   1.914
92513W        W60931  43.401   0.797  12.055
92514W        W60932   3.711  12.613  11.398
92515W        W60933  40.357  12.715   4.607
92516W        W60934  45.000  11.293   0.426
92517W        W60935  35.497   0.275   2.814
92518W        W60936  26.163   3.375  13.023
92519W        W60937  44.336   5.334  11.882
92520W        W60938  22.575  38.438   9.520
92521W        W60939  37.457   9.683  10.480
92522W        W60940  40.862  24.695  12.853
92523W        W60941   1.318  14.143  12.864
92524W        W60942  26.061  20.033   1.767
92525W        W60943  24.656  31.582   0.366
92526W        W60944   0.347   2.288   0.770
92527W        W60945   8.320  44.796   4.152
92528W        W60946  21.539  27.056  12.864
92529W        W60947  36.484  21.518   0.878
92530W        W60948  32.038   0.355  12.959
92531W        W60949  37.578  33.947   0.900
92532W        W60950   2.320  38.508   3.707
92533W        W60951   3.810   6.916   4.200
92534W        W60952  39.403  44.456   4.672
92535W        W60953  35.931   8.811   1.355
92536W        W60954   3.254   3.356  13.945
92537W        W60955   6.903  28.506   2.676
92538W        W60956  42.869   2.934  14.839
92539W        W60957  10.653   1.801  12.047
92540W        W60958  26.626   0.979   1.252
92541W        W60959  23.616  31.571   1.343
92542W        W60960  34.493  44.943  14.853
92543W        W60961  39.437   0.377  10.644
92544W        W60962  24.180  15.250   3.229
92545W        W60963   6.852  38.961  11.457
92546W        W60964  14.677   1.373   1.701
92547W        W60965  39.339   7.728  12.509
92548W        W60966   4.321   5.774  10.417
92549W        W60967  24.028  12.123   1.319
92550W        W60968  39.551  29.987  13.336
92551W        W60969   1.812  24.139   4.188
92552W        W60970  22.693  42.938  12.509
92553W        W60971  20.696  33.952   1.221
92554W        W60972  31.469   2.746   2.746
92555W        W60973  33.468  11.365  11.595
92556W        W60974  29.144  42.800   1.334
92557W        W60975   9.378  29.579   4.120
92558W        W60976  10.158   2.763  11.043
92559W        W60977  26.162   5.789  14.794
92560W        W60978   2.902  13.669  13.437
92561W        W60979   8.162  23.590   0.861
92562W        W60980   4.403  28.943   0.935
92563W        W60981  13.786  39.866   2.308
92564W        W60982  10.738   7.218   3.659
92565W        W60983  35.943  44.987   1.706
92566W        W60984   8.161   3.297  12.894
92567W        W60985  39.874  11.341  14.767
92568W        W60986  24.558  24.164  14.971
92569W        W60987   9.327   3.894  14.970
92570W        W60988  23.225  29.037   4.656
92571W        W60989  20.045  14.701  10.028
92572W        W60990  23.196  38.054  13.491
92573W        W60991   7.274  44.846  10.448
92574W        W60992  15.593   5.692   4.195
92575W        W60993  29.028   6.334  10.446
92576W        W60994   0.818  20.242   0.378
92577W        W60995  28.498  17.207  11.986
92578W        W60996  23.096  18.289  13.456
92579W        W60997  21.687   5.320   3.207
92580W        W60998  43.487  29.086   3.264
92581W        W60999  23.547  15.280   4.198
92582W        W61000  22.615  25.126  13.325
92583W        W61001  35.559   2.726  14.916
92584W        W61002   8.403  43.935  12.943
92585W        W61003  29.174   1.831  14.341
92586W        W61004  15.257  23.986  11.891
92587W        W61005  36.571  16.581   4.641
92588W        W61006   6.274   0.798  13.417
92589W        W61007  20.073  31.075  14.412
92590W        W61008  32.973   9.645  14.403
92591W        W61009  19.550   4.253   3.689
92592W        W61010  10.769  35.072  11.043
92593W        W61011  21.218  24.085  14.950
92594W        W61012  41.854  33.462  13.340
92595W        W61013  18.120   9.151  13.049
92596W        W61014  19.764  19.049  11.889
92597W        W61015  40.468  39.856  11.904
92598W        W61016  40.321   6.360   3.824
92599W        W61017  21.067  27.450  12.563
92600W        W61018  20.715  33.516  11.999
92601W        W61019   6.187  36.874   4.675
92602W        W61020  13.747  25.588   4.781
92603W        W61021   7.791   7.694  14.022
92604W        W61022  19.614   2.837   3.198
92605W        W61023  12.212  20.236  12.897
92606W        W61024  37.570   8.781   0.476
92607W        W61025   4.888  31.420  14.865
92608W        W61026  11.639  33.531   3.287
92609W        W61027  44.355  32.047   0.888
92610W        W61028  18.138  15.257   3.745
92611W        W61029  30.515  41.903  14.790
92612W        W61030  44.997  30.078   4.598
92613W        W61031  28.447   7.774   2.840
92614W        W61032   4.424  17.081  12.353
92615W        W61033  19.565  36.459  11.468
92616W        W61034  40.364   8.302   0.326
92617W        W61035  17.093   1.831   5.226
92618W        W61036  22.715  23.621  10.494
92619W        W61037  19.691  20.646   4.336
92620W        W61038  39.469   4.848   5.178
92621W        W61039  43.463  22.133   1.428
92622W        W61040  41.816  41.924   9.553
92623W        W61041  13.265  17.065  10.901
92624W        W61042  39.382  23.989  12.974
92625W        W61043   1.894  29.119  13.910
92626W        W61044  30.417  32.025  12.404
92627W        W61045  34.942  10.838   4.213
92628W        W61046  27.615  40.371   0.481
92629W        W61047  31.032  28.464   1.354
92630W        W61048  35.398   8.309  13.914
92631W        W61049  26.692  32.966   4.684
92632W        W61050   7.864   7.671  13.367
92633W        W61051  29.623   9.876   4.277
92634W        W61052  24.153  27.540   1.894
92635W        W61053   1.889  19.753   0.477
92636W        W61054  30.128  36.477   4.179
92637W        W61055  37.831  23.708   4.642
92638W        W61056  42.874   0.820   4.629
92639W        W61057  30.500   4.388   0.758
92640W        W61058   4.242  10.675  14.021
92641W        W61059   0.984  21.758   2.239
92642W        W61060  28.054  37.478  12.356
92643W        W61061  22.613  17.629  12.041
92644W        W61062  28.442  34.546   2.835
92645W        W61063  33.108  41.509   4.260
92646W        W61064  31.598  25.694   2.901
92647W        W61065  25.997  30.525  14.767
92648W        W61066  36.889  37.902   3.316
92649W        W61067  39.894  41.933   1.932
92650W        W61068  16.770  23.713  13.923
92651W        W61069  38.335  37.842  11.403
92652W        W61070  27.576  27.197  14.848
92653W        W61071  23.214  40.851   4.747
92654W        W61072   8.769  40.872   2.693
92655W        W61073  24.634  32.472  10.971
92656W        W61074  40.826  14.299  12.476
92657W        W61075   4.838  16.762  12.529
92658W        W61076   4.767  39.066   2.856
92659W        W61077  36.069  24.101  14.440
92660W        W61078  30.645  11.190  10.469
92661W        W61079  39.809  44.302   1.869
92662W        W61080  37.580   7.318   3.217
92663W        W61081  25.187  32.392   4.602
92664W        W61082  28.062   2.950  14.936
92665W        W61083  25.543   6.292   1.709
92666W        W61084   0.953  32.050  14.371
92667W        W61085  39.959  14.282  13.058
92668W        W61086  11.164  21.682   0.356
92669W        W61087  15.168   6.248   3.759
92670W        W61088  13.719  25.029  10.988
92671W        W61089  26.069  25.188   2.874
92672W        W61090  38.955  19.154  12.354
92673W        W61091   2.279  26.480   1.879
92674W        W61092  23.165  40.500   3.258
92675W        W61093  44.882  34.517  12.076
92676W        W61094   6.720  30.429   3.813
92677W        W61095   0.823  33.956   1.917
92678W        W61096   9.274  31.035  11.589
92679W        W61097  20.713  31.970  14.967
92680W        W61098  15.606  33.077  13.893
92681W        W61099  31.117  33.428   2.722
92682W        W61100  42.794  33.000  11.470
92683W        W61101  18.140  22.038  12.513
92684W        W61102  16.793  13.770  14.805
92685W        W61103   7.763  34.469  10.410
92686W        W61104  33.125  19.543   0.365
92687W        W61105  42.977   1.439  11.881
92688W        W61106   9.807  14.805   1.214
92689W        W61107   3.784  19.761   4.646
92690W        W61108  14.757   0.825   2.331
92691W        W61109  20.051  13.804   4.825
92692W        W61110  33.130  28.140   0.922
92693W        W61111  32.034  20.097  13.452
92694W        W61112  35.086  30.053   4.652
92695W        W61113   5.877  42.962   2.357
92696W        W61114  20.100  26.030   0.751
92697W        W61115  25.032  31.079   3.808
92698W        W61116   2.747  15.230  12.948
92699W        W61117  24.032  20.740   3.270
92700W        W61118  44.493  20.695  14.026
92701W        W61119   8.673  19.285  12.058
92702W        W61120  24.039  12.316  12.995
92703W        W61121  12.157   5.907  13.852
92704W        W61122  13.765   2.913   3.838
92705W        W61123  38.363  27.476   0.406
92706W        W61124   2.890   1.772  13.335
92707W        W61125   2.798  11.672   2.767
92708W        W61126  33.874  26.529  11.430
92709W        W61127  38.061  33.884   4.727
92710W        W61128  17.078   8.379   0.828
92711W        W61129   9.326  17.743  10.941
92712W        W61130  15.748  36.037  10.589
92713W        W61131  42.782  31.485  10.449
92714W        W61132  28.100  23.727   4.350
92715W        W61133  31.511  28.537  11.997
92716W        W61134   4.880  44.814  11.857
92717W        W61135  10.836   3.898   3.361
92718W        W61136  27.085  16.722   4.822
92719W        W61137  21.171   6.874   2.705
92720W        W61138  15.244  28.089   0.339
92721W        W61139  43.835  13.737   5.802
92722W        W61140   9.350  10.156  10.093
92723W        W61141  27.506  32.530  12.832
92724W        W61142  38.569  33.412  14.837
92725W        W61143  29.079   7.858  13.995
92726W        W61144  36.864  31.501  14.474
92727W        W61145   1.243  36.431   4.158
92728W        W61146  10.826  26.996  14.316
92729W        W61147   5.711   4.331   3.358
92730W        W61148  26.523  27.650  10.410
92731W        W61149  12.300  24.120  11.877
92732W        W61150  11.171  23.728  13.894
92733W        W61151   7.237  39.990   2.197
92734W        W61152  43.349  40.949   2.264
92735W        W61153  26.999   4.250   3.328
92736W        W61154  14.606   1.473   4.689
92737W        W61155  30.092   5.362   2.378
92738W        W61156  33.426  12.687   1.341
92739W        W61157  27.148   9.169   3.199
92740W        W61158  17.254  17.582  11.554
92741W        W61159  15.113   0.838  11.408
92742W        W61160  18.591  33.471  10.928
92743W        W61161   9.392   2.297   2.809
92744W        W61162  42.333  35.105  11.443
92745W        W61163  26.633  32.599  11.070
92746W        W61164   0.899  27.190   0.908
92747W        W61165  15.277  21.667   3.764
92748W        W61166  37.953  28.176  10.435
92749W        W61167  28.550  42.917   0.799
92750W        W61168  38.558  38.477  13.389
92751W        W61169  36.975  11.242  14.806
92752W        W61170  22.593  22.734   2.328
92753W        W61171  37.506  13.817   2.886
92754W        W61172   3.918  19.040   1.861
92755W        W61173  36.373  25.188   3.846
92756W        W61174  38.935   9.764   1.314
92757W        W61175  18.555  21.153   0.926
92758W        W61176  34.511  39.811  11.916
92759W        W61177  39.554   5.337  12.843
92760W        W61178  21.060  26.540  13.510
92761W        W61179  13.785  12.308   0.304
92762W        W61180  20.088   0.980  11.958
92763W        W61181  23.495  22.151   0.278
92764W        W61182  32.577  18.277   1.444
92765W        W61183  12.294  12.189   3.657
92766W        W61184  14.636  24.078  11.482
92767W        W61185  20.125  25.040   1.379
92768W        W61186  14.750  42.026   0.822
92769W        W61187  15.819   8.788   4.673
92770W        W61188  25.076  12.620   4.706
92771W        W61189  24.187  36.031  13.496
92772W        W61190   0.357  37.417  12.018
92773W        W61191  31.012  18.589  10.979
92774W        W61192  12.647  40.539  11.430
92775W        W61193  22.511  22.687   4.668
92776W        W61194  27.058   3.834   4.825
92777W        W61195   4.401   7.838   0.866
92778W        W61196  39.384  39.879  11.954
92779W        W61197  33.008  17.253   2.691
92780W        W61198  27.188   7.179   3.148
92781W        W61199  35.521   8.260   2.719
92782W        W61200  23.665  10.698   0.930
92783W        W61201  26.545  28.664   1.719
92784W        W61202  11.808  23.557   3.214
92785W        W61203   3.244  24.620  10.485
92786W        W61204   1.854  19.141   9.924
92787W        W61205   2.356   4.844  14.848
92788W        W61206  16.259  15.741  13.019
92789W        W61207  28.107  34.863   5.164
92790W        W61208  35.449  13.300  14.017
92791W        W61209  33.568  37.383   1.757
92792W        W61210   5.439  20.557   3.818
92793W        W61211  21.236   4.879  13.338
92794W        W61212  24.667  26.032  10.913
92795W        W61213  29.508  17.112   3.667
92796W        W61214  17.138   3.364   2.413
92797W        W61215  29.576   4.762  12.568
92798W        W61216  43.975  32.120  12.406
92799W        W61217  41.314  39.401   3.371
92800W        W61218  18.649  20.673   4.213
92801W        W61219  20.625  39.463   9.977
92802W        W61220  14.659  15.329   3.353
92803W        W61221  38.429   3.290   0.402
92804W        W61222  44.985  22.740   0.893
92805W        W61223  13.244  39.864  14.508
92806W        W61224  10.826  29.011   3.709
92807W        W61225  35.077  37.481   3.724
92808W        W61226  33.478  21.204   1.277
92809W        W61227   2.759  39.411  12.893
92810W        W61228  16.313  31.445   3.865
92811W        W61229  41.502  10.177  11.858
92812W        W61230  17.158  37.465   9.933
92813W        W61231  16.621  10.735   2.301
92814W        W61232   8.754  28.982   4.624
92815W        W61233  13.351  27.516   0.954
92816W        W61234  30.601  12.149   2.676
92817W        W61235  16.581   5.285  11.989
92818W        W61236  25.129  32.444  12.572
92819W        W61237   9.700   2.363  13.544
92820W        W61238  13.599  23.081   0.840
92821W        W61239  17.122  13.265  13.034
92822W        W61240  14.830  28.063  10.424
92823W        W61241   9.646  25.108   3.686
92824W        W61242  40.501  27.470  11.586
92825W        W61243   4.874  35.922  11.977
92826W        W61244   7.697  22.721  14.500
92827W        W61245  21.635  29.557   3.759
92828W        W61246  29.015   5.383   0.818
92829W        W61247   4.831  10.870  14.965
92830W        W61248  32.547  24.654  14.801
92831W        W61249  37.932  19.255   1.840
92832W        W61250   1.293  19.164   0.961
92833W        W61251  13.667  10.653   3.632
92834W        W61252  42.353  16.747   4.223
92835W        W61253   6.720  15.305  11.062
92836W        W61254  18.607  16.668   2.778
92837W        W61255  20.144   7.875  10.607
92838W        W61256  13.169   8.709  10.021
92839W        W61257  22.530  16.761   4.692
92840W        W61258  16.744  42.330  12.077
92841W        W61259  26.513  36.418   3.632
92842W        W61260  27.099  22.126   4.756
92843W        W61261  11.636  27.446   2.799
92844W        W61262  33.501   3.921   4.790
92845W        W61263  13.229  24.062   1.430
92846W        W61264  27.957  23.026   2.302
92847W        W61265  32.587  28.091   0.318
92848W        W61266  10.238   6.684  12.394
92849W        W61267  17.676  37.890  14.820
92850W        W61268  31.483  29.519   0.767
92851W        W61269  24.200  12.260  13.331
92852W        W61270  26.617  23.182   0.366
92853W        W61271  24.206  23.145   2.777
92854W        W61272   6.356  27.654  14.378
92855W        W61273   7.908   3.313  13.061
92856W        W61274  17.075  35.886  13.913
92857W        W61275  18.658  15.221   0.757
92858W        W61276  14.765  44.835   2.760
92859W        W61277  14.671  12.153  12.918
92860W        W61278  35.593  34.472   0.309
92861W        W61279  24.996  32.523   0.404
92862W        W61280  34.451  28.504   1.765
92863W        W61281  35.547   5.712   2.676
92864W        W61282  32.611  22.679   1.448
92865W        W61283  36.971  14.161   0.272
92866W        W61284  26.198  14.185  11.486
92867W        W61285  25.011  43.322   4.657
92868W        W61286  30.557  42.835   4.154
92869W        W61287  43.898  36.547   4.719
92870W        W61288  21.605  22.034  14.412
92871W        W61289  27.179  34.110  10.906
92872W        W61290  25.171   7.310  14.984
92873W        W61291  29.442  31.975   4.326
92874W        W61292  16.759  22.093   3.759
92875W        W61293  13.810  32.428  13.527
92876W        W61294  25.174  37.885   4.264
92877W        W61295  23.588  29.139   3.761
92878W        W61296  10.754   7.214   0.291
92879W        W61297  44.835  29.140  14.307
92880W        W61298  27.105  15.778   2.809
92881W        W61299   0.789  26.081   3.654
92882W        W61300  16.205  37.856   3.676
92883W        W61301  44.951   5.863  13.029
92884W        W61302  42.899  16.568  14.464
92885W        W61303  26.062  42.513   0.254
92886W        W61304  26.677   6.203   1.448
92887W        W61305  11.819  32.561  13.979
92888W        W61306   5.740   0.924  13.335
92889W        W61307  26.513  36.405   4.699
92890W        W61308  12.214   7.827  12.528
92891W        W61309  41.787  37.363   1.803
92892W        W61310   7.416  42.385   0.249
92893W        W61311  15.591  10.378  14.332
92894W        W61312  18.693  37.050  14.445
92895W        W61313  39.334   0.938   3.300
92896W        W61314  27.088  22.566  14.916
92897W        W61315  11.242  18.243  13.488
92898W        W61316  29.513  18.708   1.767
92899W        W61317  42.827  19.772  10.553
92900W        W61318   9.716  12.653   2.311
92901W        W61319  24.542  23.570  13.927
92902W        W61320  10.751  26.468  14.436
92903W        W61321  23.993  10.754   3.648
92904W        W61322  43.343  32.391  10.530
92905W        W61323   2.846  32.082  10.635
92906W        W61324  15.581  26.699  14.928
92907W        W61325  12.821  11.240  13.849
92908W        W61326  35.021  36.360  14.431
92909W        W61327  33.015  10.234   3.357
92910W        W61328  42.356  30.954  13.395
92911W        W61329   6.282  36.866   2.756
92912W        W61330   8.369  43.325   1.876
92913W        W61331   8.290  10.231  11.377
92914W        W61332  30.982  34.534  13.489
92915W        W61333   4.204   1.837  11.034
92916W        W61334  37.516  14.182  14.364
92917W        W61335  23.600  26.177   4.602
92918W        W61336  26.702   5.764   3.307
92919W        W61337  12.821  20.065  12.491
92920W        W61338  42.380   8.244  14.904
92921W        W61339  27.993  19.585  12.948
92922W        W61340  14.616  37.456  11.501
92923W        W61341  31.007  38.537   0.453
92924W        W61342   3.380  14.144   0.480
92925W        W61343   1.888  20.656   3.300
92926W        W61344   2.884   6.898   2.235
92927W        W61345  11.325  34.913   1.924
92928W        W61346   8.832  24.555  12.040
92929W        W61347   3.369  24.510  13.819
92930W        W61348  41.789  37.961  12.365
92931W        W61349  22.562  33.966  14.448
92932W        W61350  16.160  38.006   4.786
92933W        W61351  37.848   8.347  11.000
92934W        W61352  21.752  26.519  11.117
92935W        W61353  26.128  38.963  13.373
92936W        W61354  18.593  22.511  13.937
92937W        W61355   9.858  24.046   0.809
92938W        W61356  25.145   3.901  13.843
92939W        W61357  25.680  27.491   4.793
92940W        W61358   5.746   2.285   4.748
92941W        W61359   4.919  24.170  10.516
92942W        W61360  35.365  40.376   3.787
92943W        W61361  29.513  38.560  13.528
92944W        W61362  32.528  44.307  14.993
92945W        W61363  34.029  41.459   4.324
92946W        W61364  28.010   8.708  13.958
92947W        W61365  11.292  16.190  10.937
92948W        W61366  36.880  43.943  13.888
92949W        W61367  34.379   4.849  11.501
92950W        W61368  40.852  16.180   2.903
92951W        W61369  40.455   6.693  11.013
92952W        W61370  29.462  32.619  11.100
92953W        W61371  23.604  19.602  10.908
92954W        W61372  31.913  41.846  13.361
92955W        W61373  31.578  19.754  14.324
92956W        W61374  13.269  26.677   2.771
92957W        W61375  14.656   1.269  14.875
92958W        W61376   8.671   4.219  11.053
92959W        W61377  41.854  33.910  13.331
92960W        W61378  25.675  34.474  12.844
92961W        W61379  39.533  39.344   0.333
92962W        W61380  31.960  15.244   2.692
92963W        W61381  13.836  16.315  12.376
92964W        W61382   9.383   2.912  12.941
92965W        W61383   0.373  36.578  12.949
92966W        W61384  42.324  23.694  14.772
92967W        W61385   9.289  37.026  14.019
92968W        W61386   0.445  26.146  11.013
92969W        W61387   0.899   8.661  11.107
92970W        W61388  24.108  28.140   3.371
92971W        W61389  10.781   1.821   3.719
92972W        W61390  39.539  28.122   4.333
92973W        W61391   4.291  20.148  14.948
92974W        W61392  38.832  40.529  11.444
92975W        W61393  40.333   7.317  12.859
92976W        W61394  39.450  37.518   3.806
92977W        W61395  21.134  15.658  14.931
92978W        W61396  18.138  38.546  14.819
92979W        W61397  32.065  14.806  13.986
92980W        W61398   0.366  34.881   0.383
92981W        W61399   1.257   6.761   1.790
92982W        W61400  30.566   2.785  13.524
92983W        W61401  41.514  21.126   4.293
92984W        W61402  32.422  23.189  12.046
92985W        W61403  21.245  11.686  10.585
92986W        W61404  42.881  13.265   4.319
92987W        W61405  14.734  25.599   3.694
92988W        W61406   1.752   9.701   1.865
92989W        W61407  15.610  11.847  11.041
92990W        W61408  16.780  35.050  14.440
92991W        W61409  40.898  32.564   3.333
92992W        W61410  32.568   8.357   3.776
92993W        W61411  24.612   7.699  12.474
92994W        W61412  37.338   1.272   3.785
92995W        W61413   0.908  20.272   1.844
92996W        W61414   9.316  35.043   3.165
92997W        W61415   0.493  10.179   3.822
92998W        W61416  20.144  19.566  11.982
92999W        W61417  34.570   3.349  10.515
93000W        W61418  35.460  11.632   4.179
93001W        W61419  23.058  24.662   2.872
93002W        W61420   1.958   9.250  10.613
93003W        W61421  28.444  29.457   0.256
93004W        W61422  42.805  17.221  12.365
93005W        W61423  44.366  41.333   1.804
93006W        W61424  31.487  26.590  12.397
93007W        W61425  26.179   1.301   0.904
93008W        W61426  44.335  31.898  12.973
93009W        W61427  19.699  30.146   4.330
93010W        W61428  10.144   0.295   3.638
93011W        W61429  39.973  34.035  13.495
93012W        W61430  36.483  25.061  14.873
93013W        W61431  32.603  22.082  13.548
93014W        W61432  32.537   4.752   4.150
93015W        W61433  13.163  19.641   2.787
93016W        W61434  18.220  38.946   1.760
93017W        W61435  25.709   0.377  10.626
93018W        W61436  12.700  28.561  13.888
93019W        W61437  43.510  10.741   2.271
93020W        W61438   0.408  41.320  12.898
93021W        W61439  41.504  28.444  12.527
93022W        W61440   4.921  27.040  10.905
93023W        W61441   5.736  31.074  11.957
93024W        W61442  29.002   9.757   2.863
93025W        W61443  39.835  30.934   2.765
93026W        W61444  43.435  26.672   3.154
93027W        W61445   2.258  16.197   0.321
93028W        W61446  10.351  11.637   2.842
93029W        W61447  40.509   4.404  14.404
93030W        W61448  10.158  32.402  13.408
93031W        W61449  12.753  34.585   0.385
93032W        W61450  43.918  30.143  13.863
93033W        W61451  27.690  31.003  12.835
93034W        W61452  35.585  19.144  14.406
93035W        W61453  30.605  24.637  14.443
93036W        W61454  13.274  12.658  10.890
93037W        W61455  31.541  28.513  10.434
93038W        W61456   4.310  25.568   0.427
93039W        W61457  33.894  12.636   3.743
93040W        W61458  14.178  31.938  12.948
93041W        W61459  14.785  30.622   2.297
93042W        W61460  14.610  17.089  12.528
93043W        W61461  20.101  20.247  11.515
93044W        W61462  32.121  13.117  13.834
93045W        W61463  38.871  32.940   3.276
93046W        W61464  30.136  37.830  12.880
93047W        W61465  13.754   5.712   1.421
93048W        W61466   7.409  31.497   4.317
93049W        W61467   1.836  15.740   2.712
93050W        W61468  21.095  10.861   0.421
93051W        W61469  35.366   7.212   4.786
93052W        W61470  43.309   8.688   5.276
93053W        W61471  44.758   1.911  12.020
93054W        W61472  34.575  26.665  10.516
93055W        W61473   2.787  40.449   1.311
93056W        W61474  42.848  34.044   3.697
93057W        W61475  15.299  11.707   3.836
93058W        W61476   5.320  30.475   1.864
93059W        W61477   9.649   7.686   1.823
93060W        W61478  20.634  15.086   3.710
93061W        W61479  29.545  23.560   2.257
93062W        W61480   1.742  19.657   0.749
93063W        W61481  26.689  18.715   3.356
93064W        W61482  38.385   0.790  11.512
93065W        W61483  30.157  15.103  10.939
93066W        W61484  34.401  33.127   0.733
93067W        W61485   1.286   0.472   3.386
93068W        W61486  40.822  26.516  10.047
93069W        W61487   3.423   1.832  10.904
93070W        W61488  15.578  39.368   1.763
93071W        W61489  15.719  41.474   1.913
93072W        W61490  12.164  34.928  14.382
93073W        W61491  18.622   3.862   4.664
93074W        W61492  26.184   1.918  12.555
93075W        W61493  35.047  36.408  12.860
93076W        W61494   0.377  18.216   4.300
93077W        W61495   0.463   1.447  11.563
93078W        W61496  22.638   6.705   2.870
93079W        W61497  25.639   8.803  11.016
93080W        W61498   9.153  38.964  11.409
93081W        W61499  34.879  27.691  11.529
93082W        W61500  12.177  32.045   3.643
93083W        W61501   9.811  25.986  13.455
93084W        W61502  12.692  34.069  14.285
93085W        W61503  35.421  36.957   3.801
93086W        W61504  31.012   7.175   0.967
93087W        W61505  14.703  34.575  11.028
93088W        W61506  26.534   6.879   1.870
93089W        W61507  43.802  18.101  11.456
93090W        W61508  30.433  24.483  14.981
93091W        W61509  29.574   0.269   1.449
93092W        W61510  16.612  11.686   1.746
93093W        W61511  32.887  27.674  13.997
93094W        W61512   1.747  23.224  12.082
93095W        W61513   5.898  42.982   2.812
93096W        W61514   0.939  39.973   4.326
93097W        W61515  25.063  32.119   3.787
93098W        W61516  42.406  39.383   1.279
93099W        W61517   7.860  18.222  11.969
93100W        W61518  24.053  24.188  12.092
93101W        W61519  32.549  26.554   0.347
93102W        W61520  26.002   8.323   2.198
93103W        W61521  41.352  33.398  14.780
93104W        W61522  10.661  13.325   1.257
93105W        W61523  42.864   9.862  10.412
93106W        W61524  31.109  19.147   1.701
93107W        W61525   2.749  21.099   0.771
93108W        W61526  34.592  17.630   0.791
93109W        W61527  36.437  42.379  11.066
93110W        W61528  11.651  13.722   2.746
93111W        W61529  24.691  17.157  11.450
93112W        W61530  25.972   3.756   3.243
93113W        W61531  12.125  19.736   3.690
93114W        W61532  12.360  16.787  10.633
93115W        W61533  38.563  24.004   4.117
93116W        W61534  32.943   7.831   1.767
93117W        W61535   4.812   0.843   2.277
93118W        W61536  23.670  39.490   3.726
93119W        W61537   3.885  34.372  12.552
93120W        W61538  17.676  20.251   2.715
93121W        W61539   7.308  43.021   4.126
93122W        W61540  28.993  42.980   4.793
93123W        W61541  36.001  16.778  12.968
93124W        W61542  44.442  16.117   3.213
93125W        W61543  41.025   6.271  10.425
93126W        W61544   7.344  40.911  14.508
93127W        W61545  32.028   6.842  13.489
93128W        W61546  30.009  23.182   0.308
93129W        W61547  31.604  10.740  14.999
93130W        W61548  37.483  26.053   3.212
93131W        W61549  14.146  41.899   3.360
93132W        W61550  44.336  42.958  13.003
93133W        W61551  25.705   8.389   4.703
93134W        W61552  13.310  25.078   2.230
93135W        W61553   6.382  32.127  14.508
93136W        W61554  18.121  44.809   1.248
93137W        W61555  36.890  32.483  11.559
93138W        W61556  15.695   5.322   2.335
93139W        W61557  17.637   9.356  14.001
93140W        W61558  38.387  30.612   0.251
93141W        W61559  41.383  25.479  10.967
93142W        W61560  40.013   7.713  12.894
93143W        W61561   5.256   3.243   3.705
93144W        W61562  22.213  18.070   4.309
93145W        W61563  34.913  39.513  10.571
93146W        W61564  19.754   9.177  11.866
93147W        W61565  15.233  11.737   3.201
93148W        W61566  40.916  25.209   3.310
93149W        W61567  44.272  13.841   1.791
93150W        W61568  11.767  30.049  10.510
93151W        W61569  23.107  35.386   0.825
93152W        W61570  39.378   5.243   4.815
93153W        W61571  20.225  17.100   2.275
93154W        W61572   4.241  41.865  11.523
93155W        W61573  18.719   7.805   3.231
93156W        W61574  18.583   2.723   3.211
93157W        W61575  24.105  12.633  14.902
93158W        W61576  19.572  26.552  14.017
93159W        W61577  25.606  25.202  11.042
93160W        W61578  22.597  25.661  10.923
93161W        W61579  43.465  38.032   2.196
93162W        W61580  27.520  18.755  12.574
93163W        W61581   9.864  19.584  13.334
93164W        W61582  24.516  44.868   1.274
93165W        W61583  43.477  35.383  11.878
93166W        W61584  24.192   2.827   0.793
93167W        W61585   4.239  44.901   4.804
93168W        W61586  13.216  30.455  13.385
93169W        W61587  12.343  23.736  11.460
93170W        W61588   4.449   8.162  12.473
93171W        W61589  12.211  10.357  10.989
93172W        W61590   4.779  38.517   3.300
93173W        W61591  30.067   1.803  12.059
93174W        W61592  33.533  14.661   0.279
93175W        W61593  19.265  14.593  11.913
93176W        W61594   8.307  10.672  14.286
93177W        W61595   5.230  40.423   3.387
93178W        W61596   9.360  22.557   2.326
93179W        W61597  39.871  28.669   0.901
93180W        W61598  12.339  32.050   1.803
93181W        W61599  28.009  42.017   1.309
93182W        W61600  16.073  25.113  14.831
93183W        W61601  37.479  21.165   9.987
93184W        W61602   9.308  36.031  13.802
93185W        W61603  43.444  20.220   4.315
93186W        W61604  16.246   6.676   2.269
93187W        W61605  15.299  33.582  13.021
93188W        W61606  14.340   5.884  12.973
93189W        W61607  44.845  26.575  11.906
93190W        W61608  30.612  41.864   0.886
93191W        W61609  11.721  24.631   1.445
93192W        W61610  38.523   3.444  14.469
93193W        W61611  32.965  37.918  13.539
93194W        W61612  28.485   8.688   3.698
93195W        W61613  25.583  41.395  14.456
93196W        W61614  11.795  23.097  12.385
93197W        W61615  44.946   9.727  12.466
93198W        W61616   4.718  12.235  12.078
93199W        W61617   0.762  26.539   3.254
93200W        W61618  21.652  28.467  12.491
93201W        W61619  44.360   6.322  13.362
93202W        W61620   1.886  39.989   4.187
93203W        W61621  17.093  29.595  13.807
93204W        W61622  11.819  38.929  13.859
93205W        W61623  30.576  35.603  12.528
93206W        W61624  40.053  40.947  10.983
93207W        W61625   2.280  34.490   1.452
93208W        W61626  12.742   6.273  14.965
93209W        W61627  35.521  35.587  12.061
93210W        W61628  31.484  10.288   3.215
93211W        W61629  18.658   3.758   2.787
93212W        W61630  37.838   5.425   1.249
93213W        W61631  30.431  11.231  11.447
93214W        W61632  36.371  35.366   2.739
93215W        W61633  14.190   0.777  14.845
93216W        W61634   7.213   8.234  10.467
93217W        W61635  32.068  34.466  10.585
93218W        W61636  10.669  19.127  14.390
93219W        W61637  32.139  16.772   2.683
93220W        W61638  25.684  26.081   1.341
93221W        W61639  10.738  25.081   3.724
93222W        W61640  16.738  31.108  13.525
93223W        W61641  29.515  18.729  11.493
93224W        W61642  30.421  12.188  11.480
93225W        W61643   5.749  12.267   4.291
93226W        W61644  21.200  27.685  11.584
93227W        W61645  42.782   6.269   0.359
93228W        W61646  10.722   6.772  13.848
93229W        W61647  38.830  22.536   1.433
93230W        W61648  41.923  16.746  14.899
93231W        W61649  16.645  27.550  12.876
93232W        W61650  29.017  24.190   2.212
93233W        W61651   9.778   3.320   3.654
93234W        W61652  27.011  29.568  11.024
93235W        W61653  38.914  15.131  12.975
93236W        W61654  11.787  43.468   3.830
93237W        W61655  30.521  25.666   2.379
93238W        W61656  24.655  31.060   3.730
93239W        W61657  36.052  19.546   4.790
93240W        W61658  16.139   7.867   3.846
93241W        W61659  16.639  28.967  12.520
93242W        W61660   8.777   4.702   1.268
93243W        W61661  33.532  33.380  11.933
93244W        W61662  29.103  12.297   0.966
93245W        W61663  28.121   6.201   9.973
93246W        W61664  21.537  18.223   2.803
93247W        W61665  10.824  19.563  14.501
93248W        W61666   3.312   2.769   3.253
93249W        W61667  21.752  34.940  10.924
93250W        W61668  35.928  35.501   0.961
93251W        W61669  26.487  20.237  12.473
93252W        W61670  42.876  13.682   0.429
93253W        W61671  25.970  33.091  10.979
93254W        W61672  16.081   9.394  11.067
93255W        W61673  14.320  44.997   3.253
93256W        W61674  15.144  36.048  11.899
93257W        W61675  12.769   1.432   3.651
93258W        W61676  24.230   4.351  11.374
93259W        W61677  25.013  42.003  14.914
93260W        W61678  30.658  25.165  14.353
93261W        W61679  31.498  24.154   3.286
93262W        W61680  15.280   5.435   5.095
93263W        W61681  37.532  22.117  12.464
93264W        W61682  41.895  32.476   3.179
93265W        W61683   9.854  31.506   1.341
93266W        W61684  18.595   1.410  11.915
93267W        W61685  23.573   0.858  14.929
93268W        W61686  39.823  29.103  13.023
93269W        W61687  34.902  42.377   3.788
93270W        W61688  17.183  30.569  13.812
93271W        W61689  34.905  11.709   2.326
93272W        W61690   1.950  38.908   0.449
93273W        W61691  38.826   5.821   2.675
93274W        W61692  11.315  23.523   4.687
93275W        W61693  30.023  33.971   0.281
93276W        W61694  30.920  30.055   4.797
93277W        W61695  17.202  19.666  13.363
93278W        W61696   1.267   9.281   3.869
93279W        W61697   4.281  41.975   3.249
93280W        W61698  20.611  38.454  13.880
93281W        W61699  23.537  25.683  12.384
93282W        W61700  28.079  35.004   2.806
93283W        W61701   5.311  32.602  12.945
93284W        W61702   5.738   5.808  14.380
93285W        W61703  44.846  32.397   2.738
93286W        W61704  23.226  37.987   3.685
93287W        W61705  41.855  42.898   2.825
93288W        W61706  32.981  14.785  10.908
93289W        W61707  38.445  22.010  12.959
93290W        W61708  17.279  35.030  13.031
93291W        W61709  12.162  43.855  14.464
93292W        W61710  14.644  16.079  12.453
93293W        W61711   9.705   9.665  12.028
93294W        W61712  28.496  40.968  13.917
93295W        W61713   6.419  10.139   5.175
93296W        W61714   6.184  33.936  11.572
93297W        W61715   9.866  35.008   3.339
93298W        W61716  30.659   4.863   3.229
93299W        W61717  12.736   7.851  13.879
93300W        W61718  12.752  22.506  13.998
93301W        W61719  25.498   6.205   0.838
93302W        W61720  36.841   8.703   1.444
93303W        W61721  10.653  21.200  11.938
93304W        W61722   8.822  32.573  12.379
93305W        W61723   4.835   6.200  11.985
93306W        W61724  16.115  33.045   4.686
93307W        W61725  15.798  43.306  10.491
93308W        W61726  31.113  23.584  12.055
93309W        W61727  35.450   9.345  12.501
93310W        W61728  17.067  31.078  10.897
93311W        W61729   5.914  11.151   1.702
93312W        W61730  14.198  23.534   1.326
93313W        W61731  14.310  21.137   3.640
93314W        W61732  10.248  25.655  10.438
93315W        W61733  37.084  32.960   2.366
93316W        W61734  20.205  39.379   3.799
93317W        W61735   7.848  14.254  11.579
93318W        W61736  38.348  43.956   1.430
93319W        W61737  21.057   2.942   0.920
93320W        W61738  30.919  26.158   4.603
93321W        W61739  40.418  33.892  14.920
93322W        W61740  27.999  35.483   3.222
93323W        W61741   8.834  17.740  10.631
93324W        W61742   7.323  31.932  14.337
93325W        W61743  18.559   3.447   0.425
93326W        W61744  39.421  34.937  11.477
93327W        W61745  40.406  12.193  12.361
93328W        W61746  23.241  19.082   1.715
93329W        W61747  33.100  23.564  14.796
93330W        W61748  14.304   0.308  14.290
93331W        W61749  42.012  33.471   3.737
93332W        W61750   7.741  42.359   0.946
93333W        W61751  34.596  33.010  13.961
93334W        W61752  34.524   1.786   3.764
93335W        W61753  15.160  41.405  12.504
93336W        W61754  36.455  36.361   3.285
93337W        W61755   6.249  30.077   3.228
93338W        W61756  40.308  31.481  10.425
93339W        W61757  43.876  32.451  11.978
93340W        W61758  37.971  22.690  10.977
93341W        W61759  17.066  27.610  12.071
93342W        W61760  10.658  26.175   0.879
93343W        W61761  22.573   4.269  10.446
93344W        W61762  39.886  26.020   2.202
93345W        W61763  16.566  25.579  10.530
93346W        W61764   3.787  12.783  10.420
93347W        W61765  27.984  26.176   0.320
93348W        W61766   2.427  25.163  13.841
93349W        W61767  27.489  16.648  12.361
93350W        W61768  34.991  16.203   3.329
93351W        W61769   9.739   1.418   1.267
93352W        W61770  28.056  41.328  12.421
93353W        W61771  42.412  16.702   1.695
93354W        W61772  40.815  41.489  14.018
93355W        W61773  23.686   1.912   3.771
93356W        W61774  29.985   5.268   4.794
93357W        W61775  33.473   8.870  11.866
93358W        W61776  42.440  42.980  12.966
93359W        W61777  43.942   6.329   4.323
93360W        W61778  13.646  19.679  11.403
93361W        W61779  32.892  24.671   4.690
93362W        W61780   3.743  39.904   4.808
93363W        W61781  36.941  40.865   2.893
93364W        W61782  19.184  42.898   2.351
93365W        W61783  22.622  26.690   3.678
93366W        W61784   7.775   8.246  12.084
93367W        W61785  43.341  25.159  10.973
93368W        W61786  19.737  34.117   4.731
93369W        W61787  35.097   2.338   4.757
93370W        W61788  30.516  39.344  14.316
93371W        W61789   0.352  19.051   1.849
93372W        W61790   2.467  32.602  11.059
93373W        W61791  11.734  41.981   1.700
93374W        W61792  28.037   4.848   0.967
93375W        W61793  15.706  15.095   2.263
93376W        W61794  27.077  41.384  13.310
93377W        W61795  39.925  19.144   3.777
93378W        W61796  17.759  15.644   3.278
93379W        W61797  31.504  27.690   1.887
93380W        W61798   4.311  26.000  12.855
93381W        W61799  26.205  22.610   4.246
93382W        W61800  28.165  35.946  12.041
93383W        W61801  20.644  11.287  13.341
93384W        W61802  18.286  17.186   1.821
93385W        W61803  39.891  21.125   2.363
93386W        W61804  13.768  26.088   4.289
93387W        W61805  34.960  20.047  11.085
93388W        W61806  32.927  15.712  12.340
93389W        W61807  29.507  38.823   4.221
93390W        W61808  41.887  25.645   4.315
93391W        W61809  36.577   0.373  10.104
93392W        W61810  38.877  35.868  12.059
93393W        W61811   3.410  16.161  10.625
93394W        W61812  39.942  34.913  14.279
93395W        W61813  18.056  36.969   0.349
93396W        W61814   1.805   9.673   4.177
93397W        W61815   9.296   5.877   3.310
93398W        W61816  18.215  37.856  14.918
93399W        W61817  43.869  24.611  10.475
93400W        W61818  44.769  23.108   0.454
93401W        W61819  42.301   9.269   3.641
93402W        W61820  40.417  11.794  10.533
93403W        W61821  27.169  10.352   2.239
93404W        W61822  12.274   9.182  14.275
93405W        W61823  43.334  14.663   1.317
93406W        W61824  15.768  22.537   1.410
93407W        W61825   9.728  18.714   2.830
93408W        W61826   3.769  15.266   3.847
93409W        W61827   7.274  21.168   4.118
93410W        W61828   4.384  11.720  10.582
93411W        W61829  30.515  11.853   1.843
93412W        W61830  39.016  13.174   1.352
93413W        W61831   3.768   8.356  12.021
93414W        W61832   0.774  44.988   4.221
93415W        W61833  43.993  33.415  14.927
93416W        W61834  41.864   7.185  13.468
93417W        W61835   7.810  15.608  13.342
93418W        W61836  10.304  12.687   3.773
93419W        W61837  19.718  36.887   4.282
93420W        W61838  41.907  38.328   9.638
93421W        W61839  22.513  40.031  14.370
93422W        W61840  33.443  19.230   3.172
93423W        W61841  37.451  31.504   3.333
93424W        W61842  25.144  34.972   2.784
93425W        W61843   3.224  18.076  10.502
93426W        W61844  20.163  33.428  14.886
93427W        W61845  15.244   0.450   2.302
93428W        W61846  19.117  15.200   5.257
93429W        W61847  15.246  35.936   4.137
93430W        W61848   2.441  39.064   3.738
93431W        W61849  29.158  14.790   1.437
93432W        W61850  28.128  37.081   4.278
93433W        W61851  27.974  43.337  10.615
93434W        W61852   5.392   0.833   2.776
93435W        W61853  44.916  18.568   2.737
93436W        W61854  37.955  31.534  14.861
93437W        W61855  32.449  29.166   2.372
93438W        W61856  40.009  38.045  12.369
93439W        W61857  21.549  29.540   3.385
93440W        W61858  36.399  39.480   1.394
93441W        W61859   9.299   5.861  11.960
93442W        W61860  15.606   9.380   3.828
93443W        W61861   2.421  42.937  14.918
93444W        W61862  37.469  21.100  12.416
93445W        W61863  43.409   8.328  13.800
93446W        W61864  30.980  18.105   3.265
93447W        W61865  16.288  24.074  12.355
93448W        W61866  29.133   3.711   3.830
93449W        W61867  23.679  19.771   2.696
93450W        W61868  32.488  16.658   0.446
93451W        W61869  14.661   8.174  11.082
93452W        W61870  17.784   5.257   2.373
93453W        W61871  19.601   1.479  12.384
93454W        W61872  44.869  17.197   2.736
93455W        W61873  38.905  27.597   5.102
93456W        W61874   9.761  28.671  14.292
93457W        W61875  42.884  41.028   3.830
93458W        W61876  16.235   3.893  11.011
93459W        W61877   1.817   1.928   1.731
93460W        W61878  25.184  39.461  12.994
93461W        W61879  43.462  11.213  14.861
93462W        W61880  36.574  12.155  13.381
93463W        W61881  23.704  11.722   4.755
93464W        W61882   1.969  13.728   1.852
93465W        W61883  33.903  13.818   0.962
93466W        W61884   2.773  17.631   1.232
93467W        W61885   6.919  30.639   4.255
93468W        W61886  27.166  31.595   2.829
93469W        W61887  42.288  32.925  12.093
93470W        W61888  43.945  17.682   3.773
93471W        W61889  20.094   9.294   3.247
93472W        W61890  11.856  19.260  13.931
93473W        W61891  38.919   4.336  10.417
93474W        W61892   9.887  20.205  11.381
93475W        W61893   2.316  19.661  10.095
93476W        W61894  41.872   1.440  12.444
93477W        W61895  27.046   9.341   2.871
93478W        W61896  40.813  42.979  14.373
93479W        W61897  34.505  37.363  13.515
93480W        W61898  33.880  32.458  11.385
93481W        W61899  36.382   3.898   2.750
93482W        W61900   3.353  39.410  11.964
93483W        W61901  19.095  33.990   3.668
93484W        W61902  27.984  25.110   2.230
93485W        W61903  11.250   8.858  12.431
93486W        W61904  24.096  18.649  11.540
93487W        W61905  33.380  32.425   3.263
93488W        W61906  23.599  42.509  14.832
93489W        W61907  10.753  16.143  11.600
93490W        W61908  42.342  16.133   3.646
93491W        W61909  39.937  10.339   0.756
93492W        W61910  12.686  13.287   1.721
93493W        W61911  42.402  44.376  12.084
93494W        W61912  16.274  32.528  13.483
93495W        W61913  34.069  20.060   3.750
93496W        W61914  36.914  27.166   0.429
93497W        W61915  32.477   4.406   4.733
93498W        W61916  35.100   8.263   0.853
93499W        W61917  36.502  35.080  14.908
93500W        W61918  13.253  37.470   4.186
93501W        W61919   0.287   2.357  11.028
93502W        W61920   1.332  23.728  10.433
93503W        W61921   7.826  30.069  10.950
93504W        W61922   5.200   1.735   0.401
93505W        W61923  24.513  18.263  11.860
93506W        W61924  18.625  41.869   2.400
93507W        W61925  17.598  35.562  10.488
93508W        W61926   5.217  27.104  11.488
93509W        W61927   5.764  39.390   0.386
93510W        W61928   3.871  15.714   0.813
93511W        W61929  25.577  40.306  14.308
93512W        W61930  12.750  25.200   0.895
93513W        W61931   0.306  13.317   4.839
93514W        W61932  17.092  13.219   4.234
93515W        W61933   2.767  24.083   1.757
93516W        W61934  35.596  33.885  12.017
93517W        W61935  35.054  22.681  12.067
93518W        W61936  29.012  36.489  13.476
93519W        W61937   0.326  42.029   2.292
93520W        W61938  39.402  41.437  12.558
93521W        W61939  23.211   4.926   2.349
93522W        W61940   5.859  38.832  14.009
93523W        W61941  36.568  41.467   0.245
93524W        W61942  15.113   4.786   5.160
93525W        W61943   7.742  13.317   1.440
93526W        W61944   3.243  10.252   1.322
93527W        W61945  27.975   5.382   0.743
93528W        W61946  25.187   3.293   2.662
93529W        W61947  40.525  30.481  11.474
93530W        W61948  14.755  25.011  13.397
93531W        W61949  19.541  19.638   4.702
93532W        W61950  40.439  20.762  13.338
93533W        W61951  27.080  28.068   0.926
93534W        W61952  18.621  15.769   2.810
93535W        W61953  31.500  23.643  13.843
93536W        W61954   2.248   9.699  13.387
93537W        W61955  25.083  28.580  12.420
93538W        W61956   2.386  29.445   3.150
93539W        W61957  11.702  42.973  14.922
93540W        W61958  25.700  33.075  13.415
93541W        W61959  15.814  23.137   2.277
93542W        W61960  19.755   6.404   1.247
93543W        W61961   2.856   2.391  14.457
93544W        W61962  28.476  16.744  11.074
93545W        W61963  29.638  15.248  14.004
93546W        W61964   4.370   3.730   4.245
93547W        W61965   6.871  40.850   3.659
93548W        W61966  25.648  35.021  13.995
93549W        W61967  22.022   5.699  10.893
93550W        W61968   7.778  34.474   3.174
93551W        W61969  18.722  20.691   3.211
93552W        W61970  11.222  38.467   1.889
93553W        W61971  44.327  17.252   1.880
93554W        W61972  43.936  36.355  10.643
93555W        W61973  32.914  14.124   0.854
93556W        W61974  15.102  15.175   2.668
93557W        W61975  34.412  23.075  14.344
93558W        W61976  40.028  34.439  14.351
93559W        W61977  15.677  40.445  14.902
93560W        W61978  22.738  25.191   2.808
93561W        W61979  22.154   5.357  10.523
93562W        W61980  35.397  38.948  14.824
93563W        W61981  10.172  13.322  10.439
93564W        W61982  17.258  10.220   0.815
93565W        W61983  31.601   2.247  13.031
93566W        W61984  27.186   1.303  12.521
93567W        W61985  19.542  28.976  11.533
93568W        W61986  32.602  39.341  13.310
93569W        W61987  35.952  12.822  11.413
93570W        W61988  16.305  36.902  12.070
93571W        W61989  43.357  41.382   1.836
93572W        W61990  37.912  22.503   3.367
93573W        W61991   1.941  29.151   0.418
93574W        W61992  13.801  39.376  11.878
93575W        W61993  30.162  42.465  10.463
93576W        W61994  11.286  22.191   4.801
93577W        W61995  20.129   9.345  12.839
93578W        W61996  12.770  33.046   0.343
93579W        W61997  37.831  26.550   0.813
93580W        W61998  24.092   7.220  13.467
93581W        W61999  44.990  11.762  12.342
93582W        W62000  24.174   0.339  11.963
93583W        W62001  37.563  22.632  12.001
93584W        W62002  18.093  12.816   9.956
93585W        W62003  31.605  20.578   3.786
93586W        W62004   3.430  11.129   0.303
93587W        W62005  21.054   7.767   1.296
93588W        W62006  40.360  37.475  13.398
93589W        W62007  17.105   0.906   5.231
93590W        W62008   0.453  12.118   3.656
93591W        W62009  12.795  33.466  12.923
93592W        W62010  14.656  12.289   4.802
93593W        W62011   6.767  11.788  12.516
93594W        W62012  12.203  24.610  13.385
93595W        W62013  34.600   8.353   0.447
93596W        W62014   2.283  36.069   4.775
93597W        W62015   2.278  37.060   2.765
93598W        W62016   7.757  38.358  12.367
93599W        W62017  15.665  14.303  10.469
93600W        W62018  15.292   5.933   3.286
93601W        W62019  35.858   1.743  14.895
93602W        W62020  17.232  34.494   4.234
93603W        W62021   9.366   1.964  13.329
93604W        W62022  43.775  25.173  14.316
93605W        W62023  29.634  25.198  10.490
93606W        W62024  18.071  33.608   0.282
93607W        W62025   9.359  17.188  13.481
93608W        W62026   6.884  29.105   4.282
93609W        W62027   0.291  43.877  11.555
93610W        W62028  19.662  27.165  10.097
93611W        W62029   3.747  35.059  12.468
93612W        W62030  11.749   5.838   3.771
93613W        W62031  37.540   0.932  14.379
93614W        W62032  12.320  40.958  10.891
93615W        W62033  36.998  26.642  11.517
93616W        W62034  42.343  30.556  13.339
93617W        W62035  12.700  40.962  14.831
93618W        W62036  38.018  23.060   0.376
93619W        W62037  13.194   4.297  13.023
93620W        W62038  31.529   7.671  12.097
93621W        W62039  30.473  38.027   3.836
93622W        W62040  11.262  36.560   2.341
93623W        W62041  39.499  24.562  13.431
93624W        W62042  32.924  20.241  12.387
93625W        W62043  42.372   1.861   2.721
93626W        W62044  44.837   4.705  10.440
93627W        W62045  36.438  27.653   3.643
93628W        W62046  18.270  22.646  13.798
93629W        W62047  32.931  34.447   2.286
93630W        W62048  18.595  44.382   1.802
93631W        W62049   0.856  42.454   1.719
93632W        W62050  31.050  37.522  13.032
93633W        W62051   2.466  30.567  11.389
93634W        W62052  17.092  17.103   2.299
93635W        W62053  28.504  17.626   4.719
93636W        W62054   3.357  26.650   4.781
93637W        W62055  44.973  19.721  13.346
93638W        W62056  40.873  40.368  12.488
93639W        W62057  33.486  26.457  12.405
93640W        W62058  36.034  36.022  14.010
93641W        W62059   6.923   5.706   4.690
93642W        W62060  28.985  10.202  14.951
93643W        W62061  35.951   5.902   0.395
93644W        W62062  19.548  21.258  10.444
93645W        W62063  21.715  27.051   3.249
93646W        W62064  12.763  23.698   2.312
93647W        W62065  17.619   0.360  12.550
93648W        W62066   0.461  13.202  12.428
93649W        W62067  11.646  20.110  13.538
93650W        W62068   5.845  13.734  11.864
93651W        W62069  42.456  24.685  10.451
93652W        W62070   3.433  38.485  13.844
93653W        W62071  11.161  37.503  13.887
93654W        W62072  17.692  35.971  14.788
93655W        W62073  33.077  34.003  14.886
93656W        W62074  22.026  25.974   5.705
93657W        W62075  29.942  12.148   2.834
93658W        W62076  36.378  34.974  12.931
93659W        W62077  44.848  25.100   1.249
93660W        W62078  27.019  44.394  12.005
93661W        W62079  33.972  29.060   0.886
93662W        W62080   9.353  20.539   4.672
93663W        W62081  13.788  32.068   1.796
93664W        W62082  30.122  25.499   1.742
93665W        W62083  14.288  33.911   4.602
93666W        W62084   3.438  29.113  14.846
93667W        W62085  18.288  13.603  13.958
93668W        W62086  12.207  41.830  11.967
93669W        W62087  34.406  24.654  11.575
93670W        W62088  19.083  16.694   2.807
93671W        W62089  42.781  20.040   1.829
93672W        W62090  18.630  18.598  10.424
93673W        W62091  17.064   0.384  10.959
93674W        W62092  31.087  22.739   1.797
93675W        W62093  35.853  38.517  10.455
93676W        W62094  38.554  14.325  13.483
93677W        W62095  24.512  23.659   3.838
93678W        W62096   1.933   1.326   3.631
93679W        W62097  26.532  27.600   2.197
93680W        W62098  32.010  33.902  11.127
93681W        W62099  15.818  31.584   4.335
93682W        W62100  28.016  43.861  10.988
93683W        W62101  16.705  13.237  12.463
93684W        W62102  37.462  43.510   1.304
93685W        W62103  22.534  16.799  13.324
93686W        W62104  40.013  13.251  13.525
93687W        W62105  36.444  20.582  13.488
93688W        W62106  36.090  36.081   2.376
93689W        W62107  39.901  22.606   0.246
93690W        W62108  12.283   8.674  12.431
93691W        W62109  25.214  22.644   4.704
93692W        W62110  32.897   5.696  13.509
93693W        W62111  32.031  26.559   0.273
93694W        W62112   1.885  33.426   4.129
93695W        W62113  34.953  17.798   1.879
93696W        W62114  40.002  11.265  11.105
93697W        W62115  26.695  41.472   4.641
93698W        W62116  27.987  35.574   0.408
93699W        W62117  13.760  40.047  13.450
93700W        W62118  44.325   1.429   2.798
93701W        W62119  38.371  28.479   4.780
93702W        W62120  28.932   4.292   4.678
93703W        W62121   9.883   6.344  11.024
93704W        W62122  11.137   9.151  14.886
93705W        W62123  32.398  39.554  14.301
93706W        W62124  18.579  24.668  11.493
93707W        W62125  38.517  23.238  13.038
93708W        W62126  39.992   4.939  13.848
93709W        W62127   4.744  18.746   2.361
93710W        W62128  11.715  34.070  13.445
93711W        W62129  27.573  18.201  11.981
93712W        W62130  43.918  29.042   2.813
93713W        W62131  32.103  17.680   1.428
93714W        W62132  16.270   4.806   5.619
93715W        W62133  12.704   5.811  10.524
93716W        W62134  44.760  19.123   2.229
93717W        W62135  41.899  42.298  12.556
93718W        W62136  10.265  19.124   3.833
93719W        W62137  11.799  33.624   4.598
93720W        W62138   7.361   2.868  12.994
93721W        W62139   4.406  10.781  12.393
93722W        W62140  33.916  15.737  12.581
93723W        W62141  22.219  22.612   2.737
93724W        W62142  30.060  42.500   3.246
93725W        W62143  42.527  32.530   1.246
93726W        W62144  25.626  27.095   3.300
93727W        W62145   0.477  28.027   1.409
93728W        W62146   6.336   5.695   3.380
93729W        W62147  25.688  11.277   4.193
93730W        W62148  43.933  32.027   2.818
93731W        W62149  44.327  20.256  10.470
93732W        W62150  28.062  42.923   5.147
93733W        W62151   1.741  42.338  10.981
93734W        W62152  31.417  31.942  13.403
93735W        W62153  12.647  40.456  10.592
93736W        W62154  32.077  22.096  13.308
93737W        W62155  26.171  32.480  14.516
93738W        W62156  32.582  35.080  13.433
93739W        W62157  40.442  19.763  14.797
93740W        W62158  38.010  35.855  12.071
93741W        W62159  21.674  36.918  10.521
93742W        W62160  32.082  39.021   5.298
93743W        W62161  16.642  43.950   1.213
93744W        W62162  31.472  16.300   3.242
93745W        W62163  11.752   5.239  14.030
93746W        W62164  24.622   0.864  11.491
93747W        W62165   6.296  22.686  10.529
93748W        W62166   7.240  40.425  10.551
93749W        W62167  16.651   6.726   0.832
93750W        W62168  27.123  31.593  13.064
93751W        W62169  28.667  23.675   1.715
93752W        W62170   1.827  15.282   2.767
93753W        W62171  29.106   1.926  12.034
93754W        W62172   2.232  22.197  12.447
93755W        W62173   7.873  44.865   1.784
93756W        W62174   8.881  32.406   4.139
93757W        W62175  29.663  29.153   4.763
93758W        W62176  11.759   6.299  12.428
93759W        W62177  11.153  18.670   3.823
93760W        W62178  11.637  15.818   4.803
93761W        W62179  39.029  39.893  11.395
93762W        W62180  18.704  24.191   1.366
93763W        W62181  26.490  35.480   4.245
93764W        W62182  20.692  28.547  13.983
93765W        W62183   5.693   1.319  13.881
93766W        W62184  32.390   7.691   2.794
93767W        W62185  41.955  41.861   0.735
93768W        W62186  32.113  39.041  11.066
93769W        W62187   3.222  44.990   3.312
93770W        W62188  29.479   6.406  12.946
93771W        W62189  35.053   9.268  14.965
93772W        W62190  31.152  36.888   0.775
93773W        W62191  16.658  40.517  14.804
93774W        W62192  37.063   7.710   2.315
93775W        W62193  44.466   3.729  13.365
93776W        W62194   8.898  35.577  11.081
93777W        W62195  33.931  40.919   4.323
93778W        W62196  16.136  31.942   1.342
93779W        W62197  38.983  24.117  12.361
93780W        W62198  25.033  11.211  13.888
93781W        W62199  31.422  34.928  13.347
93782W        W62200  37.000  37.933   5.195
93783W        W62201  38.387   2.841  10.632
93784W        W62202  43.944  18.581  13.522
93785W        W62203  44.432  38.393   2.708
93786W        W62204  44.297   8.164  12.057
93787W        W62205   0.863  41.333   1.752
93788W        W62206  44.299  16.599  13.063
93789W        W62207  39.352  16.189   4.159
93790W        W62208   2.345  35.995   3.869
93791W        W62209  10.793  15.316  13.375
93792W        W62210  42.919  31.486   2.192
93793W        W62211  41.962  29.617  14.422
93794W        W62212  19.710  17.744  10.419
93795W        W62213  20.647   4.809   4.813
93796W        W62214  19.656  21.033   1.756
93797W        W62215  44.449  21.512  11.610
93798W        W62216  18.272  26.615   1.309
93799W        W62217   7.209  40.830  13.991
93800W        W62218  27.583  10.334   1.295
93801W        W62219  13.223   9.250  10.557
93802W        W62220  36.883  36.030   2.874
93803W        W62221  40.461   4.432   4.801
93804W        W62222  20.694  37.883  12.862
93805W        W62223  44.981   5.879   0.854
93806W        W62224  40.012  20.738   1.698
93807W        W62225  29.544  22.599  12.528
93808W        W62226  12.766  38.004  11.050
93809W        W62227  27.548  25.514   1.851
93810W        W62228  23.094  43.875  11.510
93811W        W62229  16.680  13.693   5.182
93812W        W62230  23.595  18.275   2.396
93813W        W62231  36.042   6.206   1.764
93814W        W62232  23.223  13.651   0.351
93815W        W62233   1.760  42.390  13.367
93816W        W62234  25.629  18.738   1.444
93817W        W62235  15.298   0.370   1.929
93818W        W62236  42.300   5.365   1.370
93819W        W62237   7.308  14.130   1.833
93820W        W62238  33.525  44.871  12.995
93821W        W62239  17.619  25.990   4.299
93822W        W62240   8.888   2.467   4.733
93823W        W62241  15.748  35.892  13.057
93824W        W62242  14.289   5.312  14.996
93825W        W62243  13.263   8.249  13.872
93826W        W62244  25.091  11.232   3.868
93827W        W62245  27.185  22.199   2.396
93828W        W62246  17.607   2.403   2.375
93829W        W62247  37.554  28.977   1.409
93830W        W62248  23.055  38.515   3.640
93831W        W62249  38.404  10.344  10.472
93832W        W62250  33.462   3.309  14.281
93833W        W62251  18.070   6.761   3.853
93834W        W62252  40.468  30.419  13.949
93835W        W62253  23.647  39.853  14.429
93836W        W62254  43.882  13.335  14.932
93837W        W62255  19.638  43.786   2.383
93838W        W62256  30.442  19.263  13.428
93839W        W62257  24.668  32.392   0.823
93840W        W62258  24.711  24.658  11.121
93841W        W62259  19.701  18.599  14.813
93842W        W62260  26.650  29.155   9.996
93843W        W62261  42.406   9.222  11.936
93844W        W62262  33.090   6.782  13.917
93845W        W62263  17.633  18.662  14.883
93846W        W62264  19.188  23.492   4.190
93847W        W62265  37.984  41.368   3.662
93848W        W62266   4.837  32.078  14.966
93849W        W62267   0.919  31.621   0.753
93850W        W62268   8.813  21.527  14.446
93851W        W62269  10.370   4.732  10.546
93852W        W62270   9.302  13.686   3.777
93853W        W62271   5.242  31.541  14.890
93854W        W62272  19.204   1.897   4.725
93855W        W62273   1.787  42.845   3.637
93856W        W62274  39.331  29.079   1.272
93857W        W62275  31.077  10.712   3.253
93858W        W62276  19.743  21.141   2.190
93859W        W62277  30.642  40.396  10.422
93860W        W62278  32.426  41.477   3.245
93861W        W62279  16.796  32.105   3.868
93862W        W62280  15.660  42.794  12.993
93863W        W62281  43.488  17.067   2.272
93864W        W62282   1.896  31.900  12.564
93865W        W62283  22.203   1.751  12.558
93866W        W62284  40.367  27.004  12.040
93867W        W62285   5.789   3.728  13.836
93868W        W62286  16.663  30.120  14.927
93869W        W62287  22.568  17.646  12.979
93870W        W62288  43.956  11.347  13.806
93871W        W62289   8.713  34.992   2.768
93872W        W62290  18.766   6.700   0.420
93873W        W62291  13.619   9.240  13.062
93874W        W62292  34.468  34.512   3.840
93875W        W62293   0.778  19.226  13.936
93876W        W62294  40.891  43.287   4.275
93877W        W62295   9.661  37.053  14.837
93878W        W62296  37.079  38.500  10.449
93879W        W62297  22.080  11.704  10.919
93880W        W62298  16.278  27.122   2.729
93881W        W62299  30.535  40.539  12.870
93882W        W62300  36.460  42.289   2.181
93883W        W62301   6.877   4.888  13.999
93884W        W62302  35.009   7.701   3.851
93885W        W62303  17.234  27.670  12.897
93886W        W62304  41.803  24.033  14.380
93887W        W62305  17.289  15.771   0.776
93888W        W62306  27.137  37.433  13.978
93889W        W62307  32.119  35.908   2.697
93890W        W62308  36.004  33.040   3.772
93891W        W62309  29.587  12.330  12.429
93892W        W62310  19.216  41.831   4.658
93893W        W62311  20.073  23.495   2.672
93894W        W62312  40.470  30.044  11.954
93895W        W62313   7.902  43.947   0.951
93896W        W62314  29.562  17.095   0.442
93897W        W62315   7.732  33.402   0.888
93898W        W62316  25.637   1.949  13.836
93899W        W62317   2.423  34.035   2.192
93900W        W62318  27.581  44.870  10.593
93901W        W62319   2.729  34.476   2.339
93902W        W62320   0.984  13.345   4.174
93903W        W62321   8.160  30.950  14.789
93904W        W62322   1.411  20.636  12.565
93905W        W62323  31.411  16.201   0.370
93906W        W62324  25.611  13.746  14.504
93907W        W62325  42.443  44.384   3.375
93908W        W62326  33.897  34.509   1.734
93909W        W62327  16.198  13.345   3.176
93910W        W62328  19.190   0.829   4.756
93911W        W62329  17.690  16.233  11.450
93912W        W62330  24.709  42.417   0.945
93913W        W62331   5.295  25.657   1.790
93914W        W62332  15.688  10.164   2.676
93915W        W62333  18.628  30.526   1.405
93916W        W62334  12.279  42.819   2.192
93917W        W62335   8.898   6.417   3.853
93918W        W62336  32.004  10.358  11.034
93919W        W62337   7.763   0.897   4.827
93920W        W62338  35.085  10.360   9.949
93921W        W62339  31.544  31.066  12.077
93922W        W62340   7.335  36.451  12.499
93923W        W62341   1.875  24.508  13.886
93924W        W62342  35.417  38.073  12.350
93925W        W62343  12.313  24.636  10.935
93926W        W62344  17.216  14.781   4.631
93927W        W62345  20.648  20.753  13.436
93928W        W62346  16.298  10.359   4.793
93929W        W62347   9.224  20.586  11.565
93930W        W62348  34.864  12.355  14.274
93931W        W62349  43.436  37.845  11.008
93932W        W62350   0.943  33.131  10.616
93933W        W62351  30.960   4.234   3.358
93934W        W62352  11.865  40.799  12.867
93935W        W62353  37.069  36.589   4.731
93936W        W62354  29.050  28.092   4.231
93937W        W62355  41.329   6.344   0.412
93938W        W62356  28.495   7.830  10.606
93939W        W62357  24.003  39.380  13.487
93940W        W62358  36.021  11.247   3.319
93941W        W62359  38.536  28.935  14.305
93942W        W62360  44.358  43.820  11.005
93943W        W62361  25.667  32.055  12.076
93944W        W62362  28.460  44.492   1.429
93945W        W62363  29.153  36.907   2.203
93946W        W62364  31.918   8.686   5.109
93947W        W62365  37.067  28.571  11.941
93948W        W62366  41.385  13.201  11.938
93949W        W62367  34.030  14.284  13.975
93950W        W62368   4.351  31.915   0.267
93951W        W62369  15.732   6.197   3.740
93952W        W62370  39.403   9.236  10.529
93953W        W62371  34.377   8.820  12.925
93954W        W62372  43.333  38.396   1.853
93955W        W62373  10.668  31.962  11.943
93956W        W62374  34.973   8.339   4.293
93957W        W62375  14.719  23.720  11.960
93958W        W62376  31.081   8.664   1.418
93959W        W62377  28.148  36.091  11.574
93960W        W62378  34.424  36.942  12.972
93961W        W62379  25.519   1.357  13.516
93962W        W62380  32.492  42.929   4.821
93963W        W62381   7.756   2.436   2.259
93964W        W62382   8.657  26.596   0.405
93965W        W62383  19.218  12.715  11.425
93966W        W62384  30.565   0.454   3.185
93967W        W62385  32.534   7.756  14.337
93968W        W62386   4.342  16.652  11.564
93969W        W62387  43.301  34.117  14.500
93970W        W62388  44.772  42.858   4.258
93971W        W62389  42.026  28.959   2.727
93972W        W62390  17.713  33.886   3.210
93973W        W62391  37.062  28.138   2.775
93974W        W62392  19.223   9.282   1.787
93975W        W62393  40.320  27.147   0.402
93976W        W62394  16.287  16.268   3.839
93977W        W62395  14.126  10.704   2.382
93978W        W62396   6.737  22.533  12.462
93979W        W62397   8.300   4.869   3.373
93980W        W62398  37.337  15.778   4.644
93981W        W62399  23.705  13.656  14.382
93982W        W62400  41.003   2.270  11.525
93983W        W62401  32.564  12.826   3.280
93984W        W62402  37.858   3.955  13.983
93985W        W62403  41.303  36.550  11.565
93986W        W62404   5.392   0.759  13.839
93987W        W62405  28.068   3.864  11.072
93988W        W62406  26.127  27.666  12.377
93989W        W62407   9.773  36.069  10.623
93990W        W62408  14.176  23.675  11.510
93991W        W62409  14.136   2.800   1.814
93992W        W62410   7.404  30.930   1.263
93993W        W62411  32.521  17.788  13.530
93994W        W62412  26.672  13.769  12.863
93995W        W62413  26.083  38.342   2.301
93996W        W62414  13.153  33.436   1.272
93997W        W62415  35.582  43.337  13.037
93998W        W62416  41.296  42.899  13.428
93999W        W62417  26.694  23.662   0.481
94000W        W62418  37.923  23.685   0.927
94001W        W62419  40.800  19.090   0.473
94002W        W62420  24.189  30.950   3.715
94003W        W62421   8.395  31.514   3.240
94004W        W62422   2.731  37.842   2.704
94005W        W62423  13.119  11.199   1.771
94006W        W62424  44.771  29.663   4.768
94007W        W62425  44.867   8.859  11.888
94008W        W62426  13.718  43.020  11.505
94009W        W62427  14.596  28.945  13.468
94010W        W62428  20.130  10.840  12.408
94011W        W62429  43.855  41.366  10.510
94012W        W62430  10.719   7.753   2.366
94013W        W62431  24.225  13.325   0.354
94014W        W62432  17.286  15.664  13.953
94015W        W62433  38.869  14.641  10.086
94016W        W62434  24.712  31.433  11.076
94017W        W62435  29.024  11.860   1.210
94018W        W62436  25.504  22.056  13.392
94019W        W62437   0.473  35.860   1.862
94020W        W62438  18.235  21.208  13.947
94021W        W62439  22.636  28.651   4.314
94022W        W62440   5.267  22.502   2.409
94023W        W62441  32.407  30.004   1.797
94024W        W62442  20.669  25.147  13.967
94025W        W62443   9.755  27.479  14.759
94026W        W62444  40.419  14.779   0.758
94027W        W62445   7.832   0.841  13.341
94028W        W62446  19.209  42.403   2.262
94029W        W62447   0.432  16.232   3.299
94030W        W62448  39.541  41.990  12.361
94031W        W62449   2.771  19.196  13.795
94032W        W62450  22.726  34.484   2.763
94033W        W62451  26.074  38.067  13.343
94034W        W62452   1.904  34.460   2.238
94035W        W62453   3.756  26.184   4.132
94036W        W62454   3.824   2.266   2.240
94037W        W62455  25.522   0.276  13.967
94038W        W62456  24.145  35.428  13.978
94039W        W62457  17.266  31.458   0.280
94040W        W62458   4.382  42.031  10.468
94041W        W62459  37.370  39.043   3.712
94042W        W62460  19.101  37.491   2.725
94043W        W62461  43.797  10.836  14.822
94044W        W62462  39.975  21.636   0.967
94045W        W62463  27.542  26.010  13.804
94046W        W62464  22.111  22.212   3.379
94047W        W62465   0.402  24.485   0.787
94048W        W62466   0.944  27.999  12.467
94049W        W62467   2.364  15.676   1.792
94050W        W62468  16.589   7.275   4.749
94051W        W62469  29.546   0.411   3.766
94052W        W62470  26.021  29.169   0.920
94053W        W62471  12.195  12.818  12.037
94054W        W62472   7.784   3.378  14.991
94055W        W62473   9.306  24.625   2.749
94056W        W62474  35.417  17.094  14.375
94057W        W62475  16.167  20.202  11.376
94058W        W62476   6.363  27.461  12.915
94059W        W62477  42.823  43.475   1.935
94060W        W62478  19.536  43.376   0.728
94061W        W62479  13.650  24.533  12.471
94062W        W62480  40.414  10.716  13.450
94063W        W62481  31.494  25.197  12.344
94064W        W62482   2.825  10.240   1.403
94065W        W62483  39.955  35.052   2.181
94066W        W62484  26.018  23.129   2.860
94067W        W62485   3.820  21.065  14.001
94068W        W62486   3.938  32.992  13.375
94069W        W62487  26.618  22.071  13.486
94070W        W62488  10.265  41.295   4.656
94071W        W62489  10.366  13.167   4.779
94072W        W62490   2.226   3.901  11.878
94073W        W62491  27.660  29.586  12.571
94074W        W62492  17.080  36.358  12.580
94075W        W62493   8.315  33.125   2.798
94076W        W62494  35.395  21.246   3.723
94077W        W62495  17.300   8.250  12.052
94078W        W62496  16.629  20.067   4.323
94079W        W62497   6.281  38.554   2.857
94080W        W62498  38.351  25.529  14.323
94081W        W62499  32.040  26.610   0.938
94082W        W62500  44.800   7.867   4.739
94083W        W62501   3.826  32.443   0.900
94084W        W62502  17.762  31.064  13.439
94085W        W62503   1.412   2.436   4.132
94086W        W62504  20.045  24.062   1.442
94087W        W62505  17.307  13.340   4.601
94088W        W62506  34.117  31.092  14.840
94089W        W62507   7.764  24.152  14.398
94090W        W62508  29.081  29.445  10.532
94091W        W62509  17.107  35.534   3.213
94092W        W62510  43.457  25.499   2.295
94093W        W62511  10.849  42.507   4.331
94094W        W62512  29.566  41.023  13.056
94095W        W62513  14.198  22.051   2.341
94096W        W62514  14.313   0.370   0.844
94097W        W62515  27.665  28.977  12.056
94098W        W62516  17.061  17.752   1.373
94099W        W62517  16.716  20.690  10.485
94100W        W62518  25.513  42.972  13.882
94101W        W62519  36.909  14.680  11.452
94102W        W62520  10.196  35.894   1.903
94103W        W62521   1.453   5.370   1.342
94104W        W62522  21.107  39.383   1.324
94105W        W62523  41.392  15.275   2.821
94106W        W62524   6.291  24.091   4.232
94107W        W62525  44.429  15.638  14.480
94108W        W62526   9.152  43.801   4.168
94109W        W62527  36.078  12.616  13.897
94110W        W62528   2.943  14.690  10.428
94111W        W62529  23.039  12.219  12.996
94112W        W62530  26.181  31.438   3.203
94113W        W62531   0.364  42.391   4.677
94114W        W62532  22.142   7.196  14.421
94115W        W62533  28.609  25.194   1.253
94116W        W62534  28.612  23.086   2.889
94117W        W62535  42.293  21.212   1.809
94118W        W62536   1.757  24.208   2.695
94119W        W62537  39.546  44.274  13.907
94120W        W62538  12.673  14.097  12.519
94121W        W62539  17.097  25.096   1.810
94122W        W62540  21.711  20.542  14.955
94123W        W62541   2.748  40.471  11.062
94124W        W62542   9.245  18.143  14.902
94125W        W62543  27.586  34.497   3.330
94126W        W62544  22.011  16.706  14.410
94127W        W62545   8.391  21.131  13.488
94128W        W62546  14.244  28.164   2.314
94129W        W62547   4.933  12.631  12.451
94130W        W62548  39.942  43.004   1.845
94131W        W62549   7.386  21.252  14.409
94132W        W62550  10.773   9.334  13.989
94133W        W62551  12.635  13.667  12.850
94134W        W62552  18.050  41.336  10.590
94135W        W62553  31.967   1.387  10.478
94136W        W62554   9.655  28.524  13.804
94137W        W62555  10.177   0.302   0.328
94138W        W62556  29.624  38.432   2.261
94139W        W62557  37.523  36.433  11.057
94140W        W62558  29.970  13.108   3.758
94141W        W62559   7.249  36.032  12.078
94142W        W62560  12.160  36.855   0.908
94143W        W62561  32.013  18.686  10.500
94144W        W62562  29.555  22.730   2.305
94145W        W62563  15.323  44.347   4.233
94146W        W62564   7.415  13.767  12.896
94147W        W62565  27.628   7.336   1.852
94148W        W62566   5.280  42.945  13.499
94149W        W62567  25.532   2.722   2.678
94150W        W62568  27.034  38.876   0.249
94151W        W62569  27.600  14.678   0.480
94152W        W62570  18.730  42.333   3.776
94153W        W62571  25.659   9.251   1.930
94154W        W62572  20.126  18.127  14.833
94155W        W62573  18.078   2.918   1.747
94156W        W62574  16.250  13.197  10.601
94157W        W62575  16.078  20.233  14.345
94158W        W62576  23.688  23.021   0.944
94159W        W62577  27.961  28.047  14.335
94160W        W62578  31.960  25.070   2.877
94161W        W62579  36.429  23.682   9.977
94162W        W62580  10.674  38.060   2.403
94163W        W62581  32.973  35.930   1.820
94164W        W62582  37.970  36.853  12.536
94165W        W62583   1.440  35.897  13.015
94166W        W62584  19.720  34.598   4.238
94167W        W62585  42.526  29.565   0.944
94168W        W62586  28.059  10.383  11.081
94169W        W62587   0.916  38.924  12.068
94170W        W62588  28.511  44.332  11.408
94171W        W62589  15.137   3.296  10.115
94172W        W62590  15.607   7.767  12.984
94173W        W62591  24.655   8.812  10.928
94174W        W62592  17.686  44.993  10.440
94175W        W62593  23.683  33.960  11.396
94176W        W62594  25.019  34.396  13.894
94177W        W62595   7.219  31.987   9.979
94178W        W62596  34.569  22.594   1.319
94179W        W62597   4.254   9.797   0.343
94180W        W62598   0.444  26.509   4.623
94181W        W62599  19.746  21.650  14.867
94182W        W62600  17.623  13.835  10.507
94183W        W62601   3.346  25.511  14.383
94184W        W62602   3.284  35.901   0.779
94185W        W62603  33.553  13.792   0.896
94186W        W62604  42.340  27.580  12.501
94187W        W62605  23.003  36.377   3.257
94188W        W62606  19.680  13.118   4.273
94189W        W62607  17.127  22.545   0.903
94190W        W62608  42.924  33.403   2.838
94191W        W62609  22.608  27.059   2.730
94192W        W62610  23.590  15.719  13.917
94193W        W62611   7.361  10.829  13.007
94194W        W62612  39.913  12.320   1.301
94195W        W62613  13.708  42.926  12.021
94196W        W62614  35.438  35.898  11.902
94197W        W62615  27.474   5.717   5.634
94198W        W62616  27.470  39.443   3.861
94199W        W62617  15.747   2.265   3.203
94200W        W62618  30.126  12.174  11.015
94201W        W62619   8.186  39.495   4.661
94202W        W62620  30.518  10.252  12.454
94203W        W62621  28.996  29.447  13.357
94204W        W62622  24.656  34.544  12.015
94205W        W62623  41.983  25.483   1.875
94206W        W62624  38.846   9.753   4.345
94207W        W62625   9.788   6.694   4.189
94208W        W62626   9.293  42.389  13.952
94209W        W62627  32.064   2.380  13.948
94210W        W62628  22.713   3.855   2.363
94211W        W62629   0.917  10.351  13.523
94212W        W62630   7.348  12.187   0.740
94213W        W62631  19.164   3.905   4.274
94214W        W62632  32.931   1.818  13.488
94215W        W62633  38.343  37.055   2.689
94216W        W62634  36.580  14.187   5.244
94217W        W62635   1.346   8.821  11.948
94218W        W62636  31.005  29.086   3.757
94219W        W62637  16.803   7.223   2.310
94220W        W62638   2.904   5.690   2.663
94221W        W62639  20.703  15.191  11.446
94222W        W62640  11.365  21.647  11.106
94223W        W62641  32.477  17.116  11.968
94224W        W62642  38.546  10.864   4.155
94225W        W62643  33.098  42.851  13.052
94226W        W62644  10.272  23.011  14.787
94227W        W62645  28.002  11.303   1.805
94228W        W62646   8.750  20.554   0.832
94229W        W62647  32.484   4.944   3.757
94230W        W62648  20.690  28.171   3.632
94231W        W62649  30.087  34.532  13.389
94232W        W62650  22.141   9.769   0.874
94233W        W62651  40.454  22.630   0.865
94234W        W62652  34.526  36.014   2.347
94235W        W62653  12.817  31.553  10.556
94236W        W62654  15.168   9.267  10.498
94237W        W62655  24.485  20.112  11.064
94238W        W62656  15.685  20.066   0.865
94239W        W62657  43.979   4.754   4.776
94240W        W62658  22.037   8.401  11.496
94241W        W62659  31.560  42.455   0.478
94242W        W62660  15.188   1.756   2.383
94243W        W62661   3.304  23.200  12.092
94244W        W62662  39.921   9.327   4.222
94245W        W62663   3.737  38.508  12.483
94246W        W62664  36.851  23.731  13.993
94247W        W62665  36.064  22.165  13.830
94248W        W62666  32.523  35.089  12.042
94249W        W62667  26.043   8.363  13.014
94250W        W62668  33.923  24.645  11.861
94251W        W62669  25.117   5.398  13.951
94252W        W62670  40.407  42.862   3.365
94253W        W62671   8.699  25.174  12.072
94254W        W62672   7.759  33.960   3.201
94255W        W62673  30.437  26.627   2.371
94256W        W62674  13.824  11.160  12.085
94257W        W62675   5.837  11.797  10.512
94258W        W62676  32.536  18.261  11.021
94259W        W62677  24.063  17.748   4.114
94260W        W62678  42.003  34.378   3.763
94261W        W62679  18.220  38.503   1.783
94262W        W62680  24.717   9.317   4.191
94263W        W62681  33.455  34.568   9.998
94264W        W62682  32.961  12.332   1.838
94265W        W62683   4.919  17.732   2.827
94266W        W62684  28.645  14.273   1.260
94267W        W62685  36.868  16.639   2.716
94268W        W62686  27.181  23.642  10.644
94269W        W62687  33.496  11.231   2.719
94270W        W62688  19.182  43.300   1.736
94271W        W62689  32.923  40.038  13.932
94272W        W62690   0.481  37.959  11.426
94273W        W62691  34.394  26.062   3.330
94274W        W62692  40.345  21.585  11.560
94275W        W62693  44.477   4.283   1.709
94276W        W62694  37.335  29.608   5.305
94277W        W62695  17.692  40.431   2.191
94278W        W62696   4.732  14.729   4.217
94279W        W62697  38.892   6.864  13.057
94280W        W62698  12.756   2.300   2.183
94281W        W62699  17.802  32.890   3.763
94282W        W62700  38.837  11.795  14.996
94283W        W62701  22.681  32.045  10.492
94284W        W62702   4.883  30.464  12.351
94285W        W62703  19.170   2.315  13.384
94286W        W62704   9.744  15.658  11.455
94287W        W62705  36.072   6.281  10.996
94288W        W62706  41.805   6.885   4.688
94289W        W62707  14.149   3.278   4.208
94290W        W62708   8.770  38.937   0.251
94291W        W62709  30.633   8.684  10.979
94292W        W62710  34.563  43.343  13.903
94293W        W62711  35.009   4.748   0.315
94294W        W62712  30.471   8.216   0.754
94295W        W62713   6.805  12.694  14.784
94296W        W62714  22.560  37.075   0.252
94297W        W62715  22.699  12.666   4.683
94298W        W62716  44.408  41.989   3.855
94299W        W62717  41.363  22.162  12.910
94300W        W62718  19.230  44.973  12.485
94301W        W62719   3.881  18.289   2.718
94302W        W62720  20.091  31.901  13.536
94303W        W62721  41.044   1.929  14.028
94304W        W62722  18.279  33.953   0.253
94305W        W62723  14.311  23.638  13.838
94306W        W62724  24.491   8.755   2.197
94307W        W62725   4.297  34.553  10.554
94308W        W62726  10.777  39.816   0.421
94309W        W62727  26.501  16.210   4.175
94310W        W62728  22.614  27.629   1.442
94311W        W62729   5.871  27.611  13.414
94312W        W62730   4.231   7.808   2.371
94313W        W62731  38.048  13.349  12.461
94314W        W62732   4.756   8.764  14.423
94315W        W62733   4.814   2.358   1.250
94316W        W62734  12.248  24.656   4.744
94317W        W62735  11.775  31.935  14.408
94318W        W62736  34.440  30.065  13.486
94319W        W62737   3.944  29.436   0.460
94320W        W62738  12.138  26.501  10.914
94321W        W62739  36.988  40.310   1.230
94322W        W62740  20.112  27.477   1.318
94323W        W62741  41.389   9.801  11.541
94324W        W62742   0.752   3.858   3.350
94325W        W62743   0.321  28.492   2.195
94326W        W62744   9.214  33.984  10.551
94327W        W62745  20.116  32.391   1.423
94328W        W62746  29.614  13.127  12.569
94329W        W62747  27.685  30.505  14.900
94330W        W62748   9.181  37.446  11.111
94331W        W62749  21.580  16.203   1.920
94332W        W62750  20.627  14.796   2.682
94333W        W62751  31.564  19.777   1.235
94334W        W62752   0.276   2.762   3.744
94335W        W62753  34.908  25.164   5.204
94336W        W62754  40.438  12.267   3.792
94337W        W62755  33.910  10.635  12.973
94338W        W62756   6.402  16.791  10.940
94339W        W62757  11.850  25.979  10.921
94340W        W62758   3.822  13.277  11.913
94341W        W62759  26.045  12.810  14.462
94342W        W62760  15.096  29.528   2.895
94343W        W62761  35.091  30.557   0.935
94344W        W62762   5.915  22.041  10.506
94345W        W62763  10.218   2.241  11.019
94346W        W62764  25.700   3.914  10.951
94347W        W62765   7.678  17.558   2.266
94348W        W62766   2.241  36.578   3.644
94349W        W62767  37.552  33.950   3.158
94350W        W62768  37.353   3.388   3.853
94351W        W62769   6.388  25.529  11.583
94352W        W62770   6.321  22.580   4.731
94353W        W62771   9.812  38.480  14.330
94354W        W62772   7.871  32.049  12.358
94355W        W62773  17.071   0.951   3.704
94356W        W62774   3.379  33.044   0.387
94357W        W62775  19.100  38.327   0.739
94358W        W62776  21.548  11.767  12.506
94359W        W62777   6.375  21.247   1.727
94360W        W62778  36.098  21.639   2.801
94361W        W62779  37.032  26.060  10.927
94362W        W62780  39.414  17.094   3.847
94363W        W62781   8.389  35.589   1.878
94364W        W62782  39.839  34.097   4.333
94365W        W62783  19.261  19.123   1.920
94366W        W62784  21.174   3.795   0.341
94367W        W62785   8.260   7.212   3.222
94368W        W62786  35.383  19.202   0.358
94369W        W62787  35.049  28.588  11.592
94370W        W62788  15.242  29.112   1.369
94371W        W62789  28.995  39.018  11.964
94372W        W62790  34.453  12.186   4.314
94373W        W62791  22.612  34.021   4.831
94374W        W62792   2.331  25.192   2.870
94375W        W62793  17.705  44.338   3.194
94376W        W62794  16.784   5.216   2.313
94377W        W62795  27.148   6.890   1.853
94378W        W62796  31.012  20.102   0.746
94379W        W62797  43.967  40.335   0.351
94380W        W62798  37.422  44.314   0.257
94381W        W62799   8.664  37.492   2.752
94382W        W62800   5.894  16.265   4.676
94383W        W62801  41.525  21.677   0.389
94384W        W62802  24.593   9.209  10.946
94385W        W62803   7.827  34.956  14.936
94386W        W62804   8.214  26.157   2.320
94387W        W62805  23.087  18.087   0.345
94388W        W62806  41.335  32.919  11.441
94389W        W62807  39.896  28.068  12.535
94390W        W62808  44.944  25.685  11.003
94391W        W62809  37.848  22.656   4.661
94392W        W62810  36.998  43.466  14.399
94393W        W62811  26.008  29.653   0.456
94394W        W62812  11.193  17.128  11.100
94395W        W62813  13.708   2.354   3.317
94396W        W62814  43.286  39.316   0.827
94397W        W62815  21.095  22.553   5.318
94398W        W62816  27.573  40.436  10.992
94399W        W62817  12.735   1.261  11.420
94400W        W62818  43.413  30.929   2.790
94401W        W62819  26.495  30.082   1.286
94402W        W62820  36.089  38.405   1.257
94403W        W62821   4.438  42.918  11.469
94404W        W62822  13.212  41.504   4.724
94405W        W62823  25.198  17.210  13.327
94406W        W62824   2.240  20.211   5.626
94407W        W62825  30.651  40.981   1.274
94408W        W62826  37.987  44.374  11.078
94409W        W62827  14.166   8.362   0.370
94410W        W62828  15.202  41.327   2.810
94411W        W62829  25.965   7.788   3.842
94412W        W62830   8.358  12.677   4.354
94413W        W62831  31.139  16.080   3.327
94414W        W62832  31.096  44.328  14.942
94415W        W62833  40.411   2.759   4.759
94416W        W62834   6.258  41.363  14.912
94417W        W62835  29.640  24.521   4.683
94418W        W62836   7.728  21.614   1.711
94419W        W62837  29.937  11.678  12.516
94420W        W62838  42.888  17.298   0.783
94421W        W62839  25.981  24.678   0.426
94422W        W62840  33.473   8.233   0.910
94423W        W62841   9.745  17.161  10.990
94424W        W62842   2.371  17.271   0.456
94425W        W62843  42.775  33.082  10.018
94426W        W62844  18.727  41.823   3.790
94427W        W62845   6.369   0.968   1.368
94428W        W62846  30.613  36.960   4.610
94429W        W62847   3.944  41.963  10.921
94430W        W62848  42.290  30.960  13.901
94431W        W62849   5.382  18.670   2.231
94432W        W62850  25.629  12.685   4.116
94433W        W62851  21.242  33.586   0.443
94434W        W62852  34.921  28.675  10.490
94435W        W62853  19.109  44.952  14.383
94436W        W62854   7.202   3.772   0.254
94437W        W62855  17.572  24.052  14.029
94438W        W62856   2.940  11.684   4.705
94439W        W62857   5.773  33.992  11.605
94440W        W62858  19.102  12.750  14.928
94441W        W62859  29.988   7.673   3.352
94442W        W62860   0.978  32.469  11.876
94443W        W62861   7.677  15.690   1.749
94444W        W62862  17.611  21.035   2.183
94445W        W62863  38.073  34.492   4.802
94446W        W62864  44.896  37.460   2.245
94447W        W62865  32.085   2.317   3.246
94448W        W62866  12.797  19.558   1.283
94449W        W62867   8.174  42.318  12.355
94450W        W62868  17.067   6.686  14.374
94451W        W62869  10.253  15.169  14.312
94452W        W62870  19.607  30.502   3.745
94453W        W62871  13.208  30.918  10.889
94454W        W62872  40.407  33.393  11.015
94455W        W62873  40.870  15.315  11.462
94456W        W62874  13.845   8.316   2.766
94457W        W62875  44.487  23.182   5.217
94458W        W62876  40.307  38.422   0.436
94459W        W62877   8.279  40.419   1.786
94460W        W62878  25.061  16.792   3.680
94461W        W62879   3.377  14.656   5.257
94462W        W62880  21.068  34.416  10.582
94463W        W62881  13.651  21.031  10.456
94464W        W62882  35.940  19.083   3.851
94465W        W62883   5.709  44.843   3.244
94466W        W62884  35.965  10.221   4.782
94467W        W62885  15.186  14.102   0.735
94468W        W62886  35.993  25.576  13.410
94469W        W62887  15.679  16.674  12.941
94470W        W62888  40.019   3.861  14.302
94471W        W62889   9.182   9.798  14.280
94472W        W62890   3.753  31.006   4.202
94473W        W62891  37.504   2.727   2.315
94474W        W62892   2.965  32.932  14.323
94475W        W62893  37.996  27.469   4.342
94476W        W62894   6.813  39.930   3.857
94477W        W62895  42.906  14.835   4.719
94478W        W62896  15.800  44.455  14.431
94479W        W62897  25.666   6.210   4.290
94480W        W62898  24.564   6.810   0.934
94481W        W62899  30.024  12.357   4.764
94482W        W62900   5.792   7.788  14.485
94483W        W62901  12.293  39.882  10.508
94484W        W62902  31.950  19.631   0.397
94485W        W62903  27.671  26.504  13.021
94486W        W62904  37.975  31.091   0.967
94487W        W62905   8.214  35.904  11.980
94488W        W62906   5.209   1.815  11.105
94489W        W62907  31.964  32.601  11.869
94490W        W62908  14.133  17.565  12.923
94491W        W62909   2.851  39.976  11.960
94492W        W62910  33.061   2.371  12.850
94493W        W62911  15.102  10.868  14.845
94494W        W62912   4.773  41.951  11.028
94495W        W62913   3.216   4.350   1.262
94496W        W62914  25.651   6.384   9.927
94497W        W62915   2.913  24.157  11.050
94498W        W62916  19.686  43.918  12.471
94499W        W62917  44.504  16.313  12.966
94500W        W62918   8.735  14.320   0.473
94501W        W62919  31.529   2.916  12.466
94502W        W62920  32.059  42.898   3.336
94503W        W62921   7.665  11.323   1.898
94504W        W62922   8.200  33.087  12.459
94505W        W62923  21.205  29.500  13.475
94506W        W62924  16.239  24.148   3.715
94507W        W62925  38.416  44.422   1.349
94508W        W62926  18.110  30.958   4.678
94509W        W62927  41.538  14.132  11.924
94510W        W62928  37.075   9.824   3.773
94511W        W62929  30.089  28.962   4.251
94512W        W62930  43.270  36.468   1.771
94513W        W62931  17.792  15.656   4.261
94514W        W62932  27.172  28.930   4.188
94515W        W62933   5.722  26.528   3.375
94516W        W62934  16.672  42.444  14.314
94517W        W62935   6.325  20.554   1.338
94518W        W62936   1.930  25.187  13.855
94519W        W62937  23.153  19.094  12.079
94520W        W62938  43.448  18.138   0.295
94521W        W62939   5.820  27.536   1.748
94522W        W62940  23.531  16.188   1.905
94523W        W62941   7.843  42.914  11.970
94524W        W62942  13.175  14.313   4.831
94525W        W62943  37.547  12.290   3.830
94526W        W62944  37.416  14.227   0.302
94527W        W62945  33.962   1.467  11.021
94528W        W62946   0.378   7.335  12.389
94529W        W62947  39.031  14.286  11.547
94530W        W62948  28.930  39.457  12.876
94531W        W62949   5.903  43.808   2.705
94532W        W62950  38.498  36.367  12.427
94533W        W62951  36.372  22.521   4.343
94534W        W62952  22.547  37.498  13.406
94535W        W62953   9.792  13.225  14.921
94536W        W62954  44.973  17.189  11.466
94537W        W62955  22.997  42.842   2.183
94538W        W62956  41.526  17.651   3.755
94539W        W62957   7.847  43.341  12.932
94540W        W62958  39.481  42.897  12.445
94541W        W62959  13.237  29.505  12.516
94542W        W62960  18.778  28.612   0.298
94543W        W62961  30.614  35.518  13.860
94544W        W62962  28.094   2.334   1.703
94545W        W62963  35.509  31.146  12.449
94546W        W62964  20.167  10.233  13.472
94547W        W62965  18.105  18.712  10.950
94548W        W62966  41.946  21.536   3.774
94549W        W62967  41.323  14.623  11.119
94550W        W62968  21.553  40.306  11.891
94551W        W62969  39.993  10.187   4.181
94552W        W62970  20.207  30.012  10.645
94553W        W62971  35.920  11.185  11.019
94554W        W62972  42.304  19.658  14.850
94555W        W62973  39.378  40.476  10.953
94556W        W62974   9.668   7.911  11.524
94557W        W62975  31.523  44.350   3.250
94558W        W62976  13.709  31.013   3.858
94559W        W62977   2.399  19.111   9.677
94560W        W62978  19.674  14.236   5.225
94561W        W62979   9.318  42.794   4.738
94562W        W62980  11.801  36.507   2.733
94563W        W62981   1.807  37.886  11.956
94564W        W62982  17.261  12.144  12.837
94565W        W62983  40.346  38.895   2.800
94566W        W62984  18.120  26.163   0.865
94567W        W62985  34.567   8.352   3.856
94568W        W62986  24.092  44.386  13.906
94569W        W62987   0.820  34.966   1.906
94570W        W62988  38.383  26.051  12.449
94571W        W62989   2.850  37.041  11.515
94572W        W62990  38.844  19.164   3.737
94573W        W62991  43.888  28.671  12.900
94574W        W62992  10.872  43.464  14.302
94575W        W62993  35.979  30.520   3.286
94576W        W62994  15.225  41.015  12.070
94577W        W62995   9.219   0.303   2.404
94578W        W62996  32.624  30.045  12.364
94579W        W62997  44.407  19.108   1.736
94580W        W62998  16.081  11.729   4.768
94581W        W62999  13.164  28.556   1.698
94582W        W63000  20.638   7.207   0.836
94583W        W63001  35.065  33.549  12.891
94584W        W63002  15.298  37.855  11.041
94585W        W63003   8.183  30.145   0.478
94586W        W63004   4.927  27.632   2.842
94587W        W63005   0.846  35.006   4.221
94588W        W63006   2.742  19.642   2.217
94589W        W63007  22.008  33.603  14.387
94590W        W63008  33.109  40.356  12.833
94591W        W63009  15.164  20.100  14.771
94592W        W63010  25.704  12.765   2.883
94593W        W63011  39.837   6.347  12.983
94594W        W63012   5.783   8.348  12.047
94595W        W63013  35.922   4.337  13.987
94596W        W63014  41.845   7.899  14.306
94597W        W63015  30.045  42.862  13.329
94598W        W63016  44.872   8.724  12.857
94599W        W63017   8.785  41.868   2.771
94600W        W63018  33.060   8.821   0.855
94601W        W63019  37.974  31.926  14.416
94602W        W63020  36.560   8.345   2.701
94603W        W63021  11.145  42.281  14.982
94604W        W63022  18.108   3.293  11.927
94605W        W63023  30.077  16.632  12.927
94606W        W63024  42.289  43.832   3.186
94607W        W63025  25.158   7.729   3.220
94608W        W63026  36.884  13.117   3.191
94609W        W63027  10.235  39.314  13.513
94610W        W63028  25.161   1.962  14.888
94611W        W63029  40.799  17.676  11.385
94612W        W63030  38.517   0.253  13.931
94613W        W63031   9.811  29.124  10.640
94614W        W63032  30.139  42.925  10.946
94615W        W63033   1.474  34.006  14.880
94616W        W63034   7.855  41.316  10.489
94617W        W63035   5.203  31.521   4.236
94618W        W63036  24.514  10.295  12.456
94619W        W63037  41.009  27.609  11.597
94620W        W63038   8.793  43.877  13.548
94621W        W63039   4.385  12.635  10.634
94622W        W63040  40.327   2.465  11.071
94623W        W63041  42.030  36.846   3.827
94624W        W63042  11.255  25.204  14.953
94625W        W63043   6.794   3.418  11.915
94626W        W63044   6.892   5.881  14.407
94627W        W63045  34.895   7.731   1.777
94628W        W63046  20.615  30.616   1.449
94629W        W63047  34.049  28.043  14.911
94630W        W63048  44.981  31.972  11.559
94631W        W63049  40.822  15.763   3.384
94632W        W63050  20.238  22.010  12.884
94633W        W63051   8.690  10.168   1.826
94634W        W63052  12.621  36.352   1.378
94635W        W63053  38.518  15.673   0.821
94636W        W63054  36.961   5.349  14.410
94637W        W63055   7.283   0.836  12.837
94638W        W63056   5.260  29.670  12.372
94639W        W63057   3.948  20.758   4.760
94640W        W63058   4.265  22.522   2.710
94641W        W63059  30.968  20.532   1.829
94642W        W63060  42.334  21.585   2.351
94643W        W63061  14.649  33.509  14.448
94644W        W63062  26.525  43.815   0.292
94645W        W63063  22.659  34.479  10.017
94646W        W63064   2.929  23.502  14.983
94647W        W63065  30.079   3.223  13.320
94648W        W63066  35.049  37.370  10.984
94649W        W63067  24.596   0.857   2.711
94650W        W63068  42.436  24.988   4.600
94651W        W63069  21.086  23.128  14.280
94652W        W63070  40.893   6.277   1.300
94653W        W63071  11.260  42.442   3.820
94654W        W63072  15.587  12.840   3.702
94655W        W63073  39.412   0.955   1.320
94656W        W63074   6.375  10.306   4.646
94657W        W63075  20.532   3.240  12.412
94658W        W63076   8.896   2.761  12.444
94659W        W63077   3.760  33.893  10.985
94660W        W63078  43.777  44.954  14.480
94661W        W63079  21.512   2.406   2.805
94662W        W63080   5.857  28.933   0.458
94663W        W63081  31.056   0.423  14.370
94664W        W63082  33.940  41.002   2.715
94665W        W63083  18.628  41.373  12.474
94666W        W63084   3.303  36.931   3.798
94667W        W63085  32.081  25.020   4.726
94668W        W63086  31.999  16.649  13.862
94669W        W63087  21.187  18.729  11.031
94670W        W63088  18.211   6.241  10.972
94671W        W63089  16.695  30.547   3.789
94672W        W63090  37.547   7.189   0.877
94673W        W63091   3.410  31.986  14.891
94674W        W63092   5.337  30.589   2.721
94675W        W63093  35.364  34.923   3.217
94676W        W63094  17.148  26.037  11.378
94677W        W63095  35.918   2.360  10.578
94678W        W63096  12.723  13.636  14.405
94679W        W63097  14.630   5.419   2.239
94680W        W63098  22.742   9.702  10.504
94681W        W63099   0.847   7.406  11.023
94682W        W63100  19.582   8.717  14.811
94683W        W63101  22.138  24.606   3.661
94684W        W63102  44.971  36.921   1.307
94685W        W63103  15.093  22.624   0.366
94686W        W63104  24.567  24.093   2.236
94687W        W63105  42.024   2.261  12.394
94688W        W63106  12.182  25.594  13.397
94689W        W63107  27.547  11.779  11.504
94690W        W63108  39.475  17.157   2.365
94691W        W63109  41.908  33.936   0.920
94692W        W63110  20.539  38.534   0.437
94693W        W63111  38.437  27.584  11.999
94694W        W63112  28.014  24.151  11.004
94695W        W63113  38.363  10.150  11.611
94696W        W63114  23.104   7.699   3.732
94697W        W63115  44.365  30.141  14.960
94698W        W63116  20.538   6.276  10.409
94699W        W63117  10.781  38.561  11.967
94700W        W63118  10.753  20.170  13.801
94701W        W63119  23.090  37.351   4.775
94702W        W63120  14.219  17.644   2.899
94703W        W63121  17.282  16.268  14.884
94704W        W63122  25.711  29.449   1.349
94705W        W63123  21.576  29.987   2.781
94706W        W63124  25.113   6.335  10.546
94707W        W63125  41.801  38.404   1.389
94708W        W63126  39.441  27.973  10.425
94709W        W63127   3.349  36.469  13.339
94710W        W63128  13.615  44.325   2.872
94711W        W63129  43.301  21.518   3.698
94712W        W63130   6.376  37.367  12.908
94713W        W63131  39.446  15.703   1.821
94714W        W63132  40.335  41.497   4.748
94715W        W63133  17.098  35.890  12.083
94716W        W63134  29.579  20.596   1.899
94717W        W63135  30.487  22.669  14.511
94718W        W63136  24.979  35.028  12.908
94719W        W63137  19.146  37.542   3.214
94720W        W63138  13.784   7.330  11.573
94721W        W63139  39.851  38.992   1.869
94722W        W63140   7.378  37.371   1.730
94723W        W63141   4.744  31.987  14.395
94724W        W63142   2.877  18.749  11.882
94725W        W63143   9.772   6.278   3.232
94726W        W63144  12.658  20.087  11.464
94727W        W63145   0.958   2.332   0.798
94728W        W63146  10.286   4.253  14.347
94729W        W63147  20.571   2.471  13.438
94730W        W63148   9.726   6.817   0.896
94731W        W63149  18.690  14.314   3.270
94732W        W63150  32.961  31.613  11.093
94733W        W63151  35.866  15.183   2.807
94734W        W63152   7.821  33.526   1.323
94735W        W63153  31.013  11.353   0.946
94736W        W63154  15.578  21.188  10.001
94737W        W63155   7.193  25.184  12.339
94738W        W63156  37.535  23.234  14.816
94739W        W63157  26.530  19.642  13.005
94740W        W63158  17.144  11.776  11.382
94741W        W63159  32.616   5.381   2.416
94742W        W63160  13.823  38.481  10.958
94743W        W63161  15.809  10.241   1.359
94744W        W63162  27.052  34.994  14.934
94745W        W63163  30.077   8.346  11.544
94746W        W63164  36.843   0.914  11.995
94747W        W63165  26.181  22.684  13.474
94748W        W63166  18.745  16.774   4.704
94749W        W63167  35.906  23.595   1.375
94750W        W63168  27.057  34.994   3.272
94751W        W63169   7.367  24.097   4.320
94752W        W63170   9.707  34.565   2.706
94753W        W63171  22.010   7.294  12.070
94754W        W63172  30.612  44.844  12.085
94755W        W63173  31.148  15.114  11.028
94756W        W63174  44.782  41.013   0.741
94757W        W63175  26.698  42.014  12.387
94758W        W63176  32.971   4.357  14.313
94759W        W63177  40.344  13.825   0.314
94760W        W63178   4.373  22.252   4.618
94761W        W63179  25.132  26.159  11.917
94762W        W63180  40.809  14.778   1.388
94763W        W63181  37.953  39.945  12.070
94764W        W63182  12.826  15.191  12.494
94765W        W63183  13.799  20.633   2.855
94766W        W63184   8.892  25.486  13.037
94767W        W63185   9.828  20.577  10.990
94768W        W63186  15.207   4.819   9.455
94769W        W63187  25.697  36.489   3.755
94770W        W63188  17.604  35.454   2.323
94771W        W63189  34.956  27.624  12.986
94772W        W63190  41.901  36.361   0.850
94773W        W63191   5.327  11.739   0.783
94774W        W63192   2.905  27.105  13.508
94775W        W63193  27.453  13.771   3.261
94776W        W63194  11.688  26.653   3.855
94777W        W63195   0.493  32.983  14.378
94778W        W63196  13.328  27.477  10.404
94779W        W63197  22.527   3.861   3.261
94780W        W63198   1.380   5.236   0.739
94781W        W63199  13.309  18.197   2.853
94782W        W63200  38.938  11.779  13.390
94783W        W63201  12.711  15.779  10.940
94784W        W63202  14.768  26.963  10.625
94785W        W63203  31.092  44.932  12.035
94786W        W63204  23.148  21.137  12.005
94787W        W63205   1.438   4.938   2.807
94788W        W63206   9.643  12.236  13.064
94789W        W63207  30.591  14.794   4.833
94790W        W63208  32.969   0.255  11.899
94791W        W63209  44.304  15.713  12.975
94792W        W63210  21.124   7.181  12.956
94793W        W63211  41.469   9.865  14.472
94794W        W63212  10.297  20.029  12.006
94795W        W63213   4.734  19.689  14.836
94796W        W63214  38.335  17.608  12.499
94797W        W63215  15.596   3.830   0.773
94798W        W63216  31.622  39.880   0.283
94799W        W63217  23.049  23.038   4.747
94800W        W63218   8.236  17.268   0.352
94801W        W63219  43.309   6.804  14.954
94802W        W63220  22.559  25.124   4.818
94803W        W63221  21.216   2.856  10.930
94804W        W63222   3.397  25.989  12.983
94805W        W63223  34.611  36.903   2.741
94806W        W63224  42.984  21.197  11.991
94807W        W63225   5.249  35.578   0.417
94808W        W63226  38.888  30.581   2.761
94809W        W63227   9.698  21.603   4.698
94810W        W63228  12.616   5.273  14.896
94811W        W63229  16.247  38.858   3.309
94812W        W63230  35.953  15.148  11.861
94813W        W63231  34.960  21.239   0.928
94814W        W63232  35.082  39.549   1.746
94815W        W63233  12.620  14.637  13.458
94816W        W63234   2.856   7.223  11.375
94817W        W63235  35.486  24.650   3.832
94818W        W63236   0.912  13.299  11.987
94819W        W63237  37.935   9.662  14.957
94820W        W63238  40.987   4.772   1.933
94821W        W63239   3.786  28.163  11.101
94822W        W63240   0.448  13.131   1.277
94823W        W63241  26.030   2.772   0.937
94824W        W63242  27.944  17.176  11.018
94825W        W63243  21.070  35.376   0.307
94826W        W63244  18.680  31.063  14.940
94827W        W63245  29.966  35.443  11.491
94828W        W63246  17.198  31.602  13.450
94829W        W63247  31.916  14.740  12.900
94830W        W63248   4.311   4.717  12.438
94831W        W63249  16.647  38.889   2.280
94832W        W63250  24.564  37.024   1.841
94833W        W63251  40.876  12.642   1.759
94834W        W63252  17.077  40.958  11.921
94835W        W63253  23.163  18.197  14.000
94836W        W63254   9.778  43.346   3.254
94837W        W63255   9.226   1.762  11.906
94838W        W63256   2.779  39.910   3.666
94839W        W63257   8.713  34.897   1.736
94840W        W63258  25.060   2.935   4.325
94841W        W63259  39.410  36.079  12.568
94842W        W63260  30.508  26.480   2.783
94843W        W63261  26.589  32.960  13.312
94844W        W63262  26.641  28.537   2.855
94845W        W63263  43.484  14.717   3.202
94846W        W63264  12.156  18.669   2.829
94847W        W63265   1.425  32.556  12.497
94848W        W63266   9.151  33.968  12.855
94849W        W63267   9.362  43.992   2.846
94850W        W63268  17.609  13.832   0.294
94851W        W63269  38.364  23.505  10.983
94852W        W63270  22.547   1.328  14.481
94853W        W63271   8.337  24.990  14.302
94854W        W63272   0.335  26.639  11.895
94855W        W63273  34.964  19.634   2.873
94856W        W63274   2.388   5.315   1.739
94857W        W63275  18.111  30.451  11.413
94858W        W63276  37.368  41.420  11.425
94859W        W63277   2.910   9.167   2.306
94860W        W63278  14.812  35.576   1.843
94861W        W63279  35.870  20.037  13.470
94862W        W63280  40.010  27.653  12.984
94863W        W63281  37.897  12.312   2.308
94864W        W63282  37.993  38.510  11.129
94865W        W63283  20.229  13.669  11.110
94866W        W63284  36.880  17.120  10.486
94867W        W63285  32.484  42.438   0.478
94868W        W63286  43.934   0.321   0.296
94869W        W63287  38.478  19.086   0.411
94870W        W63288  11.338   8.324   2.868
94871W        W63289  23.498  15.306  14.937
94872W        W63290  43.014  26.608   4.132
94873W        W63291  31.544  13.726  12.955
94874W        W63292  17.114  38.995  10.124
94875W        W63293  43.846  16.751  13.944
94876W        W63294  28.974  25.564   1.319
94877W        W63295  29.431  12.803   9.936
94878W        W63296   7.195  22.521  14.857
94879W        W63297  41.892  13.731   4.671
94880W        W63298  29.030  10.209  14.500
94881W        W63299  15.608  27.104   0.294
94882W        W63300  44.337  37.033  14.313
94883W        W63301   1.268  22.717   0.399
94884W        W63302  17.685  44.422   2.776
94885W        W63303  33.006   6.360   1.892
94886W        W63304  37.560  12.832   2.252
94887W        W63305  25.085  37.942   2.798
94888W        W63306  44.320  31.941   2.764
94889W        W63307  24.632  26.113   4.763
94890W        W63308  11.670  24.502   2.893
94891W        W63309   9.668  10.719   3.734
94892W        W63310  12.740  20.675   3.356
94893W        W63311  44.881   5.194  14.304
94894W        W63312  44.893  38.411   0.375
94895W        W63313  18.114  34.500   3.282
94896W        W63314  44.401   1.868  11.465
94897W        W63315  35.087   3.943  12.018
94898W        W63316  39.493   5.744   0.728
94899W        W63317   2.732   3.237   3.146
94900W        W63318   2.406  40.473  12.423
94901W        W63319   6.731  44.357   0.270
94902W        W63320   8.327  31.091  12.889
94903W        W63321  35.558   2.348  11.048
94904W        W63322  16.772   8.168  12.891
94905W        W63323  11.631  16.182  13.343
94906W        W63324   2.729  34.968   0.803
94907W        W63325  28.627   4.726  14.458
94908W        W63326  21.161   0.426  11.127
94909W        W63327  40.492  21.227  14.820
94910W        W63328  36.880  11.264  11.462
94911W        W63329  21.061  27.486   0.321
94912W        W63330  18.581   1.371   4.308
94913W        W63331  17.089  25.643  14.510
94914W        W63332  39.974  40.544  13.951
94915W        W63333  14.760  25.484   0.346
94916W        W63334  27.663  28.500   3.215
94917W        W63335  42.427  39.344   2.326
94918W        W63336  44.389  32.567  13.460
94919W        W63337   5.246  43.465  13.355
94920W        W63338   4.337  43.993  11.071
94921W        W63339  38.491   2.859  14.455
94922W        W63340   4.924  42.304   4.302
94923W        W63341  36.057  23.715  12.570
94924W        W63342   6.257  10.334   3.354
94925W        W63343  22.246  32.604  14.491
94926W        W63344   8.765  33.555  13.047
94927W        W63345  39.920   6.884  11.116
94928W        W63346   2.919  26.200  10.517
94929W        W63347  21.174  12.257  11.033
94930W        W63348  34.385   8.829  11.863
94931W        W63349  34.095  42.295  12.905
94932W        W63350  12.674  15.733   3.840
94933W        W63351  16.791   4.293  13.832
94934W        W63352  44.470  25.581   1.919
94935W        W63353   2.417  17.293  12.357
94936W        W63354  36.366  14.787  12.477
94937W        W63355   0.273  39.466  11.489
94938W        W63356  20.035  41.811  12.425
94939W        W63357  15.204  40.546  11.112
94940W        W63358  28.175   8.317   1.368
94941W        W63359  36.912  34.396   3.200
94942W        W63360  29.014  20.661  12.413
94943W        W63361  17.746  38.347   0.742
94944W        W63362   4.843  12.727   3.731
94945W        W63363  31.513  25.984   4.235
94946W        W63364  20.114  38.518  11.928
94947W        W63365  10.220  37.834  13.867
94948W        W63366   0.908  41.368  11.904
94949W        W63367  44.325  37.354   1.350
94950W        W63368  25.600   6.746  11.025
94951W        W63369  33.528  43.496   0.343
94952W        W63370  30.592  27.147   4.308
94953W        W63371   3.249   5.923   1.774
94954W        W63372   4.324  24.145  12.013
94955W        W63373   4.264  14.700  10.960
94956W        W63374   1.260   9.281  13.489
94957W        W63375  22.109   7.839   3.667
94958W        W63376  19.645   1.829   2.873
94959W        W63377  19.228  33.460   3.868
94960W        W63378  18.187   8.321  11.547
94961W        W63379  30.132  33.525  10.409
94962W        W63380  21.170  12.647  11.991
94963W        W63381   8.330  22.042  11.057
94964W        W63382  27.164  32.989   3.265
94965W        W63383  17.065  37.356  13.464
94966W        W63384  25.599  31.419  12.865
94967W        W63385  15.683  26.116   2.262
94968W        W63386  21.512  20.694  13.819
94969W        W63387  34.901  31.143  14.371
94970W        W63388  14.256  35.926  11.496
94971W        W63389  41.975  31.905   0.365
94972W        W63390  19.164   0.892  14.866
94973W        W63391  36.486  36.001   2.375
94974W        W63392  10.656  21.624  14.815
94975W        W63393  30.135   5.712  12.479
94976W        W63394  15.276   1.804   0.853
94977W        W63395   6.721  18.662  12.566
94978W        W63396   8.247  39.507   3.756
94979W        W63397  16.312  22.741   3.296
94980W        W63398   3.277  31.574   0.741
94981W        W63399   5.689  14.691  11.489
94982W        W63400   2.768  21.042   1.722
94983W        W63401  25.006   0.473  14.810
94984W        W63402  19.280   3.329   0.464
94985W        W63403  41.453  41.337   4.117
94986W        W63404   8.798  40.032  13.011
94987W        W63405  16.143  15.219   1.781
94988W        W63406  33.500  11.299  13.406
94989W        W63407  26.049  32.038   0.398
94990W        W63408  17.747  25.526  14.951
94991W        W63409  21.656   4.333  11.608
94992W        W63410  22.013   0.388  12.829
94993W        W63411  18.164   1.935  14.431
94994W        W63412  30.015  32.035   0.859
94995W        W63413  29.501  28.647   2.237
94996W        W63414   4.434  36.556   2.837
94997W        W63415  27.659   3.368   2.272
94998W        W63416  18.167  26.183  12.577
94999W        W63417  36.487  23.591   0.465
95000W        W63418  26.199  37.554  13.494
95001W        W63419  21.244  28.678   1.790
95002W        W63420  36.972   0.338   0.742
95003W        W63421   4.705  23.122  12.356
95004W        W63422   6.304  26.675   2.255
95005W        W63423   2.238  10.203   2.331
95006W        W63424  21.147   5.882   1.855
95007W        W63425  30.057   0.871   2.412
95008W        W63426  15.697  29.132  10.613
95009W        W63427  14.093  42.814  14.999
95010W        W63428  43.986  33.971   1.345
95011W        W63429  15.796  33.502  10.449
95012W        W63430  21.624   5.788   1.781
95013W        W63431  11.660  40.476   5.143
95014W        W63432  12.327  21.181   4.626
95015W        W63433   1.831  12.726   3.153
95016W        W63434  42.828   2.242  13.398
95017W        W63435   4.872   6.802  11.952
95018W        W63436   7.302   4.877  11.008
95019W        W63437  33.051  22.243  10.490
95020W        W63438  36.881   2.404   0.905
95021W        W63439  11.162  26.003  13.463
95022W        W63440  37.012  42.030  13.389
95023W        W63441  10.838  11.849  10.627
95024W        W63442  36.857  14.250   4.282
95025W        W63443  14.163  40.940  13.330
95026W        W63444   6.415  17.247   2.726
95027W        W63445  29.061  25.966  14.274
95028W        W63446  23.171  11.734  10.457
95029W        W63447   4.287  44.995   3.644
95030W        W63448  31.490  11.140  14.390
95031W        W63449  37.901   1.364  14.795
95032W        W63450  30.504  14.652   3.299
95033W        W63451   7.811  36.912   3.360
95034W        W63452   2.958  16.604  14.494
95035W        W63453  18.669   6.355  12.070
95036W        W63454   6.280  16.174  13.319
95037W        W63455  10.719  44.468   4.149
95038W        W63456  43.403  43.788  11.081
95039W        W63457  11.690  14.125  13.347
95040W        W63458   1.408  37.394   3.332
95041W        W63459  24.661  29.034  14.503
95042W        W63460   4.208  27.522  12.828
95043W        W63461  29.930  27.546  13.892
95044W        W63462   9.373  35.087  14.766
95045W        W63463  41.033   8.264   3.209
95046W        W63464  15.298  11.637   2.675
95047W        W63465  17.287  33.566   3.645
95048W        W63466  28.994  17.717   4.314
95049W        W63467  36.516  19.729   2.849
95050W        W63468  22.535   8.321   4.270
95051W        W63469  41.912  42.833   3.234
95052W        W63470  28.929  22.033  13.915
95053W        W63471  41.887  25.486  11.046
95054W        W63472   8.377  20.249  11.563
95055W        W63473   6.754  17.277   4.262
95056W        W63474  34.928  43.826  14.345
95057W        W63475  41.952  12.218   4.628
95058W        W63476  25.657   2.811   2.284
95059W        W63477  29.926  22.067   0.751
95060W        W63478  19.235   0.932  13.547
95061W        W63479  18.596  18.142  10.891
95062W        W63480  27.618  41.944   0.302
95063W        W63481  31.428  11.166   4.616
95064W        W63482  26.059  19.767   2.757
95065W        W63483  30.426  44.904   1.912
95066W        W63484  23.665   9.775  12.512
95067W        W63485  31.969  27.662   9.932
95068W        W63486  41.844  21.204   2.287
95069W        W63487  43.914   8.706   4.612
95070W        W63488   1.788   5.369  10.909
95071W        W63489  16.579  29.083   1.269
95072W        W63490  16.697   9.851   2.379
95073W        W63491   1.875  27.488   1.900
95074W        W63492  37.525  33.440   4.632
95075W        W63493  14.669  10.279   2.754
95076W        W63494   7.211   0.385  11.959
95077W        W63495  37.451  38.051   1.262
95078W        W63496  29.040  41.939   3.817
95079W        W63497   1.958  40.809   1.452
95080W        W63498  10.838  41.438  12.037
95081W        W63499   5.387  24.185  11.881
95082W        W63500  13.788   3.325   2.715
95083W        W63501  23.562  30.457  10.973
95084W        W63502   0.971  11.650   4.795
95085W        W63503  25.102  13.720  12.486
95086W        W63504  18.257   4.242  13.875
95087W        W63505  13.774  28.129  14.324
95088W        W63506  23.040  39.422   1.905
95089W        W63507   4.292   8.187   3.312
95090W        W63508   8.755  37.431  12.921
95091W        W63509  42.876   8.240   4.640
95092W        W63510  21.262  38.891  12.935
95093W        W63511  31.943  14.658   2.791
95094W        W63512   0.745  28.484  12.059
95095W        W63513   0.326   7.683  13.329
95096W        W63514   6.892  24.622   3.783
95097W        W63515  21.696  30.026   1.222
95098W        W63516   7.897  20.197   3.871
95099W        W63517  19.233  44.888   3.856
95100W        W63518  40.844  12.344   2.732
95101W        W63519   5.409   6.272  11.889
95102W        W63520  42.848  14.728   2.779
95103W        W63521  15.327  28.001   1.844
95104W        W63522  31.987  14.831   1.822
95105W        W63523  25.003  44.849   3.634
95106W        W63524   2.913  21.753   1.226
95107W        W63525   3.796  26.198  13.374
95108W        W63526   7.374   6.348   1.752
95109W        W63527  12.765  29.589   4.309
95110W        W63528  21.523  39.394  12.909
95111W        W63529  39.442  14.325   3.199
95112W        W63530  13.106  29.462   9.966
95113W        W63531  29.655  42.987   4.237
95114W        W63532  25.028  11.299   0.306
95115W        W63533  34.060  42.427   4.154
95116W        W63534  41.300   9.178  10.979
95117W        W63535  40.442  17.131   1.373
95118W        W63536  25.707  36.870   0.288
95119W        W63537  43.928  30.654   2.713
95120W        W63538  28.536  14.244   3.300
95121W        W63539  41.919  12.307  11.491
95122W        W63540   2.239  22.036  10.413
95123W        W63541  22.626   8.693   1.787
95124W        W63542  22.584  14.671   1.341
95125W        W63543  19.719  36.950  10.572
95126W        W63544  22.108  37.869  10.059
95127W        W63545  38.389  20.239  12.034
95128W        W63546  30.112  37.384  11.569
95129W        W63547  44.408  22.024   4.669
95130W        W63548  23.997  40.950   2.326
95131W        W63549  14.748   1.395  10.940
95132W        W63550  33.125  13.740  14.280
95133W        W63551  28.654   6.893   9.473
95134W        W63552  19.749  43.856  13.440
95135W        W63553   9.689  43.012   4.838
95136W        W63554  30.938  11.246   1.715
95137W        W63555   4.878   7.274   2.335
95138W        W63556  42.417  24.172   0.837
95139W        W63557  41.957  40.952  10.017
95140W        W63558   7.187  38.517  11.389
95141W        W63559  28.508  32.979  11.544
95142W        W63560  30.119   5.879   3.368
95143W        W63561  42.324  43.353  12.390
95144W        W63562  41.456  16.213   2.668
95145W        W63563   1.346  26.458   3.744
95146W        W63564   7.740  42.353  14.935
95147W        W63565  37.993  38.449   5.189
95148W        W63566  36.585  26.520  12.024
95149W        W63567  42.965  17.748  14.986
95150W        W63568  22.108  43.807  12.064
95151W        W63569  32.995  18.221  10.931
95152W        W63570  19.125  30.991  14.348
95153W        W63571  35.512  23.708   4.666
95154W        W63572  38.528  17.204   0.364
95155W        W63573  13.251  22.734   3.152
95156W        W63574   1.955  13.238   0.827
95157W        W63575   8.317   1.943   0.818
95158W        W63576  22.688  43.319   0.856
95159W        W63577  20.104  44.372  12.985
95160W        W63578   4.773  22.702  14.344
95161W        W63579   2.800  23.194  11.918
95162W        W63580  21.667  20.620   0.303
95163W        W63581  21.567  24.167  10.021
95164W        W63582   7.286  36.918   0.408
95165W        W63583  26.096  37.531  12.414
95166W        W63584  32.098   5.414  10.472
95167W        W63585   9.818  43.422  13.499
95168W        W63586   4.403   5.430  13.470
95169W        W63587  30.934  40.469   4.758
95170W        W63588  41.525   8.875   2.278
95171W        W63589   4.899  38.463  12.399
95172W        W63590   0.768  42.788   3.680
95173W        W63591  28.552  44.927  14.367
95174W        W63592   9.876   7.730   1.316
95175W        W63593  31.902  42.979  13.378
95176W        W63594  25.640  14.228   2.223
95177W        W63595  20.530   4.775  13.395
95178W        W63596  21.039  33.882  14.471
95179W        W63597  10.662  13.769  11.534
95180W        W63598  15.585   3.923   2.374
95181W        W63599   7.223  39.559   3.356
95182W        W63600  23.231  24.171   3.379
95183W        W63601  26.039  10.858  11.899
95184W        W63602  43.305  13.700   4.167
95185W        W63603  26.148  24.118   4.262
95186W        W63604  43.356  37.010  14.279
95187W        W63605  37.067   2.333   1.286
95188W        W63606   0.769   8.222   3.295
95189W        W63607  34.477  13.726   0.821
95190W        W63608   6.840  40.434  12.090
95191W        W63609  33.968  17.179   4.139
95192W        W63610   2.271  23.159  10.411
95193W        W63611  40.531  26.679  10.964
95194W        W63612  34.064  29.631  11.407
95195W        W63613   9.726  34.469   4.153
95196W        W63614   4.847   5.896   0.363
95197W        W63615  39.935  31.535   1.331
95198W        W63616  37.426  21.242   0.462
95199W        W63617  31.111  41.500  13.800
95200W        W63618  39.548  11.135  12.500
95201W        W63619  41.879   0.258   3.280
95202W        W63620  35.571  42.329  12.002
95203W        W63621  40.484   2.253   1.874
95204W        W63622  43.404  16.628   0.324
95205W        W63623  37.562  33.971   2.768
95206W        W63624   7.852  10.704  13.449
95207W        W63625  30.550  16.717  13.472
95208W        W63626   0.830   8.818  13.872
95209W        W63627  38.882  32.469  14.789
95210W        W63628   7.703   6.321  12.453
95211W        W63629   7.392  31.503  12.497
95212W        W63630   4.392   2.314  12.937
95213W        W63631  40.821   3.907   3.205
95214W        W63632  10.778   1.758   0.834
95215W        W63633  27.980  40.798   5.239
95216W        W63634   1.317  23.736   3.694
95217W        W63635  39.913  17.308  14.457
95218W        W63636   4.311  44.335  12.970
95219W        W63637  33.529   1.958  11.610
95220W        W63638  43.493   7.681  13.807
95221W        W63639  29.094  25.092   4.283
95222W        W63640  42.907  14.255   2.839
95223W        W63641  26.581   6.772   2.192
95224W        W63642   7.752   6.354   4.738
95225W        W63643   8.306  20.086   0.776
95226W        W63644   6.291  13.838  10.441
95227W        W63645   9.306   4.229   1.445
95228W        W63646  30.418  14.792   2.757
95229W        W63647  22.120  40.828   2.290
95230W        W63648  39.453  37.883   2.862
95231W        W63649  40.350  20.100   0.264
95232W        W63650   7.211  37.964  11.017
95233W        W63651  21.036  27.030  14.906
95234W        W63652  14.094  17.175  11.922
95235W        W63653  39.819  32.623  12.557
95236W        W63654  11.636   8.304  14.807
95237W        W63655  42.482  25.173  12.543
95238W        W63656  41.344  18.670  12.827
95239W        W63657  33.034   9.258   4.171
95240W        W63658  36.870   4.797  14.374
95241W        W63659  37.847  14.713   1.708
95242W        W63660   5.434   7.198  12.365
95243W        W63661  38.864  43.404   1.349
95244W        W63662  13.615  20.660  10.948
95245W        W63663  14.665  33.874   4.308
95246W        W63664  15.613  31.043  13.527
95247W        W63665   6.301  24.575  14.851
95248W        W63666   8.802   7.388   0.936
95249W        W63667  11.240   6.346   1.230
95250W        W63668  35.427   2.737   0.275
95251W        W63669  27.087  15.770   3.694
95252W        W63670  39.973  18.776   1.830
95253W        W63671  30.164  25.678   1.235
95254W        W63672  37.554  11.770   3.810
95255W        W63673  19.262  10.817  12.019
95256W        W63674   7.799  13.218   3.341
95257W        W63675  18.153  26.505   1.868
95258W        W63676  28.535   3.791   1.292
95259W        W63677   6.714  22.164  13.442
95260W        W63678  39.445  38.069  14.810
95261W        W63679   5.837  24.634  12.438
95262W        W63680  44.932  10.145  13.519
95263W        W63681  31.586  43.866   2.280
95264W        W63682   7.912   8.802  14.000
95265W        W63683  37.881  10.163  12.380
95266W        W63684  27.675  14.204  12.886
95267W        W63685  21.569  25.062  13.045
95268W        W63686   5.740  26.135   1.877
95269W        W63687  33.460  26.702  14.301
95270W        W63688   5.216  33.052   0.958
95271W        W63689  26.604   7.171  14.017
95272W        W63690  13.311  41.902   0.355
95273W        W63691  24.697  22.016   2.310
95274W        W63692  14.187  33.886   3.713
95275W        W63693  19.745  38.996   4.191
95276W        W63694   2.745  41.973   3.375
95277W        W63695  14.154   3.443  11.492
95278W        W63696   6.337  27.943   5.176
95279W        W63697   5.864  34.120  12.530
95280W        W63698  26.470  39.979   5.164
95281W        W63699   3.402  30.134   0.435
95282W        W63700  14.233  31.134  14.460
95283W        W63701  44.951  24.097   0.373
95284W        W63702  42.298   6.904  14.328
95285W        W63703  20.096  12.808  12.397
95286W        W63704  26.203  17.615  12.884
95287W        W63705  41.956  32.417  11.452
95288W        W63706  34.485  33.046  14.504
95289W        W63707  27.940  10.305  11.610
95290W        W63708   7.389  15.704  13.467
95291W        W63709   0.774  14.210   1.930
95292W        W63710  40.466  43.412   3.269
95293W        W63711  16.602  13.159  11.505
95294W        W63712  30.034  28.184  10.994
95295W        W63713  11.671  31.010  13.325
95296W        W63714  37.999  39.402   4.114
95297W        W63715  44.873   9.320   2.848
95298W        W63716   1.254  21.063  13.447
95299W        W63717   7.250   0.494   3.382
95300W        W63718  14.323   3.334  13.897
95301W        W63719  29.558   9.715   1.796
95302W        W63720   0.415  20.144  14.908
95303W        W63721  42.473  18.745   4.170
95304W        W63722   6.312  13.719   2.748
95305W        W63723  42.854  13.231   0.835
95306W        W63724  27.630  27.997   4.126
95307W        W63725   7.834  39.403   4.698
95308W        W63726  31.057  15.129  12.060
95309W        W63727  37.875  11.356   0.838
95310W        W63728  29.137  27.558   1.862
95311W        W63729  16.779  11.685  14.814
95312W        W63730  16.240  15.169  12.972
95313W        W63731  30.011  26.004   1.773
95314W        W63732  42.924  34.492   1.858
95315W        W63733   0.275  21.044  13.462
95316W        W63734  27.119  34.607  13.363
95317W        W63735  18.577  25.483  13.806
95318W        W63736   1.287  26.146  11.040
95319W        W63737  15.698  20.755   3.728
95320W        W63738  11.304  44.914   4.633
95321W        W63739  39.316  32.891  14.763
95322W        W63740  38.524  36.043  13.021
95323W        W63741   3.913  34.437  13.492
95324W        W63742   3.946  32.904   3.864
95325W        W63743  24.544  34.384   1.229
95326W        W63744  43.372   9.697   2.848
95327W        W63745  23.632  39.963  12.095
95328W        W63746  30.941  34.606   3.787
95329W        W63747  15.282  11.310  11.044
95330W        W63748  16.642   5.859   3.190
95331W        W63749  41.015  11.347  14.504
95332W        W63750   7.406   8.304  14.944
95333W        W63751  21.044  16.183   3.282
95334W        W63752  32.976  32.946  10.579
95335W        W63753  42.350  36.431  12.872
95336W        W63754  29.501  21.192  11.417
95337W        W63755  42.373  37.988  14.414
95338W        W63756  40.393  21.632  13.859
95339W        W63757  27.460  38.841  13.016
95340W        W63758  34.443  12.816  10.935
95341W        W63759  30.116  44.377  11.971
95342W        W63760  24.545  13.165   1.897
95343W        W63761  40.018  43.494  14.436
95344W        W63762  44.485  30.950  12.496
95345W        W63763  20.192  38.375   3.651
95346W        W63764  22.193  35.434  12.354
95347W        W63765  25.533  43.388   0.955
95348W        W63766  10.736  13.251  14.881
95349W        W63767  16.664  17.660  10.489
95350W        W63768  22.096  41.300  12.505
95351W        W63769  21.664  17.204  11.564
95352W        W63770  19.093   9.204  10.576
95353W        W63771  14.292  41.329   2.257
95354W        W63772  33.002   5.416   3.310
95355W        W63773  19.609  13.127   3.787
95356W        W63774   6.816  38.469  14.998
95357W        W63775  38.840  23.571  12.394
95358W        W63776  27.995  36.045   1.345
95359W        W63777  17.070  30.012   0.961
95360W        W63778  33.404  22.019  10.630
95361W        W63779  21.104  23.490  12.910
95362W        W63780  10.878  22.014  10.926
95363W        W63781   3.771  31.580   0.955
95364W        W63782  44.500  32.068  12.552
95365W        W63783  29.499  37.039  13.817
95366W        W63784   5.381  22.226   4.346
95367W        W63785   3.762  40.318  12.989
95368W        W63786  10.203  40.980   0.734
95369W        W63787  37.958  44.291  14.491
95370W        W63788   4.867  12.780   1.780
95371W        W63789  37.988  17.284   4.753
95372W        W63790   3.899  34.932   0.263
95373W        W63791  27.661  29.003  14.340
95374W        W63792  17.783  18.755  13.544
95375W        W63793  34.059  21.073   4.769
95376W        W63794  38.866  12.711   2.260
95377W        W63795  16.749  32.059  14.279
95378W        W63796  25.093   1.351  11.025
95379W        W63797  15.141  40.019  11.553
95380W        W63798   9.868  18.616   3.159
95381W        W63799  19.664  38.551   4.782
95382W        W63800  33.128  10.710   0.350
95383W        W63801  37.854  27.577   3.765
95384W        W63802  33.397  41.323  11.458
95385W        W63803  40.931  26.073  11.033
95386W        W63804  37.528  33.412   1.721
95387W        W63805   6.342  34.483   4.709
95388W        W63806   4.921  41.341   0.767
95389W        W63807  31.580  18.620   3.635
95390W        W63808  44.403  21.665   2.866
95391W        W63809   2.939   5.306   4.621
95392W        W63810  11.624  17.201  13.461
95393W        W63811  17.105  30.658   2.753
95394W        W63812   7.192  29.134   0.770
95395W        W63813  29.120  23.155   0.743
95396W        W63814  42.355  12.805  12.040
95397W        W63815  11.368  44.350  12.468
95398W        W63816  35.963  13.259   4.132
95399W        W63817  13.648  12.644  13.990
95400W        W63818  38.858  36.501  10.493
95401W        W63819  22.724  38.400  11.063
95402W        W63820  11.301  25.081  11.910
95403W        W63821   1.966  35.054   3.381
95404W        W63822   6.827  42.859   0.479
95405W        W63823  13.277  17.181  11.612
95406W        W63824  43.929  41.490  10.129
95407W        W63825  15.318  29.087   4.336
95408W        W63826  40.806   4.217   2.304
95409W        W63827   5.789   9.783  14.976
95410W        W63828  21.069  11.160  10.640
95411W        W63829  18.227  15.743  13.961
95412W        W63830   5.196  39.950  13.812
95413W        W63831  23.132  28.646   2.670
95414W        W63832  13.624   7.707  11.997
95415W        W63833  34.398  35.553   3.156
95416W        W63834  11.771   1.341  12.088
95417W        W63835  14.170   0.855  11.559
95418W        W63836  27.990  26.033  12.050
95419W        W63837  14.122  12.298   3.335
95420W        W63838  13.844  22.998  12.090
95421W        W63839   3.759  31.518   0.264
95422W        W63840  39.439  27.086   3.276
95423W        W63841  36.503  16.119   3.823
95424W        W63842  19.614  12.254  12.971
95425W        W63843  17.600  26.964   4.714
95426W        W63844  44.443   4.822  13.433
95427W        W63845  26.980   0.910   4.734
95428W        W63846  21.627  16.799  11.579
95429W        W63847   9.175  30.974  12.453
95430W        W63848   4.886  22.232   0.356
95431W        W63849  25.120  11.340   0.891
95432W        W63850  16.190  21.177   1.923
95433W        W63851  42.314  26.037   3.843
95434W        W63852   8.667  20.091   0.896
95435W        W63853  21.073   0.391  11.374
95436W        W63854  14.297  13.215  13.426
95437W        W63855  40.934  23.698  11.942
95438W        W63856  22.039   7.784   0.849
95439W        W63857  16.675  11.647   2.710
95440W        W63858  21.029  13.330   1.783
95441W        W63859  38.005  29.497  14.791
95442W        W63860  23.705   2.757  12.848
95443W        W63861  41.935  31.119  14.421
95444W        W63862  15.593  19.279  10.889
95445W        W63863  37.934  18.654  10.416
95446W        W63864  18.678   9.382   1.887
95447W        W63865   3.402  32.958  12.940
95448W        W63866   0.887  38.454   2.845
95449W        W63867   1.399   1.308   1.385
95450W        W63868  33.012  19.734   4.729
95451W        W63869  41.887  16.099  12.889
95452W        W63870  36.350  41.993  11.074
95453W        W63871   8.800  23.716   0.383
95454W        W63872  44.345   8.745  14.885
95455W        W63873   2.264  24.520   1.219
95456W        W63874  31.566  17.620   4.259
95457W        W63875  14.765   4.441   4.231
95458W        W63876  43.299  22.655   2.365
95459W        W63877  18.732   7.835   2.408
95460W        W63878  18.556   5.820   1.749
95461W        W63879  28.113  20.744   4.337
95462W        W63880  12.838   9.791  11.404
95463W        W63881  13.351  25.473   4.252
95464W        W63882  30.979   0.914  11.866
95465W        W63883  11.730  30.517  10.631
95466W        W63884  39.333  29.960  12.403
95467W        W63885  35.007  19.606  11.596
95468W        W63886  44.933  35.063  11.532
95469W        W63887  44.289  37.406   5.221
95470W        W63888   2.443  29.039   1.760
95471W        W63889  14.681   4.908   3.851
95472W        W63890  14.808  15.643   3.327
95473W        W63891  15.632  28.100  11.411
95474W        W63892  11.853  10.697  12.403
95475W        W63893  37.074  20.527  11.489
95476W        W63894  27.499   0.416  14.816
95477W        W63895  35.600  37.986   1.707
95478W        W63896   7.861  34.457   3.694
95479W        W63897  35.537  37.986   3.830
95480W        W63898  38.966  16.295  14.944
95481W        W63899  11.767  22.585   1.935
95482W        W63900  30.591   4.219  12.085
95483W        W63901  19.639  24.723  10.425
95484W        W63902  39.979  18.732   3.312
95485W        W63903   6.313   5.714   1.446
95486W        W63904  38.921  40.434  10.021
95487W        W63905  39.932   7.351   0.288
95488W        W63906  19.709  11.662   0.878
95489W        W63907  29.071  32.419  11.531
95490W        W63908  16.770   6.419  14.333
95491W        W63909  31.596   8.390  10.984
95492W        W63910   2.401  14.740   3.818
95493W        W63911  38.829  28.929  14.896
95494W        W63912  15.152  20.207  14.515
95495W        W63913   4.320  15.148   1.415
95496W        W63914   5.814  11.810  11.556
95497W        W63915  44.306   4.232   4.350
95498W        W63916  44.463  33.436  12.973
95499W        W63917  10.696  19.625  13.346
95500W        W63918   1.977  12.355   0.916
95501W        W63919  15.295  18.728   4.646
95502W        W63920  34.906  21.706   3.861
95503W        W63921  10.778  37.045   4.170
95504W        W63922  22.078  13.600   2.900
95505W        W63923  11.796   4.943  12.544
95506W        W63924  22.238  36.377  14.773
95507W        W63925   8.730  20.639   2.710
95508W        W63926  40.397  36.018   2.415
95509W        W63927  12.298  20.725  10.542
95510W        W63928   4.816   2.774  11.067
95511W        W63929  12.339  26.140   4.191
95512W        W63930  38.559  24.007   1.315
95513W        W63931   9.349  44.505  13.490
95514W        W63932   5.210  27.015   4.131
95515W        W63933  44.861  20.721  10.451
95516W        W63934   0.400  35.084   2.870
95517W        W63935   6.834   6.920  12.057
95518W        W63936  23.712  41.939   4.628
95519W        W63937  37.899  38.451  13.344
95520W        W63938  13.795  40.371  12.854
95521W        W63939   3.934  26.628   1.920
95522W        W63940  29.934  15.258   0.922
95523W        W63941  19.192  36.553   4.802
95524W        W63942   5.903  25.970  13.378
95525W        W63943  32.074  42.311   3.824
95526W        W63944  12.323  13.248  13.358
95527W        W63945   1.947  22.205  12.354
95528W        W63946  23.669   3.371  13.942
95529W        W63947  40.014  21.207  13.889
95530W        W63948   4.720  32.942  14.898
95531W        W63949  29.522  33.609   5.259
95532W        W63950   4.267  27.113   2.842
95533W        W63951  29.943  39.378  13.464
95534W        W63952  35.956  10.766   2.678
95535W        W63953  44.441  12.726  11.871
95536W        W63954  28.618  14.619  13.921
95537W        W63955   5.359  27.503   1.251
95538W        W63956  23.667  37.349  12.444
95539W        W63957  29.079   7.290   5.271
95540W        W63958  27.658  33.470  11.583
95541W        W63959  11.630  16.672   3.295
95542W        W63960   8.724  39.947   4.814
95543W        W63961   7.354  38.565  12.561
95544W        W63962  35.086  22.192  12.880
95545W        W63963  40.362  37.941  14.346
95546W        W63964  17.281  37.519   1.371
95547W        W63965  15.265  11.172  13.539
95548W        W63966  33.519   5.835  14.310
95549W        W63967  33.007  13.345   3.746
95550W        W63968  36.422  21.694  13.891
95551W        W63969   1.301   7.211   3.364
95552W        W63970  22.150  32.896  14.443
95553W        W63971  33.014  20.565   3.194
95554W        W63972  18.600  10.745  12.068
95555W        W63973  34.379  42.865   2.409
95556W        W63974  24.221  11.851   2.243
95557W        W63975  12.235  17.227   3.318
95558W        W63976  37.358   2.439   3.864
95559W        W63977  43.375  18.682  11.027
95560W        W63978  35.910  35.415   3.255
95561W        W63979  30.985  17.658   0.819
95562W        W63980  25.150   7.238  12.863
95563W        W63981  20.716  35.046   4.153
95564W        W63982  15.610  14.268   2.373
95565W        W63983  16.289  10.694  12.089
95566W        W63984   4.243  17.120  13.548
95567W        W63985  44.267   2.802   3.184
95568W        W63986   3.346  24.643  12.933
95569W        W63987  28.955  20.691   0.950
95570W        W63988  17.784   2.394  14.336
95571W        W63989   4.339  40.008  14.993
95572W        W63990  40.922  31.067  13.041
95573W        W63991  19.161   6.253   0.946
95574W        W63992  24.637   3.742  11.428
95575W        W63993  41.901  39.493   5.226
95576W        W63994   4.769  29.642  10.419
95577W        W63995  43.897  35.084  10.958
95578W        W63996  44.763  28.467  13.435
95579W        W63997   2.761  16.161  11.958
95580W        W63998   1.808  20.104   2.714
95581W        W63999  36.381  32.427  13.361
95582W        W64000  15.710   7.782  11.000
95583W        W64001  14.775  24.481  11.421
95584W        W64002  36.098  37.991  10.894
95585W        W64003  22.163   1.383   2.756
95586W        W64004  38.400   1.911  12.946
95587W        W64005  21.708  26.972  13.878
95588W        W64006  40.466  22.119   0.377
95589W        W64007  34.045   5.769   4.723
95590W        W64008   1.303  26.476  14.827
95591W        W64009   9.836  32.495   4.226
95592W        W64010  22.625  15.179   2.780
95593W        W64011  20.613   1.739  11.055
95594W        W64012  42.863  39.009  11.439
95595W        W64013   1.934  39.493   2.214
95596W        W64014   0.810  18.654   0.881
95597W        W64015  23.573  25.475  13.878
95598W        W64016  41.862  30.147  13.384
95599W        W64017  31.094  15.821  11.465
95600W        W64018  25.115   0.797  14.761
95601W        W64019   1.836  38.943  11.430
95602W        W64020  24.611  25.048  14.342
95603W        W64021  24.974  44.464  13.393
95604W        W64022   1.257  18.611   1.901
95605W        W64023   0.417  36.397   1.894
95606W        W64024  29.133  11.368   2.725
95607W        W64025  22.545  17.133  10.986
95608W        W64026  21.085  37.020  10.452
95609W        W64027  44.495  34.864   2.380
95610W        W64028  39.437  22.207  10.561
95611W        W64029  14.256  22.651   0.842
95612W        W64030   2.927   8.838   2.841
95613W        W64031  21.063  33.589   1.438
95614W        W64032  34.877  36.515   4.835
95615W        W64033  39.381  43.918   1.700
95616W        W64034   6.685   7.756  12.087
95617W        W64035  13.290   5.722  13.469
95618W        W64036  36.045   0.815  12.492
95619W        W64037   6.329  18.168  14.419
95620W        W64038  10.733  29.637  13.386
95621W        W64039  26.147  40.360  13.793
95622W        W64040  43.871  26.999  10.607
95623W        W64041   8.751   2.745   3.731
95624W        W64042  31.149   2.434   0.794
95625W        W64043  39.949  44.485   1.292
95626W        W64044   5.283   6.373  11.585
95627W        W64045  35.083  14.778  14.895
95628W        W64046  40.846  31.630  14.858
95629W        W64047   1.844  32.429  12.539
95630W        W64048  14.323  20.062  14.908
95631W        W64049  41.426  26.540   1.828
95632W        W64050  42.491  24.118  10.889
95633W        W64051  17.622  14.763   5.227
95634W        W64052  39.440  18.696  13.939
95635W        W64053   9.700  37.080   0.919
95636W        W64054  26.196  37.083  11.564
95637W        W64055  17.793   5.721   9.949
95638W        W64056  31.941  11.848   0.428
95639W        W64057  38.888  39.502  12.882
95640W        W64058   0.436   9.252   0.413
95641W        W64059  43.437  36.529   3.739
95642W        W64060  17.089   8.207  11.526
95643W        W64061  42.460  10.661  14.838
95644W        W64062  18.203   4.310   2.363
95645W        W64063  28.572   5.852   3.195
95646W        W64064  25.093  37.923  10.468
95647W        W64065  23.166  38.945  14.385
95648W        W64066  21.246  30.950   0.340
95649W        W64067   0.861   5.376  10.925
95650W        W64068  39.413   7.259  13.406
95651W        W64069  44.958  20.228   2.365
95652W        W64070   8.776   4.229  10.501
95653W        W64071  17.672   5.238  11.530
95654W        W64072  16.077  33.951   3.734
95655W        W64073  14.164  33.875  10.985
95656W        W64074  22.113  27.139   3.719
95657W        W64075   6.720  11.643   2.662
95658W        W64076   2.795  10.877   0.904
95659W        W64077  36.869  21.664  10.916
95660W        W64078  13.843  18.168  11.090
95661W        W64079  42.940  17.679  14.328
95662W        W64080   4.749  39.924   2.382
95663W        W64081  11.352  39.907   2.757
95664W        W64082  21.551  38.992  11.008
95665W        W64083  34.475  16.806   0.323
95666W        W64084  38.845  16.703   0.966
95667W        W64085  32.498  18.613  14.781
95668W        W64086  10.695  34.117  10.999
95669W        W64087  18.768  14.177  13.968
95670W        W64088  42.801  10.298  12.902
95671W        W64089  41.004  44.774   4.676
95672W        W64090  17.688  33.501  11.458
95673W        W64091  22.164  24.654   9.573
95674W        W64092  15.759  26.666   0.938
95675W        W64093  31.584  43.445  12.941
95676W        W64094  38.912   7.759   2.208
95677W        W64095  43.428  34.481  11.948
95678W        W64096  38.570  20.226   0.827
95679W        W64097   4.933  18.560  13.511
95680W        W64098   2.721  36.514  11.472
95681W        W64099  32.141  35.907   1.451
95682W        W64100  34.488  31.607   3.169
95683W        W64101   3.406  31.505   4.617
95684W        W64102  25.169  37.032   2.876
95685W        W64103  40.819  11.194   2.742
95686W        W64104  28.108  14.795   1.285
95687W        W64105  32.005  38.986  14.900
95688W        W64106  43.974  18.618  12.967
95689W        W64107  26.110   8.784  10.042
95690W        W64108  23.584  12.695  10.983
95691W        W64109  13.631  33.908  11.450
95692W        W64110  18.698  11.187   1.855
95693W        W64111  23.153   1.731  10.550
95694W        W64112   4.436  42.016  14.771
95695W        W64113  19.561  12.750  11.026
95696W        W64114  33.132  34.944  12.572
95697W        W64115  37.388   0.274   1.888
95698W        W64116   6.702   0.447  10.499
95699W        W64117  27.941   8.766   4.809
95700W        W64118   6.857  14.317  13.511
95701W        W64119  42.811  19.157   2.341
95702W        W64120  13.712   5.383   0.907
95703W        W64121  23.558  33.113  14.996
95704W        W64122  41.796  36.483   3.864
95705W        W64123  13.730  17.565   3.694
95706W        W64124  44.009  32.132  14.916
95707W        W64125  22.504  44.921   4.241
95708W        W64126  23.580  38.541   9.523
95709W        W64127   6.752   2.285  11.893
95710W        W64128   1.948   2.861  10.623
95711W        W64129   4.327  14.262  13.417
95712W        W64130  28.435  35.949   5.211
95713W        W64131  32.596  38.871   1.288
95714W        W64132  31.448   3.722  12.987
95715W        W64133   1.799  19.208  14.992
95716W        W64134   5.774  42.971   4.333
95717W        W64135   2.357  27.481  14.771
95718W        W64136  39.875  19.189   1.717
95719W        W64137  22.040  21.153   2.855
95720W        W64138  36.553   4.901  12.040
95721W        W64139  29.176  27.985   1.722
95722W        W64140  41.792  12.696   2.275
95723W        W64141  40.816  34.543  11.030
95724W        W64142  13.742   7.831  12.544
95725W        W64143  14.735  21.089  13.508
95726W        W64144   7.373  15.270   4.285
95727W        W64145  15.588  16.654  11.431
95728W        W64146  29.090   0.447   4.165
95729W        W64147  41.954  14.117  10.121
95730W        W64148   6.764   0.984  11.486
95731W        W64149  13.194  37.431   0.810
95732W        W64150  23.661  39.032   4.608
95733W        W64151  42.457  30.575   2.830
95734W        W64152  43.899  31.994  10.434
95735W        W64153   4.375  17.149  13.803
95736W        W64154  14.225  23.172  10.911
95737W        W64155  38.387  39.872   3.869
95738W        W64156  32.061  35.880   0.949
95739W        W64157   8.282  14.791   2.834
95740W        W64158  30.938  40.407  10.141
95741W        W64159  29.436  31.434   1.766
95742W        W64160  11.785  38.885  11.964
95743W        W64161   2.829  37.398   4.140
95744W        W64162  26.473  23.161  10.429
95745W        W64163  42.029   6.919  13.944
95746W        W64164  21.144  37.352  13.430
95747W        W64165  12.760  24.530   2.745
95748W        W64166  23.227  33.034   0.731
95749W        W64167  31.635  22.669  13.900
95750W        W64168  40.049   0.863   0.462
95751W        W64169   4.410  15.145  14.304
95752W        W64170  17.216  27.175   2.828
95753W        W64171   6.884  11.220   4.173
95754W        W64172  44.802  13.292  12.504
95755W        W64173   0.489   0.448   4.261
95756W        W64174  19.548  40.431   0.374
95757W        W64175   1.437  40.468   0.846
95758W        W64176  39.360  16.589  10.602
95759W        W64177   7.266  16.569   0.266
95760W        W64178  33.426  27.125   4.158
95761W        W64179  11.193   4.727  12.412
95762W        W64180  11.352  24.504  14.854
95763W        W64181  15.738  14.308  14.846
95764W        W64182  29.496   9.376  13.929
95765W        W64183  15.261  26.618   0.948
95766W        W64184  11.655  14.199   3.654
95767W        W64185  12.258  23.171   0.326
95768W        W64186   3.746  44.260  10.076
95769W        W64187  20.273  30.578   4.806
95770W        W64188  26.183  22.029   0.797
95771W        W64189  43.811   0.939  10.490
95772W        W64190  19.735  39.020   2.272
95773W        W64191  30.091  39.993  14.993
95774W        W64192  44.895  37.024  14.407
95775W        W64193   9.793  26.051   1.245
95776W        W64194  20.615  20.102   1.791
95777W        W64195  23.217  16.230   1.410
95778W        W64196  20.763  28.985   0.836
95779W        W64197  37.912  14.313   0.344
95780W        W64198  32.121  40.881   1.891
95781W        W64199  12.191  44.811  14.918
95782W        W64200  10.336  39.848  10.564
95783W        W64201  26.041  39.825  14.409
95784W        W64202  25.180  31.005   0.842
95785W        W64203  31.566  35.915   2.836
95786W        W64204  40.425  35.508   4.688
95787W        W64205  22.677  35.921   3.788
95788W        W64206  15.240  32.096  14.902
95789W        W64207  25.518  43.326  10.964
95790W        W64208  12.147  24.045  10.425
95791W        W64209  13.297  22.540   1.727
95792W        W64210   7.175  17.292   3.275
95793W        W64211  30.028  15.123   4.719
95794W        W64212   9.798  39.002   0.318
95795W        W64213  11.216   6.326   1.816
95796W        W64214  41.028  24.065  11.565
95797W        W64215  24.995  27.060   2.260
95798W        W64216  44.929   9.862   4.238
95799W        W64217  32.043   7.220  13.515
95800W        W64218  11.321  38.449  11.887
95801W        W64219  22.059  26.014   0.463
95802W        W64220  43.817   6.755  11.380
95803W        W64221  14.638  30.016   2.265
95804W        W64222  16.712  36.529   2.287
95805W        W64223  10.650  30.596   0.316
95806W        W64224  23.147  31.536  12.007
95807W        W64225  30.479   0.946  12.557
95808W        W64226  21.156  23.227  13.345
95809W        W64227  29.938  44.980  12.505
95810W        W64228  32.126  10.232  10.430
95811W        W64229  18.200  36.850   4.701
95812W        W64230  12.343   1.439   2.343
95813W        W64231  12.283  15.284   3.765
95814W        W64232  34.915   0.448  14.480
95815W        W64233  22.228  16.623   0.777
95816W        W64234  31.532   3.712   3.232
95817W        W64235  23.234  38.435   1.419
95818W        W64236  22.125  13.601  11.049
95819W        W64237  38.392  41.966   1.713
95820W        W64238  30.431  15.637  12.091
95821W        W64239  34.581  39.846  10.600
95822W        W64240  18.702  17.086  14.953
95823W        W64241  27.092  38.021   3.196
95824W        W64242   7.831  19.542   1.820
95825W        W64243   7.333  41.937  12.058
95826W        W64244   9.692  31.067   2.852
95827W        W64245  14.769  16.090   0.746
95828W        W64246  20.552  11.837   0.246
95829W        W64247  17.687  30.064  13.355
95830W        W64248  40.548   6.407   4.751
95831W        W64249  44.343   0.453   1.258
95832W        W64250  39.428  14.249  11.089
95833W        W64251   2.420  40.411   4.741
95834W        W64252  11.844  24.695  12.872
95835W        W64253  11.721  11.741  10.959
95836W        W64254  24.110   5.709   0.345
95837W        W64255   5.344  31.133  12.487
95838W        W64256  16.080  19.660  13.341
95839W        W64257  41.876   8.377  11.397
95840W        W64258   6.416  34.513  12.883
95841W        W64259  34.918  18.593  11.056
95842W        W64260  41.320  33.937   0.909
95843W        W64261  41.012  42.783   4.266
95844W        W64262  40.026  23.035  14.807
95845W        W64263  17.744  30.951   0.789
95846W        W64264  33.929  42.008  10.978
95847W        W64265   5.723   5.709  13.032
95848W        W64266  26.021  35.441   1.311
95849W        W64267  11.167  10.809   2.810
95850W        W64268  35.940   8.186  10.426
95851W        W64269  32.112  20.578  10.460
95852W        W64270  44.930   7.353   1.755
95853W        W64271  34.499  21.064  11.474
95854W        W64272  41.880  29.153   1.848
95855W        W64273   5.297   6.227   0.845
95856W        W64274   8.834  24.677  10.993
95857W        W64275  34.568   4.785   4.673
95858W        W64276  30.915  11.786   1.230
95859W        W64277  37.416  44.794  13.901
95860W        W64278  42.484   2.440   3.375
95861W        W64279  33.118  14.194  12.915
95862W        W64280   3.709  33.505   3.263
95863W        W64281  11.165  20.248   0.478
95864W        W64282  21.261   8.827  11.516
95865W        W64283  21.086  20.146   0.481
95866W        W64284  29.991   8.879  14.911
95867W        W64285  14.224  10.668   4.168
95868W        W64286   8.234  28.563   0.834
95869W        W64287   7.407  37.533   0.894
95870W        W64288  26.632  14.255   3.770
95871W        W64289  29.952  41.457   2.181
95872W        W64290  28.991  12.839  13.856
95873W        W64291  35.604  18.734  12.080
95874W        W64292  21.613  31.503  11.889
95875W        W64293  31.104   6.744  10.909
95876W        W64294   0.976  31.027  13.823
95877W        W64295  32.600  36.885   3.176
95878W        W64296  43.305  23.211  12.374
95879W        W64297  34.371   0.788   1.229
95880W        W64298  29.440  16.171   3.306
95881W        W64299  15.174  10.169   4.240
95882W        W64300   6.282   7.285  14.429
95883W        W64301  43.794  11.238   5.788
95884W        W64302   9.832  13.255  12.022
95885W        W64303   8.220   7.177  12.871
95886W        W64304  22.210  14.660  14.774
95887W        W64305  43.504  29.454  10.466
95888W        W64306  25.689  40.001  13.052
95889W        W64307   1.922  23.516   0.449
95890W        W64308  43.819  18.590   0.963
95891W        W64309  15.663   2.906   0.941
95892W        W64310  34.949  19.280   3.332
95893W        W64311   3.372  31.485  11.971
95894W        W64312  14.303  35.441  11.105
95895W        W64313  24.038   7.322  10.973
95896W        W64314  26.690  25.145   3.305
95897W        W64315  24.487   2.284  11.540
95898W        W64316   3.431  26.046  11.549
95899W        W64317  15.167   3.313   2.232
95900W        W64318  31.921  15.759  13.869
95901W        W64319  25.144  39.062   2.739
95902W        W64320  37.989  43.385   4.792
95903W        W64321   7.911  13.702   0.388
95904W        W64322  23.170  34.946   3.756
95905W        W64323  43.403  26.632   3.743
95906W        W64324  23.045  25.600  10.441
95907W        W64325  30.413  24.215  11.523
95908W        W64326   3.340  22.229  14.779
95909W        W64327  34.050  22.688   1.809
95910W        W64328  33.429  15.672  10.119
95911W        W64329   7.681  28.472  12.935
95912W        W64330  23.170  26.141   3.750
95913W        W64331  31.143  34.596   4.255
95914W        W64332   3.720   1.752   0.255
95915W        W64333  11.362  13.236   1.912
95916W        W64334  15.301  24.109  10.936
95917W        W64335  30.141  14.713  13.426
95918W        W64336  30.046   9.765  14.437
95919W        W64337  33.494  27.447   1.847
95920W        W64338  44.963  18.249  10.925
95921W        W64339  19.740  40.804  11.429
95922W        W64340  35.514  23.025  14.888
95923W        W64341  15.308  14.655   0.943
95924W        W64342  20.166  34.099   1.252
95925W        W64343  44.952  41.329   0.895
95926W        W64344  29.003  27.666  12.343
95927W        W64345   1.901  42.464   2.824
95928W        W64346  28.973  42.460  10.985
95929W        W64347  12.683  29.100  14.374
95930W        W64348  17.676  19.627  11.898
95931W        W64349  25.589   5.420  13.452
95932W        W64350  42.849  34.412   2.721
95933W        W64351  35.481  19.061   1.743
95934W        W64352  35.358  34.968   2.883
95935W        W64353  19.152  34.876   1.697
95936W        W64354  13.664  33.095   3.347
95937W        W64355   8.181  11.233  13.916
95938W        W64356  43.794  14.766   0.288
95939W        W64357  32.122  34.402  14.299
95940W        W64358   4.290   9.667  13.804
95941W        W64359  42.930  33.039   1.402
95942W        W64360  25.520  15.681   3.792
95943W        W64361  41.347  10.141  13.410
95944W        W64362  28.022   9.677  12.833
95945W        W64363  35.878  44.499  14.028
95946W        W64364  25.120  16.675  10.521
95947W        W64365   1.244  36.073   1.262
95948W        W64366   2.385  28.068   1.828
95949W        W64367   0.472  11.646  12.415
95950W        W64368  10.300   6.847  13.461
95951W        W64369   6.203  30.025  10.919
95952W        W64370  16.609   0.885   1.901
95953W        W64371  23.534   3.412   2.726
95954W        W64372   7.337  13.723   0.741
95955W        W64373  37.055  28.974   2.680
95956W        W64374  43.278  19.610   0.742
95957W        W64375   4.779  27.091   3.241
95958W        W64376   3.319  35.032  14.440
95959W        W64377  39.352  25.088   0.257
95960W        W64378  24.600  30.646  13.907
95961W        W64379  38.349   5.408   2.214
95962W        W64380  29.488   5.860   3.789
95963W        W64381  39.492  31.623  12.861
95964W        W64382   4.247  26.683   1.854
95965W        W64383  34.035  23.713   2.692
95966W        W64384   8.656  44.984  12.023
95967W        W64385  26.561   2.822   0.439
95968W        W64386  42.439  28.526  13.515
95969W        W64387   6.402  23.692  10.489
95970W        W64388  34.402  41.359  13.381
95971W        W64389  40.031  14.226   2.276
95972W        W64390   9.275  35.885  12.064
95973W        W64391  37.526  29.025   3.811
95974W        W64392  22.559  22.530   1.922
95975W        W64393   5.709  15.623  11.118
95976W        W64394  20.584  43.385   2.825
95977W        W64395  24.981  10.841  14.445
95978W        W64396  34.447   0.749   0.946
95979W        W64397   7.327  32.032  11.382
95980W        W64398   3.329  25.684  10.433
95981W        W64399   0.470   7.219  12.878
95982W        W64400  25.049  26.142  10.442
95983W        W64401  41.436  43.292  14.494
95984W        W64402  33.915  30.642   4.190
95985W        W64403   5.336  41.536   3.368
95986W        W64404  25.514  29.140   5.255
95987W        W64405  19.668  13.620  12.403
95988W        W64406  30.540  16.572  11.517
95989W        W64407   2.763  41.413  12.476
95990W        W64408   3.338   4.895  12.037
95991W        W64409  13.333  35.486   4.321
95992W        W64410   6.420  22.655   2.752
95993W        W64411  41.532  38.926  14.357
95994W        W64412  22.598  41.416  11.543
95995W        W64413   1.238  31.004   3.706
95996W        W64414  27.045  36.563  10.596
95997W        W64415  10.332  35.478  12.402
95998W        W64416  33.512   8.895  12.512
95999W        W64417   9.828  10.204   1.310
96000W        W64418  13.309   8.401   2.270
96001W        W64419   5.268  40.044   2.678
96002W        W64420  16.631  42.960  11.582
96003W        W64421  34.496   0.835  10.494
96004W        W64422  30.517  16.603   2.395
96005W        W64423  33.549  21.556   3.250
96006W        W64424  44.762  35.387   4.140
96007W        W64425  16.238  11.725   0.483
96008W        W64426   3.247  35.933   1.699
96009W        W64427  38.071  27.966   2.865
96010W        W64428  25.559  34.376  10.445
96011W        W64429   6.245  24.487  11.410
96012W        W64430  33.912  29.014   1.285
96013W        W64431   6.818   3.726   1.706
96014W        W64432  43.319  18.100   2.228
96015W        W64433  22.627  35.044  14.453
96016W        W64434  29.024  28.973   4.720
96017W        W64435  21.220  35.388  13.976
96018W        W64436  35.896   2.931  12.384
96019W        W64437   0.373  35.869   3.231
96020W        W64438   5.349   1.305   4.251
96021W        W64439  36.875   1.835   3.671
96022W        W64440  20.204  23.685   9.550
96023W        W64441  27.102  35.097   1.344
96024W        W64442  22.081  34.901  13.957
96025W        W64443  20.029  31.599   0.908
96026W        W64444  24.230  39.478   3.176
96027W        W64445   6.381  28.591   1.792
96028W        W64446   7.712  12.332   3.341
96029W        W64447  41.435  26.148  14.813
96030W        W64448  29.653  17.758   1.694
96031W        W64449   4.895  10.756   2.830
96032W        W64450  13.753  40.884   0.279
96033W        W64451  36.062   8.393   4.320
96034W        W64452  28.051  33.598  12.344
96035W        W64453  43.000  16.178  12.473
96036W        W64454  37.948  29.974  13.938
96037W        W64455  30.586  12.269   3.197
96038W        W64456  10.234  11.645  13.865
96039W        W64457  35.546  34.953  11.916
96040W        W64458   0.934   7.344   1.836
96041W        W64459  15.204  33.978  14.842
96042W        W64460  29.970   7.699   1.441
96043W        W64461  41.383  25.128   4.243
96044W        W64462  36.437  28.588  14.803
96045W        W64463  38.419   1.793   2.348
96046W        W64464  15.317  33.513  10.412
96047W        W64465  20.617  41.024  14.883
96048W        W64466  16.163   2.290   4.224
96049W        W64467   4.828  21.111  11.522
96050W        W64468  13.292  27.023  12.412
96051W        W64469   3.402  37.849   2.268
96052W        W64470  43.443  13.635   2.210
96053W        W64471   5.922  28.171   3.728
96054W        W64472  33.999  24.035  13.060
96055W        W64473  37.505  30.466   4.799
96056W        W64474  29.428  10.656   2.703
96057W        W64475  23.651  37.941   3.180
96058W        W64476  10.831  19.604   1.792
96059W        W64477  10.820  36.473   1.286
96060W        W64478  30.507   5.843  12.557
96061W        W64479   0.777  13.137  10.070
96062W        W64480   1.915  22.229   1.231
96063W        W64481   9.326  15.755  10.888
96064W        W64482   6.221   2.844   4.721
96065W        W64483   6.377  44.885   4.144
96066W        W64484  28.585  23.125   2.411
96067W        W64485  28.126  42.991   3.785
96068W        W64486   3.445   2.362   2.417
96069W        W64487  19.103   3.269   0.823
96070W        W64488  22.566   2.415  11.057
96071W        W64489  21.160  43.487   4.691
96072W        W64490   4.807   6.881  14.983
96073W        W64491  44.453  15.268   3.693
96074W        W64492  12.353  26.693  14.898
96075W        W64493  35.949  20.190  10.482
96076W        W64494   2.248  13.156  13.529
96077W        W64495  18.151  28.526   4.134
96078W        W64496  33.571   8.360   4.622
96079W        W64497  22.719  28.587  12.554
96080W        W64498   6.794  38.943  14.001
96081W        W64499  42.887   2.910  14.351
96082W        W64500   3.791  14.750  11.906
96083W        W64501  37.403   9.776   3.803
96084W        W64502  25.158  24.001  14.891
96085W        W64503  19.223  13.777   4.242
96086W        W64504  33.401  16.766  13.842
96087W        W64505  21.570  39.934   3.304
96088W        W64506  32.914  15.676   0.729
96089W        W64507  27.069  16.189   3.181
96090W        W64508  11.647  42.897   4.804
96091W        W64509  13.663  12.350   3.634
96092W        W64510  11.154  18.293   4.160
96093W        W64511  16.794   3.375   0.357
96094W        W64512  32.576   4.926  14.995
96095W        W64513  10.756  43.944   0.266
96096W        W64514  38.361   9.796  12.541
96097W        W64515  18.772  30.068   3.688
96098W        W64516  26.500  24.658   0.887
96099W        W64517   1.834  15.242  14.850
96100W        W64518  21.724  34.486   2.405
96101W        W64519  11.285   8.879   0.900
96102W        W64520   6.419  15.667   0.390
96103W        W64521  41.033  21.052   1.902
96104W        W64522  36.439  28.681  12.870
96105W        W64523  19.540  31.602  12.826
96106W        W64524   2.886  44.472  13.986
96107W        W64525  32.105   5.800   4.324
96108W        W64526  12.853  15.204   1.725
96109W        W64527  33.583  16.651  10.911
96110W        W64528   7.405  44.808   3.200
96111W        W64529  40.412  35.927   0.746
96112W        W64530  21.575   9.302  11.589
96113W        W64531  12.150  14.769  11.570
96114W        W64532  44.437  20.119   3.804
96115W        W64533  42.381  31.987  14.402
96116W        W64534   1.897  39.559  13.824
96117W        W64535  36.951  32.623  12.077
96118W        W64536   8.658  12.142   1.879
96119W        W64537  39.529  19.537   2.292
96120W        W64538  11.145   2.357   1.375
96121W        W64539  20.564  16.279   0.380
96122W        W64540   4.213  19.677  11.599
96123W        W64541  23.004  19.728  13.332
96124W        W64542  42.973  21.598   5.244
96125W        W64543  18.264  11.747   3.681
96126W        W64544  13.291  21.556   1.935
96127W        W64545  18.700  29.122  10.481
96128W        W64546  41.343   7.776   1.254
96129W        W64547   5.851  38.026  12.036
96130W        W64548  16.175   8.754   2.800
96131W        W64549  25.998   8.197   5.664
96132W        W64550  15.657  14.656  12.851
96133W        W64551  19.738   5.305   0.301
96134W        W64552  43.366  38.897  13.346
96135W        W64553  19.756  16.789  10.909
96136W        W64554  17.259  12.359  10.928
96137W        W64555  28.500  16.781   2.371
96138W        W64556  19.760  39.987   0.853
96139W        W64557  12.702   1.860  12.478
96140W        W64558  13.601  36.409  12.480
96141W        W64559  32.464   7.889  12.428
96142W        W64560  14.323  35.549   1.274
96143W        W64561  14.624  11.866   1.883
96144W        W64562  42.303  38.442   9.530
96145W        W64563  43.916   8.755   1.451
96146W        W64564  19.561  25.112   4.758
96147W        W64565  12.156  24.715   2.738
96148W        W64566  32.446   6.417   2.307
96149W        W64567  38.982   8.237  14.316
96150W        W64568  18.282  34.428  12.418
96151W        W64569   0.766   1.334  14.467
96152W        W64570  29.599  31.015  14.794
96153W        W64571  10.270  27.139  14.371
96154W        W64572   8.878  17.093  14.835
96155W        W64573   2.788  11.299  10.979
96156W        W64574  30.534  34.029  14.507
96157W        W64575  16.102  25.713  13.886
96158W        W64576  27.617  13.123  11.383
96159W        W64577  28.587   8.358   3.254
96160W        W64578  19.721  38.556  13.351
96161W        W64579  37.838  42.939   4.152
96162W        W64580  22.509  39.892  12.937
96163W        W64581  27.175  20.693  11.482
96164W        W64582  14.649  41.468   2.839
96165W        W64583  35.853  37.513   5.693
96166W        W64584  25.597   7.682  11.606
96167W        W64585   2.308  32.429   0.358
96168W        W64586  15.226  10.743   2.305
96169W        W64587  41.345  11.731  10.533
96170W        W64588   3.346  39.024  12.524
96171W        W64589  36.877  26.203   4.131
96172W        W64590   5.880  16.703   3.219
96173W        W64591  25.089  25.038  10.617
96174W        W64592  31.414  28.019   3.749
96175W        W64593  28.475   7.799  11.432
96176W        W64594   3.252  10.330  14.507
96177W        W64595  26.148   6.332  14.837
96178W        W64596  37.037  38.916   5.166
96179W        W64597  26.041  42.908  11.897
96180W        W64598  20.169  28.680  13.025
96181W        W64599  27.015   0.826  13.064
96182W        W64600   4.766  24.040  13.031
96183W        W64601   9.665   9.327  10.480
96184W        W64602  20.541  33.072   3.861
96185W        W64603   8.727  27.660   2.401
96186W        W64604  18.056  24.117   0.287
96187W        W64605  15.627   8.849  13.372
96188W        W64606  23.494   7.268   0.364
96189W        W64607  41.498  14.216  11.395
96190W        W64608   2.914  12.234  13.945
96191W        W64609  41.401   0.923   0.421
96192W        W64610   0.282   3.395  14.807
96193W        W64611  33.527  39.374  13.514
96194W        W64612  12.829  39.054  12.351
96195W        W64613  44.775  17.200   1.885
96196W        W64614   5.300  20.604   3.335
96197W        W64615  18.770  31.544   1.726
96198W        W64616  10.333   0.346   4.293
96199W        W64617  24.583   8.239   1.821
96200W        W64618   5.812  15.249  12.875
96201W        W64619  20.063  40.053   0.952
96202W        W64620  21.746  32.580   0.751
96203W        W64621  12.162  38.436   3.292
96204W        W64622  33.575  34.605  10.921
96205W        W64623  42.964  31.640   4.243
96206W        W64624  43.998   2.419   3.861
96207W        W64625  42.400  26.113   4.311
96208W        W64626  12.630  40.028  14.822
96209W        W64627  42.801  42.819  11.909
96210W        W64628  24.090  36.088  11.088
96211W        W64629  13.814  36.890  11.537
96212W        W64630  35.984  18.661  14.815
96213W        W64631  17.274  21.060  12.836
96214W        W64632  19.236  26.512   4.663
96215W        W64633  23.209  36.494   0.445
96216W        W64634  36.514  19.063  11.112
96217W        W64635  44.960   3.402  11.055
96218W        W64636  31.119  33.602   1.873
96219W        W64637   3.802  18.218   1.878
96220W        W64638   1.881  14.115  13.798
96221W        W64639  26.151  32.538  13.919
96222W        W64640  37.886  35.954   3.868
96223W        W64641  27.963  14.272   2.783
96224W        W64642  28.025  37.550  13.793
96225W        W64643  18.748  21.525  11.099
96226W        W64644  31.505  44.443   0.805
96227W        W64645  41.388   1.759   4.167
96228W        W64646  30.924  29.666   2.732
96229W        W64647  12.857  38.003  12.392
96230W        W64648  14.709   5.849   3.197
96231W        W64649  19.209   3.427   4.769
96232W        W64650  44.282  17.204  12.914
96233W        W64651   4.335   6.347   4.275
96234W        W64652  19.651   0.418   4.354
96235W        W64653  33.039  18.706  13.399
96236W        W64654   4.251  42.396  14.815
96237W        W64655  28.965   8.699   4.828
96238W        W64656  22.082  38.972   3.314
96239W        W64657  19.106  10.819  10.520
96240W        W64658  23.185   6.898  11.033
96241W        W64659  43.273  32.083   1.696
96242W        W64660  11.164  23.005  12.402
96243W        W64661  13.238   9.367  10.992
96244W        W64662  15.639  25.187  12.063
96245W        W64663  32.945   5.902  13.871
96246W        W64664  34.504   6.402  14.347
96247W        W64665  26.602  38.898   3.702
96248W        W64666  14.710  30.130  14.026
96249W        W64667  18.086  37.488   2.323
96250W        W64668   0.410  26.179   0.832
96251W        W64669   8.735  32.906   1.235
96252W        W64670  40.424   5.251   3.279
96253W        W64671  24.199  10.300   2.669
96254W        W64672  19.721  37.858   1.894
96255W        W64673  35.370  22.686   1.237
96256W        W64674   2.414  38.936   9.953
96257W        W64675  39.548  35.109  10.991
96258W        W64676  42.915  15.097   0.304
96259W        W64677  43.511   0.299   0.771
96260W        W64678  11.817  19.269  11.859
96261W        W64679  13.658  18.707  10.426
96262W        W64680  28.558  36.540   2.402
96263W        W64681  36.921  19.715   0.388
96264W        W64682  13.323   4.705  14.018
96265W        W64683   4.920  31.442  13.963
96266W        W64684   9.887  19.577  12.395
96267W        W64685  39.866  22.050  14.860
96268W        W64686  19.273   6.689  12.577
96269W        W64687  15.703  11.812  14.777
96270W        W64688  15.283  39.060  12.060
96271W        W64689  25.500   9.156  14.958
96272W        W64690   1.379  28.051  12.475
96273W        W64691  39.511  23.081  12.528
96274W        W64692   2.299   0.461  12.457
96275W        W64693  30.937  10.355   2.841
96276W        W64694  16.091   9.150  12.012
96277W        W64695  31.523  10.654  13.026
96278W        W64696  31.021  41.293   4.701
96279W        W64697  20.189  15.204   1.271
96280W        W64698  20.763   2.963  11.377
96281W        W64699  22.232  34.375   2.223
96282W        W64700  34.531   0.278   3.820
96283W        W64701   2.437  44.473   0.946
96284W        W64702  22.048  15.775  12.488
96285W        W64703  36.515   5.917  14.298
96286W        W64704  10.728  30.450  13.497
96287W        W64705  17.673  20.759   0.266
96288W        W64706  20.180  36.077   3.842
96289W        W64707  15.282   9.159   0.295
96290W        W64708   9.852  34.108  14.776
96291W        W64709  15.653  37.832   4.262
96292W        W64710  15.795   1.449  11.612
96293W        W64711  30.002  35.588  14.929
96294W        W64712  13.632  10.146  11.569
96295W        W64713  29.090  34.053   1.924
96296W        W64714  36.011  40.451  11.502
96297W        W64715   8.894  39.447  11.917
96298W        W64716  26.007  32.979  10.530
96299W        W64717  17.125  14.813   4.185
96300W        W64718  30.150  19.239   3.858
96301W        W64719  24.980  13.786  12.068
96302W        W64720  25.688   4.857  11.990
96303W        W64721  41.364   3.407  13.437
96304W        W64722   9.176  13.719   2.809
96305W        W64723   3.894   2.879   0.243
96306W        W64724  31.515  33.423   2.794
96307W        W64725  27.008  32.006  10.903
96308W        W64726   6.794  11.635   2.394
96309W        W64727   5.812  22.164   3.769
96310W        W64728  37.931  32.582  12.426
96311W        W64729  16.646  29.519  10.470
96312W        W64730  21.656  32.082  14.791
96313W        W64731  17.284  33.395  14.997
96314W        W64732  40.961  28.483  14.021
96315W        W64733  14.177  31.988  14.815
96316W        W64734  33.118  31.912   3.311
96317W        W64735  27.453  26.065   1.227
96318W        W64736  20.657   0.365   3.307
96319W        W64737  24.162  16.217   2.320
96320W        W64738  38.468   1.768  10.987
96321W        W64739  35.099  13.721   4.812
96322W        W64740  18.251  12.217  11.523
96323W        W64741  30.969  43.324   3.808
96324W        W64742   4.219  13.221  11.552
96325W        W64743  28.657   2.269   0.255
96326W        W64744  22.550   2.405   3.735
96327W        W64745   7.825  10.320   5.224
96328W        W64746  30.017   7.379  10.590
96329W        W64747   2.959  11.806  11.415
96330W        W64748   8.728  33.061   4.277
96331W        W64749   1.312   0.801  13.459
96332W        W64750  20.121  43.975   3.648
96333W        W64751   2.891  34.466  13.514
96334W        W64752  21.094   0.361   4.669
96335W        W64753  44.947   9.318   3.772
96336W        W64754  10.737  20.249  11.971
96337W        W64755  40.439   5.319   4.669
96338W        W64756  33.422  30.073   2.303
96339W        W64757  26.474   5.915  10.986
96340W        W64758   0.947   7.814  14.503
96341W        W64759  34.606   6.825  13.383
96342W        W64760  14.741  18.075   3.794
96343W        W64761  22.598   1.824   1.732
96344W        W64762  20.073  36.543   1.444
96345W        W64763  30.459  28.015  14.990
96346W        W64764   0.381  44.297   4.129
96347W        W64765  43.393  16.763   2.285
96348W        W64766  42.828  40.418   1.872
96349W        W64767  30.940  21.754   4.836
96350W        W64768  14.810  34.023   2.771
96351W        W64769   4.828  39.999   2.701
96352W        W64770  27.993  16.166   1.412
96353W        W64771   4.296  33.606   1.380
96354W        W64772  26.557  20.274  10.413
96355W        W64773  41.317  20.717   2.883
96356W        W64774  24.682  35.998   2.178
96357W        W64775  36.584  34.419   0.775
96358W        W64776  40.472   0.787  12.554
96359W        W64777  38.941  43.340   4.657
96360W        W64778   9.669  21.258  13.835
96361W        W64779  25.076  12.164  12.003
96362W        W64780  35.420   0.410   3.734
96363W        W64781  43.363  19.122   3.686
96364W        W64782  35.380  15.218   0.935
96365W        W64783  21.535  40.913   5.084
96366W        W64784   2.803  22.197  11.885
96367W        W64785   2.317  13.721  12.562
96368W        W64786  27.473  18.115  14.975
96369W        W64787   1.896   6.299   4.831
96370W        W64788   8.875  20.250  12.889
96371W        W64789  32.587   3.417   4.152
96372W        W64790  15.258  16.633   2.196
96373W        W64791  28.638  43.979  11.555
96374W        W64792  27.162  34.427  10.555
96375W        W64793  30.135  28.080   0.375
96376W        W64794   2.906  14.621   2.408
96377W        W64795  24.128  25.496   2.732
96378W        W64796   6.863  34.420   4.786
96379W        W64797  30.413  19.139   0.800
96380W        W64798  39.353  31.993  11.498
96381W        W64799   9.220  19.547  10.927
96382W        W64800  29.510  33.595  13.024
96383W        W64801   2.965  12.720   2.255
96384W        W64802  22.715  35.882  12.901
96385W        W64803  22.115   3.789   2.236
96386W        W64804  43.855   7.863   0.340
96387W        W64805  37.476  16.220  11.024
96388W        W64806  21.540  10.312  12.897
96389W        W64807  15.190  12.821  14.395
96390W        W64808  44.369  24.127  11.055
96391W        W64809   2.782  20.622   2.202
96392W        W64810  39.006  38.417   3.223
96393W        W64811  25.186  36.962  11.452
96394W        W64812   0.981  28.453   3.749
96395W        W64813  41.469  14.337   1.838
96396W        W64814   9.276  13.299   1.829
96397W        W64815   3.300  42.459   4.649
96398W        W64816  10.319   9.286   3.756
96399W        W64817  40.357  44.841  14.497
96400W        W64818  11.193  14.716  14.409
96401W        W64819  38.378   7.769  12.544
96402W        W64820  36.403  28.095  12.080
96403W        W64821  42.858  24.632  13.997
96404W        W64822   2.743  22.161  10.004
96405W        W64823   0.485  23.605   2.817
96406W        W64824  40.442  28.521   2.364
96407W        W64825  14.132  25.039   0.368
96408W        W64826  40.432  28.513   3.736
96409W        W64827  12.735  39.362   1.355
96410W        W64828  43.017  18.168  14.327
96411W        W64829   6.729  36.398  13.431
96412W        W64830  36.590  19.551  14.766
96413W        W64831   7.792  13.642  14.899
96414W        W64832  35.873  24.485   1.803
96415W        W64833   9.346  35.104   2.384
96416W        W64834   2.260  19.122   4.192
96417W        W64835   8.706  39.457  11.552
96418W        W64836  24.194  13.844   1.219
96419W        W64837  15.204  36.082   1.295
96420W        W64838  39.983  38.828   3.360
96421W        W64839  24.021  27.970  10.618
96422W        W64840   8.670  15.111  13.439
96423W        W64841  22.634  43.483  13.457
96424W        W64842  41.294  38.333   9.954
96425W        W64843  30.418  26.116   2.789
96426W        W64844  29.025  42.967   3.380
96427W        W64845  21.150   8.790  12.911
96428W        W64846   1.958  26.616   1.304
96429W        W64847  34.586  31.102  10.917
96430W        W64848  18.753  24.719  11.038
96431W        W64849  38.548  44.896   0.411
96432W        W64850  27.048  42.332  14.767
96433W        W64851  27.009   2.428  11.944
96434W        W64852  30.964  26.042  10.582
96435W        W64853  35.001  23.195  11.492
96436W        W64854  26.524  37.999   1.376
96437W        W64855  19.689  16.671  14.888
96438W        W64856   4.779  32.424   4.144
96439W        W64857  43.926  18.637   3.146
96440W        W64858  30.551  11.136   3.710
96441W        W64859  24.073  26.141  14.768
96442W        W64860  20.239  23.722  13.805
96443W        W64861  30.977  18.267   1.328
96444W        W64862  21.665  14.829  14.283
96445W        W64863  20.139  30.585   4.258
96446W        W64864  44.958  12.689  11.034
96447W        W64865  13.630  31.421   3.788
96448W        W64866  17.262  16.080   3.820
96449W        W64867  44.320  39.025   4.660
96450W        W64868  43.950  30.939   0.422
96451W        W64869  18.110  32.610  12.570
96452W        W64870   3.815  10.692   0.413
96453W        W64871  26.487   5.381  11.113
96454W        W64872  21.089   8.717   4.599
96455W        W64873  21.142  37.358  10.558
96456W        W64874   0.468   1.298  10.535
96457W        W64875   6.419   6.824   3.267
96458W        W64876  41.377  26.190   4.299
96459W        W64877   4.935  30.425   0.344
96460W        W64878  13.785  27.079   4.750
96461W        W64879  19.050  14.702  14.022
96462W        W64880   2.920  38.349   1.373
96463W        W64881  20.246  34.105  11.507
96464W        W64882  13.294  34.991  10.069
96465W        W64883  15.220  44.849  10.477
96466W        W64884  10.798  13.664  12.545
96467W        W64885  21.204  44.374   4.645
96468W        W64886  26.633  14.754   4.235
96469W        W64887  32.897  39.929  10.517
96470W        W64888  21.202  36.536   2.331
96471W        W64889  30.977  22.024   3.763
96472W        W64890  43.984  20.043  14.832
96473W        W64891   5.721  10.368   2.413
96474W        W64892  24.485  43.978   4.252
96475W        W64893   9.251   2.369   4.776
96476W        W64894  12.275  11.156   4.293
96477W        W64895  30.533   9.647  12.469
96478W        W64896   3.759  29.122   5.164
96479W        W64897  37.488   7.852  11.426
96480W        W64898  29.480   7.274  13.976
96481W        W64899   9.166   4.227  13.347
96482W        W64900   0.285   9.194  13.830
96483W        W64901  37.904  22.505  14.940
96484W        W64902  21.091  14.703  10.498
96485W        W64903  36.891  15.696   3.805
96486W        W64904  24.215  17.659   0.780
96487W        W64905  17.710   1.328   4.646
96488W        W64906   1.373  28.554  14.402
96489W        W64907  42.379  27.664   1.747
96490W        W64908   2.875  20.751  10.457
96491W        W64909   0.967   1.465   0.290
96492W        W64910  12.223  19.672  13.392
96493W        W64911  27.597  12.218   3.686
96494W        W64912  42.482  27.089   4.628
96495W        W64913  34.431  26.476   5.174
96496W        W64914  33.937  20.101  11.955
96497W        W64915  33.402  16.800   3.727
96498W        W64916  44.425  29.441   0.952
96499W        W64917  25.989  18.181   4.308
96500W        W64918   3.828  35.899  11.041
96501W        W64919   2.284   3.856  11.114
96502W        W64920   4.757  41.867  13.389
96503W        W64921  33.461  22.667  14.338
96504W        W64922  30.160  22.553  12.823
96505W        W64923   3.723   5.895   0.932
96506W        W64924  36.081  32.490   1.404
96507W        W64925  27.664   0.752  12.418
96508W        W64926  17.671   4.438   1.416
96509W        W64927   2.338  33.966   1.378
96510W        W64928  26.978  30.429  13.402
96511W        W64929   5.214  43.299  14.312
96512W        W64930  25.072  26.179   0.894
96513W        W64931  43.322  34.974  14.016
96514W        W64932  20.179  38.908   2.870
96515W        W64933  40.812  11.719  14.503
96516W        W64934  29.042  21.680  13.829
96517W        W64935  25.966  21.544   0.802
96518W        W64936  21.084   7.293   4.338
96519W        W64937   3.826  23.662   1.317
96520W        W64938  16.596  43.394  14.454
96521W        W64939   5.853  12.176  11.592
96522W        W64940  11.263   0.426  13.366
96523W        W64941  12.852   1.240  13.486
96524W        W64942  32.390  43.901   4.129
96525W        W64943   1.740  12.260  12.576
96526W        W64944  33.608  20.623   1.390
96527W        W64945  25.005  29.988  13.896
96528W        W64946  37.349  40.960   1.810
96529W        W64947  10.794  21.729  10.919
96530W        W64948   3.774   6.245   3.208
96531W        W64949  25.137   4.341  13.314
96532W        W64950  40.349  30.982   1.712
96533W        W64951  39.335  41.407  11.965
96534W        W64952  15.148  33.526   0.793
96535W        W64953  42.004  25.525   3.277
96536W        W64954  28.032  25.193  12.375
96537W        W64955  25.037  30.136   3.272
96538W        W64956  29.631  29.158   0.951
96539W        W64957  26.174  14.662  13.007
96540W        W64958   9.291   0.978  14.977
96541W        W64959  38.987  14.815  11.083
96542W        W64960  24.119  12.703  14.290
96543W        W64961  12.116  38.354   1.298
96544W        W64962  32.534   1.272   1.364
96545W        W64963  40.503  23.235  12.006
96546W        W64964  32.091  30.465  12.980
96547W        W64965  31.593   6.268   3.660
96548W        W64966  13.351  32.464  11.435
96549W        W64967   8.701  19.099   0.845
96550W        W64968  39.448  34.103  12.998
96551W        W64969  21.076  32.634   0.245
96552W        W64970  12.769  12.760   4.233
96553W        W64971  20.659   9.387  11.502
96554W        W64972  26.541  27.006   0.441
96555W        W64973  24.204  16.263  13.976
96556W        W64974   3.876  40.908  11.903
96557W        W64975   5.827  27.027  10.911
96558W        W64976  44.983  44.296   2.894
96559W        W64977  28.482   4.301   4.823
96560W        W64978  14.200   0.400  12.868
96561W        W64979  27.487   8.267  13.006
96562W        W64980  22.527  11.211   0.945
96563W        W64981  34.527   3.430  12.559
96564W        W64982   5.921  34.039   1.393
96565W        W64983   7.292   7.180   0.757
96566W        W64984   5.320  36.864   4.831
96567W        W64985  25.639  23.727   1.805
96568W        W64986   9.378  17.192   2.305
96569W        W64987  26.008  40.810   4.675
96570W        W64988  24.983  12.823  11.052
96571W        W64989  37.388   9.773   3.243
96572W        W64990  20.263  26.465   9.640
96573W        W64991  27.124   2.254   1.787
96574W        W64992   1.270  28.092   2.297
96575W        W64993  41.965  28.614   0.374
96576W        W64994  10.207  44.898  12.873
96577W        W64995  22.532   1.824  10.643
96578W        W64996  19.211  13.833  10.082
96579W        W64997   1.787   0.876   1.293
96580W        W64998  11.712  27.670  13.944
96581W        W64999  24.605  31.927  14.346
96582W        W65000  24.568  10.796   2.268
96583W        W65001  15.180  16.074   0.829
96584W        W65002  20.133  25.517   0.293
96585W        W65003  13.838  10.740   4.814
96586W        W65004  36.927  43.814   3.329
96587W        W65005   9.653  42.941  14.480
96588W        W65006  38.980  33.411  13.437
96589W        W65007   0.822  32.075   5.153
96590W        W65008  27.006   3.775  14.505
96591W        W65009  33.548  36.047   4.129
96592W        W65010   9.727  39.519   1.783
96593W        W65011   8.814  33.006  13.858
96594W        W65012  44.995   1.276   1.214
96595W        W65013   7.200   7.821   4.116
96596W        W65014  19.144  39.033  11.857
96597W        W65015   7.815  10.807   0.470
96598W        W65016  21.646  30.148  10.537
96599W        W65017  15.674  27.038   3.302
96600W        W65018   9.707  21.256  11.531
96601W        W65019  24.112  19.583   4.755
96602W        W65020  14.640  14.663   4.174
96603W        W65021  32.623  33.554  10.124
96604W        W65022  19.573  22.634  13.466
96605W        W65023  28.588  39.892  13.845
96606W        W65024  19.230  32.548   0.345
96607W        W65025  34.083  31.140   3.361
96608W        W65026   1.383  41.520   2.900
96609W        W65027   3.371  16.579  14.430
96610W        W65028  40.003  35.069  11.573
96611W        W65029  39.485  39.050  13.001
96612W        W65030  15.635   2.746  14.473
96613W        W65031  19.650  30.657  10.548
96614W        W65032   5.333  28.478   4.146
96615W        W65033  39.000   0.786  11.904
96616W        W65034  42.851  12.769  10.501
96617W        W65035  24.046   5.826   4.242
96618W        W65036  18.714   5.865  10.573
96619W        W65037   9.731  24.645  11.081
96620W        W65038   9.282  12.647  12.060
96621W        W65039  29.169   8.822   1.328
96622W        W65040   3.776  28.934   3.235
96623W        W65041  12.361  32.518  12.399
96624W        W65042   9.167  20.615  11.900
96625W        W65043  19.534  20.196   0.939
96626W        W65044   4.844  39.901  10.983
96627W        W65045  13.336   3.775  11.497
96628W        W65046  20.544  21.523  14.349
96629W        W65047  27.122  19.738   3.752
96630W        W65048  13.274  31.010  13.508
96631W        W65049  29.494   6.769   4.736
96632W        W65050  27.628  38.971  14.445
96633W        W65051  12.146  14.744  14.342
96634W        W65052  37.447   6.748   0.956
96635W        W65053  30.979   7.359  10.063
96636W        W65054  22.663  21.718  12.343
96637W        W65055  33.109  33.131  10.988
96638W        W65056  35.854  25.078  14.909
96639W        W65057  12.355  16.654   0.871
96640W        W65058  35.056  12.175   3.661
96641W        W65059   2.328   7.237  14.773
96642W        W65060  26.045  33.990  11.931
96643W        W65061  39.812  30.946  14.465
96644W        W65062  11.713   8.861  14.510
96645W        W65063  26.522  11.195  12.947
96646W        W65064   2.863  16.311  11.082
96647W        W65065  14.654   8.248   4.278
96648W        W65066  12.169   6.265   1.374
96649W        W65067  26.977   0.284   0.411
96650W        W65068  13.764   5.793  13.349
96651W        W65069  30.023  14.589   1.739
96652W        W65070  29.651  17.290   3.345
96653W        W65071   0.263  14.787  12.550
96654W        W65072  21.516  23.085  13.338
96655W        W65073  18.707   5.791   4.331
96656W        W65074  18.601  11.821  10.634
96657W        W65075   8.809  35.534   0.843
96658W        W65076  12.350  25.114   3.202
96659W        W65077  22.541  26.176  10.965
96660W        W65078  10.741  38.331  11.404
96661W        W65079  24.975  22.038  11.892
96662W        W65080  32.057   4.808   3.761
96663W        W65081  12.216  28.118  12.414
96664W        W65082  32.129   5.338   1.428
96665W        W65083  32.563  39.416   0.745
96666W        W65084  29.921   6.757   0.766
96667W        W65085  40.467  25.006  14.011
96668W        W65086   0.831  44.296   0.302
96669W        W65087   1.891   2.284   1.256
96670W        W65088  44.888  18.110  13.812
96671W        W65089  29.471   5.353  11.039
96672W        W65090  23.093  26.188  11.028
96673W        W65091  27.542  26.992  10.464
96674W        W65092   7.324  20.077  11.444
96675W        W65093  33.069   7.401   2.362
96676W        W65094  24.707  35.026   4.229
96677W        W65095  39.050   0.802   4.784
96678W        W65096   6.885  42.902  10.499
96679W        W65097  26.608  24.659  14.299
96680W        W65098  16.758  20.565   2.749
96681W        W65099   3.261  40.910  14.336
96682W        W65100   1.255  16.139   1.890
96683W        W65101  18.637  13.264   2.701
96684W        W65102  23.600   5.926   1.746
96685W        W65103  34.369  37.401  11.425
96686W        W65104  30.612   4.795   0.728
96687W        W65105  20.154  28.065  13.935
96688W        W65106  41.377  20.060  13.502
96689W        W65107  25.643  23.691  13.534
96690W        W65108  28.580  37.971   4.213
96691W        W65109  21.726   7.399  14.956
96692W        W65110  43.807   2.848  11.990
96693W        W65111  27.000  39.975   2.888
96694W        W65112  39.839   4.771  14.317
96695W        W65113  22.183   2.782   1.792
96696W        W65114  37.369  36.074   4.807
96697W        W65115  20.240  26.028   5.714
96698W        W65116  33.013  37.054  10.543
96699W        W65117  19.747  19.717   3.781
96700W        W65118  30.957  34.614  10.005
96701W        W65119  34.438   2.783  14.878
96702W        W65120   0.952  12.613  14.388
96703W        W65121  39.313  34.549  10.533
96704W        W65122  24.559  21.033  10.578
96705W        W65123  41.983  12.796   3.370
96706W        W65124  33.053   4.356   1.694
96707W        W65125   4.204  39.558   2.881
96708W        W65126  12.195  10.312  14.917
96709W        W65127   4.363  29.977   1.383
96710W        W65128  17.730  35.071   3.200
96711W        W65129  20.601  44.387   3.666
96712W        W65130  28.114   2.350  11.550
96713W        W65131   6.301  31.130   3.761
96714W        W65132  11.286  22.674   2.716
96715W        W65133   4.320  17.738   4.135
96716W        W65134  10.636  17.150  11.574
96717W        W65135  22.547  27.686  13.853
96718W        W65136   2.917  19.727   9.936
96719W        W65137  34.405  11.634  13.307
96720W        W65138  33.391  40.384   5.230
96721W        W65139  12.128  13.766   2.705
96722W        W65140  30.969  17.561   0.476
96723W        W65141  29.447  10.340  10.636
96724W        W65142  13.185  40.800   0.466
96725W        W65143  32.952  23.225  13.312
96726W        W65144  11.205  30.436  11.482
96727W        W65145   0.275   8.712   3.202
96728W        W65146  34.553  12.328   3.155
96729W        W65147  43.462   7.299  13.393
96730W        W65148  22.054  26.003  14.940
96731W        W65149  25.489  18.050   3.377
96732W        W65150  23.596  15.220  10.490
96733W        W65151  21.156  26.038   4.606
96734W        W65152  13.658  34.391  14.464
96735W        W65153  38.942   8.807  13.059
96736W        W65154   8.236  37.839  10.514
96737W        W65155  43.453  41.361   5.194
96738W        W65156  18.063  39.839  13.857
96739W        W65157   8.162  15.815  13.064
96740W        W65158  20.700  31.104  14.318
96741W        W65159  35.941  27.684  11.590
96742W        W65160  34.864  36.485  13.357
96743W        W65161  26.529  22.639   1.705
96744W        W65162  18.550  35.413  14.024
96745W        W65163  33.538   1.909   1.310
96746W        W65164  13.187  38.424  11.902
96747W        W65165  30.657  36.939   2.737
96748W        W65166  35.367  25.706   4.803
96749W        W65167  26.687   1.863   4.612
96750W        W65168   8.277  22.053   1.383
96751W        W65169  38.560  17.577   4.210
96752W        W65170  21.554  27.642   2.890
96753W        W65171  40.044  35.475   2.270
96754W        W65172  33.472   9.818  14.492
96755W        W65173  27.645   8.203  14.502
96756W        W65174  43.336  10.287   4.729
96757W        W65175  18.090  43.293  14.879
96758W        W65176  15.813  23.574   2.705
96759W        W65177  10.715  21.637   0.340
96760W        W65178  20.598  41.984   0.462
96761W        W65179  36.086  33.612   3.763
96762W        W65180   3.772  33.611  12.999
96763W        W65181  21.038  44.753  14.314
96764W        W65182   6.320   0.943   4.675
96765W        W65183  42.408  41.362   2.863
96766W        W65184  13.754  13.829  13.454
96767W        W65185  35.449  43.829   1.780
96768W        W65186  17.211  10.791   3.330
96769W        W65187   6.305   6.317   1.743
96770W        W65188  15.215  12.230   3.827
96771W        W65189  33.072  28.629  12.414
96772W        W65190  34.882  13.339   2.684
96773W        W65191  37.006  20.154   3.775
96774W        W65192  14.333   5.312  13.402
96775W        W65193  25.191  22.134  10.079
96776W        W65194  12.737   8.402   3.304
96777W        W65195  18.232   2.335  13.395
96778W        W65196  17.136  41.916  11.054
96779W        W65197   9.199  44.406  13.989
96780W        W65198   6.915  20.063  13.365
96781W        W65199  30.160  23.634  11.907
96782W        W65200   8.802  22.511   5.081
96783W        W65201  30.153  20.197  10.546
96784W        W65202   1.372  15.709   0.267
96785W        W65203   2.459  13.131  10.641
96786W        W65204  28.169  39.502  12.576
96787W        W65205  21.231  11.285   9.976
96788W        W65206  31.977  34.995   3.727
96789W        W65207   6.356  16.157  11.533
96790W        W65208  15.229   9.201   1.434
96791W        W65209  11.671  38.526   2.762
96792W        W65210  38.476   4.787   2.726
96793W        W65211  39.942  35.496   0.477
96794W        W65212  19.590  43.793   1.411
96795W        W65213  12.161  31.538  14.317
96796W        W65214   7.300  26.517   0.774
96797W        W65215  33.889   9.735  13.814
96798W        W65216   0.330  40.354   1.758
96799W        W65217   5.875   6.723  13.857
96800W        W65218   5.787   9.742  11.999
96801W        W65219  25.117  35.551   2.853
96802W        W65220   0.946  18.757  10.001
96803W        W65221  10.178  20.541   3.381
96804W        W65222  24.640  29.116   3.716
96805W        W65223   2.230  34.033   1.737
96806W        W65224  24.134  38.034   2.838
96807W        W65225  25.140  41.999  10.934
96808W        W65226  33.908  23.700  14.980
96809W        W65227  14.164   8.684  12.385
96810W        W65228  34.376  40.973   2.226
96811W        W65229  17.071  36.509   2.381
96812W        W65230  26.690   5.438   1.723
96813W        W65231  20.099  13.203   1.868
96814W        W65232   4.868   9.745   3.781
96815W        W65233   9.350   7.885   0.945
96816W        W65234  39.842  41.412   0.377
96817W        W65235  39.017  21.703  13.059
96818W        W65236  25.105  36.546   2.226
96819W        W65237   6.197  37.370   1.763
96820W        W65238  21.695  19.628  14.391
96821W        W65239  38.397  16.176  14.305
96822W        W65240  31.995  15.210  14.885
96823W        W65241  43.426  43.899  12.544
96824W        W65242   8.769  37.515   4.200
96825W        W65243  28.033  29.162   3.646
96826W        W65244  44.446  33.880  12.029
96827W        W65245  26.167   1.482  14.332
96828W        W65246  12.710   0.839   3.782
96829W        W65247  16.710  28.964  12.024
96830W        W65248  37.484   8.656   3.329
96831W        W65249  20.075  40.495   1.699
96832W        W65250  19.066  13.197   4.700
96833W        W65251  28.972  37.909  12.461
96834W        W65252   1.387  30.589  13.381
96835W        W65253  12.708  23.618  11.375
96836W        W65254  25.480  27.635   3.748
96837W        W65255  12.173  39.548  13.031
96838W        W65256  28.502  43.454  12.555
96839W        W65257  35.869  10.237   3.697
96840W        W65258   8.310  28.169  11.604
96841W        W65259  21.752  20.740  10.911
96842W        W65260  29.528  32.470   0.844
96843W        W65261   7.763   4.780   2.395
96844W        W65262   0.461  15.193  11.045
96845W        W65263   6.380  28.464   0.329
96846W        W65264  11.791  28.979   1.358
96847W        W65265  40.856  17.772  13.826
96848W        W65266  15.698  27.960   1.746
96849W        W65267   4.841   3.420   2.315
96850W        W65268  33.939  20.131  13.979
96851W        W65269  15.222   8.687  11.403
96852W        W65270  41.963  41.445   3.162
96853W        W65271  22.103   5.220  12.969
96854W        W65272  35.509  38.828  10.889
96855W        W65273  17.615  35.049  11.908
96856W        W65274  17.734  17.641  11.504
96857W        W65275  13.282  32.932   3.673
96858W        W65276  36.564   7.312   2.337
96859W        W65277  26.162  13.207   1.334
96860W        W65278  13.143  42.946   3.247
96861W        W65279   8.876  12.699  11.057
96862W        W65280  16.780  31.079   1.883
96863W        W65281  38.519  36.546  13.799
96864W        W65282  11.312  18.197  13.988
96865W        W65283  15.243  42.474  13.436
96866W        W65284  32.062  14.118  14.355
96867W        W65285  32.417  17.558  14.863
96868W        W65286  16.614  40.810  12.493
96869W        W65287   9.676   6.235  10.441
96870W        W65288  29.636  24.177   2.192
96871W        W65289  14.198   6.695  14.503
96872W        W65290   6.233  44.471   1.750
96873W        W65291  23.563  42.989  14.379
96874W        W65292   7.308  19.151   4.724
96875W        W65293  22.620  29.052  14.399
96876W        W65294  15.253  39.984  12.972
96877W        W65295   8.671   8.241  10.443
96878W        W65296  39.548  23.122  13.887
96879W        W65297   3.923   4.782   2.268
96880W        W65298  37.918  19.660  11.591
96881W        W65299  13.324   8.873   2.249
96882W        W65300  37.493   5.324   2.771
96883W        W65301  13.310   2.724   3.164
96884W        W65302  20.739  37.913   0.395
96885W        W65303  43.939   6.851  12.517
96886W        W65304  27.590  41.833   4.217
96887W        W65305  15.309  33.539   3.229
96888W        W65306  15.801   8.669   3.363
96889W        W65307  22.747  34.456   0.886
96890W        W65308  32.030  43.807   4.318
96891W        W65309   0.920  40.534  10.517
96892W        W65310  24.043   3.259  12.436
96893W        W65311  21.143  35.430   1.330
96894W        W65312   9.230  18.684   4.156
96895W        W65313  27.187  32.083   1.705
96896W        W65314   7.242  23.126  11.123
96897W        W65315  27.105   9.195   4.667
96898W        W65316  11.642  18.570   5.157
96899W        W65317  28.592   3.793   2.850
96900W        W65318  26.652   8.367  11.465
96901W        W65319  26.200  32.464   0.303
96902W        W65320  30.952  25.533   4.199
96903W        W65321  11.282  26.074   3.357
96904W        W65322   7.803  11.176   0.337
96905W        W65323   3.796  32.994  13.005
96906W        W65324  13.140  11.833  11.118
96907W        W65325  28.147   1.403  12.440
96908W        W65326  44.882  15.654   0.309
96909W        W65327  12.166  19.268   4.125
96910W        W65328  15.130   8.248   0.323
96911W        W65329  31.636  24.511   1.829
96912W        W65330  37.575  24.564   4.785
96913W        W65331  11.627   3.368  13.522
96914W        W65332   6.277  26.647  13.491
96915W        W65333   8.312  39.959  12.500
96916W        W65334  12.203  15.234  12.879
96917W        W65335  42.963  21.577   4.304
96918W        W65336  11.783  19.701  11.900
96919W        W65337  37.339   6.843  10.981
96920W        W65338  21.667   1.800  14.768
96921W        W65339  12.684  10.197  11.384
96922W        W65340  22.644   7.203   2.269
96923W        W65341  30.513  37.442  13.048
96924W        W65342   8.790   6.679   0.885
96925W        W65343  22.650  30.045  14.429
96926W        W65344  14.645  27.504  11.595
96927W        W65345  37.017  23.112  14.943
96928W        W65346  35.401   4.940  12.841
96929W        W65347  36.865  19.625   1.244
96930W        W65348   5.249  14.134   0.867
96931W        W65349  35.012  11.138   4.280
96932W        W65350  27.185   2.741   2.275
96933W        W65351   0.374  40.943  11.877
96934W        W65352  18.149  40.905  14.399
96935W        W65353  39.926  27.135  12.023
96936W        W65354  17.102  38.857   2.324
96937W        W65355   4.359  28.663  11.502
96938W        W65356  10.148  11.784   4.763
96939W        W65357  32.958  25.585   0.738
96940W        W65358  22.006   6.825   1.400
96941W        W65359  37.377  39.995  10.468
96942W        W65360  16.712  36.041   4.117
96943W        W65361  25.677  23.523  10.533
96944W        W65362  28.522  27.109  14.860
96945W        W65363  32.000   3.918   4.153
96946W        W65364  15.118  44.384  11.491
96947W        W65365  12.668  42.379  10.981
96948W        W65366  42.506  28.491  12.910
96949W        W65367  30.555  29.957  14.986
96950W        W65368  41.929   0.448  13.007
96951W        W65369  27.528  32.590  14.321
96952W        W65370   5.881  24.220   1.279
96953W        W65371  36.443  18.671  11.987
96954W        W65372  23.154  17.193   4.118
96955W        W65373  30.494  18.560   0.414
96956W        W65374  26.980  22.591   2.363
96957W        W65375  44.402   6.369  14.352
96958W        W65376   1.246  26.501   0.289
96959W        W65377  42.422  20.642   2.237
96960W        W65378  41.456  24.031  13.363
96961W        W65379  29.112  22.013   1.277
96962W        W65380  17.065  24.677  10.029
96963W        W65381   1.412  12.651   2.332
96964W        W65382  43.280  41.032   3.770
96965W        W65383   2.238   5.758   4.332
96966W        W65384  26.185  41.957  12.055
96967W        W65385  37.968  25.491  12.021
96968W        W65386   0.881  27.574   2.371
96969W        W65387  23.194  10.190  13.314
96970W        W65388  12.123  21.199   3.152
96971W        W65389  17.561  40.812   0.378
96972W        W65390   5.926  33.017  10.992
96973W        W65391  23.630  35.584   1.915
96974W        W65392  28.512  17.678   4.172
96975W        W65393  35.361  39.978   1.305
96976W        W65394  22.613   8.901  11.457
96977W        W65395  21.514  14.721   3.844
96978W        W65396   0.458   2.358  13.328
96979W        W65397  25.024   3.270   5.200
96980W        W65398  43.493   2.392  12.521
96981W        W65399  12.736  42.304   2.337
96982W        W65400  23.127  12.321  11.089
96983W        W65401  39.337   3.260   0.335
96984W        W65402  36.069  28.675  11.541
96985W        W65403  12.845  34.384  11.431
96986W        W65404  26.614  24.697   2.341
96987W        W65405   9.201  16.137  11.964
96988W        W65406  15.106   9.708  14.019
96989W        W65407  28.450   3.763   2.281
96990W        W65408  15.620  38.477   2.189
96991W        W65409   9.849  24.020   1.850
96992W        W65410  10.686  20.258   3.283
96993W        W65411   3.859   0.456  10.572
96994W        W65412  11.646  11.840   1.873
96995W        W65413  10.276  20.574   9.927
96996W        W65414   5.750  20.726  12.849
96997W        W65415  12.697  35.557  12.339
96998W        W65416   7.309  40.418  12.453
96999W        W65417   8.802  13.661  11.439
97000W        W65418  15.705  26.573  12.563
97001W        W65419  10.368  43.897   2.335
97002W        W65420  14.705  17.217   0.320
97003W        W65421  43.862  18.570   4.206
97004W        W65422  26.173  29.019  11.920
97005W        W65423   3.275  16.606  13.341
97006W        W65424  37.079  10.741  14.946
97007W        W65425   7.734  37.880  10.906
97008W        W65426  15.600  27.536  12.437
97009W        W65427  32.529  26.204   4.261
97010W        W65428   7.735  41.475   2.722
97011W        W65429   9.873  41.478   0.839
97012W        W65430  25.204  35.955  12.908
97013W        W65431  20.108  29.141  14.026
97014W        W65432   1.865   5.316   4.826
97015W        W65433  24.151  23.683  13.869
97016W        W65434  14.329  27.595   1.713
97017W        W65435  17.659  15.611   4.614
97018W        W65436  12.270  23.690   0.772
97019W        W65437  18.788  21.039   2.206
97020W        W65438  38.836  23.673  14.843
97021W        W65439  30.931   6.399   1.330
97022W        W65440  38.074  10.157  10.125
97023W        W65441   5.892   6.728  11.418
97024W        W65442  28.980  21.227  14.287
97025W        W65443  27.136  27.560   1.237
97026W        W65444  39.363   7.704  11.604
97027W        W65445  28.639  23.670   4.630
97028W        W65446  21.099  34.432  14.439
97029W        W65447  17.760  22.561  12.429
97030W        W65448   5.219  15.262   3.170
97031W        W65449  26.694  24.551  12.894
97032W        W65450  16.265  41.939  14.293
97033W        W65451  14.192   5.266  12.889
97034W        W65452  10.198  18.196  14.341
97035W        W65453   1.417  13.800   1.903
97036W        W65454  35.892  41.452   2.224
97037W        W65455  28.012  32.474   0.730
97038W        W65456   5.345   2.941   4.601
97039W        W65457   9.752  35.060  10.541
97040W        W65458   7.335  21.203  12.002
97041W        W65459  10.242  28.014  11.561
97042W        W65460  22.658  11.286   3.219
97043W        W65461   1.807  24.575  10.994
97044W        W65462  16.730  19.545   1.410
97045W        W65463  17.619  44.769  14.299
97046W        W65464   5.868   4.837  10.891
97047W        W65465  29.927  14.704   0.799
97048W        W65466  36.894   3.782  11.949
97049W        W65467  37.475  19.061  13.394
97050W        W65468  11.284   8.893   2.695
97051W        W65469   9.746  15.182   2.258
97052W        W65470   2.244  43.969  11.093
97053W        W65471  19.548  42.800  11.859
97054W        W65472  34.042  33.484  12.409
97055W        W65473  27.068   1.454  14.889
97056W        W65474  24.211   7.863  10.480
97057W        W65475  28.976   8.210   4.813
97058W        W65476  18.258   1.456   1.302
97059W        W65477   0.337  30.650   2.238
97060W        W65478  42.350   5.724   1.740
97061W        W65479   8.851   3.232  12.903
97062W        W65480  23.568   6.252   3.656
97063W        W65481  32.435  39.811   0.435
97064W        W65482  43.368  24.486  12.543
97065W        W65483  35.462  10.826  12.049
97066W        W65484  31.095  28.153  13.506
97067W        W65485   7.684  10.674  14.492
97068W        W65486  18.286  25.592   5.209
97069W        W65487  16.209  25.027   4.191
97070W        W65488  20.746  39.531  11.456
97071W        W65489  13.727  13.644   0.252
97072W        W65490  22.539  39.490  10.619
97073W        W65491  26.505  27.191   4.336
97074W        W65492  23.041   1.976   3.667
97075W        W65493  33.058  17.746  11.122
97076W        W65494  28.562  22.105   2.374
97077W        W65495   1.461  36.485   1.353
97078W        W65496   3.833  24.185  11.396
97079W        W65497  22.150  40.046  13.055
97080W        W65498  31.109   0.897  12.370
97081W        W65499  24.691   2.334   0.457
97082W        W65500  36.097  14.229  12.856
97083W        W65501   5.212  10.797   0.291
97084W        W65502  28.495  39.853   1.880
97085W        W65503  19.083  32.570  13.513
97086W        W65504  20.695  12.300  14.995
97087W        W65505  15.791  39.963   9.935
97088W        W65506  26.610  23.498  10.999
97089W        W65507  21.072   1.416   2.283
97090W        W65508  25.008   4.304   1.374
97091W        W65509  13.756  22.653  12.934
97092W        W65510   1.819  18.190  14.459
97093W        W65511  22.007  40.833   4.281
97094W        W65512  43.301   6.223   0.763
97095W        W65513   5.231  21.700  13.940
97096W        W65514  26.018  33.076   2.417
97097W        W65515  20.201   8.778  12.016
97098W        W65516   5.841  28.523   4.603
97099W        W65517  40.904  18.272   3.697
97100W        W65518   9.376  40.365  12.038
97101W        W65519  33.395  37.919   2.231
97102W        W65520   7.727  34.935  11.437
97103W        W65521  19.658  32.139   3.820
97104W        W65522  34.420  10.827  13.347
97105W        W65523  44.929   5.374   4.199
97106W        W65524   8.278  33.089  13.365
97107W        W65525  31.994  32.603   3.310
97108W        W65526  28.172  36.413   2.742
97109W        W65527   5.845  17.734  14.023
97110W        W65528  34.068   0.902  14.420
97111W        W65529   7.261   8.731   1.751
97112W        W65530  17.296  39.834   0.343
97113W        W65531   3.905   9.372   0.925
97114W        W65532  22.654   2.441   4.817
97115W        W65533   6.728  18.236   1.387
97116W        W65534  21.605  11.811  13.507
97117W        W65535  27.091  21.088  13.857
97118W        W65536  33.917  34.910   3.278
97119W        W65537   3.761  31.412  14.923
97120W        W65538  37.418   1.972  12.059
97121W        W65539  11.712  11.189  14.954
97122W        W65540   0.460  40.996   2.837
97123W        W65541  39.365  35.070   4.628
97124W        W65542  25.588  32.506   1.901
97125W        W65543  13.238  37.461  11.873
97126W        W65544  41.035  14.259   0.859
97127W        W65545  44.502  14.240  13.962
97128W        W65546   1.462  21.699  13.382
97129W        W65547  42.891  13.826  11.071
97130W        W65548  32.121  11.331  13.505
97131W        W65549  14.185  16.719   2.832
97132W        W65550  37.046  26.083  14.830
97133W        W65551  30.158   3.220  14.843
97134W        W65552  26.678   8.353  13.888
97135W        W65553  40.545  14.333   3.702
97136W        W65554   6.253  15.627  14.823
97137W        W65555   4.401   9.690   1.442
97138W        W65556  18.730  17.726  13.481
97139W        W65557  12.161  33.975   4.171
97140W        W65558  24.095  27.510   2.700
97141W        W65559  43.864  31.425  12.400
97142W        W65560  38.002   3.263   4.194
97143W        W65561  36.035  42.384  13.820
97144W        W65562   6.405   7.255  12.431
97145W        W65563  14.658  34.982  11.014
97146W        W65564  21.700  38.923   3.677
97147W        W65565   6.401  39.864  11.565
97148W        W65566   1.336   4.925  13.366
97149W        W65567  40.977  18.719  10.504
97150W        W65568   0.771   6.832   2.737
97151W        W65569  17.093  28.460  12.383
97152W        W65570  18.199  33.060   4.637
97153W        W65571   9.374  15.739  14.822
97154W        W65572  10.847   8.228  13.447
97155W        W65573  21.544   4.386   0.444
97156W        W65574  37.445  13.837  11.509
97157W        W65575  16.140  24.615  13.997
97158W        W65576  42.987   5.902  12.023
97159W        W65577   4.316  29.597  12.959
97160W        W65578   5.897   2.848   3.692
97161W        W65579  43.776  12.225  12.398
97162W        W65580   3.722  23.133  13.428
97163W        W65581   9.866   2.281   0.944
97164W        W65582  15.666  11.676   4.239
97165W        W65583  35.391  42.427  13.910
97166W        W65584  30.024  31.958   2.369
97167W        W65585  28.559   9.246   3.640
97168W        W65586  23.228  43.296  10.405
97169W        W65587  35.880  36.579   1.278
97170W        W65588   8.190  36.445  11.522
97171W        W65589  34.490  10.296  10.551
97172W        W65590  22.054   9.677   2.370
97173W        W65591  14.232  34.489  14.939
97174W        W65592  42.493  28.486   4.142
97175W        W65593  13.194   8.373  11.479
97176W        W65594  12.820  23.010   3.194
97177W        W65595  39.358  21.637   2.211
97178W        W65596  11.633  18.236  11.413
97179W        W65597  28.626  10.218  13.909
97180W        W65598  11.160  31.962  11.407
97181W        W65599  15.820  21.142  12.879
97182W        W65600  10.164  41.012   0.295
97183W        W65601   8.770  27.018   2.687
97184W        W65602   3.228  25.076  14.920
97185W        W65603  15.182  42.298  11.125
97186W        W65604  36.842  22.235  11.095
97187W        W65605  17.726  37.434  11.005
97188W        W65606  20.661   0.814  10.447
97189W        W65607  32.555  32.963   0.423
97190W        W65608  18.786  20.109  12.045
97191W        W65609  39.543  25.181   3.192
97192W        W65610  14.172  22.049   1.772
97193W        W65611  42.462   1.812  11.389
97194W        W65612   5.756  41.403   4.799
97195W        W65613  13.746  21.115   2.327
97196W        W65614  28.956  40.453  13.430
97197W        W65615  28.127  33.618   2.272
97198W        W65616  19.752   1.265  11.583
97199W        W65617   6.686   7.194   4.737
97200W        W65618  40.827  31.904  13.874
97201W        W65619  38.919  43.924  12.840
97202W        W65620  25.140  41.427  12.565
97203W        W65621  24.095   9.742   4.318
97204W        W65622  36.898  25.612  11.036
97205W        W65623  42.897  35.932  14.488
97206W        W65624  26.057  28.068  13.972
97207W        W65625  39.403  25.522  12.339
97208W        W65626  17.090   7.864  14.027
97209W        W65627  14.737  40.019   4.262
97210W        W65628   7.735   7.365  12.358
97211W        W65629  21.103   9.294  12.019
97212W        W65630  36.502   8.181   3.692
97213W        W65631   0.820   6.303   1.234
97214W        W65632  28.631  11.850   0.768
97215W        W65633  15.743  27.468   2.404
97216W        W65634  32.904  40.037   0.313
97217W        W65635  26.498  30.565  10.027
97218W        W65636  12.196  32.591   2.740
97219W        W65637  35.064  39.876   2.870
97220W        W65638   4.701  10.237   3.675
97221W        W65639  24.985   2.894  12.071
97222W        W65640  10.173  38.000  12.048
97223W        W65641  32.515   5.740   0.756
97224W        W65642   3.815  37.056   1.749
97225W        W65643  11.249  25.087   2.855
97226W        W65644  42.375  41.493  11.397
97227W        W65645  29.484   3.941   3.817
97228W        W65646   2.273  10.878   1.737
97229W        W65647  32.024   3.405  10.953
97230W        W65648   6.750  30.009  10.520
97231W        W65649  24.666  31.993   2.182
97232W        W65650  27.006  27.601  14.344
97233W        W65651   5.713  16.134   0.793
97234W        W65652   3.875  41.026  13.024
97235W        W65653  19.609  16.665   0.352
97236W        W65654  40.396  18.715   9.956
97237W        W65655  32.398   3.874  13.811
97238W        W65656  44.006  43.430   1.350
97239W        W65657  27.607  37.900  13.046
97240W        W65658   0.751  13.770   3.785
97241W        W65659  33.382  36.482  14.364
97242W        W65660   7.407  35.422  14.303
97243W        W65661  22.674   2.759   3.377
97244W        W65662   0.468  10.374  10.986
97245W        W65663  26.032   8.886  14.423
97246W        W65664   4.300  39.378  12.474
97247W        W65665  37.403   4.204   1.709
97248W        W65666  38.992  23.066  10.639
97249W        W65667  39.474  36.096   0.274
97250W        W65668  39.488  29.428  12.368
97251W        W65669  15.138   2.842  12.986
97252W        W65670  31.495  26.588  10.915
97253W        W65671   3.739  38.936   2.678
97254W        W65672  41.945   5.781   1.319
97255W        W65673   9.687   8.267   0.328
97256W        W65674  44.443  26.579  12.475
97257W        W65675  10.825  18.283  12.849
97258W        W65676   9.259  16.804   0.292
97259W        W65677   6.910  21.148   2.285
97260W        W65678  13.239   4.270   4.291
97261W        W65679   9.654  26.487   0.425
97262W        W65680  44.387  21.229  13.411
97263W        W65681   2.281  34.388  11.103
97264W        W65682  14.260  35.591   3.255
97265W        W65683   7.343  40.361   3.229
97266W        W65684  37.344  43.775   1.731
97267W        W65685  41.493  25.587   1.894
97268W        W65686  23.734  35.419   1.422
97269W        W65687  42.011  26.653  10.093
97270W        W65688   4.247  23.036  11.090
97271W        W65689   6.810  40.412   0.870
97272W        W65690  15.091  38.033  11.606
97273W        W65691  24.052  44.990   4.688
97274W        W65692  41.013  24.542   2.307
97275W        W65693  42.338  28.035  14.398
97276W        W65694  14.181  39.323   0.741
97277W        W65695  44.262   8.735  13.811
97278W        W65696  37.438  16.275  14.460
97279W        W65697  26.670   1.743  10.156
97280W        W65698  16.285   8.393   2.850
97281W        W65699  21.642  22.584  11.914
97282W        W65700   1.971  13.252   3.760
97283W        W65701  35.991   4.862  13.856
97284W        W65702  17.744   5.411   1.414
97285W        W65703  12.799  23.232   0.352
97286W        W65704  17.734  15.163  14.951
97287W        W65705  38.953  25.629   0.308
97288W        W65706   7.880  37.053   0.389
97289W        W65707  20.106  22.744  14.853
97290W        W65708  27.076  28.492  13.982
97291W        W65709  32.606  34.977  14.979
97292W        W65710  33.123  16.602   4.274
97293W        W65711  22.590  13.640  14.375
97294W        W65712  20.028  19.104   2.210
97295W        W65713  16.106  23.717   2.406
97296W        W65714  37.870  21.021  10.461
97297W        W65715   8.876  38.566  12.828
97298W        W65716   5.854   0.881   1.792
97299W        W65717  43.811  44.296  14.407
97300W        W65718  13.635  29.999  12.831
97301W        W65719   5.742  28.149   4.198
97302W        W65720  35.881  20.214  14.443
97303W        W65721  30.044   7.855  10.607
97304W        W65722   2.919  11.856   0.879
97305W        W65723  26.147  39.525   0.952
97306W        W65724  13.183   0.939   1.824
97307W        W65725  27.033   7.695   2.900
97308W        W65726  35.495  39.516  12.832
97309W        W65727  26.065  33.106   2.716
97310W        W65728  18.151  20.265   2.393
97311W        W65729  15.279   7.329   1.830
97312W        W65730  16.198  14.261   1.298
97313W        W65731  38.016  38.522  14.010
97314W        W65732   4.791  18.675   1.819
97315W        W65733  16.627  28.637  11.553
97316W        W65734   5.833  23.026   2.767
97317W        W65735   1.952   1.761  11.015
97318W        W65736  24.529  30.584  12.502
97319W        W65737  42.983  24.506  14.480
97320W        W65738  34.976  40.956   4.351
97321W        W65739   6.305  28.963   4.183
97322W        W65740   0.255   6.702  14.483
97323W        W65741  31.623   8.262  12.941
97324W        W65742   5.395  31.507   2.342
97325W        W65743  19.185  25.712  13.464
97326W        W65744  16.179  17.707  14.788
97327W        W65745   7.694   4.712  10.980
97328W        W65746  22.525  36.563   2.829
97329W        W65747  42.318   9.373   2.816
97330W        W65748  40.828  20.575   1.263
97331W        W65749  33.963  44.994  11.414
97332W        W65750   6.285   4.897   1.419
97333W        W65751  40.543   2.385   3.731
97334W        W65752   9.257  40.373   3.334
97335W        W65753   1.906  20.699  13.857
97336W        W65754  40.810  13.137   1.228
97337W        W65755  12.206   5.850   2.788
97338W        W65756  39.825  14.318   3.200
97339W        W65757  35.911   4.298  14.419
97340W        W65758  10.256  19.104  12.039
97341W        W65759  34.530   2.281  12.545
97342W        W65760  38.848  39.471  14.870
97343W        W65761  26.083  36.881   4.298
97344W        W65762  12.353   7.881   1.370
97345W        W65763  31.409  39.320   3.796
97346W        W65764  38.931   8.214   3.232
97347W        W65765  40.454  13.660   3.299
97348W        W65766  26.555  21.740  11.963
97349W        W65767  13.825  32.548  12.573
97350W        W65768  19.739  13.214   2.809
97351W        W65769  39.477  16.698  13.015
97352W        W65770  26.617  24.687  10.988
97353W        W65771  41.890   8.822   4.336
97354W        W65772   3.773   1.320  14.300
97355W        W65773  28.166  25.045   4.120
97356W        W65774  13.259  23.676   4.791
97357W        W65775  39.539   1.778  11.994
97358W        W65776  33.103  14.649   0.876
97359W        W65777  34.020  10.742   3.256
97360W        W65778  34.929  41.319   5.207
97361W        W65779  21.256   3.313   3.744
97362W        W65780  33.961  19.728   1.718
97363W        W65781   1.830  21.654  11.508
97364W        W65782  32.013   3.920   5.135
97365W        W65783   9.644  21.746  10.506
97366W        W65784   1.265  17.196  12.825
97367W        W65785  19.174  20.629  14.429
97368W        W65786  40.968  39.505  14.417
97369W        W65787  29.067   9.184  10.465
97370W        W65788  15.733  43.963   2.222
97371W        W65789  26.589  13.651   2.876
97372W        W65790  16.172  27.947  10.135
97373W        W65791  36.884   5.325  14.931
97374W        W65792  21.119  36.442  11.928
97375W        W65793  22.645  31.148   0.280
97376W        W65794  29.640  11.706  13.922
97377W        W65795  26.043  29.444   2.333
97378W        W65796  29.509  29.470   4.159
97379W        W65797  34.022  11.749   3.825
97380W        W65798  42.822  22.006   3.279
97381W        W65799  42.776  39.446   2.372
97382W        W65800  13.822   3.235   0.459
97383W        W65801  10.250  40.040  10.060
97384W        W65802   2.319   0.336  10.891
97385W        W65803  14.325  13.160   5.114
97386W        W65804  16.568  18.621   4.208
97387W        W65805  35.490   5.394   0.779
97388W        W65806   9.239  14.293   4.130
97389W        W65807  34.525  40.969  10.433
97390W        W65808  26.983  19.655  12.824
97391W        W65809  39.960  11.164  12.433
97392W        W65810   6.732  34.976   0.417
97393W        W65811   0.798  17.069  11.499
97394W        W65812   4.777  16.684   1.716
97395W        W65813  22.146  27.160  12.391
97396W        W65814   7.738  25.025   9.947
97397W        W65815  44.335  44.766   1.393
97398W        W65816  23.050  30.993   2.829
97399W        W65817  20.599   4.894  12.974
97400W        W65818  10.142  19.703  12.097
97401W        W65819  20.560  38.026   4.259
97402W        W65820  38.031  41.301   1.935
97403W        W65821  42.809  34.100   0.308
97404W        W65822  41.943  31.144   4.197
97405W        W65823  10.269  24.704  10.442
97406W        W65824  42.958  30.506  13.520
97407W        W65825  29.555  22.021  11.391
97408W        W65826  21.185  17.752  11.909
97409W        W65827  26.972   8.674  11.900
97410W        W65828  33.963   9.785  14.771
97411W        W65829  41.004  41.328  11.575
97412W        W65830  31.911  33.543  12.066
97413W        W65831  16.749  13.626   3.721
97414W        W65832  10.674  26.058   3.688
97415W        W65833  42.341  36.892   0.243
97416W        W65834  38.888   8.852   0.326
97417W        W65835  38.348   2.429  13.794
97418W        W65836  20.706  25.140   0.774
97419W        W65837  30.090  39.044   1.775
97420W        W65838  24.004  44.502   1.781
97421W        W65839   3.950  28.142   0.811
97422W        W65840  36.546  44.461  12.524
97423W        W65841  33.043  38.427   4.120
97424W        W65842  36.023   8.223  12.901
97425W        W65843   6.242  31.028  12.837
97426W        W65844  17.085  24.137   0.908
97427W        W65845  12.708  17.595   1.421
97428W        W65846  23.006  43.464   4.286
97429W        W65847   8.196  42.341  12.891
97430W        W65848  21.217  35.427   2.794
97431W        W65849  22.127  14.322   3.276
97432W        W65850  16.288   6.736   5.288
97433W        W65851  14.252  30.992   0.933
97434W        W65852  25.700   2.374  14.400
97435W        W65853   4.745  12.302  11.550
97436W        W65854  17.107  40.354  11.954
97437W        W65855  41.439  21.100  10.581
97438W        W65856  30.435   6.791  12.362
97439W        W65857  11.179   3.899   4.116
97440W        W65858  37.951  38.503   3.201
97441W        W65859  17.572   0.804   0.292
97442W        W65860  31.153  30.574  10.152
97443W        W65861  44.432  15.198  11.959
97444W        W65862  20.557  17.069   3.867
97445W        W65863  23.559  15.750   1.433
97446W        W65864  32.483  35.881   3.258
97447W        W65865  20.709  38.515   0.809
97448W        W65866   1.260   9.186   1.435
97449W        W65867  13.603   2.911   3.194
97450W        W65868  13.845  16.181   0.317
97451W        W65869   2.274  35.527  10.509
97452W        W65870  12.311  39.933   4.151
97453W        W65871  43.982   9.166  10.535
97454W        W65872  42.796   7.668   0.382
97455W        W65873  31.414   9.269  11.088
97456W        W65874  11.825   2.312   4.158
97457W        W65875  17.116  24.505   4.315
97458W        W65876   7.262  22.558   1.700
97459W        W65877  26.999   9.242  14.297
97460W        W65878   3.331   4.239  12.922
97461W        W65879  22.638  40.426   2.396
97462W        W65880  22.142   4.340  12.490
97463W        W65881  44.476  11.193   0.361
97464W        W65882  11.128  25.612   4.302
97465W        W65883  42.862  15.732   0.898
97466W        W65884   1.439  38.867   1.380
97467W        W65885  28.525  33.388  10.967
97468W        W65886  17.703  10.720  14.310
97469W        W65887  11.331  31.489   4.652
97470W        W65888  33.443  31.422   0.925
97471W        W65889   6.364  11.840   1.348
97472W        W65890  13.785   4.883   1.900
97473W        W65891   6.410  17.778   2.838
97474W        W65892  43.779  43.013   3.316
97475W        W65893  17.660  44.894   2.260
97476W        W65894  12.615   8.845   2.408
97477W        W65895  43.011  12.627  13.846
97478W        W65896  16.145  36.447   3.852
97479W        W65897  10.807   9.680   2.212
97480W        W65898  31.097  12.640   3.214
97481W        W65899  35.870  39.468   3.257
97482W        W65900  29.669  19.079   3.676
97483W        W65901   9.788   3.763   0.758
97484W        W65902  38.862  26.119  14.784
97485W        W65903  22.152  29.965  13.032
97486W        W65904   4.254  27.980  14.491
97487W        W65905  37.987  40.813  12.077
97488W        W65906   0.851  36.045   3.368
97489W        W65907  26.486  36.578   2.294
97490W        W65908   3.299  29.116   4.202
97491W        W65909  41.020   1.825   4.722
97492W        W65910   4.805   6.398  12.479
97493W        W65911   4.730  14.189   3.188
97494W        W65912  12.352  23.241  13.956
97495W        W65913   3.857  16.601   3.247
97496W        W65914  32.135  17.231  12.500
97497W        W65915  40.530  32.098  12.869
97498W        W65916  26.030  26.498  14.476
97499W        W65917  28.989  35.408   4.201
97500W        W65918  26.061  20.256   4.291
97501W        W65919  44.349  33.065  14.484
97502W        W65920  32.119   0.353   2.805
97503W        W65921  40.847  14.182   3.757
97504W        W65922  20.679  10.714   1.219
97505W        W65923  37.462  17.071   5.215
97506W        W65924  15.242  39.489   4.264
97507W        W65925  33.466  37.076  10.159
97508W        W65926  27.116   2.735   1.328
97509W        W65927  16.782  16.627   3.851
97510W        W65928  11.302   5.826   4.257
97511W        W65929   0.855  29.115  11.594
97512W        W65930  16.176  43.855   4.811
97513W        W65931  37.998  36.060   1.797
97514W        W65932  44.885  28.172  12.473
97515W        W65933  30.120   5.822  12.003
97516W        W65934  37.037  41.838   1.781
97517W        W65935   0.426   2.815  10.501
97518W        W65936  25.063   8.835   1.228
97519W        W65937   5.797  24.151  14.828
97520W        W65938  14.173  41.336   3.745
97521W        W65939   3.792  34.574   0.270
97522W        W65940   8.667  35.030  12.012
97523W        W65941   3.714   8.663   3.712
97524W        W65942  40.904  37.568  12.841
97525W        W65943  10.791  23.130  14.776
97526W        W65944   2.920  32.030  13.390
97527W        W65945   8.810  32.020  11.528
97528W        W65946  12.205  27.690  11.872
97529W        W65947   4.282  28.000  12.536
97530W        W65948  40.490  22.015  13.449
97531W        W65949  44.956  28.176  13.500
97532W        W65950   4.835   9.282  11.999
97533W        W65951  34.965  44.006  10.941
97534W        W65952   8.661  43.500   1.385
97535W        W65953  25.708  19.580   0.270
97536W        W65954  39.421   8.707   3.189
97537W        W65955   8.814  33.988  12.473
97538W        W65956  22.078  25.015   3.156
97539W        W65957  10.708  24.111   2.864
97540W        W65958  31.455  43.936  14.027
97541W        W65959  38.327   0.298  12.076
97542W        W65960  40.459  22.502   2.751
97543W        W65961  33.413  18.253   2.897
97544W        W65962  22.593  17.212   2.803
97545W        W65963  31.591  36.843  13.547
97546W        W65964  30.446  34.562   0.806
97547W        W65965   1.396  19.204  10.553
97548W        W65966   6.896  21.247  10.538
97549W        W65967   4.402  11.663  11.986
97550W        W65968  17.122   6.399   0.470
97551W        W65969  35.597  23.238  12.844
97552W        W65970  25.606   4.249  12.080
97553W        W65971   1.273   8.197   4.681
97554W        W65972  29.963  23.533   3.667
97555W        W65973   0.313   6.323   4.742
97556W        W65974  19.237   6.887   2.885
97557W        W65975  11.140  19.153  12.096
97558W        W65976   4.340  32.625   4.763
97559W        W65977   6.220  40.935   2.179
97560W        W65978   5.715  41.425   4.117
97561W        W65979  37.975  32.473  12.926
97562W        W65980  27.976  32.496  13.843
97563W        W65981   9.244  24.595  13.969
97564W        W65982  32.626  10.830  11.529
97565W        W65983  11.271   1.441   0.415
97566W        W65984   6.694  16.080   0.865
97567W        W65985   1.463  28.445   1.734
97568W        W65986   5.901  27.548   2.244
97569W        W65987  13.107   7.890   0.810
97570W        W65988  33.876  17.682  12.839
97571W        W65989  22.504  11.142   4.726
97572W        W65990  17.614   7.334  10.537
97573W        W65991  21.578  32.629   1.420
97574W        W65992  37.576  44.322   2.696
97575W        W65993  38.951  19.591   1.289
97576W        W65994  30.552  11.799  14.370
97577W        W65995  33.453  30.479  10.423
97578W        W65996  26.996  40.036  11.077
97579W        W65997   2.852  39.987   1.703
97580W        W65998  14.211   5.733  11.409
97581W        W65999  25.109  39.053  11.039
97582W        W66000  27.575  21.662  14.972
97583W        W66001  11.862  18.272  14.026
97584W        W66002   4.318  35.975   2.213
97585W        W66003  17.069  27.624   1.298
97586W        W66004   3.768   5.741   4.693
97587W        W66005  21.602  39.885   1.236
97588W        W66006  36.351  29.651  10.945
97589W        W66007  44.804  29.136   4.153
97590W        W66008  14.813  11.345   1.762
97591W        W66009  10.194   2.723   3.166
97592W        W66010  21.143  36.370   1.346
97593W        W66011  25.556   6.208   3.311
97594W        W66012  38.857   8.341  11.449
97595W        W66013  26.518  36.070  10.499
97596W        W66014   1.380  40.318  13.884
97597W        W66015   1.439  13.269  12.831
97598W        W66016  22.070  31.466  14.498
97599W        W66017  39.839  18.546  11.611
97600W        W66018  18.077  43.793   2.213
97601W        W66019  12.305  23.052   1.349
97602W        W66020   4.300  16.804   3.649
97603W        W66021  44.894   6.914  11.032
97604W        W66022  38.368  36.860   4.806
97605W        W66023  14.130  43.786   0.301
97606W        W66024  14.311  44.450   3.839
97607W        W66025  41.529  27.048  14.859
97608W        W66026  31.625  11.741  12.957
97609W        W66027  20.172  18.088   0.364
97610W        W66028  19.594  41.832   1.699
97611W        W66029  20.224  21.089  13.909
97612W        W66030  43.339  13.720  14.837
97613W        W66031   7.745  11.766   5.214
97614W        W66032  15.322  20.220  11.520
97615W        W66033   6.217  31.914  12.469
97616W        W66034   1.753  28.132   3.749
97617W        W66035  10.382   6.738  13.806
97618W        W66036  32.931  39.398  13.881
97619W        W66037  21.704  31.515  13.518
97620W        W66038  28.042   4.779   4.683
97621W        W66039  18.696  12.662   2.758
97622W        W66040  39.520  14.733  14.390
97623W        W66041  29.002  26.675   3.788
97624W        W66042  18.761  40.802   2.730
97625W        W66043  44.899  19.717  14.907
97626W        W66044  36.591  42.948   4.335
97627W        W66045  27.590  29.995  11.596
97628W        W66046   2.925  33.924   3.859
97629W        W66047  12.336  36.865  14.008
97630W        W66048   2.387   1.888   3.861
97631W        W66049  44.755  13.665   0.740
97632W        W66050  40.952  28.134  11.008
97633W        W66051  18.205  26.124  11.382
97634W        W66052   0.819  15.669  13.526
97635W        W66053  28.603  12.741  11.075
97636W        W66054  26.119  14.155   2.332
97637W        W66055   7.857  31.500  11.550
97638W        W66056  11.216  33.608   0.950
97639W        W66057  44.976  42.929   3.202
97640W        W66058  25.496   6.682   2.681
97641W        W66059  32.072  37.938  14.017
97642W        W66060  23.099  24.505   0.749
97643W        W66061  37.959  21.205   0.919
97644W        W66062   3.428   0.794  12.547
97645W        W66063   0.925   7.909   2.814
97646W        W66064  12.225  35.362  13.363
97647W        W66065  11.169   2.966  14.379
97648W        W66066  11.257  42.799  12.993
97649W        W66067  33.929  37.966   2.303
97650W        W66068  39.907  39.428   3.712
97651W        W66069  14.702  26.680  12.883
97652W        W66070   8.749  20.082   2.219
97653W        W66071   9.198  34.576   4.242
97654W        W66072   8.280  10.664  12.343
97655W        W66073   8.768  33.939  10.428
97656W        W66074  12.845  42.330  13.353
97657W        W66075  37.362  33.489   5.216
97658W        W66076   8.240  32.076   3.332
97659W        W66077  33.966  44.945   0.273
97660W        W66078  24.663  15.605  13.339
97661W        W66079  25.000  11.355  14.977
97662W        W66080   9.329  14.595   0.462
97663W        W66081   8.278   7.701   4.184
97664W        W66082  27.465  20.526  11.976
97665W        W66083  32.088  26.952  11.506
97666W        W66084  12.689   0.402   1.863
97667W        W66085  41.798  16.596   3.333
97668W        W66086  23.135  14.247  11.394
97669W        W66087  33.514  40.450  12.062
97670W        W66088  18.631  29.492   5.242
97671W        W66089  21.566  36.017   5.128
97672W        W66090  44.264  43.013  13.794
97673W        W66091  44.888  23.667  10.050
97674W        W66092  22.025  37.494  14.998
97675W        W66093  34.058   6.380  13.840
97676W        W66094  33.931   6.311  12.962
97677W        W66095  14.337  30.430   2.315
97678W        W66096  38.428  30.657  10.980
97679W        W66097  31.064  15.180   0.470
97680W        W66098  27.556   8.832   2.695
97681W        W66099  44.940  26.022   2.830
97682W        W66100  43.903  10.645   2.794
97683W        W66101  34.596  33.096  11.990
97684W        W66102   9.269  38.531   1.825
97685W        W66103  42.349  42.921  13.369
97686W        W66104  36.883  14.713  12.061
97687W        W66105   0.882  23.650   4.322
97688W        W66106  39.541  43.506  10.550
97689W        W66107   2.453  44.349  10.963
97690W        W66108  27.954  41.476  14.897
97691W        W66109   5.830  35.929  10.458
97692W        W66110  36.923  14.184  13.423
97693W        W66111   6.243  32.089  13.965
97694W        W66112  39.926  42.420  10.426
97695W        W66113   9.240  25.118  12.923
97696W        W66114  27.133  34.925  10.424
97697W        W66115  28.454  30.640   0.896
97698W        W66116  35.053  30.146   2.276
97699W        W66117  38.368  16.616   4.262
97700W        W66118  20.677  30.607  10.410
97701W        W66119  22.073   4.332   3.659
97702W        W66120  29.669  34.059   2.751
97703W        W66121  34.089  21.747   0.896
97704W        W66122  10.301  26.121  12.954
97705W        W66123  22.641   1.953  13.438
97706W        W66124  30.605  14.233   3.658
97707W        W66125   9.700  38.337   4.699
97708W        W66126  28.595   6.858  14.779
97709W        W66127   1.835  23.993  11.510
97710W        W66128  31.553  29.082   3.690
97711W        W66129  38.954   6.382  11.479
97712W        W66130   8.187  41.509  12.072
97713W        W66131  39.520  41.361   4.249
97714W        W66132   8.835  33.457  12.350
97715W        W66133  27.661  44.843   2.712
97716W        W66134  28.530  15.184  11.105
97717W        W66135  16.198  29.074   2.352
97718W        W66136  34.899   0.869  13.915
97719W        W66137  21.640   8.744  13.527
97720W        W66138  41.480  39.962  13.886
97721W        W66139  18.223   7.713   4.180
97722W        W66140   8.788  17.243  11.882
97723W        W66141  32.448  10.157   4.698
97724W        W66142   0.307  30.148  11.551
97725W        W66143  38.822  31.138   1.755
97726W        W66144  28.644  17.769   3.732
97727W        W66145  28.605  21.034   3.807
97728W        W66146  41.918  12.259  10.989
97729W        W66147  43.947  36.553   3.382
97730W        W66148  26.975  37.405   4.180
97731W        W66149  43.480   9.723   0.947
97732W        W66150  25.003  37.013  13.883
97733W        W66151   5.432  20.270   1.322
97734W        W66152  36.481  28.490  13.964
97735W        W66153  24.122  10.670   1.825
97736W        W66154   4.888  26.485   1.230
97737W        W66155  36.464  30.025   1.826
97738W        W66156  11.767  44.464   4.226
97739W        W66157  40.890  11.688  12.016
97740W        W66158   5.774  43.828   4.662
97741W        W66159  44.264  36.450   4.706
97742W        W66160  19.091  39.878   3.719
97743W        W66161  31.960  18.753   4.819
97744W        W66162  34.027   6.281  11.106
97745W        W66163  39.439   5.274   2.694
97746W        W66164   4.912   2.283  10.620
97747W        W66165  20.171  34.406  14.370
97748W        W66166   1.322   4.771   4.176
97749W        W66167   5.878   0.895  11.504
97750W        W66168   0.836  38.494  13.817
97751W        W66169   2.272  40.816   0.915
97752W        W66170  35.956  24.679   4.137
97753W        W66171  27.607  26.628  13.892
97754W        W66172  24.603  15.644   4.163
97755W        W66173  18.161   7.405   1.306
97756W        W66174  37.548   1.366  10.485
97757W        W66175   0.359  22.027   0.348
97758W        W66176  31.939  25.972  12.425
97759W        W66177   7.796   6.840   1.729
97760W        W66178  30.600  43.799  13.791
97761W        W66179  33.922  30.924  13.398
97762W        W66180   3.337  22.645  12.987
97763W        W66181  36.932   8.163   4.757
97764W        W66182  39.852   0.463   3.169
97765W        W66183  34.484  17.609  13.912
97766W        W66184  10.644  21.620  12.387
97767W        W66185  35.386  33.964  10.942
97768W        W66186   6.878   1.328   1.344
97769W        W66187   4.839   7.834  13.799
97770W        W66188  33.498  17.231   2.347
97771W        W66189   6.763  10.849   4.743
97772W        W66190  39.878  35.488  14.917
97773W        W66191  39.981  31.525   3.297
97774W        W66192  38.498  23.630  11.582
97775W        W66193  16.180  17.629   3.773
97776W        W66194  31.585   2.338   2.349
97777W        W66195  10.298  39.964  14.387
97778W        W66196  38.459  41.440   3.791
97779W        W66197  27.494  43.859  13.999
97780W        W66198  24.093   2.893   3.785
97781W        W66199  11.196  30.076  10.903
97782W        W66200  19.613  44.819   3.344
97783W        W66201  39.923   1.850   3.152
97784W        W66202  40.516  14.732  14.471
97785W        W66203  35.026  44.956  10.537
97786W        W66204  43.314   5.357   0.457
97787W        W66205  37.948  23.504  11.893
97788W        W66206  20.131  41.822   0.387
97789W        W66207  29.932  18.227  13.064
97790W        W66208  17.796  44.330   3.641
97791W        W66209  36.055  21.236   0.934
97792W        W66210  42.916  32.576   3.645
97793W        W66211  15.106  15.772   9.991
97794W        W66212  19.085  31.412   2.840
97795W        W66213  36.416   7.732  11.873
97796W        W66214   6.305  25.128  13.869
97797W        W66215   5.306  14.312  10.460
97798W        W66216  31.950  21.263  13.429
97799W        W66217  20.691   8.358  14.465
97800W        W66218  28.613  29.630  13.055
97801W        W66219  20.149   3.723   2.698
97802W        W66220  29.628  21.720   1.435
97803W        W66221  10.160  12.642  11.112
97804W        W66222  24.557   2.415   1.217
97805W        W66223  31.135  30.086  14.928
97806W        W66224  42.022   4.827  14.337
97807W        W66225  34.876  12.853  14.504
97808W        W66226  43.505   0.969  12.376
97809W        W66227  40.831  27.006   4.317
97810W        W66228   1.923  36.585   2.741
97811W        W66229  35.429   6.380  10.538
97812W        W66230  34.866  16.151  12.965
97813W        W66231  37.010  28.140  11.937
97814W        W66232  14.304   5.904  12.549
97815W        W66233  16.648  15.134   2.794
97816W        W66234   2.907  18.690   2.781
97817W        W66235  41.358  22.206   0.962
97818W        W66236  42.486  40.853   4.638
97819W        W66237  30.597  36.583  13.974
97820W        W66238  30.956   6.881   2.182
97821W        W66239   1.331  37.972  13.454
97822W        W66240  29.647  27.167  12.848
97823W        W66241  40.983   8.726   2.696
97824W        W66242  26.162  18.661   0.333
97825W        W66243  40.930   2.400   1.423
97826W        W66244  18.134  11.790   0.807
97827W        W66245  24.596   4.450  14.390
97828W        W66246  37.896  37.920   2.356
97829W        W66247  27.169  33.083  11.906
97830W        W66248  16.573  36.380  13.795
97831W        W66249  18.185  40.939  10.601
97832W        W66250  27.622  21.677  13.397
97833W        W66251  42.294  17.141   4.699
97834W        W66252   0.780  41.987  14.769
97835W        W66253  35.045  29.532  12.936
97836W        W66254   3.874  22.626   0.856
97837W        W66255  39.321   7.725  13.007
97838W        W66256  37.083  17.704  11.550
97839W        W66257   7.282  40.903  12.903
97840W        W66258   4.431  36.995   2.315
97841W        W66259  31.426   4.763   2.733
97842W        W66260  17.700   3.376   4.837
97843W        W66261   4.231   1.873   2.258
97844W        W66262  34.549   6.717   1.733
97845W        W66263   8.810  17.109  10.432
97846W        W66264  16.771  25.964   3.767
97847W        W66265  30.482   8.198   3.799
97848W        W66266   0.414  19.727  13.793
97849W        W66267  35.526  21.140  14.862
97850W        W66268   4.295  19.235   4.749
97851W        W66269  22.115  37.077  11.010
97852W        W66270   5.833  34.533  11.016
97853W        W66271   2.773  28.127   2.337
97854W        W66272  15.584  16.757   3.677
97855W        W66273   6.910  44.292   2.385
97856W        W66274  10.638  25.978  13.831
97857W        W66275  21.684   1.282   2.410
97858W        W66276   7.310  26.021  12.886
97859W        W66277  11.657  38.046  12.879
97860W        W66278  40.476  31.106   0.313
97861W        W66279  20.624  15.700  13.980
97862W        W66280  43.989  15.102   3.276
97863W        W66281  23.030   5.904  12.928
97864W        W66282  32.131  30.600  11.061
97865W        W66283  37.525  30.624   0.411
97866W        W66284  41.996  22.642  10.155
97867W        W66285  23.512  35.458  13.393
97868W        W66286  17.629  40.970   1.348
97869W        W66287  12.307  13.183  10.958
97870W        W66288  25.968  34.117  13.878
97871W        W66289  23.590  27.577  13.985
97872W        W66290   9.369  34.005   4.131
97873W        W66291   3.867  10.790   1.833
97874W        W66292  44.485  18.244   1.224
97875W        W66293  20.588  40.347  14.464
97876W        W66294   4.825  27.591  13.017
97877W        W66295  33.980   8.719  13.804
97878W        W66296  32.103  27.029   0.310
97879W        W66297  11.167  12.689   3.751
97880W        W66298  26.155  34.567  11.974
97881W        W66299  41.976  34.589  13.969
97882W        W66300  31.896  43.845   0.937
97883W        W66301   4.871  37.490   0.834
97884W        W66302  18.106  44.505  11.474
97885W        W66303  26.070  22.613  12.848
97886W        W66304  26.179   3.222   1.220
97887W        W66305  33.399  20.119  12.858
97888W        W66306  11.786  26.189  14.770
97889W        W66307  10.824   1.367  14.398
97890W        W66308  11.659  25.474  14.838
97891W        W66309  36.061  38.972  13.957
97892W        W66310   7.368  44.923  13.998
97893W        W66311   4.702   0.269  10.565
97894W        W66312  38.069  35.974   0.483
97895W        W66313  32.552  12.713  12.032
97896W        W66314  42.865  21.625  12.419
97897W        W66315  43.999  23.015   4.744
97898W        W66316  30.931  24.645  14.424
97899W        W66317  15.741  37.556  14.909
97900W        W66318  41.877  26.598  12.083
97901W        W66319  11.828  10.820   4.780
97902W        W66320  29.450  29.467   3.195
97903W        W66321  39.816  41.849   4.349
97904W        W66322  34.089  40.324   3.758
97905W        W66323   7.798   0.831  12.434
97906W        W66324  12.838  35.889   4.730
97907W        W66325   1.438  39.539  10.582
97908W        W66326  40.446   3.253  10.504
97909W        W66327  39.938  26.192  12.510
97910W        W66328  41.997   0.900   2.408
97911W        W66329  25.208  16.246   0.909
97912W        W66330  27.041  39.488   1.227
97913W        W66331  19.221   1.942  13.411
97914W        W66332   2.380  36.039  10.969
97915W        W66333   1.446  24.107   2.293
97916W        W66334  40.927  20.055   3.706
97917W        W66335  30.504   6.744  13.310
97918W        W66336  36.068  28.020   0.358
97919W        W66337  40.819  36.924  11.444
97920W        W66338  38.448   8.675   2.382
97921W        W66339  41.996  18.551  13.063
97922W        W66340   6.224   6.382   4.775
97923W        W66341  29.090  37.042   4.697
97924W        W66342   5.324  20.067   1.761
97925W        W66343  33.978   5.237  12.413
97926W        W66344  36.529   2.761   1.326
97927W        W66345  29.533  28.169  14.763
97928W        W66346  33.510  24.556   3.735
97929W        W66347  34.547  43.983   0.752
97930W        W66348  18.220  39.831   3.763
97931W        W66349  23.189  20.659  12.041
97932W        W66350  23.652   3.943   2.208
97933W        W66351  36.961  20.045  11.106
97934W        W66352  28.150  18.555  12.957
97935W        W66353   7.211  36.012  14.353
97936W        W66354  44.269  26.101   3.785
97937W        W66355   8.783   5.852   0.445
97938W        W66356  26.175  27.124  12.960
97939W        W66357  31.021  29.665   0.463
97940W        W66358  24.115  35.963   4.296
97941W        W66359  35.938  32.049  14.027
97942W        W66360   0.772   9.336   1.241
97943W        W66361  16.112  33.565   4.287
97944W        W66362  41.034  34.933  10.475
97945W        W66363   7.676  33.418   4.325
97946W        W66364  23.670  14.624   3.357
97947W        W66365  15.777  13.231  10.539
97948W        W66366  25.152  22.182  14.774
97949W        W66367   0.306  38.964   1.364
97950W        W66368  34.500  26.971  12.574
97951W        W66369  27.529  14.185  11.608
97952W        W66370  30.997  42.916   1.355
97953W        W66371  21.728   8.185  10.975
97954W        W66372   4.431  21.245   1.761
97955W        W66373  42.887  35.857   3.729
97956W        W66374  20.200  20.182  13.897
97957W        W66375  25.596   2.738   3.321
97958W        W66376  37.517  25.608  11.946
97959W        W66377   8.301  18.078  11.873
97960W        W66378  30.573  11.189   1.240
97961W        W66379  36.474  16.308   1.445
97962W        W66380  26.126  12.821  11.083
97963W        W66381   3.284  17.282   4.123
97964W        W66382   5.787  35.888  14.400
97965W        W66383  14.144   9.800  11.031
97966W        W66384  27.533  12.669   4.187
97967W        W66385  18.051  29.985  12.849
97968W        W66386  31.945  29.550  14.350
97969W        W66387   2.390  44.766   3.356
97970W        W66388  35.394  19.755   0.272
97971W        W66389  37.479   5.795  10.137
97972W        W66390  26.493  28.940   4.811
97973W        W66391  42.009   2.239   2.407
97974W        W66392  30.451  36.033  13.531
97975W        W66393  32.044  14.647  10.508
97976W        W66394  33.466  36.477  11.442
97977W        W66395  18.707  44.934  13.412
97978W        W66396  25.159  24.524   0.247
97979W        W66397  39.915  19.644  13.352
97980W        W66398   7.282  18.259  12.046
97981W        W66399  43.311  42.870   0.791
97982W        W66400  26.480   9.314  14.363
97983W        W66401  40.420  37.363  11.569
97984W        W66402   0.747  17.225   3.766
97985W        W66403  30.521  34.482   3.281
97986W        W66404   5.296  38.359  11.872
97987W        W66405  33.509  23.013  11.980
97988W        W66406  11.333  34.474  14.940
97989W        W66407  16.748  37.475   4.656
97990W        W66408  37.943  38.048  14.895
97991W        W66409  37.496   7.185   4.158
97992W        W66410   5.396  25.015   4.288
97993W        W66411  26.463  13.702   3.730
97994W        W66412  14.162  24.088  12.849
97995W        W66413  43.284  24.066   3.698
97996W        W66414  38.927  23.603  10.448
97997W        W66415  37.857  34.497   1.760
97998W        W66416  28.093  39.042  11.958
97999W        W66417  31.531  15.202   2.326
98000W        W66418  33.556  13.634  14.480
98001W        W66419  37.336   9.690   0.369
98002W        W66420  35.588  44.919   1.928
98003W        W66421  42.403  26.625   0.324
98004W        W66422   6.723  42.285   2.221
98005W        W66423  24.522  26.524  12.980
98006W        W66424  12.634  40.054   2.221
98007W        W66425  27.602  33.405  10.467
98008W        W66426  11.348   1.821  10.586
98009W        W66427  25.581  40.471  10.501
98010W        W66428  41.880  15.151  13.514
98011W        W66429   8.798  39.441   0.929
98012W        W66430  30.427  11.735  12.070
98013W        W66431  24.202  25.205   4.726
98014W        W66432  20.605  16.661  11.496
98015W        W66433  42.401  31.140  10.903
98016W        W66434  12.828  33.023  13.463
98017W        W66435   2.840  16.310  10.551
98018W        W66436  43.928  29.014  13.929
98019W        W66437  36.403  15.309  11.015
98020W        W66438  42.439  18.602  13.032
98021W        W66439  23.545   7.227  11.066
98022W        W66440   2.963  14.155  10.912
98023W        W66441  40.028  22.700  12.837
98024W        W66442  22.736  17.260  13.004
98025W        W66443  26.120   0.889  11.415
98026W        W66444  40.836   2.854   3.845
98027W        W66445  24.138  12.187  11.065
98028W        W66446   9.264  21.661   3.367
98029W        W66447  35.553  36.996  10.435
98030W        W66448  11.638  23.516  12.080
98031W        W66449  24.609  26.621  14.878
98032W        W66450  35.546   2.897  12.952
98033W        W66451  41.402  22.103   1.219
98034W        W66452  22.248  14.812  12.039
98035W        W66453  18.161  33.598  10.488
98036W        W66454  18.614  13.809   1.251
98037W        W66455  43.401  11.236  11.025
98038W        W66456   2.851   5.879   4.216
98039W        W66457  24.676  14.305  12.538
98040W        W66458  26.040   7.305  14.334
98041W        W66459  25.595   9.702  10.519
98042W        W66460   0.821  17.151  14.767
98043W        W66461  26.545   2.874   1.725
98044W        W66462  34.430   0.450  11.948
98045W        W66463  36.054  11.352   0.467
98046W        W66464  37.467  38.448   2.749
98047W        W66465  15.109   0.866   3.649
98048W        W66466   0.340  34.473   0.373
98049W        W66467  22.164   6.750  12.496
98050W        W66468  35.852  20.745   2.710
98051W        W66469  25.999  30.012   4.160
98052W        W66470  19.564  37.454  13.400
98053W        W66471  43.814  32.617  13.908
98054W        W66472  31.422  36.381  10.977
98055W        W66473  26.646  14.273  10.076
98056W        W66474  12.297  36.969  12.451
98057W        W66475  15.096  26.981  14.011
98058W        W66476  14.188  38.417   3.760
98059W        W66477  22.213  10.648   1.399
98060W        W66478   9.646   2.253  11.381
98061W        W66479  23.229  31.954   3.289
98062W        W66480  30.907   6.391   0.358
98063W        W66481  25.626  35.971  14.956
98064W        W66482   5.242  13.731  11.428
98065W        W66483  22.568  39.868  10.892
98066W        W66484  30.113   3.912  10.466
98067W        W66485   0.770  44.335   1.376
98068W        W66486  20.588   2.282   1.819
98069W        W66487  44.867  30.547   2.394
98070W        W66488   1.974   3.882   2.816
98071W        W66489   7.844  17.219  14.483
98072W        W66490  40.839  42.849  14.870
98073W        W66491  30.140  21.749   4.231
98074W        W66492  17.664   2.780   2.703
98075W        W66493  33.481  18.761  10.096
98076W        W66494   9.302   3.379   3.201
98077W        W66495   6.270  27.520  11.399
98078W        W66496   7.853  19.639   2.383
98079W        W66497   2.838  16.313  14.901
98080W        W66498   4.827  24.554  11.952
98081W        W66499  30.149  24.124  14.325
98082W        W66500  35.383  38.858  12.935
98083W        W66501   9.254  28.482   0.917
98084W        W66502  36.909   7.325   3.215
98085W        W66503  20.661  35.862   4.306
98086W        W66504  21.184  17.179  13.415
98087W        W66505  25.066   5.377   2.386
98088W        W66506  26.984   4.725  13.313
98089W        W66507  42.495  29.991   3.318
98090W        W66508  21.145  37.425   4.233
98091W        W66509   9.193  35.574   2.203
98092W        W66510  40.802  34.878   4.138
98093W        W66511  27.973  37.879   2.389
98094W        W66512  31.435  27.504   3.191
98095W        W66513   7.896  30.952   2.314
98096W        W66514  19.042  41.480  14.407
98097W        W66515  19.757  11.255   5.084
98098W        W66516   9.835  36.519  10.600
98099W        W66517  35.439  40.861  13.526
98100W        W66518  40.511  22.690  12.486
98101W        W66519  30.494   1.398   0.841
98102W        W66520  17.753  12.182  10.072
98103W        W66521  32.110   5.714  12.066
98104W        W66522   5.688  11.811  11.930
98105W        W66523  25.183  44.278  13.898
98106W        W66524  32.944  43.930   1.898
98107W        W66525  37.935  21.624   2.355
98108W        W66526  35.574   0.260  10.901
98109W        W66527  40.432   2.856  12.921
98110W        W66528  31.030  37.019  14.928
98111W        W66529   2.344  39.404   0.891
98112W        W66530   7.286  31.048  12.564
98113W        W66531  27.536   6.417   3.708
98114W        W66532  27.073  35.856   2.854
98115W        W66533  21.043  40.543  14.846
98116W        W66534  38.018   9.795   4.723
98117W        W66535   2.964   4.935   1.372
98118W        W66536  27.179  11.374  12.028
98119W        W66537  15.696   1.275   2.395
98120W        W66538  31.619  31.454  10.539
98121W        W66539  18.127   5.241   3.817
98122W        W66540  22.730   0.260  12.563
98123W        W66541  30.915  13.183  10.485
98124W        W66542  29.035  41.870   1.873
98125W        W66543  25.089   2.792  11.588
98126W        W66544  29.647  19.651   3.867
98127W        W66545  37.372  43.002   3.213
98128W        W66546  18.115  13.708  11.418
98129W        W66547   0.251   7.691  12.942
98130W        W66548  39.906   3.359   3.334
98131W        W66549  23.056  38.870   3.805
98132W        W66550  10.225  37.540   4.653
98133W        W66551  13.225   0.445  14.776
98134W        W66552  33.085  33.926  11.563
98135W        W66553   6.421  13.719   4.764
98136W        W66554  42.000   4.442  12.843
98137W        W66555  41.954   4.222  13.976
98138W        W66556   3.428  28.590   4.135
98139W        W66557  40.391  32.105  13.402
98140W        W66558   2.888  33.067  12.843
98141W        W66559  34.400  40.338   1.821
98142W        W66560  14.137   7.830   2.775
98143W        W66561  13.805  18.689   1.926
98144W        W66562  11.724  37.059  14.898
98145W        W66563  30.129  26.027  12.565
98146W        W66564  35.493  43.276  12.548
98147W        W66565  40.435  10.700  14.464
98148W        W66566   9.336  43.020  10.423
98149W        W66567  39.485   4.429   3.748
98150W        W66568   8.674  19.094   0.456
98151W        W66569  19.645  27.627   0.266
98152W        W66570   8.374  43.895  11.462
98153W        W66571  21.149  12.669   1.316
98154W        W66572   4.446  11.722   2.805
98155W        W66573  34.018  19.571  13.363
98156W        W66574  43.911  29.561   3.161
98157W        W66575  39.441   0.883  10.614
98158W        W66576  37.466  44.881  14.419
98159W        W66577  29.591  29.606  14.487
98160W        W66578   4.270  40.940   3.636
98161W        W66579  19.732   1.357   3.744
98162W        W66580  15.819  17.649   3.369
98163W        W66581   5.799  35.583   0.832
98164W        W66582  19.221  30.031  13.379
98165W        W66583   7.775  23.580   5.196
98166W        W66584  44.345  19.259  14.780
98167W        W66585  16.697   0.351   2.237
98168W        W66586  31.484  28.008   2.271
98169W        W66587  24.694  20.242   0.333
98170W        W66588  25.673  36.542  13.864
98171W        W66589  29.558  40.895  10.974
98172W        W66590   0.469  34.933   0.912
98173W        W66591  37.369   2.426   1.232
98174W        W66592  23.529  42.312   0.769
98175W        W66593  39.999   8.205  12.348
98176W        W66594   2.236  14.717  12.401
98177W        W66595  14.230  23.587   1.739
98178W        W66596  31.443  31.443  12.433
98179W        W66597  34.036  11.814   1.848
98180W        W66598  10.328  12.749   9.922
98181W        W66599  10.788   9.695  13.428
98182W        W66600  42.919  36.027  13.945
98183W        W66601  12.287  38.414   4.131
98184W        W66602  15.230   7.364  10.036
98185W        W66603  44.402  34.424  14.363
98186W        W66604  36.455  41.964   3.794
98187W        W66605  13.123   8.379   1.444
98188W        W66606  27.461  35.109  13.331
98189W        W66607   6.812  33.964   2.697
98190W        W66608  27.688  23.022   4.743
98191W        W66609   7.225   8.363   1.378
98192W        W66610  26.609  16.799   3.786
98193W        W66611  18.071  12.187   1.323
98194W        W66612  11.251  24.535   1.336
98195W        W66613  18.164  44.910   3.848
98196W        W66614  38.000  17.281  14.441
98197W        W66615   8.170  28.512   1.399
98198W        W66616   5.392  39.019  10.970
98199W        W66617  33.964  31.451  12.376
98200W        W66618  34.056  26.080   4.201
98201W        W66619  30.471  11.338   0.729
98202W        W66620  32.125   6.264  11.876
98203W        W66621  30.124  15.792  14.908
98204W        W66622  33.433  41.870   1.387
98205W        W66623  33.415  17.648   3.808
98206W        W66624   5.413  19.122   1.261
98207W        W66625  25.198  12.845  13.010
98208W        W66626  10.856  17.700  14.302
98209W        W66627  39.027  40.497  12.395
98210W        W66628  29.657  27.661   3.359
98211W        W66629  21.582  33.601  10.419
98212W        W66630  44.974  32.122  13.049
98213W        W66631  16.678  15.214  11.900
98214W        W66632   8.817  18.721  12.853
98215W        W66633  33.116  23.221   0.837
98216W        W66634  34.401   4.819   2.334
98217W        W66635  39.516  35.493  13.536
98218W        W66636  27.188   5.837   1.875
98219W        W66637  21.615  29.166   0.253
98220W        W66638   0.767  40.992  13.813
98221W        W66639  25.099  27.664  13.452
98222W        W66640  29.034  44.810   3.691
98223W        W66641  35.878  36.375   5.720
98224W        W66642   1.249  43.916  13.979
98225W        W66643  41.366  42.999   1.823
98226W        W66644   0.878  12.309   0.846
98227W        W66645  34.043  31.062  12.395
98228W        W66646  39.990  13.323  13.825
98229W        W66647  39.322  14.197   3.846
98230W        W66648   2.897   6.390  11.905
98231W        W66649  10.741  15.303   2.325
98232W        W66650  34.585   6.258   2.184
98233W        W66651  11.231  31.926   3.324
98234W        W66652  18.177  29.640  10.499
98235W        W66653  30.597   1.393  13.800
98236W        W66654  31.485  24.191   0.894
98237W        W66655  37.368  26.615   4.797
98238W        W66656  44.921  11.183   1.278
98239W        W66657  25.173  25.962  11.611
98240W        W66658  11.371  32.579   1.282
98241W        W66659   5.320  33.612  13.450
98242W        W66660  12.737  13.280   1.297
98243W        W66661   3.449  20.608   5.783
98244W        W66662  34.072  44.345  12.044
98245W        W66663  19.208  11.741   0.375
98246W        W66664  38.866   3.260   0.753
98247W        W66665  39.967  44.451  14.937
98248W        W66666  13.118  14.599  13.341
98249W        W66667   1.831  16.805   2.714
98250W        W66668  34.494  26.184   4.342
98251W        W66669  33.576  15.317  10.899
98252W        W66670  29.173  31.488  12.483
98253W        W66671   0.793   8.163  13.414
98254W        W66672   6.810  28.013   4.719
98255W        W66673  24.517  27.533  10.472
98256W        W66674  26.689  14.300   2.788
98257W        W66675  17.188   3.380  14.443
98258W        W66676  41.292  24.686   3.788
98259W        W66677  22.024  17.248   3.806
98260W        W66678  21.130  14.670   3.378
98261W        W66679   0.478   5.438   2.730
98262W        W66680  21.554  30.651   4.309
98263W        W66681  35.392  43.305   3.253
98264W        W66682   5.688  36.949  12.356
98265W        W66683  13.679  32.111  14.276
98266W        W66684  41.440  24.563   4.819
98267W        W66685  12.285   6.316   4.786
98268W        W66686  35.441  17.282  12.017
98269W        W66687  17.250  31.524   1.749
98270W        W66688  18.665  30.957   0.800
98271W        W66689  20.109  34.444   4.831
98272W        W66690   2.904  10.872  13.028
98273W        W66691  25.035  10.868  12.455
98274W        W66692  19.654   3.840  11.009
98275W        W66693   9.323  44.361   1.856
98276W        W66694  12.156  36.388   0.728
98277W        W66695  21.127   5.314   0.858
98278W        W66696  31.554   6.857  14.336
98279W        W66697  21.219  42.474  12.850
98280W        W66698   1.293  13.764  10.551
98281W        W66699  33.388  25.473  14.771
98282W        W66700  17.099   1.897  14.942
98283W        W66701   2.230   6.873  10.972
98284W        W66702  38.066   6.190  10.433
98285W        W66703  44.844  16.644  11.534
98286W        W66704  23.168  22.665   1.285
98287W        W66705  37.070  42.993  11.104
98288W        W66706   1.971  30.103   3.212
98289W        W66707  16.127  33.460   3.198
98290W        W66708  34.096  34.932  11.385
98291W        W66709  13.154  15.212  14.019
98292W        W66710   8.681   0.744   1.245
98293W        W66711  14.291   6.242   0.269
98294W        W66712   8.273  44.968   0.395
98295W        W66713   8.199   9.701   0.409
98296W        W66714  37.036  18.552   3.799
98297W        W66715  15.706  24.227   2.715
98298W        W66716  14.171  32.430  12.459
98299W        W66717   7.797  16.576   0.358
98300W        W66718   7.751   4.824   4.216
98301W        W66719  20.582   5.244   1.749
98302W        W66720   9.767  10.213   3.836
98303W        W66721  40.852  28.184   0.847
98304W        W66722  30.980  41.911  14.448
98305W        W66723  21.236  32.038  14.025
98306W        W66724  25.180  29.447  11.464
98307W        W66725  35.419  24.141   1.901
98308W        W66726   4.431  15.689   1.702
98309W        W66727   0.762  32.094  13.889
98310W        W66728   4.354  12.706   3.867
98311W        W66729  27.687  19.705  11.898
98312W        W66730  20.194  24.666   1.864
98313W        W66731   0.403  16.096   1.246
98314W        W66732   8.812   3.847   2.335
98315W        W66733  23.222  25.603   1.406
98316W        W66734  30.110  39.848  10.595
98317W        W66735   9.200   7.397  13.062
98318W        W66736  18.777   8.294   2.367
98319W        W66737  30.624   8.884   2.829
98320W        W66738  23.136  27.007  14.812
98321W        W66739  27.142  40.533  10.413
98322W        W66740  15.709  43.835  13.416
98323W        W66741  28.621  16.596   0.853
98324W        W66742  10.804  23.685  11.029
98325W        W66743  11.165  41.948   2.703
98326W        W66744  17.172  31.632  11.900
98327W        W66745  41.911  31.049  12.404
98328W        W66746  29.611   5.236  12.377
98329W        W66747  27.575  27.608   1.920
98330W        W66748  20.529  42.784  11.923
98331W        W66749  43.509   7.344   4.123
98332W        W66750  32.600  27.526   1.716
98333W        W66751  12.273  10.213  11.873
98334W        W66752  44.990  28.623   3.808
98335W        W66753   4.408  19.724   2.219
98336W        W66754  33.900  24.112  13.499
98337W        W66755  43.449  37.076   3.223
98338W        W66756   1.897   9.885  13.017
98339W        W66757   8.745   3.850   4.618
98340W        W66758   4.436  16.093  14.835
98341W        W66759  36.865  22.726   3.715
98342W        W66760   4.800  30.469  10.500
98343W        W66761  18.243  32.606   1.770
98344W        W66762  28.036  37.895  11.931
98345W        W66763   0.348  33.097  14.898
98346W        W66764  33.909  13.255   4.645
98347W        W66765   1.757  39.379  12.081
98348W        W66766  40.835   8.285   3.774
98349W        W66767  20.576  12.647   1.823
98350W        W66768  43.840   6.355   0.369
98351W        W66769  44.909  39.337  11.024
98352W        W66770  27.117  44.775   0.781
98353W        W66771  35.472  27.050  12.545
98354W        W66772  15.777  22.234  13.047
98355W        W66773  36.545  39.518   4.147
98356W        W66774   2.748  22.083   3.788
98357W        W66775  34.083  35.363  14.394
98358W        W66776   1.416  43.351   0.904
98359W        W66777  44.390   5.241  13.920
98360W        W66778  23.133   6.888   3.842
98361W        W66779   0.458   7.841  10.628
98362W        W66780   6.346  21.209  10.134
98363W        W66781   6.698  42.381   4.194
98364W        W66782  40.395   1.452  14.916
98365W        W66783  42.832  25.992   4.704
98366W        W66784   3.853  32.557  10.924
98367W        W66785  27.160   8.354   0.467
98368W        W66786  40.854  28.504   3.861
98369W        W66787  30.994   9.681  10.459
98370W        W66788  27.152  11.187  12.553
98371W        W66789  33.022   7.691  14.376
98372W        W66790  30.111   2.399   2.690
98373W        W66791   7.735  16.225  13.019
98374W        W66792  13.760  31.012  13.976
98375W        W66793  19.247   2.460   1.880
98376W        W66794  16.234  27.192   2.253
98377W        W66795  36.573  29.539  10.563
98378W        W66796  20.754  27.663   4.131
98379W        W66797  31.531  40.969   4.624
98380W        W66798  26.609   7.830   2.799
98381W        W66799  35.391  40.930   3.255
98382W        W66800   8.201  39.066   1.254
98383W        W66801   3.874   6.699   4.750
98384W        W66802  20.525  23.730   0.242
98385W        W66803  41.331  21.566  11.442
98386W        W66804  29.069  27.184  14.299
98387W        W66805  38.945   5.860  12.082
98388W        W66806  32.132   9.183   1.825
98389W        W66807  28.517  13.289   4.671
98390W        W66808  43.460  31.965   3.195
98391W        W66809  14.280  15.711   1.232
98392W        W66810  19.046  20.636   0.829
98393W        W66811  35.574  24.078   2.768
98394W        W66812  43.783  21.680   9.533
98395W        W66813  13.302  19.127  14.992
98396W        W66814  26.641   4.243   3.289
98397W        W66815  39.818  17.300   2.886
98398W        W66816  12.747   6.850   1.821
98399W        W66817  29.582  13.134   1.926
98400W        W66818   8.732  23.569   4.667
98401W        W66819  28.438  35.089   4.196
98402W        W66820  34.446  29.976  14.383
98403W        W66821   4.210  23.105   3.184
98404W        W66822   9.261  19.617   2.744
98405W        W66823  33.977  41.040  12.570
98406W        W66824  13.233   1.381   4.734
98407W        W66825  44.346   8.901  11.061
98408W        W66826   3.311  27.044  12.932
98409W        W66827  18.779  20.584  13.855
98410W        W66828  26.700  14.116   2.340
98411W        W66829   1.452   1.799  14.817
98412W        W66830  42.292  11.346  13.393
98413W        W66831   5.328  17.721  12.548
98414W        W66832  35.888  15.620   0.855
98415W        W66833  16.113  26.546   2.180
98416W        W66834  12.750  12.341   3.222
98417W        W66835  36.877  43.824  12.409
98418W        W66836   3.397  28.462  12.084
98419W        W66837  30.449  12.711  12.839
98420W        W66838   1.414  31.985   0.787
98421W        W66839  37.968  26.019  14.807
98422W        W66840  27.064  26.539  12.053
98423W        W66841  13.178  19.616  11.421
98424W        W66842  21.225  40.416  12.869
98425W        W66843  22.247   1.831  12.080
98426W        W66844  27.944  30.654  13.841
98427W        W66845  15.611   6.254  14.890
98428W        W66846  23.560  38.028   5.213
98429W        W66847  37.425  33.943  12.420
98430W        W66848   0.344  44.931  11.067
98431W        W66849  10.374  37.984  12.843
98432W        W66850   9.264  37.514   2.305
98433W        W66851   6.260   2.865  13.325
98434W        W66852  38.851  30.483   1.811
98435W        W66853   3.874  24.618  12.383
98436W        W66854  13.652  13.201   3.709
98437W        W66855   2.373  42.920  10.104
98438W        W66856   2.823  11.254   0.448
98439W        W66857  20.537   4.359  14.835
98440W        W66858  24.721   3.739  14.810
98441W        W66859   6.726  32.587  12.986
98442W        W66860   6.232   7.799  12.349
98443W        W66861   8.781   8.251  12.380
98444W        W66862  36.092  35.102  12.893
98445W        W66863  44.380  35.102   3.302
98446W        W66864   5.772  43.972  13.514
98447W        W66865  33.933  43.336  14.415
98448W        W66866  17.104  17.604   4.747
98449W        W66867  19.052  25.095  13.813
98450W        W66868   8.870  36.061   2.297
98451W        W66869  30.929  33.520   1.253
98452W        W66870  11.803   0.890   0.763
98453W        W66871  19.188  20.257  14.452
98454W        W66872   2.385   4.325  13.510
98455W        W66873  22.585  40.946   4.837
98456W        W66874  25.140   0.826   2.787
98457W        W66875  10.261  34.905  11.396
98458W        W66876  15.645  30.118   3.165
98459W        W66877  17.202   4.274   2.405
98460W        W66878  13.174  15.298   1.821
98461W        W66879   9.162  27.510  10.637
98462W        W66880   8.660  36.405   3.198
98463W        W66881  35.455   4.337  11.001
98464W        W66882  28.552   7.293   4.603
98465W        W66883   9.790  12.829   1.284
98466W        W66884  33.896  29.504   1.417
98467W        W66885  33.059   7.691   1.308
98468W        W66886  40.977  35.535  14.818
98469W        W66887  42.969   9.792  14.305
98470W        W66888   4.913  34.374  11.568
98471W        W66889  25.501   2.846  11.405
98472W        W66890  26.490   3.359   0.906
98473W        W66891   1.339  41.964   0.803
98474W        W66892  44.384  30.437   3.780
98475W        W66893  33.048  38.409  12.430
98476W        W66894   4.449   7.286   0.446
98477W        W66895  43.000  38.939   9.594
98478W        W66896  30.992  37.570  10.549
98479W        W66897  42.797  19.678  14.760
98480W        W66898  34.496  22.691   2.288
98481W        W66899  30.077  20.583   2.869
98482W        W66900  42.353  22.193  13.835
98483W        W66901  38.017   4.764  12.074
98484W        W66902  24.692   7.702   0.855
98485W        W66903  26.538  14.139  13.033
98486W        W66904   1.808   8.734  11.964
98487W        W66905  21.731  42.816   1.754
98488W        W66906  42.787   6.779  11.440
98489W        W66907   5.393  41.907  10.907
98490W        W66908  12.612  32.936  11.118
98491W        W66909  16.642  27.061   3.634
98492W        W66910   3.780  41.009  14.393
98493W        W66911  10.818  11.328   2.269
98494W        W66912  26.066  19.764  12.478
98495W        W66913   8.824  29.582  12.898
98496W        W66914  38.540  36.851   3.698
98497W        W66915  23.990   6.765  11.462
98498W        W66916  37.027  24.023  13.929
98499W        W66917   2.256  41.491   1.423
98500W        W66918  27.110  25.013   3.680
98501W        W66919  11.302  34.578   3.380
98502W        W66920  35.031   9.333  12.845
98503W        W66921  30.088   3.946   3.757
98504W        W66922  25.659  38.945  14.878
98505W        W66923  30.441   0.401   4.288
98506W        W66924  13.728  44.953  11.051
98507W        W66925  44.798  27.630   4.272
98508W        W66926  32.527  12.238  12.424
98509W        W66927  23.156  34.472  13.998
98510W        W66928  39.926  24.557   1.863
98511W        W66929  37.032   1.332   2.389
98512W        W66930   7.838  16.672  14.414
98513W        W66931  28.955   9.360   4.200
98514W        W66932  26.048   2.721   0.394
98515W        W66933  29.973  10.752   4.743
98516W        W66934  22.090  22.664   4.680
98517W        W66935  44.811  18.694   1.717
98518W        W66936  31.591  23.690  13.370
98519W        W66937  38.405  34.599  12.848
98520W        W66938  14.720  27.462  13.044
98521W        W66939  19.097  43.456  14.030
98522W        W66940  26.033   4.318  11.915
98523W        W66941  13.173   3.951  11.101
98524W        W66942  12.805   2.465  10.939
98525W        W66943   7.709  22.237   0.424
98526W        W66944   9.206  43.969   4.758
98527W        W66945  40.443  17.284   0.901
98528W        W66946  22.564  10.304  13.922
98529W        W66947  17.644  37.989  14.010
98530W        W66948  15.623  41.514   3.773
98531W        W66949  34.502  44.840  13.040
98532W        W66950  22.698  29.020   3.290
98533W        W66951   7.750  32.579   1.211
98534W        W66952  43.794  31.543   1.888
98535W        W66953  40.331  33.466   1.762
98536W        W66954  22.547  35.960   4.784
98537W        W66955  27.449  41.944  13.970
98538W        W66956  15.270   9.375   2.293
98539W        W66957  39.962   3.339  14.480
98540W        W66958  19.639   3.873   3.750
98541W        W66959  36.485   6.355  11.500
98542W        W66960  27.660   8.259  11.123
98543W        W66961  24.004  35.604   2.186
98544W        W66962   6.243  28.609  14.849
98545W        W66963  38.898  27.610  13.372
98546W        W66964  29.100   3.820   4.198
98547W        W66965  18.613  19.199  12.832
98548W        W66966  26.658  33.987  13.004
98549W        W66967  27.029   5.753  13.442
98550W        W66968  40.008   7.248  11.042
98551W        W66969  18.278  22.571   0.341
98552W        W66970  33.002  28.954   2.219
98553W        W66971  31.999   4.369  13.378
98554W        W66972  43.000  16.693   0.726
98555W        W66973   1.746  29.926   0.265
98556W        W66974  24.619  24.723   3.325
98557W        W66975   5.257  44.985   1.797
98558W        W66976  18.115   4.408   0.780
98559W        W66977   8.371  37.359   4.178
98560W        W66978  35.000  31.416  10.919
98561W        W66979  36.075  11.224  11.417
98562W        W66980  32.103  31.903   1.807
98563W        W66981  17.140   2.283   4.652
98564W        W66982  11.313  38.971   1.450
98565W        W66983  33.945  23.670  13.842
98566W        W66984  28.671  42.979  11.587
98567W        W66985  13.821  16.602   3.230
98568W        W66986  35.856   8.659   2.382
98569W        W66987  12.291  44.271  10.956
98570W        W66988  23.049  10.206  10.605
98571W        W66989  44.466  25.564   4.613
98572W        W66990  22.166  24.028   4.342
98573W        W66991   4.939  28.598  10.140
98574W        W66992  16.189   2.796   3.240
98575W        W66993  36.393   9.676   0.443
98576W        W66994  44.444  31.041  10.572
98577W        W66995  19.588  11.207  10.926
98578W        W66996   0.289  17.583  12.480
98579W        W66997  19.568   0.871   2.374
98580W        W66998  13.617  12.783  11.912
98581W        W66999  24.003  20.063   0.785
98582W        W67000  15.166  35.525   2.398
98583W        W67001  36.587  29.444   5.317
98584W        W67002  20.066  33.546   2.825
98585W        W67003   9.727  11.650  11.444
98586W        W67004  32.608  41.810   3.233
98587W        W67005  13.602  18.629   2.800
98588W        W67006  10.161   3.757   3.728
98589W        W67007   0.394  13.655   3.330
98590W        W67008  12.817  18.218  14.389
98591W        W67009  22.586  29.007  13.006
98592W        W67010  44.781  24.156  14.877
98593W        W67011   4.298  19.041   0.440
98594W        W67012  22.726   5.436   0.819
98595W        W67013  20.103  32.975  13.528
98596W        W67014  21.183  31.147   2.862
98597W        W67015  25.083  31.572   3.671
98598W        W67016  19.578  32.002  14.020
98599W        W67017  11.292  31.899  14.951
98600W        W67018  29.483  14.807  14.962
98601W        W67019  23.617  33.392   2.232
98602W        W67020   5.885  31.913   4.673
98603W        W67021  39.829  15.708   3.713
98604W        W67022  11.208   5.365  10.921
98605W        W67023  37.896  14.258  10.917
98606W        W67024   3.759  21.676   5.579
98607W        W67025  42.360   6.825  14.985
98608W        W67026  37.084   9.723   3.263
98609W        W67027  20.160  40.896   2.744
98610W        W67028  31.511  18.648  11.894
98611W        W67029  32.616   2.946   2.184
98612W        W67030  17.599  14.691  10.429
98613W        W67031   1.242   1.901   3.229
98614W        W67032  24.724  37.365  14.516
98615W        W67033   5.236  42.491  14.504
98616W        W67034   5.408  38.455   1.918
98617W        W67035  10.311  22.192   9.971
98618W        W67036  40.921  26.700   3.206
98619W        W67037  13.765  21.057  11.943
98620W        W67038  27.638  34.488   2.185
98621W        W67039  35.547  41.863  12.026
98622W        W67040  35.990  17.609  13.923
98623W        W67041  30.544  24.005  10.986
98624W        W67042  36.574   3.259  14.492
98625W        W67043  29.075  13.288   1.897
98626W        W67044  13.176  28.994   4.816
98627W        W67045  43.976   8.181  11.906
98628W        W67046  13.778   1.810  12.433
98629W        W67047  44.979   8.691   1.277
98630W        W67048  30.606  15.109   2.710
98631W        W67049  30.437  39.322   2.303
98632W        W67050  25.060  20.142   0.265
98633W        W67051  11.707  18.143  12.379
98634W        W67052  38.360   3.752   2.670
98635W        W67053  30.459  23.694   4.173
98636W        W67054  17.100  20.613  13.488
98637W        W67055  38.398   9.267  12.931
98638W        W67056   5.811  25.518  13.943
98639W        W67057  18.781  22.622   4.287
98640W        W67058  19.730  22.225  13.950
98641W        W67059  19.668  29.633  12.067
98642W        W67060  23.200  37.349  11.594
98643W        W67061  11.631  36.040   0.938
98644W        W67062  16.306  34.459  13.331
98645W        W67063  11.752  14.186   0.397
98646W        W67064  32.402  30.537   5.084
98647W        W67065  37.541   0.360  10.555
98648W        W67066  18.081  37.901   4.322
98649W        W67067  11.265  33.916  12.884
98650W        W67068   7.203  21.715  13.358
98651W        W67069  44.948  24.141  12.876
98652W        W67070  14.240  17.766  13.877
98653W        W67071  11.275   1.777   1.243
98654W        W67072  25.077   5.272   2.766
98655W        W67073  40.538  43.291   3.725
98656W        W67074  42.507  14.112   1.926
98657W        W67075  22.570  15.772   0.292
98658W        W67076  25.193   5.915   1.747
98659W        W67077  43.393  34.090   1.710
98660W        W67078  31.424  24.162  12.965
98661W        W67079  29.435  24.650  14.440
98662W        W67080   7.340  35.475   1.915
98663W        W67081  33.448  32.484   2.415
98664W        W67082  15.807   1.759   1.894
98665W        W67083   1.303  18.770  12.421
98666W        W67084  19.073  34.940  14.818
98667W        W67085  28.088   7.203   0.792
98668W        W67086  31.480  33.521  10.522
98669W        W67087  20.052  30.650  10.533
98670W        W67088  12.123   6.838   0.962
98671W        W67089  20.549   2.257  14.296
98672W        W67090  20.184  19.606  11.022
98673W        W67091  31.510  16.249  11.970
98674W        W67092  30.482  32.439   4.320
98675W        W67093  16.634  13.140   4.339
98676W        W67094   5.312  25.978  10.485
98677W        W67095  18.050  41.368   3.852
98678W        W67096   0.405  31.416   1.922
98679W        W67097  13.265  44.883  13.969
98680W        W67098  12.855   7.258  12.840
98681W        W67099  30.448  28.640  11.382
98682W        W67100  39.837  32.946  13.968
98683W        W67101  21.083  13.322  11.033
98684W        W67102   3.280  12.162  12.864
98685W        W67103   9.301   9.770   3.797
98686W        W67104   2.812  12.690   1.890
98687W        W67105  23.201   0.898  13.902
98688W        W67106   3.834   1.259   4.163
98689W        W67107  20.222  43.483   1.382
98690W        W67108  19.108  31.496   3.218
98691W        W67109  27.083  27.535  13.407
98692W        W67110  29.669  17.570  12.840
98693W        W67111  39.465  15.754   4.719
98694W        W67112  16.715  36.367   1.752
98695W        W67113  39.326  15.227   3.733
98696W        W67114   5.270  28.603  11.372
98697W        W67115  38.559  40.927  13.377
98698W        W67116   5.876   3.950  12.996
98699W        W67117  40.934   5.347  13.796
98700W        W67118  19.092  34.866   0.944
98701W        W67119  18.674   1.763  14.473
98702W        W67120  18.760  25.091  10.915
98703W        W67121   3.756  12.291  11.449
98704W        W67122   5.263  35.573  13.323
98705W        W67123  43.011   0.326   2.288
98706W        W67124  22.073  15.687   1.286
98707W        W67125   4.437  22.743  10.568
98708W        W67126   9.226  21.194   4.155
98709W        W67127  42.862  24.617   2.199
98710W        W67128  14.671  31.059  14.874
98711W        W67129  12.700  32.511   4.637
98712W        W67130  14.731  20.204   3.738
98713W        W67131  44.411  20.631  10.555
98714W        W67132  44.786   2.349   4.751
98715W        W67133  26.518  18.105  13.485
98716W        W67134  24.137  14.613  13.385
98717W        W67135  14.794  10.646  11.532
98718W        W67136  28.597   7.697  12.502
98719W        W67137  22.079  36.554   0.778
98720W        W67138  20.226   1.775  10.504
98721W        W67139  33.460  19.552  13.403
98722W        W67140   1.870  18.572   0.862
98723W        W67141   2.341   4.795   4.724
98724W        W67142   8.694  26.500  14.515
98725W        W67143  20.131   0.452   0.414
98726W        W67144  37.484  35.517  13.858
98727W        W67145   9.210   4.277   2.889
98728W        W67146  30.650  20.160  11.380
98729W        W67147  18.216   8.242   2.407
98730W        W67148  44.341  21.755   1.847
98731W        W67149  32.575   7.288   3.682
98732W        W67150  18.591  37.524  12.401
98733W        W67151  29.092  30.087  12.469
98734W        W67152  28.466   2.240  10.987
98735W        W67153   1.844  38.476   2.227
98736W        W67154   3.308  44.326   3.800
98737W        W67155  42.899  39.921  11.492
98738W        W67156   5.704  35.390  10.561
98739W        W67157  35.602  39.964   5.278
98740W        W67158   4.825   7.740   5.292
98741W        W67159  14.697  19.575  10.611
98742W        W67160  29.448   1.877  12.554
98743W        W67161   4.287   4.376  12.051
98744W        W67162   6.402  37.937   0.820
98745W        W67163  32.623   5.919   4.282
98746W        W67164  13.798  29.551   4.787
98747W        W67165  41.875  23.052  13.946
98748W        W67166  38.018  15.683   0.767
98749W        W67167   9.352   1.853  11.053
98750W        W67168  31.501  41.344   1.917
98751W        W67169  34.956  38.053  10.078
98752W        W67170   2.797  31.445   1.755
98753W        W67171   3.373  43.401  14.023
98754W        W67172   1.758   6.356   2.296
98755W        W67173  30.527   1.824   1.431
98756W        W67174  13.276  18.770   3.677
98757W        W67175  19.543  25.603  13.833
98758W        W67176   3.242   7.259  10.909
98759W        W67177   5.885  19.120  14.443
98760W        W67178  15.720  24.654  10.499
98761W        W67179   3.354  27.638   0.380
98762W        W67180  41.415  20.543   3.271
98763W        W67181  37.037   5.298   1.286
98764W        W67182  31.964  24.978  13.834
98765W        W67183  36.504   9.329  10.562
98766W        W67184  44.329   7.226   1.756
98767W        W67185  24.536  20.585  12.929
98768W        W67186  34.587  23.236  11.043
98769W        W67187  37.358  36.887  12.095
98770W        W67188  43.446  22.206  12.971
98771W        W67189  32.985  39.425  12.070
98772W        W67190   7.787   1.795   1.776
98773W        W67191  32.088   2.404   1.704
98774W        W67192   7.842  37.519   1.358
98775W        W67193  17.594   6.370   4.187
98776W        W67194  38.338  26.651   4.797
98777W        W67195  16.589  25.564  14.454
98778W        W67196  19.214   9.727   1.440
98779W        W67197  42.916  32.443  12.416
98780W        W67198  27.943  23.549  11.947
98781W        W67199   1.800  43.828  13.967
98782W        W67200  14.208  17.245  12.916
98783W        W67201  25.492   3.824   4.612
98784W        W67202  38.409  21.635   4.210
98785W        W67203  20.100  11.786   0.850
98786W        W67204  44.473  31.566  10.118
98787W        W67205   3.890  17.093  10.072
98788W        W67206  18.290   4.866  13.477
98789W        W67207  22.652   9.254   1.880
98790W        W67208   4.887   0.913  10.403
98791W        W67209  14.644  34.435  11.537
98792W        W67210  27.120  16.694   1.435
98793W        W67211  43.918   4.395   3.718
98794W        W67212  25.104  23.690  13.401
98795W        W67213  20.671  36.398   1.932
98796W        W67214  22.670  40.934  14.981
98797W        W67215  39.463  35.553   2.873
98798W        W67216  33.435   5.697   1.787
98799W        W67217   0.260   3.361   0.323
98800W        W67218  41.291  36.055  10.613
98801W        W67219  13.254  30.097  13.930
98802W        W67220  40.543  43.790  13.009
98803W        W67221  20.034  17.691   4.685
98804W        W67222  33.579   2.845  13.913
98805W        W67223  37.461  28.941  11.416
98806W        W67224  34.412  37.453  12.921
98807W        W67225  37.861   7.804   4.630
98808W        W67226   2.285  20.645   0.290
98809W        W67227   2.817   1.351  10.548
98810W        W67228  10.870  13.215   1.756
98811W        W67229  42.452  30.437  11.007
98812W        W67230  30.586  44.401  11.587
98813W        W67231  38.406  44.406  11.013
98814W        W67232  44.955  29.051  13.794
98815W        W67233  30.110  12.639   1.406
98816W        W67234  38.910   7.371  10.531
98817W        W67235  17.132  36.387   4.203
98818W        W67236  38.899  21.523   9.934
98819W        W67237  42.493  16.619   3.367
98820W        W67238  30.503  38.956   2.785
98821W        W67239  25.683  13.318  12.083
98822W        W67240  41.490  20.670  11.551
98823W        W67241  16.624  13.130   0.813
98824W        W67242  15.281  15.266   0.742
98825W        W67243   0.937  30.119   0.819
98826W        W67244   7.749  42.962   1.404
98827W        W67245  44.450  44.432   5.148
98828W        W67246   8.814  33.058   1.718
98829W        W67247  39.994  12.193  13.864
98830W        W67248  28.540  29.957   1.892
98831W        W67249   3.224  34.930   2.185
98832W        W67250  15.635   0.334  12.833
98833W        W67251  40.969  35.407  11.900
98834W        W67252  22.647  31.635  13.315
98835W        W67253   9.814  17.271  13.886
98836W        W67254  31.014  23.682   3.211
98837W        W67255  44.838  29.657   1.791
98838W        W67256  22.604  40.382   1.394
98839W        W67257  10.174  31.970  12.966
98840W        W67258  19.264  18.243  10.562
98841W        W67259  17.234   0.803  10.041
98842W        W67260   3.294   1.759  13.853
98843W        W67261  18.133  22.583   2.810
98844W        W67262  12.241  28.108  14.966
98845W        W67263  17.597  15.108  12.938
98846W        W67264  27.526  22.204   4.134
98847W        W67265  16.797  13.718   1.373
98848W        W67266  28.077  43.426   1.814
98849W        W67267  33.447  22.134   4.792
98850W        W67268  20.093  37.496  12.005
98851W        W67269  22.742  21.157   1.300
98852W        W67270  26.542   4.841  11.374
98853W        W67271   1.246  27.195  13.379
98854W        W67272   3.333   4.373  11.502
98855W        W67273   2.826  44.779  13.870
98856W        W67274   1.378   0.949  10.636
98857W        W67275  20.656   7.901   0.416
98858W        W67276  40.852  19.595  12.417
98859W        W67277  32.086  44.865   0.343
98860W        W67278  29.963   1.764   1.420
98861W        W67279  23.024  32.619  10.919
98862W        W67280   5.792   3.341   2.336
98863W        W67281  13.126   8.724  11.523
98864W        W67282   5.354  30.595   5.183
98865W        W67283  14.665  16.675   0.411
98866W        W67284  43.329  21.169   5.109
98867W        W67285  34.531  14.672  13.968
98868W        W67286  20.229  32.024   1.384
98869W        W67287  40.902  17.074   2.369
98870W        W67288  14.153   3.414  14.837
98871W        W67289  11.829  42.423   0.941
98872W        W67290  27.488  39.475   0.793
98873W        W67291  38.343  31.986   4.295
98874W        W67292  35.359  35.995   0.411
98875W        W67293  21.172  36.949  11.465
98876W        W67294  18.104  20.147  11.457
98877W        W67295  25.017  13.804  12.937
98878W        W67296  29.032   7.272   2.878
98879W        W67297   7.678  14.333   4.215
98880W        W67298  13.749  12.156   4.744
98881W        W67299   3.748   8.165  10.571
98882W        W67300  19.265  34.413   4.791
98883W        W67301  21.545  24.078  13.458
98884W        W67302  23.129   4.258   0.298
98885W        W67303   7.335  18.196  10.498
98886W        W67304  19.192  21.234  14.325
98887W        W67305   1.275  11.305  11.419
98888W        W67306   6.841  29.938  13.928
98889W        W67307  22.500  33.903   0.856
98890W        W67308  13.268  35.545  14.327
98891W        W67309   7.906  25.688   2.849
98892W        W67310  40.005  14.139   1.351
98893W        W67311  27.080  14.766   2.670
98894W        W67312  37.932  20.641  14.775
98895W        W67313   7.382   1.875  13.823
98896W        W67314  44.854  41.340  13.318
98897W        W67315  31.998  44.363  13.852
98898W        W67316  32.942  12.229   1.308
98899W        W67317  10.801  25.962   0.244
98900W        W67318  37.043  13.111  10.913
98901W        W67319  38.910  15.781  13.528
98902W        W67320  18.283  22.529   3.286
98903W        W67321  26.503  43.931  14.986
98904W        W67322  11.352  13.789  12.032
98905W        W67323  34.054   8.746  11.436
98906W        W67324  21.257  13.138  13.474
98907W        W67325  34.608   9.890  10.416
98908W        W67326  25.558  34.494   3.723
98909W        W67327   1.750  36.347  11.399
98910W        W67328  35.890  14.147  12.569
98911W        W67329   7.340  44.997  14.501
98912W        W67330  34.000   2.322   0.254
98913W        W67331  25.026  39.816   1.813
98914W        W67332  33.616  28.121   0.260
98915W        W67333  24.510   2.234   2.856
98916W        W67334   2.888   3.777   3.209
98917W        W67335  31.560  10.669   0.790
98918W        W67336   8.249  41.929   4.324
98919W        W67337  39.444  30.921  10.905
98920W        W67338  33.920  13.764   1.317
98921W        W67339  13.187   2.306  14.359
98922W        W67340  34.008  17.601  13.979
98923W        W67341  16.275   1.375   3.653
98924W        W67342  19.089  21.745  13.314
98925W        W67343  13.747  28.061  11.473
98926W        W67344  26.975  40.376  12.078
98927W        W67345   2.909  25.643  10.610
98928W        W67346  22.560  43.312   0.461
98929W        W67347  16.203   0.889   2.192
98930W        W67348  35.583  19.767   4.696
98931W        W67349  40.530   8.216  13.886
98932W        W67350  27.499   8.819  12.921
98933W        W67351   5.923  13.302  13.013
98934W        W67352  33.972  30.073   3.798
98935W        W67353  21.547  40.842  10.576
98936W        W67354  21.609   9.751   2.254
98937W        W67355  35.556  35.362   2.703
98938W        W67356  40.455  42.003  11.081
98939W        W67357  16.673  15.728  14.331
98940W        W67358  43.515   9.374  12.512
98941W        W67359  32.958  26.128   0.263
98942W        W67360   1.396  19.745   3.632
98943W        W67361  11.820  36.917   0.748
98944W        W67362  44.843  13.651   5.673
98945W        W67363  29.538  27.197   0.411
98946W        W67364  19.192  31.401  14.363
98947W        W67365  43.879  42.394  12.004
98948W        W67366  11.652  36.507  13.938
98949W        W67367  25.640  40.373   5.316
98950W        W67368  30.509   3.217   3.197
98951W        W67369  23.068  34.021   2.347
98952W        W67370  11.824  42.377   2.251
98953W        W67371  15.324  42.894  12.931
98954W        W67372   7.814  38.918  10.918
98955W        W67373  11.169   8.242   0.788
98956W        W67374  39.953  15.611  13.060
98957W        W67375  32.566  35.904  13.521
98958W        W67376  37.022   4.267  14.472
98959W        W67377  32.125  16.245  12.055
98960W        W67378  14.122  29.633   3.366
98961W        W67379   8.775  41.517  11.119
98962W        W67380   2.240  19.720   1.226
98963W        W67381  31.015  33.453   0.422
98964W        W67382  10.377  14.204  11.392
98965W        W67383  44.458  27.633  14.945
98966W        W67384   1.322   7.300  14.434
98967W        W67385  18.633  35.379   1.752
98968W        W67386  14.682  13.265   3.189
98969W        W67387  31.451  15.715  14.944
98970W        W67388   9.257  21.606  10.924
98971W        W67389  26.208   8.248   4.675
98972W        W67390  33.431  38.522  12.873
98973W        W67391  26.541  29.570   4.166
98974W        W67392  25.188   4.322  10.994
98975W        W67393   1.413  10.721  11.540
98976W        W67394  34.944  11.834   1.345
98977W        W67395  34.070  37.551  13.438
98978W        W67396  18.660  38.559  10.558
98979W        W67397  33.996   0.325  13.923
98980W        W67398  20.123  10.751  13.380
98981W        W67399  22.210  13.300   0.475
98982W        W67400  11.780  42.292   1.260
98983W        W67401  29.424   7.819   0.928
98984W        W67402  27.069  28.183   2.815
98985W        W67403  30.533  33.428  13.354
98986W        W67404  19.091  37.854  14.840
98987W        W67405   4.736  21.054   3.195
98988W        W67406  44.758  37.081  10.944
98989W        W67407  20.612  38.503   4.774
98990W        W67408  31.466  11.624   4.734
98991W        W67409  28.966  38.514  10.410
98992W        W67410  19.624  14.142  12.346
98993W        W67411  40.985  17.623   1.852
98994W        W67412   0.443  13.122  11.120
98995W        W67413  41.445  14.193   4.335
98996W        W67414  24.163  34.032  13.514
98997W        W67415  19.070  18.178  12.969
98998W        W67416  42.359  27.985  14.855
98999W        W67417  10.708  32.085   0.379
99000W        W67418  27.963  33.037  14.459
99001W        W67419  11.191  34.410   0.439
99002W        W67420   0.394  37.986   3.720
99003W        W67421   4.887  21.106  14.804
99004W        W67422  38.559  18.202  12.960
99005W        W67423  10.264  28.973   1.335
99006W        W67424  36.968  34.608  13.538
99007W        W67425  24.024   0.331   3.831
99008W        W67426  43.805  14.221  10.991
99009W        W67427  41.536  23.078  13.414
99010W        W67428  36.547   4.909   1.730
99011W        W67429  28.126   1.397  10.078
99012W        W67430  10.310   0.752   0.433
99013W        W67431  19.163  39.840   0.806
99014W        W67432  26.471  12.657  13.793
99015W        W67433  30.630  44.995   2.254
99016W        W67434  44.825   5.795   2.315
99017W        W67435  10.707  42.857  14.342
99018W        W67436  43.859  23.233  10.513
99019W        W67437   9.803  38.465  12.883
99020W        W67438  24.037  26.605  14.994
99021W        W67439   4.386  23.031   2.880
99022W        W67440  28.592  17.719  12.840
99023W        W67441  19.648  35.865  10.984
99024W        W67442  24.503  18.546   2.892
99025W        W67443  14.668  10.813   2.354
99026W        W67444   6.754  33.129   3.231
99027W        W67445   8.831  35.447  12.477
99028W        W67446  41.445  38.929  12.883
99029W        W67447  14.218  27.478   4.264
99030W        W67448  36.347  35.933  12.480
99031W        W67449   0.816  39.826   2.702
99032W        W67450  42.513  43.448   1.866
99033W        W67451  42.875  43.919   4.746
99034W        W67452   3.788  29.618  13.950
99035W        W67453  20.633  27.079   1.912
99036W        W67454  27.169  18.071  12.823
99037W        W67455  16.099  25.564   0.317
99038W        W67456  25.966  31.977   3.223
99039W        W67457  43.480  31.149   3.265
99040W        W67458  32.488  15.816  11.478
99041W        W67459  32.449  11.719   2.850
99042W        W67460  20.589  35.956  13.029
99043W        W67461  34.544  38.569   3.846
99044W        W67462  16.652  10.140  12.842
99045W        W67463  21.605   9.685  11.098
99046W        W67464  40.447  35.573  14.903
99047W        W67465  39.882   0.261  10.932
99048W        W67466  26.571  11.813  11.898
99049W        W67467  17.178  37.488   2.183
99050W        W67468  20.561  34.009   3.733
99051W        W67469   7.705  13.345   0.480
99052W        W67470  42.959   0.753   3.662
99053W        W67471  22.519  26.108  14.784
99054W        W67472  24.097  37.414   1.728
99055W        W67473  40.826   9.380   0.369
99056W        W67474  30.571  32.910  11.857
99057W        W67475  19.553  15.754   3.327
99058W        W67476  27.665   3.919   1.923
99059W        W67477  14.683   4.768  11.858
99060W        W67478   2.812   5.808  12.439
99061W        W67479   2.848   0.445  10.536
99062W        W67480   8.315  17.625   2.241
99063W        W67481  37.964   0.257  11.537
99064W        W67482  12.344  16.769  14.335
99065W        W67483  39.353  31.556  13.847
99066W        W67484  25.096   8.260   1.816
99067W        W67485  14.268  43.822   3.362
99068W        W67486  15.594  22.598   5.118
99069W        W67487  31.133  21.525  12.511
99070W        W67488  34.045  40.417   0.284
99071W        W67489  34.428   8.668  14.854
99072W        W67490   2.436  37.391  10.075
99073W        W67491  21.571  25.680   3.304
99074W        W67492   1.855  38.410  13.819
99075W        W67493  11.711  38.434  11.550
99076W        W67494  41.362  13.700   4.746
99077W        W67495  19.680   0.451  14.446
99078W        W67496  10.858  38.434   2.325
99079W        W67497   9.344  12.639   2.896
99080W        W67498  29.479  20.584  14.790
99081W        W67499  22.187   0.280   0.358
99082W        W67500  33.958   6.862   0.770
99083W        W67501  33.950  40.930   0.744
99084W        W67502  35.486  30.440   0.342
99085W        W67503  38.946   4.262   4.322
99086W        W67504   4.273  21.142  11.457
99087W        W67505  42.956   1.928  10.007
99088W        W67506  38.506  10.170  13.950
99089W        W67507  18.080  27.559  14.469
99090W        W67508  11.674  20.704  11.593
99091W        W67509  17.655  36.990  13.953
99092W        W67510  37.347  20.069  10.557
99093W        W67511  35.391  27.983   1.442
99094W        W67512  41.426  25.632  13.490
99095W        W67513  40.891  35.965  12.520
99096W        W67514  18.099  18.592  14.830
99097W        W67515  18.655   9.853   2.836
99098W        W67516  33.606   4.317  13.522
99099W        W67517  15.664  19.747   3.154
99100W        W67518  30.591  26.178  12.005
99101W        W67519   6.867  39.428  10.914
99102W        W67520   4.821   5.200   1.265
99103W        W67521   4.226  31.505   3.842
99104W        W67522  23.659  19.715   1.399
99105W        W67523  30.563  26.683   0.785
99106W        W67524  38.561  21.518  13.451
99107W        W67525   3.346  24.665   1.447
99108W        W67526  33.614  33.596   3.709
99109W        W67527  26.534   0.844   5.244
99110W        W67528   6.815   1.251   0.825
99111W        W67529  24.616  22.610  12.543
99112W        W67530  12.635  36.843   1.393
99113W        W67531  39.923   5.367  14.856
99114W        W67532  23.020  31.917   3.750
99115W        W67533  26.060  41.043   4.283
99116W        W67534   2.843  17.291   4.194
99117W        W67535  37.937  41.346  14.932
99118W        W67536  20.033  40.994  10.536
99119W        W67537  26.528   4.760   0.401
99120W        W67538  40.354  43.786   2.206
99121W        W67539  12.678  37.950   0.294
99122W        W67540  29.130  41.389   2.246
99123W        W67541  14.676   8.345  14.449
99124W        W67542  43.354  15.770  12.970
99125W        W67543  29.101  28.476  14.816
99126W        W67544  26.595   5.787  13.995
99127W        W67545  14.177  30.979   3.276
99128W        W67546  25.553  34.540   4.130
99129W        W67547  43.471  27.515  14.349
99130W        W67548  26.638  14.715  13.964
99131W        W67549  34.898  16.211  11.374
99132W        W67550   8.720  20.586   0.290
99133W        W67551  34.493   4.860  11.902
99134W        W67552  34.908  12.219   2.816
99135W        W67553   3.221  26.010  11.024
99136W        W67554  16.307  19.653   0.246
99137W        W67555  26.121  39.889   1.405
99138W        W67556   9.307   9.762   3.283
99139W        W67557  43.303  42.817   3.688
99140W        W67558  21.189  29.113   2.706
99141W        W67559  35.035   6.870  11.602
99142W        W67560  21.592   3.406  10.900
99143W        W67561  36.864  39.946   3.320
99144W        W67562  35.411   0.462  14.372
99145W        W67563   4.792  13.319  13.868
99146W        W67564  42.833  40.361  13.929
99147W        W67565   4.288   5.905   1.233
99148W        W67566  17.688  23.200  11.114
99149W        W67567   1.244  19.643  14.013
99150W        W67568   9.253   1.287  12.495
99151W        W67569  36.964  24.572  11.954
99152W        W67570   3.721  11.139   1.330
99153W        W67571  14.193  29.453  13.349
99154W        W67572   3.883  27.005   3.256
99155W        W67573   9.245  27.116   4.208
99156W        W67574  12.247  15.777   0.859
99157W        W67575  12.299  20.541   0.346
99158W        W67576  26.605  39.462  13.032
99159W        W67577  37.341  32.934   1.747
99160W        W67578  37.564  24.694   3.714
99161W        W67579  33.600  35.045   0.390
99162W        W67580   0.492   0.988  12.914
99163W        W67581  32.401   0.773  14.416
99164W        W67582   4.830  34.026   4.272
99165W        W67583  18.155   2.750   2.369
99166W        W67584  31.472  21.639  11.568
99167W        W67585   6.755  29.610   4.639
99168W        W67586   3.351   0.432   3.654
99169W        W67587  31.078  44.826   3.207
99170W        W67588  13.287  10.203  11.547
99171W        W67589  35.930  38.040  14.275
99172W        W67590  40.012  27.117   2.346
99173W        W67591  22.725  24.095  11.372
99174W        W67592  34.394  22.175  14.436
99175W        W67593  29.448  12.286   0.430
99176W        W67594  32.522  42.410   2.204
99177W        W67595   5.789  22.506  12.419
99178W        W67596  33.445   2.848   0.904
99179W        W67597  42.019  43.952   0.959
99180W        W67598  28.155  36.890   1.884
99181W        W67599  21.559   4.421  14.907
99182W        W67600  39.020  20.118  14.283
99183W        W67601  23.221  17.099  10.506
99184W        W67602  17.187  23.212  10.563
99185W        W67603  36.856  36.856   9.436
99186W        W67604  27.463  11.159   3.341
99187W        W67605  14.656  10.152   3.841
99188W        W67606   7.847   2.363  12.885
99189W        W67607  22.649  27.519  11.401
99190W        W67608  13.317  28.449  13.358
99191W        W67609  42.383  24.049  12.933
99192W        W67610   8.383  35.901  13.439
99193W        W67611  15.584  25.083  11.433
99194W        W67612  13.108   3.263   9.925
99195W        W67613  15.116  39.050   0.928
99196W        W67614  20.662  42.282   4.598
99197W        W67615  39.059  18.714   0.444
99198W        W67616  18.733  42.804   1.931
99199W        W67617   6.686  25.983   2.390
99200W        W67618  39.395  29.480  13.545
99201W        W67619  34.101  40.956  13.899
99202W        W67620  27.591   5.800   4.757
99203W        W67621  13.737  44.759   3.854
99204W        W67622  21.151  33.552   1.848
99205W        W67623  31.445  24.176   2.207
99206W        W67624   0.845  16.597   0.455
99207W        W67625   2.790  42.357  12.580
99208W        W67626  11.787  25.120  14.311
99209W        W67627  31.543   6.903  12.955
99210W        W67628  26.590   4.877   5.298
99211W        W67629  10.338  29.504  13.417
99212W        W67630  26.092   8.293  13.478
99213W        W67631  44.503  42.427   3.762
99214W        W67632  13.337   8.701  14.310
99215W        W67633   7.862  11.238   2.183
99216W        W67634  30.976  26.098  11.071
99217W        W67635  10.637  37.562   1.889
99218W        W67636  35.964   1.317  14.379
99219W        W67637  21.696  12.839   4.762
99220W        W67638  12.343   7.788   0.291
99221W        W67639  14.759  23.554   0.414
99222W        W67640  34.038   2.728   2.742
99223W        W67641  41.842  37.938   4.261
99224W        W67642  29.427  12.731  10.630
99225W        W67643  36.355  13.722  11.601
99226W        W67644  25.110  34.498   3.649
99227W        W67645  37.849  21.634   1.227
99228W        W67646  40.981  24.506   3.640
99229W        W67647  31.076  39.945  10.909
99230W        W67648  10.151  41.306  12.834
99231W        W67649  17.795   4.218  11.088
99232W        W67650  33.991   3.880   1.258
99233W        W67651  13.124  17.238  13.791
99234W        W67652  32.025  28.581   3.363
99235W        W67653   3.355  19.159  11.598
99236W        W67654  24.589  44.441  12.366
99237W        W67655   7.318  15.314   4.817
99238W        W67656  11.132  10.814  11.508
99239W        W67657  26.106   7.759  10.996
99240W        W67658   2.910  37.365  12.455
99241W        W67659  16.736   5.293   1.759
99242W        W67660  41.408   5.763   2.246
99243W        W67661  22.651  42.488   0.834
99244W        W67662   7.303  43.314   4.291
99245W        W67663  44.306  41.414   0.948
99246W        W67664  41.921  13.159   0.750
99247W        W67665  44.431  27.954   0.961
99248W        W67666   7.197  42.008  12.360
99249W        W67667  35.442   1.954   2.715
99250W        W67668  20.162  11.352   9.516
99251W        W67669   8.368   0.826  12.370
99252W        W67670  36.518  18.206   1.447
99253W        W67671   3.913  23.492   3.732
99254W        W67672  38.031  34.982  14.352
99255W        W67673  37.033  35.532  13.491
99256W        W67674  40.873  44.976  11.936
99257W        W67675  16.721  41.445   1.289
99258W        W67676   8.815  11.634  12.838
99259W        W67677   0.940  23.635  14.469
99260W        W67678   3.921  38.873   4.222
99261W        W67679  34.999  23.061   1.232
99262W        W67680  35.935  37.341  12.826
99263W        W67681   2.839  29.665  11.444
99264W        W67682  10.671  27.576   3.170
99265W        W67683  42.935   7.753  10.906
99266W        W67684   7.673  12.301   4.237
99267W        W67685   6.377  28.638  13.011
99268W        W67686  44.778   9.193  11.010
99269W        W67687  36.009  10.363  12.888
99270W        W67688  13.111  25.642  12.433
99271W        W67689  21.552  26.545  12.453
99272W        W67690   3.287  11.254  10.904
99273W        W67691  21.555  37.413   3.234
99274W        W67692  31.936   2.892   1.721
99275W        W67693  22.088  15.138   0.921
99276W        W67694  15.089  37.998  14.350
99277W        W67695  33.070  26.076   1.831
99278W        W67696  14.783  31.574  14.939
99279W        W67697   7.851  27.550   1.919
99280W        W67698   1.275  16.145   2.848
99281W        W67699  26.654   5.418  13.928
99282W        W67700  40.539  12.820  10.098
99283W        W67701  35.426  42.828   3.867
99284W        W67702  22.232   4.729   4.262
99285W        W67703  36.384  33.481  12.832
99286W        W67704   8.356  19.250  11.489
99287W        W67705  33.448  33.888   0.437
99288W        W67706  17.594  11.796  11.520
99289W        W67707  33.556  26.066   2.703
99290W        W67708  12.638  30.057   1.829
99291W        W67709  16.206  17.750   4.676
99292W        W67710  40.496  40.506   3.258
99293W        W67711  37.492  32.912  11.057
99294W        W67712  37.054  12.119  10.585
99295W        W67713  44.860  19.259  10.584
99296W        W67714  15.804  13.201  14.490
99297W        W67715  43.813  25.679   2.718
99298W        W67716   5.254  14.627   3.290
99299W        W67717  24.103  32.462  10.537
99300W        W67718   0.431  31.446  13.437
99301W        W67719  19.141  43.312   3.850
99302W        W67720   2.811  17.762   1.744
99303W        W67721  34.072  10.769   1.818
99304W        W67722  11.824   8.699   3.245
99305W        W67723  24.628   3.892   0.260
99306W        W67724  44.451  31.629  11.901
99307W        W67725  40.910  38.952  11.927
99308W        W67726  39.457  23.018   2.873
99309W        W67727   4.777   8.259  13.491
99310W        W67728  33.062  13.114   2.298
99311W        W67729  33.619  34.085  14.834
99312W        W67730  16.175  16.102  10.447
99313W        W67731  26.553  26.479  14.913
99314W        W67732  35.963  12.755  14.450
99315W        W67733  42.511   9.660  12.460
99316W        W67734   4.793  24.516   2.398
99317W        W67735   4.429  12.228  14.869
99318W        W67736   5.266  14.223  11.892
99319W        W67737  28.539  41.947  13.961
99320W        W67738  26.700  18.193   1.850
99321W        W67739   4.294   0.838   1.813
99322W        W67740  18.707  10.204   0.300
99323W        W67741  10.641  27.152  13.902
99324W        W67742   8.657  23.654   3.319
99325W        W67743  38.552   6.893  10.565
99326W        W67744   9.703   1.777   0.380
99327W        W67745   5.263  21.171  14.876
99328W        W67746  10.845   8.324  14.861
99329W        W67747  33.565  21.205   2.822
99330W        W67748  19.608   2.798   4.645
99331W        W67749  32.403  38.499  14.770
99332W        W67750   3.944   8.728  14.947
99333W        W67751  15.812  27.638  11.041
99334W        W67752  38.940   5.346  10.475
99335W        W67753  36.978  22.057  14.877
99336W        W67754  37.047  14.332   1.877
99337W        W67755  17.745  38.475   4.752
99338W        W67756  13.158  17.739   4.148
99339W        W67757  20.160  20.654   2.327
99340W        W67758   5.259  25.102  13.869
99341W        W67759  21.551  41.463  14.027
99342W        W67760  16.257  42.412   3.843
99343W        W67761   1.441  30.930  11.856
99344W        W67762  16.684  42.427  14.797
99345W        W67763   1.480  43.843  14.762
99346W        W67764  24.488  21.240   1.715
99347W        W67765  23.989   7.808   2.204
99348W        W67766  28.580   6.852  12.462
99349W        W67767  33.090   3.234  12.048
99350W        W67768   0.875  40.363  11.912
99351W        W67769   2.268  37.009  13.932
99352W        W67770   6.754  12.749   0.805
99353W        W67771  38.437  40.830   1.780
99354W        W67772   4.753   0.814  12.412
99355W        W67773  34.420  28.469  14.843
99356W        W67774  33.003  28.055  11.496
99357W        W67775   3.335   2.379  10.470
99358W        W67776  27.607  13.288  14.986
99359W        W67777   5.338  19.768  13.341
99360W        W67778  35.398   5.904  13.883
99361W        W67779   2.754  14.779  14.410
99362W        W67780  28.525  31.145  12.984
99363W        W67781  18.686   2.459   0.399
99364W        W67782  33.977  24.632  12.414
99365W        W67783   0.949  10.758  11.037
99366W        W67784  24.555  23.057  14.980
99367W        W67785  20.229  25.561  11.420
99368W        W67786  27.595  39.811  12.825
99369W        W67787  34.483  37.508   0.245
99370W        W67788  20.680  12.320   0.394
99371W        W67789   7.897   6.364   3.322
99372W        W67790  23.574  14.145  14.898
99373W        W67791  23.666   4.285   0.786
99374W        W67792  27.684  11.649  10.898
99375W        W67793   2.402  20.566  11.573
99376W        W67794  12.158  38.999  10.482
99377W        W67795   7.339  42.992   2.695
99378W        W67796  42.491  16.183  11.595
99379W        W67797  44.923   9.806   2.748
99380W        W67798   0.854  31.925  13.540
99381W        W67799  11.716  26.179  11.892
99382W        W67800  44.784  15.220  11.021
99383W        W67801  14.319  42.930  13.956
99384W        W67802   6.260   9.757   4.306
99385W        W67803  44.335   4.720   2.337
99386W        W67804  26.673   0.349  11.087
99387W        W67805  15.180   7.754   4.703
99388W        W67806  10.744  21.238   4.675
99389W        W67807  30.650  21.647   2.232
99390W        W67808   6.427  19.633   4.651
99391W        W67809  23.136   1.269  13.370
99392W        W67810  36.405  20.085   2.703
99393W        W67811   5.330  11.269  11.889
99394W        W67812  25.674  35.861  12.832
99395W        W67813  34.039  24.639   4.647
99396W        W67814   0.907  27.512   4.332
99397W        W67815  38.476   7.282   4.625
99398W        W67816  44.894  33.021  13.491
99399W        W67817  11.692  18.226  13.321
99400W        W67818  11.776  17.713   1.448
99401W        W67819  31.608   6.203   3.317
99402W        W67820  15.698   7.815   0.289
99403W        W67821   4.787  33.612  11.377
99404W        W67822  13.268   7.321  12.515
99405W        W67823  35.541  17.273   1.741
99406W        W67824  41.982  19.703   5.170
99407W        W67825  23.207   5.408  12.460
99408W        W67826  35.977  15.194   4.715
99409W        W67827   4.239  27.563   3.332
99410W        W67828   5.289  17.206   1.858
99411W        W67829  26.958  24.704  14.826
99412W        W67830  15.223  40.806   3.639
99413W        W67831  43.941  32.405   2.208
99414W        W67832   1.738   1.945   4.274
99415W        W67833  11.314  31.006   2.745
99416W        W67834   7.362   1.435   3.285
99417W        W67835  22.167   1.920  11.004
99418W        W67836  20.219  23.164  11.899
99419W        W67837  28.624  33.943   3.693
99420W        W67838  18.648  31.507  13.527
99421W        W67839  26.960  29.564  12.369
99422W        W67840  40.862   9.810   1.218
99423W        W67841  21.245  30.127  13.402
99424W        W67842  44.295  36.848   0.896
99425W        W67843  31.982  30.165   4.637
99426W        W67844  28.536   5.824  10.600
99427W        W67845   9.816  37.000  12.079
99428W        W67846  23.716   5.375  11.402
99429W        W67847  35.075  44.361   1.290
99430W        W67848  17.221  15.276   1.863
99431W        W67849   1.326   9.874  12.457
99432W        W67850   2.928  26.130   3.291
99433W        W67851  32.417  13.760  12.467
99434W        W67852   2.378  43.884  14.888
99435W        W67853  16.084  44.767  11.909
99436W        W67854  24.550  40.886  10.559
99437W        W67855   0.465  13.705   9.624
99438W        W67856  13.623  32.528   1.343
99439W        W67857  34.029  15.197  13.432
99440W        W67858   4.297  16.232   0.347
99441W        W67859  38.008   0.363   4.336
99442W        W67860   5.883  33.112  12.402
99443W        W67861   6.879  17.111   3.806
99444W        W67862   6.842  30.478  12.572
99445W        W67863  27.540   9.231   1.740
99446W        W67864  16.308   7.292   1.389
99447W        W67865  19.607   3.429  10.483
99448W        W67866  36.868  30.968  14.785
99449W        W67867  37.503  43.455   4.709
99450W        W67868  15.227  31.053   0.462
99451W        W67869  27.066  32.475  11.076
99452W        W67870  28.179   0.783   3.859
99453W        W67871  24.616  31.613  12.528
99454W        W67872   7.403   0.370  13.531
99455W        W67873  39.994  15.236   2.190
99456W        W67874  23.512  44.414   1.933
99457W        W67875   7.799   8.231   1.927
99458W        W67876  12.299   3.809   3.702
99459W        W67877  16.713  23.228  13.038
99460W        W67878  26.121  42.355   0.745
99461W        W67879  30.109   8.696   0.744
99462W        W67880  39.809  10.359  12.038
99463W        W67881  12.747  23.584   3.319
99464W        W67882   9.700  22.653   1.777
99465W        W67883  42.336  35.418  11.914
99466W        W67884  20.157  17.737  10.632
99467W        W67885  37.500  12.696   4.795
99468W        W67886  37.836  22.686   4.201
99469W        W67887  23.003  44.268   0.732
99470W        W67888  34.455  30.535  11.438
99471W        W67889  18.229  13.609   1.806
99472W        W67890  12.624   1.932  14.951
99473W        W67891   0.307  38.936  10.552
99474W        W67892  15.617  21.524   2.753
99475W        W67893  10.659  38.464   0.454
99476W        W67894  18.142  38.003  11.908
99477W        W67895   6.756  37.053   2.305
99478W        W67896  21.730  30.123  12.950
99479W        W67897  34.918  18.745  13.030
99480W        W67898   0.979  30.566   2.264
99481W        W67899  37.885   6.844   0.753
99482W        W67900  23.141  17.573  14.357
99483W        W67901  14.646  17.115  10.446
99484W        W67902   4.895   4.243  12.082
99485W        W67903  14.229  15.818  13.526
99486W        W67904  36.897  18.068  13.806
99487W        W67905   5.885  39.846   2.191
99488W        W67906  16.293  15.597   4.329
99489W        W67907   8.760  30.424   4.269
99490W        W67908  24.713  12.797  12.563
99491W        W67909  28.104  30.438   3.185
99492W        W67910  29.541  15.699   9.937
99493W        W67911  24.594  30.055  12.951
99494W        W67912  34.991  10.179   1.744
99495W        W67913   7.858  27.685  10.522
99496W        W67914  22.594  38.363   4.648
99497W        W67915  30.647   2.464  11.095
99498W        W67916  39.411   1.371   0.263
99499W        W67917  18.579  31.505  12.419
99500W        W67918  14.628  40.450  12.406
99501W        W67919  43.957  18.776   1.409
99502W        W67920   4.305  18.067  13.038
99503W        W67921  10.218  29.014  10.116
99504W        W67922   8.175  20.686   2.367
99505W        W67923  40.890   1.431   1.405
99506W        W67924  31.442  29.525   3.795
99507W        W67925   0.808   7.885   2.416
99508W        W67926  37.832  44.893  14.927
99509W        W67927   3.914  10.769   4.707
99510W        W67928   8.793  33.935   1.880
99511W        W67929  41.871  26.167   1.348
99512W        W67930  35.023  13.681  10.451
99513W        W67931  12.704  15.671  10.056
99514W        W67932  18.767  18.240   3.759
99515W        W67933  19.603  25.524   4.175
99516W        W67934  19.690   2.300  11.983
99517W        W67935  34.393  22.520   1.701
99518W        W67936  20.033   9.269   0.467
99519W        W67937  36.982   9.655   0.338
99520W        W67938  20.672  10.254  14.984
99521W        W67939  31.023  27.571   3.218
99522W        W67940  19.691  11.861   3.819
99523W        W67941  10.688  35.947  12.495
99524W        W67942  25.200  32.470   2.883
99525W        W67943  28.070  34.588   9.934
99526W        W67944  34.443   6.715  14.826
99527W        W67945   4.439  39.464  13.347
99528W        W67946  23.494  23.600  14.928
99529W        W67947  28.436  13.154  10.453
99530W        W67948  44.318  23.579   0.347
99531W        W67949  32.394   4.216   4.216
99532W        W67950  13.337  42.428   1.872
99533W        W67951  12.643  27.571   4.694
99534W        W67952   6.333  29.100  10.427
99535W        W67953  44.387  33.007  14.791
99536W        W67954  33.994  29.587   0.936
99537W        W67955  37.026  25.155  12.496
99538W        W67956  16.666   5.688  11.484
99539W        W67957  41.426   6.739  10.899
99540W        W67958  31.086   3.425   2.803
99541W        W67959  29.600  39.054  10.481
99542W        W67960  24.561  24.126  10.478
99543W        W67961  24.665  42.919  12.519
99544W        W67962  23.622  29.073  12.395
99545W        W67963  35.070  24.600  13.819
99546W        W67964  41.478  16.616  14.346
99547W        W67965  31.565  29.440  11.540
99548W        W67966   2.862  28.064   2.795
99549W        W67967   8.691  14.813  14.938
99550W        W67968  22.705  20.633  14.906
99551W        W67969  14.721   5.384  12.394
99552W        W67970  15.137   7.200   2.397
99553W        W67971  17.093  10.306  10.070
99554W        W67972  43.321  36.962  14.793
99555W        W67973   8.169  43.478   1.432
99556W        W67974  32.540   8.164   1.420
99557W        W67975  32.438  23.620   4.768
99558W        W67976  32.955  15.269   0.324
99559W        W67977  35.377  36.894   9.925
99560W        W67978   8.882  13.740  14.354
99561W        W67979  17.616  17.188   3.275
99562W        W67980  15.232  14.770  14.979
99563W        W67981  23.214  24.026   4.352
99564W        W67982  36.922  43.787  14.795
99565W        W67983  17.299   8.348  14.915
99566W        W67984  25.563  17.288  13.362
99567W        W67985  14.185   8.882  14.926
99568W        W67986   6.918  31.633  10.447
99569W        W67987  32.435  28.613  12.974
99570W        W67988   4.774  35.360   4.177
99571W        W67989  40.513  10.189   2.879
99572W        W67990  19.721  30.496  11.018
99573W        W67991  21.148   4.941   0.382
99574W        W67992   4.240  21.048   2.212
99575W        W67993  12.137  37.408  14.783
99576W        W67994  24.127  33.937   3.644
99577W        W67995  43.358   2.920  11.514
99578W        W67996  31.056  13.769   3.150
99579W        W67997  34.084   0.392  10.643
99580W        W67998   8.695  24.481   3.229
99581W        W67999  29.993  34.524   3.852
99582W        W68000  27.605   3.865   3.318
99583W        W68001  19.766  18.058  14.764
99584W        W68002  15.190  23.520   2.377
99585W        W68003  36.474  38.341  13.047
99586W        W68004  43.429  43.882   1.397
99587W        W68005  34.967  17.768  10.965
99588W        W68006  29.499  35.511  14.288
99589W        W68007  13.660   8.895   0.333
99590W        W68008  18.168  24.988   5.125
99591W        W68009  20.035  42.002   3.703
99592W        W68010   5.379  19.264  14.352
99593W        W68011  12.799  12.121  14.019
99594W        W68012  16.307  36.400   0.463
99595W        W68013  44.310  23.144   1.221
99596W        W68014  25.670  22.576  12.378
99597W        W68015  30.965   1.327   4.283
99598W        W68016  42.486  41.484  13.975
99599W        W68017  22.169  43.371   4.648
99600W        W68018  19.171  16.086  13.486
99601W        W68019  25.045  37.392   4.291
99602W        W68020  11.868  43.998  10.594
99603W        W68021  14.311  29.136  14.476
99604W        W68022  44.954  21.257  14.891
99605W        W68023  39.002  21.730   4.251
99606W        W68024  14.717  43.975   1.835
99607W        W68025  21.043  38.545   0.302
99608W        W68026   8.693  22.091   0.965
99609W        W68027  44.943  33.623   1.888
99610W        W68028  11.273  32.425  14.942
99611W        W68029  31.506  34.434  13.344
99612W        W68030  23.610  41.371   1.324
99613W        W68031   2.370  43.323   3.249
99614W        W68032  33.981  31.970   4.207
99615W        W68033  36.912  44.432   1.331
99616W        W68034  33.442  25.589  14.301
99617W        W68035  19.249   9.860  11.115
99618W        W68036  30.640  24.696   0.248
99619W        W68037  23.603  33.925   1.728
99620W        W68038  21.095   5.824   3.826
99621W        W68039  16.145  20.141   1.771
99622W        W68040   7.382  43.973  11.589
99623W        W68041  29.947  28.067   2.878
99624W        W68042   8.671  11.320  13.497
99625W        W68043  41.512  26.461  14.490
99626W        W68044   7.750  11.721  12.578
99627W        W68045  10.643  19.232  11.093
99628W        W68046  36.866  27.978  14.005
99629W        W68047   2.361  38.550   2.393
99630W        W68048  24.203   3.752   2.741
99631W        W68049  33.954  39.455  14.956
99632W        W68050  32.529  18.607  11.984
99633W        W68051  11.621  10.704  12.094
99634W        W68052  25.080  23.617  11.858
99635W        W68053  29.064  10.856  11.585
99636W        W68054  17.704  30.492  12.988
99637W        W68055  30.985  20.127  12.372
99638W        W68056  19.715   3.872   5.192
99639W        W68057   9.390  13.790   3.306
99640W        W68058  40.852  38.955   0.959
99641W        W68059  15.119  16.639  13.975
99642W        W68060  11.368  12.117   3.702
99643W        W68061  41.531  14.801   1.331
99644W        W68062  29.934  38.558   2.836
99645W        W68063  24.562  13.785   2.777
99646W        W68064  22.102   5.847   0.749
99647W        W68065   2.760   4.294   4.804
99648W        W68066  31.966  11.309  10.598
99649W        W68067  22.056  28.158   4.228
99650W        W68068   0.982   7.211   1.229
99651W        W68069  37.493  17.077  13.799
99652W        W68070   5.228  42.312  13.368
99653W        W68071  15.739  25.207   0.305
99654W        W68072  23.649  23.235   4.232
99655W        W68073   6.826   7.376   0.251
99656W        W68074  29.138  40.006  14.846
99657W        W68075  34.982  14.189   0.264
99658W        W68076  23.564  11.216  12.012
99659W        W68077  14.755   5.195   3.373
99660W        W68078  24.130  40.870   3.704
99661W        W68079   1.309   7.670   0.759
99662W        W68080   3.764  34.984  13.464
99663W        W68081  26.608  19.147  12.061
99664W        W68082  22.654  41.026   1.814
99665W        W68083  40.387  30.957  10.462
99666W        W68084  12.785  35.405  14.911
99667W        W68085  23.622  37.943   3.682
99668W        W68086  14.814  14.614   3.151
99669W        W68087   8.691  16.580  11.007
99670W        W68088  24.063  34.119  11.985
99671W        W68089  17.736   7.315  12.348
99672W        W68090   8.679  31.468  13.920
99673W        W68091  14.209  41.913  13.009
99674W        W68092   1.420   0.974   3.236
99675W        W68093  21.038  24.038   5.138
99676W        W68094   0.302  16.785   4.607
99677W        W68095  41.900  18.281   2.701
99678W        W68096  21.100  14.269   0.739
99679W        W68097  26.007  23.704   0.738
99680W        W68098  13.705   1.404   3.247
99681W        W68099  15.244  16.610   4.191
99682W        W68100   8.679  12.331   2.887
99683W        W68101  10.646  25.179   5.302
99684W        W68102  29.511  44.323   4.173
99685W        W68103   2.317   0.875  11.600
99686W        W68104  33.009  42.825  14.896
99687W        W68105  35.940   0.253  10.598
99688W        W68106  19.102  34.597  11.605
99689W        W68107  25.489  36.961   0.869
99690W        W68108  44.905  27.036   4.735
99691W        W68109  12.177  43.458  14.487
99692W        W68110  43.766  22.736   2.676
99693W        W68111   6.359  41.505   4.651
99694W        W68112  38.471   4.338  11.573
99695W        W68113   1.460  17.765   2.766
99696W        W68114  38.050  29.517   0.419
99697W        W68115  22.147  12.786  12.025
99698W        W68116  28.467  40.863  11.453
99699W        W68117  34.092  28.180   1.281
99700W        W68118  40.447  22.745  13.877
99701W        W68119  40.414  38.400  11.555
99702W        W68120  42.402  39.389  12.083
99703W        W68121  28.057   7.835   4.334
99704W        W68122  40.900   0.747   0.425
99705W        W68123  28.009  29.055   2.288
99706W        W68124  25.170  44.813  10.556
99707W        W68125  31.916  34.084   2.892
99708W        W68126  20.263  41.433   1.798
99709W        W68127  23.104   7.231   3.796
99710W        W68128   3.292  26.580  12.923
99711W        W68129  36.036  38.442  14.507
99712W        W68130  34.960  38.431  13.398
99713W        W68131  41.406  35.357  13.861
99714W        W68132  13.759  18.213  12.500
99715W        W68133  15.147  15.115  10.573
99716W        W68134  15.148   4.847   4.775
99717W        W68135  38.952  17.729  14.291
99718W        W68136  12.703  15.626  12.031
99719W        W68137   9.757  24.163  10.982
99720W        W68138  21.150  34.903  11.997
99721W        W68139  44.995  39.997  11.966
99722W        W68140  34.992  44.949  11.026
99723W        W68141  21.245  19.225   1.359
99724W        W68142   3.749  15.283   0.802
99725W        W68143  44.277   1.447   1.784
99726W        W68144   7.187  18.587   2.261
99727W        W68145  19.658  27.072  13.313
99728W        W68146  28.003   6.400   0.841
99729W        W68147  15.619   0.838   1.248
99730W        W68148   6.410  19.681   3.738
99731W        W68149   3.222  16.208   3.237
99732W        W68150  23.610  38.357  12.995
99733W        W68151  21.224  22.704   2.234
99734W        W68152   1.354   6.894  11.984
99735W        W68153   5.406   2.817  11.404
99736W        W68154  28.488  27.607   3.725
99737W        W68155  33.964  27.591   0.342
99738W        W68156  42.776  19.156   3.646
99739W        W68157   3.845   0.354   4.203
99740W        W68158  22.634   2.408  11.528
99741W        W68159  21.225  23.235   5.589
99742W        W68160  25.608  36.068   0.403
99743W        W68161  19.230  41.517   3.284
99744W        W68162  41.463  22.232  14.316
99745W        W68163  27.945   9.759   1.866
99746W        W68164   7.181  34.894  12.472
99747W        W68165   4.924  38.474   0.953
99748W        W68166   1.971  14.666   1.892
99749W        W68167  37.401  40.359  13.013
99750W        W68168  31.017  31.514  12.529
99751W        W68169  27.508  26.956   1.718
99752W        W68170   3.850  42.928  12.026
99753W        W68171   0.877  43.352  12.423
99754W        W68172  43.364   3.807   3.825
99755W        W68173  17.177  15.681   1.757
99756W        W68174  15.083  36.436   2.356
99757W        W68175  36.452  38.400  12.394
99758W        W68176  41.942  32.558   2.675
99759W        W68177   8.717  36.009  14.287
99760W        W68178  31.983   7.325   3.214
99761W        W68179  41.436  19.258  13.982
99762W        W68180  35.088  31.534   2.684
99763W        W68181   1.955  11.362  11.525
99764W        W68182  12.745  24.093   1.772
99765W        W68183  29.489   7.730   5.128
99766W        W68184  23.044  43.010  11.990
99767W        W68185  34.553  31.903   4.151
99768W        W68186  11.687   0.933  14.434
99769W        W68187  26.528   9.865   3.202
99770W        W68188  36.402  28.186  10.070
99771W        W68189  12.791  20.155   3.164
99772W        W68190  25.177  13.781  11.386
99773W        W68191  16.108   1.295  13.404
99774W        W68192   8.893  10.734   3.228
99775W        W68193   6.189  37.960  14.823
99776W        W68194  33.381  29.571  13.874
99777W        W68195  13.704  30.635   0.349
99778W        W68196  14.710   8.393  13.913
99779W        W68197  36.035  42.406   3.826
99780W        W68198   3.411  33.032   4.700
99781W        W68199   4.424   2.370   1.219
99782W        W68200  34.887   1.896  11.596
99783W        W68201  38.912   0.969  11.486
99784W        W68202  37.008   6.841  14.438
99785W        W68203  18.604   2.759  13.027
99786W        W68204  14.248  30.982   1.286
99787W        W68205  15.811  23.593  14.499
99788W        W68206  12.794  20.697  12.462
99789W        W68207  38.890   6.405   4.241
99790W        W68208  39.852  27.181   1.803
99791W        W68209  32.602  10.638   2.196
99792W        W68210  16.239  37.900  12.382
99793W        W68211   6.860  28.605  13.310
99794W        W68212   5.322  34.066   0.732
99795W        W68213  36.014   5.416  12.090
99796W        W68214  43.376  26.573   0.437
99797W        W68215  25.527  18.628  12.866
99798W        W68216  18.580  13.284   3.281
99799W        W68217  10.811   6.798  14.762
99800W        W68218  21.702   0.421  12.994
99801W        W68219  16.730  10.686   4.166
99802W        W68220  25.167   4.760  10.558
99803W        W68221  22.505  32.981   1.248
99804W        W68222  23.210  19.712   0.279
99805W        W68223  32.986  12.314  13.876
99806W        W68224  31.896  39.030   2.317
99807W        W68225  35.489  34.399  11.526
99808W        W68226  25.648  43.988  12.423
99809W        W68227  32.966  15.823  14.017
99810W        W68228  16.775  36.876  14.472
99811W        W68229  14.689  40.399   0.933
99812W        W68230  31.965  25.032  14.981
99813W        W68231  36.002   4.738   4.652
99814W        W68232   6.727  35.937   4.775
99815W        W68233  43.395   9.705   0.453
99816W        W68234  25.597   6.716   4.341
99817W        W68235  10.643  20.725   2.349
99818W        W68236  14.295   2.878   3.163
99819W        W68237  13.684  25.553  14.881
99820W        W68238   9.651  38.325  14.934
99821W        W68239  14.733  33.058   1.888
99822W        W68240  21.215  28.442  11.992
99823W        W68241  34.903  23.581   4.231
99824W        W68242  24.502  33.517  13.017
99825W        W68243  30.532  39.546  12.909
99826W        W68244   1.755   5.297   2.237
99827W        W68245  20.212  23.998   9.925
99828W        W68246   6.393  24.622  13.534
99829W        W68247  17.298   2.936  14.438
99830W        W68248  39.994   2.472   0.341
99831W        W68249  36.472  37.557  14.370
99832W        W68250   5.367   9.870   2.346
99833W        W68251  12.260  16.259  11.931
99834W        W68252  33.946  41.893  14.802
99835W        W68253  26.036  27.973  14.487
99836W        W68254  18.629  23.066  12.824
99837W        W68255  32.633  36.867  10.548
99838W        W68256  38.830  10.731   2.762
99839W        W68257  39.444  22.611   0.817
99840W        W68258  24.165  14.811   4.607
99841W        W68259  16.721   1.863  12.010
99842W        W68260   4.211  11.173   3.179
99843W        W68261  33.621  33.987   1.413
99844W        W68262  23.602  16.301   1.432
99845W        W68263  30.421  35.042   0.277
99846W        W68264  29.557   5.265   2.889
99847W        W68265   6.727   8.663   0.781
99848W        W68266   0.961  38.500   4.727
99849W        W68267  14.767  15.701   4.353
99850W        W68268  30.573  25.597   0.934
99851W        W68269  34.384  33.473  14.975
99852W        W68270   3.360  26.072   3.157
99853W        W68271  36.530  16.638  10.537
99854W        W68272  23.095  32.945  12.958
99855W        W68273  34.883  31.447   0.896
99856W        W68274  14.332  27.678  11.414
99857W        W68275  31.026  10.726  11.881
99858W        W68276  39.871  25.025  10.538
99859W        W68277  38.444  39.518   1.426
99860W        W68278  35.871  44.383   4.137
99861W        W68279  38.474  37.898  13.039
99862W        W68280  34.491  37.927   3.635
99863W        W68281  34.078  12.274  14.951
99864W        W68282  10.858  34.018   3.832
99865W        W68283  44.312  37.083  13.923
99866W        W68284   1.326  38.490  13.827
99867W        W68285  27.139  11.721  10.633
99868W        W68286  16.708  40.472  10.888
99869W        W68287  27.458  10.810   4.317
99870W        W68288  42.286   2.756  14.777
99871W        W68289  32.948  42.857   2.699
99872W        W68290  43.863  44.380  14.021
99873W        W68291  17.298  34.572   2.667
99874W        W68292   7.872  42.882   2.741
99875W        W68293  42.801  31.547  10.909
99876W        W68294   2.895  31.959   5.241
99877W        W68295  15.731  30.122  12.850
99878W        W68296  11.626  23.504  10.486
99879W        W68297  26.045   7.367  12.861
99880W        W68298  35.583  14.608   1.263
99881W        W68299   2.246  27.997  10.131
99882W        W68300  25.044   7.678  14.391
99883W        W68301  36.094  37.005  13.825
99884W        W68302  24.226  14.605  14.924
99885W        W68303   9.827  14.627   2.727
99886W        W68304   4.280  28.564   0.377
99887W        W68305  42.996  11.635  10.456
99888W        W68306   8.317  41.445  11.500
99889W        W68307  19.082  15.161   9.958
99890W        W68308  40.349  16.732  14.479
99891W        W68309  22.607  20.264   3.351
99892W        W68310  14.169   7.732  11.455
99893W        W68311   3.771  15.660   3.186
99894W        W68312  40.449   3.930  11.476
99895W        W68313  16.107   3.238   2.854
99896W        W68314  21.612  29.037   2.663
99897W        W68315  42.808  30.978   3.776
99898W        W68316  25.617   7.175   2.837
99899W        W68317  22.741  19.565   3.168
99900W        W68318  25.675  17.084   4.717
99901W        W68319  11.162  29.463   4.351
99902W        W68320   2.741  24.000   2.735
99903W        W68321  41.357   7.375   4.609
99904W        W68322  40.401  22.188   3.221
99905W        W68323  24.585  12.308   2.292
99906W        W68324  31.445  17.225  12.044
99907W        W68325  40.539   9.649  12.443
99908W        W68326  32.568  44.907   1.437
99909W        W68327  28.095  41.296  14.505
99910W        W68328  28.083  32.541  10.626
99911W        W68329  18.137  32.630   0.943
99912W        W68330  37.074  38.962   2.768
99913W        W68331  11.850  26.107   4.735
99914W        W68332  16.128  12.186   2.215
99915W        W68333  10.878  34.392   0.467
99916W        W68334  11.332  19.778   3.222
99917W        W68335  32.564  28.617   3.825
99918W        W68336   6.746   4.329  11.127
99919W        W68337  40.458  32.049   4.338
99920W        W68338  14.096  42.487  14.436
99921W        W68339   1.811   9.659   4.713
99922W        W68340  21.058  24.174  12.519
99923W        W68341  15.318  25.692   4.692
99924W        W68342  37.939  39.508   2.757
99925W        W68343  41.481   7.378  10.621
99926W        W68344  36.351  18.125  12.071
99927W        W68345  38.949   2.728   0.776
99928W        W68346   8.813  23.596  10.960
99929W        W68347  31.951  16.632  14.514
99930W        W68348  17.585  26.652  11.386
99931W        W68349   9.796   7.190   3.681
99932W        W68350  24.561  31.991   2.900
99933W        W68351   8.687   6.792   3.865
99934W        W68352  36.513   8.693   3.828
99935W        W68353   2.297  20.714  14.294
99936W        W68354  24.120  11.697   4.639
99937W        W68355  40.523   0.972  14.415
99938W        W68356  43.478  42.516   1.830
99939W        W68357  11.864  17.137  11.910
99940W        W68358  14.828  20.141  11.371
99941W        W68359  23.064  11.712   3.722
99942W        W68360   5.900  21.739  14.030
99943W        W68361  33.105  36.885  13.348
99944W        W68362  32.564  29.441  13.792
99945W        W68363  30.540   1.407   1.868
99946W        W68364  14.131  29.606  11.574
99947W        W68365  25.067  42.343   4.686
99948W        W68366  24.091  39.846  10.903
99949W        W68367  10.334  11.292   0.416
99950W        W68368  43.362  37.579  14.305
99951W        W68369   7.319  14.242  12.889
99952W        W68370  34.609  10.868  14.291
99953W        W68371  10.278  20.085   4.718
99954W        W68372  29.593  39.028   3.367
99955W        W68373  17.227  34.920  13.357
99956W        W68374  20.649  12.248   1.282
99957W        W68375   1.852   7.737   3.339
99958W        W68376  38.362  16.780   1.926
99959W        W68377  23.534  21.641   1.344
99960W        W68378   7.885  37.355   4.757
99961W        W68379  35.482  14.622   3.227
99962W        W68380   0.394  16.616  13.047
99963W        W68381  39.890  16.650  13.328
99964W        W68382  11.718  12.728  11.086
99965W        W68383  37.394   2.457  14.842
99966W        W68384   3.760  25.196  14.293
99967W        W68385  15.768  21.127  14.803
99968W        W68386  43.375  36.003  13.365
99969W        W68387   7.745  14.721   3.305
99970W        W68388  12.159  22.634  14.822
99971W        W68389  15.085   7.911  14.770
99972W        W68390  17.081  18.173   2.198
99973W        W68391  17.730  42.407   1.217
99974W        W68392  14.753  21.569  10.554
99975W        W68393  25.517  40.005  11.084
99976W        W68394  31.057  43.374  12.410
99977W        W68395   6.837   7.327   2.242
99978W        W68396  25.693  13.307   5.238
99979W        W68397  32.485   7.259  11.594
99980W        W68398   1.824   7.363  12.040
99981W        W68399  40.007  17.114   3.682
99982W        W68400  10.855   3.385   1.359
99983W        W68401  28.029  26.635   3.637
99984W        W68402  13.171  28.184   0.255
99985W        W68403  13.109  10.189  14.460
99986W        W68404  25.207   8.377   1.383
99987W        W68405  27.006  27.149  11.113
99988W        W68406   8.805  27.166   1.927
99989W        W68407  25.488  21.252  10.119
99990W        W68408  42.887  14.280  12.515
99991W        W68409  11.141  22.094  14.802
99992W        W68410  33.402  37.885   3.349
99993W        W68411  28.140  18.569  13.942
99994W        W68412  16.693  44.901   3.307
99995W        W68413  39.340  28.984  12.370
99996W        W68414  44.992  18.656   1.323
99997W        W68415  41.018  24.161  10.932
99998W        W68416  12.327  19.569  12.576
99999W        W68417  36.881  37.553   2.380
    0W        W68418  36.480   4.922  12.827
    1W        W68419   8.250  39.834  13.001
    2W        W68420  28.646   3.859  12.478
    3W        W68421  41.859   5.888   4.117
    4W        W68422  11.704  16.188  11.613
    5W        W68423   3.892   9.269  11.882
    6W        W68424  37.519  40.896   0.873
    7W        W68425  15.642  10.280   4.657
    8W        W68426  23.146  14.332   4.672
    9W        W68427   8.398   3.882   3.860
   10W        W68428  13.201  33.074   0.813
   11W        W68429  23.214  11.242  14.397
   12W        W68430  35.984  17.646  12.036
   13W        W68431  39.428  23.211  14.829
   14W        W68432  14.736  21.576   2.742
   15W        W68433  16.115  12.807   3.169
   16W        W68434   3.922  17.748   1.868
   17W        W68435  29.043  29.446  11.443
   18W        W68436  11.218   9.859   3.849
   19W        W68437  21.102   3.813   1.339
   20W        W68438  29.038  16.223   2.392
   21W        W68439  28.560  28.670  10.461
   22W        W68440  30.603  37.058  11.086
   23W        W68441  36.004  21.534  13.951
   24W        W68442   2.746   5.735  12.085
   25W        W68443   6.288   9.875   2.274
   26W        W68444  14.252  35.032   3.149
   27W        W68445  27.130   4.931  12.833
   28W        W68446  12.117   4.315   3.262
   29W        W68447  36.899  37.933  10.625
   30W        W68448   9.869  16.618   1.840
   31W        W68449  10.729   2.829   0.415
   32W        W68450  25.180   7.243   2.773
   33W        W68451  10.867  14.649  14.783
   34W        W68452  14.325   5.885   4.169
   35W        W68453   4.376   7.386   2.829
   36W        W68454   4.857  34.965  14.024
   37W        W68455  41.514  31.999   4.223
   38W        W68456   3.374  30.920   4.795
   39W        W68457  18.178  17.152  12.569
   40W        W68458  17.743  16.671  11.857
   41W        W68459   6.208  27.142   2.251
   42W        W68460   4.877  19.690   4.687
   43W        W68461  15.798  31.071  14.822
   44W        W68462   2.425  36.482  10.560
   45W        W68463  34.507  13.741   2.791
   46W        W68464  36.586  13.619   4.221
   47W        W68465  34.525  38.013  13.979
   48W        W68466  33.929  27.079   2.337
   49W        W68467  16.628  38.941   4.771
   50W        W68468  10.267  33.933  14.946
   51W        W68469  33.458  38.950  12.902
   52W        W68470  15.735  31.130   0.760
   53W        W68471  18.552  11.366   3.342
   54W        W68472  11.758  35.396  13.956
   55W        W68473  39.841  23.531   3.387
   56W        W68474  30.974  37.350  14.385
   57W        W68475  29.116  32.917   4.272
   58W        W68476  25.476  41.867   3.305
   59W        W68477  30.588  21.249  13.860
   60W        W68478  11.847   1.414   1.254
   61W        W68479  42.935  17.141   0.299
   62W        W68480  37.509  18.609   5.120
   63W        W68481  35.862   5.343   3.802
   64W        W68482  43.898  40.396  13.512
   65W        W68483   3.288  42.498  10.437
   66W        W68484  31.152  21.114   0.348
   67W        W68485   9.654  17.091  12.927
   68W        W68486  42.993   7.847   1.354
   69W        W68487   1.452  21.250   4.708
   70W        W68488  19.117  10.287   0.933
   71W        W68489  42.471  29.034   4.295
   72W        W68490  11.129  41.320  10.624
   73W        W68491  19.686  26.119   0.746
   74W        W68492  30.529  40.370   2.320
   75W        W68493  37.990   1.930   3.195
   76W        W68494  31.959  20.032   4.332
   77W        W68495  20.231  32.901  10.453
   78W        W68496  40.308  36.468  14.906
   79W        W68497  44.428  36.024  14.880
   80W        W68498  24.013  41.976  14.862
   81W        W68499   7.721  16.736   4.259
   82W        W68500   3.385   1.471  12.340
   83W        W68501  42.338  42.380   0.280
   84W        W68502  29.033   2.338   3.174
   85W        W68503  20.043   0.781  11.410
   86W        W68504  22.060   3.891  14.342
   87W        W68505  40.376  40.503  14.785
   88W        W68506  20.177  15.591   5.098
   89W        W68507  42.996  14.729  10.092
   90W        W68508  16.600  41.442   3.798
   91W        W68509  25.500  40.913   2.847
   92W        W68510  28.031   9.276   9.921
   93W        W68511  26.018  11.215  13.827
   94W        W68512   7.411  24.013  12.479
   95W        W68513  14.187   4.258   3.686
   96W        W68514   2.842   0.907  13.812
   97W        W68515  25.196  16.243  12.044
   98W        W68516  30.630   3.229  11.561
   99W        W68517   5.724  37.365   0.401
  100W        W68518  15.193  34.931  13.855
  101W        W68519  22.695  11.807   1.872
  102W        W68520  37.006  13.273  12.883
  103W        W68521  17.229  12.292   3.756
  104W        W68522  43.783  14.822   3.365
  105W        W68523  17.217  43.504  13.815
  106W        W68524  27.582  33.883  12.352
  107W        W68525  34.009  42.333   1.723
  108W        W68526  29.489   2.761  11.025
  109W        W68527  35.099  31.540  13.500
  110W        W68528  14.638   1.811   1.350
  111W        W68529   0.352  22.674  10.922
  112W        W68530  26.527  43.297  13.011
  113W        W68531   1.416  19.208  14.906
  114W        W68532  14.818   2.260  10.429
  115W        W68533  37.072  19.091   4.688
  116W        W68534  42.479  36.911  11.495
  117W        W68535  22.655  26.611  14.909
  118W        W68536  44.441  32.059  14.996
  119W        W68537   9.394   7.776   1.268
  120W        W68538  26.574   1.293   3.766
  121W        W68539  17.215  22.656   2.729
  122W        W68540  13.648  40.950  10.930
  123W        W68541   9.332   1.238   2.207
  124W        W68542  15.601  23.647  11.492
  125W        W68543  24.084  18.170  14.777
  126W        W68544  35.932   5.727   1.826
  127W        W68545   0.392  25.522   0.264
  128W        W68546  42.995  43.931  10.110
  129W        W68547   8.341  41.042  13.892
  130W        W68548  37.507   9.300  11.870
  131W        W68549   1.283  37.835  12.037
  132W        W68550  41.297  38.879   1.339
  133W        W68551  44.273  28.016  12.453
  134W        W68552   0.318  34.986   1.250
  135W        W68553  44.977  40.482   3.735
  136W        W68554   7.404   0.466   2.785
  137W        W68555  43.340  28.443   3.226
  138W        W68556  29.162  29.149   4.142
  139W        W68557   7.392   5.238   1.279
  140W        W68558  42.014  27.030  13.803
  141W        W68559  38.336  30.511   4.704
  142W        W68560  39.459   8.289   1.233
  143W        W68561  31.621  40.483   3.853
  144W        W68562  15.679  40.451   0.780
  145W        W68563  36.028  23.137   3.340
  146W        W68564  19.598  16.788   4.803
  147W        W68565  36.434  30.021   1.353
  148W        W68566   1.346   7.367   4.617
  149W        W68567   6.798   6.891  11.497
  150W        W68568  19.209  14.303  13.358
  151W        W68569  25.669  26.110  11.597
  152W        W68570  20.049  19.169   3.204
  153W        W68571   6.200  10.223  11.955
  154W        W68572   9.331  26.205   2.680
  155W        W68573  15.813  38.828  12.568
  156W        W68574   2.953  34.447   1.754
  157W        W68575  28.492  17.296  14.832
  158W        W68576  26.956  40.406   4.215
  159W        W68577  27.081  13.156   1.231
  160W        W68578  40.404  16.117   1.234
  161W        W68579  18.189  36.876   2.768
  162W        W68580  11.714   1.278  12.996
  163W        W68581  32.973  40.822   3.248
  164W        W68582  44.351  21.166   1.305
  165W        W68583   3.744   5.692   1.872
  166W        W68584  43.954  22.190   0.313
  167W        W68585  43.405   1.744  14.291
  168W        W68586  22.637  14.722  12.470
  169W        W68587  35.913  36.844   5.708
  170W        W68588  27.075  41.950   1.701
  171W        W68589   9.364  44.953   0.254
  172W        W68590  23.185  44.857  11.062
  173W        W68591  13.141  33.931  10.640
  174W        W68592  14.278   8.848   2.375
  175W        W68593  12.192   0.883  14.460
  176W        W68594  29.963   3.902  13.500
  177W        W68595  13.624  22.020  10.924
  178W        W68596  24.086  27.187   2.733
  179W        W68597   0.885  30.569  13.400
  180W        W68598  11.690  38.045  13.377
  181W        W68599   4.205  44.862  11.537
  182W        W68600  14.334  15.672   2.334
  183W        W68601  30.627  19.213  12.835
  184W        W68602  17.263  12.708  12.438
  185W        W68603  44.986  20.523   3.657
  186W        W68604  20.212   9.243   3.690
  187W        W68605   5.206  17.617   4.301
  188W        W68606   4.912  41.291  11.904
  189W        W68607  39.004  15.310   4.778
  190W        W68608  10.746  17.621   0.450
  191W        W68609   0.307  41.789  13.521
  192W        W68610  31.619   3.432   3.277
  193W        W68611  40.494  21.252  13.048
  194W        W68612  35.863  13.281   4.697
  195W        W68613  18.603  20.528  14.368
  196W        W68614  19.543   3.940   4.122
  197W        W68615   1.921  10.771   4.342
  198W        W68616   6.335  19.148   2.666
  199W        W68617   2.864  40.492   0.382
  200W        W68618  27.016  27.457  12.506
  201W        W68619  20.188  37.040   4.724
  202W        W68620   4.368  37.442  12.564
  203W        W68621  28.607   9.846   1.442
  204W        W68622  40.824  35.548  11.080
  205W        W68623  21.128  31.425  13.458
  206W        W68624  15.739   4.276  10.524
  207W        W68625  35.997  31.105  10.450
  208W        W68626  43.494  12.685  14.479
  209W        W68627  10.220  25.056   3.173
  210W        W68628  42.851  39.518  13.521
  211W        W68629  31.904  15.581  12.955
  212W        W68630  28.123  41.853   2.285
  213W        W68631  39.929  10.384   4.782
  214W        W68632  21.594  17.737  10.943
  215W        W68633   6.207   7.401  10.545
  216W        W68634  15.729  13.266   4.163
  217W        W68635  37.472  28.042   0.764
  218W        W68636  13.214  13.655   2.765
  219W        W68637  29.086  18.625  12.361
  220W        W68638  42.351  19.663   1.435
  221W        W68639  22.657   5.347   4.299
  222W        W68640  25.622  36.479   3.343
  223W        W68641  28.082  20.055   1.251
  224W        W68642   1.928  20.118  10.026
  225W        W68643  26.987  28.615   3.310
  226W        W68644  31.973  29.511  11.407
  227W        W68645   2.406  12.286   0.745
  228W        W68646  20.273   5.306   1.397
  229W        W68647  44.914  36.910  11.558
  230W        W68648  35.946   9.788  11.470
  231W        W68649  10.864  30.153  11.555
  232W        W68650  37.337   9.866  12.904
  233W        W68651  43.811  16.117   4.836
  234W        W68652  11.822  14.707   2.794
  235W        W68653  22.699  28.176   1.884
  236W        W68654  44.882  16.671   4.621
  237W        W68655  39.318   0.479   0.940
  238W        W68656  44.356  12.183  10.564
  239W        W68657  31.993  28.167   5.105
  240W        W68658  37.405  22.679   5.184
  241W        W68659  29.080  40.415   4.659
  242W        W68660  42.515  22.689  14.767
  243W        W68661  43.361   7.209   0.478
  244W        W68662  35.935  39.328  14.866
  245W        W68663   3.456  11.347   1.213
  246W        W68664  20.670  40.016   3.706
  247W        W68665   6.387   7.714   3.212
  248W        W68666  22.079   3.905  12.926
  249W        W68667  34.994   9.858  11.115
  250W        W68668  23.118  35.966  13.379
  251W        W68669   8.814  11.256  11.961
  252W        W68670  26.991  37.848   1.350
  253W        W68671   6.226  26.569   3.766
  254W        W68672  16.146  21.228  10.887
  255W        W68673  21.711  40.051  11.477
  256W        W68674  23.523  15.122  11.528
  257W        W68675  43.335  33.471  12.047
  258W        W68676  17.095  32.142  13.966
  259W        W68677  37.944  24.190   1.724
  260W        W68678  33.969  19.702  11.898
  261W        W68679  31.519  38.549  14.277
  262W        W68680  41.898  34.901   1.217
  263W        W68681  37.852  37.920   0.339
  264W        W68682  17.754  40.449  10.914
  265W        W68683  31.420   3.852   2.666
  266W        W68684  16.095  10.146   1.920
  267W        W68685  16.593  43.432   3.231
  268W        W68686  37.336  29.133  13.960
  269W        W68687  34.017  29.492   4.785
  270W        W68688  44.407  44.349   0.750
  271W        W68689   0.321  18.708   4.721
  272W        W68690   1.812  21.679   5.186
  273W        W68691  32.957  42.872   3.657
  274W        W68692  36.569  10.742  13.059
  275W        W68693  32.631  42.889   1.285
  276W        W68694  35.093   1.354   4.178
  277W        W68695   6.827  14.811   1.335
  278W        W68696  31.497  18.700  14.342
  279W        W68697  37.421  17.258   0.365
  280W        W68698  39.853   8.713  14.510
  281W        W68699   9.197   7.197  14.864
  282W        W68700  41.857  17.180  12.350
  283W        W68701  38.877  29.010   2.800
  284W        W68702  21.679  25.533  12.844
  285W        W68703  28.119  20.753   3.281
  286W        W68704  30.137  25.599   3.304
  287W        W68705   6.378  23.654   1.258
  288W        W68706   0.342  43.434  13.943
  289W        W68707   1.954  35.372   1.362
  290W        W68708  21.741   6.869  11.452
  291W        W68709   9.195  19.743  13.522
  292W        W68710  36.970  38.898   4.205
  293W        W68711   6.721  33.519   3.384
  294W        W68712  26.098   0.781  13.869
  295W        W68713  13.125  27.677  12.089
  296W        W68714  31.074  22.517   1.223
  297W        W68715  41.001  25.560  11.959
  298W        W68716   8.749   9.290   3.162
  299W        W68717  14.267  10.649   3.159
  300W        W68718   0.356  16.796   1.748
  301W        W68719  36.975  28.016  14.766
  302W        W68720  24.987  13.315  11.417
  303W        W68721   9.233  19.195   1.903
  304W        W68722  36.881  35.072   3.317
  305W        W68723  33.084  24.615   3.648
  306W        W68724  27.638   9.345   2.664
  307W        W68725   9.360   7.406   3.311
  308W        W68726  27.966   1.812   0.274
  309W        W68727  20.660   9.258   2.845
  310W        W68728  37.442   8.885   4.639
  311W        W68729   8.241  33.967  12.011
  312W        W68730  21.578  12.313   2.382
  313W        W68731  38.050  28.185  14.884
  314W        W68732  41.848   8.718   1.770
  315W        W68733   5.337  18.261   3.676
  316W        W68734  34.888  18.185   0.929
  317W        W68735  24.612  44.802  10.918
  318W        W68736  15.299  24.555   0.354
  319W        W68737  22.164  24.108  13.409
  320W        W68738  43.922  22.011  14.856
  321W        W68739  42.995  12.120   4.804
  322W        W68740   1.447  41.428  13.850
  323W        W68741  29.171  31.001   1.421
  324W        W68742  10.780  30.526  12.917
  325W        W68743  44.917  11.691   4.175
  326W        W68744   2.377   9.253   3.837
  327W        W68745   2.738   0.287   0.294
  328W        W68746  21.542  33.961  13.929
  329W        W68747  25.998  13.731   2.764
  330W        W68748  21.644   0.915   3.186
  331W        W68749   9.196  34.569  11.039
  332W        W68750  36.968  21.191   4.768
  333W        W68751   2.945   2.943   1.927
  334W        W68752  16.718   4.330   4.228
  335W        W68753   0.321  24.071  12.979
  336W        W68754  12.326  13.105  11.930
  337W        W68755  41.040  25.712   3.274
  338W        W68756  38.979  14.286   4.208
  339W        W68757  31.994  20.238  14.915
  340W        W68758  26.204  16.222   4.645
  341W        W68759  27.476  14.232   5.282
  342W        W68760  36.958  37.897  10.071
  343W        W68761  17.240  15.718  14.847
  344W        W68762  15.765  38.530   4.152
  345W        W68763  11.280   0.856  12.440
  346W        W68764  14.179   2.940   0.270
  347W        W68765   4.442  35.365   1.850
  348W        W68766  17.085  27.482   2.673
  349W        W68767  32.489  22.044  14.378
  350W        W68768  15.214  22.559  12.404
  351W        W68769  21.125  10.264   2.308
  352W        W68770   1.457  37.382   3.731
  353W        W68771  18.716  30.532   5.272
  354W        W68772  24.601   2.790  14.422
  355W        W68773  39.453  30.076   1.696
  356W        W68774   9.247   9.375   3.153
  357W        W68775  29.431  32.558   2.363
  358W        W68776  37.568  25.123   4.703
  359W        W68777  31.585  18.197   4.602
  360W        W68778  17.300  12.717  14.861
  361W        W68779   6.775   2.745   0.870
  362W        W68780  35.426  44.482  12.577
  363W        W68781  18.196  22.043   0.448
  364W        W68782  37.428  23.649   2.872
  365W        W68783  12.168   1.900  12.999
  366W        W68784   8.799  12.669   2.827
  367W        W68785  14.734  31.051   3.155
  368W        W68786   7.219  27.148   3.713
  369W        W68787  24.706  28.550   4.185
  370W        W68788   1.269   7.694   2.370
  371W        W68789  35.921   8.773  14.785
  372W        W68790  26.202   7.849  10.013
  373W        W68791  25.670  30.494   0.809
  374W        W68792  44.927  10.170   0.407
  375W        W68793  17.721   7.239  13.986
  376W        W68794  33.594  13.677   2.374
  377W        W68795  15.686  16.236  12.504
  378W        W68796  22.223  16.162   0.398
  379W        W68797  38.023  36.957  11.611
  380W        W68798  20.196  22.997  14.302
  381W        W68799   9.217  20.192   4.756
  382W        W68800  26.043   7.343   3.718
  383W        W68801  43.422  34.022   0.897
  384W        W68802  37.360   9.796   4.715
  385W        W68803  15.764  34.025   2.230
  386W        W68804  19.604  21.107   2.880
  387W        W68805   7.284  18.261  12.511
  388W        W68806  12.702  37.896   1.920
  389W        W68807  34.507  18.053   2.802
  390W        W68808   6.831  32.001   2.390
  391W        W68809   1.843   2.764   4.635
  392W        W68810  30.628  12.680   1.847
  393W        W68811  11.163  31.904  13.520
  394W        W68812  41.451  14.632   4.599
  395W        W68813   9.250   2.226   2.265
  396W        W68814  27.093   3.768   3.731
  397W        W68815  26.554  38.954  10.948
  398W        W68816  39.472  32.114  11.967
  399W        W68817   4.870  18.743   4.307
  400W        W68818  25.516  29.083   2.300
  401W        W68819  41.458  40.941  10.007
  402W        W68820  13.283   6.340  11.586
  403W        W68821  14.792  28.471  11.464
  404W        W68822  35.012   3.250   5.246
  405W        W68823   1.807  20.710   4.632
  406W        W68824   6.785  30.436   1.333
  407W        W68825  12.722  37.532  12.564
  408W        W68826  44.958   8.371   2.785
  409W        W68827  21.626  23.510   2.734
  410W        W68828  17.263  26.574  13.488
  411W        W68829  39.905  26.587   1.764
  412W        W68830  11.802  12.702  13.466
  413W        W68831  39.466  44.008  14.821
  414W        W68832  30.160  39.504   3.147
  415W        W68833  43.346  33.065  12.542
  416W        W68834  32.111   1.402  13.952
  417W        W68835  26.058  26.952  11.001
  418W        W68836   2.391  30.159  12.949
  419W        W68837   0.321   1.774   3.849
  420W        W68838   7.810  43.824  11.893
  421W        W68839   5.388  10.348   2.304
  422W        W68840   6.878  13.624  12.536
  423W        W68841  13.286  25.546   0.449
  424W        W68842   8.354  16.139  11.010
  425W        W68843  13.329  19.717   1.433
  426W        W68844   4.350  37.488   3.200
  427W        W68845   2.854  40.015  14.777
  428W        W68846  43.438  25.021  14.423
  429W        W68847  26.984  39.314  12.071
  430W        W68848   0.344   4.763   1.341
  431W        W68849  39.468  38.335   1.392
  432W        W68850  34.573  23.716  11.887
  433W        W68851  18.294  35.554  11.607
  434W        W68852   4.369  35.889  13.392
  435W        W68853  17.159  16.132   0.315
  436W        W68854  25.633  39.837  14.475
  437W        W68855  28.586   5.773   4.832
  438W        W68856  11.178  14.768   4.674
  439W        W68857   7.705  17.786  13.472
  440W        W68858  22.718  26.471  14.502
  441W        W68859   3.798   7.793   4.715
  442W        W68860  36.912  22.700   4.165
  443W        W68861  32.889  10.828  10.999
  444W        W68862  11.705   1.880   3.291
  445W        W68863  14.309  25.975  13.022
  446W        W68864  35.986  25.041  13.332
  447W        W68865  40.455  44.793  11.925
  448W        W68866   2.231  17.667   2.344
  449W        W68867   0.868  16.587   0.735
  450W        W68868  23.665  28.003   3.322
  451W        W68869  22.244  26.547   4.644
  452W        W68870  20.134  11.128  13.036
  453W        W68871  44.435   7.304   3.153
  454W        W68872   5.828  38.841  11.563
  455W        W68873   9.177   7.863   0.468
  456W        W68874  19.775  43.312   1.911
  457W        W68875  28.976  11.708  14.470
  458W        W68876  18.775  38.955  14.024
  459W        W68877  31.124  18.660   0.806
  460W        W68878  39.526  27.543   4.641
  461W        W68879  34.468   7.791  13.499
  462W        W68880   4.240  36.961  10.888
  463W        W68881  21.105  23.138   1.443
  464W        W68882  29.491  23.205   0.324
  465W        W68883  36.357  21.718   4.644
  466W        W68884  22.135  42.814   0.778
  467W        W68885  34.903  16.275  11.920
  468W        W68886  34.092  20.101   2.760
  469W        W68887  43.370   3.785  11.428
  470W        W68888  44.845  29.439  14.425
  471W        W68889   6.745   2.427   4.708
  472W        W68890   7.768  29.009   3.703
  473W        W68891  28.668  26.967  11.082
  474W        W68892  10.320  37.067  12.833
  475W        W68893   1.413  11.621   4.166
  476W        W68894  18.754  25.541   4.344
  477W        W68895  38.563  37.885  13.922
  478W        W68896  43.883  15.173   0.922
  479W        W68897  25.015  29.151  10.896
  480W        W68898   9.836   9.815   0.463
  481W        W68899  12.197  10.266  11.371
  482W        W68900  16.582  34.534   3.322
  483W        W68901  35.954   5.897   2.286
  484W        W68902  15.168  22.714   2.368
  485W        W68903  20.664   1.446  14.920
  486W        W68904  15.240  42.850  11.418
  487W        W68905  19.163   4.923  11.017
  488W        W68906  41.879  33.501  10.939
  489W        W68907   9.379  35.457   3.237
  490W        W68908  16.800  41.313  11.954
  491W        W68909   7.802  21.111   0.350
  492W        W68910  42.404  37.497   4.666
  493W        W68911  44.918  15.822   1.301
  494W        W68912  28.512   6.282   1.907
  495W        W68913  39.377  29.581   1.722
  496W        W68914  36.365   6.250   4.751
  497W        W68915  27.522  23.191  10.611
  498W        W68916  20.183  26.473   0.797
  499W        W68917  13.684  31.939  14.840
  500W        W68918  17.126  38.030  10.533
  501W        W68919  43.930  34.455   2.411
  502W        W68920  17.687  42.031  14.978
  503W        W68921  33.562  24.039   4.770
  504W        W68922   0.826  41.019   0.868
  505W        W68923  42.909  30.577  10.615
  506W        W68924  14.140  40.370   2.374
  507W        W68925  33.901  30.138   4.604
  508W        W68926  35.551  44.948  12.468
  509W        W68927  38.914  27.070  11.068
  510W        W68928   3.234  27.515   2.180
  511W        W68929  23.212  34.888  12.369
  512W        W68930   7.682  18.130   4.609
  513W        W68931  30.923  21.699   2.769
  514W        W68932   4.426   3.823  14.288
  515W        W68933  21.722  38.991  11.413
  516W        W68934  44.790   4.304  11.437
  517W        W68935  15.620  25.623  10.918
  518W        W68936  21.750  30.025   3.168
  519W        W68937   4.746  14.140  12.384
  520W        W68938  16.604  40.387  13.895
  521W        W68939  13.610   9.663   4.260
  522W        W68940  20.617   1.919   2.758
  523W        W68941  16.677  23.674  10.961
  524W        W68942  43.443  21.248  11.552
  525W        W68943   3.363   4.815  10.528
  526W        W68944   7.689  26.127  11.508
  527W        W68945  19.141  36.521  14.426
  528W        W68946   1.344   5.418   4.339
  529W        W68947   3.226  34.421  10.621
  530W        W68948  17.721  25.107   0.872
  531W        W68949   8.298  16.256  13.013
  532W        W68950  35.014  14.174  11.989
  533W        W68951  18.790  34.532   1.767
  534W        W68952   0.806  23.524  13.307
  535W        W68953  10.744   7.335  12.867
  536W        W68954  10.637  16.310   3.853
  537W        W68955  12.150  36.898   3.310
  538W        W68956  24.598  18.659  11.926
  539W        W68957  42.527  35.381  11.435
  540W        W68958  23.634   9.749   1.770
  541W        W68959   8.365  16.715  12.421
  542W        W68960  21.703  27.584  10.460
  543W        W68961  22.573  27.009   2.337
  544W        W68962   8.306  27.611  14.362
  545W        W68963   0.295   8.178  12.486
  546W        W68964  17.595  36.390  12.002
  547W        W68965  19.632  40.951   3.734
  548W        W68966   6.813  37.838   3.333
  549W        W68967  28.965  30.472  10.971
  550W        W68968  37.061  37.011  12.477
  551W        W68969  42.978  12.164  14.030
  552W        W68970  14.810  42.003  14.955
  553W        W68971  12.665  22.734  12.498
  554W        W68972  21.517  10.204  11.038
  555W        W68973  24.687   1.312   3.380
  556W        W68974   2.834  42.441   0.909
  557W        W68975  42.475  34.488  14.955
  558W        W68976   7.255   3.434  11.465
  559W        W68977  32.953  32.455   0.945
  560W        W68978  34.478   8.767   1.880
  561W        W68979  16.171  22.688  13.882
  562W        W68980  28.589  42.362  12.441
  563W        W68981  31.040  33.074  11.605
  564W        W68982  44.930  35.872  13.926
  565W        W68983  19.778   6.207   4.334
  566W        W68984  28.654  34.542  12.049
  567W        W68985  23.176  17.673   1.316
  568W        W68986  34.064   5.435  13.018
  569W        W68987  16.641  42.510   0.754
  570W        W68988  29.127  11.286  12.948
  571W        W68989  25.601  18.707   4.810
  572W        W68990   7.393  41.322  10.500
  573W        W68991   9.822  17.722   4.625
  574W        W68992   0.387  30.078   3.768
  575W        W68993  14.756   1.889  11.106
  576W        W68994   2.266   7.730   3.739
  577W        W68995  18.779  30.094  12.929
  578W        W68996   1.406  22.642  12.854
  579W        W68997  26.103  13.221   3.781
  580W        W68998  29.482  13.630  12.892
  581W        W68999  13.830  35.082  10.907
  582W        W69000  36.991  11.677  14.899
  583W        W69001  11.837  43.826  13.504
  584W        W69002   6.781  38.917  10.562
  585W        W69003  18.786  33.441   2.718
  586W        W69004  43.990  42.930   2.341
  587W        W69005  15.231  23.096   3.312
  588W        W69006  27.990   7.329   2.334
  589W        W69007  19.071  35.866   4.155
  590W        W69008  15.753  33.913  14.461
  591W        W69009  39.457  31.478   2.854
  592W        W69010  42.845   3.305  13.377
  593W        W69011  13.346  26.098  11.538
  594W        W69012  25.580  19.271   0.400
  595W        W69013   1.440  11.703  10.906
  596W        W69014  15.307  17.159  12.050
  597W        W69015   8.750  12.280  12.088
  598W        W69016  42.333  10.244   4.256
  599W        W69017  32.395  29.005   4.654
  600W        W69018  16.100  13.250   2.336
  601W        W69019  43.933  42.439  12.892
  602W        W69020  19.135  12.670   1.265
  603W        W69021   7.360   0.386  14.504
  604W        W69022   3.893  40.955   1.911
  605W        W69023   8.197  13.322   2.210
  606W        W69024  32.394  25.601  13.394
  607W        W69025  14.611  40.973  12.485
  608W        W69026  35.038  42.814   4.353
  609W        W69027   4.349   4.918  14.327
  610W        W69028  19.549   2.765   0.389
  611W        W69029  42.431  17.557   4.832
  612W        W69030  18.164   6.231  11.593
  613W        W69031   2.374  40.840  14.482
  614W        W69032  17.161  16.606   1.344
  615W        W69033  29.661  15.201   1.861
  616W        W69034  25.628   7.670   1.846
  617W        W69035  18.559  33.403   4.138
  618W        W69036   2.468  12.649   4.806
  619W        W69037   9.363  10.273  14.294
  620W        W69038  41.422  12.154   0.911
  621W        W69039   2.764  23.110  10.451
  622W        W69040  13.603  12.228  14.376
  623W        W69041  34.521  18.287   1.251
  624W        W69042  41.854   7.687   1.876
  625W        W69043  41.866  28.084  12.423
  626W        W69044   3.443  22.696   3.730
  627W        W69045  10.215  15.228  11.050
  628W        W69046  19.221  42.980   3.661
  629W        W69047  20.243   0.913  10.565
  630W        W69048  16.082  22.503   1.314
  631W        W69049  25.101  33.944   1.380
  632W        W69050   0.316  22.166  14.479
  633W        W69051  32.531   7.207  13.449
  634W        W69052   2.422  17.257  10.992
  635W        W69053  41.893   5.849  13.040
  636W        W69054  17.221  21.757   0.314
  637W        W69055  28.157   0.263   2.745
  638W        W69056  39.003   5.699   3.709
  639W        W69057   5.909  39.919  10.503
  640W        W69058  32.583  39.896  11.422
  641W        W69059  39.413  21.071   4.248
  642W        W69060  10.179  17.280   3.176
  643W        W69061  18.622  14.637   2.791
  644W        W69062  18.574  14.763   1.385
  645W        W69063   0.340  28.559  14.509
  646W        W69064  40.946  31.594  13.022
  647W        W69065  22.599  10.639  13.816
  648W        W69066  16.087  13.697   0.365
  649W        W69067  15.767  39.873   2.211
  650W        W69068  12.269  16.572   2.880
  651W        W69069  20.034  28.500   0.805
  652W        W69070  18.592  13.792  12.959
  653W        W69071  21.632  37.913  11.124
  654W        W69072   6.876  15.245   3.174
  655W        W69073   4.219  42.996   2.400
  656W        W69074  31.942   6.228   5.270
  657W        W69075  25.622  23.492  13.938
  658W        W69076  27.518  26.069   2.211
  659W        W69077  26.972  28.975   0.291
  660W        W69078  34.952  42.396  13.525
  661W        W69079  20.622  43.878  13.536
  662W        W69080  23.163  25.120  13.424
  663W        W69081  27.632  44.915   3.662
  664W        W69082   8.897  26.529   0.899
  665W        W69083   3.871  22.732   5.083
  666W        W69084  24.489  42.846   1.393
  667W        W69085  14.290  23.538   0.296
  668W        W69086  30.523   7.388  13.411
  669W        W69087  18.285  37.965  14.377
  670W        W69088  43.879  15.799  10.413
  671W        W69089  11.622   0.435  12.847
  672W        W69090  43.428  42.469   0.472
  673W        W69091  13.800  40.437   1.222
  674W        W69092   8.339  12.696   0.469
  675W        W69093  19.744  27.016   2.392
  676W        W69094   4.723  41.887   4.660
  677W        W69095  14.812  26.512   2.776
  678W        W69096  10.717   1.848  13.913
  679W        W69097  23.991  24.026   1.805
  680W        W69098  44.397  27.550  13.373
  681W        W69099   7.386   9.677  14.326
  682W        W69100   8.316  10.183  10.511
  683W        W69101  41.434  16.777   3.680
  684W        W69102  20.680  16.254  14.022
  685W        W69103  34.429  35.900  11.041
  686W        W69104  20.076   6.765  13.364
  687W        W69105  40.912  40.872  13.851
  688W        W69106   0.367  13.183   2.754
  689W        W69107  17.290  39.321   1.716
  690W        W69108  15.635  27.139  10.920
  691W        W69109  35.587  35.876   2.417
  692W        W69110   7.176  31.636   4.612
  693W        W69111  38.950  14.207  11.884
  694W        W69112  26.034  10.735  14.869
  695W        W69113   5.847  28.133   1.734
  696W        W69114   2.310  21.717   3.819
  697W        W69115   6.406  32.027   5.115
  698W        W69116  27.018  28.949   1.806
  699W        W69117  33.393  26.980   3.681
  700W        W69118  25.518  43.782   1.441
  701W        W69119  34.480  37.391   5.615
  702W        W69120  37.530  31.074   3.367
  703W        W69121  40.364  25.053   2.850
  704W        W69122  44.312  22.566   0.790
  705W        W69123   1.382  41.860  11.009
  706W        W69124  33.556  17.670   3.293
  707W        W69125  23.513  29.498   4.766
  708W        W69126  12.345   4.770  11.441
  709W        W69127  37.429  31.567   4.762
  710W        W69128  27.039  27.535   0.732
  711W        W69129  11.224  32.614  12.955
  712W        W69130  12.319   9.704  10.453
  713W        W69131  22.183  14.616   4.237
  714W        W69132  34.944  43.910   1.220
  715W        W69133  35.396   9.875   3.171
  716W        W69134  11.624  13.694   4.657
  717W        W69135  43.956  37.974   2.678
  718W        W69136  24.185  42.962  10.920
  719W        W69137   7.692  10.285  10.425
  720W        W69138  16.245  26.537  12.072
  721W        W69139  28.572  24.223   2.793
  722W        W69140  31.138  19.548  11.449
  723W        W69141   6.860  18.756   2.778
  724W        W69142  10.263  25.195   3.839
  725W        W69143  23.092  12.789  13.395
  726W        W69144   3.903  25.586   4.754
  727W        W69145  18.170  15.666   1.372
  728W        W69146  26.547   1.463  11.601
  729W        W69147   0.898   7.690  14.823
  730W        W69148  33.015  39.859   2.242
  731W        W69149  39.552  37.406   3.332
  732W        W69150  27.962  23.629   5.299
  733W        W69151  13.275  26.544   4.726
  734W        W69152  11.334  15.326   4.300
  735W        W69153  24.505  39.330  11.577
  736W        W69154  33.399  22.178   2.322
  737W        W69155  32.003   2.407   2.885
  738W        W69156  17.297  37.460  10.500
  739W        W69157   9.744  40.981  12.479
  740W        W69158  26.635  11.713   3.350
  741W        W69159  37.941  25.045   1.860
  742W        W69160   1.437   4.313  14.835
  743W        W69161  25.499  17.186   4.321
  744W        W69162  14.286  38.066   4.601
  745W        W69163  15.326  40.007  14.768
  746W        W69164  29.640  31.635  10.577
  747W        W69165   1.273  23.144   3.794
  748W        W69166  21.219  16.575  12.530
  749W        W69167  42.403  34.053  11.508
  750W        W69168  41.517  28.464   1.694
  751W        W69169  31.581  26.143   2.318
  752W        W69170  31.081   9.173   2.200
  753W        W69171  31.124  17.137   0.374
  754W        W69172   6.241  27.451   3.769
  755W        W69173  27.500  10.246  12.382
  756W        W69174  44.393  24.196   1.246
  757W        W69175   8.287  11.663  14.380
  758W        W69176  21.223  37.472   0.320
  759W        W69177  11.359   4.915  13.034
  760W        W69178   6.918  13.287   0.374
  761W        W69179  12.281  35.011   2.821
  762W        W69180  20.619  24.634   5.312
  763W        W69181  26.088  13.770  10.640
  764W        W69182  15.122  19.749   1.750
  765W        W69183  18.073   6.209  12.885
  766W        W69184  24.211  13.764   0.747
  767W        W69185  24.548   0.973   4.621
  768W        W69186  23.625   8.169  14.796
  769W        W69187  34.510  43.341   3.746
  770W        W69188  18.159  14.161   2.413
  771W        W69189  16.308  12.720   2.888
  772W        W69190  15.184  36.902   0.340
  773W        W69191  28.001   2.730   3.265
  774W        W69192  40.464  37.466   1.803
  775W        W69193  43.280  25.100  13.334
  776W        W69194  32.535  38.910   2.809
  777W        W69195  33.013  10.282   0.875
  778W        W69196  39.880  15.240   1.896
  779W        W69197  14.640  38.042   0.884
  780W        W69198  18.635  43.889  14.824
  781W        W69199  23.605   3.770  11.054
  782W        W69200  25.030  40.403  12.476
  783W        W69201   9.854  11.692   3.338
  784W        W69202  34.548  23.704   0.469
  785W        W69203   0.295  21.111  12.902
  786W        W69204  42.989  31.586  11.587
  787W        W69205  15.799  36.357  14.387
  788W        W69206  40.800  42.427   2.863
  789W        W69207  26.161   0.934   4.757
  790W        W69208  18.570  38.901   0.950
  791W        W69209  40.496   9.383  10.939
  792W        W69210  23.002  23.724  12.995
  793W        W69211  22.205  22.550  11.375
  794W        W69212  29.060  14.647  13.477
  795W        W69213  33.927   3.766  11.516
  796W        W69214   9.754  23.736   1.282
  797W        W69215   0.456   5.749  10.897
  798W        W69216  11.235  39.325   1.710
  799W        W69217  17.127  42.425  12.011
  800W        W69218  35.109  43.485  13.915
  801W        W69219  22.606  41.943   1.392
  802W        W69220   6.326  19.197  13.963
  803W        W69221  31.412  15.655   1.876
  804W        W69222  44.855  33.589  11.969
  805W        W69223  20.608   2.391   2.253
  806W        W69224  29.430  22.633   5.091
  807W        W69225  41.832  21.230  10.977
  808W        W69226   0.366  44.316  12.505
  809W        W69227  34.111  41.506  14.498
  810W        W69228   9.212  11.698   4.703
  811W        W69229   3.437   6.305   3.257
  812W        W69230  15.243  31.090   4.331
  813W        W69231  39.825   1.241  10.565
  814W        W69232  24.713  20.539  13.885
  815W        W69233   8.178  42.290   2.335
  816W        W69234  34.437  33.010  14.796
  817W        W69235  29.086  40.491  11.592
  818W        W69236  41.335  26.475  11.525
  819W        W69237  42.426  41.479   5.644
  820W        W69238   9.652  16.127   0.371
  821W        W69239  17.220   3.271   5.311
  822W        W69240  40.379  23.075  12.994
  823W        W69241   5.722  30.622  11.934
  824W        W69242   3.356  25.080  11.987
  825W        W69243   6.281   5.428  13.444
  826W        W69244   7.686   7.712   3.176
  827W        W69245  26.637  38.557  14.468
  828W        W69246  16.714  44.326   0.250
  829W        W69247  41.833  35.362   4.349
  830W        W69248  33.383  26.476   1.343
  831W        W69249  13.618  28.013   4.183
  832W        W69250  42.496  41.938  10.593
  833W        W69251  18.275  21.602  12.421
  834W        W69252  31.604   4.899   1.816
  835W        W69253  39.954  29.155   4.134
  836W        W69254   4.386   4.432  12.413
  837W        W69255   0.375  16.807   0.398
  838W        W69256  42.785  26.483  12.079
  839W        W69257  13.263  16.678   2.678
  840W        W69258  38.066  34.977   2.769
  841W        W69259  36.884  20.686  12.375
  842W        W69260  38.984   6.776   0.813
  843W        W69261  23.599   9.814   4.200
  844W        W69262   1.957  18.084   4.208
  845W        W69263  38.919  23.647  14.300
  846W        W69264  44.925  22.582  10.503
  847W        W69265  13.219  35.100   3.370
  848W        W69266  17.141  41.384  12.342
  849W        W69267  32.885  30.423  11.376
  850W        W69268  44.292  23.595   1.809
  851W        W69269  22.729  38.960   3.305
  852W        W69270  39.403   5.310  11.870
  853W        W69271  35.086  32.443   2.727
  854W        W69272   3.355  36.950   0.800
  855W        W69273  26.167  43.799  13.429
  856W        W69274  38.918  38.949  12.889
  857W        W69275   8.897  28.669  13.877
  858W        W69276  21.693  42.941   3.326
  859W        W69277  38.547  43.884  13.368
  860W        W69278  39.900   8.687   3.641
  861W        W69279  38.003   3.409   0.924
  862W        W69280   7.792   9.375  12.504
  863W        W69281  29.098  10.773   2.270
  864W        W69282  14.667  10.222  14.508
  865W        W69283  36.527   6.797   2.217
  866W        W69284   2.359  19.727   3.803
  867W        W69285  35.940  26.964   2.219
  868W        W69286  43.450  11.157   1.382
  869W        W69287   1.977  13.651  14.773
  870W        W69288  27.000  29.952   4.304
  871W        W69289  36.948  41.026   0.456
  872W        W69290  28.054  22.592  12.360
  873W        W69291  40.882  18.178  12.538
  874W        W69292  18.783  13.149  14.423
  875W        W69293  22.598  39.855   5.320
  876W        W69294  38.829  29.485  12.549
  877W        W69295  30.505  17.288   0.860
  878W        W69296  44.907  43.496  13.792
  879W        W69297  30.960  38.914  13.507
  880W        W69298  38.550  13.705   3.256
  881W        W69299  37.341  30.124  12.404
  882W        W69300  42.900  15.304  12.431
  883W        W69301  12.153  30.445   1.255
  884W        W69302  37.919  36.527  12.974
  885W        W69303  42.520  31.472  11.458
  886W        W69304  20.170  13.634   1.396
  887W        W69305   8.753  38.901  11.121
  888W        W69306  37.872   6.677  11.957
  889W        W69307  37.955  36.989  13.350
  890W        W69308  29.995  20.767  13.977
  891W        W69309  38.910  17.267  12.494
  892W        W69310   8.321  36.861   4.167
  893W        W69311  22.179  17.064   1.321
  894W        W69312  37.494  15.212  13.320
  895W        W69313  19.265   7.225   4.248
  896W        W69314  33.494  13.163   4.297
  897W        W69315  22.557   7.886  13.037
  898W        W69316   7.814  26.522   9.926
  899W        W69317  39.476  21.112  14.471
  900W        W69318  28.020  25.521  14.963
  901W        W69319  19.100   7.788  10.638
  902W        W69320   1.966  28.161   1.364
  903W        W69321  33.419  42.882   1.336
  904W        W69322  16.577  36.966  10.970
  905W        W69323   9.686  30.429  11.514
  906W        W69324  11.651  37.874  12.551
  907W        W69325  18.625  32.004   2.769
  908W        W69326  36.593  35.552   0.461
  909W        W69327  15.603   5.216  13.820
  910W        W69328  16.635  12.250   2.305
  911W        W69329  22.596  21.676   1.817
  912W        W69330  22.735  38.401  13.974
  913W        W69331  40.926  33.928  12.976
  914W        W69332  14.095  11.675  11.102
  915W        W69333  44.442  36.891   3.727
  916W        W69334  11.351  20.601  13.323
  917W        W69335  26.613  12.313   1.772
  918W        W69336  16.702  27.097   4.207
  919W        W69337   9.295  16.247  10.631
  920W        W69338  40.468   2.859  14.978
  921W        W69339  14.781  41.946   1.370
  922W        W69340  37.493  24.014   1.790
  923W        W69341  35.442  35.528  14.905
  924W        W69342  36.592   3.335   1.834
  925W        W69343  26.692  26.569  10.407
  926W        W69344  16.237  15.779  13.981
  927W        W69345  33.916  15.132   4.234
  928W        W69346  42.493   3.806   0.781
  929W        W69347  22.114  27.954  13.422
  930W        W69348  31.924  26.038   9.940
  931W        W69349  28.565   0.860   3.345
  932W        W69350  28.503  40.035   3.672
  933W        W69351  34.996  27.629   0.907
  934W        W69352  37.581  21.739  14.490
  935W        W69353  21.250   9.362   5.229
  936W        W69354  34.492  19.149   3.373
  937W        W69355  34.583  38.978   1.711
  938W        W69356  36.983   8.228   0.329
  939W        W69357   0.797  34.418  14.959
  940W        W69358  14.746  41.492  11.047
  941W        W69359  22.024  37.510  12.461
  942W        W69360  40.032  35.866   4.309
  943W        W69361  17.105  11.128  10.643
  944W        W69362  29.075   7.901  12.552
  945W        W69363  26.642   3.792  11.512
  946W        W69364  23.182   0.337  12.875
  947W        W69365  44.954  41.798  14.896
  948W        W69366  10.230   4.856   1.716
  949W        W69367  18.070  41.405   1.757
  950W        W69368  26.601  19.113   0.865
  951W        W69369  10.711  12.735  12.913
  952W        W69370  34.473   0.903  11.492
  953W        W69371  25.199   7.695   3.629
  954W        W69372  16.694  24.993  13.390
  955W        W69373  18.774   6.297   0.393
  956W        W69374  42.373  43.473  10.526
  957W        W69375  14.231  33.551   2.418
  958W        W69376   1.266  21.021  10.443
  959W        W69377  33.007  13.267  11.000
  960W        W69378  21.671  12.707   3.307
  961W        W69379  14.675  12.285  10.567
  962W        W69380  30.046   0.782   0.776
  963W        W69381  41.494   9.643   1.302
  964W        W69382   6.816  44.503  12.417
  965W        W69383  20.740  38.540   4.323
  966W        W69384  17.228   3.436  11.987
  967W        W69385  40.346  35.077  11.861
  968W        W69386  21.673  12.759  14.441
  969W        W69387  10.158  23.217  12.526
  970W        W69388  10.272  44.820  12.522
  971W        W69389  38.393  13.684   0.917
  972W        W69390  28.016  17.562  11.098
  973W        W69391  41.806  26.178  13.000
  974W        W69392  15.195  21.225  12.400
  975W        W69393  23.161  11.631  12.521
  976W        W69394  43.354  36.466  11.375
  977W        W69395  16.718  13.798   3.374
  978W        W69396   6.701  24.156   4.287
  979W        W69397  11.304   9.164  14.460
  980W        W69398   1.312   8.690   2.316
  981W        W69399  42.310  42.334   3.741
  982W        W69400  18.628   3.405  14.423
  983W        W69401  13.742   1.282   2.835
  984W        W69402   0.878  32.027   1.306
  985W        W69403  37.377   5.303   1.333
  986W        W69404  22.192   0.312   2.361
  987W        W69405  14.171  11.231   2.217
  988W        W69406  32.999   0.791  14.839
  989W        W69407  43.891  27.174   2.824
  990W        W69408   0.412  42.439  10.618
  991W        W69409   0.790  39.038   5.322
  992W        W69410  40.329  13.141   0.408
  993W        W69411  44.340  18.171   4.176
  994W        W69412  28.583  22.207  10.544
  995W        W69413   8.319  10.838  13.034
  996W        W69414   4.722  11.717  12.548
  997W        W69415   7.714  27.450   4.610
  998W        W69416  44.281  22.082  11.490
  999W        W69417  32.017  24.180   2.204
 1000W        W69418  27.653  25.641  13.433
 1001W        W69419   5.301   0.843   1.393
 1002W        W69420  38.827  22.229   3.649
 1003W        W69421  33.574  14.757   3.254
 1004W        W69422   4.284  31.057   3.174
 1005W        W69423  36.881   5.428   1.877
 1006W        W69424  35.861   0.342  12.072
 1007W        W69425  13.725  25.003   3.378
 1008W        W69426  40.400   7.725   2.254
 1009W        W69427  42.455  16.073   2.403
 1010W        W69428  37.953   2.366  13.403
 1011W        W69429  40.327   4.764   1.830
 1012W        W69430  25.576   9.332  12.999
 1013W        W69431  26.487  26.109  10.549
 1014W        W69432   0.914  41.484  14.468
 1015W        W69433   7.281  20.556   2.728
 1016W        W69434  19.757  30.115  12.466
 1017W        W69435  28.619  16.164  12.512
 1018W        W69436  30.105  26.978  12.980
 1019W        W69437   3.859  28.061   1.247
 1020W        W69438  37.985   6.247  11.121
 1021W        W69439   5.932  20.553   1.269
 1022W        W69440   3.808  26.608  10.427
 1023W        W69441  38.557  21.548   3.862
 1024W        W69442  20.124  30.016   4.174
 1025W        W69443  20.758  23.562   9.672
 1026W        W69444  44.499  34.021   0.910
 1027W        W69445  17.716  36.900   2.746
 1028W        W69446  23.238  30.036  11.906
 1029W        W69447   9.169  25.156   3.154
 1030W        W69448  29.442  14.607  13.482
 1031W        W69449   5.878   1.841  12.391
 1032W        W69450  35.540  23.521   3.278
 1033W        W69451  12.128  19.092   3.629
 1034W        W69452  28.069   7.414   3.381
 1035W        W69453  18.685  36.529   4.227
 1036W        W69454  29.660  32.415   4.277
 1037W        W69455  29.554  26.490   1.827
 1038W        W69456  26.547   2.857  12.838
 1039W        W69457   8.169  31.079   2.216
 1040W        W69458  24.996  11.823  11.122
 1041W        W69459   8.300  13.169   0.809
 1042W        W69460   2.324  22.106   3.747
 1043W        W69461   5.820  28.080  14.332
 1044W        W69462  44.828  20.189  11.548
 1045W        W69463  13.251  37.962   2.714
 1046W        W69464  42.509  17.663  14.468
 1047W        W69465  29.648  31.057   2.360
 1048W        W69466  10.707  32.564  14.023
 1049W        W69467  30.133  12.832  14.339
 1050W        W69468  29.982   1.747  14.839
 1051W        W69469  39.827   9.211   2.885
 1052W        W69470  34.612   1.307   4.753
 1053W        W69471   7.730   0.970   1.799
 1054W        W69472  30.160   0.413   1.881
 1055W        W69473  10.278   6.280  13.004
 1056W        W69474  10.265  21.554   2.765
 1057W        W69475   7.841   8.399   1.341
 1058W        W69476  35.454  15.764  10.404
 1059W        W69477  19.645   7.853   3.725
 1060W        W69478   5.356  34.926   1.779
 1061W        W69479  32.616  20.670   4.687
 1062W        W69480   8.855   9.173   0.318
 1063W        W69481   9.391  19.168   0.371
 1064W        W69482   9.667  10.190  14.842
 1065W        W69483   9.675   8.273  10.470
 1066W        W69484   7.672  38.450   4.137
 1067W        W69485  43.276   4.910  13.398
 1068W        W69486  20.666  42.900  14.439
 1069W        W69487  24.124  44.973   0.792
 1070W        W69488  35.888  17.295  13.492
 1071W        W69489   2.321  44.330  10.431
 1072W        W69490  11.667  30.594   4.767
 1073W        W69491  20.139  27.980   1.258
 1074W        W69492  44.822  10.331   4.699
 1075W        W69493  40.363   0.978  13.038
 1076W        W69494   5.269  36.454   3.270
 1077W        W69495  14.236  11.250  10.538
 1078W        W69496  43.817   2.438   1.796
 1079W        W69497   7.882   5.217  13.444
 1080W        W69498  39.327  12.336  11.117
 1081W        W69499  12.141   5.389  13.386
 1082W        W69500   7.907  12.800   1.918
 1083W        W69501  35.373  24.509  14.888
 1084W        W69502  13.600   2.380  11.106
 1085W        W69503  41.877   6.332   5.284
 1086W        W69504  19.577  36.501  14.481
 1087W        W69505  19.084  27.094   4.327
 1088W        W69506  24.545  28.968   2.226
 1089W        W69507  21.536  28.514  13.887
 1090W        W69508  12.170  43.912   1.420
 1091W        W69509  17.156  20.548   2.682
 1092W        W69510  14.668  30.032  11.586
 1093W        W69511  42.405  32.565   4.255
 1094W        W69512  31.147  44.379  11.958
 1095W        W69513  32.477  26.053  13.975
 1096W        W69514  33.391  23.097   0.887
 1097W        W69515  31.137  10.635  10.612
 1098W        W69516  30.431  35.385  14.811
 1099W        W69517  13.215  34.615  12.067
 1100W        W69518  34.411  25.605  10.408
 1101W        W69519  25.526   0.434   1.795
 1102W        W69520   2.817  32.586   4.642
 1103W        W69521  28.673  14.235  10.498
 1104W        W69522  17.793  14.745   0.247
 1105W        W69523  25.475   5.235   4.142
 1106W        W69524   5.687  43.882   3.773
 1107W        W69525   9.790  34.038   4.249
 1108W        W69526  21.724  43.450   3.754
 1109W        W69527  44.269  31.024   3.338
 1110W        W69528  14.773  10.206  13.540
 1111W        W69529  34.092  20.273   0.895
 1112W        W69530   1.325  42.435   3.341
 1113W        W69531  20.756  22.726  12.473
 1114W        W69532  27.464  39.435  11.107
 1115W        W69533   3.394   2.247  11.030
 1116W        W69534  21.236  39.428  11.010
 1117W        W69535  16.234   8.655  12.475
 1118W        W69536  40.954  17.191  13.046
 1119W        W69537  27.490  35.526   3.856
 1120W        W69538  44.796  35.416   0.881
 1121W        W69539  12.306  39.341   4.657
 1122W        W69540  19.752  38.443  13.044
 1123W        W69541   4.387  34.611   3.727
 1124W        W69542  44.826   2.799  11.952
 1125W        W69543   4.751  36.871  11.906
 1126W        W69544  17.211  31.584   2.302
 1127W        W69545  13.790  36.538  14.508
 1128W        W69546   0.317  26.181  12.017
 1129W        W69547   3.859  29.972   2.190
 1130W        W69548  19.209  17.095  12.043
 1131W        W69549  17.202  19.255   1.836
 1132W        W69550  32.431   8.215   2.344
 1133W        W69551   4.944   1.427  10.123
 1134W        W69552  44.967  17.087  14.508
 1135W        W69553  25.626   7.184  10.425
 1136W        W69554  30.922   0.432   2.697
 1137W        W69555  29.156  32.011   2.404
 1138W        W69556   6.262  31.131  11.047
 1139W        W69557  16.745  26.596  10.412
 1140W        W69558  42.960  26.147  14.318
 1141W        W69559  12.144  42.467  13.901
 1142W        W69560  41.876  24.510   4.795
 1143W        W69561  32.109   4.383  12.013
 1144W        W69562  39.402  38.863   4.725
 1145W        W69563  26.463  18.098  10.947
 1146W        W69564  13.757   6.198   1.735
 1147W        W69565  37.539  14.820  10.535
 1148W        W69566  19.271  38.906  13.438
 1149W        W69567  33.495  33.023   1.872
 1150W        W69568   7.909  11.808   4.266
 1151W        W69569  38.042  36.482   2.408
 1152W        W69570  40.471  38.021  11.464
 1153W        W69571  16.137   2.725  13.881
 1154W        W69572  35.988   0.989  11.067
 1155W        W69573  17.781  32.132   4.247
 1156W        W69574  10.636  29.116  11.385
 1157W        W69575  43.909  23.609   9.953
 1158W        W69576  37.383  32.610  11.114
 1159W        W69577   7.417  39.972  11.942
 1160W        W69578  30.546  39.965   4.708
 1161W        W69579  15.818  38.961  13.336
 1162W        W69580  22.080  31.977  12.572
 1163W        W69581  19.219  43.491  12.531
 1164W        W69582  21.654  20.525   1.279
 1165W        W69583  16.630   4.238  13.033
 1166W        W69584  38.029  39.955   3.252
 1167W        W69585   8.681  21.259  14.411
 1168W        W69586  21.740  38.558   3.329
 1169W        W69587   0.784   8.766   2.388
 1170W        W69588  30.516  22.659  12.828
 1171W        W69589  29.461  26.690   4.250
 1172W        W69590  18.783  39.896   4.611
 1173W        W69591  31.016   2.950  11.600
 1174W        W69592   5.790  16.220  12.571
 1175W        W69593   1.839  35.547  14.009
 1176W        W69594  24.020  15.102  12.421
 1177W        W69595  37.344  25.159  12.931
 1178W        W69596  40.802   6.722  14.321
 1179W        W69597  36.370  33.991  13.980
 1180W        W69598  31.997   7.350   4.326
 1181W        W69599  17.718   6.190  11.069
 1182W        W69600  17.757  27.492  11.552
 1183W        W69601   1.348  19.748   2.180
 1184W        W69602   1.869   3.385  11.946
 1185W        W69603   6.209  39.355  11.114
 1186W        W69604  33.477  42.929   4.830
 1187W        W69605  26.975  38.000   2.709
 1188W        W69606  43.412  38.036   3.256
 1189W        W69607  26.165  19.145   1.357
 1190W        W69608   5.826  44.848   2.353
 1191W        W69609  19.575   4.808   4.807
 1192W        W69610  37.033   5.866   3.172
 1193W        W69611  27.142  41.795   2.215
 1194W        W69612  41.916  25.697  11.946
 1195W        W69613   6.728  16.785  10.610
 1196W        W69614  34.428  44.383   0.916
 1197W        W69615   9.301  11.761   5.251
 1198W        W69616   9.363  18.092  13.445
 1199W        W69617  15.697  43.929  12.372
 1200W        W69618  30.984  14.325  14.860
 1201W        W69619  36.972  30.520   4.123
 1202W        W69620  13.159  31.080  13.791
 1203W        W69621  35.436  27.047   4.213
 1204W        W69622  15.720  37.436  10.058
 1205W        W69623  29.467  19.605   5.293
 1206W        W69624  20.129  34.551  10.969
 1207W        W69625   8.318   2.914   4.729
 1208W        W69626   6.895  28.447   3.644
 1209W        W69627   9.215  21.735  13.494
 1210W        W69628  34.508  11.199  12.096
 1211W        W69629  34.378  20.233  13.404
 1212W        W69630  29.034   8.263  12.550
 1213W        W69631  18.669   5.280   0.962
 1214W        W69632   0.296   3.288   1.326
 1215W        W69633  30.979   6.207  13.368
 1216W        W69634  29.011  27.663  13.954
 1217W        W69635   1.838   6.248   3.176
 1218W        W69636  25.046  42.966  11.117
 1219W        W69637  28.582   7.727   1.898
 1220W        W69638  10.745  10.145   0.915
 1221W        W69639  36.573  15.780   0.811
 1222W        W69640  19.160  13.276   3.870
 1223W        W69641  19.711  22.577  11.884
 1224W        W69642  37.982  36.016   1.390
 1225W        W69643  41.884  31.983   4.196
 1226W        W69644  42.901   2.236  10.541
 1227W        W69645  24.566  26.700   1.697
 1228W        W69646   6.718  33.921   1.306
 1229W        W69647  25.136  38.496   1.362
 1230W        W69648  15.199  14.795  13.952
 1231W        W69649  28.457   2.729   0.756
 1232W        W69650  15.226  35.529   2.851
 1233W        W69651  44.947  10.181  10.624
 1234W        W69652  16.081  10.862  11.525
 1235W        W69653  15.185  32.892  12.926
 1236W        W69654   2.422  25.099  10.918
 1237W        W69655   6.398  14.101  13.333
 1238W        W69656   4.926  25.997  14.824
 1239W        W69657  43.333  30.421   4.652
 1240W        W69658  18.754  35.568  11.856
 1241W        W69659  44.384   9.180   2.381
 1242W        W69660  41.817   3.776   2.735
 1243W        W69661  20.679  24.129   2.326
 1244W        W69662   0.850  22.227   5.155
 1245W        W69663  23.530  41.798  13.401
 1246W        W69664  41.872  17.767   2.314
 1247W        W69665   6.326   5.358  13.042
 1248W        W69666   5.278   8.171   3.288
 1249W        W69667  42.939   8.840  10.561
 1250W        W69668  40.944  44.319  13.416
 1251W        W69669  16.621  34.011   1.783
 1252W        W69670   0.754   4.809  13.526
 1253W        W69671  39.932  13.144  14.314
 1254W        W69672  14.668   8.813   4.708
 1255W        W69673  32.454  19.589   1.338
 1256W        W69674  22.530  19.132   4.659
 1257W        W69675  20.681  32.424  14.969
 1258W        W69676  30.086  24.073  13.942
 1259W        W69677   8.724   0.284  11.498
 1260W        W69678  34.976  20.118   4.632
 1261W        W69679  22.141  30.586  11.905
 1262W        W69680  30.548  13.161  13.475
 1263W        W69681  13.225  23.168  12.054
 1264W        W69682  42.306  40.816   1.223
 1265W        W69683  19.596  15.740   0.274
 1266W        W69684   5.353  12.776  13.361
 1267W        W69685   2.760  42.789  13.819
 1268W        W69686  42.895  18.577  13.352
 1269W        W69687  32.429  10.753   4.257
 1270W        W69688  11.760   0.955   4.213
 1271W        W69689  29.085  35.965  13.858
 1272W        W69690  14.150   7.386  14.793
 1273W        W69691  42.358   9.213  11.427
 1274W        W69692   8.744  30.453   3.328
 1275W        W69693  10.360   2.369   0.305
 1276W        W69694  12.269  19.160   1.261
 1277W        W69695  43.813   0.824   2.696
 1278W        W69696  33.404   8.823   0.853
 1279W        W69697  11.688  42.927  13.475
 1280W        W69698  23.076  21.658   2.770
 1281W        W69699  25.052   2.768   3.288
 1282W        W69700  42.300   5.389  14.945
 1283W        W69701  17.181  44.294   2.810
 1284W        W69702  43.498   0.362   4.218
 1285W        W69703  14.765   1.238   1.372
 1286W        W69704  23.641   5.931  14.963
 1287W        W69705  27.950  15.224   3.197
 1288W        W69706   2.380   9.260  13.864
 1289W        W69707  20.162  27.660   0.933
 1290W        W69708  44.300  25.498  14.763
 1291W        W69709  35.446  38.919  13.855
 1292W        W69710  19.162  35.946   4.601
 1293W        W69711   1.800  32.399  11.953
 1294W        W69712  39.030  29.163  11.955
 1295W        W69713  37.026  26.046  12.544
 1296W        W69714  33.997  23.600  10.947
 1297W        W69715  35.510   8.667  12.414
 1298W        W69716  23.027   1.390   3.795
 1299W        W69717  22.570  29.585  13.896
 1300W        W69718   7.848  44.759  11.070
 1301W        W69719  39.833  11.133   3.676
 1302W        W69720  36.924  37.529  11.487
 1303W        W69721   4.308  17.210   1.441
 1304W        W69722   9.344  31.540  12.478
 1305W        W69723  43.395  14.815   2.819
 1306W        W69724  26.613  32.948  11.597
 1307W        W69725  41.333  12.312  14.980
 1308W        W69726  20.687  42.455  12.880
 1309W        W69727  16.121   2.414   1.732
 1310W        W69728  12.316  26.518   2.267
 1311W        W69729  21.711   9.247  12.010
 1312W        W69730  37.474  37.960   5.257
 1313W        W69731  28.145   0.810   1.213
 1314W        W69732  42.446  13.817   4.740
 1315W        W69733  29.582  23.536   1.725
 1316W        W69734  22.208  15.717   3.771
 1317W        W69735  24.093  27.636  13.481
 1318W        W69736   7.367  15.148  12.976
 1319W        W69737  16.789   6.850   1.780
 1320W        W69738  21.199   5.286   4.611
 1321W        W69739  25.014  11.626  12.511
 1322W        W69740  23.000  44.386   3.228
 1323W        W69741   0.915  32.002  12.956
 1324W        W69742  31.056  11.652  14.377
 1325W        W69743  22.554  39.404   4.256
 1326W        W69744  12.640   8.736  14.875
 1327W        W69745  36.975  14.823   3.644
 1328W        W69746  10.668   5.802  11.113
 1329W        W69747   4.318  36.990   1.271
 1330W        W69748  36.949  41.042  10.623
 1331W        W69749  12.335  22.512  13.900
 1332W        W69750  18.239  28.529  11.923
 1333W        W69751   8.867   1.467  13.399
 1334W        W69752   2.745  38.412  12.924
 1335W        W69753  38.491  43.892   2.216
 1336W        W69754  13.750  20.662   3.334
 1337W        W69755   2.776  26.662  11.863
 1338W        W69756   9.272  28.465   1.854
 1339W        W69757  33.552  37.536   4.812
 1340W        W69758  32.094  40.475   1.914
 1341W        W69759   7.182  10.214  14.402
 1342W        W69760  29.513   5.395   0.767
 1343W        W69761  36.073   8.864   2.749
 1344W        W69762  27.139  25.054   0.861
 1345W        W69763  25.133  36.014  14.438
 1346W        W69764  40.817  38.056  12.851
 1347W        W69765  16.618  26.497  14.981
 1348W        W69766  24.689  36.887   3.214
 1349W        W69767  36.007  12.731  11.961
 1350W        W69768  39.951   0.253  10.436
 1351W        W69769  11.780  32.001  14.000
 1352W        W69770  41.906  26.969  11.420
 1353W        W69771  36.077  38.843   3.178
 1354W        W69772   3.951   8.719   2.327
 1355W        W69773   8.768  42.445   2.339
 1356W        W69774  37.021  17.590   0.444
 1357W        W69775  28.680   3.763  13.870
 1358W        W69776   2.394  37.407   3.781
 1359W        W69777   4.776  36.389  14.827
 1360W        W69778   8.721  22.544  14.793
 1361W        W69779  15.322  30.953   4.708
 1362W        W69780  44.454  36.521  10.019
 1363W        W69781  31.908  17.777  11.533
 1364W        W69782   0.313  44.319   2.413
 1365W        W69783  29.161   5.361   1.905
 1366W        W69784  43.989  36.056   4.324
 1367W        W69785  32.964   2.391   2.685
 1368W        W69786  36.508   2.879   4.682
 1369W        W69787   7.879  10.211  12.390
 1370W        W69788  43.310  29.460  10.968
 1371W        W69789   3.250  14.337  13.844
 1372W        W69790   5.712   5.316  10.479
 1373W        W69791   4.348  19.164  13.946
 1374W        W69792  42.804  36.467   3.281
 1375W        W69793  22.602  42.483   1.238
 1376W        W69794  24.539   5.304  10.591
 1377W        W69795  20.703   0.413   2.213
 1378W        W69796  33.568  18.590  10.934
 1379W        W69797  13.220  18.263  14.031
 1380W        W69798  42.316  37.390   2.316
 1381W        W69799  12.651   5.771  13.901
 1382W        W69800   8.227  23.699  12.494
 1383W        W69801  32.889  22.541  14.457
 1384W        W69802   3.863  39.528   1.264
 1385W        W69803  27.188   2.731  14.408
 1386W        W69804  42.802  28.144  12.486
 1387W        W69805   8.330  42.954  14.276
 1388W        W69806   9.320  42.464   4.788
 1389W        W69807   6.415  25.155  11.860
 1390W        W69808   1.301  10.792  14.374
 1391W        W69809  37.945  17.707   1.297
 1392W        W69810  23.518  14.262   0.739
 1393W        W69811  17.257  38.490  13.391
 1394W        W69812  18.670  34.919  10.453
 1395W        W69813   8.815  42.943   4.828
 1396W        W69814  44.377  26.489  14.785
 1397W        W69815  16.101  29.496  12.531
 1398W        W69816  25.014  30.044  13.447
 1399W        W69817  35.875  19.645  10.896
 1400W        W69818  16.594  32.529   2.332
 1401W        W69819   8.719  27.045  10.501
 1402W        W69820  14.793  28.992  11.382
 1403W        W69821   1.323  20.639  13.348
 1404W        W69822  40.989   7.751   3.816
 1405W        W69823  34.903  39.834   0.395
 1406W        W69824  36.875  25.692  11.906
 1407W        W69825  26.085  21.197   2.306
 1408W        W69826  43.361  15.803  11.413
 1409W        W69827  32.415   8.872   0.292
 1410W        W69828  24.184  31.004   1.699
 1411W        W69829  40.810  41.519   0.436
 1412W        W69830  23.168  26.685   1.210
 1413W        W69831   3.454   2.786  11.930
 1414W        W69832   7.417  44.764  12.011
 1415W        W69833  41.947  18.599  10.987
 1416W        W69834  14.267  14.647   4.235
 1417W        W69835  41.404  33.956   1.932
 1418W        W69836  12.204  10.215  14.473
 1419W        W69837  38.014  36.887  13.997
 1420W        W69838  20.622   5.239   2.664
 1421W        W69839   2.301  39.980  12.382
 1422W        W69840   6.763   3.852   0.884
 1423W        W69841  16.752   7.892   3.187
 1424W        W69842   0.841   1.788   1.315
 1425W        W69843  13.738  25.068  10.614
 1426W        W69844   8.359  34.014   1.708
 1427W        W69845  24.162   5.933  13.404
 1428W        W69846  38.845   2.752  12.879
 1429W        W69847  12.273  39.062  13.385
 1430W        W69848  22.503   2.425   0.943
 1431W        W69849   7.837  12.151  10.536
 1432W        W69850  34.038  13.205  14.837
 1433W        W69851   7.282   1.740   3.272
 1434W        W69852  35.048  41.440  11.031
 1435W        W69853   5.200  24.586  14.882
 1436W        W69854  34.409  42.005   2.334
 1437W        W69855  15.724  13.131   1.362
 1438W        W69856   8.267   5.372  11.916
 1439W        W69857  23.557  23.727  12.055
 1440W        W69858  30.576  37.368  12.001
 1441W        W69859  25.075   2.366  14.984
 1442W        W69860   7.737  38.864   9.981
 1443W        W69861  40.444  31.575   3.310
 1444W        W69862  10.740  39.019  11.049
 1445W        W69863  22.123  29.667   1.421
 1446W        W69864   1.430  24.020   1.385
 1447W        W69865   4.800  18.137   2.221
 1448W        W69866   7.180  27.964   3.665
 1449W        W69867  37.416  19.555   4.173
 1450W        W69868  18.225  11.349   1.744
 1451W        W69869   9.687  37.528  10.036
 1452W        W69870  30.522  44.879  10.544
 1453W        W69871   2.371  25.063   2.314
 1454W        W69872  44.916  13.814   2.887
 1455W        W69873  32.918  22.700  11.961
 1456W        W69874   6.213  38.456  14.927
 1457W        W69875  25.625  35.510   4.335
 1458W        W69876  20.693  22.191  12.041
 1459W        W69877  19.638  13.263  10.995
 1460W        W69878   8.325  16.126   1.784
 1461W        W69879   0.870  40.460   1.708
 1462W        W69880  31.014  10.696   4.192
 1463W        W69881  43.936  12.750  14.371
 1464W        W69882  33.492  11.752  10.591
 1465W        W69883  24.016  23.530  14.913
 1466W        W69884   1.967  23.084   3.381
 1467W        W69885  21.702  28.130  14.397
 1468W        W69886  44.451  32.531  14.357
 1469W        W69887  14.170  10.378  11.978
 1470W        W69888  18.572   3.426  12.978
 1471W        W69889  44.753  23.646  11.918
 1472W        W69890  16.253  40.533   2.339
 1473W        W69891  31.408  12.759  12.446
 1474W        W69892  11.679  17.157  10.015
 1475W        W69893   1.945   0.980  14.785
 1476W        W69894  43.917  35.101   0.876
 1477W        W69895  34.477  25.989  13.493
 1478W        W69896  10.702  27.049  12.558
 1479W        W69897  40.991   6.861  14.943
 1480W        W69898   3.949  39.837  12.550
 1481W        W69899  40.452  25.141  11.030
 1482W        W69900  24.100   4.425   0.958
 1483W        W69901   1.306  34.876   2.212
 1484W        W69902  22.723   0.928  14.874
 1485W        W69903  22.226  41.304   0.431
 1486W        W69904  27.171  36.988  13.902
 1487W        W69905  25.666  42.977   0.438
 1488W        W69906   9.694   3.788  12.948
 1489W        W69907  44.884   4.882  11.374
 1490W        W69908  36.098   8.327   1.416
 1491W        W69909   3.231  14.110   2.749
 1492W        W69910  15.690   4.389  12.383
 1493W        W69911  35.597  38.966   4.686
 1494W        W69912  32.065  37.400   1.842
 1495W        W69913  30.131  40.530  14.031
 1496W        W69914   7.688  18.689   1.295
 1497W        W69915  12.194   3.769   2.276
 1498W        W69916  27.644   9.818  12.429
 1499W        W69917  21.092  24.514   3.744
 1500W        W69918  13.179  31.997   1.264
 1501W        W69919   4.832  28.619   1.352
 1502W        W69920  39.831  17.129   3.384
 1503W        W69921  18.148  14.743   9.587
 1504W        W69922  22.611  16.224  14.403
 1505W        W69923  17.225  21.542   1.289
 1506W        W69924  26.109  22.083  13.409
 1507W        W69925  34.595  19.048   1.288
 1508W        W69926   0.421   6.263   4.326
 1509W        W69927  33.514   3.774   0.953
 1510W        W69928  37.056   4.859  12.093
 1511W        W69929  33.589  12.299  12.539
 1512W        W69930   0.442  38.994   2.214
 1513W        W69931   9.187   6.915  11.034
 1514W        W69932  20.599  43.380   3.732
 1515W        W69933  19.653   8.713   1.438
 1516W        W69934   9.181  32.419   3.866
 1517W        W69935  27.530  37.066  14.515
 1518W        W69936  13.688   9.853  13.835
 1519W        W69937  28.956   9.776   0.924
 1520W        W69938  41.029  33.454  13.535
 1521W        W69939  14.291  40.925   1.890
 1522W        W69940  12.305   7.315  14.299
 1523W        W69941  21.205  20.764  14.412
 1524W        W69942  20.712  15.324  12.349
 1525W        W69943  22.213   4.732  11.438
 1526W        W69944  35.033  36.868   5.734
 1527W        W69945  25.185   9.378  14.477
 1528W        W69946  26.011   0.440  12.978
 1529W        W69947  23.110  19.133   0.845
 1530W        W69948  13.155   1.741  10.103
 1531W        W69949  31.509   0.369  13.404
 1532W        W69950  16.283  36.502   4.760
 1533W        W69951   5.369  28.602   3.812
 1534W        W69952  39.423   8.188  11.114
 1535W        W69953   6.686  44.324   4.344
 1536W        W69954   4.938  15.140  13.440
 1537W        W69955  22.179  25.975   4.280
 1538W        W69956   1.407  18.290  14.758
 1539W        W69957  16.570  15.253  11.056
 1540W        W69958  22.747  43.768  13.416
 1541W        W69959  28.055  25.188  11.524
 1542W        W69960  41.812  34.465   1.740
 1543W        W69961  30.980   6.905   3.676
 1544W        W69962  14.777  35.876  12.526
 1545W        W69963  28.138   3.459  13.004
 1546W        W69964   7.692  28.057   0.352
 1547W        W69965   0.279  30.111  14.982
 1548W        W69966  25.664   7.761  12.957
 1549W        W69967   3.401  35.076   1.832
 1550W        W69968   3.941   1.853   1.225
 1551W        W69969  40.370  37.365   5.209
 1552W        W69970  30.910   2.789   3.148
 1553W        W69971  40.823  34.605   0.389
 1554W        W69972  22.604  41.916  14.765
 1555W        W69973  17.188  25.052  11.611
 1556W        W69974  11.198  22.219   3.385
 1557W        W69975  21.664  40.524   5.195
 1558W        W69976  14.821  38.564   4.161
 1559W        W69977  12.629  13.321  11.002
 1560W        W69978  34.427  10.711   2.323
 1561W        W69979  27.505  21.205  13.976
 1562W        W69980  13.832   4.262  14.470
 1563W        W69981   8.359  25.212  13.345
 1564W        W69982  28.610  25.160   3.677
 1565W        W69983  32.909  18.271  13.832
 1566W        W69984   7.894  40.388  12.936
 1567W        W69985  44.875  44.755   1.300
 1568W        W69986   9.382  17.663  11.880
 1569W        W69987  21.704  13.667  14.960
 1570W        W69988  10.750   7.667   3.220
 1571W        W69989   2.916  32.596   4.229
 1572W        W69990   3.440  31.511  11.023
 1573W        W69991  19.041   3.447  13.507
 1574W        W69992   1.917   4.258   4.760
 1575W        W69993  23.498  37.418   0.406
 1576W        W69994  30.620  43.422   1.855
 1577W        W69995   6.186  25.156   2.343
 1578W        W69996  15.627   9.871  14.322
 1579W        W69997  19.572   3.837   2.811
 1580W        W69998  42.866  40.046   1.401
 1581W        W69999  26.180  43.845   4.190
 1582W        W70000   9.231  18.650  12.964
 1583W        W70001  42.955  23.646   5.300
 1584W        W70002   6.243  20.059  13.459
 1585W        W70003  21.688  27.980  12.570
 1586W        W70004  32.065  24.478   0.295
 1587W        W70005  36.587  26.610   0.320
 1588W        W70006  44.332   0.769   1.292
 1589W        W70007  31.039  38.443   1.699
 1590W        W70008   5.221   0.441  11.978
 1591W        W70009  31.635  12.195  12.038
 1592W        W70010   6.195  20.737   1.875
 1593W        W70011  26.651  40.030   0.408
 1594W        W70012  12.618  30.500   4.738
 1595W        W70013  38.920   5.303   4.273
 1596W        W70014  30.993  24.552  11.481
 1597W        W70015  34.552   6.387  13.396
 1598W        W70016   6.904  29.075   0.408
 1599W        W70017   6.394  28.977  12.982
 1600W        W70018   1.411  27.662   4.601
 1601W        W70019   5.790  23.176   3.843
 1602W        W70020  26.988  19.070  13.512
 1603W        W70021  28.488   1.307  11.517
 1604W        W70022  29.457  25.706  13.973
 1605W        W70023  14.664   3.788  14.808
 1606W        W70024  28.531   3.836   4.270
 1607W        W70025  32.434  29.110  10.975
 1608W        W70026  34.916  13.601  10.933
 1609W        W70027  13.306   3.868   4.801
 1610W        W70028  36.576  27.636  14.892
 1611W        W70029  33.454  15.217   3.227
 1612W        W70030  39.853  33.588  10.424
 1613W        W70031  31.589  19.124   1.730
 1614W        W70032  44.967   6.285  11.991
 1615W        W70033  18.081  43.277  12.517
 1616W        W70034  44.939  18.667  14.472
 1617W        W70035  23.726  12.626  12.340
 1618W        W70036   4.222  23.537  13.394
 1619W        W70037  21.672  18.784   4.323
 1620W        W70038  34.568   1.746   4.611
 1621W        W70039  20.691   7.355  14.032
 1622W        W70040  11.629  14.604  11.516
 1623W        W70041  11.366  41.961  11.895
 1624W        W70042  38.889  22.123   3.205
 1625W        W70043  10.649  34.468  12.518
 1626W        W70044  11.167  12.278  11.040
 1627W        W70045   5.827  37.934  14.990
 1628W        W70046  10.249  29.157  10.890
 1629W        W70047  19.539  31.551   0.803
 1630W        W70048   2.383  19.716  11.604
 1631W        W70049  14.210  42.965   0.924
 1632W        W70050  19.097   1.294  13.039
 1633W        W70051  19.631  14.227   3.283
 1634W        W70052  24.526  10.671   3.212
 1635W        W70053  41.837  25.705  13.998
 1636W        W70054  11.140  38.360   2.876
 1637W        W70055  35.019  21.518  12.863
 1638W        W70056  27.520  30.417   1.735
 1639W        W70057  36.388  20.186  13.401
 1640W        W70058   5.791  41.396   1.234
 1641W        W70059   7.679  21.536  13.539
 1642W        W70060  32.419   5.372   3.668
 1643W        W70061  12.714   4.209   1.897
 1644W        W70062  43.504  39.063  11.494
 1645W        W70063   4.938  24.104  11.913
 1646W        W70064  43.477  24.065   0.904
 1647W        W70065  17.678  40.955   3.174
 1648W        W70066  43.446   3.460  11.118
 1649W        W70067  34.597  37.454   4.836
 1650W        W70068  33.989  24.490  10.543
 1651W        W70069   8.361  38.325   2.310
 1652W        W70070  35.951  27.985   0.948
 1653W        W70071  38.403  42.017   2.411
 1654W        W70072   6.414  22.061   3.292
 1655W        W70073   4.897   0.310   4.620
 1656W        W70074   2.800   8.162  13.486
 1657W        W70075   4.831  39.364  12.097
 1658W        W70076  40.389  11.644  13.414
 1659W        W70077   9.692  25.132   2.231
 1660W        W70078   0.333   0.285  11.035
 1661W        W70079  24.564  15.749   3.743
 1662W        W70080   2.406  21.257   1.729
 1663W        W70081  23.159  27.454   1.218
 1664W        W70082  44.806  17.684  11.376
 1665W        W70083  35.420  30.583  12.934
 1666W        W70084  14.267  17.799  12.367
 1667W        W70085   5.324   3.424  10.536
 1668W        W70086  28.592  24.044   1.352
 1669W        W70087   3.939  29.588   1.697
 1670W        W70088  13.723  24.622   4.215
 1671W        W70089  40.500  21.235  13.426
 1672W        W70090  21.018  14.146  10.537
 1673W        W70091  28.171  18.598  13.323
 1674W        W70092  22.086  14.116   2.879
 1675W        W70093  38.491  11.179   2.712
 1676W        W70094  42.853  12.738   1.236
 1677W        W70095  29.451  43.489   4.752
 1678W        W70096  33.983  35.912  10.610
 1679W        W70097   1.878  11.300  11.990
 1680W        W70098  28.185  12.764   4.157
 1681W        W70099  24.617   9.735   3.713
 1682W        W70100  13.599  17.185   0.768
 1683W        W70101  37.953  14.617   0.402
 1684W        W70102   2.347   6.890  13.829
 1685W        W70103  31.074  43.020   1.905
 1686W        W70104  35.933  11.621   1.312
 1687W        W70105  35.592  36.059   3.213
 1688W        W70106  32.976  29.094  12.977
 1689W        W70107  12.663  24.601   4.828
 1690W        W70108   7.333  17.617   1.868
 1691W        W70109  39.460  24.495   3.768
 1692W        W70110   7.749  18.616   2.210
 1693W        W70111  42.294  44.308   0.824
 1694W        W70112  20.754  23.490   5.629
 1695W        W70113   2.823   2.401   1.418
 1696W        W70114  42.804  33.881  13.358
 1697W        W70115  33.549  44.478   3.231
 1698W        W70116  17.616   4.303   2.718
 1699W        W70117   1.841  31.148  13.307
 1700W        W70118  39.941  37.981   4.170
 1701W        W70119  32.562  25.213  10.918
 1702W        W70120   5.729  10.234   4.682
 1703W        W70121  16.751   7.221  12.937
 1704W        W70122   1.384  44.433  10.473
 1705W        W70123  23.624  21.652  14.918
 1706W        W70124  32.478  15.134  12.570
 1707W        W70125  32.601   8.172   3.259
 1708W        W70126  21.065   3.448   4.681
 1709W        W70127   1.918  27.985  10.644
 1710W        W70128  23.700  43.946  13.921
 1711W        W70129   7.737  25.541  12.457
 1712W        W70130  26.596   0.837  11.502
 1713W        W70131   7.673   3.330   1.227
 1714W        W70132  23.156  18.220  12.932
 1715W        W70133  26.621  24.138  14.386
 1716W        W70134  41.533  31.506  11.099
 1717W        W70135   4.413  17.759  10.946
 1718W        W70136  27.951  32.549   0.446
 1719W        W70137  26.157  39.991   4.644
 1720W        W70138  44.497  32.530   0.845
 1721W        W70139  34.900  18.767  11.547
 1722W        W70140  36.852  28.552   1.242
 1723W        W70141  22.084  14.772   4.622
 1724W        W70142  40.931   0.471   4.767
 1725W        W70143   7.681   4.848  14.492
 1726W        W70144   0.411  36.421   4.666
 1727W        W70145  16.748  34.928  14.951
 1728W        W70146   7.818   0.443   1.294
 1729W        W70147  26.552  23.220   2.302
 1730W        W70148  18.158  42.369  14.502
 1731W        W70149   2.406  20.756   2.312
 1732W        W70150  11.174  25.044  13.511
 1733W        W70151  37.452  36.056   2.768
 1734W        W70152  29.589  13.298  13.931
 1735W        W70153  29.964  43.291  11.545
 1736W        W70154  38.404  35.598   3.281
 1737W        W70155  24.645  17.085  11.929
 1738W        W70156  23.044  33.062   3.647
 1739W        W70157  10.365  23.687  12.341
 1740W        W70158   6.416  14.137   0.764
 1741W        W70159  16.163  44.839   1.897
 1742W        W70160  25.189  11.819  13.894
 1743W        W70161  36.587  34.100   3.704
 1744W        W70162  22.194  32.439  11.010
 1745W        W70163  37.956   9.314   2.669
 1746W        W70164  36.983  19.258  11.446
 1747W        W70165   7.780  15.216   2.181
 1748W        W70166  24.002   0.885  13.348
 1749W        W70167  24.032  22.548   2.244
 1750W        W70168  40.480  43.500  10.448
 1751W        W70169  31.996   8.719   0.735
 1752W        W70170  17.142  14.168   2.265
 1753W        W70171  17.583  27.949   3.321
 1754W        W70172  43.278  40.800  14.860
 1755W        W70173   7.900   1.455   0.751
 1756W        W70174  28.071  33.974   3.221
 1757W        W70175  30.518  10.211   0.761
 1758W        W70176  20.554  32.397   1.278
 1759W        W70177  15.639  33.455  12.500
 1760W        W70178  33.003  43.875   2.778
 1761W        W70179  37.069  12.162   1.333
 1762W        W70180   8.401  23.001   3.807
 1763W        W70181  19.749  35.566  10.905
 1764W        W70182   3.367  43.895  11.443
 1765W        W70183  18.143  42.389  12.467
 1766W        W70184  43.774  13.295  10.930
 1767W        W70185  39.501   1.873  14.016
 1768W        W70186  21.531   3.369   2.204
 1769W        W70187  25.100  26.507   4.153
 1770W        W70188  37.048  32.576  14.508
 1771W        W70189  20.733  13.154  13.447
 1772W        W70190  15.650  18.231  14.453
 1773W        W70191  18.285  19.240   2.673
 1774W        W70192   0.936  24.982  12.955
 1775W        W70193  21.195  35.483   4.334
 1776W        W70194   8.682  34.384  11.044
 1777W        W70195  21.577  25.129  13.423
 1778W        W70196  40.030  29.018   3.186
 1779W        W70197  36.461   0.823   3.835
 1780W        W70198  24.184  13.662   2.804
 1781W        W70199  35.382  35.027   1.697
 1782W        W70200  24.193  42.468  10.552
 1783W        W70201   7.814   9.739   0.263
 1784W        W70202  42.905  23.040   0.839
 1785W        W70203   5.305  16.224   1.702
 1786W        W70204  20.162   0.404   3.339
 1787W        W70205  15.581  40.394   4.786
 1788W        W70206  36.370  36.988   4.197
 1789W        W70207  37.914   5.862   0.385
 1790W        W70208   4.754   0.262  12.078
 1791W        W70209  33.034  11.162   3.853
 1792W        W70210  28.473   1.863  12.823
 1793W        W70211   1.848   6.908  11.609
 1794W        W70212  35.905  39.820   1.305
 1795W        W70213   9.739  37.927   1.355
 1796W        W70214   6.272  33.000  10.417
 1797W        W70215  17.286   9.236   0.754
 1798W        W70216  40.494  36.394   1.885
 1799W        W70217  42.862  40.976  13.933
 1800W        W70218   0.302  11.234   0.734
 1801W        W70219   0.385  26.180   4.608
 1802W        W70220  19.263  22.104   3.299
 1803W        W70221  23.506  43.403  14.460
 1804W        W70222  42.854   9.648   0.350
 1805W        W70223  37.949  30.926  12.077
 1806W        W70224  25.610  16.666   1.408
 1807W        W70225   5.260   9.664  11.053
 1808W        W70226  38.018  11.781   4.279
 1809W        W70227   4.742   1.786  14.495
 1810W        W70228  35.358   8.230   1.255
 1811W        W70229  20.579   8.844  14.473
 1812W        W70230  24.170  22.038   4.808
 1813W        W70231  40.901  30.567  13.848
 1814W        W70232  23.568   5.726  11.465
 1815W        W70233  25.064  13.252   4.234
 1816W        W70234  25.175   2.243   3.151
 1817W        W70235  27.446  36.453  12.932
 1818W        W70236   9.826  32.478   3.187
 1819W        W70237  10.841  18.615   3.764
 1820W        W70238  22.591  38.329   0.813
 1821W        W70239  18.781  25.210  10.051
 1822W        W70240  34.965   3.300   1.707
 1823W        W70241   5.245  14.749   1.857
 1824W        W70242  18.095  44.414  12.019
 1825W        W70243  14.094  15.173  10.491
 1826W        W70244  38.873  17.778   1.269
 1827W        W70245  24.190  11.260  12.094
 1828W        W70246   2.899  34.037   4.190
 1829W        W70247  18.268   2.303   3.843
 1830W        W70248  38.976  28.638   0.946
 1831W        W70249  24.482  43.918   3.784
 1832W        W70250  33.886  44.831   3.664
 1833W        W70251  26.048  25.702   2.662
 1834W        W70252  29.509  43.312   0.762
 1835W        W70253  36.896  24.579  14.349
 1836W        W70254  40.375  34.614  14.403
 1837W        W70255  33.412   9.847   3.790
 1838W        W70256  18.133  43.308   3.220
 1839W        W70257  14.668  22.703   2.343
 1840W        W70258  24.483  30.923  13.854
 1841W        W70259  44.834  35.091   3.203
 1842W        W70260   6.406  26.652  10.021
 1843W        W70261  33.561  25.667   5.183
 1844W        W70262  17.305  26.530   4.129
 1845W        W70263  24.061  13.843   3.689
 1846W        W70264   8.759  11.867   4.786
 1847W        W70265  35.883  18.688   0.457
 1848W        W70266   5.750  24.529  12.896
 1849W        W70267   6.418  31.991   2.754
 1850W        W70268  34.990  29.094   2.202
 1851W        W70269   1.453  27.489   1.323
 1852W        W70270  28.468   8.180  13.347
 1853W        W70271   3.249  42.960  11.986
 1854W        W70272  39.856  34.927  12.995
 1855W        W70273   5.798  42.863   3.699
 1856W        W70274  12.298  18.117   2.381
 1857W        W70275  22.060   2.935   2.226
 1858W        W70276  15.710  13.329  11.859
 1859W        W70277   1.805  36.095  10.582
 1860W        W70278  27.161  34.096   3.803
 1861W        W70279  11.771   8.334  11.042
 1862W        W70280  22.141  43.273  12.855
 1863W        W70281   1.430   1.944   1.817
 1864W        W70282  38.554   1.768  12.075
 1865W        W70283  22.663  26.573   4.341
 1866W        W70284  24.624  26.506   0.870
 1867W        W70285  30.916  15.144   3.649
 1868W        W70286  33.453  23.134   4.833
 1869W        W70287  43.352  37.077   2.414
 1870W        W70288  14.097  24.977   4.263
 1871W        W70289   8.709  36.069   4.626
 1872W        W70290  33.919  10.341  12.498
 1873W        W70291  30.016   4.263  11.530
 1874W        W70292   1.946  32.072  11.052
 1875W        W70293  39.558  30.656   1.856
 1876W        W70294  17.295  30.600  12.918
 1877W        W70295  38.350  44.319   2.733
 1878W        W70296   3.715  11.793  12.862
 1879W        W70297  14.700   4.897  14.825
 1880W        W70298   5.734   3.831   4.802
 1881W        W70299  12.836  43.398   1.306
 1882W        W70300  35.435  31.422  10.922
 1883W        W70301  26.652  37.992   4.610
 1884W        W70302  43.311  33.025   1.874
 1885W        W70303  35.022  12.134  14.895
 1886W        W70304  41.880  41.503   2.759
 1887W        W70305   5.752  33.960  10.441
 1888W        W70306   8.404  11.353  12.842
 1889W        W70307  36.473  22.633   4.612
 1890W        W70308  16.274  44.352  13.321
 1891W        W70309  35.380  25.059   0.407
 1892W        W70310  27.487  24.006   4.602
 1893W        W70311  16.098   3.780   3.335
 1894W        W70312  31.459  36.377  11.564
 1895W        W70313  32.492  44.400   4.148
 1896W        W70314  35.902  27.152  10.969
 1897W        W70315   2.239   0.849   2.729
 1898W        W70316  15.718  35.462  14.422
 1899W        W70317  36.514  23.615  12.091
 1900W        W70318  14.212  36.468  13.880
 1901W        W70319  19.598  41.395  10.614
 1902W        W70320  36.997  27.065   4.624
 1903W        W70321  30.430  11.844  10.622
 1904W        W70322  22.718  25.968  14.345
 1905W        W70323  11.725  43.480   3.288
 1906W        W70324   7.305  28.107   4.340
 1907W        W70325  38.442  40.415   1.916
 1908W        W70326  24.988  23.231  12.080
 1909W        W70327  28.013  38.557  10.895
 1910W        W70328  28.176   8.681   3.744
 1911W        W70329  25.600  17.636  12.925
 1912W        W70330  24.094  15.302  14.876
 1913W        W70331   7.798  40.534   2.731
 1914W        W70332  42.479   8.797  12.861
 1915W        W70333  37.344  20.582  13.403
 1916W        W70334   9.238   1.888  10.420
 1917W        W70335  10.834  33.016   1.275
 1918W        W70336  18.163  32.098   1.733
 1919W        W70337   8.704  17.602   4.176
 1920W        W70338   1.282   1.269  13.852
 1921W        W70339  37.536  11.335   2.202
 1922W        W70340   6.724  40.859  10.602
 1923W        W70341   0.855  12.159   4.751
 1924W        W70342  26.615  24.172   3.335
 1925W        W70343  39.999  42.521  14.861
 1926W        W70344  27.073  34.089   2.844
 1927W        W70345  24.638  25.497   1.824
 1928W        W70346  40.490  10.705  13.037
 1929W        W70347  40.932  27.507   0.736
 1930W        W70348  24.147  27.992  10.890
 1931W        W70349  35.998  28.681   4.338
 1932W        W70350  32.089  41.880   2.347
 1933W        W70351  26.656  13.710  13.510
 1934W        W70352  33.023  24.992  13.886
 1935W        W70353  44.327   0.330   0.305
 1936W        W70354  35.083  37.461  13.891
 1937W        W70355  24.060  14.203  14.800
 1938W        W70356   6.185  21.092   0.943
 1939W        W70357  29.534  32.932  10.600
 1940W        W70358  33.969  13.819  13.307
 1941W        W70359  26.682  13.145  12.518
 1942W        W70360  36.850   2.826  14.871
 1943W        W70361  17.156  37.954   3.166
 1944W        W70362  41.408   0.316  11.948
 1945W        W70363  18.580   1.379  11.572
 1946W        W70364   8.804  42.906  12.992
 1947W        W70365  11.622  23.049  14.973
 1948W        W70366  19.165  27.158   2.879
 1949W        W70367   0.317  43.288  14.814
 1950W        W70368  43.841   2.391  12.016
 1951W        W70369  16.628  36.935  11.920
 1952W        W70370   5.415  17.186  10.405
 1953W        W70371  17.087  13.288  11.088
 1954W        W70372  11.809  43.826   0.266
 1955W        W70373  21.714  28.013  11.891
 1956W        W70374  28.158  19.776  11.032
 1957W        W70375   7.860  29.444  10.589
 1958W        W70376  36.876  26.172   4.776
 1959W        W70377  21.679  18.605   0.435
 1960W        W70378   5.409  21.754   0.922
 1961W        W70379   7.375  29.001   1.837
 1962W        W70380  17.781  19.537  11.557
 1963W        W70381  17.735  34.916  10.623
 1964W        W70382  22.714  35.463   2.819
 1965W        W70383  30.607  17.634  14.003
 1966W        W70384  31.642  41.026   0.765
 1967W        W70385  33.086   6.920   4.738
 1968W        W70386  38.012  30.129  12.029
 1969W        W70387  34.524  25.067   2.233
 1970W        W70388  42.872  10.635   4.322
 1971W        W70389  40.973  40.388  11.999
 1972W        W70390  15.192   5.868  14.493
 1973W        W70391  16.304  20.037   2.825
 1974W        W70392  32.015  35.087  13.802
 1975W        W70393  16.689  38.988   4.286
 1976W        W70394  23.640  13.316  12.036
 1977W        W70395  13.233  15.228  11.993
 1978W        W70396  10.247  10.254   9.998
 1979W        W70397  25.163   1.869  13.356
 1980W        W70398  16.599  40.015  11.960
 1981W        W70399  26.975  17.260  10.511
 1982W        W70400  26.523  11.176  10.540
 1983W        W70401  35.107  22.102  13.813
 1984W        W70402  40.923  19.060   1.863
 1985W        W70403  12.636  16.102  11.486
 1986W        W70404  37.549  21.200  11.983
 1987W        W70405  16.766  37.962  14.760
 1988W        W70406   0.765  26.994  14.798
 1989W        W70407  21.654   4.766  13.797
 1990W        W70408  25.701   6.201   1.381
 1991W        W70409  37.081  17.677   1.736
 1992W        W70410  23.056  23.219  13.482
 1993W        W70411  25.182  35.871   2.773
 1994W        W70412  17.185  25.081  10.513
 1995W        W70413  33.123  21.730   2.704
 1996W        W70414  17.771  28.551   4.779
 1997W        W70415  11.230   1.848  11.038
 1998W        W70416  44.491  19.635   0.931
 1999W        W70417  13.791  32.907   2.349
 2000W        W70418   8.865  19.565  12.858
 2001W        W70419  11.758   9.673  14.469
 2002W        W70420   6.740  37.415   0.247
 2003W        W70421  24.138   8.247   1.709
 2004W        W70422  11.227   8.815  11.404
 2005W        W70423  34.087   5.222   2.318
 2006W        W70424  32.071  27.466   3.167
 2007W        W70425  35.413  13.231  11.412
 2008W        W70426  29.542   9.723  13.364
 2009W        W70427  40.362  15.744   0.391
 2010W        W70428  10.297   2.870   4.233
 2011W        W70429  43.002  11.847   2.679
 2012W        W70430  19.055  12.742   2.757
 2013W        W70431  43.011  32.987   3.814
 2014W        W70432  11.228  34.508  12.846
 2015W        W70433  11.723  19.231  11.372
 2016W        W70434  39.536  19.268   3.386
 2017W        W70435  17.560  37.552  11.902
 2018W        W70436  41.318  43.444   4.646
 2019W        W70437  36.469  34.923  11.398
 2020W        W70438  19.058  40.992  13.445
 2021W        W70439  42.934  26.046   4.193
 2022W        W70440  11.758  23.555  12.952
 2023W        W70441  18.076  19.238  12.006
 2024W        W70442   3.377  28.018   0.436
 2025W        W70443  10.349  35.601   1.795
 2026W        W70444  12.210  29.144  11.881
 2027W        W70445  34.462  17.587   2.811
 2028W        W70446  12.164  14.615   2.890
 2029W        W70447  43.011   2.333  13.829
 2030W        W70448  32.014  36.520   3.261
 2031W        W70449   5.690  21.570   3.746
 2032W        W70450  28.590  28.050   4.347
 2033W        W70451  12.193  23.718   4.678
 2034W        W70452  30.090  24.560  12.913
 2035W        W70453  19.172   2.736  12.992
 2036W        W70454  27.539  15.223   3.147
 2037W        W70455  11.862  16.201   1.443
 2038W        W70456  13.306  26.988   2.189
 2039W        W70457   1.297   8.182   1.419
 2040W        W70458  21.092  19.163  13.913
 2041W        W70459  36.432  19.691  11.396
 2042W        W70460   7.733  13.242   3.866
 2043W        W70461  22.503  42.295  13.519
 2044W        W70462  11.356  41.436   4.679
 2045W        W70463   3.289  20.177   5.806
 2046W        W70464  24.103   2.892  10.927
 2047W        W70465  29.034  42.433   3.369
 2048W        W70466  25.605  16.729  10.912
 2049W        W70467  42.964  16.726   2.868
 2050W        W70468  38.335  23.012  10.898
 2051W        W70469  39.027  28.676   1.333
 2052W        W70470  38.019  23.001  11.416
 2053W        W70471   7.903  12.180   4.764
 2054W        W70472   1.961  37.909  13.457
 2055W        W70473   5.709   8.790  11.583
 2056W        W70474  22.224  25.476  12.370
 2057W        W70475  29.550  43.495   0.357
 2058W        W70476  44.762   5.240   3.752
 2059W        W70477  15.688   8.276  14.975
 2060W        W70478  27.997  15.252   3.730
 2061W        W70479  39.430  31.561   0.796
 2062W        W70480  31.562  19.110   3.304
 2063W        W70481  14.661  25.143   9.952
 2064W        W70482   7.375  37.031  14.317
 2065W        W70483  10.255  14.691   5.118
 2066W        W70484  34.937  28.442   0.466
 2067W        W70485  32.034  19.643  11.092
 2068W        W70486  36.570  28.505   3.669
 2069W        W70487  21.603  38.887   4.826
 2070W        W70488  21.584  11.819   4.276
 2071W        W70489  39.439  31.966   1.896
 2072W        W70490  25.213  44.418  12.904
 2073W        W70491   7.213  35.375  14.958
 2074W        W70492  30.908  17.220  13.881
 2075W        W70493  14.336  24.561  12.484
 2076W        W70494  36.416  15.738  10.432
 2077W        W70495  29.590  37.936   3.219
 2078W        W70496  25.995  28.544  10.594
 2079W        W70497  42.342  14.687   1.695
 2080W        W70498  42.935  11.625   1.710
 2081W        W70499  35.998  38.061   1.220
 2082W        W70500  37.479  28.577  11.495
 2083W        W70501  18.785  17.172   4.701
 2084W        W70502  37.570  16.205   0.335
 2085W        W70503  21.249  29.969   2.713
 2086W        W70504  25.153   9.168   4.339
 2087W        W70505   4.722  40.463  14.956
 2088W        W70506  19.698  19.166  14.902
 2089W        W70507  34.404   3.789   4.823
 2090W        W70508  30.419  26.509  13.015
 2091W        W70509  33.389  30.527  13.387
 2092W        W70510   8.255  37.496   5.206
 2093W        W70511   5.816  44.907  14.779
 2094W        W70512  23.552  24.197   3.729
 2095W        W70513   0.981  44.388  12.461
 2096W        W70514   4.300  28.948   2.308
 2097W        W70515  11.653   8.676   2.785
 2098W        W70516   8.681   9.295  14.027
 2099W        W70517  31.900  15.750  13.422
 2100W        W70518  17.238  28.185  10.063
 2101W        W70519  38.920   8.317   1.257
 2102W        W70520  11.862  30.449   3.724
 2103W        W70521  35.937  29.988  13.899
 2104W        W70522  23.554   8.808   4.220
 2105W        W70523  44.439  28.609  11.495
 2106W        W70524  26.678  25.535  11.373
 2107W        W70525   0.813  14.211  11.892
 2108W        W70526  34.460   5.408   3.650
 2109W        W70527  19.101  11.365  14.515
 2110W        W70528  37.527   0.480   0.796
 2111W        W70529   4.872  25.026   3.796
 2112W        W70530   8.202  43.993   3.673
 2113W        W70531  44.909  30.596   3.751
 2114W        W70532  42.817  22.694  12.368
 2115W        W70533  20.254  25.177  14.367
 2116W        W70534  28.667  12.209  14.949
 2117W        W70535  13.700  13.254  10.472
 2118W        W70536  26.952   7.728   1.300
 2119W        W70537  22.597  13.714   1.720
 2120W        W70538   7.730  23.215   3.190
 2121W        W70539   8.657  38.345  12.378
 2122W        W70540  36.454   3.885  12.055
 2123W        W70541  44.816  34.562  14.396
 2124W        W70542  34.000  10.813  11.937
 2125W        W70543  18.200   3.855   2.731
 2126W        W70544  35.934  38.016  11.516
 2127W        W70545  22.565  30.926   4.248
 2128W        W70546  32.002  36.972   0.962
 2129W        W70547  39.047   4.419   2.387
 2130W        W70548  38.330  32.968  11.397
 2131W        W70549  24.988  30.618  14.411
 2132W        W70550  27.667  31.569  11.936
 2133W        W70551  21.589   6.783  12.902
 2134W        W70552   1.782   2.840   0.917
 2135W        W70553  20.538   0.413  11.612
 2136W        W70554   9.351  28.180   2.367
 2137W        W70555  12.696  31.926   5.179
 2138W        W70556  12.846  39.835  13.537
 2139W        W70557   4.770  38.865   3.252
 2140W        W70558   4.246  35.889   0.783
 2141W        W70559  32.563   0.345  10.917
 2142W        W70560  13.817  20.690   2.326
 2143W        W70561  11.304  28.933   3.639
 2144W        W70562  10.640  18.206   2.817
 2145W        W70563  26.972   1.797   4.202
 2146W        W70564  42.803   0.799   3.324
 2147W        W70565  29.011   5.268   3.793
 2148W        W70566  39.828  19.648  14.343
 2149W        W70567   5.727  26.631  14.427
 2150W        W70568  30.490  42.374   4.643
 2151W        W70569   2.966  37.481  14.282
 2152W        W70570  26.044   5.342   3.249
 2153W        W70571  27.992  17.196   4.227
 2154W        W70572  28.134  34.458   1.222
 2155W        W70573   5.844   7.237   2.861
 2156W        W70574  28.961  12.255   2.231
 2157W        W70575  28.939  18.057   0.736
 2158W        W70576  10.145  22.153   0.966
 2159W        W70577  12.775  43.458  11.997
 2160W        W70578  28.013  40.990   1.438
 2161W        W70579  11.283  10.784  14.872
 2162W        W70580  44.802  43.874   3.247
 2163W        W70581   2.730  26.117   4.828
 2164W        W70582  27.561   9.692   9.574
 2165W        W70583  17.250   4.797   0.293
 2166W        W70584   9.792  18.082   2.274
 2167W        W70585   4.413   9.842   1.928
 2168W        W70586  12.745  34.998   3.705
 2169W        W70587   0.788  18.766  11.053
 2170W        W70588  13.298  44.432  12.556
 2171W        W70589  12.266   5.894   4.723
 2172W        W70590  30.517  27.941   0.377
 2173W        W70591  35.517  36.583   3.347
 2174W        W70592  26.147   2.418   1.744
 2175W        W70593   1.280  43.844   4.322
 2176W        W70594  40.407  26.190   1.421
 2177W        W70595   9.239  32.502   4.822
 2178W        W70596  42.979  11.348  14.387
 2179W        W70597  31.141   2.318   2.820
 2180W        W70598  18.281  12.701  11.475
 2181W        W70599  12.776   2.366  14.356
 2182W        W70600  22.171  28.947   0.455
 2183W        W70601  42.507   4.272  13.355
 2184W        W70602  32.916   6.736   4.304
 2185W        W70603  24.694  44.774  14.405
 2186W        W70604  29.948  22.203  13.417
 2187W        W70605  44.501  39.434  13.366
 2188W        W70606  16.191   8.381  14.984
 2189W        W70607  23.688  13.269  11.386
 2190W        W70608  44.000  36.543   0.333
 2191W        W70609   1.882  36.039   3.709
 2192W        W70610   1.966  33.061   1.301
 2193W        W70611  44.434  37.412   0.459
 2194W        W70612  40.050  44.873  11.071
 2195W        W70613  37.037   9.383  12.017
 2196W        W70614  33.084  10.210  11.558
 2197W        W70615  27.564  32.419   3.347
 2198W        W70616  22.658  12.358   4.806
 2199W        W70617  25.525  33.081   4.173
 2200W        W70618  43.389  10.326  14.015
 2201W        W70619  21.590  34.401  12.952
 2202W        W70620  33.032  16.761   0.756
 2203W        W70621   8.677  13.312  14.026
 2204W        W70622  18.741  30.957   0.361
 2205W        W70623  42.521  34.034   3.825
 2206W        W70624  20.689   4.799  11.381
 2207W        W70625  44.357  12.674  14.314
 2208W        W70626  17.694  28.112  12.048
 2209W        W70627  14.148   8.338   1.884
 2210W        W70628  42.389   7.319  13.062
 2211W        W70629   4.362  14.226  10.574
 2212W        W70630  20.624  26.063  12.971
 2213W        W70631  37.446  29.618   4.249
 2214W        W70632   4.221  26.550   3.788
 2215W        W70633   7.888  31.529   0.285
 2216W        W70634   5.771  19.742   3.746
 2217W        W70635  15.619   3.795   0.347
 2218W        W70636  34.974  38.063  13.477
 2219W        W70637  10.788  34.867  14.516
 2220W        W70638   4.379   0.937   0.935
 2221W        W70639  28.568  37.937   1.446
 2222W        W70640  36.028  23.183  11.111
 2223W        W70641  24.200  17.118  13.388
 2224W        W70642  16.196  11.797   2.875
 2225W        W70643   3.956  13.173   0.797
 2226W        W70644  41.804  24.575   2.212
 2227W        W70645  32.057  12.353  12.039
 2228W        W70646  10.312  41.033  11.612
 2229W        W70647   5.921  34.453   4.174
 2230W        W70648   0.770  29.150  13.437
 2231W        W70649  22.091  41.506  11.957
 2232W        W70650   6.251  40.820  10.557
 2233W        W70651  41.534  39.843   2.675
 2234W        W70652   6.317  15.824  10.139
 2235W        W70653   5.701   3.313  10.481
 2236W        W70654  30.917   7.374  10.534
 2237W        W70655  32.086  14.166   0.942
 2238W        W70656  22.707  18.155  10.063
 2239W        W70657  39.456  38.991   3.376
 2240W        W70658  22.738  43.314  12.354
 2241W        W70659  30.624  15.678  14.311
 2242W        W70660  37.912  33.533  13.813
 2243W        W70661  29.926  13.714  10.897
 2244W        W70662   8.880  42.328   3.146
 2245W        W70663  22.586  44.995  13.950
 2246W        W70664  36.512  43.334  11.548
 2247W        W70665  21.065   0.263  12.511
 2248W        W70666  33.053  34.598  12.081
 2249W        W70667  35.853   7.319   1.807
 2250W        W70668   0.432   9.856   3.639
 2251W        W70669  34.534  33.514   3.717
 2252W        W70670  11.831  30.584  11.990
 2253W        W70671  21.200   6.387   2.811
 2254W        W70672  23.105   4.774  11.445
 2255W        W70673   0.402   8.215   4.644
 2256W        W70674  11.261  11.267   0.917
 2257W        W70675  30.473  41.811  11.874
 2258W        W70676  41.336  40.852  14.397
 2259W        W70677   1.423  15.276  13.826
 2260W        W70678   0.875  36.078   3.807
 2261W        W70679  10.333  10.311   5.127
 2262W        W70680  40.440  19.074  13.345
 2263W        W70681  21.593   7.728   2.351
 2264W        W70682  15.709  42.516   1.935
 2265W        W70683  11.797  32.139  11.452
 2266W        W70684  39.461  23.165  10.913
 2267W        W70685  40.379  17.260   3.378
 2268W        W70686  36.999  36.984   1.448
 2269W        W70687  33.129  41.438   0.857
 2270W        W70688  36.049  36.488  12.891
 2271W        W70689  32.978  43.801  14.836
 2272W        W70690  44.432  20.109  10.028
 2273W        W70691  20.613  42.823   3.730
 2274W        W70692   7.888  27.010  11.433
 2275W        W70693  30.937   5.237   1.932
 2276W        W70694  17.107   3.768  10.966
 2277W        W70695  28.550   3.447  11.431
 2278W        W70696  43.848  10.666   4.734
 2279W        W70697   2.268  11.659  13.050
 2280W        W70698  10.316  31.097  13.914
 2281W        W70699   6.350  32.979  13.791
 2282W        W70700  27.503  20.048   2.828
 2283W        W70701  23.708  32.633   4.316
 2284W        W70702  44.903  41.338   3.375
 2285W        W70703  28.133   5.704  13.516
 2286W        W70704   1.378  42.788  13.330
 2287W        W70705   4.914  41.535   4.134
 2288W        W70706  37.440  39.396  11.508
 2289W        W70707   7.375  43.410  11.409
 2290W        W70708  18.598  40.542   2.821
 2291W        W70709  33.098  26.051  11.494
 2292W        W70710  24.020  31.561   1.915
 2293W        W70711  35.457  39.350   1.324
 2294W        W70712  16.260  14.626   2.335
 2295W        W70713  15.629  30.417  12.494
 2296W        W70714   6.714  19.726   5.305
 2297W        W70715  33.096  39.885   2.760
 2298W        W70716   4.353  11.832  10.919
 2299W        W70717  21.656  30.469  11.984
 2300W        W70718  14.802   3.385  10.092
 2301W        W70719  18.255  20.589  11.025
 2302W        W70720  25.067   2.270  10.906
 2303W        W70721  31.101  32.021  14.951
 2304W        W70722  26.632  39.531  10.445
 2305W        W70723   6.864  21.100  14.336
 2306W        W70724  17.583  17.212   4.201
 2307W        W70725  15.233  31.950   1.447
 2308W        W70726   1.936  43.779  11.957
 2309W        W70727  16.206  22.199  10.912
 2310W        W70728   2.965  37.969   1.799
 2311W        W70729  32.613  34.028  10.479
 2312W        W70730  18.725  25.217  10.543
 2313W        W70731  33.494  14.238   2.211
 2314W        W70732  44.901  20.708  12.985
 2315W        W70733  12.227  11.803  12.901
 2316W        W70734  22.012  26.959  10.645
 2317W        W70735  12.330  36.527   1.290
 2318W        W70736  11.157  26.585   3.849
 2319W        W70737  43.365  30.491  12.528
 2320W        W70738  36.392   6.219   5.185
 2321W        W70739  12.817  21.589  10.540
 2322W        W70740  42.406   4.269   0.942
 2323W        W70741  28.970  10.849   3.643
 2324W        W70742  30.467  14.212   2.877
 2325W        W70743  12.637   2.428   1.770
 2326W        W70744   3.787  31.123   1.722
 2327W        W70745  32.537  29.546   4.222
 2328W        W70746  14.808  32.129   3.720
 2329W        W70747  11.339  43.946  13.796
 2330W        W70748  22.533   0.461  14.926
 2331W        W70749  23.535   1.391  12.568
 2332W        W70750  35.011  10.327   2.826
 2333W        W70751  34.419   5.384  12.933
 2334W        W70752  33.098  38.979  12.848
 2335W        W70753   3.388   3.840   0.869
 2336W        W70754  33.520   1.318  11.537
 2337W        W70755   7.274  12.353  11.407
 2338W        W70756  40.860   5.860   0.802
 2339W        W70757  24.200   4.791   3.196
 2340W        W70758  11.851   4.432  13.958
 2341W        W70759   2.411  38.466   0.446
 2342W        W70760  18.145   8.165  13.829
 2343W        W70761  20.149  17.197  10.911
 2344W        W70762  33.967  40.473  12.855
 2345W        W70763  43.282  21.052  11.940
 2346W        W70764  25.592  30.078  12.872
 2347W        W70765  10.292  21.553   3.308
 2348W        W70766  11.696   0.265  14.832
 2349W        W70767  22.995  23.238  12.418
 2350W        W70768  40.498  36.410   0.289
 2351W        W70769  16.626  37.479  12.041
 2352W        W70770  20.241  41.866   3.362
 2353W        W70771  18.085   0.254   1.886
 2354W        W70772   2.283   0.825  14.943
 2355W        W70773  13.843   6.229   3.218
 2356W        W70774  19.272  36.916   0.871
 2357W        W70775  22.560   8.195   0.307
 2358W        W70776  14.332  35.451   0.955
 2359W        W70777   5.770  21.641   1.804
 2360W        W70778  34.599  33.935   1.782
 2361W        W70779  18.659  17.735  13.009
 2362W        W70780  44.763  26.629  10.440
 2363W        W70781  19.622  14.709   2.786
 2364W        W70782  22.555  36.465  14.950
 2365W        W70783  12.613  44.366   3.697
 2366W        W70784  32.602   9.773   2.394
 2367W        W70785   4.249   2.793  12.887
 2368W        W70786   4.750  11.131   2.812
 2369W        W70787  34.088   4.842   2.869
 2370W        W70788  29.106  26.479  10.436
 2371W        W70789   3.375  43.321   5.259
 2372W        W70790   7.400  34.880   2.759
 2373W        W70791  40.340  14.327   2.833
 2374W        W70792  14.126  14.665   1.758
 2375W        W70793  19.205  13.678   5.111
 2376W        W70794   2.304   0.977   2.219
 2377W        W70795  22.153  41.949   5.183
 2378W        W70796  19.697  41.964   0.388
 2379W        W70797   2.947  34.113   1.750
 2380W        W70798   3.322  33.448  14.814
 2381W        W70799  15.261  41.495   1.764
 2382W        W70800  23.990   7.775  14.865
 2383W        W70801  27.097  33.466   0.824
 2384W        W70802  40.833  16.601   1.787
 2385W        W70803  35.445   6.687   0.389
 2386W        W70804  14.835  37.374  11.982
 2387W        W70805  14.783   7.277   9.560
 2388W        W70806   6.326   8.279   4.169
 2389W        W70807  41.514  12.171   4.215
 2390W        W70808  28.180  16.753  14.512
 2391W        W70809  14.736  42.791   3.179
 2392W        W70810   8.882  30.140  14.852
 2393W        W70811   9.821  11.250  14.287
 2394W        W70812  12.703   5.296  14.299
 2395W        W70813   5.747   2.268  13.809
 2396W        W70814   9.327   1.789   4.173
 2397W        W70815  13.747   1.267  11.377
 2398W        W70816  17.214  32.465   4.626
 2399W        W70817  14.204  28.563  11.005
 2400W        W70818  36.919  21.620  11.544
 2401W        W70819  25.078  39.821  14.357
 2402W        W70820  36.987  11.359   4.608
 2403W        W70821  44.784  33.398  10.602
 2404W        W70822  15.294  29.467   4.755
 2405W        W70823  17.101  41.028   0.260
 2406W        W70824   0.954  20.151  14.800
 2407W        W70825   2.468  17.746  13.907
 2408W        W70826  36.979  43.919   3.751
 2409W        W70827   8.246  31.919   1.286
 2410W        W70828  24.184  21.682  11.021
 2411W        W70829  34.405  17.718  12.510
 2412W        W70830   8.784  22.705  13.377
 2413W        W70831  13.760  10.708  12.910
 2414W        W70832   6.725  32.131  13.023
 2415W        W70833  32.891   2.741  13.407
 2416W        W70834  14.823  17.723  14.366
 2417W        W70835  12.647  41.345  12.975
 2418W        W70836  14.296  32.459   1.830
 2419W        W70837   6.232  27.470  10.981
 2420W        W70838  44.266  11.783   2.798
 2421W        W70839  14.118   0.791  10.922
 2422W        W70840   9.363  23.527   3.224
 2423W        W70841  26.597   6.824  14.474
 2424W        W70842  10.216  23.204   2.323
 2425W        W70843  38.372  13.146  13.519
 2426W        W70844   8.900   8.824   4.782
 2427W        W70845  27.990  21.146   3.807
 2428W        W70846  16.233  10.867   4.123
 2429W        W70847  10.220  35.977  13.062
 2430W        W70848   1.971  12.824  12.471
 2431W        W70849  17.277  26.087  13.979
 2432W        W70850  27.473   9.337  14.928
 2433W        W70851  17.663  42.302  11.521
 2434W        W70852  23.219   7.251   4.241
 2435W        W70853   4.698  11.679   3.237
 2436W        W70854  43.493  26.138   1.431
 2437W        W70855  36.072   3.872   2.395
 2438W        W70856   3.400  19.771   3.741
 2439W        W70857  15.769   7.729  12.504
 2440W        W70858   8.740  24.009  11.868
 2441W        W70859  41.458  17.276   4.830
 2442W        W70860  30.551  24.160   2.834
 2443W        W70861  39.462  18.586  14.281
 2444W        W70862  27.998  30.065   0.351
 2445W        W70863  34.388   2.723   4.138
 2446W        W70864  43.489  30.946  12.542
 2447W        W70865  17.230  28.530  14.887
 2448W        W70866  23.153  23.732   2.376
 2449W        W70867  39.400  43.924   4.834
 2450W        W70868   2.438  34.905   3.186
 2451W        W70869  19.186   0.252   2.846
 2452W        W70870  12.777  43.396  10.540
 2453W        W70871  17.802  42.883   3.361
 2454W        W70872   7.317  29.628  11.972
 2455W        W70873  24.218  12.690   4.131
 2456W        W70874  20.252  32.629   3.827
 2457W        W70875   6.789   7.708  10.429
 2458W        W70876  25.598   8.213  13.542
 2459W        W70877  39.827   1.441  13.503
 2460W        W70878  26.690   5.704  10.468
 2461W        W70879  16.265  38.337  14.453
 2462W        W70880  19.267  36.969  11.540
 2463W        W70881  29.620  41.348   2.254
 2464W        W70882  39.462  26.137  11.383
 2465W        W70883  19.225  40.530  10.909
 2466W        W70884   2.361  40.305  10.972
 2467W        W70885  22.603  32.902   0.437
 2468W        W70886  25.059  15.109   3.295
 2469W        W70887  16.229  12.315   2.828
 2470W        W70888  35.373  35.380  14.023
 2471W        W70889  34.548  34.472  11.076
 2472W        W70890  11.184  35.000  10.511
 2473W        W70891   7.757  43.322   2.386
 2474W        W70892  37.876  35.564   4.760
 2475W        W70893   1.800   5.827   4.694
 2476W        W70894  39.947  36.082  10.463
 2477W        W70895  25.549   6.300  13.985
 2478W        W70896   8.389  42.027  10.437
 2479W        W70897  26.202  25.110   4.757
 2480W        W70898  20.762  28.488   2.295
 2481W        W70899  13.116  36.008   0.299
 2482W        W70900  26.023   3.864  14.884
 2483W        W70901   0.865  30.418   1.797
 2484W        W70902   6.754  36.863  10.575
 2485W        W70903  41.530   5.278   0.358
 2486W        W70904  39.946   9.389  11.066
 2487W        W70905  11.296  28.640  13.387
 2488W        W70906  41.914  17.302  12.010
 2489W        W70907  33.413  24.073   4.216
 2490W        W70908  23.516  44.501  12.448
 2491W        W70909  36.408   8.864  12.859
 2492W        W70910  33.571  19.609   4.828
 2493W        W70911   3.867  37.969  10.482
 2494W        W70912  40.429  38.008   2.234
 2495W        W70913   3.308   8.403  13.321
 2496W        W70914  31.518  33.393  10.988
 2497W        W70915  10.179   1.465  12.933
 2498W        W70916   9.274  34.561  13.309
 2499W        W70917  41.506  11.238  10.934
 2500W        W70918  36.052  28.561   0.915
 2501W        W70919  14.202  23.213  14.513
 2502W        W70920   4.725  42.510   0.479
 2503W        W70921  35.504  31.607  14.765
 2504W        W70922  27.111  22.719  13.047
 2505W        W70923  18.097  30.475   4.220
 2506W        W70924   3.725  28.979   4.143
 2507W        W70925  37.381  15.301   2.704
 2508W        W70926  13.225  26.494   1.322
 2509W        W70927  37.999   1.409   3.713
 2510W        W70928  27.005  14.161   0.469
 2511W        W70929  17.114  12.822   2.253
 2512W        W70930  25.683  29.069   3.748
 2513W        W70931   6.256  41.401   3.301
 2514W        W70932  10.833  18.757   4.754
 2515W        W70933  17.657  41.024  11.578
 2516W        W70934  28.533  34.474   0.850
 2517W        W70935  11.257  35.394  11.575
 2518W        W70936   6.385   5.740  10.026
 2519W        W70937   3.225  43.458   2.362
 2520W        W70938   2.817  17.604  13.888
 2521W        W70939  43.965  27.976   0.413
 2522W        W70940  21.609   5.750  14.288
 2523W        W70941  27.662  34.069  13.822
 2524W        W70942  40.983  43.413  10.961
 2525W        W70943  18.727  33.416   5.227
 2526W        W70944  21.529  33.115  13.872
 2527W        W70945  11.846  30.022  12.396
 2528W        W70946   5.309  11.811   0.242
 2529W        W70947  10.814  23.999   1.290
 2530W        W70948  23.051  22.557   3.268
 2531W        W70949  25.618  36.453  14.800
 2532W        W70950  40.532  24.693  10.519
 2533W        W70951  16.647  33.459  12.437
 2534W        W70952  29.535  22.082   4.756
 2535W        W70953  13.195  16.171  12.556
 2536W        W70954   3.782  30.584  11.923
 2537W        W70955  23.671  15.306   4.661
 2538W        W70956  35.440  26.145  13.476
 2539W        W70957   9.721  37.863   0.945
 2540W        W70958  12.806  12.238  14.825
 2541W        W70959  37.978   2.316  10.535
 2542W        W70960  34.374   0.257  11.108
 2543W        W70961  13.124  13.774   3.183
 2544W        W70962  34.913  13.796   1.421
 2545W        W70963  41.520  27.680  11.552
 2546W        W70964  43.880  13.663  13.997
 2547W        W70965  41.987  13.341  13.480
 2548W        W70966  43.464  24.171  14.762
 2549W        W70967   6.787   9.210  14.371
 2550W        W70968  26.025  44.893  10.601
 2551W        W70969  21.539  21.691  12.987
 2552W        W70970  44.322  10.296  10.637
 2553W        W70971  41.491   4.926   5.117
 2554W        W70972  43.809  25.493   3.188
 2555W        W70973  34.404  15.207   4.249
 2556W        W70974  22.627  37.934  11.417
 2557W        W70975  19.736  28.626  10.498
 2558W        W70976  13.118  10.722   0.438
 2559W        W70977  24.562  23.032   2.291
 2560W        W70978  35.012  40.900   3.203
 2561W        W70979  37.578  35.029  13.421
 2562W        W70980  43.968   9.249  13.505
 2563W        W70981   6.227   3.401   0.478
 2564W        W70982   5.822   1.425  14.961
 2565W        W70983  16.231  42.942  14.508
 2566W        W70984  11.352  27.979  13.919
 2567W        W70985   3.933  30.062  12.520
 2568W        W70986  38.348  11.659   1.394
 2569W        W70987   3.289  18.673  11.585
 2570W        W70988  19.726  40.931  12.477
 2571W        W70989  14.733   0.967  11.886
 2572W        W70990  16.150   2.832   3.734
 2573W        W70991  42.939  30.094   3.866
 2574W        W70992   5.836  11.800  11.084
 2575W        W70993  35.923  23.014  12.351
 2576W        W70994  26.628  21.707   0.849
 2577W        W70995  44.504  19.047  11.378
 2578W        W70996  41.986  35.066  11.062
 2579W        W70997  22.189   6.738   2.415
 2580W        W70998  19.663  13.319  13.010
 2581W        W70999   1.734  32.981   1.701
 2582W        W71000   3.229  32.010   2.783
 2583W        W71001   7.796  35.021   5.227
 2584W        W71002  29.134   5.402   0.397
 2585W        W71003   9.183  16.707  14.502
 2586W        W71004  20.064  22.222   0.829
 2587W        W71005  31.116   7.266   2.899
 2588W        W71006  12.621  40.804  13.459
 2589W        W71007  42.887  23.579   1.322
 2590W        W71008  44.478  23.603   0.733
 2591W        W71009  10.725  42.919  14.002
 2592W        W71010   4.848  31.117  14.305
 2593W        W71011  30.059  35.087   1.849
 2594W        W71012  28.937   9.236  12.474
 2595W        W71013  31.145  28.948  12.859
 2596W        W71014   0.251  19.766  11.481
 2597W        W71015  43.974  20.028  14.025
 2598W        W71016  44.983  20.559   2.254
 2599W        W71017  38.504  21.753  11.929
 2600W        W71018   0.932  18.658  12.829
 2601W        W71019  35.909  18.191  11.020
 2602W        W71020  36.439  13.721  10.578
 2603W        W71021  42.428  18.551   1.796
 2604W        W71022  24.190  12.316   4.192
 2605W        W71023  39.361   0.466  11.080
 2606W        W71024  26.975  21.756   1.743
 2607W        W71025  24.139  30.072   4.680
 2608W        W71026   6.291   2.748   3.307
 2609W        W71027  37.344  10.242  13.898
 2610W        W71028  25.138  44.453   3.712
 2611W        W71029  12.717  32.476   0.407
 2612W        W71030   7.776  14.214   3.836
 2613W        W71031  32.135   4.204   3.692
 2614W        W71032  20.630   0.257  14.943
 2615W        W71033  28.020  21.708  12.964
 2616W        W71034  12.820  20.149  13.897
 2617W        W71035  22.085   6.288   1.282
 2618W        W71036  44.984  35.420   3.209
 2619W        W71037  43.818  22.042   0.946
 2620W        W71038  27.460   9.708  13.308
 2621W        W71039  40.974  18.744   2.724
 2622W        W71040  38.480  32.440   0.408
 2623W        W71041  24.109  30.548  10.574
 2624W        W71042  30.087   1.456   4.205
 2625W        W71043   1.471  24.581  10.979
 2626W        W71044  18.243  34.990  14.329
 2627W        W71045  44.815  44.358   4.726
 2628W        W71046  20.259  28.628  11.490
 2629W        W71047   7.909   9.859   0.882
 2630W        W71048  32.434  40.304  14.025
 2631W        W71049  35.923  34.438   0.860
 2632W        W71050  19.131  24.686  11.934
 2633W        W71051   7.180   1.927  14.965
 2634W        W71052   0.877  30.543   4.226
 2635W        W71053  12.318  38.429   2.778
 2636W        W71054  28.151  35.462  14.918
 2637W        W71055  40.968  32.906   4.811
 2638W        W71056  14.760   1.903   3.199
 2639W        W71057  12.672  29.128   3.222
 2640W        W71058  42.930  14.605   5.166
 2641W        W71059  28.642  44.776   1.935
 2642W        W71060  23.626   6.719  14.510
 2643W        W71061  18.230  35.882  14.504
 2644W        W71062   6.740  33.625  14.292
 2645W        W71063  25.513  29.669   0.267
 2646W        W71064  38.931  18.672   3.231
 2647W        W71065  30.473  38.401   1.261
 2648W        W71066   7.715  12.809   4.828
 2649W        W71067  21.692  24.098   2.863
 2650W        W71068   0.855  41.004   4.747
 2651W        W71069  24.171  21.757  11.908
 2652W        W71070   0.275  44.888  10.573
 2653W        W71071  10.818  27.038   4.624
 2654W        W71072  39.405  11.332  14.419
 2655W        W71073  16.804  18.741  12.553
 2656W        W71074   4.833  25.673  14.364
 2657W        W71075  14.288  28.073   3.776
 2658W        W71076  24.117  11.858   1.396
 2659W        W71077   6.839  35.953  14.003
 2660W        W71078   6.885  36.572  12.444
 2661W        W71079  40.012   3.859   1.772
 2662W        W71080  14.180  39.894   2.195
 2663W        W71081  21.155   9.218  14.358
 2664W        W71082   3.940   3.894  14.954
 2665W        W71083  21.565  22.619   2.318
 2666W        W71084  25.481  18.710   5.301
 2667W        W71085  25.690  27.948  13.981
 2668W        W71086   3.303  35.954  10.634
 2669W        W71087   9.846  18.132   3.200
 2670W        W71088  31.097  22.009   3.292
 2671W        W71089  19.124   7.273   1.748
 2672W        W71090  12.253  11.187   4.740
 2673W        W71091   2.451  40.045   3.833
 2674W        W71092  42.501  16.187   0.949
 2675W        W71093  16.769  23.167  10.523
 2676W        W71094  30.075  37.080   1.918
 2677W        W71095  25.676  15.199  14.334
 2678W        W71096  10.245  11.211  14.362
 2679W        W71097  21.198  38.883   1.447
 2680W        W71098  24.189   5.918   3.205
 2681W        W71099   3.339   3.948  13.889
 2682W        W71100  41.031  22.011  14.870
 2683W        W71101  34.402   2.228  13.309
 2684W        W71102   5.909  33.394  12.891
 2685W        W71103   9.840   0.400  14.488
 2686W        W71104  12.274  40.025  14.790
 2687W        W71105  26.077  44.385  14.834
 2688W        W71106  30.008  30.085  10.408
 2689W        W71107  13.192   8.728   4.349
 2690W        W71108  14.116   0.461   2.690
 2691W        W71109  22.638  34.099  11.464
 2692W        W71110  34.910   5.211   1.898
 2693W        W71111   0.384   2.321  10.472
 2694W        W71112  43.900   9.318   2.279
 2695W        W71113   2.251  22.137   0.833
 2696W        W71114  20.261  14.748   5.313
 2697W        W71115  21.699  29.558   0.264
 2698W        W71116   6.852  36.443  11.467
 2699W        W71117  35.358  32.448  13.418
 2700W        W71118  40.326   0.825  10.498
 2701W        W71119  40.969  24.032  10.602
 2702W        W71120  24.083  42.331  11.498
 2703W        W71121  36.396  31.079   2.882
 2704W        W71122   5.247   9.203   3.666
 2705W        W71123   9.292  41.043   3.780
 2706W        W71124  34.610  43.972  14.491
 2707W        W71125  36.487  10.702   2.355
 2708W        W71126  43.367   7.902   1.889
 2709W        W71127  21.023   7.898   5.258
 2710W        W71128  37.953  11.159  11.543
 2711W        W71129  43.445  28.651   1.255
 2712W        W71130  42.982  42.332   4.304
 2713W        W71131   5.806  32.028   1.750
 2714W        W71132   4.806  17.152   4.325
 2715W        W71133  15.171  27.580  12.033
 2716W        W71134  37.958  23.180   3.682
 2717W        W71135   3.252  15.717   4.165
 2718W        W71136   8.184   7.787   3.635
 2719W        W71137  25.618  12.814   2.192
 2720W        W71138   3.234  38.459  13.457
 2721W        W71139  22.150   3.907   3.831
 2722W        W71140  23.094  14.680  14.842
 2723W        W71141  30.564  30.533  13.528
 2724W        W71142  16.079  21.627  12.988
 2725W        W71143  33.969   5.277   1.767
 2726W        W71144  42.866  12.138   0.387
 2727W        W71145   8.704  43.830   0.309
 2728W        W71146  25.107  22.599   0.768
 2729W        W71147   7.801  39.396   4.136
 2730W        W71148  41.885  41.944   2.809
 2731W        W71149  36.981  12.724   3.819
 2732W        W71150   3.834  11.778  12.551
 2733W        W71151  40.545  23.016   4.148
 2734W        W71152  43.509  38.544   5.752
 2735W        W71153  41.369  31.994   1.295
 2736W        W71154  38.077  13.688  12.090
 2737W        W71155  36.845  14.821   0.885
 2738W        W71156  31.452   8.377   4.756
 2739W        W71157  39.337  21.142   0.940
 2740W        W71158  32.135  42.477  13.903
 2741W        W71159   7.287  28.603   4.626
 2742W        W71160  16.216   6.827  10.590
 2743W        W71161  17.300   0.429  14.844
 2744W        W71162  21.026   5.920   4.146
 2745W        W71163  41.838  25.676  11.516
 2746W        W71164  17.715  39.059  13.309
 2747W        W71165  43.014  14.743   1.292
 2748W        W71166   2.301  16.112  14.020
 2749W        W71167  37.416  29.560  12.346
 2750W        W71168  15.117  25.989   2.843
 2751W        W71169   7.306  25.052  11.874
 2752W        W71170  24.061  19.270   0.830
 2753W        W71171  26.524  23.561  12.388
 2754W        W71172  29.452  34.477   2.241
 2755W        W71173   9.224  26.471  13.934
 2756W        W71174  26.593  30.510   4.192
 2757W        W71175  17.238  19.542  10.985
 2758W        W71176   0.976  17.181  10.157
 2759W        W71177  11.817  23.227  12.933
 2760W        W71178   9.771  42.288  12.439
 2761W        W71179  38.375  23.233   1.419
 2762W        W71180  32.630  33.034  11.077
 2763W        W71181   4.716  26.556   2.244
 2764W        W71182  33.991  35.459   0.351
 2765W        W71183  40.002  34.489  14.011
 2766W        W71184  22.147  12.172  12.857
 2767W        W71185   9.228  44.902  13.954
 2768W        W71186  12.752  12.238   0.858
 2769W        W71187  27.507  33.585  14.017
 2770W        W71188  38.855  38.929   2.208
 2771W        W71189  24.178  17.166   2.721
 2772W        W71190   3.351   6.777   2.393
 2773W        W71191   0.443  18.238   3.195
 2774W        W71192   7.771  19.733  11.968
 2775W        W71193  36.853  13.329   0.961
 2776W        W71194  42.934  15.615  14.324
 2777W        W71195   9.653  24.126  14.970
 2778W        W71196   0.395  34.542   1.805
 2779W        W71197  43.321   5.412   4.615
 2780W        W71198  28.937  37.356   3.189
 2781W        W71199   9.771   1.242  13.372
 2782W        W71200  44.340  26.564  13.981
 2783W        W71201  37.338   9.209  13.051
 2784W        W71202  35.005  13.792  11.500
 2785W        W71203   9.204  12.651  10.639
 2786W        W71204  44.365  24.099   3.301
 2787W        W71205  44.280  43.419   4.742
 2788W        W71206   1.317  27.088  11.937
 2789W        W71207   8.697  27.009  11.920
 2790W        W71208  34.041   9.374  13.885
 2791W        W71209  24.693  13.800  11.507
 2792W        W71210  18.254  32.988   3.175
 2793W        W71211   6.871  15.296   1.716
 2794W        W71212  31.122  15.156   2.852
 2795W        W71213  36.012  19.734   0.326
 2796W        W71214  43.854  27.677   2.195
 2797W        W71215   9.833   4.716  14.990
 2798W        W71216  42.920  25.978   1.822
 2799W        W71217  15.123  17.260   3.782
 2800W        W71218  10.241   5.196  11.903
 2801W        W71219  38.063  11.710   1.722
 2802W        W71220  22.218  14.668   3.715
 2803W        W71221  16.680  16.086  13.526
 2804W        W71222  24.033   4.891  14.471
 2805W        W71223   7.733   0.924  11.447
 2806W        W71224  44.402  28.981  14.766
 2807W        W71225  39.954  18.087  14.377
 2808W        W71226   1.256   2.257   2.755
 2809W        W71227   4.874  40.495  10.625
 2810W        W71228  31.050   0.986   2.236
 2811W        W71229  15.315  21.121  14.481
 2812W        W71230  30.066  43.893   1.387
 2813W        W71231  41.446   6.790  14.957
 2814W        W71232  42.921  24.104   0.256
 2815W        W71233  33.522   7.172  11.992
 2816W        W71234  25.193  13.607   1.933
 2817W        W71235   8.754  28.519   1.913
 2818W        W71236  42.030  39.006   9.593
 2819W        W71237  22.098   0.385   1.741
 2820W        W71238  27.134  11.185   4.129
 2821W        W71239  14.331  25.600   3.314
 2822W        W71240  44.797  42.402   2.817
 2823W        W71241  23.017  41.359  12.860
 2824W        W71242  25.114  35.070   0.442
 2825W        W71243  11.824   3.748   3.727
 2826W        W71244  14.189  27.156   3.235
 2827W        W71245  19.766  43.318  10.910
 2828W        W71246  26.519  20.239  13.382
 2829W        W71247  12.248  42.032   1.896
 2830W        W71248   9.832   6.426   0.426
 2831W        W71249  40.327  11.728  12.346
 2832W        W71250   8.246  28.586  12.915
 2833W        W71251  38.005  38.489  11.381
 2834W        W71252  33.607  41.854  13.364
 2835W        W71253  40.525   8.869   0.269
 2836W        W71254  16.586  13.703   0.478
 2837W        W71255   7.292  11.809  12.498
 2838W        W71256  12.798  28.668  10.906
 2839W        W71257  40.367  39.420   0.936
 2840W        W71258   6.729  19.067   0.398
 2841W        W71259   8.737  22.694  10.427
 2842W        W71260  33.990  18.593  11.505
 2843W        W71261   3.776  42.016   1.722
 2844W        W71262  19.732  31.929   4.224
 2845W        W71263  25.499  34.984   3.673
 2846W        W71264   6.797   0.368  14.514
 2847W        W71265  41.957  23.240  10.535
 2848W        W71266  14.329  36.500  11.890
 2849W        W71267   7.408  10.263   2.312
 2850W        W71268  18.723  27.598   2.861
 2851W        W71269  16.280  35.036   2.777
 2852W        W71270  19.231  20.571  13.974
 2853W        W71271   9.305  13.806  11.856
 2854W        W71272  16.318  41.884   1.388
 2855W        W71273  32.137  24.530  12.574
 2856W        W71274  39.912  20.658   2.788
 2857W        W71275  25.541   6.812   3.712
 2858W        W71276  30.527  17.660  11.393
 2859W        W71277  29.048   2.469   4.325
 2860W        W71278  23.526   9.379   0.856
 2861W        W71279  16.574  31.616   2.767
 2862W        W71280  30.110   4.412   1.873
 2863W        W71281   2.255  11.662   3.245
 2864W        W71282  16.130  14.779   3.736
 2865W        W71283  12.256  38.344  12.366
 2866W        W71284  19.705  22.660   3.811
 2867W        W71285  39.980   3.759   0.880
 2868W        W71286  18.194   1.802   2.235
 2869W        W71287  14.318   2.287  12.388
 2870W        W71288   9.237  42.294  13.534
 2871W        W71289  34.896  32.483   4.268
 2872W        W71290  40.349  39.411   0.382
 2873W        W71291  20.584   2.897   3.321
 2874W        W71292   3.909  40.804  14.802
 2875W        W71293  44.307   9.705  13.890
 2876W        W71294  28.591  42.312   3.768
 2877W        W71295  28.018  38.477   5.180
 2878W        W71296  39.023  44.838  10.112
 2879W        W71297   7.209   1.322  12.395
 2880W        W71298  19.608  35.408   3.637
 2881W        W71299  13.142  43.935   0.758
 2882W        W71300   5.736  28.054  11.928
 2883W        W71301  18.128  10.322  14.509
 2884W        W71302  32.899  44.920   1.785
 2885W        W71303   9.654  40.351  14.500
 2886W        W71304  14.142  36.359   0.259
 2887W        W71305  19.092  29.569   1.448
 2888W        W71306  29.141   9.849  12.044
 2889W        W71307   0.463   0.930   4.628
 2890W        W71308  16.216  27.564   1.782
 2891W        W71309  42.957  22.197  12.965
 2892W        W71310  12.338  44.828   0.468
 2893W        W71311  19.166  30.439  14.972
 2894W        W71312  25.599  18.605   0.422
 2895W        W71313  28.465  11.696  10.969
 2896W        W71314   2.388  28.637  13.856
 2897W        W71315  41.870  11.827   2.864
 2898W        W71316  11.822  30.512   5.263
 2899W        W71317  25.702  24.102   4.775
 2900W        W71318  25.048   1.463  13.482
 2901W        W71319  43.900   1.972   4.143
 2902W        W71320  25.051   1.479   3.327
 2903W        W71321   6.818  39.316   1.314
 2904W        W71322   3.441  37.354  12.928
 2905W        W71323  30.486  18.247   4.609
 2906W        W71324  20.055  44.893  13.055
 2907W        W71325  26.698  33.998   4.302
 2908W        W71326   8.772  30.950   5.142
 2909W        W71327  43.442  38.954  14.830
 2910W        W71328  19.695  10.206  11.493
 2911W        W71329  33.945   5.914   3.728
 2912W        W71330  15.111   3.953  10.488
 2913W        W71331  23.241  42.387   3.351
 2914W        W71332  20.123  10.306  14.902
 2915W        W71333  26.580  41.412   3.711
 2916W        W71334  39.943  43.515  10.962
 2917W        W71335   4.350  40.027   4.211
 2918W        W71336  22.230  31.149  14.376
 2919W        W71337  43.291  41.787  10.999
 2920W        W71338  26.054  33.916   3.839
 2921W        W71339  27.981   4.794   0.374
 2922W        W71340  15.204  31.601  12.857
 2923W        W71341  12.333   0.913  12.040
 2924W        W71342  31.126  22.558  14.951
 2925W        W71343  42.823   4.936   4.219
 2926W        W71344  33.609   1.334  10.018
 2927W        W71345   1.941  20.033   3.787
 2928W        W71346  29.511   5.230  12.943
 2929W        W71347  40.861   2.744  13.876
 2930W        W71348  20.705   2.424  10.506
 2931W        W71349  43.009  11.210  10.069
 2932W        W71350  36.043   2.907  12.039
 2933W        W71351  26.567  44.826   1.781
 2934W        W71352  12.847  14.688  11.058
 2935W        W71353  33.963  22.105  13.342
 2936W        W71354   3.884  25.532  11.452
 2937W        W71355   7.752  31.504   4.296
 2938W        W71356  12.291  27.166   2.255
 2939W        W71357  16.759  11.138  11.523
 2940W        W71358  19.575   5.688   0.256
 2941W        W71359   1.336  25.204  13.859
 2942W        W71360  36.440  25.555   0.349
 2943W        W71361  28.155   2.802   1.442
 2944W        W71362   8.872  20.602  13.830
 2945W        W71363  30.557  28.120   4.185
 2946W        W71364  20.719   6.773  14.831
 2947W        W71365  25.684   1.293  14.434
 2948W        W71366   5.291  20.736   2.825
 2949W        W71367  35.465  14.795   2.676
 2950W        W71368  30.948  16.116  12.460
 2951W        W71369  42.357  18.604  14.393
 2952W        W71370  29.161  23.616   2.419
 2953W        W71371  43.925  41.994   1.286
 2954W        W71372   0.361   8.194   4.122
 2955W        W71373   5.236  26.961  12.048
 2956W        W71374  34.900  27.054  10.610
 2957W        W71375  19.645  26.538  14.280
 2958W        W71376  18.673  16.241   4.727
 2959W        W71377  39.063   6.248   3.163
 2960W        W71378  16.109  18.230   3.831
 2961W        W71379  23.707   5.208   2.856
 2962W        W71380  22.730   3.827   0.355
 2963W        W71381  21.243  40.920   1.214
 2964W        W71382  40.354   4.909  13.830
 2965W        W71383  35.857  31.926   3.643
 2966W        W71384  27.953  24.611  12.552
 2967W        W71385  31.904   5.314   4.341
 2968W        W71386  24.165  43.380  11.090
 2969W        W71387  15.769   8.176  12.937
 2970W        W71388  15.255  29.158   2.307
 2971W        W71389  28.499  38.952  11.440
 2972W        W71390  22.009  23.649   5.239
 2973W        W71391   7.174  24.083   1.415
 2974W        W71392  22.017  38.413  13.803
 2975W        W71393  31.430  42.783   3.837
 2976W        W71394  20.135  18.588  10.967
 2977W        W71395  10.771  13.298   2.409
 2978W        W71396  12.331  33.515  14.368
 2979W        W71397   8.176  34.520  13.937
 2980W        W71398  11.320   9.662   1.282
 2981W        W71399   3.407  12.727  13.498
 2982W        W71400  30.621  11.626  12.461
 2983W        W71401   0.754  40.833   2.884
 2984W        W71402  33.122   3.808   1.935
 2985W        W71403  38.857  10.741  11.883
 2986W        W71404  10.852   2.229   4.295
 2987W        W71405  38.910  38.474  12.567
 2988W        W71406  12.680  12.333   2.764
 2989W        W71407  33.909  26.539  11.015
 2990W        W71408   2.330  35.479   2.763
 2991W        W71409  37.478  12.291  10.598
 2992W        W71410  40.340  23.115  11.431
 2993W        W71411  16.783  37.007  13.547
 2994W        W71412   6.712  24.182   0.932
 2995W        W71413  21.247  16.227   0.308
 2996W        W71414  36.534   9.655  11.887
 2997W        W71415  30.978  25.155  11.397
 2998W        W71416  14.332  14.704   3.758
 2999W        W71417   7.181  36.433  11.599
 3000W        W71418  41.035   6.750   2.221
 3001W        W71419  36.094  37.007  13.504
 3002W        W71420  20.175  44.957  11.939
 3003W        W71421  31.005  18.744   4.744
 3004W        W71422   5.374  16.782   4.681
 3005W        W71423  38.944   3.885  13.994
 3006W        W71424  35.489  26.058   4.640
 3007W        W71425  36.572   1.837   3.688
 3008W        W71426  26.093  32.055   2.879
 3009W        W71427  38.349   0.952   2.736
 3010W        W71428   3.351   7.315  10.046
 3011W        W71429  17.602  44.924   1.444
 3012W        W71430  10.757  32.108   0.914
 3013W        W71431  38.934   4.840  10.040
 3014W        W71432   6.247  34.612   3.306
 3015W        W71433  34.090   4.810   3.685
 3016W        W71434  19.712  18.219   3.238
 3017W        W71435  21.671   7.912  10.513
 3018W        W71436  28.562  37.420  11.024
 3019W        W71437  43.997  27.585  14.334
 3020W        W71438  18.730  25.710  10.553
 3021W        W71439  10.653  18.144   1.218
 3022W        W71440   9.203   4.312   0.264
 3023W        W71441   2.790   3.915   2.822
 3024W        W71442  21.063   2.838  13.825
 3025W        W71443  26.589  28.568  14.345
 3026W        W71444  32.908   6.785   3.197
 3027W        W71445  21.155  23.093  10.430
 3028W        W71446  37.901   5.831  11.091
 3029W        W71447  34.441  40.353  12.959
 3030W        W71448   4.351  10.375  13.358
 3031W        W71449  37.349  19.132   0.369
 3032W        W71450  35.981  37.036   2.313
 3033W        W71451  29.588  35.507  11.465
 3034W        W71452   2.855   9.691   0.894
 3035W        W71453  43.849  12.267  11.881
 3036W        W71454  17.290  26.594   0.843
 3037W        W71455  40.432  12.282  10.483
 3038W        W71456  25.469  22.079   1.357
 3039W        W71457  43.278  24.087   4.736
 3040W        W71458  43.971  38.339   1.804
 3041W        W71459  10.232  32.403  12.867
 3042W        W71460  44.309  20.252  13.033
 3043W        W71461  18.633  12.649   2.349
 3044W        W71462  30.542   9.720   4.123
 3045W        W71463   0.799   5.399  10.545
 3046W        W71464   3.229  39.458   3.741
 3047W        W71465  14.745   6.196   0.345
 3048W        W71466  36.975   4.335   1.907
 3049W        W71467  14.241  25.497  13.410
 3050W        W71468  31.505   6.759  13.979
 3051W        W71469   7.227   4.348  14.452
 3052W        W71470  24.077   6.422  13.337
 3053W        W71471   2.819  26.599  10.439
 3054W        W71472   7.178   3.248   4.797
 3055W        W71473   6.308   5.886  14.287
 3056W        W71474   0.270  13.670   2.850
 3057W        W71475  36.469   7.826  11.555
 3058W        W71476   2.446  28.011  14.785
 3059W        W71477   2.786  16.294   0.777
 3060W        W71478  18.761  11.358  14.450
 3061W        W71479  23.562  43.485   1.419
 3062W        W71480   7.209  19.253   4.144
 3063W        W71481   7.782  32.525  14.465
 3064W        W71482   6.276  34.570  11.469
 3065W        W71483  18.283  16.646   3.821
 3066W        W71484  30.986   1.357  14.786
 3067W        W71485  25.578  27.684  14.770
 3068W        W71486   8.690  42.966   2.800
 3069W        W71487  31.035  43.807   4.294
 3070W        W71488   6.316  16.176  12.917
 3071W        W71489  42.338  34.473   0.860
 3072W        W71490  26.061   2.451   4.349
 3073W        W71491  23.541  39.971   0.860
 3074W        W71492  34.425   8.708  13.525
 3075W        W71493  20.696   8.862  12.930
 3076W        W71494  11.862  27.545  10.895
 3077W        W71495  30.962  40.858  14.328
 3078W        W71496  36.518   6.271   3.270
 3079W        W71497  39.912  44.470   3.672
 3080W        W71498  17.162  12.321   2.196
 3081W        W71499  27.050  31.146  14.438
 3082W        W71500  12.663   9.775  12.871
 3083W        W71501  39.527  14.216  11.881
 3084W        W71502  14.340   8.886  11.979
 3085W        W71503  31.475  43.324  10.482
 3086W        W71504  42.431   5.865  11.038
 3087W        W71505  12.319  23.209   3.858
 3088W        W71506  22.084   4.739   1.800
 3089W        W71507  44.372  29.490  12.348
 3090W        W71508  17.623   1.271   0.355
 3091W        W71509  26.655  43.452  12.472
 3092W        W71510  41.833  12.129  13.975
 3093W        W71511  13.723  19.748  13.823
 3094W        W71512   8.800   0.959   3.633
 3095W        W71513  23.712  30.550   2.734
 3096W        W71514  41.016  36.576   0.421
 3097W        W71515  37.339   3.806  12.913
 3098W        W71516  16.254   8.801   3.777
 3099W        W71517  15.606  21.127   1.436
 3100W        W71518  12.781   9.815  10.904
 3101W        W71519  25.623  34.379  13.841
 3102W        W71520  29.167  18.784  14.974
 3103W        W71521   4.735  12.678   0.436
 3104W        W71522  42.901  39.547   4.333
 3105W        W71523  42.479  13.188   3.777
 3106W        W71524  12.645  30.535  11.530
 3107W        W71525   1.447  32.042  14.441
 3108W        W71526   4.261  10.865   2.333
 3109W        W71527  29.014  43.516  13.434
 3110W        W71528  32.139  12.254  13.431
 3111W        W71529   0.295  12.312   0.840
 3112W        W71530  13.816  15.653   5.203
 3113W        W71531  10.315  25.560  13.950
 3114W        W71532  44.272  14.786   2.242
 3115W        W71533  31.465  21.594  12.846
 3116W        W71534  25.033  22.725  13.926
 3117W        W71535  18.088  42.347   1.239
 3118W        W71536   0.306   7.846   4.248
 3119W        W71537  14.307  19.628   3.189
 3120W        W71538  18.546   7.718  13.527
 3121W        W71539  40.975  31.928  12.559
 3122W        W71540  22.698  18.093   3.846
 3123W        W71541  12.164  37.465  13.530
 3124W        W71542  10.265  11.239  10.911
 3125W        W71543  34.466  27.025  11.497
 3126W        W71544  34.879  35.437   0.377
 3127W        W71545  29.107  18.622  10.417
 3128W        W71546   4.264  38.405   3.748
 3129W        W71547   3.754  32.505  12.447
 3130W        W71548   0.881  26.660   1.866
 3131W        W71549  41.383  12.833   3.258
 3132W        W71550  17.242  21.241   4.640
 3133W        W71551  32.127  27.065   1.753
 3134W        W71552  16.198   8.297  13.488
 3135W        W71553  16.687  30.064   0.318
 3136W        W71554  30.435  41.986   4.326
 3137W        W71555  17.255   6.781   4.235
 3138W        W71556   8.726  21.758  11.407
 3139W        W71557  32.547  16.163   1.329
 3140W        W71558   4.923  33.592  14.340
 3141W        W71559  42.008  28.436  14.394
 3142W        W71560   4.721  37.405  13.457
 3143W        W71561   0.772   3.459   4.124
 3144W        W71562  28.591  23.133   0.857
 3145W        W71563   3.723  27.491  12.575
 3146W        W71564  20.735  44.336   2.771
 3147W        W71565   6.339   1.371   3.278
 3148W        W71566  34.380   1.312  14.329
 3149W        W71567  15.606   1.867   0.758
 3150W        W71568  13.684  29.172   3.274
 3151W        W71569  35.108   7.358   0.931
 3152W        W71570  14.151  44.917  12.847
 3153W        W71571  24.151  16.636  10.962
 3154W        W71572  40.488  43.445  13.031
 3155W        W71573  13.794  23.557  12.973
 3156W        W71574  23.242   5.199  11.545
 3157W        W71575   2.417  17.570  12.352
 3158W        W71576  14.291  29.054  10.979
 3159W        W71577  29.508  22.057  10.597
 3160W        W71578  22.242  27.600  12.080
 3161W        W71579  30.961  39.416   2.344
 3162W        W71580   9.721  31.122  13.019
 3163W        W71581  13.305  32.615  13.461
 3164W        W71582  30.415  22.096   3.749
 3165W        W71583  16.780  19.041   2.296
 3166W        W71584  15.261  13.693   4.300
 3167W        W71585  43.982  41.989   0.244
 3168W        W71586   3.737  38.541   1.896
 3169W        W71587  20.181  19.768   0.483
 3170W        W71588  42.854  26.206  12.344
 3171W        W71589  23.628  34.481  10.551
 3172W        W71590  26.636  43.783  13.950
 3173W        W71591   7.389  23.117  14.952
 3174W        W71592   5.790  40.951   2.308
 3175W        W71593  44.792  36.593   0.316
 3176W        W71594  34.444  23.725   0.731
 3177W        W71595  26.094  16.251  11.523
 3178W        W71596   2.308  19.210  12.541
 3179W        W71597  16.203   3.954  12.400
 3180W        W71598  22.713  24.705   3.783
 3181W        W71599   5.274  34.111  13.033
 3182W        W71600  23.605  14.765   2.715
 3183W        W71601   2.323   7.894   2.378
 3184W        W71602  13.165  10.732  14.953
 3185W        W71603   8.884  17.796   1.729
 3186W        W71604  40.371  30.629   2.805
 3187W        W71605  27.479   8.177   1.919
 3188W        W71606  35.482  24.549   0.297
 3189W        W71607   9.367  38.941  10.489
 3190W        W71608   3.918  12.612   3.261
 3191W        W71609  37.978  10.367   2.670
 3192W        W71610   8.763  39.346   1.375
 3193W        W71611  11.167  43.309  14.898
 3194W        W71612  31.941  21.546  13.049
 3195W        W71613   8.170   9.758  14.846
 3196W        W71614  18.258  14.682   1.708
 3197W        W71615  17.260   6.428  13.798
 3198W        W71616  11.634   7.706  10.002
 3199W        W71617  19.543  16.587  13.523
 3200W        W71618  36.386   6.850   4.177
 3201W        W71619  42.402  25.978  11.594
 3202W        W71620  38.966  19.631   0.382
 3203W        W71621  28.642  37.005   4.802
 3204W        W71622  27.567  12.123  12.570
 3205W        W71623  16.253   2.302  10.408
 3206W        W71624   7.240  41.307   1.720
 3207W        W71625  26.015  16.244   0.469
 3208W        W71626   7.352  39.871  11.395
 3209W        W71627   4.335   9.247  10.486
 3210W        W71628   6.827  25.679   4.222
 3211W        W71629  31.135   9.300  11.460
 3212W        W71630  12.322  12.298  14.308
 3213W        W71631   7.790  22.725   1.386
 3214W        W71632  12.760  39.031   2.264
 3215W        W71633  18.652  36.077   3.805
 3216W        W71634   8.195  28.451   0.381
 3217W        W71635  10.312  39.985  13.902
 3218W        W71636  22.248   9.210   4.250
 3219W        W71637   9.852   1.914   4.236
 3220W        W71638  35.409  29.546  10.436
 3221W        W71639  24.717  16.670   0.842
 3222W        W71640   9.373  27.554   0.416
 3223W        W71641  42.402  13.694   5.238
 3224W        W71642  41.820  31.988   2.315
 3225W        W71643  24.073  34.446  13.061
 3226W        W71644  15.323  33.983  10.908
 3227W        W71645  27.030  22.664  13.500
 3228W        W71646  36.545  39.962  14.866
 3229W        W71647  11.708  38.358   4.700
 3230W        W71648  39.447  42.304  11.068
 3231W        W71649  27.950  27.026  14.460
 3232W        W71650  20.611  42.829   1.733
 3233W        W71651  36.401  29.101  14.362
 3234W        W71652  16.191  27.964  13.834
 3235W        W71653  35.996  22.172  13.382
 3236W        W71654  10.227   2.835  13.976
 3237W        W71655  27.464  27.660  13.886
 3238W        W71656  39.459   2.950  13.822
 3239W        W71657  16.093  42.488   3.152
 3240W        W71658  29.591  37.021   3.836
 3241W        W71659  40.049   2.778  14.847
 3242W        W71660   4.431  17.147   0.907
 3243W        W71661   3.777  42.858  12.396
 3244W        W71662  22.525  19.575  12.393
 3245W        W71663  31.053  34.511  11.609
 3246W        W71664  28.042  39.558   0.430
 3247W        W71665  23.157   8.818  14.291
 3248W        W71666  30.433  22.624  10.988
 3249W        W71667  30.596  19.678  10.637
 3250W        W71668  42.471   8.167   0.749
 3251W        W71669  27.019  44.500  13.341
 3252W        W71670  18.252  27.512  13.976
 3253W        W71671  10.680  40.936   1.409
 3254W        W71672  13.715  17.622   4.838
 3255W        W71673  31.597  11.720  14.361
 3256W        W71674  15.290  17.703  12.946
 3257W        W71675  18.697   3.327   1.716
 3258W        W71676  19.646  23.178  13.960
 3259W        W71677  18.758  23.090  11.057
 3260W        W71678  42.924   7.892   0.873
 3261W        W71679  25.070  16.223  10.499
 3262W        W71680  20.177  13.216   3.331
 3263W        W71681  13.322   7.879  10.460
 3264W        W71682  29.429  22.637  11.380
 3265W        W71683  17.723  20.090   3.710
 3266W        W71684  24.479  36.582   2.742
 3267W        W71685  22.045  18.709  13.990
 3268W        W71686   5.708  41.448  12.459
 3269W        W71687  29.067  15.231  14.274
 3270W        W71688  22.179  24.148   5.583
 3271W        W71689  35.422  41.837  11.589
 3272W        W71690  34.086   1.966   4.707
 3273W        W71691  31.552  18.142   1.826
 3274W        W71692   1.877  34.887  11.388
 3275W        W71693  35.546  40.952   1.327
 3276W        W71694  33.440  34.381  14.277
 3277W        W71695  25.625  15.634  13.887
 3278W        W71696  25.218  13.346   4.673
 3279W        W71697  37.017  18.696  14.797
 3280W        W71698   9.302  30.427  12.033
 3281W        W71699   6.716  38.564   2.296
 3282W        W71700  39.874  16.576   4.288
 3283W        W71701   7.796   1.420  13.814
 3284W        W71702  44.827  37.359   1.816
 3285W        W71703   3.321   9.156  14.826
 3286W        W71704  19.556  13.179  13.331
 3287W        W71705  42.286   3.436   0.900
 3288W        W71706  29.978  14.101   3.297
 3289W        W71707  42.854  43.379  14.027
 3290W        W71708  22.715   2.311  12.363
 3291W        W71709  14.743  35.911  12.037
 3292W        W71710  24.979  19.689  11.006
 3293W        W71711  13.350  21.057   2.233
 3294W        W71712   8.406  34.991  14.796
 3295W        W71713   0.844  37.550  10.599
 3296W        W71714  20.717  32.478   4.127
 3297W        W71715  25.647  24.528   1.293
 3298W        W71716   5.885  41.878  12.899
 3299W        W71717  39.871   2.392   3.766
 3300W        W71718  44.329  32.409  10.555
 3301W        W71719  23.997  18.562   1.743
 3302W        W71720  26.086  24.677  12.921
 3303W        W71721  16.086  27.570  12.831
 3304W        W71722  38.409  32.530   3.671
 3305W        W71723   6.684  12.850  13.967
 3306W        W71724  20.213  37.917   0.740
 3307W        W71725  40.862  21.563  12.093
 3308W        W71726   4.791  17.592  14.475
 3309W        W71727  44.463  33.904  14.419
 3310W        W71728  30.438  37.476  14.924
 3311W        W71729   1.963  25.187   2.205
 3312W        W71730  26.527  21.160   5.256
 3313W        W71731  35.575  29.428   0.925
 3314W        W71732  30.476   2.937  12.501
 3315W        W71733  29.598  26.563  12.374
 3316W        W71734  11.217   2.431  13.790
 3317W        W71735  22.739   2.765   0.394
 3318W        W71736   0.933  41.349  10.145
 3319W        W71737  16.244   9.382   1.793
 3320W        W71738   2.379  44.958  10.532
 3321W        W71739  44.973   2.829  13.927
 3322W        W71740  10.680  39.486  12.006
 3323W        W71741  16.709   1.458   4.175
 3324W        W71742  22.195  38.007  10.462
 3325W        W71743  17.290  28.444   0.781
 3326W        W71744  22.744  12.197  12.832
 3327W        W71745  10.831  24.645   0.352
 3328W        W71746  42.903  10.843   2.854
 3329W        W71747   7.227  31.089  13.450
 3330W        W71748  33.998  21.261   1.361
 3331W        W71749  25.139  10.745  11.992
 3332W        W71750   7.742   4.779  11.892
 3333W        W71751  11.736  25.570   3.635
 3334W        W71752  30.634  43.006   2.753
 3335W        W71753  13.315   6.704   2.299
 3336W        W71754   2.298  44.286  12.949
 3337W        W71755   5.687  23.497   4.213
 3338W        W71756  28.014  13.802   4.317
 3339W        W71757  41.832  31.646   2.206
 3340W        W71758   4.416  13.800  12.086
 3341W        W71759   6.805   4.706  10.933
 3342W        W71760  20.688  41.415  10.961
 3343W        W71761  18.292  30.520  14.344
 3344W        W71762  23.595   6.287   0.790
 3345W        W71763  16.722  34.380  13.411
 3346W        W71764  43.355  30.492  11.855
 3347W        W71765  11.684  20.042   1.745
 3348W        W71766  19.689   3.293   0.940
 3349W        W71767  42.005  44.457   4.762
 3350W        W71768   8.891  19.207   3.213
 3351W        W71769  30.942  30.150  10.599
 3352W        W71770  15.241  29.102   0.848
 3353W        W71771  11.347  11.220   2.414
 3354W        W71772  40.939  35.511   4.141
 3355W        W71773  34.026  41.837  12.561
 3356W        W71774  34.552   7.357   2.704
 3357W        W71775  18.083  13.193  12.491
 3358W        W71776   6.281   8.825   4.766
 3359W        W71777  14.190  41.013   0.468
 3360W        W71778  36.456  25.971   4.257
 3361W        W71779   7.180  19.177   3.173
 3362W        W71780  27.528  19.169  13.867
 3363W        W71781  25.056  20.251   0.783
 3364W        W71782   4.299  24.504  14.016
 3365W        W71783   3.223  20.655  12.904
 3366W        W71784  22.249  34.462  14.288
 3367W        W71785  33.558  24.148  12.360
 3368W        W71786  18.662  27.059   4.259
 3369W        W71787  26.686   0.376   0.775
 3370W        W71788  37.400  12.618  11.995
 3371W        W71789  10.868  44.881   3.229
 3372W        W71790  42.474   4.920  10.543
 3373W        W71791  43.772  23.620   3.826
 3374W        W71792  39.464  42.026   0.884
 3375W        W71793  40.799  26.115   4.602
 3376W        W71794   8.875  25.150   4.750
 3377W        W71795  15.732   4.292  11.005
 3378W        W71796  28.082  32.403   3.770
 3379W        W71797  23.552  36.059   3.302
 3380W        W71798   5.865   2.886  10.941
 3381W        W71799  14.223  40.021  13.331
 3382W        W71800  17.764  20.168  10.477
 3383W        W71801  38.384  33.461   4.705
 3384W        W71802   0.488  17.301  14.893
 3385W        W71803  36.035  14.766  12.402
 3386W        W71804   4.318  30.517  14.395
 3387W        W71805  14.161  22.124  13.042
 3388W        W71806  28.989  22.512   1.866
 3389W        W71807  32.982   0.985   0.902
 3390W        W71808  33.626  38.002  13.849
 3391W        W71809   2.336  21.151  12.493
 3392W        W71810  31.083  19.267   1.362
 3393W        W71811   0.337   6.279   3.669
 3394W        W71812  44.355   1.823   4.717
 3395W        W71813  19.754   8.822  13.395
 3396W        W71814   7.205   7.703   3.691
 3397W        W71815  27.169  35.070  14.403
 3398W        W71816  10.312  23.101  13.979
 3399W        W71817   0.744  30.109  14.489
 3400W        W71818  15.262  11.202  14.763
 3401W        W71819  20.188  28.619   1.395
 3402W        W71820   3.301  20.694  12.543
 3403W        W71821  34.406   5.335   0.409
 3404W        W71822  31.980   2.838  12.512
 3405W        W71823  23.039   2.340  12.355
 3406W        W71824  43.458  24.500  13.963
 3407W        W71825   6.192   5.878  13.391
 3408W        W71826  34.985  22.093   1.364
 3409W        W71827  31.465  27.197   0.328
 3410W        W71828  42.907  13.148  11.120
 3411W        W71829  17.682  23.516   1.263
 3412W        W71830  29.445  31.515  14.907
 3413W        W71831  29.597  29.646   5.207
 3414W        W71832  25.575   3.380  11.864
 3415W        W71833  15.113  42.849   4.248
 3416W        W71834  32.499  28.546   4.815
 3417W        W71835  23.095  26.655  14.983
 3418W        W71836  28.488   3.946  12.954
 3419W        W71837  25.473   0.402  13.502
 3420W        W71838  27.642  31.904  12.389
 3421W        W71839   6.840  40.523  13.400
 3422W        W71840  14.595  26.568  14.774
 3423W        W71841  32.896  29.940   3.798
 3424W        W71842  38.341  22.602  10.427
 3425W        W71843   1.908  40.952  14.825
 3426W        W71844  37.849  15.792   4.615
 3427W        W71845  23.195  30.158   1.934
 3428W        W71846   3.898   7.192  12.969
 3429W        W71847  14.163  38.401   1.838
 3430W        W71848  34.417  21.037   3.331
 3431W        W71849  28.576  16.316   4.769
 3432W        W71850   3.423  25.192   1.733
 3433W        W71851   5.731  13.130   1.792
 3434W        W71852  19.693  31.498   1.408
 3435W        W71853   3.919  13.189   1.330
 3436W        W71854  14.716   7.807   4.795
 3437W        W71855  35.590   4.406   2.369
 3438W        W71856  27.624  11.194   2.372
 3439W        W71857   9.751  39.033   2.381
 3440W        W71858   1.445  37.866   4.256
 3441W        W71859   8.279   0.766   2.679
 3442W        W71860   4.846  42.356   1.240
 3443W        W71861  29.965   6.845   3.240
 3444W        W71862  39.404  35.862   0.762
 3445W        W71863   2.434  36.423  14.468
 3446W        W71864  24.053  15.587  14.944
 3447W        W71865  20.211   6.210   2.351
 3448W        W71866   1.425  44.836   4.179
 3449W        W71867  23.514  36.872  13.008
 3450W        W71868  29.616  12.802   4.800
 3451W        W71869  33.533  21.584  14.472
 3452W        W71870  44.869  25.088  12.557
 3453W        W71871   3.222  28.462  11.062
 3454W        W71872  30.608  33.422  12.388
 3455W        W71873   6.828  44.351  11.033
 3456W        W71874  40.821  31.011  11.474
 3457W        W71875  30.514  44.976  12.481
 3458W        W71876  41.974  36.012  13.906
 3459W        W71877  29.567   0.922  10.584
 3460W        W71878  21.218  26.120   9.658
 3461W        W71879  19.183   4.254   1.349
 3462W        W71880  41.414  25.609   0.309
 3463W        W71881  19.766  33.557  10.525
 3464W        W71882  35.048   8.183  11.551
 3465W        W71883   8.236  14.755   3.849
 3466W        W71884  36.584  21.711  13.534
 3467W        W71885  41.423  10.191   2.265
 3468W        W71886  10.667  16.599   3.642
 3469W        W71887  22.214  18.584  11.597
 3470W        W71888  11.191  22.723   1.418
 3471W        W71889  27.538  44.815   3.278
 3472W        W71890  26.131  24.712  13.902
 3473W        W71891  34.599  20.650   2.249
 3474W        W71892  32.007  44.281   2.866
 3475W        W71893  10.643  17.143   2.291
 3476W        W71894  43.941  17.267  10.572
 3477W        W71895  22.610   3.310  11.053
 3478W        W71896  13.204  25.014   3.790
 3479W        W71897   6.285  38.527  11.440
 3480W        W71898  34.435   9.869   0.910
 3481W        W71899  38.954  24.487   1.738
 3482W        W71900  21.204  16.134  14.380
 3483W        W71901   3.231   8.235   2.360
 3484W        W71902   1.799  41.834  10.604
 3485W        W71903   0.842  16.077  12.858
 3486W        W71904   6.828  33.994  13.539
 3487W        W71905  34.412   6.776   2.312
 3488W        W71906  13.783  26.692  11.036
 3489W        W71907   3.737  40.001   0.932
 3490W        W71908  33.025  36.401   2.256
 3491W        W71909  23.730  34.896  10.630
 3492W        W71910  16.228  33.436   1.368
 3493W        W71911  13.155  21.636  10.908
 3494W        W71912  41.940  38.551  12.996
 3495W        W71913  33.457  19.066  11.580
 3496W        W71914  43.514  17.293   1.700
 3497W        W71915  11.167  35.964  11.001
 3498W        W71916   5.229   5.379   4.164
 3499W        W71917  11.729   1.871   4.181
 3500W        W71918   0.444  20.590   4.131
 3501W        W71919   7.909  23.104   0.810
 3502W        W71920   2.251  26.481  12.051
 3503W        W71921   3.845   1.817   1.914
 3504W        W71922  22.013  22.080  12.452
 3505W        W71923  33.524  38.411  11.107
 3506W        W71924  43.296  42.351  11.537
 3507W        W71925   4.897  14.136   2.768
 3508W        W71926  25.986  44.285   1.756
 3509W        W71927  19.732  42.290  13.363
 3510W        W71928  14.809  29.989   1.284
 3511W        W71929  16.262  31.928  12.556
 3512W        W71930  28.482  23.152   4.659
 3513W        W71931  20.107  41.039   0.280
 3514W        W71932   9.761  13.675  11.948
 3515W        W71933  35.982  25.167  14.337
 3516W        W71934  17.083  44.427  13.456
 3517W        W71935  14.141  20.726  12.882
 3518W        W71936  35.853   1.480  12.373
 3519W        W71937  44.484  25.144   1.849
 3520W        W71938  30.102  42.452   4.701
 3521W        W71939  28.636  42.952  13.456
 3522W        W71940  11.633  13.791  11.523
 3523W        W71941  20.263  20.619  12.428
 3524W        W71942  31.437  13.296   0.284
 3525W        W71943  29.524   2.726   1.346
 3526W        W71944  14.164  42.971  12.371
 3527W        W71945  38.068  18.693  11.901
 3528W        W71946  33.419  29.633   1.263
 3529W        W71947  42.823  43.334  11.993
 3530W        W71948  36.078  38.457  11.013
 3531W        W71949  36.417   4.710   1.308
 3532W        W71950  35.370  28.144  12.433
 3533W        W71951  31.980   7.783   1.434
 3534W        W71952   0.800  24.173   1.288
 3535W        W71953  30.139   7.772   3.723
 3536W        W71954   2.315  44.336  12.581
 3537W        W71955   2.827  10.154  10.434
 3538W        W71956  26.149  39.032  10.602
 3539W        W71957   6.255   1.429   1.904
 3540W        W71958  12.617  25.646   4.332
 3541W        W71959  18.050  16.788   4.698
 3542W        W71960  26.550  26.197   1.922
 3543W        W71961   9.691   9.201  14.774
 3544W        W71962  19.285  22.728  12.828
 3545W        W71963  14.286  24.031   2.760
 3546W        W71964  34.105  15.254   4.693
 3547W        W71965  42.847  42.391   0.958
 3548W        W71966  11.248  11.731   2.761
 3549W        W71967   7.246   4.809  14.849
 3550W        W71968   2.741   1.971  12.507
 3551W        W71969  11.819  36.030   3.734
 3552W        W71970  32.414  25.509   0.962
 3553W        W71971   9.793   1.276   2.868
 3554W        W71972  27.071  42.865   0.408
 3555W        W71973   9.160  10.658   1.794
 3556W        W71974   8.219  12.737  10.419
 3557W        W71975  42.859   3.327   4.619
 3558W        W71976  36.519  18.166  14.331
 3559W        W71977  23.605  31.623   4.706
 3560W        W71978   4.231  36.404   2.419
 3561W        W71979  19.138  19.133  13.364
 3562W        W71980   6.360  20.645  10.950
 3563W        W71981  31.903  39.458   4.315
 3564W        W71982   0.793  25.514  10.472
 3565W        W71983  40.861  31.086  11.939
 3566W        W71984  43.918  31.150   0.787
 3567W        W71985  37.073  24.130   0.451
 3568W        W71986  30.544  43.460   4.262
 3569W        W71987   6.683  27.168  10.892
 3570W        W71988  28.116  32.552   2.278
 3571W        W71989  12.816  32.496  13.336
 3572W        W71990  40.034  44.299   0.957
 3573W        W71991  17.215   4.403   5.218
 3574W        W71992   0.317   9.802  12.845
 3575W        W71993  24.574  11.660  10.594
 3576W        W71994  22.028  43.911  12.965
 3577W        W71995  30.029  13.147  12.516
 3578W        W71996  13.277  34.372  13.495
 3579W        W71997  13.812  23.228  13.394
 3580W        W71998  35.569   1.322   0.850
 3581W        W71999  11.733  22.029   4.166
 3582W        W72000  39.836  19.221   1.340
 3583W        W72001  11.732  29.015  13.837
 3584W        W72002   8.794  16.074   4.656
 3585W        W72003  30.551   2.859   2.359
 3586W        W72004  16.572  14.143  11.109
 3587W        W72005  44.832  38.073   3.812
 3588W        W72006  28.957  19.685  10.414
 3589W        W72007   5.841  12.333   0.351
 3590W        W72008  33.381   8.284  14.396
 3591W        W72009  31.462  26.584   2.751
 3592W        W72010  30.523  25.001  11.455
 3593W        W72011  35.960  25.005  10.582
 3594W        W72012  42.424  12.274  10.620
 3595W        W72013  26.683   2.341   2.768
 3596W        W72014   9.233  36.441   2.313
 3597W        W72015  16.096  30.634  14.010
 3598W        W72016  16.616  21.160   2.399
 3599W        W72017  41.820  31.038  12.018
 3600W        W72018  16.646  31.922  12.917
 3601W        W72019  42.863   8.404  11.057
 3602W        W72020  27.626  10.373  11.872
 3603W        W72021   7.848  19.219   0.822
 3604W        W72022  18.617   7.812  14.411
 3605W        W72023   5.269  28.139   2.763
 3606W        W72024  14.314  25.489  10.435
 3607W        W72025  33.991  26.154  11.004
 3608W        W72026  18.180   1.437  13.897
 3609W        W72027  16.722   2.935  12.410
 3610W        W72028  19.637  16.118   2.749
 3611W        W72029  27.629  14.739   2.674
 3612W        W72030   2.357  39.479   4.258
 3613W        W72031  10.806   8.371   3.224
 3614W        W72032  14.644  19.566  14.375
 3615W        W72033  32.587  30.592  11.076
 3616W        W72034   1.276  11.237   1.279
 3617W        W72035   3.817  44.483  13.947
 3618W        W72036  16.617  23.073   3.665
 3619W        W72037  31.034  25.130  10.002
 3620W        W72038  14.658  33.960   3.794
 3621W        W72039  33.123  32.034  11.545
 3622W        W72040  21.093  12.695   3.639
 3623W        W72041  26.566   5.875   2.683
 3624W        W72042  10.260  33.877   4.309
 3625W        W72043  34.595   9.345   1.694
 3626W        W72044  24.556  20.625   1.834
 3627W        W72045  31.493  14.763  11.008
 3628W        W72046   1.817  29.660  12.391
 3629W        W72047  15.205   1.833   2.778
 3630W        W72048  11.846  21.534   3.835
 3631W        W72049   1.451  20.086   4.647
 3632W        W72050   4.400  26.022  14.423
 3633W        W72051  42.440  40.370   0.422
 3634W        W72052  34.444   1.938  12.915
 3635W        W72053  14.294  37.876   3.672
 3636W        W72054   5.857  19.172   3.856
 3637W        W72055  15.770  21.145   5.137
 3638W        W72056  44.489  13.757   4.149
 3639W        W72057  23.703  42.415  13.452
 3640W        W72058   8.788  38.826   4.316
 3641W        W72059  23.066  12.800  10.888
 3642W        W72060  12.640  40.848   4.617
 3643W        W72061  44.290  25.015  10.479
 3644W        W72062   1.338  41.959  11.499
 3645W        W72063   3.323  44.797   1.365
 3646W        W72064  24.045  33.961  11.080
 3647W        W72065  37.490  43.493   3.261
 3648W        W72066  23.593  17.627  11.069
 3649W        W72067  12.642  31.599   3.750
 3650W        W72068  24.521  37.463  14.883
 3651W        W72069  36.403  40.349  10.912
 3652W        W72070  23.679  39.993  11.487
 3653W        W72071  44.891  16.084  11.584
 3654W        W72072   8.666  29.468  11.605
 3655W        W72073  26.656   4.299  10.525
 3656W        W72074  30.132  10.722   3.170
 3657W        W72075  34.062   2.890   4.738
 3658W        W72076  34.450   6.791  14.433
 3659W        W72077  21.065  27.528  14.007
 3660W        W72078  44.995  13.330   3.696
 3661W        W72079  31.995  29.553   3.733
 3662W        W72080  28.615   3.873   1.777
 3663W        W72081  29.610  42.309  12.046
 3664W        W72082   4.212  15.143  13.493
 3665W        W72083  24.180   5.212   1.904
 3666W        W72084  35.016  21.178   4.336
 3667W        W72085  28.166  29.619  14.374
 3668W        W72086  13.794  16.687  10.950
 3669W        W72087  26.209  40.960  11.061
 3670W        W72088   6.913  28.953  14.949
 3671W        W72089  39.852  33.599   0.455
 3672W        W72090  23.213  24.994  13.940
 3673W        W72091  20.528  37.072   1.718
 3674W        W72092  25.559   9.282  12.527
 3675W        W72093  16.080  37.497  14.835
 3676W        W72094  19.560  25.029  10.454
 3677W        W72095  13.271  34.600  10.917
 3678W        W72096  14.328  26.023   2.361
 3679W        W72097  34.381  11.684  14.875
 3680W        W72098  23.121  21.018   0.829
 3681W        W72099   1.770  18.118  13.347
 3682W        W72100   7.254  27.970   0.730
 3683W        W72101  36.393   1.814   2.862
 3684W        W72102  36.535  39.906   5.170
 3685W        W72103  35.100  29.102   2.818
 3686W        W72104   2.417  26.645  11.061
 3687W        W72105   6.857  18.283   2.386
 3688W        W72106  37.061   4.293  13.923
 3689W        W72107   3.393  11.826  11.988
 3690W        W72108  43.446   7.786   4.662
 3691W        W72109  12.328  39.540   0.892
 3692W        W72110  44.844  38.355   2.662
 3693W        W72111   0.799   0.951   5.090
 3694W        W72112  34.897  16.146   0.365
 3695W        W72113  15.593  15.721  14.961
 3696W        W72114  26.630   2.814   1.366
 3697W        W72115  19.701  43.871  11.424
 3698W        W72116  35.596  17.072   3.746
 3699W        W72117  10.808  28.112  12.970
 3700W        W72118  36.457  12.327  11.988
 3701W        W72119  11.657   1.957   4.711
 3702W        W72120  27.190  17.155   3.709
 3703W        W72121   3.875  34.049  12.489
 3704W        W72122  29.604  19.666  13.520
 3705W        W72123   3.730   5.301  13.045
 3706W        W72124   7.275  36.924   4.706
 3707W        W72125   6.910  28.072  10.588
 3708W        W72126  13.323   7.353  14.963
 3709W        W72127  42.423  35.008  14.776
 3710W        W72128  33.085  28.602  13.313
 3711W        W72129   1.267  13.345   4.748
 3712W        W72130  11.337  44.800   1.284
 3713W        W72131  18.728   7.689  11.883
 3714W        W72132  42.418  12.724   4.202
 3715W        W72133  21.574  42.412   3.822
 3716W        W72134  19.060  23.686   4.827
 3717W        W72135  30.106  26.986  13.448
 3718W        W72136   9.182   0.424  12.968
 3719W        W72137  14.139  13.131   1.325
 3720W        W72138  44.962  21.711   9.636
 3721W        W72139  29.601  14.238  13.448
 3722W        W72140  42.933  42.874   2.822
 3723W        W72141   9.760  42.888   2.278
 3724W        W72142  20.631  29.933  10.958
 3725W        W72143  11.227  19.702  11.407
 3726W        W72144  31.054  31.485  10.498
 3727W        W72145  15.741  44.433   3.864
 3728W        W72146  28.509   9.284  12.091
 3729W        W72147  22.689  26.578  13.812
 3730W        W72148  12.141   5.436   0.967
 3731W        W72149  27.688  34.596  11.001
 3732W        W72150   9.181  31.461  11.423
 3733W        W72151  12.277  35.452   2.368
 3734W        W72152  37.424  15.767   3.785
 3735W        W72153   7.286  26.664  10.956
 3736W        W72154  39.512  30.622  12.010
 3737W        W72155  44.380  17.602   2.277
 3738W        W72156  23.988  40.021  10.453
 3739W        W72157  17.280  24.656  11.979
 3740W        W72158  40.411  43.766   4.808
 3741W        W72159  26.117   8.739   3.343
 3742W        W72160  19.217  35.508  11.962
 3743W        W72161  22.643  26.649   2.684
 3744W        W72162  27.497   0.908  14.387
 3745W        W72163  17.281  26.952  11.456
 3746W        W72164   4.880  16.223  10.006
 3747W        W72165  31.544  24.014   1.364
 3748W        W72166  41.434  33.570   0.851
 3749W        W72167   4.403  30.960   0.441
 3750W        W72168  15.207  34.538  12.917
 3751W        W72169   4.870  35.900   0.745
 3752W        W72170   0.903  29.129   1.709
 3753W        W72171  33.410  26.054  13.481
 3754W        W72172  10.775  26.551  14.814
 3755W        W72173  34.460  24.054  12.521
 3756W        W72174  12.739  40.923  12.416
 3757W        W72175  14.140  43.437  12.423
 3758W        W72176  33.887  29.625   2.373
 3759W        W72177  38.445  34.558  11.966
 3760W        W72178  16.080   7.704  13.472
 3761W        W72179  28.044   0.391  10.541
 3762W        W72180  33.464  22.527   2.232
 3763W        W72181  41.373   4.882  10.947
 3764W        W72182   5.339  26.123  14.388
 3765W        W72183  34.891  36.073   0.311
 3766W        W72184  37.495  28.524   0.350
 3767W        W72185  36.060  23.040  13.830
 3768W        W72186   6.732  21.526  13.828
 3769W        W72187   4.703   4.320  12.446
 3770W        W72188  42.837  29.532   0.318
 3771W        W72189  10.714  20.227  12.890
 3772W        W72190   0.430  24.171  14.927
 3773W        W72191  17.258   5.727   4.353
 3774W        W72192  29.060  22.669   2.320
 3775W        W72193  34.932  23.167  13.960
 3776W        W72194   3.800  29.171   3.727
 3777W        W72195  41.989  18.052   0.829
 3778W        W72196  41.923  33.069   0.412
 3779W        W72197  15.315  29.162   1.787
 3780W        W72198   1.899  35.596   3.731
 3781W        W72199   9.757   9.721  10.897
 3782W        W72200  31.111  22.999   1.771
 3783W        W72201   4.754   5.430  11.533
 3784W        W72202  24.074  13.629  13.370
 3785W        W72203  10.179   4.248   4.201
 3786W        W72204  30.616  34.555  14.853
 3787W        W72205  21.680  14.124   4.707
 3788W        W72206  38.550  42.996   0.454
 3789W        W72207   0.452   3.415  11.034
 3790W        W72208  34.438  33.531   4.717
 3791W        W72209   9.162  33.610  11.870
 3792W        W72210   5.353  29.968   0.376
 3793W        W72211  20.546  19.106  14.842
 3794W        W72212  42.436   3.934   3.231
 3795W        W72213  43.415  28.035  14.284
 3796W        W72214  27.465  27.524  13.314
 3797W        W72215   5.294  28.563   0.442
 3798W        W72216   2.867  10.696  14.355
 3799W        W72217  41.901  37.468  13.862
 3800W        W72218  42.492  23.564   1.285
 3801W        W72219  21.694  27.628  13.431
 3802W        W72220  13.743  29.665   0.898
 3803W        W72221  38.003   0.317   3.843
 3804W        W72222  13.824  21.198   4.702
 3805W        W72223  40.472  33.129  13.815
 3806W        W72224  29.595  18.060   3.310
 3807W        W72225  26.067  34.901  12.377
 3808W        W72226  29.061  28.976   3.827
 3809W        W72227  37.428  43.508  11.402
 3810W        W72228  28.555  16.589   2.831
 3811W        W72229  33.904  18.605   3.674
 3812W        W72230  10.681   7.301   4.665
 3813W        W72231   3.826   1.457   2.865
 3814W        W72232  43.775  40.006  14.334
 3815W        W72233  32.418  25.683  12.433
 3816W        W72234   0.952   3.954  12.030
 3817W        W72235   2.890   5.804   3.264
 3818W        W72236  40.023   7.269   3.307
 3819W        W72237  14.601  35.024  13.848
 3820W        W72238  19.773  28.589  10.964
 3821W        W72239  22.185   1.862   1.256
 3822W        W72240  20.704  10.328   0.740
 3823W        W72241  20.146  40.039   3.349
 3824W        W72242  28.070   9.857   5.659
 3825W        W72243  28.509   8.687  11.981
 3826W        W72244  29.961  14.646   3.729
 3827W        W72245  33.067  25.206   3.333
 3828W        W72246  44.476  35.905   1.284
 3829W        W72247  16.106  24.723  14.418
 3830W        W72248  18.212   0.818   2.725
 3831W        W72249  39.507  12.626  11.885
 3832W        W72250  16.316  18.652  12.574
 3833W        W72251  13.800  26.027   1.276
 3834W        W72252  14.168  32.531  14.857
 3835W        W72253   4.421  25.642   4.182
 3836W        W72254   1.292  38.012   4.814
 3837W        W72255  23.148  44.975  14.004
 3838W        W72256  13.757  23.185  11.440
 3839W        W72257   2.253  41.366   3.856
 3840W        W72258  40.979  16.806   1.442
 3841W        W72259  41.361   9.738  10.993
 3842W        W72260  40.339   9.229   0.401
 3843W        W72261   0.933  15.249  11.039
 3844W        W72262  43.914   0.924   4.834
 3845W        W72263  29.502  29.542   1.217
 3846W        W72264  10.383  32.934  13.986
 3847W        W72265  43.819  30.422  11.422
 3848W        W72266  17.576  13.209  11.598
 3849W        W72267   1.297  28.056  10.492
 3850W        W72268  21.071  12.145  14.360
 3851W        W72269  38.522   8.246   4.141
 3852W        W72270   0.945   6.280   2.865
 3853W        W72271  32.414  44.381   1.443
 3854W        W72272   2.753  20.148   1.833
 3855W        W72273   3.312   5.352   3.265
 3856W        W72274  33.992  27.170   0.351
 3857W        W72275  23.125   2.761  12.571
 3858W        W72276  38.366  18.132  11.112
 3859W        W72277  27.074  21.684  10.606
 3860W        W72278  13.201  44.884  12.874
 3861W        W72279  18.161  15.294   2.846
 3862W        W72280  16.269  12.208  14.023
 3863W        W72281   2.440  22.173  11.611
 3864W        W72282  27.487  16.104  13.994
 3865W        W72283  44.405  15.270   4.740
 3866W        W72284  27.120  14.778   0.749
 3867W        W72285  33.916  37.853  11.092
 3868W        W72286  43.817   2.821   2.326
 3869W        W72287  36.057  18.772   0.844
 3870W        W72288  19.666  14.764  10.489
 3871W        W72289  36.398  14.744   0.441
 3872W        W72290  26.995  41.982  11.434
 3873W        W72291  40.842   1.418   0.252
 3874W        W72292  28.021   7.211  14.949
 3875W        W72293  21.170  18.721  14.823
 3876W        W72294  17.767   9.391   1.763
 3877W        W72295   5.726  29.550  13.901
 3878W        W72296  17.695  44.909  12.079
 3879W        W72297  12.205  27.065   0.746
 3880W        W72298  23.184  34.502  10.508
 3881W        W72299  21.546  39.809  14.450
 3882W        W72300  20.029  14.130  13.950
 3883W        W72301   8.692  34.965  14.285
 3884W        W72302  17.117  35.479  11.594
 3885W        W72303  39.463  19.744   0.349
 3886W        W72304  44.890   0.785   0.733
 3887W        W72305  20.748  40.342   3.305
 3888W        W72306  25.193  39.940  13.403
 3889W        W72307  15.171  35.083   1.245
 3890W        W72308  17.224  41.958   2.686
 3891W        W72309  19.151  13.123  14.858
 3892W        W72310  40.335  32.434   4.680
 3893W        W72311  23.140  31.053   4.350
 3894W        W72312  29.592  11.683   3.312
 3895W        W72313  19.151  30.129  11.589
 3896W        W72314  25.606  25.116   0.456
 3897W        W72315  10.667  41.038  14.773
 3898W        W72316  20.670  39.982   0.243
 3899W        W72317  21.244   7.677   0.912
 3900W        W72318  44.403  14.222  11.968
 3901W        W72319  36.442  38.894   2.370
 3902W        W72320  34.038  34.405  13.840
 3903W        W72321   4.805  20.231   4.288
 3904W        W72322  22.148  34.116  10.513
 3905W        W72323  41.039  22.223  11.379
 3906W        W72324  25.643  19.133   1.344
 3907W        W72325  41.533  39.556  14.965
 3908W        W72326  21.143  16.188  14.797
 3909W        W72327  17.078  11.824  12.520
 3910W        W72328  25.570  43.861  11.910
 3911W        W72329  39.864  27.981   1.339
 3912W        W72330  13.336  22.098  12.984
 3913W        W72331  43.455  20.571   3.667
 3914W        W72332  40.428  39.016   4.694
 3915W        W72333  19.160   9.722  13.984
 3916W        W72334  36.939  41.341  14.893
 3917W        W72335  25.593   6.225  13.530
 3918W        W72336  23.582  27.066   0.915
 3919W        W72337  11.827   9.658   0.744
 3920W        W72338  14.103   3.434   4.626
 3921W        W72339  44.796  30.158  14.336
 3922W        W72340   0.746  20.148   2.197
 3923W        W72341  34.585  11.222   0.728
 3924W        W72342  38.386  15.153   1.817
 3925W        W72343  18.573  23.137  10.560
 3926W        W72344  38.045   1.279  12.962
 3927W        W72345  40.805  37.954   2.291
 3928W        W72346  14.247   9.216  12.397
 3929W        W72347   5.213  11.837   4.167
 3930W        W72348  27.531  36.367   2.695
 3931W        W72349  21.203  34.543   3.776
 3932W        W72350   1.885  26.583  11.495
 3933W        W72351  15.735  41.030   1.702
 3934W        W72352  17.780   5.755  13.477
 3935W        W72353  40.382  25.567   3.681
 3936W        W72354  22.026   8.362  10.566
 3937W        W72355   6.389   1.263  10.959
 3938W        W72356  40.409  28.944  11.074
 3939W        W72357   6.357   4.353   1.339
 3940W        W72358   5.388  25.031  11.468
 3941W        W72359  20.532  24.556  10.895
 3942W        W72360  38.379  24.695  13.982
 3943W        W72361  43.394   2.259   3.201
 3944W        W72362  24.605  25.577  11.075
 3945W        W72363  13.282   4.224  10.980
 3946W        W72364  38.444   4.428  14.012
 3947W        W72365   8.203  29.542  14.975
 3948W        W72366  28.052  15.233   1.897
 3949W        W72367  29.071  31.112   0.319
 3950W        W72368  26.701  40.939  12.973
 3951W        W72369  37.358  11.811   0.435
 3952W        W72370  33.385   1.761   4.295
 3953W        W72371  29.513  24.658   2.190
 3954W        W72372  23.587   2.845   4.621
 3955W        W72373  19.621  36.512  10.545
 3956W        W72374  32.573  19.673   0.870
 3957W        W72375  11.188  37.906   4.267
 3958W        W72376  26.498  42.787   5.098
 3959W        W72377   2.461   6.815  10.536
 3960W        W72378  36.946  43.438   4.708
 3961W        W72379   7.713  23.546   4.734
 3962W        W72380   7.821  20.029  10.494
 3963W        W72381  13.713  18.101   0.856
 3964W        W72382  21.106   4.333  12.893
 3965W        W72383  24.663  21.094  14.788
 3966W        W72384  33.941  43.444  10.904
 3967W        W72385  29.948  34.602   0.470
 3968W        W72386  24.036   3.308  14.381
 3969W        W72387  22.732   7.191   0.444
 3970W        W72388  12.707  36.899  13.972
 3971W        W72389   0.927   3.750   0.342
 3972W        W72390  44.948  10.729   3.759
 3973W        W72391   6.683  41.443  12.357
 3974W        W72392  23.656   9.214  14.348
 3975W        W72393  21.560  31.138  12.412
 3976W        W72394  40.895   9.829  11.478
 3977W        W72395   8.214  43.477  13.801
 3978W        W72396  32.118  22.669  14.476
 3979W        W72397   2.354  31.945   1.449
 3980W        W72398  11.734  42.480  11.507
 3981W        W72399  17.753  29.978  12.508
 3982W        W72400  16.568  11.240   0.245
 3983W        W72401  30.989   2.943   2.295
 3984W        W72402  39.042  36.944  13.834
 3985W        W72403  31.591  20.095  11.511
 3986W        W72404   1.250  26.991   0.739
 3987W        W72405  39.993  31.044   3.250
 3988W        W72406  14.135  41.930   4.295
 3989W        W72407  43.875  35.590   4.318
 3990W        W72408  30.612  31.975  11.888
 3991W        W72409   1.834  31.031   0.890
 3992W        W72410  20.177  12.686  10.085
 3993W        W72411  32.446  43.942  11.390
 3994W        W72412  19.767  18.690   4.256
 3995W        W72413  10.683  27.473  13.862
 3996W        W72414  33.066  35.092  11.591
 3997W        W72415  30.551  33.936  13.515
 3998W        W72416  38.475  11.625   3.669
 3999W        W72417  22.556  33.574   4.289
 4000W        W72418  36.899   0.391  10.433
 4001W        W72419  39.976   4.848   4.128
 4002W        W72420  36.500  25.663  14.370
 4003W        W72421  34.002  32.001  10.525
 4004W        W72422   4.338  39.821   4.830
 4005W        W72423  19.283   4.249   3.368
 4006W        W72424  32.548  36.438   4.277
 4007W        W72425  11.682  18.100  10.582
 4008W        W72426  38.426  15.784  12.014
 4009W        W72427  42.811  19.614   0.915
 4010W        W72428  25.184   9.659   4.344
 4011W        W72429   9.193  25.707  14.868
 4012W        W72430  43.490  38.443  11.060
 4013W        W72431  15.198  33.044   1.858
 4014W        W72432  31.956   5.334   1.896
 4015W        W72433  42.829  44.403  13.821
 4016W        W72434  28.996   4.747   1.368
 4017W        W72435  18.283   8.718   0.782
 4018W        W72436  23.049  13.646   4.622
 4019W        W72437   4.766  18.113  11.055
 4020W        W72438   9.181  25.089   4.707
 4021W        W72439   8.280  42.329  10.926
 4022W        W72440  16.232   1.370  13.993
 4023W        W72441  22.657  10.746   0.257
 4024W        W72442  39.897  11.754  14.836
 4025W        W72443  25.686  23.134  14.289
 4026W        W72444  27.150  13.780   2.677
 4027W        W72445  44.469   2.759   2.801
 4028W        W72446  15.175  29.053   0.343
 4029W        W72447  37.482  42.879   5.305
 4030W        W72448  37.438  38.423  14.514
 4031W        W72449  28.142  35.101  11.086
 4032W        W72450   9.752   0.848   4.251
 4033W        W72451   6.830  24.071   4.651
 4034W        W72452   4.796  29.597   2.806
 4035W        W72453   6.919  31.537   1.229
 4036W        W72454  38.394  20.085   1.210
 4037W        W72455  22.231  35.955  11.403
 4038W        W72456  31.923  21.041  10.121
 4039W        W72457  31.495  26.009   3.861
 4040W        W72458  15.696  11.224  10.519
 4041W        W72459   8.731  23.088  12.371
 4042W        W72460   9.193  15.219   3.231
 4043W        W72461   8.237  27.512  11.113
 4044W        W72462   3.811   4.213   1.352
 4045W        W72463   4.233  40.543  13.896
 4046W        W72464  14.767   4.767  11.442
 4047W        W72465  36.954  11.262  14.275
 4048W        W72466  41.801  35.858   2.358
 4049W        W72467  25.510  39.843   0.958
 4050W        W72468   0.946  33.094  12.957
 4051W        W72469  23.239  15.298   2.220
 4052W        W72470   0.948  39.815  13.402
 4053W        W72471  24.492  39.858  10.562
 4054W        W72472  20.146  25.156   1.930
 4055W        W72473  22.564   7.204   3.786
 4056W        W72474   8.849  31.416  12.565
 4057W        W72475  26.200  20.709  14.973
 4058W        W72476  18.174   8.219   0.389
 4059W        W72477  41.932  27.000   3.377
 4060W        W72478  43.965  28.650  11.122
 4061W        W72479  37.916   9.743  13.813
 4062W        W72480   5.910  23.701  10.934
 4063W        W72481  21.136  22.112  11.432
 4064W        W72482  42.397  12.693   1.445
 4065W        W72483  22.501  30.645   1.774
 4066W        W72484  19.176  43.342   4.800
 4067W        W72485  34.556  32.019  11.386
 4068W        W72486  19.764  23.987  10.951
 4069W        W72487  14.237   3.355   0.261
 4070W        W72488   2.377  10.813  10.621
 4071W        W72489  20.541  39.375   9.656
 4072W        W72490  43.363  16.641  14.823
 4073W        W72491  23.495  31.121   3.228
 4074W        W72492  21.247   0.772   0.734
 4075W        W72493  24.603  26.467   4.768
 4076W        W72494  44.387  39.043   4.158
 4077W        W72495  33.446  39.958  11.463
 4078W        W72496   6.365  30.457  11.518
 4079W        W72497  26.613  25.175  12.378
 4080W        W72498  26.111  16.648  10.465
 4081W        W72499  38.051  17.211  11.065
 4082W        W72500   9.766  23.215  11.894
 4083W        W72501  34.876   3.321   3.809
 4084W        W72502  20.081  27.469  12.537
 4085W        W72503  10.358  12.308  13.326
 4086W        W72504  39.985  37.368   1.885
 4087W        W72505  44.799  33.534   0.431
 4088W        W72506   5.370  39.489  10.630
 4089W        W72507   6.321  10.751   1.384
 4090W        W72508  27.116  37.853  11.895
 4091W        W72509  18.061   7.202   0.911
 4092W        W72510  28.950  39.438   2.710
 4093W        W72511  28.627  26.121   1.443
 4094W        W72512   0.446  20.042   3.738
 4095W        W72513  14.745  11.782  11.382
 4096W        W72514  26.629  19.700  14.889
 4097W        W72515  16.317  35.971   1.772
 4098W        W72516  25.217  17.082  14.490
 4099W        W72517  38.560  22.176   0.844
 4100W        W72518  30.930  32.921   1.896
 4101W        W72519  16.615  27.626  13.377
 4102W        W72520   2.416  14.306  13.914
 4103W        W72521  14.728  29.591   0.301
 4104W        W72522  34.614  14.234   4.196
 4105W        W72523  34.119  32.893   4.813
 4106W        W72524   0.300  28.090  11.432
 4107W        W72525  21.668   3.294   3.837
 4108W        W72526  10.333  14.619  13.423
 4109W        W72527   1.749  10.693   4.697
 4110W        W72528  16.179   9.185   2.741
 4111W        W72529  22.054  39.442  12.392
 4112W        W72530  13.631  19.554   4.743
 4113W        W72531  30.930  35.046  13.500
 4114W        W72532   9.858  19.599   2.875
 4115W        W72533  41.876  33.475  12.453
 4116W        W72534   4.258  18.617   1.383
 4117W        W72535   5.357  32.038  12.456
 4118W        W72536  20.180  15.263   3.264
 4119W        W72537  29.003  17.158   1.398
 4120W        W72538  18.222  41.012  13.419
 4121W        W72539  15.304  41.958   2.195
 4122W        W72540  10.767  27.645   3.691
 4123W        W72541  27.513   6.287   4.753
 4124W        W72542  30.656  14.646  14.470
 4125W        W72543  38.383  41.030  12.975
 4126W        W72544  10.730  33.082   2.669
 4127W        W72545  12.700  40.534  12.865
 4128W        W72546  33.625  41.847   3.272
 4129W        W72547   7.211  21.755   4.188
 4130W        W72548  15.258  10.638   0.399
 4131W        W72549  29.654  24.669  13.932
 4132W        W72550  28.472  36.075  13.862
 4133W        W72551  36.591  10.292  14.786
 4134W        W72552  43.332  31.070   4.313
 4135W        W72553  26.973  13.699  14.026
 4136W        W72554  44.822  18.769  12.035
 4137W        W72555  34.867  27.156  11.519
 4138W        W72556   1.432   9.659  10.580
 4139W        W72557  38.907  22.146  14.840
 4140W        W72558  31.119  22.518  13.350
 4141W        W72559  18.232  40.954  11.403
 4142W        W72560  21.715  23.596   1.268
 4143W        W72561  14.783  19.719  12.394
 4144W        W72562   3.753  31.990   2.674
 4145W        W72563  18.082  31.634  13.990
 4146W        W72564  36.962  41.529   4.725
 4147W        W72565  18.602  41.867   3.319
 4148W        W72566   4.356  11.794   1.401
 4149W        W72567  22.010  17.075   0.848
 4150W        W72568   8.661  13.696  14.892
 4151W        W72569  13.777   7.414  14.388
 4152W        W72570  19.653  23.655   5.087
 4153W        W72571  30.524  35.535   1.841
 4154W        W72572  43.804  37.399   3.358
 4155W        W72573  29.617   8.390  14.445
 4156W        W72574  33.421  37.381  10.038
 4157W        W72575  36.476   1.411   1.277
 4158W        W72576  24.629  29.636   3.861
 4159W        W72577  42.341  33.962  10.987
 4160W        W72578   6.238  10.168   0.447
 4161W        W72579  22.723  30.083  14.890
 4162W        W72580   9.742  35.427   3.689
 4163W        W72581  30.511  11.721   0.404
 4164W        W72582  21.701   6.707   2.306
 4165W        W72583  16.111  40.869   0.309
 4166W        W72584   1.263  11.354  14.429
 4167W        W72585   4.351  23.062  12.849
 4168W        W72586  16.250   9.774  11.125
 4169W        W72587  23.215   0.872   0.825
 4170W        W72588  33.946  27.480   1.923
 4171W        W72589  40.406  23.703  13.327
 4172W        W72590  29.471  27.053   4.123
 4173W        W72591  44.447  41.495  10.619
 4174W        W72592   5.711  18.208   0.368
 4175W        W72593  12.722   0.463  11.439
 4176W        W72594   4.224  41.868  13.043
 4177W        W72595  19.125  21.108   1.837
 4178W        W72596  27.091  19.583   4.166
 4179W        W72597  12.166  37.461  12.041
 4180W        W72598   0.745  13.249   0.922
 4181W        W72599  36.863  22.742   1.320
 4182W        W72600  31.642  11.212   1.799
 4183W        W72601  35.586  32.085   5.240
 4184W        W72602  40.370  27.031   1.344
 4185W        W72603  43.459  15.198  13.926
 4186W        W72604   6.762  41.420   3.386
 4187W        W72605  41.884  28.489   2.874
 4188W        W72606  41.867  12.846  11.058
 4189W        W72607  33.445  14.683  12.409
 4190W        W72608   1.252  32.136  10.455
 4191W        W72609  30.987  10.861   1.790
 4192W        W72610  42.404  14.601   3.732
 4193W        W72611  36.418   1.468   3.728
 4194W        W72612  27.516   9.178   0.872
 4195W        W72613  42.339  23.998  14.434
 4196W        W72614   3.232  43.283   4.160
 4197W        W72615  30.465   1.346  10.976
 4198W        W72616   1.380  13.127   3.792
 4199W        W72617  35.042  42.030   1.837
 4200W        W72618  36.392  31.950   4.267
 4201W        W72619   5.366  39.381   1.929
 4202W        W72620  31.901   4.289  14.411
 4203W        W72621  32.569  12.292   4.152
 4204W        W72622  16.740  11.752  14.445
 4205W        W72623   3.833  34.557  14.929
 4206W        W72624  39.873   0.328   2.757
 4207W        W72625  26.037  43.438  14.359
 4208W        W72626  40.964  21.193   0.817
 4209W        W72627   0.825  26.971  10.936
 4210W        W72628  25.086  16.300  14.900
 4211W        W72629  13.205  27.593   2.713
 4212W        W72630  13.315  42.302  12.904
 4213W        W72631  42.284  30.421  10.459
 4214W        W72632  23.209  24.614   3.260
 4215W        W72633  39.961  29.664  14.778
 4216W        W72634  23.714   9.835   0.424
 4217W        W72635  28.079  31.970   2.303
 4218W        W72636  35.368  14.668  12.833
 4219W        W72637  36.853  14.774  13.979
 4220W        W72638  42.441  41.389   1.934
 4221W        W72639  28.483  35.515  14.467
 4222W        W72640  36.441  28.078  14.281
 4223W        W72641  35.509  10.352   1.318
 4224W        W72642  13.110  31.514  11.857
 4225W        W72643  30.092  19.106  13.488
 4226W        W72644  23.083  20.135  12.918
 4227W        W72645  16.644  35.432   1.367
 4228W        W72646  19.623  28.609   4.218
 4229W        W72647  43.827  30.996   3.633
 4230W        W72648  42.948   4.234   1.714
 4231W        W72649  12.170  16.216  11.577
 4232W        W72650  32.535  17.104   4.637
 4233W        W72651  43.407  11.850   3.303
 4234W        W72652  20.186  15.251  11.459
 4235W        W72653   8.267  29.644   1.268
 4236W        W72654  41.352   2.385  11.563
 4237W        W72655  12.797  24.539  12.045
 4238W        W72656  36.518  26.050  12.085
 4239W        W72657  11.644   5.402  14.781
 4240W        W72658   1.942  16.075  14.285
 4241W        W72659  44.502  36.519  10.469
 4242W        W72660   0.811   2.888   4.675
 4243W        W72661  39.529  25.061   3.671
 4244W        W72662   4.730  13.813   3.800
 4245W        W72663  21.526   3.356  14.392
 4246W        W72664   9.742   8.392   2.329
 4247W        W72665  41.878  42.989   4.747
 4248W        W72666   9.853  29.528  13.873
 4249W        W72667   4.923  23.054   1.401
 4250W        W72668  21.665  29.098   4.737
 4251W        W72669  25.478  18.566  10.953
 4252W        W72670   2.805   9.675   3.658
 4253W        W72671  30.558  26.701  11.448
 4254W        W72672  33.038  31.559   3.793
 4255W        W72673  41.459  18.110  14.424
 4256W        W72674  16.198  23.714  12.528
 4257W        W72675  30.450  43.836  11.082
 4258W        W72676  26.585   0.340   4.617
 4259W        W72677  44.400  43.425  11.489
 4260W        W72678  17.195  41.947  12.094
 4261W        W72679   6.414  44.875   3.749
 4262W        W72680  10.786   8.845   1.735
 4263W        W72681  42.354  10.357  13.524
 4264W        W72682   3.339  32.887  10.411
 4265W        W72683  18.785  30.093   1.931
 4266W        W72684  22.165  44.766  14.365
 4267W        W72685  38.357   1.380  13.474
 4268W        W72686   2.738  21.116  13.829
 4269W        W72687  18.286  36.873  10.611
 4270W        W72688  16.622  13.178  11.864
 4271W        W72689  30.938  15.813   1.904
 4272W        W72690  42.430  36.965  14.447
 4273W        W72691   8.296  16.224   4.205
 4274W        W72692   8.270  30.075  14.975
 4275W        W72693  31.504  15.258   4.722
 4276W        W72694   2.375  15.689   0.333
 4277W        W72695  23.157  15.652  14.456
 4278W        W72696  11.829  10.221   5.246
 4279W        W72697   4.894  17.270  11.004
 4280W        W72698   2.892   9.163  13.019
 4281W        W72699  30.919  38.542  11.092
 4282W        W72700  15.146  15.184   3.651
 4283W        W72701  29.512  36.842  12.379
 4284W        W72702  11.843   9.322   4.614
 4285W        W72703  35.048  40.980   2.214
 4286W        W72704   3.284  36.510   1.264
 4287W        W72705  34.896  38.903  14.486
 4288W        W72706  12.268   5.879   1.240
 4289W        W72707   5.720  29.484  10.430
 4290W        W72708   8.812   5.439   2.844
 4291W        W72709   3.372   7.736   0.846
 4292W        W72710  15.781  22.184   2.406
 4293W        W72711  13.821  39.329   0.417
 4294W        W72712  30.077  37.481  11.886
 4295W        W72713  29.115  39.838   2.727
 4296W        W72714   3.899   5.844  14.935
 4297W        W72715  26.465  20.581  14.029
 4298W        W72716  40.450  17.237   4.811
 4299W        W72717   8.859   2.468  14.873
 4300W        W72718   3.392  25.210  13.906
 4301W        W72719  43.325  19.758  11.581
 4302W        W72720  11.828  10.373  14.799
 4303W        W72721  26.147   9.647  11.097
 4304W        W72722  38.485  31.945   0.309
 4305W        W72723  37.572   0.793   4.700
 4306W        W72724  14.675   9.758   3.637
 4307W        W72725   8.167   4.406  11.539
 4308W        W72726  23.127   7.901   4.603
 4309W        W72727  12.332  22.625   3.640
 4310W        W72728  22.162  28.954   1.935
 4311W        W72729  21.516  24.713   2.780
 4312W        W72730  24.117  11.133  14.306
 4313W        W72731   6.373  18.129  13.436
 4314W        W72732  18.095  10.879  13.059
 4315W        W72733  36.059  40.396   0.410
 4316W        W72734  25.137  32.072   0.935
 4317W        W72735  29.919  44.350   3.314
 4318W        W72736  14.821  12.285  11.045
 4319W        W72737  24.121  41.989  11.561
 4320W        W72738  35.466  13.336  12.841
 4321W        W72739  21.618  15.804  12.093
 4322W        W72740  32.475   6.242   0.742
 4323W        W72741  31.545  16.171  12.479
 4324W        W72742   2.240  32.582   4.625
 4325W        W72743  12.312   7.907  13.947
 4326W        W72744  29.651  12.828  13.985
 4327W        W72745  42.027  18.098   3.196
 4328W        W72746   7.224  43.810   2.872
 4329W        W72747  30.115  23.613  12.556
 4330W        W72748  29.164  37.414  14.448
 4331W        W72749   6.767  32.006  13.851
 4332W        W72750  22.009  19.054  13.323
 4333W        W72751   9.789   2.398   2.788
 4334W        W72752  34.992  36.941  13.386
 4335W        W72753   1.788  44.449   2.353
 4336W        W72754  15.774  37.442  14.398
 4337W        W72755  36.356  14.176  12.381
 4338W        W72756  25.669  27.985   1.774
 4339W        W72757  38.474   8.208   0.729
 4340W        W72758  39.964  43.388  14.773
 4341W        W72759  13.714  42.364  10.977
 4342W        W72760  41.379  31.576   0.770
 4343W        W72761  19.570  21.727  12.001
 4344W        W72762  41.965  41.996   9.976
 4345W        W72763  14.287  40.905  11.971
 4346W        W72764  31.108  34.988  10.601
 4347W        W72765  24.068   6.382  10.941
 4348W        W72766  15.582  12.347   3.181
 4349W        W72767  16.154  16.789   4.270
 4350W        W72768   0.293  40.478   0.367
 4351W        W72769  28.100  31.979  13.962
 4352W        W72770   0.855   0.839   4.696
 4353W        W72771   1.395  20.053   9.606
 4354W        W72772  35.561  28.496   2.341
 4355W        W72773  16.246   9.728   3.635
 4356W        W72774  35.020   3.757   1.908
 4357W        W72775  43.444  38.502   2.832
 4358W        W72776  31.002  41.007  11.882
 4359W        W72777  11.310  44.988   1.703
 4360W        W72778  17.680  17.750  14.349
 4361W        W72779  16.735  19.769   4.247
 4362W        W72780  24.517  36.051   4.633
 4363W        W72781  28.178  15.169   0.243
 4364W        W72782  42.433   5.315  14.344
 4365W        W72783  14.314  29.087   1.435
 4366W        W72784  44.790  40.806   3.275
 4367W        W72785  40.871  26.485   1.886
 4368W        W72786  22.555  22.712  10.612
 4369W        W72787  13.730  19.634   1.831
 4370W        W72788  34.997   3.345   4.636
 4371W        W72789  24.030  15.106   1.260
 4372W        W72790  31.924  39.319   4.710
 4373W        W72791  37.854   1.782   4.751
 4374W        W72792   1.793  31.152  14.004
 4375W        W72793  18.777  16.089  12.006
 4376W        W72794  37.555  39.441  11.080
 4377W        W72795  10.274  17.165  13.016
 4378W        W72796  35.852  18.641  12.530
 4379W        W72797  18.207   3.884   1.705
 4380W        W72798  11.181  21.238   3.220
 4381W        W72799   9.680   9.383  14.311
 4382W        W72800  30.579  31.072  10.573
 4383W        W72801  30.108  13.326   2.834
 4384W        W72802  28.673   1.374  12.984
 4385W        W72803  17.115  25.521  11.955
 4386W        W72804  26.486  35.913  13.945
 4387W        W72805  41.312  16.629   1.274
 4388W        W72806  35.934  26.957   3.162
 4389W        W72807   4.748  42.352  10.954
 4390W        W72808  16.146  27.598   3.330
 4391W        W72809   9.213  35.109  11.546
 4392W        W72810   5.195  25.631  13.013
 4393W        W72811  37.836  39.992   1.414
 4394W        W72812   3.903  20.183  12.510
 4395W        W72813   5.734  42.011   3.855
 4396W        W72814   6.411  32.447   2.242
 4397W        W72815   9.670  22.174   2.289
 4398W        W72816  17.224  30.123  12.361
 4399W        W72817  44.942  11.361  14.844
 4400W        W72818  32.979  44.949   2.295
 4401W        W72819  25.023  22.744   3.770
 4402W        W72820   2.233  12.670   0.775
 4403W        W72821  27.976  10.682   3.262
 4404W        W72822  25.496  19.247  11.577
 4405W        W72823  10.280  39.531   1.805
 4406W        W72824  24.014  39.528   2.334
 4407W        W72825  38.035   7.407   5.300
 4408W        W72826   6.274  28.051  10.159
 4409W        W72827  18.059  24.488   3.750
 4410W        W72828  32.395  33.562   1.444
 4411W        W72829  42.374  42.781  11.862
 4412W        W72830  21.087  23.031  11.857
 4413W        W72831  19.601  20.580  10.943
 4414W        W72832  39.509  33.551   3.361
 4415W        W72833  39.037  38.550  13.461
 4416W        W72834   6.356   7.884   3.841
 4417W        W72835  14.661  40.991   1.262
 4418W        W72836  19.545   9.721  12.877
 4419W        W72837  16.096  18.208  13.988
 4420W        W72838  41.823   8.210  14.796
 4421W        W72839  39.371   8.246   0.909
 4422W        W72840  21.083  10.695  13.024
 4423W        W72841  34.509  29.444  12.080
 4424W        W72842  18.764   6.756   3.300
 4425W        W72843   7.811  43.445   3.752
 4426W        W72844  22.745   5.892  14.478
 4427W        W72845  18.687   9.253   3.174
 4428W        W72846   5.931  17.691  12.902
 4429W        W72847  23.169   1.732  12.871
 4430W        W72848  10.238  13.230   0.449
 4431W        W72849  34.529  34.074   3.372
 4432W        W72850  29.923  19.712  10.478
 4433W        W72851  42.789   3.451   2.384
 4434W        W72852   0.935   5.688  13.836
 4435W        W72853  11.792  26.025  13.882
 4436W        W72854  19.572  30.102   0.762
 4437W        W72855  18.669  25.064   2.382
 4438W        W72856  27.663  31.505   4.793
 4439W        W72857   1.383  34.506   4.775
 4440W        W72858  37.572   1.975  13.000
 4441W        W72859   8.312  24.029  11.508
 4442W        W72860  22.172  26.961   1.807
 4443W        W72861  21.243  18.260  12.403
 4444W        W72862  38.549   2.845   1.413
 4445W        W72863  40.926  23.058   4.664
 4446W        W72864   1.317   8.218  12.904
 4447W        W72865  17.614  10.284   2.848
 4448W        W72866  44.397  36.900   1.402
 4449W        W72867  40.323  13.655  12.962
 4450W        W72868  27.015  16.163   1.231
 4451W        W72869  36.970  39.902  12.086
 4452W        W72870   4.404  32.912   3.273
 4453W        W72871  41.856  26.998   4.669
 4454W        W72872  27.589  35.071  12.051
 4455W        W72873   8.834  26.971   0.356
 4456W        W72874   6.369   1.961   1.363
 4457W        W72875  19.650  29.045  14.813
 4458W        W72876  32.059  40.019  12.431
 4459W        W72877   6.817  10.227  14.873
 4460W        W72878  22.660   1.814  14.812
 4461W        W72879  35.408  37.035  14.483
 4462W        W72880  27.144  16.636  10.930
 4463W        W72881   8.359  33.594  14.508
 4464W        W72882   9.279   3.400   9.933
 4465W        W72883   6.265  23.605  12.461
 4466W        W72884   3.431  24.141   1.702
 4467W        W72885   2.801  38.037   3.268
 4468W        W72886  24.050  27.114  11.060
 4469W        W72887   8.777  33.464  13.371
 4470W        W72888   4.328  29.095  12.002
 4471W        W72889   4.915  10.835   4.192
 4472W        W72890  25.133   1.304   2.754
 4473W        W72891   3.901  35.041   2.307
 4474W        W72892   4.393   8.745  13.354
 4475W        W72893  12.665  16.086   3.288
 4476W        W72894  22.130  15.819  14.892
 4477W        W72895  21.079  44.966   1.311
 4478W        W72896  14.721  25.057  14.458
 4479W        W72897  33.089  24.492  12.023
 4480W        W72898  20.056  34.880  14.501
 4481W        W72899  21.550   2.877   3.201
 4482W        W72900   7.181  10.695  10.434
 4483W        W72901  41.989  32.562  12.930
 4484W        W72902  44.342  28.975  10.138
 4485W        W72903  11.784   4.256  11.426
 4486W        W72904   0.788  11.247   1.741
 4487W        W72905  18.118  17.749   1.302
 4488W        W72906  40.514  10.207  10.064
 4489W        W72907   7.787  29.062   3.204
 4490W        W72908   0.270  32.122   1.420
 4491W        W72909  12.285  30.511   2.178
 4492W        W72910  22.183  32.054  11.532
 4493W        W72911   8.671   9.864  12.038
 4494W        W72912  14.689  13.105   2.240
 4495W        W72913  16.745  25.590  14.791
 4496W        W72914  31.472   4.260   4.808
 4497W        W72915  16.609  21.668   3.855
 4498W        W72916  10.709  27.057  11.458
 4499W        W72917  26.017  39.380  12.503
 4500W        W72918  24.982   7.689   0.477
 4501W        W72919  19.606  41.973   1.354
 4502W        W72920   8.705  37.935  11.126
 4503W        W72921   6.840  43.786  14.371
 4504W        W72922  19.639  14.725  10.106
 4505W        W72923  21.605  21.550   3.765
 4506W        W72924  41.965  40.863   1.723
 4507W        W72925  28.047  18.074  11.407
 4508W        W72926  31.947  20.600  14.855
 4509W        W72927  16.309  29.043   4.725
 4510W        W72928  11.239  34.444  11.556
 4511W        W72929  23.692  28.627   2.792
 4512W        W72930  16.788  26.031   1.777
 4513W        W72931   1.817  10.368   5.290
 4514W        W72932  38.543  33.416  12.048
 4515W        W72933  43.777  19.670   2.893
 4516W        W72934  25.527  13.163   2.745
 4517W        W72935   3.901  33.437  11.106
 4518W        W72936  11.761  41.520   1.756
 4519W        W72937  29.015  35.576  10.955
 4520W        W72938  14.178  22.114  13.894
 4521W        W72939   0.469  14.738  14.279
 4522W        W72940  13.262   3.917   0.439
 4523W        W72941  11.840  17.557  10.562
 4524W        W72942  17.249  30.471   0.892
 4525W        W72943  20.157  33.432  11.473
 4526W        W72944  24.614  10.632   0.769
 4527W        W72945   1.305   0.279   1.816
 4528W        W72946   7.796  35.511  10.611
 4529W        W72947   5.758  31.462  10.444
 4530W        W72948  40.994   1.732  12.400
 4531W        W72949  27.561  28.602  14.483
 4532W        W72950  36.922   2.349  14.019
 4533W        W72951  27.474  20.142  12.948
 4534W        W72952  21.135  25.170   4.261
 4535W        W72953   2.727  32.962   1.864
 4536W        W72954  30.967  28.945  11.950
 4537W        W72955  18.231  11.833  12.423
 4538W        W72956  33.607  22.042  11.055
 4539W        W72957   1.798  24.625  14.957
 4540W        W72958  28.522   5.910   0.732
 4541W        W72959   3.459  19.687  14.992
 4542W        W72960  27.601  20.064   1.809
 4543W        W72961  36.929  18.740  12.834
 4544W        W72962  18.706  31.524  11.029
 4545W        W72963   7.799   9.694   4.597
 4546W        W72964  22.071  24.095   4.599
 4547W        W72965  33.621  10.297   3.192
 4548W        W72966  20.069  33.534   1.701
 4549W        W72967  15.099  25.622   2.294
 4550W        W72968   1.237  22.199  11.497
 4551W        W72969  37.961   0.950  12.986
 4552W        W72970  23.150  23.079  14.480
 4553W        W72971  10.329  22.182   3.681
 4554W        W72972   9.152  32.124  11.075
 4555W        W72973  25.111  33.913  11.050
 4556W        W72974  33.564  42.978  10.115
 4557W        W72975  10.692  22.631   4.351
 4558W        W72976  37.841   9.351  14.315
 4559W        W72977  39.952  34.525   1.865
 4560W        W72978  30.574  21.059  14.434
 4561W        W72979  28.477  39.354  10.556
 4562W        W72980  22.015  25.150  13.049
 4563W        W72981  14.594  39.958  12.843
 4564W        W72982  38.347  41.300   4.324
 4565W        W72983  35.075  23.133  10.965
 4566W        W72984  23.147  33.040  13.845
 4567W        W72985  13.761   1.758  13.327
 4568W        W72986  18.131   0.331   4.355
 4569W        W72987  20.049   2.329   2.307
 4570W        W72988  19.635  41.400   3.820
 4571W        W72989  11.194  33.121   0.288
 4572W        W72990  30.969  25.064   4.286
 4573W        W72991  26.084  24.608  11.061
 4574W        W72992  16.076  27.504  11.582
 4575W        W72993   4.909  12.705  14.494
 4576W        W72994  32.522  30.652  13.922
 4577W        W72995   8.730  38.367   4.218
 4578W        W72996  34.059  32.006   2.347
 4579W        W72997   2.916   3.339   4.600
 4580W        W72998  34.580  20.679   4.323
 4581W        W72999   7.373  16.181   1.266
 4582W        W73000  36.906   7.243  12.055
 4583W        W73001   8.694  19.194  14.890
 4584W        W73002  28.146  13.200  13.418
 4585W        W73003  37.944  20.533   0.956
 4586W        W73004  10.736  14.152  11.496
 4587W        W73005  20.234  22.215   2.366
 4588W        W73006  29.011  37.059  14.413
 4589W        W73007  16.725  12.746   0.830
 4590W        W73008   9.251  23.122  11.514
 4591W        W73009   1.852  29.100  13.449
 4592W        W73010  41.971  28.122  13.984
 4593W        W73011  17.250  36.073  13.494
 4594W        W73012  39.444  43.784  11.006
 4595W        W73013  22.672  39.400   2.718
 4596W        W73014  44.325  34.508   3.271
 4597W        W73015   5.337  30.014   1.802
 4598W        W73016   8.370  28.975  10.615
 4599W        W73017  14.181  20.173  12.454
 4600W        W73018  39.974  35.911   1.300
 4601W        W73019  24.673  44.349   0.953
 4602W        W73020   9.705  30.967  13.840
 4603W        W73021  34.121  15.684  11.939
 4604W        W73022  37.532   3.402  13.412
 4605W        W73023  41.932   5.898   3.155
 4606W        W73024  34.121  29.557  12.388
 4607W        W73025  41.925  24.538   1.868
 4608W        W73026  26.653  20.105  13.011
 4609W        W73027   6.676  11.627  11.014
 4610W        W73028   0.469   8.758  12.379
 4611W        W73029  24.690  18.066   0.952
 4612W        W73030  37.388  43.977   3.154
 4613W        W73031   2.280  25.144  14.867
 4614W        W73032  29.647  30.640   1.760
 4615W        W73033  32.402  41.376  14.514
 4616W        W73034  44.297  24.219  11.994
 4617W        W73035   5.333  24.671   4.611
 4618W        W73036  37.065  40.387   2.365
 4619W        W73037   6.268  25.161  14.446
 4620W        W73038  31.143  15.172  13.486
 4621W        W73039   2.966  11.211  13.354
 4622W        W73040  32.074  15.208  14.353
 4623W        W73041  27.168  31.422  12.419
 4624W        W73042  37.951  38.377   4.709
 4625W        W73043  26.555   2.893  11.064
 4626W        W73044  26.582  38.921  13.816
 4627W        W73045  34.439  10.322   4.294
 4628W        W73046  24.197  16.237  11.952
 4629W        W73047  36.401  11.316   1.897
 4630W        W73048   7.388   9.285   3.258
 4631W        W73049  34.566  22.576   0.474
 4632W        W73050  23.126  15.327   1.448
 4633W        W73051  22.506  27.119   1.288
 4634W        W73052   8.386  20.570  11.428
 4635W        W73053  43.515  18.651   4.119
 4636W        W73054  37.549   3.915   2.686
 4637W        W73055  23.701  20.195  11.378
 4638W        W73056  16.645   3.902  11.550
 4639W        W73057  24.007  23.556   3.168
 4640W        W73058   6.880  10.372  11.984
 4641W        W73059  23.662  18.763   1.407
 4642W        W73060   1.829  22.526   1.845
 4643W        W73061  19.676   5.299  14.782
 4644W        W73062   9.814  43.804   1.866
 4645W        W73063  44.463   5.281  14.370
 4646W        W73064   1.926  29.117  14.318
 4647W        W73065  43.915  22.165  10.440
 4648W        W73066   7.781  18.783  13.889
 4649W        W73067  19.060  15.231   4.247
 4650W        W73068  38.339  26.025   0.453
 4651W        W73069  21.516   9.804  14.868
 4652W        W73070  32.995   3.379   0.935
 4653W        W73071  41.951  34.529  11.102
 4654W        W73072  44.286  28.037   3.260
 4655W        W73073  36.415   2.267  14.940
 4656W        W73074  44.799  21.596  10.922
 4657W        W73075   2.378  15.087  10.621
 4658W        W73076   8.206  15.659  13.364
 4659W        W73077  34.543   3.353   1.329
 4660W        W73078  19.220  11.149  11.034
 4661W        W73079  10.645  13.786   4.119
 4662W        W73080  17.657  33.898   0.899
 4663W        W73081  35.890  16.114  11.057
 4664W        W73082  12.709  22.161   0.878
 4665W        W73083  27.023  15.285  10.524
 4666W        W73084  11.181  32.036   2.269
 4667W        W73085  12.221  40.307   3.842
 4668W        W73086  13.208  17.632   3.782
 4669W        W73087  41.468  23.643  12.351
 4670W        W73088  22.154   9.252   3.829
 4671W        W73089  36.349  34.936  10.566
 4672W        W73090  26.955   1.829  13.047
 4673W        W73091  30.908   6.804  13.534
 4674W        W73092  40.526  25.521  12.530
 4675W        W73093  17.149  38.865   0.886
 4676W        W73094  35.422  22.550   3.811
 4677W        W73095  19.134  24.226   3.330
 4678W        W73096  43.873  40.935   9.590
 4679W        W73097   7.209  43.829  12.374
 4680W        W73098  24.213  42.417   2.782
 4681W        W73099  12.228  12.305   2.241
 4682W        W73100   5.898   6.296   1.345
 4683W        W73101  13.214   5.384  10.594
 4684W        W73102   9.293  38.068  11.430
 4685W        W73103  43.511  23.696   4.282
 4686W        W73104  43.898  20.666   2.857
 4687W        W73105  23.654  11.789  13.974
 4688W        W73106  25.198  27.083   3.204
 4689W        W73107  35.882  30.425   0.825
 4690W        W73108  31.012   1.300   3.166
 4691W        W73109  32.007  15.756   3.839
 4692W        W73110   0.944  13.783   1.334
 4693W        W73111  19.126  23.075  13.352
 4694W        W73112  37.346  11.622  14.306
 4695W        W73113   9.238  19.115  14.997
 4696W        W73114  28.078  25.219   3.652
 4697W        W73115  20.042  18.240   4.623
 4698W        W73116  40.391  11.832   0.844
 4699W        W73117  32.985  15.617  11.382
 4700W        W73118  29.548  41.887  10.529
 4701W        W73119  14.591  27.466  11.095
 4702W        W73120   2.859   8.313   3.811
 4703W        W73121  17.234  31.578   3.239
 4704W        W73122  21.582  39.861  10.425
 4705W        W73123   1.445  15.305  10.441
 4706W        W73124  20.269  34.086   2.704
 4707W        W73125   3.263  32.409   1.223
 4708W        W73126  10.288  14.780   3.669
 4709W        W73127  37.488   5.193  12.936
 4710W        W73128  31.945  25.631   3.162
 4711W        W73129   6.228  24.692   0.427
 4712W        W73130  20.074  44.792   3.325
 4713W        W73131  29.976   9.756  13.819
 4714W        W73132  25.694  17.576   3.275
 4715W        W73133  17.758   9.331  14.816
 4716W        W73134  11.283  29.026   3.145
 4717W        W73135  15.723   0.325  10.003
 4718W        W73136  11.743  35.368  12.358
 4719W        W73137  38.978   9.260   4.820
 4720W        W73138  34.507  21.740   4.189
 4721W        W73139  16.128  11.648   0.860
 4722W        W73140   7.185  10.804   3.671
 4723W        W73141   5.736  10.800  11.875
 4724W        W73142  33.033  10.835  13.839
 4725W        W73143  29.564   4.240   1.708
 4726W        W73144   0.895   7.231   3.161
 4727W        W73145   2.349  24.083  12.508
 4728W        W73146  31.478  41.322  10.528
 4729W        W73147   3.874  24.021   2.223
 4730W        W73148  43.347  23.634   5.685
 4731W        W73149  21.649  38.967   0.385
 4732W        W73150  35.402  36.540   5.215
 4733W        W73151  10.161   9.309  13.827
 4734W        W73152   8.892  15.823  14.857
 4735W        W73153  24.633  23.553   4.119
 4736W        W73154  21.551  37.844  12.496
 4737W        W73155  42.781  17.652   4.599
 4738W        W73156  44.378  37.834  12.865
 4739W        W73157  30.510  26.123   0.729
 4740W        W73158  40.976  22.676   3.831
 4741W        W73159  29.081  12.720  13.006
 4742W        W73160   2.326  24.653  11.509
 4743W        W73161  36.973  33.916   0.407
 4744W        W73162  17.589  36.082   1.887
 4745W        W73163  26.023  22.012  14.883
 4746W        W73164  39.847  40.466   0.449
 4747W        W73165  10.210  11.309   0.957
 4748W        W73166  17.669  23.211   4.160
 4749W        W73167  19.184  21.244  13.845
 4750W        W73168   1.458  30.619   1.811
 4751W        W73169  39.875  12.705   4.726
 4752W        W73170  18.216  18.241   3.151
 4753W        W73171  44.382  32.565  11.398
 4754W        W73172  37.357  19.128   2.865
 4755W        W73173  12.759  28.577   1.757
 4756W        W73174  23.521   7.246   2.238
 4757W        W73175   5.212   8.232   2.855
 4758W        W73176   0.893  42.315  13.517
 4759W        W73177  28.585  22.505  11.906
 4760W        W73178  26.163  36.043   4.815
 4761W        W73179  31.540  42.332   1.907
 4762W        W73180  30.918  17.064   2.359
 4763W        W73181  33.906   1.373  11.476
 4764W        W73182  21.146  29.174   0.835
 4765W        W73183  28.934   2.414  10.429
 4766W        W73184  26.993  39.331  14.836
 4767W        W73185  17.180  24.143   3.177
 4768W        W73186  19.671  30.527   4.828
 4769W        W73187  27.021   4.275  13.368
 4770W        W73188  44.338  42.314  11.474
 4771W        W73189   5.300   0.468  11.574
 4772W        W73190   9.192  27.967   1.444
 4773W        W73191   4.786  20.139  12.985
 4774W        W73192  23.491  27.078  11.466
 4775W        W73193  41.317  39.000  13.954
 4776W        W73194   5.815  35.436  13.798
 4777W        W73195  21.721  30.981  13.796
 4778W        W73196  42.457  23.529  10.063
 4779W        W73197  34.585  28.089   4.115
 4780W        W73198   5.883  36.080  14.820
 4781W        W73199   0.279  33.915   1.822
 4782W        W73200  40.832  34.385  14.774
 4783W        W73201  33.933  22.715  14.476
 4784W        W73202   1.808   9.242  13.053
 4785W        W73203  29.496  19.680  11.104
 4786W        W73204  10.730  14.634  13.324
 4787W        W73205  25.215  29.469   0.244
 4788W        W73206  12.260  29.009   0.296
 4789W        W73207  40.047   6.244   4.276
 4790W        W73208   5.835  25.962   2.683
 4791W        W73209  25.474   0.918   1.925
 4792W        W73210  17.070  34.893  13.970
 4793W        W73211   6.226  33.064  10.944
 4794W        W73212  38.061   3.295   2.416
 4795W        W73213  38.032   2.929   4.678
 4796W        W73214   8.192  37.849  13.442
 4797W        W73215  35.080  28.478  11.917
 4798W        W73216  22.165  27.482  12.549
 4799W        W73217  38.875  18.693   2.277
 4800W        W73218  14.600  12.691  12.440
 4801W        W73219  19.153  39.530   4.681
 4802W        W73220   9.149  22.173   4.320
 4803W        W73221  23.654  19.559   0.260
 4804W        W73222  19.267  33.615   0.446
 4805W        W73223  35.880  24.093  13.430
 4806W        W73224  31.594  40.822   1.868
 4807W        W73225   5.264   7.336   4.235
 4808W        W73226  33.478  29.158   2.239
 4809W        W73227  35.092   5.291  12.966
 4810W        W73228  44.889  20.252   3.812
 4811W        W73229  26.021  33.893  13.309
 4812W        W73230  24.564  10.860   2.744
 4813W        W73231  17.211   9.164   4.320
 4814W        W73232   1.240  29.634   2.783
 4815W        W73233  42.935  37.382  10.404
 4816W        W73234  30.061  18.753   4.607
 4817W        W73235  24.102   6.731   1.319
 4818W        W73236  41.374  24.505   3.351
 4819W        W73237  24.021   0.393   1.226
 4820W        W73238  14.231   0.326   1.339
 4821W        W73239  28.529  42.913   1.298
 4822W        W73240  24.148   3.786   3.868
 4823W        W73241  14.803  17.129   4.707
 4824W        W73242  34.593  25.975  12.087
 4825W        W73243  33.058   4.779  14.356
 4826W        W73244  22.646  37.348  13.798
 4827W        W73245  25.015  39.521   0.774
 4828W        W73246  44.940  19.208   1.716
 4829W        W73247  30.603   4.398   3.826
 4830W        W73248  25.690  42.387  11.492
 4831W        W73249  17.252   8.833   4.189
 4832W        W73250  22.518  31.414   2.888
 4833W        W73251  10.151   1.897   4.780
 4834W        W73252   7.355  43.980   3.762
 4835W        W73253  21.024  26.150   1.787
 4836W        W73254  40.838  28.651   0.260
 4837W        W73255  38.961  42.827   3.652
 4838W        W73256  18.659  37.546   4.821
 4839W        W73257   0.843  38.934  11.112
 4840W        W73258  21.579  31.633  10.445
 4841W        W73259  43.398  36.092  14.785
 4842W        W73260   1.302   9.834   0.266
 4843W        W73261   3.902  43.924  10.944
 4844W        W73262  23.692  39.410   4.272
 4845W        W73263   1.423  15.619  14.459
 4846W        W73264  10.690  11.720  12.014
 4847W        W73265  38.566  34.080  12.946
 4848W        W73266  36.900  33.889   1.394
 4849W        W73267  21.691  17.723   4.644
 4850W        W73268  15.240  22.543  11.936
 4851W        W73269   7.308  30.949   4.733
 4852W        W73270  31.122   8.725  13.499
 4853W        W73271   0.868   8.229  11.581
 4854W        W73272  13.275  29.514   1.777
 4855W        W73273  26.154  31.075  10.494
 4856W        W73274   5.904  14.613  14.856
 4857W        W73275  24.606  35.403   0.838
 4858W        W73276  40.372  25.017  12.519
 4859W        W73277  29.004  12.816  12.385
 4860W        W73278  20.045  18.062  12.383
 4861W        W73279  20.239  28.005  12.050
 4862W        W73280   2.293  36.054  11.438
 4863W        W73281  37.870  13.187  13.507
 4864W        W73282  21.745  35.862  12.364
 4865W        W73283  10.232  10.828   4.151
 4866W        W73284  38.837  34.395   2.349
 4867W        W73285   2.412  39.041  14.915
 4868W        W73286  12.765   9.160  11.476
 4869W        W73287  11.730   7.393  13.958
 4870W        W73288  20.540  20.760   3.337
 4871W        W73289  29.074   6.349   3.772
 4872W        W73290  24.655  31.549   0.901
 4873W        W73291  29.175  44.774   4.123
 4874W        W73292   2.444  34.413   0.940
 4875W        W73293  18.150  11.865  14.408
 4876W        W73294   1.397  17.194  14.017
 4877W        W73295   7.221  12.645  12.900
 4878W        W73296  21.201  15.087  12.376
 4879W        W73297   8.827  34.497  13.418
 4880W        W73298  33.461   1.974  14.802
 4881W        W73299  20.579  36.509   0.827
 4882W        W73300  26.082   9.801   2.745
 4883W        W73301  30.083  35.426  12.485
 4884W        W73302   2.441  10.762  14.766
 4885W        W73303  27.052  36.953   3.809
 4886W        W73304  22.229  36.477  12.998
 4887W        W73305   0.865  43.305   0.379
 4888W        W73306  16.201  34.076  11.070
 4889W        W73307  10.731  10.687   0.863
 4890W        W73308  28.559  33.002   4.204
 4891W        W73309   4.215  17.559   3.261
 4892W        W73310  44.282   7.793   4.233
 4893W        W73311  34.501   2.391  10.900
 4894W        W73312   4.738   7.753   1.749
 4895W        W73313   7.716  19.624   1.230
 4896W        W73314  12.849  27.959   4.308
 4897W        W73315  21.715  10.823  14.954
 4898W        W73316  14.785   7.301   4.251
 4899W        W73317  42.007  17.572  11.936
 4900W        W73318  24.607  31.917  10.422
 4901W        W73319  41.473  28.490   0.305
 4902W        W73320  37.879  41.962   4.785
 4903W        W73321  44.755   0.255   0.791
 4904W        W73322  27.940  19.693   3.713
 4905W        W73323  39.330  19.236  12.842
 4906W        W73324  20.625  12.623   0.963
 4907W        W73325  17.800  39.462   1.212
 4908W        W73326  30.489  38.338  13.802
 4909W        W73327  11.256  41.378  11.080
 4910W        W73328   8.372   6.398   1.820
 4911W        W73329  41.959  17.195  13.398
 4912W        W73330  24.514   6.681   4.340
 4913W        W73331  43.945  44.902  13.047
 4914W        W73332   4.283   3.262   3.637
 4915W        W73333  40.343  15.592  13.436
 4916W        W73334   8.878  23.596  13.828
 4917W        W73335  40.862  44.292   4.611
 4918W        W73336   2.349  32.037  10.914
 4919W        W73337   4.318  19.742   1.850
 4920W        W73338  39.842   4.820   2.749
 4921W        W73339  32.470  16.684  10.968
 4922W        W73340   1.385  36.412  11.127
 4923W        W73341  13.719   6.715   9.456
 4924W        W73342   5.233   7.242  11.389
 4925W        W73343  40.354  31.961  11.911
 4926W        W73344   1.960   0.918  12.852
 4927W        W73345   1.737  34.585  11.100
 4928W        W73346   7.301  31.082  14.285
 4929W        W73347   9.684  16.254  14.504
 4930W        W73348  44.413   2.723   1.447
 4931W        W73349  33.132  19.213   2.890
 4932W        W73350  21.515  11.780   9.933
 4933W        W73351   6.411  33.943  10.599
 4934W        W73352   8.864  37.480   2.394
 4935W        W73353  11.321  10.701  12.908
 4936W        W73354  37.444  34.957   2.307
 4937W        W73355  22.079  18.245  10.577
 4938W        W73356  30.139  27.069  14.426
 4939W        W73357  20.706   5.200  11.909
 4940W        W73358  20.036  42.344   4.191
 4941W        W73359  44.986  22.098  12.567
 4942W        W73360  18.552  41.034  12.077
 4943W        W73361  10.321  21.529  14.814
 4944W        W73362  17.103  41.356   4.682
 4945W        W73363   4.326  37.561  14.827
 4946W        W73364  32.443  32.423  13.042
 4947W        W73365  39.986  35.521  14.468
 4948W        W73366  19.201  11.860   1.321
 4949W        W73367   9.190  40.415   1.822
 4950W        W73368  44.902   5.218  13.980
 4951W        W73369  42.379  21.572   5.282
 4952W        W73370  22.610  36.561   4.702
 4953W        W73371   1.760   1.835  14.469
 4954W        W73372  29.175  39.920  11.542
 4955W        W73373  38.828  13.285  11.067
 4956W        W73374  22.054  38.541   4.170
 4957W        W73375  41.508   0.780  10.589
 4958W        W73376  36.057   8.675  13.455
 4959W        W73377  15.663   5.892  11.609
 4960W        W73378   3.802  22.109  14.780
 4961W        W73379  24.193   7.249   9.955
 4962W        W73380  12.636  19.077  13.882
 4963W        W73381  17.303  14.250   5.243
 4964W        W73382  38.535   5.410  13.950
 4965W        W73383  22.618  42.525  14.910
 4966W        W73384  28.942   1.413   2.214
 4967W        W73385  31.991  40.824  12.089
 4968W        W73386  13.235   1.773   5.288
 4969W        W73387   8.274   4.880  12.864
 4970W        W73388  32.987   5.266  13.521
 4971W        W73389  10.836  41.991   0.791
 4972W        W73390  44.370  10.832  11.000
 4973W        W73391   9.716  10.668   0.832
 4974W        W73392  34.015  23.002   0.947
 4975W        W73393  39.989  10.712  13.038
 4976W        W73394  22.611  41.355   5.263
 4977W        W73395  42.362  39.918  10.591
 4978W        W73396   3.348  38.019  11.470
 4979W        W73397  14.327  44.908  12.514
 4980W        W73398  21.630  37.384  11.940
 4981W        W73399   2.433   6.349  12.032
 4982W        W73400   0.358   7.887   0.359
 4983W        W73401  41.930   0.348   1.434
 4984W        W73402  32.902  42.016   0.878
 4985W        W73403  16.695   4.224   0.909
 4986W        W73404  12.637  16.306  12.459
 4987W        W73405  33.616  40.865   1.300
 4988W        W73406  16.636  18.221  12.027
 4989W        W73407  44.330  11.741   0.739
 4990W        W73408  33.057  34.883  13.388
 4991W        W73409  22.514  40.512   4.776
 4992W        W73410  24.549  26.699   9.952
 4993W        W73411  33.596  40.969  11.980
 4994W        W73412  34.558  28.096   1.446
 4995W        W73413  19.077   7.742   0.876
 4996W        W73414  37.945  14.120  10.606
 4997W        W73415  41.913  39.484   0.798
 4998W        W73416   7.665  28.565   1.273
 4999W        W73417  19.625   0.973  10.491
 5000W        W73418  27.150  33.542  10.962
 5001W        W73419  38.839  39.973   3.299
 5002W        W73420   3.385  20.591   3.299
 5003W        W73421  23.511  30.469  12.896
 5004W        W73422  29.515  12.617   3.783
 5005W        W73423  34.516  34.523  12.536
 5006W        W73424   5.214  24.053   0.844
 5007W        W73425  29.457  42.356  13.980
 5008W        W73426  26.110  38.893  12.365
 5009W        W73427  42.794  25.150   2.758
 5010W        W73428  29.622  39.494   0.255
 5011W        W73429  33.922  17.164   3.670
 5012W        W73430  43.498  23.678   1.212
 5013W        W73431  36.046  11.641  13.450
 5014W        W73432   6.819   8.813   3.240
 5015W        W73433  23.558  28.459  12.405
 5016W        W73434  12.820  21.164   2.193
 5017W        W73435  18.551  35.589  10.596
 5018W        W73436   9.207  40.351   0.319
 5019W        W73437   8.336  37.085   2.262
 5020W        W73438   5.834  14.831   4.250
 5021W        W73439  41.293  12.307   1.911
 5022W        W73440   4.933  17.180  13.435
 5023W        W73441  44.446  40.317   0.264
 5024W        W73442  43.308  28.517   4.632
 5025W        W73443   4.722  42.842  12.356
 5026W        W73444  25.522  25.471   0.308
 5027W        W73445  22.191  22.064   4.261
 5028W        W73446  22.674   8.810   1.232
 5029W        W73447  39.860  27.540   4.124
 5030W        W73448  16.088  15.653  10.037
 5031W        W73449  23.580  12.162   1.372
 5032W        W73450  10.219  23.528   2.213
 5033W        W73451   7.191   9.743   0.413
 5034W        W73452  10.719  15.694   1.851
 5035W        W73453   8.185  28.065   3.297
 5036W        W73454  16.799  43.382  13.010
 5037W        W73455  31.938  32.078   4.323
 5038W        W73456  23.102  21.190  13.354
 5039W        W73457  12.176  15.611  13.041
 5040W        W73458  17.577   2.839  11.496
 5041W        W73459  23.202  42.503   1.806
 5042W        W73460  10.715  26.086   2.719
 5043W        W73461  15.601  35.856  12.487
 5044W        W73462  24.698  35.993  11.417
 5045W        W73463  33.015  24.706   2.714
 5046W        W73464  18.156  37.930   2.671
 5047W        W73465  21.204  30.541  12.501
 5048W        W73466  25.554   5.338  12.444
 5049W        W73467  23.571   1.337  10.460
 5050W        W73468  12.736  10.200   4.116
 5051W        W73469  36.998  23.655  11.066
 5052W        W73470   7.886   8.396  14.761
 5053W        W73471  32.097  33.458   2.250
 5054W        W73472   8.323  16.124   0.253
 5055W        W73473  26.666  31.001   2.271
 5056W        W73474  15.604  40.412  11.901
 5057W        W73475  23.072   8.676   2.226
 5058W        W73476  15.756  22.219   0.248
 5059W        W73477   6.372  40.858  11.563
 5060W        W73478   6.312  34.503   2.745
 5061W        W73479  19.162  35.972  11.928
 5062W        W73480  29.608  34.901  10.525
 5063W        W73481   6.412  39.860  14.508
 5064W        W73482  41.997   8.209   0.771
 5065W        W73483  19.233  36.475   3.219
 5066W        W73484   4.739  21.644   0.353
 5067W        W73485   6.710  32.620   0.759
 5068W        W73486  44.859  30.520  12.848
 5069W        W73487   3.307  22.560  13.504
 5070W        W73488  25.545  41.497  12.857
 5071W        W73489  23.231  31.002  12.002
 5072W        W73490  36.446  38.355   3.802
 5073W        W73491  42.355  32.575   3.263
 5074W        W73492  35.991   8.381   1.828
 5075W        W73493  24.670  24.045   0.403
 5076W        W73494  12.757  32.615  11.881
 5077W        W73495   5.834  28.460  12.470
 5078W        W73496  43.980  26.584  10.598
 5079W        W73497  17.287  28.969   1.875
 5080W        W73498   1.849  20.545  11.505
 5081W        W73499  38.860  40.444   2.344
 5082W        W73500  40.484  25.999   3.687
 5083W        W73501  39.503  22.132   3.643
 5084W        W73502  25.011  15.632   4.317
 5085W        W73503  29.592  44.847   2.752
 5086W        W73504  39.973  37.574  11.019
 5087W        W73505  41.976  43.412  12.904
 5088W        W73506  42.923  42.424   1.756
 5089W        W73507   3.321   5.759  10.936
 5090W        W73508   5.882  11.843   1.426
 5091W        W73509  17.702  18.286   0.751
 5092W        W73510  32.438  43.293   4.218
 5093W        W73511  32.583  11.865   3.807
 5094W        W73512   7.743  23.991   0.798
 5095W        W73513  33.955  13.137  10.115
 5096W        W73514  19.167  26.633  10.631
 5097W        W73515   5.253  20.632   0.304
 5098W        W73516  40.373  27.159   1.890
 5099W        W73517  36.543  19.769   3.268
 5100W        W73518  10.644  34.471  11.939
 5101W        W73519  25.991  11.224   1.821
 5102W        W73520  21.675   6.297  12.526
 5103W        W73521   6.823  26.615   2.271
 5104W        W73522  40.947  36.002   0.379
 5105W        W73523  42.422  36.508   4.647
 5106W        W73524  22.579  21.719   0.833
 5107W        W73525  31.647  28.616   3.374
 5108W        W73526  40.511  42.899  12.946
 5109W        W73527  24.593  33.089  14.759
 5110W        W73528  38.902  43.402  10.522
 5111W        W73529  14.205  10.732   0.833
 5112W        W73530  14.181  25.568   3.720
 5113W        W73531   7.803   9.753  11.567
 5114W        W73532  36.940  19.586   2.347
 5115W        W73533  37.433  13.154   3.264
 5116W        W73534  38.909  39.476   3.359
 5117W        W73535  37.532  15.108  10.586
 5118W        W73536  22.036  16.805   4.114
 5119W        W73537  35.375   9.873   3.753
 5120W        W73538   0.414  16.241  11.588
 5121W        W73539  37.444  20.637   3.761
 5122W        W73540   7.777  42.356   0.295
 5123W        W73541  26.593   9.819   5.174
 5124W        W73542   9.786  41.437  13.324
 5125W        W73543  39.426   4.252   4.691
 5126W        W73544  35.852   8.846  13.991
 5127W        W73545  42.500  42.447   1.261
 5128W        W73546  41.382   5.343  11.575
 5129W        W73547  36.868   6.856   2.717
 5130W        W73548  10.680  39.510  14.005
 5131W        W73549  42.022  32.031  12.929
 5132W        W73550  44.952  32.497   1.813
 5133W        W73551  21.122   7.804  14.847
 5134W        W73552   8.676  32.458   1.862
 5135W        W73553  11.247  41.431  11.961
 5136W        W73554  23.526   2.238  14.333
 5137W        W73555  16.207   3.907  14.450
 5138W        W73556  33.588  38.974   0.800
 5139W        W73557   6.763  42.513  14.816
 5140W        W73558   7.847  19.190   3.156
 5141W        W73559  33.452  29.664  14.849
 5142W        W73560  25.499  30.931  13.062
 5143W        W73561  43.450  44.785  11.485
 5144W        W73562  11.364  38.976  12.064
 5145W        W73563  37.859   8.378  14.333
 5146W        W73564  31.972  21.714   3.167
 5147W        W73565  30.561  32.500   1.365
 5148W        W73566  17.688  33.016  13.893
 5149W        W73567  22.549  36.017  11.975
 5150W        W73568  15.678  23.096  14.959
 5151W        W73569   8.732  36.557  14.327
 5152W        W73570   5.809  40.876  13.322
 5153W        W73571  32.978  39.444  13.334
 5154W        W73572  24.119  38.935  10.437
 5155W        W73573  28.057  34.984  14.929
 5156W        W73574  14.218  15.233   1.824
 5157W        W73575  43.785  32.570   4.142
 5158W        W73576  17.650  12.831   2.209
 5159W        W73577   3.836   0.475   1.786
 5160W        W73578  20.661  41.982   1.356
 5161W        W73579  43.430   9.352  14.825
 5162W        W73580   5.342   6.318  13.917
 5163W        W73581  20.589  33.107  12.443
 5164W        W73582  43.814  10.224  11.099
 5165W        W73583  26.029  28.570  11.118
 5166W        W73584  34.998  15.818   1.312
 5167W        W73585  10.694  36.450  12.929
 5168W        W73586  24.080   7.696  12.014
 5169W        W73587  39.810  29.098   0.771
 5170W        W73588  42.784  17.571  10.972
 5171W        W73589  16.164  14.292  11.556
 5172W        W73590   6.780  37.500   2.666
 5173W        W73591  23.523  26.523   1.215
 5174W        W73592  41.298  25.702  13.933
 5175W        W73593  13.635  20.581   0.285
 5176W        W73594  26.458  44.954   1.316
 5177W        W73595  33.444  18.690   1.211
 5178W        W73596  27.612  11.756   2.811
 5179W        W73597  44.384  22.598  13.845
 5180W        W73598  40.490  41.932   1.725
 5181W        W73599  13.116  30.085   3.658
 5182W        W73600  44.463  35.582   3.357
 5183W        W73601  12.706  39.029   1.435
 5184W        W73602  43.960  11.345   5.240
 5185W        W73603  27.679  17.706   1.839
 5186W        W73604  44.366  13.724  14.488
 5187W        W73605  37.470   4.746  14.846
 5188W        W73606  29.092  41.945  12.444
 5189W        W73607  37.856  12.317  11.574
 5190W        W73608  13.330  35.917  12.432
 5191W        W73609  40.880  21.535  13.933
 5192W        W73610  21.690  19.072   2.678
 5193W        W73611  24.507  32.993   2.803
 5194W        W73612   7.784   1.770   3.732
 5195W        W73613  44.895  37.843  10.409
 5196W        W73614  33.388   2.383  12.864
 5197W        W73615  28.610  33.518  14.401
 5198W        W73616  42.950  19.258   1.287
 5199W        W73617  39.009   9.809  10.925
 5200W        W73618   6.682   4.769  11.878
 5201W        W73619  16.575   2.886   2.384
 5202W        W73620   1.249  20.260   3.820
 5203W        W73621  25.999   1.767   4.285
 5204W        W73622  15.610  26.964   3.700
 5205W        W73623  17.611  14.164  12.450
 5206W        W73624  39.338  27.610  11.885
 5207W        W73625  30.975   2.912   0.457
 5208W        W73626   5.786  34.589   4.704
 5209W        W73627   3.256  29.097   2.702
 5210W        W73628  28.578  44.874   0.389
 5211W        W73629  23.538  15.752  11.556
 5212W        W73630  16.768  21.556   1.845
 5213W        W73631   2.774  11.333   4.777
 5214W        W73632  19.131   2.305  11.031
 5215W        W73633   4.913  10.138  12.055
 5216W        W73634  13.723  30.463  12.484
 5217W        W73635   7.686   8.875   0.891
 5218W        W73636  37.489  15.779   5.275
 5219W        W73637  19.044   3.333  13.904
 5220W        W73638  23.625  20.754  12.552
 5221W        W73639   5.310  29.620   3.733
 5222W        W73640   4.700   4.373   1.324
 5223W        W73641   0.759  24.031  12.579
 5224W        W73642  13.141  10.720   1.752
 5225W        W73643   2.305   0.774   3.675
 5226W        W73644  37.573  35.937  14.888
 5227W        W73645   3.907   5.804  12.444
 5228W        W73646  20.063  19.097  12.511
 5229W        W73647  20.095  44.348   4.666
 5230W        W73648  10.776  41.353  10.572
 5231W        W73649  24.517   4.404   3.682
 5232W        W73650  23.540  14.226   4.819
 5233W        W73651  25.589  23.695   3.663
 5234W        W73652  25.594   1.899   2.843
 5235W        W73653  16.108  33.909  14.840
 5236W        W73654  37.874   8.274  11.390
 5237W        W73655   5.796  43.511  14.840
 5238W        W73656   1.797  14.590  12.538
 5239W        W73657  23.197  44.361   2.888
 5240W        W73658   5.814   3.737   1.304
 5241W        W73659  27.569  10.663  10.935
 5242W        W73660  43.321  11.866   0.859
 5243W        W73661  36.569  27.529   0.918
 5244W        W73662  34.549  32.500   1.903
 5245W        W73663  40.391  23.171  13.543
 5246W        W73664  24.698  38.058   0.409
 5247W        W73665  17.639   6.366   2.305
 5248W        W73666  27.644   6.257  14.429
 5249W        W73667  32.904  38.905  13.404
 5250W        W73668  33.611  16.101  13.439
 5251W        W73669   3.299  25.583   4.767
 5252W        W73670   3.377  18.158  14.992
 5253W        W73671  31.609  34.023  11.094
 5254W        W73672  10.692  17.588  12.454
 5255W        W73673  38.938  22.044   1.445
 5256W        W73674   8.373  16.792   0.411
 5257W        W73675  15.202   9.724  10.888
 5258W        W73676  29.645  33.912  14.899
 5259W        W73677  24.693  30.062   1.925
 5260W        W73678  28.962  22.243   2.728
 5261W        W73679  41.884  10.770  13.811
 5262W        W73680  32.994   5.198  10.631
 5263W        W73681  14.742  41.936  12.496
 5264W        W73682  39.049   1.814  13.793
 5265W        W73683   9.743  24.680   0.820
 5266W        W73684  31.580  27.574   4.123
 5267W        W73685  26.979  40.889   4.326
 5268W        W73686  18.280   3.868  14.008
 5269W        W73687  28.605  19.232   3.325
 5270W        W73688  21.215  44.005  14.943
 5271W        W73689  22.680  19.741   9.932
 5272W        W73690  28.534  36.433   0.741
 5273W        W73691  10.167  31.440   1.855
 5274W        W73692  20.213  22.601   0.827
 5275W        W73693  13.214  36.869   4.133
 5276W        W73694  15.128  25.538   4.339
 5277W        W73695  39.053  16.240  13.042
 5278W        W73696  12.240  26.654   3.370
 5279W        W73697  15.154  31.943  11.413
 5280W        W73698  22.544   5.907   2.892
 5281W        W73699  39.530  23.581   1.893
 5282W        W73700  13.283   5.361   4.190
 5283W        W73701   5.836  42.816  13.030
 5284W        W73702  17.254  38.929   4.792
 5285W        W73703  11.171  37.551   2.383
 5286W        W73704  28.593  23.608   4.254
 5287W        W73705   9.235   6.816   2.401
 5288W        W73706  23.547  22.684   0.859
 5289W        W73707  35.571  21.532  12.536
 5290W        W73708  29.653  42.407   2.693
 5291W        W73709  27.134  13.113  13.509
 5292W        W73710   4.414  21.245  10.562
 5293W        W73711  31.032  17.587  11.380
 5294W        W73712  44.411  43.406   0.795
 5295W        W73713  39.381  24.663  13.002
 5296W        W73714  27.676  11.632   4.724
 5297W        W73715  15.128  33.536  14.938
 5298W        W73716  30.111   2.817   1.332
 5299W        W73717  37.073   1.969  12.512
 5300W        W73718  29.057  44.289   4.290
 5301W        W73719  17.139  24.105   2.753
 5302W        W73720  41.431  42.879  14.298
 5303W        W73721   7.252  16.079  10.461
 5304W        W73722  21.233   6.254   3.384
 5305W        W73723   7.289  13.299  13.426
 5306W        W73724   2.787  31.941   0.765
 5307W        W73725   0.268  42.007   4.639
 5308W        W73726  15.293  43.441  14.963
 5309W        W73727  23.999  41.906   3.747
 5310W        W73728  14.240  13.168  10.549
 5311W        W73729  10.260  17.645   1.441
 5312W        W73730  17.749   3.726   3.206
 5313W        W73731   2.306   2.826  10.484
 5314W        W73732   9.823  42.004  12.520
 5315W        W73733  17.202  28.487   2.380
 5316W        W73734  13.212   2.821  11.455
 5317W        W73735   8.688  16.760  12.482
 5318W        W73736  15.203   2.935  14.277
 5319W        W73737  38.481  22.085  11.938
 5320W        W73738  41.498  36.050   0.858
 5321W        W73739  30.649  35.021   1.744
 5322W        W73740  42.294  29.594   3.289
 5323W        W73741  34.388  33.463   0.360
 5324W        W73742  30.524  33.492   4.185
 5325W        W73743  14.128  28.650   3.326
 5326W        W73744  12.620  10.159   0.902
 5327W        W73745   5.776   2.727  14.473
 5328W        W73746  37.997  19.095  14.930
 5329W        W73747   9.348  20.558  14.861
 5330W        W73748  38.379  43.483   4.324
 5331W        W73749  43.903  21.113   2.316
 5332W        W73750  14.179  13.169   4.315
 5333W        W73751  11.331  43.315   2.759
 5334W        W73752  12.300  33.514  13.522
 5335W        W73753  22.148  33.557   0.965
 5336W        W73754  43.398  17.586   2.838
 5337W        W73755  37.370   1.913  12.371
 5338W        W73756   9.815  19.539  14.768
 5339W        W73757  16.144  40.935   2.189
 5340W        W73758  16.732  22.744   4.637
 5341W        W73759  19.252  44.353  12.974
 5342W        W73760  28.475  12.796   1.702
 5343W        W73761  40.961  34.106  14.816
 5344W        W73762  20.600  35.965  13.391
 5345W        W73763  16.643  12.275  12.012
 5346W        W73764  35.371  44.861   2.893
 5347W        W73765  34.505  28.469   1.268
 5348W        W73766  27.684  33.512  10.903
 5349W        W73767  15.629  21.588   1.795
 5350W        W73768  28.933  17.159   3.209
 5351W        W73769  18.235  21.530   0.879
 5352W        W73770  41.025  36.946   0.266
 5353W        W73771  25.191   4.207   0.834
 5354W        W73772  34.446  40.308  10.496
 5355W        W73773  16.101  20.687   1.885
 5356W        W73774   8.249   6.782   0.476
 5357W        W73775   4.907  13.693   4.283
 5358W        W73776  25.684   6.825  13.476
 5359W        W73777  21.699  38.055   1.323
 5360W        W73778  32.082  37.832  11.445
 5361W        W73779  35.528   3.882   2.841
 5362W        W73780  42.319  18.238   3.822
 5363W        W73781  38.935  34.463   3.318
 5364W        W73782  36.415  21.236   1.393
 5365W        W73783  18.082   2.383  12.531
 5366W        W73784  24.120   2.746   3.227
 5367W        W73785  26.112  26.979  13.909
 5368W        W73786  17.643  19.569   4.116
 5369W        W73787   1.305  11.647  14.325
 5370W        W73788  44.482   2.898  13.820
 5371W        W73789  44.299  21.071   3.712
 5372W        W73790  32.587  23.045   2.232
 5373W        W73791   2.834  36.447   0.738
 5374W        W73792  19.155  34.497   3.767
 5375W        W73793  19.114  11.810  13.865
 5376W        W73794  21.141  32.539  14.391
 5377W        W73795   6.218  29.070  12.411
 5378W        W73796  21.706  27.487  14.976
 5379W        W73797   9.884  22.027   1.723
 5380W        W73798  18.072   9.704  13.842
 5381W        W73799  38.561  13.725   1.775
 5382W        W73800  21.558  34.525   1.330
 5383W        W73801   7.336  29.012  12.502
 5384W        W73802  35.984   4.276  13.530
 5385W        W73803  19.741  13.842  11.026
 5386W        W73804  28.115  39.919   9.960
 5387W        W73805   9.270   7.367   1.924
 5388W        W73806   0.943  11.664   0.768
 5389W        W73807  35.536  44.835   3.359
 5390W        W73808  34.966   7.739   3.372
 5391W        W73809  37.895   7.842   0.956
 5392W        W73810  23.531  38.030   5.772
 5393W        W73811  21.621  37.833  11.610
 5394W        W73812  29.956  34.598  12.057
 5395W        W73813  21.063   1.928   1.878
 5396W        W73814  25.696  35.398  10.601
 5397W        W73815  36.368  15.654  12.979
 5398W        W73816   7.879  11.135   4.622
 5399W        W73817  15.779  21.049   4.714
 5400W        W73818  22.214  39.971   3.791
 5401W        W73819  23.641  36.351   2.206
 5402W        W73820   4.819  25.115   4.345
 5403W        W73821  27.454  30.020  14.316
 5404W        W73822  27.632  16.688  14.431
 5405W        W73823  15.304  25.204  13.428
 5406W        W73824   3.245  29.619   4.221
 5407W        W73825  29.142  37.978   3.297
 5408W        W73826  13.170   6.904   2.728
 5409W        W73827  26.189   2.373   2.670
 5410W        W73828  27.190  43.786   4.831
 5411W        W73829  37.561  23.686  13.884
 5412W        W73830   7.233  21.694  12.988
 5413W        W73831  35.383  24.644  14.475
 5414W        W73832  41.526  27.163   4.131
 5415W        W73833  11.294   3.844  14.783
 5416W        W73834  37.840  19.583   5.248
 5417W        W73835  26.588  23.564   2.297
 5418W        W73836  29.569  32.572  14.322
 5419W        W73837  22.692  44.950  11.445
 5420W        W73838  44.804  16.242  14.865
 5421W        W73839   1.757   3.285   4.796
 5422W        W73840   0.412   4.717  14.480
 5423W        W73841  35.542  43.979  12.953
 5424W        W73842  22.624  40.516   4.257
 5425W        W73843  22.182  40.942  12.992
 5426W        W73844  36.534   3.727  14.835
 5427W        W73845  17.656   8.850   3.304
 5428W        W73846  25.044   5.924   2.365
 5429W        W73847   9.334   8.659  13.794
 5430W        W73848  41.524  15.221   1.316
 5431W        W73849  38.958  26.552  11.071
 5432W        W73850  21.583  33.437   4.171
 5433W        W73851  36.042  38.002  13.376
 5434W        W73852  13.649  41.842   1.441
 5435W        W73853  24.636  25.471   0.792
 5436W        W73854  40.498  22.672   1.910
 5437W        W73855   4.753  27.619  13.371
 5438W        W73856   0.775  29.556  14.393
 5439W        W73857  15.135  43.336   3.655
 5440W        W73858  38.072  25.535   0.947
 5441W        W73859  15.131  27.067   2.855
 5442W        W73860  30.968  43.806  11.893
 5443W        W73861   6.865  17.228  12.548
 5444W        W73862  35.947  38.435   1.762
 5445W        W73863  24.979  23.676  11.113
 5446W        W73864  19.073  16.572   4.600
 5447W        W73865  39.951  36.927  13.535
 5448W        W73866   7.707  44.883  11.876
 5449W        W73867  16.260  30.008   4.301
 5450W        W73868  25.072  34.374   2.903
 5451W        W73869   7.678  15.647  10.135
 5452W        W73870  13.800  32.007   4.824
 5453W        W73871  41.986  40.035  11.894
 5454W        W73872  44.359  20.759  13.018
 5455W        W73873  35.522  39.013   0.366
 5456W        W73874   0.952  33.999  10.597
 5457W        W73875  25.645  39.330  11.058
 5458W        W73876  19.686  22.518   1.296
 5459W        W73877   3.726   1.746  10.521
 5460W        W73878   3.757  32.030   1.910
 5461W        W73879  41.931  15.759  11.483
 5462W        W73880  22.527  35.916   5.131
 5463W        W73881  33.960  28.014   0.759
 5464W        W73882  21.135  30.659   4.175
 5465W        W73883  42.835  24.185  13.363
 5466W        W73884  28.109   6.703   5.222
 5467W        W73885  41.911  32.016   3.703
 5468W        W73886  18.080  33.494   1.859
 5469W        W73887  35.007  20.659  14.339
 5470W        W73888   1.278  21.557   4.113
 5471W        W73889  22.506  38.967   9.979
 5472W        W73890  19.264  19.149  12.374
 5473W        W73891  34.482  24.510   0.359
 5474W        W73892  29.107  29.441   0.870
 5475W        W73893  29.169  33.584   4.727
 5476W        W73894  29.944  33.105  13.060
 5477W        W73895   3.921  17.684  12.881
 5478W        W73896  32.090  30.936  11.117
 5479W        W73897  24.220  31.100  14.440
 5480W        W73898   6.233  24.582  14.352
 5481W        W73899  43.445   4.763  14.483
 5482W        W73900   7.262  43.827   1.389
 5483W        W73901  37.846   6.194  11.978
 5484W        W73902   0.881  23.646  10.530
 5485W        W73903  37.967  34.577  10.470
 5486W        W73904  30.535  18.772  11.017
 5487W        W73905  35.066  24.551  12.546
 5488W        W73906  13.659  21.628  12.971
 5489W        W73907  38.542   5.424  14.439
 5490W        W73908  20.593   5.870  14.979
 5491W        W73909  23.492  40.506  11.464
 5492W        W73910   2.229  43.301   2.387
 5493W        W73911  29.532  38.532  14.474
 5494W        W73912  14.300  23.989  14.304
 5495W        W73913   6.392  31.922  11.013
 5496W        W73914  12.721  29.995   1.247
 5497W        W73915   6.820   1.376  14.444
 5498W        W73916   3.398  44.500   4.750
 5499W        W73917  38.454  35.591  14.442
 5500W        W73918  21.671  44.989  13.002
 5501W        W73919  27.184  41.293  14.945
 5502W        W73920  22.672  23.106   1.257
 5503W        W73921   4.337  14.779  11.376
 5504W        W73922  14.799  27.185   4.765
 5505W        W73923  20.261  19.560   3.637
 5506W        W73924   8.296  24.697  13.470
 5507W        W73925  42.312  25.067  11.376
 5508W        W73926  18.114   1.874  11.529
 5509W        W73927   2.923  22.055  11.501
 5510W        W73928  43.299  39.438   3.680
 5511W        W73929  23.088  22.603  11.031
 5512W        W73930  15.307  16.721   1.267
 5513W        W73931  38.989  44.286  11.992
 5514W        W73932  28.105  27.082  12.580
 5515W        W73933  43.827  12.809  12.039
 5516W        W73934   9.794   8.350   3.728
 5517W        W73935  17.715   8.205  12.853
 5518W        W73936  31.565  21.135  13.514
 5519W        W73937   9.279  23.045   2.820
 5520W        W73938  44.797  14.783   1.820
 5521W        W73939   5.272  37.578  13.510
 5522W        W73940   1.913  10.819   0.294
 5523W        W73941  32.581  42.818   0.757
 5524W        W73942  27.604   2.938   1.790
 5525W        W73943  23.500  30.497   0.245
 5526W        W73944  24.480  20.256   0.732
 5527W        W73945  34.553  25.619  10.993
 5528W        W73946  42.503  35.515   3.824
 5529W        W73947   4.749   7.216  10.561
 5530W        W73948  31.899  31.477  11.002
 5531W        W73949   0.808  20.116  13.440
 5532W        W73950  40.001  42.939  12.528
 5533W        W73951  34.422  11.144  13.952
 5534W        W73952  11.693  32.126   4.235
 5535W        W73953  12.612  32.077   3.707
 5536W        W73954  22.604  41.319  11.956
 5537W        W73955   9.309  40.438  10.511
 5538W        W73956   4.916  43.968   3.689
 5539W        W73957  43.339  24.204   9.569
 5540W        W73958  29.980  17.635   1.908
 5541W        W73959   7.223  13.282   3.342
 5542W        W73960  23.221  17.772  11.918
 5543W        W73961  13.708   7.907  14.386
 5544W        W73962  38.406  16.811  11.080
 5545W        W73963  34.116   7.726  14.798
 5546W        W73964  15.230  26.476   3.659
 5547W        W73965  19.172   0.757   1.903
 5548W        W73966  37.079  24.063  11.897
 5549W        W73967  10.661  13.266  12.840
 5550W        W73968  17.789  30.115  12.083
 5551W        W73969  37.481  41.011  12.445
 5552W        W73970   9.651  19.564  10.524
 5553W        W73971   0.943  21.732  12.510
 5554W        W73972  38.534  12.673   1.331
 5555W        W73973   7.849   9.728  14.768
 5556W        W73974  13.801  16.082   2.206
 5557W        W73975  22.112  38.898  13.806
 5558W        W73976  40.954  31.078  14.767
 5559W        W73977  14.627   9.267   3.341
 5560W        W73978  15.805  28.033   3.656
 5561W        W73979  36.850  33.921   1.924
 5562W        W73980   6.412   9.816   0.425
 5563W        W73981  38.866  22.009   4.751
 5564W        W73982   1.407  23.100   9.940
 5565W        W73983  34.925  15.729   4.738
 5566W        W73984   9.711  15.092   4.223
 5567W        W73985   3.788  14.626   4.666
 5568W        W73986  36.897  33.468  14.441
 5569W        W73987  15.143   1.260   3.360
 5570W        W73988   9.385   3.231  10.992
 5571W        W73989  10.656   3.297  11.594
 5572W        W73990   7.355  16.582  11.891
 5573W        W73991  10.761  43.436   0.475
 5574W        W73992   8.379  42.792  11.940
 5575W        W73993  12.747  18.204   4.605
 5576W        W73994   7.884  22.629  11.409
 5577W        W73995   3.343  10.278  12.454
 5578W        W73996  25.130  18.618   1.846
 5579W        W73997  18.154   2.804  11.125
 5580W        W73998  36.084   0.810   1.929
 5581W        W73999   4.287  24.483   2.884
 5582W        W74000  22.673  28.502  10.409
 5583W        W74001  30.454  36.016   4.678
 5584W        W74002  13.737  34.110  13.800
 5585W        W74003   5.433  44.970   4.742
 5586W        W74004  18.129  26.997  11.417
 5587W        W74005   8.799   0.342  12.423
 5588W        W74006  26.158  29.981   0.768
 5589W        W74007  20.172  38.546   2.831
 5590W        W74008  41.536  39.440   0.445
 5591W        W74009  15.798  20.251  11.434
 5592W        W74010   0.846   2.395   3.671
 5593W        W74011   5.826  41.980   3.190
 5594W        W74012  35.879  16.794   0.834
 5595W        W74013  27.020   8.320   0.773
 5596W        W74014   9.657  23.625  13.482
 5597W        W74015  44.789  35.991   4.823
 5598W        W74016   9.723  18.172  14.462
 5599W        W74017  35.602  11.191   1.223
 5600W        W74018  36.046  37.885   0.456
 5601W        W74019  12.143  25.583   0.894
 5602W        W74020  37.030  20.634   4.677
 5603W        W74021  25.509   7.797   0.888
 5604W        W74022  17.723  31.981   0.864
 5605W        W74023  15.774  26.489  12.035
 5606W        W74024  29.132   7.274  12.025
 5607W        W74025   9.264  15.222   1.773
 5608W        W74026  26.047   7.180   5.216
 5609W        W74027   4.279  33.070   3.662
 5610W        W74028  26.577  18.208  13.870
 5611W        W74029  18.736  32.593   1.225
 5612W        W74030  18.716  27.986  13.893
 5613W        W74031   1.810  27.133   0.895
 5614W        W74032  25.525  26.977   0.910
 5615W        W74033  11.302  40.335  11.429
 5616W        W74034  34.525  16.310  12.827
 5617W        W74035  14.608  24.139   3.272
 5618W        W74036  25.610  29.510  12.536
 5619W        W74037  31.410   0.434  12.995
 5620W        W74038   3.752   1.326  11.930
 5621W        W74039   8.683  43.824  14.450
 5622W        W74040  43.376  22.060  10.978
 5623W        W74041  33.997   9.220   3.695
 5624W        W74042  27.001  15.275  14.780
 5625W        W74043  44.988  17.071   4.300
 5626W        W74044  31.911  24.100   0.881
 5627W        W74045  12.196  34.572  10.893
 5628W        W74046  23.712  12.272  14.300
 5629W        W74047  31.076   7.412  13.057
 5630W        W74048  22.606   7.220  13.541
 5631W        W74049   6.288  42.935  11.541
 5632W        W74050   5.206  13.793   3.357
 5633W        W74051  39.957   1.358  14.824
 5634W        W74052  36.379  17.766  10.553
 5635W        W74053  42.969  14.725  11.586
 5636W        W74054  14.678  11.853  12.970
 5637W        W74055   1.895   4.884   0.738
 5638W        W74056  40.357   8.242   2.857
 5639W        W74057  29.104  18.283   1.231
 5640W        W74058  17.206   8.189  13.899
 5641W        W74059  42.394  34.918   4.677
 5642W        W74060  27.450  15.144  12.997
 5643W        W74061   0.904  42.413  10.540
 5644W        W74062  14.111  10.675  11.403
 5645W        W74063  14.110  30.927  14.953
 5646W        W74064  44.821  38.561  11.940
 5647W        W74065  13.223   1.474   2.395
 5648W        W74066  15.170  38.852  13.514
 5649W        W74067  25.149   5.382   4.819
 5650W        W74068  38.346  42.373  14.343
 5651W        W74069  10.375   9.208   1.715
 5652W        W74070  41.789  36.489  13.473
 5653W        W74071   6.213   5.863   4.686
 5654W        W74072   7.746  44.493   1.292
 5655W        W74073  27.136  13.114  11.372
 5656W        W74074   1.769  42.465  12.976
 5657W        W74075   1.329  44.961  10.558
 5658W        W74076  21.593   7.247  11.598
 5659W        W74077   0.913  40.494   5.293
 5660W        W74078  19.617  11.222   4.204
 5661W        W74079  18.205  12.817   0.840
 5662W        W74080  28.935  29.465   0.246
 5663W        W74081  40.018   2.434   0.749
 5664W        W74082  26.115  12.720   3.800
 5665W        W74083  31.595  10.213  12.536
 5666W        W74084  35.447   2.300  12.361
 5667W        W74085  22.627   6.365   4.311
 5668W        W74086  31.960  41.477   3.804
 5669W        W74087  18.732  38.914   4.162
 5670W        W74088  12.191  35.083  12.019
 5671W        W74089  36.471   6.428   4.336
 5672W        W74090  34.113   5.713   0.815
 5673W        W74091  32.616  18.715   2.251
 5674W        W74092  12.849  25.566   3.344
 5675W        W74093  29.924  43.313  12.482
 5676W        W74094  18.553  42.436   2.868
 5677W        W74095  23.610  34.013   3.743
 5678W        W74096  33.434  40.520  14.998
 5679W        W74097  23.566  33.495   4.151
 5680W        W74098  41.309   4.723   1.899
 5681W        W74099  30.153  26.568  10.056
 5682W        W74100  10.746  40.478  14.382
 5683W        W74101  43.984  10.657   4.184
 5684W        W74102   2.727  41.507   0.330
 5685W        W74103   9.828  44.446  11.856
 5686W        W74104   9.178  39.002  13.431
 5687W        W74105  24.660  16.759   1.340
 5688W        W74106   0.250  14.184  11.860
 5689W        W74107  32.563  29.569   1.351
 5690W        W74108  35.890  23.569   4.642
 5691W        W74109  33.535  39.557   0.776
 5692W        W74110  24.097  41.962   1.893
 5693W        W74111  30.618   7.834  10.557
 5694W        W74112  35.096  11.254   3.250
 5695W        W74113  13.220  17.674   0.453
 5696W        W74114  22.531  13.336   0.418
 5697W        W74115  40.365  23.620  14.310
 5698W        W74116  24.665  12.722  11.899
 5699W        W74117  10.739  11.668   4.200
 5700W        W74118  27.489   4.268   0.922
 5701W        W74119  26.544  10.360   5.224
 5702W        W74120  13.812  15.226  14.797
 5703W        W74121  40.502  28.173  10.569
 5704W        W74122  41.837  21.629   0.738
 5705W        W74123  19.072  27.565   0.398
 5706W        W74124   4.442  40.546   2.780
 5707W        W74125  34.968  41.313   4.798
 5708W        W74126  34.035  30.005  14.494
 5709W        W74127  13.294  24.071  11.088
 5710W        W74128  24.611  22.708   2.407
 5711W        W74129  38.493  33.908  14.413
 5712W        W74130  37.558  20.226   4.250
 5713W        W74131  43.902  14.122   2.252
 5714W        W74132  10.141  19.277  14.819
 5715W        W74133  19.538  35.981   2.191
 5716W        W74134  30.544  23.229  11.955
 5717W        W74135  19.150  10.181   2.803
 5718W        W74136  33.082  14.259  14.970
 5719W        W74137  35.069  21.153   2.240
 5720W        W74138  20.203  35.029   4.309
 5721W        W74139  34.608  15.717  14.792
 5722W        W74140  10.312  28.506  13.525
 5723W        W74141  28.454  35.960   3.332
 5724W        W74142  28.041   4.398   0.729
 5725W        W74143   4.829  42.837  11.438
 5726W        W74144  19.270  32.439  14.760
 5727W        W74145  43.481   2.394  11.599
 5728W        W74146  14.616   7.377  14.500
 5729W        W74147   0.300  16.581   2.323
 5730W        W74148  37.916  34.959  12.913
 5731W        W74149  41.826   0.439   0.865
 5732W        W74150  20.677   9.218   0.823
 5733W        W74151  27.577  16.637  14.907
 5734W        W74152  35.468  15.710   0.756
 5735W        W74153  24.018  20.260  12.545
 5736W        W74154  43.870  17.141  12.546
 5737W        W74155  39.513   0.255   2.301
 5738W        W74156  42.434  42.895   2.756
 5739W        W74157   4.440  39.382   1.767
 5740W        W74158  11.738  42.380   3.636
 5741W        W74159   7.822  34.444  12.904
 5742W        W74160   7.855  29.650   4.599
 5743W        W74161   2.745  31.422  14.906
 5744W        W74162  38.055   9.657  13.463
 5745W        W74163  24.714  26.102   1.323
 5746W        W74164  21.045  10.849  13.817
 5747W        W74165  38.937  37.925   1.752
 5748W        W74166   7.896  30.604  11.415
 5749W        W74167  38.863  24.530  14.948
 5750W        W74168  37.429  30.517   1.234
 5751W        W74169   6.202  29.640  13.981
 5752W        W74170  12.674  26.017   0.826
 5753W        W74171  25.152  37.414  12.445
 5754W        W74172  40.880   7.410  10.909
 5755W        W74173  18.187  30.650  11.072
 5756W        W74174   4.768  35.857   1.752
 5757W        W74175   0.772  42.007  10.443
 5758W        W74176  11.325  19.705   2.725
 5759W        W74177  24.648  42.281  13.042
 5760W        W74178   5.388   9.390   0.755
 5761W        W74179  36.378  27.113   1.917
 5762W        W74180  33.530  21.583  11.080
 5763W        W74181  13.340  33.547  14.515
 5764W        W74182  38.326  26.531   1.725
 5765W        W74183  31.406  30.615   4.131
 5766W        W74184  18.070  42.940  10.914
 5767W        W74185  16.121   5.772   3.212
 5768W        W74186  12.226  11.826   4.308
 5769W        W74187  43.005  28.136   4.172
 5770W        W74188  32.039   7.275  12.915
 5771W        W74189  11.799  29.510   2.325
 5772W        W74190  35.873  37.977  10.615
 5773W        W74191  35.952  26.119   1.217
 5774W        W74192  10.694   6.677  12.409
 5775W        W74193  42.473  28.632  13.795
 5776W        W74194  34.993  17.136   2.842
 5777W        W74195   6.250   7.276  11.593
 5778W        W74196   7.352   7.190  12.994
 5779W        W74197  14.647  14.755   0.454
 5780W        W74198   4.876  22.528   0.466
 5781W        W74199  32.506  16.757   3.297
 5782W        W74200  16.748   6.858   2.243
 5783W        W74201  30.966  30.546   3.810
 5784W        W74202  37.956  41.306   2.295
 5785W        W74203  41.467   9.368  13.803
 5786W        W74204  16.181  12.857  14.282
 5787W        W74205   8.834  21.540  13.388
 5788W        W74206   4.441  32.483  13.491
 5789W        W74207  19.698  34.072  14.853
 5790W        W74208  30.474  30.953   2.843
 5791W        W74209   6.340  20.632   2.386
 5792W        W74210  41.876  15.093  10.529
 5793W        W74211  36.449  36.091  11.089
 5794W        W74212  25.534   7.905   1.249
 5795W        W74213  32.017  20.620  12.476
 5796W        W74214  33.571   9.818  11.888
 5797W        W74215  24.578   2.908  12.968
 5798W        W74216  37.567  28.985  12.443
 5799W        W74217  18.589  15.715   1.430
 5800W        W74218  37.900  35.383  10.937
 5801W        W74219  34.475  21.071   0.402
 5802W        W74220   1.392  39.944  13.538
 5803W        W74221  31.530  31.463   0.328
 5804W        W74222  31.017  41.884   2.331
 5805W        W74223  33.875  32.398  10.439
 5806W        W74224  41.929  24.160  12.363
 5807W        W74225   2.401  41.023  12.073
 5808W        W74226   3.238  11.283   1.781
 5809W        W74227   1.802  19.636   1.267
 5810W        W74228  38.505   9.219   1.905
 5811W        W74229  44.976   8.205   2.331
 5812W        W74230  32.450  11.177   4.833
 5813W        W74231  28.568   3.223  10.991
 5814W        W74232  39.062   7.838   2.665
 5815W        W74233  42.356  32.598  11.547
 5816W        W74234  13.794   4.279  13.981
 5817W        W74235  21.749  26.113  14.427
 5818W        W74236  40.925  44.398  12.998
 5819W        W74237  21.018  11.753   2.888
 5820W        W74238  33.029  44.882  12.438
 5821W        W74239  22.178  39.003   3.833
 5822W        W74240  17.761  13.236   3.820
 5823W        W74241   2.941   3.861   0.450
 5824W        W74242  32.475   3.770   0.387
 5825W        W74243   7.907  18.674  11.611
 5826W        W74244  17.227   9.695   2.196
 5827W        W74245  14.214  13.701  13.353
 5828W        W74246   6.274   1.946  12.042
 5829W        W74247   4.447  34.098   4.651
 5830W        W74248   5.317  33.924   3.342
 5831W        W74249  13.292   6.196  12.956
 5832W        W74250   1.480  27.008   0.320
 5833W        W74251  18.630  39.438  11.973
 5834W        W74252  21.755  39.316   0.360
 5835W        W74253  31.435  15.607   3.862
 5836W        W74254   4.443  33.950  12.831
 5837W        W74255   4.431  40.344  12.534
 5838W        W74256   5.300  43.931   1.706
 5839W        W74257  22.178  18.188  11.974
 5840W        W74258   1.936  36.049  14.902
 5841W        W74259  25.530  26.629   4.650
 5842W        W74260  38.440  31.530  10.978
 5843W        W74261  28.589  37.557   0.769
 5844W        W74262  15.730  27.177   4.663
 5845W        W74263  44.820  37.843   1.386
 5846W        W74264  12.203  16.111   0.461
 5847W        W74265  35.909   1.939   0.803
 5848W        W74266  33.557  29.495   3.203
 5849W        W74267  33.465  30.438  10.020
 5850W        W74268  34.081  42.801  12.439
 5851W        W74269  19.600   9.212  13.016
 5852W        W74270  26.971   5.293   0.967
 5853W        W74271  40.919  22.213   0.809
 5854W        W74272  34.893  43.411   2.868
 5855W        W74273   1.850   0.881  13.431
 5856W        W74274  11.808  31.094   1.749
 5857W        W74275  14.709  27.647   4.291
 5858W        W74276  23.053  41.038  12.446
 5859W        W74277   7.361   0.973   3.171
 5860W        W74278  32.015  44.757   0.919
 5861W        W74279  20.090  22.579   4.688
 5862W        W74280  27.505  31.134  11.121
 5863W        W74281  23.624  10.718  13.924
 5864W        W74282  23.126  37.404   0.835
 5865W        W74283  26.102  43.957  11.914
 5866W        W74284  14.757  16.801  10.911
 5867W        W74285  12.158  36.353   2.875
 5868W        W74286  27.616  43.816  14.422
 5869W        W74287  38.888  42.448  12.563
 5870W        W74288  23.661  13.772  13.323
 5871W        W74289  27.039  28.567  12.513
 5872W        W74290  31.549  34.924  12.865
 5873W        W74291  31.593  42.525  12.994
 5874W        W74292   8.317  41.913  12.476
 5875W        W74293   7.846  16.659  10.641
 5876W        W74294  44.267   6.697  14.891
 5877W        W74295  39.353  19.185  11.892
 5878W        W74296  10.705  28.444  10.457
 5879W        W74297  35.550  29.447   2.837
 5880W        W74298  37.459   2.831  12.347
 5881W        W74299   4.406   9.300  12.518
 5882W        W74300  15.647  19.119   1.363
 5883W        W74301   2.788  14.320   0.855
 5884W        W74302  43.814  13.340   0.336
 5885W        W74303  35.902  42.006  10.946
 5886W        W74304  16.702  20.611   4.807
 5887W        W74305  15.287  40.318   1.266
 5888W        W74306  27.450  29.647  13.353
 5889W        W74307  12.320  18.217  13.860
 5890W        W74308  41.830   2.276   3.328
 5891W        W74309  29.130  36.046  12.973
 5892W        W74310  17.117  43.893   4.201
 5893W        W74311   8.847   6.383  11.005
 5894W        W74312   2.952  30.052   2.325
 5895W        W74313   8.274   2.759  14.788
 5896W        W74314  44.905  16.594   1.774
 5897W        W74315  27.171  27.110   2.748
 5898W        W74316  39.456   1.785  12.866
 5899W        W74317   6.714  16.218  11.075
 5900W        W74318  38.394   0.270  14.492
 5901W        W74319  42.891  11.369   9.509
 5902W        W74320  22.072  37.554  13.987
 5903W        W74321  44.347  35.075  14.010
 5904W        W74322  43.334  26.570  13.046
 5905W        W74323  18.052  26.497  10.890
 5906W        W74324   6.897  34.402  12.890
 5907W        W74325   4.410  21.674  13.433
 5908W        W74326  40.861  39.357   5.602
 5909W        W74327   5.266   3.375  10.952
 5910W        W74328  11.789  41.440  10.564
 5911W        W74329  31.944  14.302  12.987
 5912W        W74330  22.715  17.710   1.398
 5913W        W74331   3.294  21.263   1.244
 5914W        W74332  35.916  34.471   4.739
 5915W        W74333  32.085   3.282   5.210
 5916W        W74334  18.556  32.515  10.908
 5917W        W74335   9.750  10.214  12.354
 5918W        W74336  13.157  17.563  12.416
 5919W        W74337  10.781   9.309  14.322
 5920W        W74338   6.193   2.839   1.257
 5921W        W74339  38.904  33.387   0.366
 5922W        W74340  11.329  41.029   4.147
 5923W        W74341  25.037  43.924  12.521
 5924W        W74342  39.404   3.374   3.786
 5925W        W74343  21.600  31.445   1.316
 5926W        W74344  32.582  25.644   2.361
 5927W        W74345   7.850  21.155  10.575
 5928W        W74346  38.935  27.658  11.610
 5929W        W74347  22.616  18.552  10.529
 5930W        W74348  24.658  44.883   3.738
 5931W        W74349  18.170  24.215  11.548
 5932W        W74350   1.421  43.503  11.065
 5933W        W74351  23.527  44.849  10.447
 5934W        W74352  35.519  19.579   4.186
 5935W        W74353  16.225  24.988  14.385
 5936W        W74354  44.474   5.843   2.856
 5937W        W74355  32.038  43.018  10.639
 5938W        W74356  36.557  19.721  10.978
 5939W        W74357  15.299  34.869  13.395
 5940W        W74358  35.555   7.352  10.917
 5941W        W74359  17.680  17.095   1.245
 5942W        W74360  14.615  38.977   3.820
 5943W        W74361   5.728  31.498   2.785
 5944W        W74362  35.421  19.608  13.466
 5945W        W74363  25.591   1.370   1.288
 5946W        W74364  22.026  16.778   2.394
 5947W        W74365  13.314  28.521  12.029
 5948W        W74366  39.006  22.502  12.569
 5949W        W74367  44.372  15.257  12.904
 5950W        W74368   9.291  14.703  10.910
 5951W        W74369   3.880  10.250  10.454
 5952W        W74370  21.573  33.611   0.860
 5953W        W74371   0.415   9.195  10.584
 5954W        W74372   8.227  33.524  14.866
 5955W        W74373  29.622  19.271  12.467
 5956W        W74374  31.921  27.942   4.123
 5957W        W74375   7.201  18.595   1.421
 5958W        W74376  36.886  12.755   2.662
 5959W        W74377  11.332   5.847   4.687
 5960W        W74378  12.737  11.815  10.567
 5961W        W74379   1.808  26.491   4.214
 5962W        W74380  21.170  26.604  10.066
 5963W        W74381  36.866  35.880   1.887
 5964W        W74382  30.091  21.739   3.659
 5965W        W74383  37.425   7.228  11.395
 5966W        W74384   4.919   9.331   0.863
 5967W        W74385  13.830  33.117  12.040
 5968W        W74386  10.833   0.309  12.520
 5969W        W74387  31.574  28.502  12.473
 5970W        W74388  36.464  27.005   2.417
 5971W        W74389   0.747  28.500  12.449
 5972W        W74390   8.179  37.448  12.826
 5973W        W74391   5.390   0.800   3.724
 5974W        W74392  41.816  33.551  13.061
 5975W        W74393  10.194   0.274  14.777
 5976W        W74394  33.525  23.623  10.157
 5977W        W74395  24.512  17.673  12.060
 5978W        W74396  38.071   7.235  13.371
 5979W        W74397  32.086   2.861  11.934
 5980W        W74398  44.000  28.948   4.259
 5981W        W74399  38.010   5.339   3.639
 5982W        W74400  38.514   9.325  11.565
 5983W        W74401  27.476   9.828   1.694
 5984W        W74402  11.747  38.392  11.890
 5985W        W74403   9.871  36.472  13.447
 5986W        W74404  18.699  28.607   2.374
 5987W        W74405  22.073  38.467   2.754
 5988W        W74406  15.221  32.892  13.356
 5989W        W74407  29.992  18.162   2.377
 5990W        W74408  15.807  26.130   0.344
 5991W        W74409  13.289  38.063  12.341
 5992W        W74410  29.922  13.746  12.549
 5993W        W74411  15.127  31.926  12.570
 5994W        W74412  18.276  34.559   1.918
 5995W        W74413  14.638  34.454  14.406
 5996W        W74414  15.785  38.526  14.008
 5997W        W74415  21.236  37.404   5.083
 5998W        W74416  37.492  41.425   4.772
 5999W        W74417  17.799  11.852  14.010
 6000W        W74418  39.386  12.291   3.818
 6001W        W74419  38.388  14.095  14.833
 6002W        W74420  23.711  15.824  14.944
 6003W        W74421  16.284   3.315  10.588
 6004W        W74422   4.333   0.377   4.618
 6005W        W74423   4.418  20.561   1.256
 6006W        W74424   6.354  30.928   1.828
 6007W        W74425  30.573  20.543   4.210
 6008W        W74426  39.493   3.799   4.676
 6009W        W74427  13.746   9.358  10.893
 6010W        W74428  20.213  17.298  14.476
 6011W        W74429   5.270  43.012  13.933
 6012W        W74430  15.228  26.520   2.671
 6013W        W74431  11.354  17.753   1.372
 6014W        W74432   2.243  33.390  10.917
 6015W        W74433  34.553  16.178  11.118
 6016W        W74434  11.770  30.939   4.778
 6017W        W74435  10.236  38.535  13.036
 6018W        W74436  38.440   6.298   4.120
 6019W        W74437  34.950  25.685   2.301
 6020W        W74438  27.094  36.066  13.517
 6021W        W74439   2.805  14.729   1.857
 6022W        W74440   2.261  35.065   4.209
 6023W        W74441  41.465  38.903   3.648
 6024W        W74442  17.669  35.555   4.243
 6025W        W74443  28.979  26.686  12.032
 6026W        W74444  15.233  42.362   1.221
 6027W        W74445  22.124  34.995  11.919
 6028W        W74446   1.244  33.429   1.723
 6029W        W74447  14.784  30.159   3.313
 6030W        W74448  28.024  14.180   9.943
 6031W        W74449  42.357  13.238   0.854
 6032W        W74450  42.821  11.144  10.887
 6033W        W74451  42.871  29.106   4.236
 6034W        W74452   3.770  43.465   2.685
 6035W        W74453  43.336  28.187  11.583
 6036W        W74454  26.526  42.998  14.444
 6037W        W74455  28.577  35.041  13.539
 6038W        W74456  28.456   9.283  14.943
 6039W        W74457  43.972  37.382   1.338
 6040W        W74458   7.673  13.332   2.706
 6041W        W74459  16.141   6.288   0.877
 6042W        W74460   2.244  41.984  11.129
 6043W        W74461  43.382  36.374   0.427
 6044W        W74462  25.588   0.480   3.852
 6045W        W74463  18.209  35.575  10.971
 6046W        W74464   1.410  40.880  12.404
 6047W        W74465   3.235  43.918   0.411
 6048W        W74466  33.073  29.172   2.877
 6049W        W74467  15.100  36.519   3.708
 6050W        W74468  27.041  43.488  11.403
 6051W        W74469   4.224  11.697  12.395
 6052W        W74470  35.958   7.201  14.371
 6053W        W74471  40.541  13.702   2.747
 6054W        W74472  12.722  42.807  11.938
 6055W        W74473   0.393   5.890   0.882
 6056W        W74474  16.678  31.406  12.465
 6057W        W74475  29.486  28.610   3.366
 6058W        W74476  17.676  12.198   5.804
 6059W        W74477  15.824   1.359  13.487
 6060W        W74478  18.632  39.031  12.407
 6061W        W74479   3.266   3.416  10.630
 6062W        W74480  44.943   4.842  12.371
 6063W        W74481  33.573   7.878  11.524
 6064W        W74482  25.581  28.635   0.313
 6065W        W74483  37.571  21.644  11.937
 6066W        W74484  13.315  11.226   2.234
 6067W        W74485   2.450  14.272   9.950
 6068W        W74486   0.438   2.381   1.364
 6069W        W74487  14.719   7.768   1.412
 6070W        W74488  24.479  22.631  12.946
 6071W        W74489  34.484  29.022   3.749
 6072W        W74490  18.581  32.980  10.484
 6073W        W74491  16.753  10.727   0.418
 6074W        W74492  30.010   4.762   3.354
 6075W        W74493   0.790  23.538   0.805
 6076W        W74494  23.710   2.345  11.987
 6077W        W74495  32.580   0.429   3.379
 6078W        W74496   6.730   3.221  12.832
 6079W        W74497  14.610  38.390  14.012
 6080W        W74498  30.500  26.082  10.552
 6081W        W74499  14.297  23.140  11.553
 6082W        W74500   9.739  18.244  12.549
 6083W        W74501   4.793  38.894   5.100
 6084W        W74502  22.010   6.289   2.757
 6085W        W74503  17.636  28.947  13.930
 6086W        W74504  11.163  44.329  11.407
 6087W        W74505  26.568  34.912   4.232
 6088W        W74506  29.084  37.502  14.869
 6089W        W74507  11.130   2.724   1.871
 6090W        W74508  36.082  31.086   1.338
 6091W        W74509  44.952  12.139  14.804
 6092W        W74510   0.436  40.940   4.749
 6093W        W74511   9.202   1.736   0.335
 6094W        W74512  24.579   9.793  10.465
 6095W        W74513  31.007  24.495   1.395
 6096W        W74514  25.134  43.386   3.363
 6097W        W74515  31.114  32.065  13.543
 6098W        W74516  39.478  15.673  11.515
 6099W        W74517   0.763   6.296  13.835
 6100W        W74518  18.622  11.206  12.090
 6101W        W74519   9.741   0.829  14.982
 6102W        W74520  13.741  28.146  13.060
 6103W        W74521  31.497  14.241   2.850
 6104W        W74522  35.576  41.429   3.380
 6105W        W74523  39.484  36.365   4.345
 6106W        W74524  35.460  24.500   3.174
 6107W        W74525  32.929  39.521   2.681
 6108W        W74526  21.049  36.076  13.408
 6109W        W74527   6.329  35.011  10.626
 6110W        W74528  16.770  11.245   2.707
 6111W        W74529  36.850  13.813  14.341
 6112W        W74530   3.852  42.889   2.415
 6113W        W74531  21.659  20.169  12.930
 6114W        W74532  20.119  44.327  14.802
 6115W        W74533  16.655  34.369   0.796
 6116W        W74534   5.420  31.413  11.915
 6117W        W74535  39.351  16.606  13.997
 6118W        W74536  17.290  11.186   0.914
 6119W        W74537   4.258  25.620  12.053
 6120W        W74538   7.816  30.054  12.371
 6121W        W74539  13.829  22.059   3.357
 6122W        W74540   8.283  22.150  13.953
 6123W        W74541  39.924  11.297  13.396
 6124W        W74542  34.474  30.642   0.934
 6125W        W74543  35.549  42.312   3.225
 6126W        W74544  29.043  28.617  10.454
 6127W        W74545   0.476  22.122  10.540
 6128W        W74546  44.319   8.297  13.957
 6129W        W74547  29.097  11.744   0.809
 6130W        W74548  34.029  17.181  12.880
 6131W        W74549  28.177  18.089  10.901
 6132W        W74550  16.748  12.699   0.322
 6133W        W74551  31.896  20.104  14.336
 6134W        W74552  24.685  20.714   1.307
 6135W        W74553  11.624  35.037   0.800
 6136W        W74554   8.353   0.263   2.315
 6137W        W74555  14.108  27.591  13.971
 6138W        W74556  36.413  25.686   0.918
 6139W        W74557  36.442  16.314   4.823
 6140W        W74558  13.306  43.011  12.825
 6141W        W74559   5.219  17.146   0.956
 6142W        W74560  27.003  44.275  10.944
 6143W        W74561  25.630  31.918  14.968
 6144W        W74562  25.607  40.350   1.397
 6145W        W74563  25.637  43.515   1.268
 6146W        W74564  27.561   5.408   0.382
 6147W        W74565  12.149  31.635  14.847
 6148W        W74566  22.735  16.104   4.800
 6149W        W74567   1.961   9.342   1.876
 6150W        W74568  41.526  28.679  11.933
 6151W        W74569  25.034  18.287   1.253
 6152W        W74570  21.226  34.426  11.597
 6153W        W74571  35.983  44.879   2.342
 6154W        W74572  25.107  17.760  13.961
 6155W        W74573  14.111  20.744   3.815
 6156W        W74574  23.543  41.961  14.905
 6157W        W74575  29.583  22.017  13.383
 6158W        W74576  32.940  15.743   5.283
 6159W        W74577  15.808  41.954  12.002
 6160W        W74578   5.696  17.064   1.877
 6161W        W74579  19.074   5.807  14.360
 6162W        W74580   6.185   0.892   2.353
 6163W        W74581  25.601  11.683   4.802
 6164W        W74582  31.131   3.942   2.883
 6165W        W74583   9.719  30.640   1.911
 6166W        W74584  17.635  30.098   4.156
 6167W        W74585  40.863   9.658  12.055
 6168W        W74586   8.177  20.621  13.433
 6169W        W74587  22.618  22.574  10.981
 6170W        W74588  40.814  12.651  12.556
 6171W        W74589  32.393   7.226   1.236
 6172W        W74590  17.184  13.673   4.350
 6173W        W74591  33.497  34.398   2.179
 6174W        W74592  31.598   7.282   2.803
 6175W        W74593  16.602  13.134  14.816
 6176W        W74594   7.778  20.653   2.403
 6177W        W74595  39.474  10.160  14.355
 6178W        W74596   7.733  22.250  13.464
 6179W        W74597  31.542  34.099  12.982
 6180W        W74598  14.700   4.364   2.766
 6181W        W74599  16.208  13.179   4.682
 6182W        W74600  23.720  21.664   2.399
 6183W        W74601   9.770   2.335  14.490
 6184W        W74602  13.205  23.727   2.402
 6185W        W74603   8.299  18.071   1.705
 6186W        W74604  16.758  37.337  13.387
 6187W        W74605  32.957  38.421  14.927
 6188W        W74606  32.463  41.406   0.886
 6189W        W74607  15.759  44.476   4.740
 6190W        W74608  12.309   6.213   3.250
 6191W        W74609  39.986  15.689   5.131
 6192W        W74610  19.046   2.936   1.795
 6193W        W74611  28.960  32.030  14.350
 6194W        W74612  22.674   0.314   3.668
 6195W        W74613  24.649   7.869   4.315
 6196W        W74614  42.814  35.434   0.728
 6197W        W74615  35.495   4.268  11.936
 6198W        W74616   2.746  20.267   3.846
 6199W        W74617  10.370  15.132  10.451
 6200W        W74618  42.888   2.358  11.381
 6201W        W74619  12.782   0.393   1.344
 6202W        W74620  22.703  20.111  10.592
 6203W        W74621  38.335  31.633   3.755
 6204W        W74622   2.962  32.417  14.346
 6205W        W74623  28.957  40.975  13.443
 6206W        W74624  44.833  30.492   0.269
 6207W        W74625  17.643  16.269   0.928
 6208W        W74626  36.024  14.687   3.740
 6209W        W74627  11.825  26.600   0.793
 6210W        W74628  26.550  19.550  10.892
 6211W        W74629   4.301  19.773  14.879
 6212W        W74630  14.224   3.789  13.329
 6213W        W74631  35.603  30.051   3.717
 6214W        W74632  43.852  40.862   0.310
 6215W        W74633   5.290  24.016  13.454
 6216W        W74634  10.843  34.934   1.825
 6217W        W74635  38.879  13.608  13.325
 6218W        W74636  12.281  44.861  10.903
 6219W        W74637  21.039  18.717   3.246
 6220W        W74638   8.817   3.216   1.731
 6221W        W74639  15.231  11.206   2.867
 6222W        W74640  12.214   8.727  13.012
 6223W        W74641  15.123  18.774  12.571
 6224W        W74642  25.600  12.352   0.766
 6225W        W74643  37.421   0.487   3.822
 6226W        W74644  27.138  26.686   4.300
 6227W        W74645  28.182   5.319   2.405
 6228W        W74646  32.100  15.715   5.204
 6229W        W74647  22.586  28.135   5.215
 6230W        W74648  25.509  10.321   1.731
 6231W        W74649  14.322  20.625   4.634
 6232W        W74650   5.876   4.753   2.343
 6233W        W74651  38.936   0.449   1.892
 6234W        W74652  44.874   5.859  10.949
 6235W        W74653   1.812  21.158  14.331
 6236W        W74654  33.119  30.607  14.008
 6237W        W74655  30.150  18.184   3.696
 6238W        W74656  43.775   1.756  14.504
 6239W        W74657  34.510  14.719  14.958
 6240W        W74658  32.507  25.199  13.046
 6241W        W74659  11.736  40.313  12.006
 6242W        W74660  30.653  13.131  12.371
 6243W        W74661  14.704   8.657   4.309
 6244W        W74662   0.355  10.165   1.286
 6245W        W74663   3.387  26.634   3.318
 6246W        W74664  22.707  12.249   3.646
 6247W        W74665   6.342  39.826   4.162
 6248W        W74666  39.539  23.218  13.426
 6249W        W74667  38.907  34.439  12.464
 6250W        W74668  19.045  27.130  13.421
 6251W        W74669  28.977  26.002  11.046
 6252W        W74670  29.926   6.232   2.790
 6253W        W74671  32.121  20.123  12.902
 6254W        W74672  30.554  34.913   3.328
 6255W        W74673  39.538  12.272  13.376
 6256W        W74674  26.686  13.340   0.925
 6257W        W74675  12.255   6.796  13.895
 6258W        W74676  41.408  25.197   3.855
 6259W        W74677  22.631  19.054  11.867
 6260W        W74678  36.509  36.979   4.670
 6261W        W74679   1.473  18.751  10.469
 6262W        W74680  31.054   0.339   0.930
 6263W        W74681  20.551  14.825  10.632
 6264W        W74682  44.366  19.160  14.408
 6265W        W74683  14.603  26.076   0.944
 6266W        W74684  15.259  38.997   2.348
 6267W        W74685  34.069  17.650   1.284
 6268W        W74686   2.806  30.116   4.215
 6269W        W74687  11.159  12.201   2.349
 6270W        W74688  17.740  27.022  12.897
 6271W        W74689   2.468  41.381  12.367
 6272W        W74690   1.873  13.653   0.411
 6273W        W74691   9.857  22.734   2.320
 6274W        W74692  33.593   8.403   1.717
 6275W        W74693   6.869  39.009  14.793
 6276W        W74694  14.222  18.740   1.334
 6277W        W74695  43.353  28.532  13.807
 6278W        W74696  34.055  41.412   2.672
 6279W        W74697  26.524  32.036   3.695
 6280W        W74698   8.796   7.679   1.386
 6281W        W74699  35.967  18.131   1.810
 6282W        W74700  44.889   4.859   4.631
 6283W        W74701  37.581  19.262  10.463
 6284W        W74702  43.936  23.580  11.419
 6285W        W74703  32.111  26.691   3.721
 6286W        W74704   5.433  27.495   1.765
 6287W        W74705  36.948  21.758   2.349
 6288W        W74706  13.162  11.259   3.731
 6289W        W74707  23.173  37.018  12.470
 6290W        W74708  32.013  19.751  13.991
 6291W        W74709   6.348   1.479  12.058
 6292W        W74710  26.959  36.368  14.922
 6293W        W74711  44.859  17.742   2.321
 6294W        W74712  19.204  29.952   0.306
 6295W        W74713  21.521  13.291  11.586
 6296W        W74714  38.529  41.436  11.491
 6297W        W74715  10.745  32.611  12.005
 6298W        W74716   8.390  29.541  10.605
 6299W        W74717  29.920   4.860   3.845
 6300W        W74718  37.935  13.154   3.383
 6301W        W74719  19.726  40.338   2.789
 6302W        W74720   7.350  38.864  12.565
 6303W        W74721  19.691  27.064  14.501
 6304W        W74722   9.314  39.393  14.482
 6305W        W74723  22.180   1.777   2.874
 6306W        W74724  44.314   4.324  11.009
 6307W        W74725  35.887  34.873  11.104
 6308W        W74726  39.895  31.921  11.480
 6309W        W74727  10.207  31.571  12.827
 6310W        W74728  42.524  12.763   4.787
 6311W        W74729  36.997  13.325  11.873
 6312W        W74730   0.446  12.316   4.757
 6313W        W74731  39.854  36.049  12.034
 6314W        W74732  32.992  10.252   4.244
 6315W        W74733  26.633  29.658   4.748
 6316W        W74734  33.587   9.688   1.878
 6317W        W74735   2.825  24.714   3.666
 6318W        W74736  16.306  30.649   0.728
 6319W        W74737   2.873   2.809   3.795
 6320W        W74738  18.142  13.348   4.705
 6321W        W74739   2.284   8.861  10.598
 6322W        W74740  44.429  29.487  11.907
 6323W        W74741   9.851  32.474   0.751
 6324W        W74742   5.210  22.693  12.392
 6325W        W74743  16.275  16.677   2.844
 6326W        W74744  18.053  33.394   3.733
 6327W        W74745   4.834  14.111   3.747
 6328W        W74746  15.753  11.735   0.274
 6329W        W74747   2.868  33.976  13.027
 6330W        W74748  18.084  14.218  14.790
 6331W        W74749  31.968  17.207  10.640
 6332W        W74750   4.207  28.614  10.475
 6333W        W74751  29.576  43.825   3.311
 6334W        W74752  44.275   6.340   4.274
 6335W        W74753  13.251  16.286   2.755
 6336W        W74754   9.237   4.841  11.547
 6337W        W74755  38.421  35.071  14.403
 6338W        W74756  10.648  15.091  11.964
 6339W        W74757  40.805   5.886   1.240
 6340W        W74758  25.700  44.433   0.760
 6341W        W74759  37.036  21.142   4.121
 6342W        W74760   4.232   0.479  12.872
 6343W        W74761   0.986  11.702  12.435
 6344W        W74762  11.795  39.878  12.068
 6345W        W74763  10.252  28.006  13.889
 6346W        W74764  12.346  26.578   0.872
 6347W        W74765  37.929  38.005   3.668
 6348W        W74766  25.559  24.130   5.193
 6349W        W74767  17.799   1.838  12.004
 6350W        W74768  42.843  22.687  11.413
 6351W        W74769  38.019  12.632   0.473
 6352W        W74770  41.801  36.582  12.951
 6353W        W74771   5.346   2.307  10.474
 6354W        W74772  18.672  37.461  12.963
 6355W        W74773  20.244   2.763  11.608
 6356W        W74774  36.513  30.547  11.026
 6357W        W74775  38.042  30.080   2.780
 6358W        W74776  21.710   5.829   2.223
 6359W        W74777  23.238  17.307  13.419
 6360W        W74778  23.513  30.432  12.069
 6361W        W74779  17.663   8.272   3.632
 6362W        W74780   3.798  29.561   2.824
 6363W        W74781  38.847  28.168   0.910
 6364W        W74782   6.367  28.051  10.917
 6365W        W74783  27.617   9.270  12.362
 6366W        W74784  20.110  43.494  10.549
 6367W        W74785  36.405   5.228   0.858
 6368W        W74786  21.234  26.682   5.282
 6369W        W74787  40.390  21.128  13.967
 6370W        W74788  35.490  29.988  10.412
 6371W        W74789  41.829  38.413   5.167
 6372W        W74790   1.904  40.352   0.817
 6373W        W74791  34.114  27.578   2.680
 6374W        W74792  11.761   1.349   0.954
 6375W        W74793  42.006   4.827   2.686
 6376W        W74794  43.021  43.825  12.341
 6377W        W74795  25.012   0.412   4.167
 6378W        W74796  22.509   4.240   1.314
 6379W        W74797  37.945  34.918  12.360
 6380W        W74798   5.886  41.807   1.294
 6381W        W74799  21.149  29.990  14.903
 6382W        W74800   4.430  20.220  12.961
 6383W        W74801  20.644  20.684  12.874
 6384W        W74802  20.184  11.322   9.963
 6385W        W74803   6.194  23.003   0.281
 6386W        W74804  37.046  35.457   3.746
 6387W        W74805  38.489  20.568  13.924
 6388W        W74806  19.056  35.038  12.558
 6389W        W74807  28.005  20.217  13.937
 6390W        W74808  18.107  21.138   3.824
 6391W        W74809  40.351  31.022   2.803
 6392W        W74810   0.254  23.230  13.335
 6393W        W74811  10.769  28.547   2.900
 6394W        W74812  38.071  37.356  10.418
 6395W        W74813  13.661  32.087   2.739
 6396W        W74814  41.505  14.635   3.796
 6397W        W74815   2.765  36.536   3.676
 6398W        W74816  29.924  32.034  13.838
 6399W        W74817  38.525   5.879   1.749
 6400W        W74818  30.626   9.686   1.364
 6401W        W74819  20.749  34.482   3.170
 6402W        W74820  30.608  37.376  13.535
 6403W        W74821  35.359   5.758   1.804
 6404W        W74822  22.173  43.409  13.437
 6405W        W74823  32.040  12.341  10.461
 6406W        W74824  25.660  20.669  10.494
 6407W        W74825  39.952  22.136   2.223
 6408W        W74826  14.650   1.933   3.774
 6409W        W74827  42.379  29.144  14.477
 6410W        W74828  12.807  44.777   2.267
 6411W        W74829  19.065  33.047   0.927
 6412W        W74830  19.679  17.124   5.290
 6413W        W74831   3.326  31.049   2.820
 6414W        W74832  25.027  23.651   2.211
 6415W        W74833  31.101  38.535   2.187
 6416W        W74834  32.502  18.622   4.154
 6417W        W74835   8.702  27.564  13.959
 6418W        W74836  37.353  39.522   2.723
 6419W        W74837   3.898  24.114   1.257
 6420W        W74838   1.275  21.064  14.941
 6421W        W74839  34.035  10.878   3.760
 6422W        W74840  31.421  36.943  11.446
 6423W        W74841  33.459  26.658  10.015
 6424W        W74842  29.479  43.428  13.880
 6425W        W74843  35.002  41.366  12.890
 6426W        W74844  20.245  24.061  11.598
 6427W        W74845   1.397  24.482   3.375
 6428W        W74846  32.576  37.891  11.455
 6429W        W74847  37.003  36.071   3.206
 6430W        W74848  11.623  38.487   1.892
 6431W        W74849  16.599  10.267  13.440
 6432W        W74850  19.653  18.611   5.213
 6433W        W74851  18.270   8.210  11.042
 6434W        W74852   1.836  34.102   0.427
 6435W        W74853  28.606  32.011   1.325
 6436W        W74854  39.490   9.830  12.052
 6437W        W74855   2.743  21.121  14.379
 6438W        W74856   8.181  10.812  14.936
 6439W        W74857  18.771   8.694   1.243
 6440W        W74858   1.940  39.425   4.261
 6441W        W74859  21.034   0.479   0.444
 6442W        W74860   2.781  10.697   3.826
 6443W        W74861  15.180  38.432   0.926
 6444W        W74862  27.615  37.545  11.086
 6445W        W74863  26.193  38.355  14.460
 6446W        W74864   8.399  21.245  13.849
 6447W        W74865  10.757  35.578   1.280
 6448W        W74866  37.072  43.984  13.442
 6449W        W74867  39.032  38.044  11.875
 6450W        W74868  12.323  25.501   3.285
 6451W        W74869   1.417  10.337  10.152
 6452W        W74870  37.354  16.697  13.534
 6453W        W74871  31.054  38.016   4.245
 6454W        W74872  41.372  25.135   1.915
 6455W        W74873   3.822  13.327  14.407
 6456W        W74874  33.550  39.553  13.036
 6457W        W74875  44.375  32.954   2.195
 6458W        W74876  12.159   0.385   0.465
 6459W        W74877  11.802  32.956  12.905
 6460W        W74878  23.218  11.658  14.450
 6461W        W74879   0.350  20.587   0.852
 6462W        W74880  30.066  33.462   0.804
 6463W        W74881  41.471   7.897  11.521
 6464W        W74882  41.503  20.656  13.484
 6465W        W74883  42.865   6.800   0.343
 6466W        W74884  21.079  39.325   2.365
 6467W        W74885   8.812   2.241   3.344
 6468W        W74886  39.006  37.985  12.550
 6469W        W74887  25.470  23.007  10.420
 6470W        W74888  24.629  36.992  13.457
 6471W        W74889  41.437  32.572   0.294
 6472W        W74890   5.265  29.087  14.879
 6473W        W74891  32.944  42.408  12.502
 6474W        W74892  40.319   1.442   3.256
 6475W        W74893  35.900   1.879  11.498
 6476W        W74894  21.149   0.479  13.416
 6477W        W74895   1.448  24.495  13.877
 6478W        W74896   8.300  43.454   0.944
 6479W        W74897  42.885  17.071   2.418
 6480W        W74898   8.216  16.143  13.920
 6481W        W74899  25.200  30.108   1.837
 6482W        W74900  42.803   8.682  13.874
 6483W        W74901  23.635  38.489  10.889
 6484W        W74902  23.107  43.980   0.480
 6485W        W74903  21.217  43.435  10.599
 6486W        W74904  42.893  41.369   3.853
 6487W        W74905  36.469  36.997   5.686
 6488W        W74906  33.457  30.148  13.876
 6489W        W74907  21.696   2.461   4.300
 6490W        W74908  22.584  22.617   4.334
 6491W        W74909  33.967  36.408   1.367
 6492W        W74910  13.225  36.919   2.834
 6493W        W74911  25.669  20.746  10.925
 6494W        W74912  38.436   5.835   3.147
 6495W        W74913  23.034   0.744   4.795
 6496W        W74914  14.790  25.686   0.821
 6497W        W74915  43.300  39.457  14.294
 6498W        W74916  12.241  16.084  13.825
 6499W        W74917   2.847  39.052   2.332
 6500W        W74918  22.574   8.863   2.334
 6501W        W74919  23.636  11.267  12.389
 6502W        W74920   2.759   7.887   0.951
 6503W        W74921  35.558  22.151  13.975
 6504W        W74922  36.575  32.116  14.811
 6505W        W74923  35.883  17.172  14.917
 6506W        W74924  17.108  29.094   0.422
 6507W        W74925  42.400  28.645   0.792
 6508W        W74926  36.349  21.744   3.215
 6509W        W74927  19.744  29.664   0.444
 6510W        W74928  12.712  19.673  11.501
 6511W        W74929   3.758  15.823  12.995
 6512W        W74930  23.709  34.944  13.469
 6513W        W74931  18.663  18.631   0.798
 6514W        W74932   1.259  24.092  13.919
 6515W        W74933  35.409  39.966  14.464
 6516W        W74934  17.727  18.243  13.500
 6517W        W74935  42.315  13.721  10.094
 6518W        W74936  19.224  37.051  14.882
 6519W        W74937  43.458  16.230   1.322
 6520W        W74938  11.831  19.693   4.791
 6521W        W74939  27.545   0.333  12.929
 6522W        W74940   1.446  19.093  14.422
 6523W        W74941  11.747   0.334  12.340
 6524W        W74942   7.340  32.977   1.233
 6525W        W74943  29.555  34.025  10.905
 6526W        W74944  36.856   9.235   1.874
 6527W        W74945  34.558   9.248  11.540
 6528W        W74946  32.498  32.411   4.747
 6529W        W74947  36.472  12.752   4.617
 6530W        W74948  15.597  23.717   1.785
 6531W        W74949  37.424   5.767   1.363
 6532W        W74950  42.874  30.430  11.948
 6533W        W74951  31.564   9.726   0.952
 6534W        W74952  42.421   9.303   1.753
 6535W        W74953  27.073   3.735  14.964
 6536W        W74954  38.859   2.814  14.320
 6537W        W74955   5.217  30.974  11.954
 6538W        W74956   9.349  37.935  12.345
 6539W        W74957  30.099  40.915  10.900
 6540W        W74958  30.519  34.536   2.818
 6541W        W74959  33.015   2.944  11.550
 6542W        W74960  36.934  15.252  11.019
 6543W        W74961  43.966  30.041  12.964
 6544W        W74962  38.348  22.018  13.319
 6545W        W74963   4.758  36.549  11.612
 6546W        W74964  33.540  39.559  10.573
 6547W        W74965  12.296  24.117   4.283
 6548W        W74966  37.849  28.452  13.364
 6549W        W74967  21.724  42.521  10.454
 6550W        W74968  22.165  37.536  13.343
 6551W        W74969  13.739  33.604  14.761
 6552W        W74970  34.422   3.227   3.699
 6553W        W74971  43.808   7.727   4.748
 6554W        W74972  25.470  17.742  13.377
 6555W        W74973  24.998  40.547   3.346
 6556W        W74974  43.847   1.482   4.744
 6557W        W74975   2.891  25.475  11.091
 6558W        W74976  14.166  25.173  14.400
 6559W        W74977  26.529  36.476   0.937
 6560W        W74978  20.035  16.797  14.890
 6561W        W74979  25.469  31.593   1.346
 6562W        W74980  38.546  34.098  13.898
 6563W        W74981  43.940  10.334   3.172
 6564W        W74982  25.100  16.179   3.710
 6565W        W74983  33.931  38.871  10.583
 6566W        W74984  16.768  40.545   4.673
 6567W        W74985  25.665  21.590  11.494
 6568W        W74986  30.997  27.057  12.874
 6569W        W74987  27.524  40.423  10.502
 6570W        W74988  38.067  25.140  11.903
 6571W        W74989  17.782   6.757   2.279
 6572W        W74990  40.995   7.294  14.388
 6573W        W74991  13.610   4.898  13.900
 6574W        W74992  40.886  30.614   1.800
 6575W        W74993  43.317  32.615  13.841
 6576W        W74994  38.435   1.470  14.942
 6577W        W74995  16.676  25.152  14.797
 6578W        W74996  11.143  18.259  14.452
 6579W        W74997  44.764  10.860   4.205
 6580W        W74998  39.974  25.555  11.926
 6581W        W74999  25.684  14.182  14.953
 6582W        W75000   1.788  21.536   1.800
 6583W        W75001  40.451   1.407  11.609
 6584W        W75002  10.748  12.248  11.485
 6585W        W75003   7.198  21.203   0.761
 6586W        W75004   6.700  35.413   4.642
 6587W        W75005  38.392  14.238  11.492
 6588W        W75006   3.759  16.311   3.710
 6589W        W75007   7.371  12.792   4.646
 6590W        W75008  10.138  32.574   2.255
 6591W        W75009  22.591  24.979   3.232
 6592W        W75010  29.658  39.857   0.937
 6593W        W75011  32.489  24.717   2.730
 6594W        W75012  36.938  43.413  14.916
 6595W        W75013  22.738  24.558   4.635
 6596W        W75014   6.728  34.589   3.858
 6597W        W75015  25.103  11.179  10.618
 6598W        W75016  41.949  21.252   0.424
 6599W        W75017  35.074  33.913  11.440
 6600W        W75018  37.383  38.896  14.873
 6601W        W75019   2.445  15.693  14.862
 6602W        W75020  41.389  12.777  12.494
 6603W        W75021  37.861  11.813  10.526
 6604W        W75022  25.014  18.176   1.726
 6605W        W75023  44.400  14.212   5.717
 6606W        W75024  23.184  40.489  12.486
 6607W        W75025  15.216   2.236  11.481
 6608W        W75026  40.322   1.259   2.775
 6609W        W75027  43.306  34.017   4.333
 6610W        W75028   9.209  30.077  13.885
 6611W        W75029   3.395  43.422   3.699
 6612W        W75030  14.736   9.383   1.272
 6613W        W75031  15.742  24.120   0.349
 6614W        W75032  14.640  13.305  12.937
 6615W        W75033   6.796  17.656  11.050
 6616W        W75034   2.238  29.123   3.709
 6617W        W75035   6.689  28.150  12.444
 6618W        W75036   1.253  32.906   0.925
 6619W        W75037  41.340  36.383  14.948
 6620W        W75038  25.154  19.154   4.783
 6621W        W75039   4.361   6.251   2.746
 6622W        W75040  43.356   3.457  13.446
 6623W        W75041  30.074  11.631  10.515
 6624W        W75042  35.071  11.175  11.126
 6625W        W75043   7.377  41.851   1.239
 6626W        W75044  26.957  12.626   1.279
 6627W        W75045   8.232  21.250   0.743
 6628W        W75046  22.697  20.534   1.896
 6629W        W75047  34.395  21.545   0.480
 6630W        W75048  29.558   8.892   3.793
 6631W        W75049  39.507   5.438   3.759
 6632W        W75050  42.919  10.354   2.210
 6633W        W75051  25.143  16.263   4.690
 6634W        W75052  23.553  38.009   2.837
 6635W        W75053  23.577  40.922  14.277
 6636W        W75054  19.557  32.073   3.345
 6637W        W75055  38.569  22.569  13.455
 6638W        W75056   9.841  43.935  14.008
 6639W        W75057  12.738  30.530   2.760
 6640W        W75058  42.885  19.671   3.320
 6641W        W75059  11.153  36.089   1.817
 6642W        W75060  34.420  39.423  12.580
 6643W        W75061  17.598  13.333  10.631
 6644W        W75062  36.500  10.238  12.896
 6645W        W75063  27.449  38.944  12.056
 6646W        W75064  40.517  20.165  12.416
 6647W        W75065  18.566   7.840   4.280
 6648W        W75066  22.176  14.591  10.944
 6649W        W75067  15.674  26.521   1.253
 6650W        W75068  11.271   7.903  12.095
 6651W        W75069   8.225  32.476  14.438
 6652W        W75070   1.854   6.871  10.991
 6653W        W75071  22.509   1.439   1.851
 6654W        W75072  38.842  41.530   1.768
 6655W        W75073  25.990  43.491  11.032
 6656W        W75074  38.825   6.719  14.303
 6657W        W75075   6.779  25.687  14.984
 6658W        W75076  38.874  14.295   5.178
 6659W        W75077  29.514  23.210  14.928
 6660W        W75078  35.872   2.852   4.225
 6661W        W75079   2.778  44.324  12.410
 6662W        W75080  28.937  15.124   0.252
 6663W        W75081  19.178  11.224   5.770
 6664W        W75082  32.577  29.143   0.403
 6665W        W75083  13.148  36.882  14.851
 6666W        W75084  34.103   3.732  12.465
 6667W        W75085  20.629  18.692   3.306
 6668W        W75086  28.129  42.028   0.895
 6669W        W75087  26.569  42.906   1.234
 6670W        W75088   1.745  24.566   3.321
 6671W        W75089  11.292  10.153  14.361
 6672W        W75090   8.222  17.684   2.804
 6673W        W75091   8.368  11.857   3.282
 6674W        W75092  24.650   6.367  12.002
 6675W        W75093  24.508  23.630  11.083
 6676W        W75094  40.514  15.641   1.917
 6677W        W75095   1.271  35.361   0.963
 6678W        W75096  35.541   8.859   0.423
 6679W        W75097   3.251  13.737   2.857
 6680W        W75098   1.747  13.680   3.817
 6681W        W75099  44.757  43.953   2.297
 6682W        W75100  20.183  21.218  10.628
 6683W        W75101  15.181  37.413   1.890
 6684W        W75102  22.560  27.114  14.465
 6685W        W75103   8.714  16.233  12.056
 6686W        W75104  39.845  38.445  13.863
 6687W        W75105  14.834  21.706  12.527
 6688W        W75106   4.833  30.457   2.311
 6689W        W75107  39.351  18.089  10.947
 6690W        W75108  27.533  19.165  14.913
 6691W        W75109  36.866   4.433  11.499
 6692W        W75110  36.054  39.403   2.273
 6693W        W75111  35.071  44.367  12.047
 6694W        W75112  34.058  39.831   1.845
 6695W        W75113  23.657   3.354   4.211
 6696W        W75114  15.601  29.633   2.295
 6697W        W75115  15.605  17.155   4.712
 6698W        W75116   4.434   5.884   4.150
 6699W        W75117   7.747  11.196   0.822
 6700W        W75118   8.829   4.441  12.574
 6701W        W75119  37.569  38.865  14.454
 6702W        W75120  18.561  39.869  11.550
 6703W        W75121  34.603  28.479  13.403
 6704W        W75122  39.013  44.917  14.290
 6705W        W75123  43.909   1.969   4.622
 6706W        W75124   8.178  17.597   4.222
 6707W        W75125  38.872  25.573  12.532
 6708W        W75126  33.445  10.679  14.792
 6709W        W75127  15.811   6.878   0.374
 6710W        W75128  21.587  38.921  13.465
 6711W        W75129  36.398  36.569   5.211
 6712W        W75130  10.825  31.523   1.286
 6713W        W75131  39.925  38.878   0.351
 6714W        W75132  44.489  25.064  11.043
 6715W        W75133  15.125   9.347  14.993
 6716W        W75134  20.110   9.375  14.026
 6717W        W75135  21.204  35.003  14.850
 6718W        W75136  43.977  16.644   2.713
 6719W        W75137  24.644  31.571   3.250
 6720W        W75138  24.170  35.515   4.145
 6721W        W75139   2.392  22.142  14.823
 6722W        W75140  24.577  25.037   3.715
 6723W        W75141  15.768  40.042   4.210
 6724W        W75142   8.177  18.722  11.963
 6725W        W75143  10.757  29.947   0.917
 6726W        W75144  30.449  19.738  12.848
 6727W        W75145  26.202  33.616   1.252
 6728W        W75146  27.549  29.109   0.879
 6729W        W75147  20.143  34.975  11.859
 6730W        W75148  16.177   1.936   4.641
 6731W        W75149  42.948  31.537   2.722
 6732W        W75150  12.267  10.686   3.687
 6733W        W75151  14.681  34.991   2.853
 6734W        W75152  29.471  17.676   3.712
 6735W        W75153  27.532  25.662  10.637
 6736W        W75154  23.054   9.788  11.585
 6737W        W75155  24.576  13.760  14.904
 6738W        W75156  21.129  39.395   2.735
 6739W        W75157  37.569  25.612  14.764
 6740W        W75158  30.164   6.247  10.560
 6741W        W75159   1.856  19.676   9.535
 6742W        W75160  34.369  18.658   0.746
 6743W        W75161  41.380  31.408   3.763
 6744W        W75162  35.063  15.793   4.218
 6745W        W75163   0.861  13.248  12.576
 6746W        W75164  22.019  13.201  13.465
 6747W        W75165   0.887  27.105  13.416
 6748W        W75166  30.160  12.252   1.268
 6749W        W75167  19.080  34.023  11.585
 6750W        W75168  29.940  35.854  12.984
 6751W        W75169  24.111   3.445   2.314
 6752W        W75170  25.210   9.308  10.573
 6753W        W75171  10.737   0.323  12.886
 6754W        W75172   7.294   5.433  12.029
 6755W        W75173  24.627  24.575  13.803
 6756W        W75174  27.002  31.463  10.976
 6757W        W75175  17.087  44.346   3.865
 6758W        W75176  40.885  12.160  11.960
 6759W        W75177  44.799   9.389   1.762
 6760W        W75178   9.772  27.174   4.151
 6761W        W75179  34.077  37.396   4.749
 6762W        W75180  11.706  21.169   1.323
 6763W        W75181  30.946  30.004  11.066
 6764W        W75182   2.428  42.455   0.306
 6765W        W75183  16.583  23.621   1.248
 6766W        W75184   9.666  16.650  13.925
 6767W        W75185  24.053  22.048   1.712
 6768W        W75186  36.415   4.890  10.468
 6769W        W75187   4.874   7.287  12.082
 6770W        W75188  22.104  36.547   1.233
 6771W        W75189  15.756  41.300  10.426
 6772W        W75190  36.486  44.994   4.734
 6773W        W75191  32.418  42.932  12.020
 6774W        W75192   0.478   4.909  13.413
 6775W        W75193  11.857   0.743  12.369
 6776W        W75194  20.028  14.156   1.222
 6777W        W75195  31.563  34.896  11.108
 6778W        W75196  28.006   7.383   2.761
 6779W        W75197  33.618  38.458  13.980
 6780W        W75198  30.419  44.275   1.792
 6781W        W75199  35.955   6.397   4.820
 6782W        W75200   7.802  17.737   1.721
 6783W        W75201  37.905  38.880   4.302
 6784W        W75202  19.157  42.514  11.566
 6785W        W75203   3.430  42.505  10.962
 6786W        W75204  23.541  18.089   2.715
 6787W        W75205  30.640  25.646   1.760
 6788W        W75206  10.171  33.060   3.823
 6789W        W75207  44.265  43.326  10.638
 6790W        W75208  39.938  39.414  14.431
 6791W        W75209   9.864  12.763  10.640
 6792W        W75210  16.749   6.756   0.459
 6793W        W75211  15.134  35.474   1.778
 6794W        W75212  26.052  34.993   0.250
 6795W        W75213  29.498  37.970  10.446
 6796W        W75214  11.190  39.445   4.729
 6797W        W75215  44.296  16.630   3.654
 6798W        W75216  20.734  12.639  14.468
 6799W        W75217  10.166  27.070  12.082
 6800W        W75218  35.479  29.967   0.370
 6801W        W75219  33.461  10.377  13.998
 6802W        W75220   2.316   2.312  11.409
 6803W        W75221  20.739  39.048   0.346
 6804W        W75222  25.477  22.538   3.706
 6805W        W75223  21.093  34.977  10.478
 6806W        W75224  13.177  32.405  13.987
 6807W        W75225  33.029  29.630  11.029
 6808W        W75226  26.505  13.786   2.366
 6809W        W75227  23.681   4.424   1.318
 6810W        W75228  32.515   2.820   1.831
 6811W        W75229  42.406   1.442  11.517
 6812W        W75230   9.745  22.644   1.327
 6813W        W75231   6.318   1.405  12.532
 6814W        W75232   7.740  21.227   3.719
 6815W        W75233  13.322  23.667  13.330
 6816W        W75234  32.135  39.427   5.148
 6817W        W75235  21.675   3.401  10.452
 6818W        W75236  30.446  16.230  11.097
 6819W        W75237   8.161  24.631  10.475
 6820W        W75238  10.141  28.986  14.027
 6821W        W75239   7.176  16.303  14.864
 6822W        W75240  38.417   8.799   1.816
 6823W        W75241  23.736  26.991   4.141
 6824W        W75242  16.169   0.845   3.798
 6825W        W75243  23.025  40.015  12.825
 6826W        W75244   1.283  31.633  12.996
 6827W        W75245  31.502  10.637   0.386
 6828W        W75246  13.719  20.037  11.059
 6829W        W75247  36.936  30.099  13.520
 6830W        W75248  42.428  18.616  13.881
 6831W        W75249   3.861  18.770   3.322
 6832W        W75250  21.169  21.242   4.742
 6833W        W75251  40.472  34.454  10.604
 6834W        W75252  24.698   6.798  12.416
 6835W        W75253  25.039  17.713   1.428
 6836W        W75254  31.523  42.513   3.736
 6837W        W75255  32.915   2.958   3.663
 6838W        W75256   3.748  17.638   4.191
 6839W        W75257  23.071  38.892  10.455
 6840W        W75258  11.150  25.025  14.495
 6841W        W75259  32.025  42.326   4.652
 6842W        W75260   9.381  33.961  14.973
 6843W        W75261   6.371   4.885  10.098
 6844W        W75262  30.413  25.609  11.589
 6845W        W75263  22.166  39.384  10.636
 6846W        W75264  35.076  44.283   1.805
 6847W        W75265  38.881  30.606  11.961
 6848W        W75266   0.455   3.262  14.380
 6849W        W75267  21.113  21.687  11.458
 6850W        W75268  38.927  18.704   2.820
 6851W        W75269   7.203   2.298  11.588
 6852W        W75270  43.880  22.120  11.119
 6853W        W75271   4.942  20.172  12.513
 6854W        W75272  28.522  36.063   1.809
 6855W        W75273  31.416  26.192  11.459
 6856W        W75274  37.383   2.343   4.828
 6857W        W75275  15.222   1.300   0.363
 6858W        W75276   7.231   0.772  11.423
 6859W        W75277  36.065  42.360   2.842
 6860W        W75278   1.465  34.370  10.955
 6861W        W75279  15.823  14.627   2.250
 6862W        W75280  37.394  43.808  13.458
 6863W        W75281   3.461  26.134   4.624
 6864W        W75282  44.816  24.101  11.482
 6865W        W75283  34.577  13.651   1.283
 6866W        W75284  10.733  41.527   3.778
 6867W        W75285   4.734  31.962   9.989
 6868W        W75286  26.463  42.383   4.139
 6869W        W75287  32.406  26.611   0.802
 6870W        W75288   7.317  18.153  11.076
 6871W        W75289  11.680  22.156   9.963
 6872W        W75290  21.637  11.342   1.799
 6873W        W75291  15.272  28.524   0.777
 6874W        W75292  12.307  21.712  10.468
 6875W        W75293  15.645  33.538   1.703
 6876W        W75294  36.429  14.747  11.118
 6877W        W75295  22.021  17.201   0.259
 6878W        W75296   8.382  16.119  11.884
 6879W        W75297  13.278  11.253  14.012
 6880W        W75298   1.953  16.674   1.411
 6881W        W75299  31.421   7.283   4.620
 6882W        W75300  14.682  24.124  12.385
 6883W        W75301  22.232  33.939  14.958
 6884W        W75302  21.619  10.275  14.416
 6885W        W75303  22.637  25.680  14.509
 6886W        W75304  14.663  43.505  11.093
 6887W        W75305  40.357   9.877   2.189
 6888W        W75306   3.860  39.956   1.705
 6889W        W75307  35.084  14.165  14.004
 6890W        W75308  15.265  43.816  14.982
 6891W        W75309  33.055  44.961   3.821
 6892W        W75310   8.672  29.559  10.531
 6893W        W75311  36.547  21.088  11.536
 6894W        W75312  27.178  43.884   2.375
 6895W        W75313  19.232  19.728  10.987
 6896W        W75314   7.203  35.926   1.429
 6897W        W75315  29.130  29.133   3.292
 6898W        W75316  36.874  27.024  12.888
 6899W        W75317  24.983  42.491  14.285
 6900W        W75318   5.829   1.456  11.395
 6901W        W75319  23.194  24.086  12.572
 6902W        W75320  23.150  30.647   1.273
 6903W        W75321  13.307  18.205   3.379
 6904W        W75322  40.965  23.556   4.678
 6905W        W75323  39.932  10.702   1.732
 6906W        W75324  38.983  32.047  14.499
 6907W        W75325  22.031  40.049   1.773
 6908W        W75326  15.293  20.627  12.868
 6909W        W75327  36.871   5.728  14.777
 6910W        W75328  16.783  40.804   2.766
 6911W        W75329   9.247  36.378   0.315
 6912W        W75330  29.160  21.641  10.999
 6913W        W75331  26.083  41.931   4.759
 6914W        W75332   8.717  42.388   2.869
 6915W        W75333  19.606   5.722   0.735
 6916W        W75334  35.388   0.901   3.754
 6917W        W75335  25.212  29.435   2.388
 6918W        W75336   0.775  28.045  10.570
 6919W        W75337  18.287  35.870   1.227
 6920W        W75338  42.781  23.578   4.722
 6921W        W75339  38.929   9.877  12.008
 6922W        W75340  26.524  43.298   1.729
 6923W        W75341   2.271  26.072  14.807
 6924W        W75342  26.626  43.307   2.858
 6925W        W75343  17.618  38.466  10.516
 6926W        W75344  34.452  34.897  14.499
 6927W        W75345  38.459  32.990   3.839
 6928W        W75346   8.816  25.070  11.469
 6929W        W75347   2.293  33.490  14.363
 6930W        W75348  32.007  19.062   2.403
 6931W        W75349  29.048  44.295   2.219
 6932W        W75350  10.188   9.657   3.773
 6933W        W75351  29.016  20.244   4.258
 6934W        W75352  10.842  15.088  14.897
 6935W        W75353   3.894  20.728   3.753
 6936W        W75354  24.113  25.993  11.531
 6937W        W75355  34.922  30.576   3.828
 6938W        W75356  44.455  44.754  10.436
 6939W        W75357  38.871   0.334   3.247
 6940W        W75358  25.700  30.539   0.412
 6941W        W75359  18.152  41.877  10.998
 6942W        W75360  23.013  15.112   4.304
 6943W        W75361  10.695  22.186  11.525
 6944W        W75362   2.805  40.526   4.141
 6945W        W75363  24.181  21.713  12.488
 6946W        W75364   9.699  13.268   0.917
 6947W        W75365  33.086  31.997   2.239
 6948W        W75366  34.948  31.573   4.269
 6949W        W75367  14.284  34.907   1.225
 6950W        W75368  14.272  20.062  12.951
 6951W        W75369   4.413  10.669  11.015
 6952W        W75370  21.622  37.465  13.979
 6953W        W75371  22.680  34.549  14.832
 6954W        W75372  32.942  13.344  14.985
 6955W        W75373  44.931  26.545   4.236
 6956W        W75374  42.366  33.390  14.447
 6957W        W75375  13.611  44.799  12.055
 6958W        W75376  43.855  16.784   1.836
 6959W        W75377   6.888  23.681   2.399
 6960W        W75378  25.526  39.837   2.680
 6961W        W75379  36.089  39.916  10.102
 6962W        W75380   2.321   1.969   2.816
 6963W        W75381  42.304  23.051   4.117
 6964W        W75382  30.609   6.290  11.900
 6965W        W75383  44.964  25.203  14.365
 6966W        W75384  17.163  16.598  12.972
 6967W        W75385  17.065  42.960   0.914
 6968W        W75386   7.764  16.611   1.329
 6969W        W75387  37.888   3.419  10.491
 6970W        W75388  35.018  22.605  10.978
 6971W        W75389  13.711  33.543   0.796
 6972W        W75390   0.468   2.948  12.913
 6973W        W75391  44.821  17.578  13.910
 6974W        W75392  33.403   4.293  14.892
 6975W        W75393  40.803  20.573   2.287
 6976W        W75394  38.894  27.035  10.452
 6977W        W75395  32.579  28.066  14.987
 6978W        W75396  42.981  36.070  12.905
 6979W        W75397  40.527  16.762   4.725
 6980W        W75398  35.494   0.261   4.696
 6981W        W75399  43.795  27.178   0.767
 6982W        W75400  37.849  32.456   1.322
 6983W        W75401  30.444  38.413   1.887
 6984W        W75402  12.121  38.539  10.509
 6985W        W75403  23.507   2.433   1.794
 6986W        W75404   0.900  16.081   0.878
 6987W        W75405   9.857  12.233   0.366
 6988W        W75406  20.698  23.136   1.882
 6989W        W75407  30.981  32.140  14.292
 6990W        W75408  35.100  37.990   4.299
 6991W        W75409  31.425  16.307   3.711
 6992W        W75410  27.985  26.136   1.752
 6993W        W75411   2.264  37.469   4.776
 6994W        W75412  13.747  15.221  12.007
 6995W        W75413  26.628  29.929  12.835
 6996W        W75414  44.334  19.149   0.934
 6997W        W75415  10.757  10.698   0.305
 6998W        W75416  17.073  24.709  11.428
 6999W        W75417  18.587  26.648  10.450
 7000W        W75418   7.236  39.533  10.578
 7001W        W75419   3.942   4.377   0.361
 7002W        W75420   1.456  20.632   3.381
 7003W        W75421   7.912  22.605   0.805
 7004W        W75422  15.132  44.407   1.371
 7005W        W75423   0.266  21.734  14.825
 7006W        W75424  35.997  24.084   3.186
 7007W        W75425  21.561  31.615   0.326
 7008W        W75426  30.544   3.779   0.940
 7009W        W75427  36.512  10.809   3.639
 7010W        W75428  18.581  25.556  12.877
 7011W        W75429  35.558  14.275   2.732
 7012W        W75430  18.137  35.881  13.425
 7013W        W75431  18.193   0.391   0.761
 7014W        W75432  26.060  10.831   3.769
 7015W        W75433  13.684  41.496  10.641
 7016W        W75434  23.158  43.019  12.403
 7017W        W75435  25.093  10.205  10.522
 7018W        W75436   6.793  28.104  13.363
 7019W        W75437  37.446   4.431  14.464
 7020W        W75438  25.628  30.493   2.252
 7021W        W75439  19.158  10.161  11.104
 7022W        W75440  43.472   9.753   1.755
 7023W        W75441  28.487  10.683   2.770
 7024W        W75442   8.659  28.961  12.549
 7025W        W75443  25.557   3.939   4.290
 7026W        W75444  25.526  33.987  14.310
 7027W        W75445   9.764  31.002   0.739
 7028W        W75446   2.316   9.838  12.462
 7029W        W75447   2.366  34.961  12.490
 7030W        W75448  26.614   4.832   2.241
 7031W        W75449   3.918  31.087   0.799
 7032W        W75450  41.042   0.392  13.541
 7033W        W75451   1.965  42.333   1.703
 7034W        W75452  29.992  31.562  12.948
 7035W        W75453   9.686   4.916   4.828
 7036W        W75454  34.878  37.007   2.834
 7037W        W75455  24.146  15.595  14.448
 7038W        W75456  31.633  13.165   4.186
 7039W        W75457  20.614   4.450   1.881
 7040W        W75458  32.899  19.560   2.187
 7041W        W75459  14.270  28.952   1.762
 7042W        W75460  34.592  41.443  11.541
 7043W        W75461  18.601  24.679   2.275
 7044W        W75462  34.884  30.574  10.036
 7045W        W75463  12.240  13.334   4.331
 7046W        W75464  29.636   2.350  12.532
 7047W        W75465   4.340  23.660   4.600
 7048W        W75466   8.191  31.992   4.148
 7049W        W75467  38.529  16.296  11.094
 7050W        W75468  15.186  35.998   3.849
 7051W        W75469  40.879  20.534  11.450
 7052W        W75470  12.283  35.863   3.155
 7053W        W75471  14.102  25.472  14.904
 7054W        W75472  15.671  33.021  10.640
 7055W        W75473  36.441  36.588  12.975
 7056W        W75474  16.242  21.719   0.818
 7057W        W75475   4.379   8.870  11.107
 7058W        W75476   3.768   7.357  14.903
 7059W        W75477   7.263  31.520  12.083
 7060W        W75478  30.492  23.717   2.885
 7061W        W75479  13.605  35.006   1.373
 7062W        W75480  44.995  16.308   1.276
 7063W        W75481  15.165  40.801   3.368
 7064W        W75482  14.160  32.447  10.479
 7065W        W75483   0.924  19.574   4.246
 7066W        W75484  17.577  38.387   4.175
 7067W        W75485  10.760  39.326  10.475
 7068W        W75486  28.670   0.982  12.033
 7069W        W75487   3.446  27.053   0.356
 7070W        W75488  31.414  32.405   2.725
 7071W        W75489  10.188   6.864  11.505
 7072W        W75490  11.839  42.896   0.862
 7073W        W75491  33.542  33.119  14.409
 7074W        W75492  34.904   3.870  14.405
 7075W        W75493  20.635   7.198  12.935
 7076W        W75494  43.886  32.906  10.558
 7077W        W75495   4.897  19.698  11.953
 7078W        W75496  40.333  15.319   0.344
 7079W        W75497  19.267   5.230  14.973
 7080W        W75498  37.550  43.998  12.963
 7081W        W75499  26.062  42.823   2.853
 7082W        W75500  16.800   7.220  11.502
 7083W        W75501  13.734  14.276   3.356
 7084W        W75502  26.626   4.797  14.353
 7085W        W75503  24.671  32.141  12.873
 7086W        W75504  39.315   7.235   2.243
 7087W        W75505  34.943   5.708  11.059
 7088W        W75506  14.139  30.543  11.058
 7089W        W75507  38.396  27.051  11.067
 7090W        W75508  12.838   0.778   0.802
 7091W        W75509   9.352   9.647   1.708
 7092W        W75510  35.943  24.048   0.327
 7093W        W75511   5.197  19.048   3.268
 7094W        W75512  44.909  21.214  12.529
 7095W        W75513  23.608  28.041   3.852
 7096W        W75514  20.153  38.458  12.454
 7097W        W75515  42.859  23.131   3.179
 7098W        W75516  23.683  19.720  12.350
 7099W        W75517  22.216  24.585  14.359
 7100W        W75518   8.688  40.524   5.292
 7101W        W75519   9.772   5.829  12.007
 7102W        W75520   9.704  18.627  14.951
 7103W        W75521  33.958  41.981   1.332
 7104W        W75522  26.674   8.363  13.411
 7105W        W75523  33.904  41.826  14.000
 7106W        W75524  31.904  28.631  12.545
 7107W        W75525  42.844  26.679  11.086
 7108W        W75526  30.657  43.818   0.355
 7109W        W75527  20.706  40.317  14.773
 7110W        W75528  20.182  25.116  12.928
 7111W        W75529  20.149  18.272  11.094
 7112W        W75530   7.198   4.880  13.044
 7113W        W75531   4.227  34.971   1.334
 7114W        W75532   5.868  26.542  12.085
 7115W        W75533  44.947   0.400  10.923
 7116W        W75534   1.801  26.548   3.648
 7117W        W75535  33.126  37.472  12.947
 7118W        W75536  16.805  41.404  11.070
 7119W        W75537  19.536  34.926  13.521
 7120W        W75538  39.535  11.738   2.365
 7121W        W75539   8.733  18.232  14.417
 7122W        W75540  12.651   8.781  13.896
 7123W        W75541  20.532  23.042   4.260
 7124W        W75542  25.185  10.251  14.868
 7125W        W75543  33.978  40.365   1.760
 7126W        W75544  37.416  28.455  12.528
 7127W        W75545  15.128   9.731   1.794
 7128W        W75546  35.928  40.528  12.376
 7129W        W75547  20.579  42.495  14.414
 7130W        W75548   1.451  23.149  14.358
 7131W        W75549  41.339  32.038  12.381
 7132W        W75550  25.204  34.962  12.042
 7133W        W75551  35.472  35.469  11.602
 7134W        W75552  13.804  43.395   3.719
 7135W        W75553  40.940  21.619   2.833
 7136W        W75554  39.942  17.657   2.258
 7137W        W75555  41.889  33.951  14.770
 7138W        W75556  30.501  10.197  10.914
 7139W        W75557  29.918  15.665   1.777
 7140W        W75558  33.122  21.513   0.802
 7141W        W75559  43.997  44.378   4.283
 7142W        W75560  40.925   7.843  11.110
 7143W        W75561  41.001   0.457  14.373
 7144W        W75562  12.818  29.638  11.536
 7145W        W75563  14.786  15.815  13.489
 7146W        W75564  15.142  21.520  12.984
 7147W        W75565  38.951   6.332  11.884
 7148W        W75566  40.338  11.167   3.304
 7149W        W75567   9.647  44.797   4.158
 7150W        W75568  35.518  10.781   0.274
 7151W        W75569  19.597  26.525  10.908
 7152W        W75570   8.254  29.063  13.482
 7153W        W75571  20.626  26.606  12.398
 7154W        W75572  31.075   4.752   3.235
 7155W        W75573  44.415  30.655  12.004
 7156W        W75574   8.871  22.724  12.999
 7157W        W75575   5.274  35.853   3.179
 7158W        W75576  43.841  30.634  14.460
 7159W        W75577  24.502  33.014   2.238
 7160W        W75578  16.728   6.382   0.393
 7161W        W75579  17.764   5.375   3.162
 7162W        W75580   3.764  31.053  11.035
 7163W        W75581  33.023   1.783  10.934
 7164W        W75582  26.480   6.427  11.912
 7165W        W75583  17.563   5.432   2.798
 7166W        W75584  39.333  37.958  10.597
 7167W        W75585  20.187   5.367  12.896
 7168W        W75586  41.524   6.209   2.832
 7169W        W75587  42.452  27.101   1.717
 7170W        W75588  14.606  16.776   1.279
 7171W        W75589  44.879  21.244   9.665
 7172W        W75590  24.165   8.392  14.764
 7173W        W75591   6.251   9.361   2.359
 7174W        W75592  20.703  15.670   4.146
 7175W        W75593  38.831  36.952   3.253
 7176W        W75594  42.984  43.349   1.439
 7177W        W75595  25.547  30.581   1.353
 7178W        W75596  24.703  39.493  13.022
 7179W        W75597   4.756  11.849  14.863
 7180W        W75598  13.111  28.027  12.881
 7181W        W75599  36.579  26.605   0.884
 7182W        W75600   3.298  41.326  10.526
 7183W        W75601  13.729  20.596  14.495
 7184W        W75602  27.983   6.873   0.840
 7185W        W75603  42.883  23.647   2.812
 7186W        W75604  44.755  38.519  13.006
 7187W        W75605  25.496  44.873   0.404
 7188W        W75606  20.634  13.256  10.027
 7189W        W75607  17.586  43.887  14.865
 7190W        W75608  16.253  36.862   2.417
 7191W        W75609  10.241  26.167   1.797
 7192W        W75610  38.975  10.823  11.047
 7193W        W75611   9.200  22.124   0.470
 7194W        W75612  43.006   9.725   3.684
 7195W        W75613  29.120   7.373   4.829
 7196W        W75614  21.253   2.399   2.791
 7197W        W75615  41.889  32.006  12.402
 7198W        W75616  35.533  40.489  11.899
 7199W        W75617  25.191  44.888  14.991
 7200W        W75618  24.586  18.050   3.369
 7201W        W75619  41.825   2.278   4.614
 7202W        W75620  25.503  12.306   2.837
 7203W        W75621   5.765   2.402  12.447
 7204W        W75622   6.815  22.048   3.255
 7205W        W75623  16.605   5.828   4.211
 7206W        W75624  25.590  12.646   1.923
 7207W        W75625   6.898  31.955   3.639
 7208W        W75626   1.942  34.444  10.491
 7209W        W75627  10.381  20.053  13.381
 7210W        W75628  26.480  25.654   3.166
 7211W        W75629  28.448  24.551  11.517
 7212W        W75630  17.298  18.583   2.783
 7213W        W75631  40.053  29.642   0.891
 7214W        W75632   3.248  25.171  13.356
 7215W        W75633  25.142  40.894  13.983
 7216W        W75634  36.484  40.346  10.569
 7217W        W75635  23.212  33.002   4.697
 7218W        W75636  12.762   6.223   0.374
 7219W        W75637  12.178   9.858   3.675
 7220W        W75638  13.178  39.842   4.699
 7221W        W75639   3.725  18.261  12.901
 7222W        W75640  17.163  29.027  14.394
 7223W        W75641  27.085  21.748  14.002
 7224W        W75642  36.036  30.943  13.026
 7225W        W75643  28.112  31.412  14.018
 7226W        W75644  12.709   1.914  12.836
 7227W        W75645   8.265  36.988  12.895
 7228W        W75646  20.216  11.814  10.624
 7229W        W75647  19.265  18.769   1.364
 7230W        W75648  41.856  30.526   0.912
 7231W        W75649  28.089   5.288   0.377
 7232W        W75650  31.974  39.866  11.962
 7233W        W75651   9.385   9.866   4.348
 7234W        W75652  14.139  25.586  10.916
 7235W        W75653  30.087  38.526   1.716
 7236W        W75654  10.817  44.315   0.847
 7237W        W75655   2.446  26.162  13.843
 7238W        W75656  40.414  23.569   3.263
 7239W        W75657  31.451  21.597  14.877
 7240W        W75658  29.517   1.350   3.206
 7241W        W75659   1.314  15.178   0.796
 7242W        W75660  38.007  34.538   2.711
 7243W        W75661  24.630  20.233   4.301
 7244W        W75662   0.778  39.548  12.478
 7245W        W75663  16.662   2.319   0.899
 7246W        W75664  28.458  16.693  13.979
 7247W        W75665  15.740  29.949  11.485
 7248W        W75666  25.651   5.221  13.969
 7249W        W75667  28.124  17.257  12.035
 7250W        W75668   0.393  22.508   9.597
 7251W        W75669  13.235  23.235  13.929
 7252W        W75670  37.345  33.568  12.069
 7253W        W75671  11.148  32.011   1.711
 7254W        W75672  41.497  13.179  14.291
 7255W        W75673  44.870  22.635  12.961
 7256W        W75674  43.313  28.165  12.826
 7257W        W75675  14.120  38.994   3.297
 7258W        W75676  38.417  18.725   1.380
 7259W        W75677  18.690  43.430  10.960
 7260W        W75678  18.096  44.411  12.916
 7261W        W75679   3.946   2.319   4.176
 7262W        W75680   1.252  31.128  13.411
 7263W        W75681  26.117  27.953   4.776
 7264W        W75682  22.070  22.071  11.914
 7265W        W75683  37.959   1.879  13.501
 7266W        W75684   2.911  21.236   1.416
 7267W        W75685  36.995  39.425  14.773
 7268W        W75686  14.627   3.836   1.333
 7269W        W75687   3.260  39.879   2.822
 7270W        W75688  33.522  26.633   3.263
 7271W        W75689   4.774  18.557   0.281
 7272W        W75690  12.825  32.490   1.217
 7273W        W75691  13.303  12.755   3.207
 7274W        W75692  10.200   4.430   3.741
 7275W        W75693  18.197  30.110  11.089
 7276W        W75694   8.404   8.756  14.306
 7277W        W75695   8.373  38.051   4.167
 7278W        W75696  12.254  27.090  10.545
 7279W        W75697  34.443  36.909  11.104
 7280W        W75698   2.746   0.294   3.705
 7281W        W75699  33.047  35.099   4.250
 7282W        W75700  14.326   0.425  10.448
 7283W        W75701  21.074  32.910   0.379
 7284W        W75702  42.446   3.308  14.473
 7285W        W75703  44.002  22.517  14.894
 7286W        W75704  20.124  43.412   1.911
 7287W        W75705  21.570  10.218  13.817
 7288W        W75706  28.470  18.066   2.310
 7289W        W75707  31.648  37.482   1.887
 7290W        W75708  41.388  20.209  11.902
 7291W        W75709  23.724  22.503   4.607
 7292W        W75710  35.511  28.978  10.907
 7293W        W75711  31.060  20.755   4.299
 7294W        W75712  24.152  41.848   2.724
 7295W        W75713  25.579  21.697  13.352
 7296W        W75714  36.419  30.436  10.631
 7297W        W75715  18.547  14.694   1.838
 7298W        W75716  31.502  32.989  12.869
 7299W        W75717  14.831  30.001  11.012
 7300W        W75718  41.998  34.011   2.722
 7301W        W75719  31.577   8.845   0.820
 7302W        W75720  42.338  42.927   0.843
 7303W        W75721  14.136  31.537   4.744
 7304W        W75722  41.520   8.789  12.563
 7305W        W75723  42.970   2.386   1.364
 7306W        W75724  33.416  12.162   0.419
 7307W        W75725   7.876  26.680   1.856
 7308W        W75726   0.408   4.376  11.411
 7309W        W75727  42.912  39.013   1.801
 7310W        W75728  42.514  25.109  14.896
 7311W        W75729   1.241   0.876  11.948
 7312W        W75730  17.197  14.295   1.318
 7313W        W75731  12.744  15.675  13.915
 7314W        W75732   2.890  32.595  11.041
 7315W        W75733  13.751  40.412  12.571
 7316W        W75734  29.038  37.920  11.544
 7317W        W75735  44.763  21.045  13.477
 7318W        W75736   4.938  24.588  11.533
 7319W        W75737  44.893   8.859   2.397
 7320W        W75738  39.334  32.026   4.148
 7321W        W75739  20.608  21.542  14.022
 7322W        W75740  10.859   2.953  14.985
 7323W        W75741  10.141   1.311  13.468
 7324W        W75742  13.282  42.991   5.272
 7325W        W75743  43.420   5.224   4.185
 7326W        W75744  22.240  37.404   0.938
 7327W        W75745   6.308  19.660   2.736
 7328W        W75746  29.088   2.310   0.825
 7329W        W75747  32.907  26.623   1.285
 7330W        W75748  22.250  24.662   4.313
 7331W        W75749  39.832   2.429   4.700
 7332W        W75750  28.532  17.749   1.805
 7333W        W75751  31.923  28.053   0.303
 7334W        W75752  18.295  35.485  14.892
 7335W        W75753  29.086  31.540   4.254
 7336W        W75754  42.781  38.457  12.435
 7337W        W75755   6.715  32.089   5.288
 7338W        W75756  36.855  29.959  11.044
 7339W        W75757  14.616  13.310  12.409
 7340W        W75758  41.425   8.870  12.870
 7341W        W75759   2.463   4.329  10.541
 7342W        W75760  13.281  11.702  13.525
 7343W        W75761  14.751  18.262  11.104
 7344W        W75762  36.065   2.917   1.905
 7345W        W75763  16.665   0.269  12.974
 7346W        W75764   8.225  33.514   4.677
 7347W        W75765  41.467  16.621   2.343
 7348W        W75766  10.253   0.830  11.105
 7349W        W75767  44.792  30.595  13.940
 7350W        W75768   3.429  28.002  13.878
 7351W        W75769  36.453  28.963  13.528
 7352W        W75770  43.787   7.312   1.309
 7353W        W75771   3.732  37.559  10.510
 7354W        W75772   7.881  34.052  13.364
 7355W        W75773  16.723   2.951   1.744
 7356W        W75774  33.920   5.925  13.486
 7357W        W75775  28.556  13.223   1.365
 7358W        W75776   1.404  18.215  12.446
 7359W        W75777   1.791  21.740   0.945
 7360W        W75778  22.706  22.212   0.479
 7361W        W75779   7.198  33.485  10.572
 7362W        W75780  35.060  11.638   4.837
 7363W        W75781  32.437   1.478  11.086
 7364W        W75782  12.157  41.318   4.158
 7365W        W75783  30.043  29.428  14.976
 7366W        W75784  30.080  25.171   4.731
 7367W        W75785   3.287  30.453   1.875
 7368W        W75786  14.690   4.867   1.909
 7369W        W75787  41.846  22.671  14.027
 7370W        W75788  16.619   4.904  13.822
 7371W        W75789  29.074  25.036  13.358
 7372W        W75790  21.247  27.472   2.302
 7373W        W75791  42.876  13.232   3.171
 7374W        W75792  27.087  13.645   1.304
 7375W        W75793  14.693  22.237  14.854
 7376W        W75794  39.448  31.910   2.670
 7377W        W75795  28.442  13.665   0.407
 7378W        W75796  23.095  28.931   3.270
 7379W        W75797   0.960  42.505   3.312
 7380W        W75798  38.530  37.914   3.306
 7381W        W75799  33.624   9.274   1.233
 7382W        W75800  29.963   8.272   5.630
 7383W        W75801   4.705  39.992  10.614
 7384W        W75802  16.315  41.434  14.503
 7385W        W75803  36.548   4.868  13.981
 7386W        W75804   2.887  43.976   3.171
 7387W        W75805  35.096   3.402   4.335
 7388W        W75806  33.976  32.920  10.407
 7389W        W75807  27.002  25.534   1.426
 7390W        W75808  29.477  10.296  10.011
 7391W        W75809  14.685  13.272  13.987
 7392W        W75810   5.830  29.107  12.980
 7393W        W75811  36.856   4.702  11.030
 7394W        W75812  23.009  31.064  11.085
 7395W        W75813  22.113  16.606  10.947
 7396W        W75814  32.440  39.530  11.460
 7397W        W75815  44.337  22.707   0.316
 7398W        W75816  23.606  43.289   1.729
 7399W        W75817  42.786  13.349  10.410
 7400W        W75818   1.366  32.463  11.083
 7401W        W75819  10.779  35.541   3.209
 7402W        W75820  18.088  21.069   2.341
 7403W        W75821  13.203  41.837  12.550
 7404W        W75822  23.027  21.252  14.484
 7405W        W75823  39.986  14.121  11.549
 7406W        W75824  12.146  44.920   2.244
 7407W        W75825  31.493   6.379  14.306
 7408W        W75826  23.585  18.568  11.577
 7409W        W75827   1.961  26.208  13.012
 7410W        W75828   3.952  44.776  12.884
 7411W        W75829  12.149  44.952   3.644
 7412W        W75830   0.771  36.357  12.489
 7413W        W75831  43.985  24.576   5.097
 7414W        W75832  43.369  36.080  13.017
 7415W        W75833  31.985  21.604  11.612
 7416W        W75834  18.190   1.414  13.392
 7417W        W75835  19.601  38.946   3.692
 7418W        W75836   2.374  26.104   3.745
 7419W        W75837  44.862  27.968  10.956
 7420W        W75838  17.564  31.986   0.246
 7421W        W75839  35.978   7.695   0.942
 7422W        W75840   5.712  36.408   0.854
 7423W        W75841  12.842  28.000   1.876
 7424W        W75842  36.470  39.396  10.998
 7425W        W75843  12.659  43.349  13.518
 7426W        W75844  31.418  31.514   4.748
 7427W        W75845   5.917  39.469  14.830
 7428W        W75846   4.789   3.758   4.700
 7429W        W75847  27.028  13.834   3.148
 7430W        W75848  22.671  26.006   4.178
 7431W        W75849   4.287   3.432   1.902
 7432W        W75850   9.882  32.419   1.910
 7433W        W75851  32.080  24.490   2.797
 7434W        W75852  11.782  36.354   3.701
 7435W        W75853   2.370  11.643  13.997
 7436W        W75854  31.417  44.810  13.412
 7437W        W75855  23.718   3.254   4.716
 7438W        W75856   8.816  32.953  11.868
 7439W        W75857  13.321  21.528   0.263
 7440W        W75858  11.737  42.475  13.817
 7441W        W75859  26.585  19.166  14.308
 7442W        W75860  26.166  27.984  11.442
 7443W        W75861  34.931  11.721  14.006
 7444W        W75862  44.340  12.158   1.405
 7445W        W75863   1.968  20.559   1.779
 7446W        W75864   1.276  21.112  14.452
 7447W        W75865   5.331  25.614  14.964
 7448W        W75866  24.977  26.178  14.458
 7449W        W75867  31.624  27.637  10.447
 7450W        W75868  30.937   9.180   2.786
 7451W        W75869  12.282  41.858  10.625
 7452W        W75870  26.038   5.825  13.032
 7453W        W75871  24.224  22.506   0.434
 7454W        W75872  10.358   2.292  11.953
 7455W        W75873  43.410  14.782  11.113
 7456W        W75874  36.975   4.812  14.859
 7457W        W75875   0.296  40.475   3.359
 7458W        W75876  10.822  30.616   0.861
 7459W        W75877  19.716  12.202  10.490
 7460W        W75878  17.580  12.792   2.888
 7461W        W75879  14.736  28.185  10.923
 7462W        W75880  37.385  32.969  12.995
 7463W        W75881  15.813   2.341   2.780
 7464W        W75882  44.405   6.860   4.804
 7465W        W75883  32.427  14.689  14.512
 7466W        W75884  16.651   5.304   0.875
 7467W        W75885   7.303   3.400   3.256
 7468W        W75886  27.524  19.248  11.523
 7469W        W75887  11.738  14.291   1.385
 7470W        W75888  28.998  15.730   0.387
 7471W        W75889  17.284   5.727  13.925
 7472W        W75890  25.637   0.984  11.002
 7473W        W75891  32.129  13.632  10.516
 7474W        W75892   1.871  22.507   3.161
 7475W        W75893  39.555  19.722   5.081
 7476W        W75894  35.537  39.319  11.116
 7477W        W75895   2.291  13.608   4.673
 7478W        W75896  35.555  23.492   2.706
 7479W        W75897  13.319  18.737   1.451
 7480W        W75898  36.568  27.600  11.902
 7481W        W75899  35.367  31.109  12.022
 7482W        W75900  32.616  40.037   0.797
 7483W        W75901  34.557  17.759  10.617
 7484W        W75902   4.308  26.197   3.146
 7485W        W75903  43.925  26.182   4.640
 7486W        W75904  40.539  11.723   3.728
 7487W        W75905  33.096   0.895  10.979
 7488W        W75906  22.738  40.833   3.334
 7489W        W75907  26.588  28.936  14.340
 7490W        W75908  41.853  14.703   2.725
 7491W        W75909  31.983  12.209   3.852
 7492W        W75910  30.549   2.232  12.870
 7493W        W75911  40.018  31.903   3.361
 7494W        W75912  36.445  20.646   1.277
 7495W        W75913   9.794  43.497  11.971
 7496W        W75914   0.433  41.476   3.634
 7497W        W75915  29.652  32.894  12.034
 7498W        W75916  21.109   9.884  14.443
 7499W        W75917   5.406  41.438   2.867
 7500W        W75918   9.301  15.736   0.929
 7501W        W75919  16.758   5.300  12.853
 7502W        W75920  30.607  17.069  11.101
 7503W        W75921  28.500  14.288  10.920
 7504W        W75922   3.237  14.600  12.417
 7505W        W75923   6.922  18.734   1.345
 7506W        W75924  42.385  13.806  11.401
 7507W        W75925  14.123  20.102  10.592
 7508W        W75926  16.691  22.518   1.219
 7509W        W75927   9.277  33.428   4.693
 7510W        W75928   2.342  20.676   0.839
 7511W        W75929  32.594  17.075   3.387
 7512W        W75930  15.245  38.976  10.542
 7513W        W75931  40.408  12.691  11.096
 7514W        W75932   8.213  14.136   0.943
 7515W        W75933  40.310  23.010  14.286
 7516W        W75934  29.569  22.104  11.092
 7517W        W75935   0.948  43.326   1.766
 7518W        W75936  29.972  21.525  11.984
 7519W        W75937  37.529  26.537   3.847
 7520W        W75938   1.754  19.071   3.346
 7521W        W75939  44.766  39.385  14.910
 7522W        W75940   4.356  43.492  10.530
 7523W        W75941  35.589  15.124   3.369
 7524W        W75942   2.795   2.247   1.748
 7525W        W75943   7.417  19.741  12.384
 7526W        W75944   5.774  22.117   0.816
 7527W        W75945  39.348  16.242   4.752
 7528W        W75946  11.749  25.523   1.233
 7529W        W75947   5.779  20.715   4.117
 7530W        W75948  14.688  26.662   3.736
 7531W        W75949  38.423  20.185   3.379
 7532W        W75950  21.660   6.198   0.303
 7533W        W75951  23.172  38.938  11.504
 7534W        W75952  10.159   3.454   1.934
 7535W        W75953  34.590  12.357  11.918
 7536W        W75954  38.946  16.104   1.857
 7537W        W75955  27.524  11.741  13.987
 7538W        W75956  43.435  37.341   1.920
 7539W        W75957  24.516  28.602   2.319
 7540W        W75958  38.950  38.994   4.821
 7541W        W75959  11.752  16.201   4.656
 7542W        W75960   4.211  11.688  12.916
 7543W        W75961  32.132   1.859   1.378
 7544W        W75962   0.823  37.893   3.147
 7545W        W75963   5.201  15.789   0.893
 7546W        W75964  30.032  21.118  10.072
 7547W        W75965  41.795  35.902  11.982
 7548W        W75966  28.656   3.388   0.406
 7549W        W75967  22.034  20.694  11.021
 7550W        W75968  30.549  21.541  10.488
 7551W        W75969  35.409  20.219  10.506
 7552W        W75970  13.261  38.958  13.007
 7553W        W75971   6.232  19.586   2.318
 7554W        W75972  32.403  12.120  14.998
 7555W        W75973  42.485  32.486  11.043
 7556W        W75974   7.181  17.139  14.484
 7557W        W75975  14.631  30.081   4.748
 7558W        W75976  43.969   8.842   2.723
 7559W        W75977  32.420  24.131   0.747
 7560W        W75978  32.609  42.507  13.312
 7561W        W75979  23.615   9.691   2.246
 7562W        W75980  32.124  32.991   2.822
 7563W        W75981  27.063   6.809   1.381
 7564W        W75982   2.751  22.010  12.359
 7565W        W75983  38.420  41.850   3.733
 7566W        W75984   1.865  29.076  11.100
 7567W        W75985   9.225   1.460   3.320
 7568W        W75986   1.736  22.197  12.993
 7569W        W75987  11.688  21.157   2.312
 7570W        W75988  38.916  33.461  11.874
 7571W        W75989  25.140  31.518  13.337
 7572W        W75990   6.871  14.631  14.791
 7573W        W75991   3.710  29.576  13.473
 7574W        W75992  25.974   2.267  11.952
 7575W        W75993   3.901  11.789   1.212
 7576W        W75994  24.485  21.649   2.799
 7577W        W75995  36.477   8.228   4.345
 7578W        W75996   5.781  35.552   4.835
 7579W        W75997   5.718   6.286   4.615
 7580W        W75998   7.260  31.419  13.359
 7581W        W75999   7.184  22.610   0.876
 7582W        W76000  31.969  37.457   3.819
 7583W        W76001  38.024   8.810  14.862
 7584W        W76002  33.005  43.944  12.033
 7585W        W76003  12.657   8.842   1.705
 7586W        W76004  37.863  10.819   1.903
 7587W        W76005  43.360  44.795   4.801
 7588W        W76006  17.168  38.931   5.122
 7589W        W76007  19.183  16.645  10.617
 7590W        W76008   4.911   4.797   3.308
 7591W        W76009  10.293  42.339  11.394
 7592W        W76010  33.388  25.503   2.238
 7593W        W76011  40.842  30.524   2.383
 7594W        W76012  22.620  41.801   0.903
 7595W        W76013  10.685  24.086   0.906
 7596W        W76014   8.853   6.755   2.856
 7597W        W76015  36.962  33.465   4.782
 7598W        W76016  16.185   9.280   4.155
 7599W        W76017   8.739  28.176  10.934
 7600W        W76018  29.987   8.351  11.914
 7601W        W76019  43.384  28.098   3.721
 7602W        W76020  44.485  29.667   3.289
 7603W        W76021  41.817  30.574  14.847
 7604W        W76022  40.053   5.854   4.651
 7605W        W76023  26.581  38.017   0.939
 7606W        W76024   8.307  43.857  12.043
 7607W        W76025  19.716  34.499   0.444
 7608W        W76026  30.413  29.615  11.881
 7609W        W76027  35.096  40.498  12.012
 7610W        W76028   1.947  28.930   3.860
 7611W        W76029   7.678  44.445   3.750
 7612W        W76030  23.554  44.409   3.667
 7613W        W76031  19.264  25.628  12.420
 7614W        W76032  40.932  33.489  10.645
 7615W        W76033  30.948  23.025   1.266
 7616W        W76034   0.296  11.367   4.136
 7617W        W76035  34.480   2.966  12.052
 7618W        W76036   2.731   5.334   4.160
 7619W        W76037  27.154   2.250  13.886
 7620W        W76038  16.671  23.669   2.377
 7621W        W76039  11.242  29.137  13.494
 7622W        W76040  17.691  32.426  10.977
 7623W        W76041  25.614  20.667  14.010
 7624W        W76042  38.999  21.553  14.853
 7625W        W76043   8.820  28.474   1.285
 7626W        W76044  23.216  29.925  13.476
 7627W        W76045  32.469   2.732  11.039
 7628W        W76046  27.003  16.724  14.333
 7629W        W76047  24.547   6.722   2.889
 7630W        W76048  24.694  11.157  13.001
 7631W        W76049  18.672  29.033  14.821
 7632W        W76050  12.156  14.772  10.491
 7633W        W76051  23.160  13.347   0.868
 7634W        W76052   3.911   4.893   0.403
 7635W        W76053   1.288  42.392   2.819
 7636W        W76054  13.742  17.243  12.498
 7637W        W76055  40.386  41.923  12.355
 7638W        W76056  35.909   9.331  12.550
 7639W        W76057   9.839  29.927   3.187
 7640W        W76058  25.682  10.372   2.808
 7641W        W76059  10.758   8.657  13.977
 7642W        W76060  44.762  43.306  10.591
 7643W        W76061  29.655   9.780  11.865
 7644W        W76062  31.532  38.889   3.215
 7645W        W76063  41.041   9.827  10.939
 7646W        W76064   7.782  42.515   4.159
 7647W        W76065   3.397  40.547   4.281
 7648W        W76066  12.724   5.367  13.425
 7649W        W76067  36.076  28.086   3.655
 7650W        W76068  35.481  38.987  11.404
 7651W        W76069  15.667  29.500  10.417
 7652W        W76070  44.906   0.290   4.153
 7653W        W76071  13.740  23.503   4.727
 7654W        W76072  34.088  23.204   4.231
 7655W        W76073  30.129  40.511   0.356
 7656W        W76074  33.034   2.763  14.930
 7657W        W76075  39.878  12.346  12.374
 7658W        W76076   0.253  36.058  14.345
 7659W        W76077  39.506  44.397   1.424
 7660W        W76078   4.821  44.485  13.861
 7661W        W76079   7.728  23.715   1.818
 7662W        W76080  28.069  26.471   3.223
 7663W        W76081   7.198  35.912   3.304
 7664W        W76082  34.450  32.571  10.944
 7665W        W76083   8.173  26.190  11.557
 7666W        W76084   0.316  34.391  14.804
 7667W        W76085  24.100  16.205   0.480
 7668W        W76086  24.195  14.644  10.412
 7669W        W76087  33.413  31.646   4.611
 7670W        W76088  22.074   2.813  10.618
 7671W        W76089  44.754   1.306   4.161
 7672W        W76090   4.847  36.890  13.407
 7673W        W76091  19.767  33.881  12.932
 7674W        W76092  29.109  16.108   3.254
 7675W        W76093  13.300  14.780  14.957
 7676W        W76094   9.180  38.328   1.304
 7677W        W76095  28.443  26.498   2.194
 7678W        W76096  15.277  41.789   2.852
 7679W        W76097  30.658  24.531   1.886
 7680W        W76098  16.090  34.965   1.330
 7681W        W76099  15.093   4.925  12.933
 7682W        W76100  40.874  19.271  13.311
 7683W        W76101  27.109  43.332  12.562
 7684W        W76102  13.232  38.492   0.391
 7685W        W76103  13.811   5.285  13.942
 7686W        W76104  29.519  32.461   3.730
 7687W        W76105  44.495   1.363   3.285
 7688W        W76106   0.910   4.377  13.967
 7689W        W76107  30.615   8.362  11.998
 7690W        W76108   6.267  12.666   3.360
 7691W        W76109  14.689  26.648   3.199
 7692W        W76110  37.448   8.386   0.780
 7693W        W76111  13.292  29.625   2.862
 7694W        W76112  20.106  40.874  13.058
 7695W        W76113  42.850  28.040   4.599
 7696W        W76114  27.986  37.849  12.384
 7697W        W76115  42.921  27.193  10.569
 7698W        W76116  34.103  34.607  11.380
 7699W        W76117   0.877   9.736   1.759
 7700W        W76118  20.087  13.135  10.969
 7701W        W76119  11.806  13.239   4.227
 7702W        W76120  41.954   9.281   2.738
 7703W        W76121  36.385  10.852  14.008
 7704W        W76122  24.178  29.606  12.963
 7705W        W76123  39.439   0.942   0.449
 7706W        W76124  21.712  24.485  12.952
 7707W        W76125   6.879   5.237  13.014
 7708W        W76126  30.996  44.357  12.453
 7709W        W76127   5.323   4.228   0.938
 7710W        W76128   4.819  35.053  11.397
 7711W        W76129  23.103  33.959  13.507
 7712W        W76130  41.375  30.617  10.505
 7713W        W76131  33.547  22.019   1.924
 7714W        W76132  39.543   2.950  14.319
 7715W        W76133  44.374  19.235  10.629
 7716W        W76134   8.819  26.683   3.711
 7717W        W76135  19.252  32.562   1.351
 7718W        W76136   8.230  15.578   3.772
 7719W        W76137  10.731  38.032   2.704
 7720W        W76138  35.016   5.429  12.430
 7721W        W76139  32.966   7.347  14.779
 7722W        W76140  10.687  39.477   0.471
 7723W        W76141  36.931  40.927  12.537
 7724W        W76142  25.517  13.637  11.030
 7725W        W76143   3.737  34.950   4.836
 7726W        W76144  10.792   4.825   3.754
 7727W        W76145  23.662  34.468   1.434
 7728W        W76146  23.170  42.786  14.809
 7729W        W76147  20.531  12.732  13.530
 7730W        W76148   6.757  30.420  11.500
 7731W        W76149  32.495  12.784   4.613
 7732W        W76150  23.101  20.149  11.072
 7733W        W76151   0.981  24.230   3.828
 7734W        W76152  28.168  35.859   4.776
 7735W        W76153   0.839   9.883  12.046
 7736W        W76154  28.047   4.258  13.471
 7737W        W76155   9.269  31.095  13.920
 7738W        W76156   6.823  31.479   2.306
 7739W        W76157  36.059  26.603  10.951
 7740W        W76158  13.668  35.929  14.827
 7741W        W76159  11.649  18.727  10.574
 7742W        W76160  37.832  33.444   1.728
 7743W        W76161  28.118  17.730  13.369
 7744W        W76162   4.725  35.361   0.270
 7745W        W76163  18.082  43.815   0.812
 7746W        W76164   6.716  11.632  13.928
 7747W        W76165  23.701   0.321  11.127
 7748W        W76166   8.279  22.096  12.879
 7749W        W76167  19.266  27.962  13.047
 7750W        W76168  34.040   8.827  11.956
 7751W        W76169  27.686  17.591  14.032
 7752W        W76170  28.090  10.642   4.778
 7753W        W76171  44.825  13.659  13.847
 7754W        W76172   4.857  35.955  13.019
 7755W        W76173  37.855  40.852  12.499
 7756W        W76174  38.061  17.154  14.980
 7757W        W76175   4.925  43.964  14.840
 7758W        W76176   8.320   6.332  12.946
 7759W        W76177  21.209  30.417   9.939
 7760W        W76178   2.750   6.245  14.777
 7761W        W76179  13.142   8.861  12.440
 7762W        W76180   6.400  16.145  12.430
 7763W        W76181  27.997  38.950   0.939
 7764W        W76182  24.072   8.218  12.835
 7765W        W76183  35.532   8.813   0.744
 7766W        W76184   8.371  17.249  11.374
 7767W        W76185   1.354   2.730   1.375
 7768W        W76186  12.709  37.474   1.822
 7769W        W76187   9.650   5.422  11.032
 7770W        W76188  15.668  15.121  13.943
 7771W        W76189   1.949  35.013   1.450
 7772W        W76190  29.034  13.680  11.391
 7773W        W76191   6.217  37.862   3.300
 7774W        W76192  30.449   2.346   3.636
 7775W        W76193  21.181  22.670  12.561
 7776W        W76194  10.790  14.789   3.763
 7777W        W76195   2.957  41.807  12.437
 7778W        W76196  21.144  41.858  14.950
 7779W        W76197  33.451  38.468   2.182
 7780W        W76198  15.226  36.012  10.943
 7781W        W76199  37.039   2.252  13.330
 7782W        W76200  31.538  32.004  13.994
 7783W        W76201  24.228  39.937  11.488
 7784W        W76202  39.328  36.071  10.620
 7785W        W76203  12.774  24.221  13.003
 7786W        W76204   4.874  41.330  13.513
 7787W        W76205  34.481  43.512   0.384
 7788W        W76206  37.435  30.939   2.230
 7789W        W76207  28.070  11.341   0.804
 7790W        W76208  40.930  19.124  10.973
 7791W        W76209  18.595   5.264   2.204
 7792W        W76210   3.750   3.243   2.382
 7793W        W76211  44.901   9.841   4.611
 7794W        W76212  18.563  39.475   0.443
 7795W        W76213  25.684  15.280   1.748
 7796W        W76214  22.714  43.330   3.766
 7797W        W76215   0.884  18.134   0.347
 7798W        W76216   5.335   4.377  11.374
 7799W        W76217  32.969  43.343   2.264
 7800W        W76218   8.792  33.389   0.291
 7801W        W76219   3.754  27.980   4.193
 7802W        W76220  10.811   8.388   0.444
 7803W        W76221  19.533  44.867  11.921
 7804W        W76222  36.374  29.923  14.502
 7805W        W76223  21.662   6.268   2.717
 7806W        W76224  11.834   2.847   0.888
 7807W        W76225  21.081  40.841  13.055
 7808W        W76226  11.688  44.428   0.749
 7809W        W76227  44.270  28.553  13.548
 7810W        W76228  23.507  44.979   2.411
 7811W        W76229  16.296   2.239   3.736
 7812W        W76230  17.143  28.080   4.134
 7813W        W76231  37.939  40.963  13.990
 7814W        W76232  43.852  25.679   0.925
 7815W        W76233   4.753  42.354   2.387
 7816W        W76234  20.181  17.299  10.405
 7817W        W76235  10.214  37.530  10.040
 7818W        W76236  28.103   9.268  13.841
 7819W        W76237   5.293   7.800  12.869
 7820W        W76238  14.678  42.507   2.705
 7821W        W76239  18.099   9.765   0.887
 7822W        W76240   2.232  20.705   3.635
 7823W        W76241  37.902  16.624  11.105
 7824W        W76242   5.227  40.369  13.539
 7825W        W76243  41.894  39.349   3.239
 7826W        W76244   5.756   1.404  12.095
 7827W        W76245  12.139  40.047   3.706
 7828W        W76246   4.945  40.886  14.384
 7829W        W76247  44.286  27.950   3.784
 7830W        W76248  14.597   4.448   5.253
 7831W        W76249   8.397  10.338   4.167
 7832W        W76250  24.973  40.321   1.368
 7833W        W76251   8.737  21.700  11.859
 7834W        W76252   9.859   2.754  13.048
 7835W        W76253  28.162  31.438   1.323
 7836W        W76254  29.592   8.224  13.039
 7837W        W76255  26.009  11.680  12.436
 7838W        W76256  20.647  14.146   4.693
 7839W        W76257  40.390  15.099  13.991
 7840W        W76258  23.099   3.816   0.293
 7841W        W76259  28.138  42.001  10.008
 7842W        W76260  36.364  21.527   2.222
 7843W        W76261  26.952  18.629   3.716
 7844W        W76262  10.765  26.968  12.906
 7845W        W76263  29.045  32.906   2.232
 7846W        W76264  19.708  37.913  14.401
 7847W        W76265  28.495  16.767   0.388
 7848W        W76266  32.943  13.610  10.571
 7849W        W76267  27.463  21.232  12.508
 7850W        W76268  28.572  37.385   2.406
 7851W        W76269   6.307  21.162   2.389
 7852W        W76270  21.098  20.619  11.055
 7853W        W76271   5.329  19.264  10.921
 7854W        W76272  28.033  16.793  13.385
 7855W        W76273  26.134   1.767   2.335
 7856W        W76274  23.600  32.576  11.396
 7857W        W76275  20.645  19.051   0.852
 7858W        W76276  20.083  36.454   0.829
 7859W        W76277  43.404  14.183   4.659
 7860W        W76278   3.414  20.680   2.702
 7861W        W76279  24.005  13.609  14.792
 7862W        W76280  17.622  35.956  11.440
 7863W        W76281  35.587  19.712   3.317
 7864W        W76282  20.125  44.834   1.451
 7865W        W76283  19.137   8.398   2.777
 7866W        W76284  26.576  12.216  14.428
 7867W        W76285  39.818  21.564   1.823
 7868W        W76286   1.291  38.544   3.726
 7869W        W76287  26.151  35.530   2.890
 7870W        W76288  39.040   4.364   1.904
 7871W        W76289  15.102  21.632  13.995
 7872W        W76290   6.807  26.659  13.440
 7873W        W76291  11.317   3.948   1.898
 7874W        W76292  28.666  11.260  11.920
 7875W        W76293  30.993  33.919   3.731
 7876W        W76294  44.321  31.511  11.564
 7877W        W76295  44.941  13.736   4.751
 7878W        W76296  12.261  28.607   4.159
 7879W        W76297  33.620  39.410  11.398
 7880W        W76298  11.344   3.287   4.183
 7881W        W76299  22.178  34.880  12.572
 7882W        W76300  13.283  25.082   2.867
 7883W        W76301  31.068  20.152   4.285
 7884W        W76302  24.054   5.333   2.759
 7885W        W76303  37.539  12.639  10.458
 7886W        W76304   1.439  33.964  13.365
 7887W        W76305  35.101  32.543   3.170
 7888W        W76306  14.295  29.622  13.063
 7889W        W76307  29.445  17.778   0.373
 7890W        W76308  30.013  30.925   1.907
 7891W        W76309   3.332   7.310   1.325
 7892W        W76310   9.874   4.228  13.355
 7893W        W76311   2.411   6.786   2.412
 7894W        W76312  37.029   0.814   2.901
 7895W        W76313   7.177  11.626   1.415
 7896W        W76314  12.784  41.829   1.370
 7897W        W76315  14.340   3.711   3.730
 7898W        W76316  16.148  39.930  13.920
 7899W        W76317  14.329   2.877  14.441
 7900W        W76318   1.310  16.777   4.134
 7901W        W76319  18.668   3.727  14.380
 7902W        W76320  22.208  17.613  13.399
 7903W        W76321  21.679  43.915   0.882
 7904W        W76322  33.993  19.080  12.083
 7905W        W76323  20.565  28.099  12.426
 7906W        W76324  31.599  41.499   2.226
 7907W        W76325   7.812  17.120   5.181
 7908W        W76326  39.403  40.303   1.327
 7909W        W76327   3.261  25.667   3.865
 7910W        W76328  21.533   3.433   4.297
 7911W        W76329  16.241  12.783   4.682
 7912W        W76330  29.635  34.503  13.375
 7913W        W76331  27.477   1.805  11.869
 7914W        W76332  22.130  17.276   2.838
 7915W        W76333  10.230  39.957  13.342
 7916W        W76334  27.478  30.114   1.314
 7917W        W76335   0.819  40.527   3.735
 7918W        W76336   2.726  11.316  10.428
 7919W        W76337  44.442   9.254  14.954
 7920W        W76338  33.892  36.524  14.029
 7921W        W76339  27.586  39.851   2.345
 7922W        W76340  12.817  14.801   1.350
 7923W        W76341  27.512  32.410   1.364
 7924W        W76342  15.696   7.350  12.520
 7925W        W76343  40.516  10.877  10.444
 7926W        W76344  13.788  20.223  12.403
 7927W        W76345   9.307  30.649  10.487
 7928W        W76346   0.365  43.403   0.385
 7929W        W76347  18.231  16.202   0.771
 7930W        W76348  25.023  28.118  14.419
 7931W        W76349  24.197  39.914   3.225
 7932W        W76350   7.386  10.376   3.152
 7933W        W76351  10.655  31.480  13.935
 7934W        W76352  24.682  27.992   1.242
 7935W        W76353   8.239  41.532   2.804
 7936W        W76354   7.417  24.107   1.795
 7937W        W76355  33.565   6.684   0.876
 7938W        W76356  13.603   9.338   1.866
 7939W        W76357  22.513  19.039  12.974
 7940W        W76358  42.488   2.361   0.411
 7941W        W76359  16.592  27.619   3.739
 7942W        W76360  31.020   8.249  13.020
 7943W        W76361   4.430  23.628   4.277
 7944W        W76362  15.742  27.953  13.847
 7945W        W76363  21.718  29.106  12.473
 7946W        W76364   1.913  15.176   3.769
 7947W        W76365  36.871  32.460  12.972
 7948W        W76366  16.195  27.473  14.500
 7949W        W76367  14.703  20.094   0.478
 7950W        W76368   2.244  14.217   1.317
 7951W        W76369  34.604  17.184  11.024
 7952W        W76370  34.436   5.781  14.446
 7953W        W76371   4.360  28.587   4.654
 7954W        W76372  15.180  32.064  12.971
 7955W        W76373  40.534  16.267   2.833
 7956W        W76374  39.059  39.899   0.340
 7957W        W76375  23.224  32.064   2.376
 7958W        W76376   1.310  16.736   1.753
 7959W        W76377   4.245  40.933  12.911
 7960W        W76378   6.920  35.965  12.502
 7961W        W76379  28.452  17.172  13.900
 7962W        W76380   2.895  25.584   3.263
 7963W        W76381  41.800  35.037  14.513
 7964W        W76382  11.156  14.177  11.033
 7965W        W76383  11.237  17.220  13.935
 7966W        W76384  37.011  34.400  10.455
 7967W        W76385  39.956   7.399  14.310
 7968W        W76386  23.000   8.371  11.475
 7969W        W76387   4.284  29.568   4.168
 7970W        W76388  39.387  13.835  13.384
 7971W        W76389   8.351  29.587   3.651
 7972W        W76390  40.808  17.132   0.350
 7973W        W76391  27.533  19.255  12.498
 7974W        W76392   8.315  25.078   3.205
 7975W        W76393   6.273  26.166  10.478
 7976W        W76394  16.241  38.449   2.209
 7977W        W76395  27.486  41.370   4.261
 7978W        W76396   8.767   0.857  12.847
 7979W        W76397   1.276  17.624   1.929
 7980W        W76398   7.251  21.203  13.458
 7981W        W76399   0.438  16.617   0.791
 7982W        W76400  32.049  11.342   2.684
 7983W        W76401  29.974  14.744  12.828
 7984W        W76402  14.671  32.036  12.901
 7985W        W76403  16.662  18.204   0.260
 7986W        W76404   5.243   1.437   3.678
 7987W        W76405  11.846  20.653  11.974
 7988W        W76406  15.084  11.733   1.285
 7989W        W76407  12.732  19.183   4.736
 7990W        W76408  37.912   6.250  12.456
 7991W        W76409  36.508  41.821   1.444
 7992W        W76410   8.810   6.727  11.373
 7993W        W76411  34.567  30.982   4.129
 7994W        W76412  12.720  22.693   1.312
 7995W        W76413  37.371   3.955   4.804
 7996W        W76414  32.104  23.687  12.392
 7997W        W76415  17.282   7.400  14.909
 7998W        W76416  21.566   5.342  10.995
 7999W        W76417  40.465   3.241  11.530
 8000W        W76418  20.221   7.295   2.667
 8001W        W76419  36.077   6.361  11.382
 8002W        W76420   0.452  41.005   0.464
 8003W        W76421  32.573   6.336  13.347
 8004W        W76422  35.365  20.086  12.954
 8005W        W76423  19.192  34.064  14.917
 8006W        W76424  12.761  38.032  10.641
 8007W        W76425  29.588   8.816  10.075
 8008W        W76426   8.709  10.815   3.853
 8009W        W76427  19.569  44.939   4.823
 8010W        W76428  43.329  31.009   1.408
 8011W        W76429   9.295  18.067  11.126
 8012W        W76430  18.597  12.201   1.824
 8013W        W76431  35.468  25.543  12.452
 8014W        W76432  39.491  14.250   4.837
 8015W        W76433   0.840  32.114   0.296
 8016W        W76434  29.616  23.657  11.525
 8017W        W76435  29.152  37.571   1.820
 8018W        W76436  38.345  28.547  13.529
 8019W        W76437  24.095  19.628   2.262
 8020W        W76438   5.868   9.390  13.816
 8021W        W76439   2.834  33.541   0.927
 8022W        W76440  17.285   0.305   4.179
 8023W        W76441  28.626   5.270   0.473
 8024W        W76442  36.380   2.406  11.547
 8025W        W76443  25.547  18.620   1.709
 8026W        W76444  34.468  12.628  13.521
 8027W        W76445  22.053   1.876   4.622
 8028W        W76446   4.703   9.715   5.314
 8029W        W76447  36.430  25.537   2.289
 8030W        W76448   3.441  18.651  14.421
 8031W        W76449  38.915   0.756  11.057
 8032W        W76450   6.407  15.250   1.451
 8033W        W76451  23.188  42.917   3.800
 8034W        W76452   0.979   8.732  11.955
 8035W        W76453  15.653  18.650  12.002
 8036W        W76454  43.795  22.619   2.352
 8037W        W76455  41.019  18.743   4.282
 8038W        W76456  33.919  37.461   0.786
 8039W        W76457  28.655   9.165   5.093
 8040W        W76458  19.279  15.267  11.537
 8041W        W76459   6.775  12.326   2.199
 8042W        W76460  23.143  37.386  14.428
 8043W        W76461   8.252  32.954   4.633
 8044W        W76462  23.191   5.406   0.439
 8045W        W76463  16.615  42.871   1.712
 8046W        W76464  28.460  29.519   4.684
 8047W        W76465   3.218  36.845  12.449
 8048W        W76466  33.985  18.657   4.630
 8049W        W76467  32.612  13.110   0.275
 8050W        W76468  20.257   7.890   4.616
 8051W        W76469  36.436  32.106   0.387
 8052W        W76470  24.555  18.238  14.394
 8053W        W76471  27.118  41.343   1.855
 8054W        W76472  26.641  28.138   3.207
 8055W        W76473  34.924  20.526  13.532
 8056W        W76474  31.418   7.182  13.363
 8057W        W76475  11.644  39.003  13.440
 8058W        W76476  43.350  33.436   0.307
 8059W        W76477  26.005   2.865   2.746
 8060W        W76478  36.349  40.902   2.888
 8061W        W76479  31.405  26.666  11.529
 8062W        W76480  30.029  16.128  10.498
 8063W        W76481  10.855  31.630  14.485
 8064W        W76482  18.112  26.961   3.854
 8065W        W76483  29.647  23.730  10.425
 8066W        W76484  19.611   7.816  11.495
 8067W        W76485  44.948  14.186  10.466
 8068W        W76486  20.571  39.520  11.027
 8069W        W76487  24.683  39.406   4.228
 8070W        W76488  27.494   3.272   0.920
 8071W        W76489  22.183  27.058   4.165
 8072W        W76490  13.725   6.382   1.398
 8073W        W76491  12.290  12.645  10.974
 8074W        W76492  38.487  32.111  12.482
 8075W        W76493  28.476  44.327  13.358
 8076W        W76494  18.624  30.155  13.866
 8077W        W76495  37.354  41.440  10.609
 8078W        W76496   3.438   2.263   3.319
 8079W        W76497   7.827  16.582  14.954
 8080W        W76498  23.040   9.823   4.285
 8081W        W76499  20.203  13.251   5.251
 8082W        W76500  31.979   8.875  14.018
 8083W        W76501  12.143  12.847   4.600
 8084W        W76502  26.102  10.236   3.770
 8085W        W76503  31.022   4.915   2.880
 8086W        W76504  10.861  11.788  12.530
 8087W        W76505   8.747  16.622  11.459
 8088W        W76506   9.334  24.116   3.634
 8089W        W76507  16.649  27.532  11.956
 8090W        W76508  23.722  35.076   0.891
 8091W        W76509  34.379  13.637  11.419
 8092W        W76510  38.361   6.246  12.054
 8093W        W76511  43.768  40.307  13.063
 8094W        W76512  22.571   3.392   4.723
 8095W        W76513  44.880   5.929   3.276
 8096W        W76514  29.620  10.216  12.043
 8097W        W76515  16.749  10.826   3.766
 8098W        W76516  37.425  41.885   1.402
 8099W        W76517  15.690  36.376   0.778
 8100W        W76518  44.873   0.876  10.627
 8101W        W76519   8.218   1.363  13.829
 8102W        W76520  17.129   1.850  11.914
 8103W        W76521   0.943  38.958   9.942
 8104W        W76522  19.640  35.076   4.784
 8105W        W76523   3.816  32.937   4.700
 8106W        W76524  25.136  21.249  13.792
 8107W        W76525   4.388  32.624   2.831
 8108W        W76526  24.524  38.506  11.125
 8109W        W76527  16.312  17.295   4.227
 8110W        W76528  20.640   9.308   0.290
 8111W        W76529   5.910  11.297   1.390
 8112W        W76530   1.891  37.066   4.344
 8113W        W76531  23.016  12.321   4.171
 8114W        W76532   7.358  23.556   0.251
 8115W        W76533  25.498  12.261   1.766
 8116W        W76534  16.652  13.311  13.408
 8117W        W76535  29.016  34.029   4.153
 8118W        W76536  23.026  35.391  12.008
 8119W        W76537  15.112  21.617  13.344
 8120W        W76538  14.209  12.725  10.453
 8121W        W76539  35.108  36.978   5.147
 8122W        W76540  21.696  32.420  13.912
 8123W        W76541  15.322  12.778   3.783
 8124W        W76542  21.259   8.824   0.472
 8125W        W76543  38.819  36.366  14.327
 8126W        W76544  42.493  44.897   4.789
 8127W        W76545  18.607  12.260   1.396
 8128W        W76546   6.376   1.805   5.152
 8129W        W76547  29.633   2.901   1.884
 8130W        W76548   0.406  17.606  14.854
 8131W        W76549  22.214  44.769   0.847
 8132W        W76550   6.244  12.290  13.998
 8133W        W76551  20.089  28.009  14.489
 8134W        W76552  36.495   3.278  10.995
 8135W        W76553  28.567  24.073   0.862
 8136W        W76554  39.452  18.107   4.242
 8137W        W76555  31.990  30.020   4.143
 8138W        W76556   7.697  16.689  11.005
 8139W        W76557  39.323  18.120   1.889
 8140W        W76558  20.655  40.897   1.885
 8141W        W76559   6.279  36.933   1.336
 8142W        W76560  42.307  19.723  11.115
 8143W        W76561   0.414  29.011   2.397
 8144W        W76562  36.098  11.179   4.651
 8145W        W76563  41.006  24.676  11.099
 8146W        W76564  13.340   5.897  12.876
 8147W        W76565   6.742  22.058   0.403
 8148W        W76566  17.182  32.098   2.346
 8149W        W76567  31.078  34.530   3.371
 8150W        W76568  35.965  11.839  12.569
 8151W        W76569   6.733  28.480  10.419
 8152W        W76570  39.486  21.254  12.080
 8153W        W76571   4.731  26.162   0.331
 8154W        W76572  20.571   0.335   1.786
 8155W        W76573  16.608  26.513  12.049
 8156W        W76574  13.158   8.777  14.966
 8157W        W76575  10.325   9.757  12.569
 8158W        W76576  39.389  40.943  12.387
 8159W        W76577  22.618  39.546  13.892
 8160W        W76578  44.786  23.573   0.403
 8161W        W76579  28.073   2.341  14.437
 8162W        W76580  12.219  33.933  11.460
 8163W        W76581  44.357  33.888   2.319
 8164W        W76582   3.731  31.646  13.457
 8165W        W76583  10.346  13.612  14.812
 8166W        W76584  22.171  44.827   3.160
 8167W        W76585  28.124  37.455   0.407
 8168W        W76586  34.956  23.094  14.400
 8169W        W76587   3.931  17.121  13.440
 8170W        W76588  24.526  15.261  12.884
 8171W        W76589  16.317  12.184  12.895
 8172W        W76590  20.601  24.663  11.539
 8173W        W76591   0.776  18.580   3.645
 8174W        W76592  24.980  13.636   2.714
 8175W        W76593   6.720  42.014   2.811
 8176W        W76594   2.727  14.657   2.726
 8177W        W76595  43.994  24.010   3.321
 8178W        W76596  38.360   2.461   2.268
 8179W        W76597  24.670  15.756  11.453
 8180W        W76598  38.035  22.201   4.742
 8181W        W76599  41.422   0.832   4.246
 8182W        W76600  24.007   6.842  10.430
 8183W        W76601  43.905   0.772  12.513
 8184W        W76602  37.465  29.617   0.257
 8185W        W76603  15.787  19.228   2.383
 8186W        W76604  22.188  34.447   0.749
 8187W        W76605  34.417  12.215   3.675
 8188W        W76606  37.068   1.355   3.697
 8189W        W76607  25.673  19.600  13.355
 8190W        W76608  27.075  11.287   3.690
 8191W        W76609  17.614  41.339   4.750
 8192W        W76610  26.131   3.372  14.501
 8193W        W76611   2.417  21.154   0.255
 8194W        W76612  17.796  13.737   0.874
 8195W        W76613  43.903  34.928   2.802
 8196W        W76614  20.227   4.389   1.258
 8197W        W76615  29.626   4.826   0.284
 8198W        W76616  20.732  14.254  10.528
 8199W        W76617  11.797  23.652   1.870
 8200W        W76618  28.657  18.655  11.994
 8201W        W76619  33.468   6.392   1.397
 8202W        W76620  36.047  36.000  13.355
 8203W        W76621  28.555   6.850  11.586
 8204W        W76622  30.014   6.189   0.792
 8205W        W76623  20.611  14.643   0.891
 8206W        W76624   9.862  14.174   4.306
 8207W        W76625   3.426  36.569   2.325
 8208W        W76626   3.429   1.822  14.451
 8209W        W76627  33.390  26.678   2.870
 8210W        W76628  40.945  41.335  13.541
 8211W        W76629  38.017  22.679  11.388
 8212W        W76630   5.217   6.818   1.834
 8213W        W76631  40.548  38.440  13.864
 8214W        W76632  33.397  13.704   1.819
 8215W        W76633  22.104  22.021   0.952
 8216W        W76634   5.723  43.931   3.233
 8217W        W76635  21.208   1.238  12.850
 8218W        W76636  32.472  30.538   4.748
 8219W        W76637   8.260  44.338   3.863
 8220W        W76638  29.047  14.763  14.285
 8221W        W76639   6.915   2.821  10.606
 8222W        W76640  40.547  27.034   3.173
 8223W        W76641  44.444  15.807  10.601
 8224W        W76642  33.496  11.148   2.296
 8225W        W76643  35.999  38.072  14.846
 8226W        W76644   6.280  20.065  11.042
 8227W        W76645  14.306  33.990  10.458
 8228W        W76646  16.271  21.040   4.211
 8229W        W76647  35.059   9.342  12.434
 8230W        W76648  30.435  12.741  14.453
 8231W        W76649  33.032  31.019   1.439
 8232W        W76650  17.297  26.611   4.757
 8233W        W76651  29.991  18.775  14.872
 8234W        W76652  14.201  17.148  14.369
 8235W        W76653   7.749  44.398  12.070
 8236W        W76654  39.963  16.609   4.762
 8237W        W76655  41.495  17.148  13.532
 8238W        W76656   2.442  35.428   0.945
 8239W        W76657  17.067   0.923  11.867
 8240W        W76658  17.696  40.900  13.804
 8241W        W76659  12.714  39.351  12.865
 8242W        W76660  30.013  37.925   1.421
 8243W        W76661   5.740   2.352   1.407
 8244W        W76662   4.801  33.952   2.772
 8245W        W76663  22.083  37.981  14.823
 8246W        W76664  18.638  16.794  11.893
 8247W        W76665  12.283  15.592   2.406
 8248W        W76666  28.096   9.874   5.177
 8249W        W76667   6.807  32.472  13.944
 8250W        W76668  38.461  36.398  14.965
 8251W        W76669  28.135  25.636  13.801
 8252W        W76670  40.892   4.932  10.441
 8253W        W76671  39.357  30.119   3.271
 8254W        W76672  25.166  44.768   3.374
 8255W        W76673  22.204  42.479   3.330
 8256W        W76674   1.475  27.082  13.966
 8257W        W76675   9.854  33.417   2.679
 8258W        W76676   0.958  43.459  12.014
 8259W        W76677  18.732  36.561  13.528
 8260W        W76678  31.953  34.063   3.753
 8261W        W76679  30.915  43.353   4.240
 8262W        W76680  28.553   9.873  13.498
 8263W        W76681  22.528  15.299  13.007
 8264W        W76682  43.306  29.976   3.767
 8265W        W76683  30.574   9.355   4.619
 8266W        W76684  31.137  19.105   0.821
 8267W        W76685  40.490   9.306  12.343
 8268W        W76686   9.738  43.281   2.393
 8269W        W76687  31.436  15.741  13.532
 8270W        W76688  35.559   1.378  12.927
 8271W        W76689  40.379   5.396  14.818
 8272W        W76690  32.468  16.608   4.354
 8273W        W76691  24.511  14.256  10.945
 8274W        W76692  31.112  26.958  13.378
 8275W        W76693  24.124  41.892   0.767
 8276W        W76694  21.618  18.059  13.467
 8277W        W76695  27.487  23.639   0.920
 8278W        W76696  20.710  11.653  14.003
 8279W        W76697  40.327  23.605  11.947
 8280W        W76698   0.783  24.571   2.282
 8281W        W76699  16.262  31.554   2.226
 8282W        W76700  12.326   8.323   1.707
 8283W        W76701  27.997  23.139  13.878
 8284W        W76702  28.544  22.117   4.226
 8285W        W76703  41.855   9.685  12.523
 8286W        W76704   1.256  21.184   3.211
 8287W        W76705  20.234   5.432  10.570
 8288W        W76706  26.623  24.996  13.980
 8289W        W76707  42.380  17.657  12.551
 8290W        W76708   7.197  34.498   1.311
 8291W        W76709   2.749  27.185  11.869
 8292W        W76710  13.731   8.189  12.411
 8293W        W76711  15.688  25.186  10.888
 8294W        W76712  32.449  40.853  11.559
 8295W        W76713  16.153  36.994   4.137
 8296W        W76714  22.084  38.425  14.378
 8297W        W76715  41.868  33.599  11.435
 8298W        W76716  33.022  32.528   1.923
 8299W        W76717  40.865   1.439  12.495
 8300W        W76718   0.970  11.698   3.802
 8301W        W76719  13.775  10.205   1.279
 8302W        W76720  37.548  11.300  12.454
 8303W        W76721   7.219   9.192   1.443
 8304W        W76722  13.636  15.303   3.372
 8305W        W76723  21.195  24.589   0.356
 8306W        W76724  18.590  24.639  12.857
 8307W        W76725  44.754  13.724  14.849
 8308W        W76726  12.719  10.643   2.823
 8309W        W76727  33.491  41.968   4.135
 8310W        W76728  27.117  13.124  14.909
 8311W        W76729  11.280  22.551  12.067
 8312W        W76730  41.320  22.595  10.640
 8313W        W76731  14.143   3.822   4.344
 8314W        W76732  15.199  23.686  12.056
 8315W        W76733  37.996  21.609   1.815
 8316W        W76734   3.757  19.268   0.397
 8317W        W76735  23.177  35.975  14.412
 8318W        W76736  29.439  28.998  11.432
 8319W        W76737  12.344   8.773   1.309
 8320W        W76738  12.227  20.179  14.846
 8321W        W76739  43.831  35.411  14.805
 8322W        W76740  29.010  26.033   3.775
 8323W        W76741  33.899  36.030   1.913
 8324W        W76742  15.321  30.106  13.548
 8325W        W76743  40.876  34.550  13.800
 8326W        W76744  17.189  13.809  14.802
 8327W        W76745   5.278  12.756   2.820
 8328W        W76746  20.245  10.806   4.127
 8329W        W76747  39.905  16.105   0.942
 8330W        W76748  34.956  13.135   0.935
 8331W        W76749   1.902  12.629  11.122
 8332W        W76750  40.401  18.090  13.028
 8333W        W76751   2.286  25.969  12.037
 8334W        W76752  18.237  43.826  13.892
 8335W        W76753  13.827  43.367   0.457
 8336W        W76754  28.035  28.589   1.219
 8337W        W76755  36.917  19.604   1.764
 8338W        W76756  18.195  21.520  14.286
 8339W        W76757  23.112  36.355  12.081
 8340W        W76758  17.106  19.652   3.274
 8341W        W76759  13.168  30.442   0.245
 8342W        W76760   8.844   4.270   1.751
 8343W        W76761  38.971   5.371   4.830
 8344W        W76762   7.910  35.905  11.103
 8345W        W76763  44.261  15.605   5.306
 8346W        W76764  44.360  26.054  13.808
 8347W        W76765  22.720  13.781  10.917
 8348W        W76766  21.586  11.317  12.471
 8349W        W76767  44.983  40.925   1.281
 8350W        W76768  13.322  44.757  10.921
 8351W        W76769  39.420  30.122   0.367
 8352W        W76770   5.809   0.935   3.320
 8353W        W76771  28.558  35.452  10.537
 8354W        W76772  26.098   8.162   1.933
 8355W        W76773  21.567  20.592  12.427
 8356W        W76774  40.543  18.218   0.261
 8357W        W76775  40.921  12.151   4.138
 8358W        W76776  36.894  23.514  14.782
 8359W        W76777  18.199  24.662   5.240
 8360W        W76778   9.827  25.487   4.670
 8361W        W76779   1.343  44.937   1.445
 8362W        W76780  16.796   8.287  10.436
 8363W        W76781  44.505  34.541   9.962
 8364W        W76782   1.301  39.982   3.743
 8365W        W76783  37.978  18.093  11.484
 8366W        W76784  39.953  26.623  13.832
 8367W        W76785  27.459  31.612  13.364
 8368W        W76786   8.672  22.076  14.819
 8369W        W76787  18.584  39.555  11.599
 8370W        W76788  44.983  28.101  11.528
 8371W        W76789  40.357  38.881  12.984
 8372W        W76790  23.180  20.698   2.197
 8373W        W76791  32.500   0.746   4.805
 8374W        W76792  42.300  28.514   2.793
 8375W        W76793   9.257  15.784  12.573
 8376W        W76794   3.417  24.192   5.090
 8377W        W76795  15.142   7.678  12.362
 8378W        W76796  10.720   1.323  11.865
 8379W        W76797  14.148  20.737   1.790
 8380W        W76798  14.816  17.259  13.362
 8381W        W76799  27.164  35.886  14.409
 8382W        W76800  30.119  12.622  14.845
 8383W        W76801  22.203  15.665  12.853
 8384W        W76802  23.197  17.180  11.929
 8385W        W76803  19.695  31.415   3.296
 8386W        W76804  30.496  32.562  11.055
 8387W        W76805   9.695   6.861   3.150
 8388W        W76806   7.856  31.908  13.527
 8389W        W76807  22.231  25.708  11.990
 8390W        W76808  41.390   8.260  12.472
 8391W        W76809  38.852  35.394   3.638
 8392W        W76810  12.327  25.987   3.213
 8393W        W76811  24.109  42.811  13.865
 8394W        W76812  24.495  23.182   0.909
 8395W        W76813  35.020   0.844   0.774
 8396W        W76814  38.922  28.021   1.394
 8397W        W76815  18.739  34.582  14.456
 8398W        W76816  41.960   9.265  11.552
 8399W        W76817  44.000  28.146   3.296
 8400W        W76818  21.107   9.265  13.917
 8401W        W76819  23.579   9.646   4.749
 8402W        W76820  21.517  38.549   0.893
 8403W        W76821  14.682  15.133   4.147
 8404W        W76822  27.506   4.814   0.822
 8405W        W76823  15.710  40.866   4.118
 8406W        W76824  24.030  39.323   2.787
 8407W        W76825  21.725   9.350   2.665
 8408W        W76826  22.688  32.112   1.848
 8409W        W76827  16.291  16.236   0.435
 8410W        W76828   4.853  22.576   4.254
 8411W        W76829  34.103  38.965   2.224
 8412W        W76830  32.573  40.362   3.183
 8413W        W76831  28.999   0.347   3.374
 8414W        W76832   3.370  17.689  11.470
 8415W        W76833  32.953   8.872  10.920
 8416W        W76834  41.849  16.097   3.263
 8417W        W76835  19.279  15.094   1.357
 8418W        W76836  20.085  30.509   1.265
 8419W        W76837  44.948  20.114   2.796
 8420W        W76838  35.940  20.746  12.450
 8421W        W76839  34.877  19.044  11.453
 8422W        W76840  10.228  23.005   2.875
 8423W        W76841  19.157   4.851  10.062
 8424W        W76842  12.162   7.299  13.496
 8425W        W76843   0.421   1.440   0.824
 8426W        W76844  33.897  11.179  11.056
 8427W        W76845  33.528  30.975  13.985
 8428W        W76846   5.727  16.258  14.400
 8429W        W76847  41.856  28.995  11.862
 8430W        W76848  41.949   3.361   3.276
 8431W        W76849  39.844   2.839   4.113
 8432W        W76850  12.655  11.661   0.470
 8433W        W76851  14.817  38.544   4.773
 8434W        W76852  12.214  44.368   1.800
 8435W        W76853  19.193   2.241  14.309
 8436W        W76854  34.889  38.935   9.570
 8437W        W76855  21.622  15.653   1.750
 8438W        W76856  40.458  16.802   0.826
 8439W        W76857  28.031  27.141   4.285
 8440W        W76858   3.447  21.555   1.907
 8441W        W76859  24.692  41.448   0.333
 8442W        W76860  11.268  33.463  13.039
 8443W        W76861  14.764  26.195  14.433
 8444W        W76862  18.756  12.710  12.394
 8445W        W76863  15.792  19.779  14.401
 8446W        W76864   9.743  39.915   4.290
 8447W        W76865  41.862  38.389  11.912
 8448W        W76866  10.774  31.924  12.369
 8449W        W76867  31.424  10.633  10.962
 8450W        W76868  39.442  15.674  14.287
 8451W        W76869  11.212   0.383  12.991
 8452W        W76870   8.733   8.880   0.955
 8453W        W76871  12.841  22.624   2.663
 8454W        W76872  33.994  33.577   0.297
 8455W        W76873  30.032  26.069  11.963
 8456W        W76874   6.230  32.624  10.473
 8457W        W76875  22.514  16.806   1.438
 8458W        W76876   4.921   3.787  13.516
 8459W        W76877  38.894  30.001   3.675
 8460W        W76878   2.392  21.246   3.250
 8461W        W76879  15.797  24.077   1.285
 8462W        W76880  14.313  13.619  11.558
 8463W        W76881   7.858  25.099  13.971
 8464W        W76882  33.498  36.483   4.191
 8465W        W76883  27.155  35.956   1.322
 8466W        W76884   3.938  17.786   3.776
 8467W        W76885  42.368  43.344  12.884
 8468W        W76886  27.566  31.600   2.233
 8469W        W76887  12.199  32.481   4.671
 8470W        W76888  19.756  23.015  12.864
 8471W        W76889  43.930  13.143  10.143
 8472W        W76890   9.652  21.260  13.461
 8473W        W76891  10.811  38.347  13.999
 8474W        W76892  21.031   4.814  14.763
 8475W        W76893   6.312  33.511  12.361
 8476W        W76894  10.244   7.174  12.579
 8477W        W76895  25.987   3.370   2.196
 8478W        W76896   0.897  12.174  11.090
 8479W        W76897  16.159  10.152   3.634
 8480W        W76898  32.907  19.223   3.679
 8481W        W76899  29.583  40.494  12.076
 8482W        W76900  35.942  14.802   2.384
 8483W        W76901  44.404   1.280  12.564
 8484W        W76902  16.081   7.266   3.237
 8485W        W76903   3.731   1.752   5.195
 8486W        W76904  40.012  21.711   2.843
 8487W        W76905   3.904   7.750   2.842
 8488W        W76906  30.066   5.239  10.598
 8489W        W76907  13.260  35.039   1.760
 8490W        W76908  21.744  18.619  12.084
 8491W        W76909  25.530  32.097   9.974
 8492W        W76910  19.713   4.247  10.892
 8493W        W76911  14.171  35.884  12.054
 8494W        W76912  33.492  35.560   0.944
 8495W        W76913  34.608  20.114   0.305
 8496W        W76914  13.830  11.300  13.820
 8497W        W76915  38.974   3.936  12.966
 8498W        W76916   2.245  39.443   1.926
 8499W        W76917  10.241  31.111  11.419
 8500W        W76918  42.510  35.601   1.807
 8501W        W76919  39.955   8.228   2.263
 8502W        W76920  17.630  41.456   0.471
 8503W        W76921  33.909  32.607  11.123
 8504W        W76922  16.702  41.934   1.708
 8505W        W76923  34.902  10.804   3.720
 8506W        W76924  39.963  18.088   0.372
 8507W        W76925  35.470  17.123  10.512
 8508W        W76926   6.409   3.843   4.755
 8509W        W76927  15.737  36.491  12.954
 8510W        W76928  30.139   4.772  14.981
 8511W        W76929  44.458  12.720  12.872
 8512W        W76930  12.796  43.792   4.291
 8513W        W76931   9.842   9.261   4.308
 8514W        W76932  31.140   2.925   1.317
 8515W        W76933  25.215  41.301   3.219
 8516W        W76934  27.946   0.754  10.952
 8517W        W76935   6.299  36.355  11.384
 8518W        W76936   5.874  12.841  12.900
 8519W        W76937  11.850  18.557  13.539
 8520W        W76938  31.427  43.764  11.457
 8521W        W76939   1.829  23.554   1.350
 8522W        W76940  22.192  39.419   3.643
 8523W        W76941   6.228   6.344  12.990
 8524W        W76942  28.079   6.795  13.310
 8525W        W76943  14.592  28.553  14.432
 8526W        W76944  22.156  44.988  11.394
 8527W        W76945  30.912   7.313  12.343
 8528W        W76946  20.202  22.037  13.384
 8529W        W76947  18.228  44.345  12.458
 8530W        W76948  44.923  38.034   0.449
 8531W        W76949   2.321  30.937   4.724
 8532W        W76950  20.258   9.684  13.868
 8533W        W76951   5.752  38.072   2.281
 8534W        W76952  29.629  28.518   0.344
 8535W        W76953  15.131  42.295  11.898
 8536W        W76954  29.068  29.027   2.756
 8537W        W76955  18.615  11.651   4.796
 8538W        W76956  20.685   1.855  12.346
 8539W        W76957  37.470  44.357   3.166
 8540W        W76958  14.706  27.517  13.498
 8541W        W76959  40.013  28.487   3.749
 8542W        W76960  38.390  25.084   1.868
 8543W        W76961  22.630   0.754  12.082
 8544W        W76962  44.755  15.109   3.671
 8545W        W76963   0.390  14.614   4.224
 8546W        W76964  24.141  33.884  14.357
 8547W        W76965  26.178  26.990   2.868
 8548W        W76966  44.921  22.136   4.233
 8549W        W76967   1.882   5.342  13.485
 8550W        W76968  42.284  10.384   2.682
 8551W        W76969  29.457  24.478   0.768
 8552W        W76970   8.204   4.327   1.815
 8553W        W76971   9.729  41.845   0.803
 8554W        W76972   2.868  27.593  12.517
 8555W        W76973  28.635  18.226   1.310
 8556W        W76974   1.439  43.323  14.954
 8557W        W76975  11.322   6.882   1.269
 8558W        W76976  41.968  36.525  11.874
 8559W        W76977  35.559  33.414  10.975
 8560W        W76978  26.531  21.182  11.029
 8561W        W76979  18.730  29.589  11.055
 8562W        W76980  27.653  28.447   0.806
 8563W        W76981   8.303  12.633   3.327
 8564W        W76982  11.745  37.949  10.601
 8565W        W76983  21.698  27.973  11.040
 8566W        W76984  14.214  18.088  13.970
 8567W        W76985  17.691  21.225  11.400
 8568W        W76986  43.504  20.157   0.419
 8569W        W76987   2.374  32.094  10.510
 8570W        W76988  17.738  30.413   4.115
 8571W        W76989  27.630  14.329  10.595
 8572W        W76990  42.506  14.639  11.061
 8573W        W76991  27.496  44.913  13.444
 8574W        W76992  28.653  30.619   4.608
 8575W        W76993  13.785  13.809   2.337
 8576W        W76994  27.973  31.607   4.226
 8577W        W76995  12.181  31.538  11.570
 8578W        W76996  41.488  27.658   2.680
 8579W        W76997  11.837  38.015   1.234
 8580W        W76998   6.405   8.332   0.376
 8581W        W76999  44.873   9.704   2.283
 8582W        W77000  42.899  21.586  10.979
 8583W        W77001  13.637   3.246  13.946
 8584W        W77002  41.428  19.588   4.142
 8585W        W77003  33.428   5.425   2.800
 8586W        W77004  22.685  23.669  10.952
 8587W        W77005  36.993  22.598  11.373
 8588W        W77006   4.267   5.337  12.570
 8589W        W77007  34.099   8.190  11.046
 8590W        W77008  44.961  41.031   4.827
 8591W        W77009  16.258  40.934  13.440
 8592W        W77010   8.302  25.468   2.353
 8593W        W77011  39.337  26.204   4.189
 8594W        W77012  28.073  34.096  14.297
 8595W        W77013  36.982  21.607   0.253
 8596W        W77014   9.283   7.673   3.812
 8597W        W77015  28.172  13.237   3.367
 8598W        W77016  42.370  31.079   0.775
 8599W        W77017  43.782  22.655   1.757
 8600W        W77018  27.488  32.912  14.407
 8601W        W77019  25.154  14.710   3.832
 8602W        W77020   7.330  38.328  10.964
 8603W        W77021  14.152   7.701   4.165
 8604W        W77022   9.353  36.918   1.235
 8605W        W77023  20.524  20.543   2.321
 8606W        W77024  20.074   1.871   4.194
 8607W        W77025  14.177  36.421   0.769
 8608W        W77026  22.730  31.541   1.773
 8609W        W77027  44.857  41.026  10.476
 8610W        W77028  23.509  18.657   3.319
 8611W        W77029  26.027  15.716   2.388
 8612W        W77030   1.797  44.954   2.844
 8613W        W77031   7.177   3.279  12.530
 8614W        W77032  20.065   6.914   3.332
 8615W        W77033   5.392  43.486   4.277
 8616W        W77034  33.553  14.792  13.522
 8617W        W77035   6.195  17.201  12.487
 8618W        W77036   7.698  25.075   1.304
 8619W        W77037  22.203  23.730   3.297
 8620W        W77038  25.133  23.675   3.151
 8621W        W77039  20.223  34.605   2.890
 8622W        W77040  41.970   6.255   0.885
 8623W        W77041   4.382  34.088  11.879
 8624W        W77042   7.791  42.995  12.963
 8625W        W77043  20.755   4.308  11.584
 8626W        W77044  33.492   7.236   9.941
 8627W        W77045   1.766  19.226   4.710
 8628W        W77046  20.592  35.893  10.506
 8629W        W77047  19.256  27.624   2.765
 8630W        W77048   4.801  43.828   1.236
 8631W        W77049  12.851  35.522   4.679
 8632W        W77050   2.450  36.480   0.775
 8633W        W77051  16.601   3.715   4.313
 8634W        W77052  37.873  26.003  13.897
 8635W        W77053   8.313  36.870   4.748
 8636W        W77054  35.577  43.899   1.272
 8637W        W77055  35.568  35.450  10.413
 8638W        W77056  23.587  29.026  13.371
 8639W        W77057  19.166   3.428  11.488
 8640W        W77058  31.449   0.772   2.296
 8641W        W77059   6.706  21.678   1.788
 8642W        W77060  44.409  28.178  13.513
 8643W        W77061  30.033  28.053   3.333
 8644W        W77062   8.684  19.222  12.351
 8645W        W77063  11.815  35.435  10.907
 8646W        W77064   7.871  32.026  12.824
 8647W        W77065  17.586   3.303   3.837
 8648W        W77066  13.346  42.902  14.293
 8649W        W77067  44.493  23.708   3.210
 8650W        W77068  41.356   2.788  11.855
 8651W        W77069  29.109  41.828  14.970
 8652W        W77070  28.938  40.514  14.800
 8653W        W77071  19.760  39.012   3.340
 8654W        W77072  38.531  31.458  14.928
 8655W        W77073   5.379  30.607  11.590
 8656W        W77074  25.514   5.261  11.436
 8657W        W77075   4.904  38.011   1.835
 8658W        W77076  34.386  25.193  11.869
 8659W        W77077  14.603  14.186  12.086
 8660W        W77078  44.324   3.805   0.946
 8661W        W77079  16.170  20.567   3.187
 8662W        W77080  41.798  20.041   2.863
 8663W        W77081  13.666  17.669  13.889
 8664W        W77082  24.994   0.323  13.478
 8665W        W77083  11.634   4.901  10.917
 8666W        W77084   4.939   7.736  10.645
 8667W        W77085  40.994  32.516   1.324
 8668W        W77086   6.795  19.062   1.445
 8669W        W77087  10.821  31.552  11.511
 8670W        W77088  23.601  25.634  14.395
 8671W        W77089  44.399  20.091  14.996
 8672W        W77090  28.001   7.748   4.669
 8673W        W77091  22.560  35.867   3.260
 8674W        W77092  32.446  14.674  12.401
 8675W        W77093  40.936   4.408   4.605
 8676W        W77094  38.370   4.310   3.152
 8677W        W77095  42.410  15.620   2.342
 8678W        W77096   4.424  22.157  12.947
 8679W        W77097  22.729  36.978  13.871
 8680W        W77098  13.748  25.978  12.040
 8681W        W77099  44.386  19.167   4.194
 8682W        W77100  23.579  31.591  11.436
 8683W        W77101   8.232   7.831   0.939
 8684W        W77102  24.037   7.716   3.826
 8685W        W77103   8.348  41.014   4.677
 8686W        W77104  25.526  10.279  14.844
 8687W        W77105   8.312  18.614  13.053
 8688W        W77106  22.684  35.523   2.266
 8689W        W77107  10.660   0.941  13.953
 8690W        W77108  19.254  12.313   0.967
 8691W        W77109  16.245   8.842  11.428
 8692W        W77110  13.330  44.395   2.329
 8693W        W77111  21.651  36.381  13.793
 8694W        W77112  29.508  43.915   4.663
 8695W        W77113  25.702  33.485   3.678
 8696W        W77114  27.654  13.194  10.542
 8697W        W77115  15.754  27.990   4.835
 8698W        W77116  18.646  19.228  14.364
 8699W        W77117   2.381  17.132  13.366
 8700W        W77118  22.686  15.241   3.223
 8701W        W77119   4.367  15.088   3.213
 8702W        W77120  40.799  22.571  11.922
 8703W        W77121   2.890   0.305   1.700
 8704W        W77122   0.421  15.719  11.874
 8705W        W77123  22.062   0.393   3.164
 8706W        W77124   7.375  42.943  14.768
 8707W        W77125   5.301  11.728  14.813
 8708W        W77126  29.114  31.909  12.445
 8709W        W77127  27.013  17.715   0.358
 8710W        W77128  37.945  41.025   4.787
 8711W        W77129  33.393  22.199  12.937
 8712W        W77130   5.739   3.230  11.964
 8713W        W77131  28.510  16.164  11.526
 8714W        W77132  39.382  35.497  10.529
 8715W        W77133  29.435  20.190  13.398
 8716W        W77134  24.665  35.547  14.805
 8717W        W77135   3.275  28.504  13.000
 8718W        W77136   4.881  13.819   0.439
 8719W        W77137  26.139  30.999   0.800
 8720W        W77138  39.380  38.998  12.075
 8721W        W77139  35.865  28.593  10.419
 8722W        W77140  41.413  25.172  13.459
 8723W        W77141  41.368  23.596   0.413
 8724W        W77142  33.498  10.740   9.954
 8725W        W77143  16.763   9.302   4.277
 8726W        W77144   9.707   8.287   4.740
 8727W        W77145   2.468  40.487  13.895
 8728W        W77146  39.550   8.827   3.676
 8729W        W77147  31.595  43.842   1.392
 8730W        W77148  10.786  29.428   3.335
 8731W        W77149  44.815   7.809  11.511
 8732W        W77150  10.174   4.444  12.005
 8733W        W77151   6.772  31.037   0.887
 8734W        W77152  25.043   4.864  12.879
 8735W        W77153  16.111  11.222  14.997
 8736W        W77154   2.293  17.783   1.373
 8737W        W77155  30.018  43.489  10.423
 8738W        W77156  41.390  41.848   0.299
 8739W        W77157  13.160   1.291  11.556
 8740W        W77158  43.019  29.507   4.284
 8741W        W77159   7.316  24.493   0.728
 8742W        W77160  44.428   7.221  13.010
 8743W        W77161  17.218  10.371  10.494
 8744W        W77162  42.478  17.127  14.975
 8745W        W77163   7.877  27.996   4.682
 8746W        W77164   7.778   1.401  12.019
 8747W        W77165  24.124  22.574   2.822
 8748W        W77166  43.481  11.348   9.560
 8749W        W77167  16.674   7.284  14.904
 8750W        W77168  25.094  21.022   1.861
 8751W        W77169  12.791  19.550   5.255
 8752W        W77170  34.066  19.138  14.780
 8753W        W77171  43.770  11.262  13.441
 8754W        W77172  15.747  42.864  12.406
 8755W        W77173  42.282  43.872  14.905
 8756W        W77174  33.566  12.263   2.796
 8757W        W77175  39.405   4.892  11.998
 8758W        W77176  33.433  21.546   9.976
 8759W        W77177  21.604  36.411  12.875
 8760W        W77178  39.036  24.678   2.285
 8761W        W77179  18.554  13.832   0.792
 8762W        W77180  23.140  27.619   4.226
 8763W        W77181   6.387  15.179  13.525
 8764W        W77182  36.565  15.590  10.906
 8765W        W77183  44.445  35.514   4.776
 8766W        W77184  30.108  23.068  13.541
 8767W        W77185   6.867  13.143  14.763
 8768W        W77186  29.478   1.736   0.332
 8769W        W77187   4.942  15.296   2.797
 8770W        W77188  38.939   1.859  14.870
 8771W        W77189   2.720  17.579   0.290
 8772W        W77190  24.033  31.080  11.980
 8773W        W77191  23.497   7.830  10.472
 8774W        W77192   4.811  13.814  11.494
 8775W        W77193  37.973  39.040   4.677
 8776W        W77194  27.586  22.025   0.889
 8777W        W77195  43.406  37.884  11.998
 8778W        W77196  28.978   4.893   3.170
 8779W        W77197  23.566  44.806  13.344
 8780W        W77198  27.012   6.335  12.492
 8781W        W77199   5.927   3.769  10.421
 8782W        W77200  36.900  38.044   0.355
 8783W        W77201  35.934  19.233   1.840
 8784W        W77202  21.129  37.481  11.060
 8785W        W77203  22.600   0.471  13.474
 8786W        W77204   7.864  11.662   0.749
 8787W        W77205  17.719  34.081   4.605
 8788W        W77206  13.207  30.952   4.699
 8789W        W77207  44.468   7.368   9.965
 8790W        W77208  44.264  16.678   0.748
 8791W        W77209  16.190  13.608  12.570
 8792W        W77210  12.854   5.368   4.628
 8793W        W77211  15.731  32.995  12.023
 8794W        W77212   3.802  10.227  14.020
 8795W        W77213   2.927  10.343  11.550
 8796W        W77214  44.452   4.943  13.045
 8797W        W77215  25.714  24.616  10.954
 8798W        W77216  40.382  25.157  12.858
 8799W        W77217   6.760  40.396  14.912
 8800W        W77218   5.854   0.307  10.422
 8801W        W77219   2.947  39.364   3.382
 8802W        W77220  29.559  44.958  10.990
 8803W        W77221  32.952  44.384   0.869
 8804W        W77222  15.819  32.587   1.879
 8805W        W77223  30.940  38.966  11.505
 8806W        W77224  19.631  36.480   0.760
 8807W        W77225  22.219  41.918   0.938
 8808W        W77226  44.004  26.071  12.018
 8809W        W77227   8.784  43.919   4.319
 8810W        W77228  41.800  12.654   5.227
 8811W        W77229  26.661   2.949  10.476
 8812W        W77230   5.706  31.547   3.640
 8813W        W77231  31.044  27.984   1.916
 8814W        W77232   9.156  27.622   2.778
 8815W        W77233  16.305  25.160   4.760
 8816W        W77234   6.812  33.478  11.871
 8817W        W77235  14.192  21.084  13.373
 8818W        W77236  26.538  22.996   3.644
 8819W        W77237  20.652  39.996  13.813
 8820W        W77238  23.058   8.301   1.772
 8821W        W77239  16.578  44.928   0.253
 8822W        W77240   8.231  17.222  10.959
 8823W        W77241  33.491   3.898   3.813
 8824W        W77242  23.712  36.848   1.302
 8825W        W77243   1.314  18.276  12.043
 8826W        W77244  39.861  28.009   0.309
 8827W        W77245  41.489  19.624   4.616
 8828W        W77246   3.798   8.258  12.566
 8829W        W77247  23.060  33.462  11.869
 8830W        W77248  28.678  18.159   3.333
 8831W        W77249  36.093  25.564  11.898
 8832W        W77250   7.778  29.433   3.847
 8833W        W77251   7.714  35.600   0.816
 8834W        W77252  20.199   7.688  13.384
 8835W        W77253  25.576  44.429  12.566
 8836W        W77254  24.162  38.472   0.257
 8837W        W77255  37.429  32.611   0.847
 8838W        W77256  37.871  14.628  14.365
 8839W        W77257   5.234  32.953   3.299
 8840W        W77258   6.199  34.563  12.535
 8841W        W77259  20.676  23.571   4.803
 8842W        W77260  15.162  19.732  13.321
 8843W        W77261  35.908  32.041   0.363
 8844W        W77262   4.826  33.008   0.299
 8845W        W77263  15.687  29.609   3.709
 8846W        W77264  21.100  43.819   3.166
 8847W        W77265  26.194  32.432  10.408
 8848W        W77266   8.350  27.160   3.696
 8849W        W77267  42.906  36.424   2.190
 8850W        W77268  24.058   5.286   2.232
 8851W        W77269  10.267  36.545  14.378
 8852W        W77270  33.424  11.684  11.588
 8853W        W77271   2.749   0.382  12.559
 8854W        W77272  10.238  30.462   4.211
 8855W        W77273  25.014  12.306  13.905
 8856W        W77274  14.110  21.638   4.703
 8857W        W77275   0.320  15.619   0.850
 8858W        W77276  24.479  37.086  10.630
 8859W        W77277  20.109   1.871  11.888
 8860W        W77278  11.852  17.599  14.324
 8861W        W77279  31.417  41.475   3.782
 8862W        W77280   4.714  37.848  12.891
 8863W        W77281   8.276  13.723   0.734
 8864W        W77282   3.923  43.333  12.440
 8865W        W77283  22.018  19.138  10.534
 8866W        W77284  41.877  27.195  13.382
 8867W        W77285   0.931  14.156  13.905
 8868W        W77286   1.294  39.919   1.446
 8869W        W77287  25.211  25.697   1.241
 8870W        W77288  19.069   4.833   2.297
 8871W        W77289  35.413  36.557   0.477
 8872W        W77290   1.288  31.483  12.094
 8873W        W77291   5.716  34.986   2.207
 8874W        W77292  11.333  38.021   4.800
 8875W        W77293  10.634  42.429  14.983
 8876W        W77294  33.879  14.323  12.400
 8877W        W77295  10.802  22.683  14.847
 8878W        W77296   4.228   9.315   0.828
 8879W        W77297  25.990  38.427   1.888
 8880W        W77298  13.317  18.249   1.873
 8881W        W77299  42.952  12.849  13.356
 8882W        W77300  40.826  40.546   3.206
 8883W        W77301  22.531  23.098  13.977
 8884W        W77302  31.923   3.224   4.349
 8885W        W77303  39.901  23.549   0.947
 8886W        W77304  16.672  15.761  11.482
 8887W        W77305  43.978  18.121  14.364
 8888W        W77306   8.698  11.231  14.028
 8889W        W77307   0.432   2.452   4.780
 8890W        W77308   7.882  13.229  11.966
 8891W        W77309  35.364  44.956  10.975
 8892W        W77310  44.930   8.821   0.363
 8893W        W77311   6.913   1.466  11.592
 8894W        W77312   6.702  18.162  11.061
 8895W        W77313  36.495  19.573  12.977
 8896W        W77314  43.779  14.218   4.234
 8897W        W77315  37.907  30.631  11.896
 8898W        W77316  11.711  31.978   1.261
 8899W        W77317  29.491  44.350  11.890
 8900W        W77318  41.347  17.079   1.340
 8901W        W77319   2.428   1.373   3.300
 8902W        W77320  42.381  27.532  14.000
 8903W        W77321  11.717  31.636   1.355
 8904W        W77322  19.076  26.998   0.796
 8905W        W77323   1.405   9.877  13.948
 8906W        W77324  36.444  15.228   2.383
 8907W        W77325  37.928   8.255  10.626
 8908W        W77326  22.229  33.581  10.501
 8909W        W77327  24.554  10.377  12.070
 8910W        W77328   4.290  19.164  11.410
 8911W        W77329  25.696   8.372  10.921
 8912W        W77330  23.730   2.888   3.785
 8913W        W77331  42.018  11.793  13.045
 8914W        W77332  30.593  37.997   0.321
 8915W        W77333  11.212   4.310   4.716
 8916W        W77334  15.237  36.426  11.594
 8917W        W77335  25.713  32.446   4.647
 8918W        W77336  43.897  41.946   3.223
 8919W        W77337   4.895  32.988  10.562
 8920W        W77338  26.666  19.552  11.988
 8921W        W77339  26.499  30.155   4.752
 8922W        W77340   2.756   1.769  12.850
 8923W        W77341  10.219   5.798  14.369
 8924W        W77342  32.498   7.721   0.292
 8925W        W77343  10.790  41.817  11.022
 8926W        W77344  22.530  40.395  11.089
 8927W        W77345  38.411  19.228   2.252
 8928W        W77346  18.763  26.997  13.863
 8929W        W77347   7.372  13.599   1.727
 8930W        W77348  15.581  43.511  13.904
 8931W        W77349  43.271  27.010  12.073
 8932W        W77350  10.188  20.079   1.404
 8933W        W77351  27.114  25.184   2.242
 8934W        W77352  26.600  40.813  10.992
 8935W        W77353   6.724  44.487  11.408
 8936W        W77354  39.501  12.695   1.700
 8937W        W77355   8.334  42.977   0.435
 8938W        W77356  32.589   5.896   2.872
 8939W        W77357  44.286   3.742  10.455
 8940W        W77358  31.080   1.320  12.580
 8941W        W77359  35.486  30.580   2.805
 8942W        W77360  43.769  40.835  12.530
 8943W        W77361   8.217  13.124   4.284
 8944W        W77362  24.589  11.719   0.377
 8945W        W77363  13.162  18.110   9.996
 8946W        W77364  24.637  34.589   4.740
 8947W        W77365   5.725  17.219  12.964
 8948W        W77366   0.462   0.945  14.396
 8949W        W77367  13.245  41.445  13.332
 8950W        W77368  19.747  38.002   1.407
 8951W        W77369   7.892  11.222  10.530
 8952W        W77370  36.365  16.311   1.934
 8953W        W77371  38.492  18.090   2.326
 8954W        W77372  29.103  34.977  14.806
 8955W        W77373   7.215  27.646  13.364
 8956W        W77374  25.994  40.483   0.962
 8957W        W77375  37.850   6.746   1.781
 8958W        W77376   1.246  31.915   1.307
 8959W        W77377   4.309   6.331  13.004
 8960W        W77378  25.526  18.689   3.326
 8961W        W77379   2.753  17.065   0.851
 8962W        W77380  15.600  36.865  12.018
 8963W        W77381  29.126  19.152   0.455
 8964W        W77382  19.641   6.723  13.025
 8965W        W77383  10.340  17.691   0.328
 8966W        W77384  42.303  41.807  14.937
 8967W        W77385   7.769  26.067   2.201
 8968W        W77386  27.595  28.184  12.468
 8969W        W77387  44.295  38.060  14.964
 8970W        W77388  33.579  16.595   0.827
 8971W        W77389   6.816   9.827  11.581
 8972W        W77390   9.791  12.780  11.484
 8973W        W77391  34.899  13.694   3.348
 8974W        W77392  22.511  10.305  11.506
 8975W        W77393   5.267  28.646   3.295
 8976W        W77394  27.611  12.692  12.854
 8977W        W77395   2.812   8.748   1.899
 8978W        W77396   4.933   9.189   0.319
 8979W        W77397  33.481  15.784  13.947
 8980W        W77398  34.549   7.238  14.378
 8981W        W77399  17.133   6.332  11.003
 8982W        W77400  32.440  29.536   4.727
 8983W        W77401   7.236  20.075   4.264
 8984W        W77402  20.266   1.861  14.890
 8985W        W77403  30.568   2.904   2.867
 8986W        W77404  41.932  37.575  11.855
 8987W        W77405   1.326  37.393   0.295
 8988W        W77406  39.899  31.543  11.087
 8989W        W77407  18.105  25.681   4.657
 8990W        W77408  10.206  16.256  13.795
 8991W        W77409  38.070  34.088  10.514
 8992W        W77410  31.941  42.511  14.426
 8993W        W77411  14.669  20.136   4.692
 8994W        W77412  14.178  32.064   3.278
 8995W        W77413  12.628   6.849   1.329
 8996W        W77414  44.390  10.786   0.307
 8997W        W77415   5.825  39.412  13.058
 8998W        W77416  39.453  20.229   4.346
 8999W        W77417  41.843  13.283   3.273
 9000W        W77418  20.061  17.101   1.929
 9001W        W77419  21.589  14.129  14.331
 9002W        W77420  40.857   5.775  13.508
 9003W        W77421  17.677  22.011   1.397
 9004W        W77422  38.063   8.771  14.456
 9005W        W77423  30.516  12.208  11.103
 9006W        W77424   0.812  37.431  11.901
 9007W        W77425  16.645   1.359  12.989
 9008W        W77426   4.876   9.372   4.249
 9009W        W77427  30.973  11.623   2.893
 9010W        W77428  13.793  38.030   4.231
 9011W        W77429   0.911  22.525  13.480
 9012W        W77430  17.782  16.608   4.747
 9013W        W77431  41.424   3.885   2.384
 9014W        W77432  19.165  21.675  11.403
 9015W        W77433  41.333   0.443  12.344
 9016W        W77434  13.249  15.588  11.867
 9017W        W77435  25.063  28.033  10.993
 9018W        W77436   7.257  37.933   3.820
 9019W        W77437  30.442  37.008  11.428
 9020W        W77438   3.735  16.625  11.480
 9021W        W77439  40.497  42.898  10.405
 9022W        W77440  42.428  10.141  12.991
 9023W        W77441  11.318  35.390   4.789
 9024W        W77442  35.968  33.952   0.285
 9025W        W77443  20.268  11.243  13.426
 9026W        W77444  42.284  41.313  10.498
 9027W        W77445  41.497  21.133   4.720
 9028W        W77446  32.095  23.725   2.300
 9029W        W77447  23.666  41.024  11.919
 9030W        W77448  22.216  40.303   9.987
 9031W        W77449   1.886  26.644   0.384
 9032W        W77450  16.307  20.707  14.881
 9033W        W77451   0.871  18.244  14.435
 9034W        W77452   7.840  16.792  13.866
 9035W        W77453  43.405   8.333   0.434
 9036W        W77454   9.757  22.073  13.841
 9037W        W77455  20.207  20.113   4.688
 9038W        W77456  32.919  40.359   3.273
 9039W        W77457  22.593  14.260  11.409
 9040W        W77458  32.536  24.708   0.395
 9041W        W77459  42.883  26.993   2.297
 9042W        W77460  24.578  37.465   4.225
 9043W        W77461   1.733  26.650   0.805
 9044W        W77462  38.493  44.776   3.856
 9045W        W77463  13.662  37.468   0.408
 9046W        W77464  36.563  16.797  12.350
 9047W        W77465  21.061   1.931   3.347
 9048W        W77466  15.644  20.111   3.846
 9049W        W77467  15.757  13.618   3.672
 9050W        W77468  35.925  22.126   0.875
 9051W        W77469  44.986   0.921   4.223
 9052W        W77470  42.966  24.185   4.272
 9053W        W77471  13.190  44.393  13.841
 9054W        W77472  31.508  39.933   3.836
 9055W        W77473  27.024  20.270   0.435
 9056W        W77474  32.410  18.645  12.376
 9057W        W77475  21.094  13.133  12.033
 9058W        W77476  39.953  25.650   2.307
 9059W        W77477  23.074  34.582  11.581
 9060W        W77478  20.122  26.473  10.451
 9061W        W77479  26.602  30.502   2.674
 9062W        W77480   7.732  40.833   1.275
 9063W        W77481   9.868   0.273  11.120
 9064W        W77482  17.722  12.679  10.486
 9065W        W77483  26.579  12.708  10.046
 9066W        W77484   2.749  31.997   4.220
 9067W        W77485  24.588  17.275  13.841
 9068W        W77486   7.306   6.692  10.587
 9069W        W77487   3.765  29.549  13.017
 9070W        W77488  18.637  29.625   1.935
 9071W        W77489  42.902  18.252   4.637
 9072W        W77490   8.793  16.313   2.773
 9073W        W77491   2.860  33.953  11.408
 9074W        W77492  23.707  44.849  12.545
 9075W        W77493  44.470  38.053   1.722
 9076W        W77494  14.665  14.288   4.820
 9077W        W77495  32.510  11.330  13.334
 9078W        W77496  43.833  26.686   3.375
 9079W        W77497   5.759  25.056  11.125
 9080W        W77498  44.485  17.293  10.143
 9081W        W77499  17.070  42.942  13.809
 9082W        W77500  40.882  33.014   2.245
 9083W        W77501  41.484  23.592  11.502
 9084W        W77502  37.421  17.105  11.575
 9085W        W77503  15.729  18.134   3.377
 9086W        W77504   2.379   6.207  12.899
 9087W        W77505  10.175  43.515  11.026
 9088W        W77506  20.273  21.519   3.163
 9089W        W77507  43.433  21.654  10.472
 9090W        W77508   3.726  15.194   1.340
 9091W        W77509   3.948  11.741  14.484
 9092W        W77510   4.887  22.507   3.725
 9093W        W77511  37.049  12.789  14.913
 9094W        W77512  41.970  37.974   3.197
 9095W        W77513  35.586  44.486   4.685
 9096W        W77514   1.288   6.230  13.358
 9097W        W77515  39.837  16.648  12.561
 9098W        W77516  34.504  25.007   3.201
 9099W        W77517  35.908  43.379  13.927
 9100W        W77518  18.155  25.998   3.244
 9101W        W77519  23.654  42.388  14.464
 9102W        W77520  14.334  16.582  12.829
 9103W        W77521  12.647  35.369   0.944
 9104W        W77522   2.847  26.501  10.977
 9105W        W77523  32.627  21.045   4.195
 9106W        W77524  40.469  20.712   1.311
 9107W        W77525  42.421  22.163  11.556
 9108W        W77526  25.116  14.338   4.609
 9109W        W77527  22.222  33.390  11.913
 9110W        W77528  16.674  15.596   3.386
 9111W        W77529   3.811  15.177   2.885
 9112W        W77530  29.528  43.010   1.744
 9113W        W77531  39.361  35.906   3.214
 9114W        W77532  14.678  18.690  13.061
 9115W        W77533  33.584  28.623  11.918
 9116W        W77534  24.112  17.778  11.422
 9117W        W77535   4.276  38.416   1.773
 9118W        W77536  12.222   2.959  11.944
 9119W        W77537  11.295  40.960  13.880
 9120W        W77538  27.569  20.567  14.958
 9121W        W77539   5.287   0.260   1.837
 9122W        W77540   3.263  24.046  13.910
 9123W        W77541  29.998   3.381  10.516
 9124W        W77542  23.082   4.890   1.835
 9125W        W77543  30.051  14.188   2.742
 9126W        W77544  16.624  39.950  11.596
 9127W        W77545  24.171  41.796  10.640
 9128W        W77546  35.542  39.966   9.456
 9129W        W77547  19.103  13.166  11.450
 9130W        W77548  24.220  25.963  13.340
 9131W        W77549  38.478  42.826   1.342
 9132W        W77550  42.945  22.652  13.387
 9133W        W77551   7.397   5.259   4.346
 9134W        W77552   5.399  43.770   1.370
 9135W        W77553  38.853  40.976   2.245
 9136W        W77554  36.901   9.294  13.867
 9137W        W77555  33.573  39.491   2.828
 9138W        W77556   3.228  20.249   4.820
 9139W        W77557  36.998  38.554   2.891
 9140W        W77558  41.430  19.759   3.676
 9141W        W77559  38.325   8.348  10.975
 9142W        W77560  41.848   1.854   2.359
 9143W        W77561   1.413  29.166  12.094
 9144W        W77562  21.125  17.135  12.548
 9145W        W77563  21.545  37.538   3.641
 9146W        W77564   7.174  16.315   2.684
 9147W        W77565  43.417  41.478  12.433
 9148W        W77566  10.735  35.486  13.815
 9149W        W77567   1.286  31.154  14.372
 9150W        W77568   3.749   6.747   1.870
 9151W        W77569  41.806  39.336  14.011
 9152W        W77570   7.863  14.771  14.481
 9153W        W77571   8.308  26.545  13.400
 9154W        W77572   8.186  24.173  13.350
 9155W        W77573  41.531  42.955   2.319
 9156W        W77574  29.479  34.870   1.702
 9157W        W77575   2.784  37.897  13.377
 9158W        W77576  42.930  18.764   0.770
 9159W        W77577   5.274  34.505  14.842
 9160W        W77578  30.473   0.950  10.575
 9161W        W77579  42.970  11.832  11.090
 9162W        W77580  26.658  35.043   3.363
 9163W        W77581  37.406  34.471  11.599
 9164W        W77582  39.023  19.071   4.700
 9165W        W77583  27.115  25.698   3.760
 9166W        W77584  43.310  13.642   5.601
 9167W        W77585  21.019  22.181   4.631
 9168W        W77586  10.226  16.291   2.193
 9169W        W77587  38.367   1.327  12.902
 9170W        W77588   2.245  14.737  14.483
 9171W        W77589  39.339  40.421   0.757
 9172W        W77590   3.734  31.486  11.441
 9173W        W77591   0.979   2.349   3.176
 9174W        W77592  41.862  22.728  11.053
 9175W        W77593  21.612  29.621  12.500
 9176W        W77594  12.801  38.460   1.736
 9177W        W77595   6.391  28.606   4.609
 9178W        W77596  37.849  21.684   4.225
 9179W        W77597  30.926  19.680   4.802
 9180W        W77598  12.810  14.762  10.429
 9181W        W77599  40.336   9.858   3.351
 9182W        W77600  44.897  34.540  12.965
 9183W        W77601  34.933  38.826   2.722
 9184W        W77602  42.343   9.225  11.108
 9185W        W77603   8.670   6.757   3.298
 9186W        W77604   4.882  21.627   4.287
 9187W        W77605  41.957  34.901   5.226
 9188W        W77606  25.114  34.966   4.221
 9189W        W77607  24.183  21.067   3.262
 9190W        W77608  32.561  24.171   1.274
 9191W        W77609  22.529  14.769   3.220
 9192W        W77610  19.118  32.033  14.778
 9193W        W77611  15.185  13.332   2.414
 9194W        W77612   2.277  27.019  11.471
 9195W        W77613  13.331  13.230   3.237
 9196W        W77614  22.597  32.004  14.891
 9197W        W77615   4.940   7.414   3.197
 9198W        W77616  31.084  19.617  14.966
 9199W        W77617  44.942  15.119  13.873
 9200W        W77618  17.122   1.959   1.780
 9201W        W77619   3.334   5.305   4.668
 9202W        W77620  30.607  42.372   3.740
 9203W        W77621  16.700  11.625  12.049
 9204W        W77622  18.257  14.641   0.946
 9205W        W77623  30.534  39.820   0.738
 9206W        W77624   7.267  18.144   4.694
 9207W        W77625  17.691  22.006  12.461
 9208W        W77626  10.355  44.817   3.151
 9209W        W77627  40.404  23.711   0.416
 9210W        W77628  37.372  20.736  12.522
 9211W        W77629  13.222  27.964  12.488
 9212W        W77630  41.945   6.899   0.278
 9213W        W77631  23.088  43.385   0.785
 9214W        W77632  21.134   7.215  12.015
 9215W        W77633  13.144  22.167  11.579
 9216W        W77634  17.093   8.400   1.724
 9217W        W77635  13.625  17.589   2.862
 9218W        W77636   3.941  23.674   0.881
 9219W        W77637  11.651  28.125  12.360
 9220W        W77638   3.926  34.892  14.389
 9221W        W77639  11.630  17.599   4.723
 9222W        W77640  43.491  41.465  10.093
 9223W        W77641  24.018  29.568   0.927
 9224W        W77642  10.209   5.406   4.156
 9225W        W77643   1.478   7.396  13.026
 9226W        W77644  37.349  26.113  13.929
 9227W        W77645  39.507  34.488   2.198
 9228W        W77646  16.172  43.424   1.866
 9229W        W77647   2.919  37.435  13.402
 9230W        W77648  18.703  30.007   0.324
 9231W        W77649  15.642   5.859  13.802
 9232W        W77650  26.975   7.171   0.888
 9233W        W77651   6.829  31.910  14.486
 9234W        W77652   4.304  16.180   4.671
 9235W        W77653  40.008  39.991   3.686
 9236W        W77654  27.062  21.133  10.997
 9237W        W77655  23.622  16.311  13.809
 9238W        W77656  41.837  23.545  10.892
 9239W        W77657   0.480  32.996   4.270
 9240W        W77658  28.058  10.801  11.876
 9241W        W77659   8.712  33.621  10.921
 9242W        W77660  37.913  11.204   9.943
 9243W        W77661  23.056  17.580   3.704
 9244W        W77662   7.907  20.552   0.328
 9245W        W77663  13.723  12.819   2.410
 9246W        W77664  20.094  27.093  10.525
 9247W        W77665  11.715  34.900  11.121
 9248W        W77666  38.011   5.749  11.421
 9249W        W77667  29.634  18.160   0.411
 9250W        W77668  14.803  39.818   2.682
 9251W        W77669  32.494  34.394   2.261
 9252W        W77670  16.108  32.538  13.814
 9253W        W77671  18.647   4.819  12.489
 9254W        W77672  27.546  42.359   4.234
 9255W        W77673  43.946  21.067   1.236
 9256W        W77674  17.578  44.006  13.391
 9257W        W77675  20.522   9.182   4.827
 9258W        W77676  26.527  12.267   0.427
 9259W        W77677  22.745  33.941  10.635
 9260W        W77678  41.864  32.555   2.353
 9261W        W77679  31.470  42.803   0.800
 9262W        W77680   1.796  41.387  13.814
 9263W        W77681   4.927  25.659   0.285
 9264W        W77682  41.970  27.141  11.038
 9265W        W77683  26.148   3.751  12.432
 9266W        W77684  26.970  15.693  14.393
 9267W        W77685  14.625   6.310  13.923
 9268W        W77686  18.548  12.727  11.935
 9269W        W77687  23.111  10.361   1.288
 9270W        W77688  15.322  29.448  14.415
 9271W        W77689   1.927  44.807  14.361
 9272W        W77690  44.776  13.330  11.895
 9273W        W77691   6.685   5.826   1.400
 9274W        W77692  15.595  42.966  10.079
 9275W        W77693  36.004   5.388   0.783
 9276W        W77694  24.686  31.946   1.715
 9277W        W77695   7.362  10.824   2.697
 9278W        W77696  11.858  38.937  12.896
 9279W        W77697  36.417   1.762  14.796
 9280W        W77698  43.462  39.825   2.224
 9281W        W77699  22.728  40.371   3.677
 9282W        W77700  11.794   2.756   3.709
 9283W        W77701   5.711   0.823  14.423
 9284W        W77702  34.515  11.627  11.469
 9285W        W77703  25.110  34.400   1.398
 9286W        W77704  25.576  10.693  11.544
 9287W        W77705  21.610  35.962  13.922
 9288W        W77706  31.410  43.893   4.169
 9289W        W77707   0.838  11.372   3.699
 9290W        W77708  21.687  27.582  12.037
 9291W        W77709  36.092  14.685  11.490
 9292W        W77710  43.294  20.210  14.277
 9293W        W77711  31.952  12.176  13.826
 9294W        W77712  10.814  27.170   2.181
 9295W        W77713   5.851  33.389   2.359
 9296W        W77714   2.439   2.288  12.951
 9297W        W77715  26.604  41.538   1.919
 9298W        W77716  35.451  26.660  13.456
 9299W        W77717  18.598  20.218  12.937
 9300W        W77718  26.096  14.221  10.531
 9301W        W77719  44.971  34.954  10.598
 9302W        W77720   0.298  19.625  12.055
 9303W        W77721  34.985  26.954  14.872
 9304W        W77722  39.881  28.523  13.336
 9305W        W77723   2.836   5.210  14.422
 9306W        W77724  28.530  14.757   1.846
 9307W        W77725   3.429  32.101  14.410
 9308W        W77726   8.285  37.374   2.379
 9309W        W77727   3.865  20.207  14.863
 9310W        W77728  33.890  41.820   3.737
 9311W        W77729  42.913  14.113  13.525
 9312W        W77730   1.387  30.934   4.616
 9313W        W77731   2.764  27.581   0.254
 9314W        W77732  36.889  25.623  12.955
 9315W        W77733   1.853  25.011   3.867
 9316W        W77734   6.852  27.175   4.704
 9317W        W77735   3.351  11.337   3.792
 9318W        W77736  25.517  12.650   4.680
 9319W        W77737  30.937  29.080  10.470
 9320W        W77738  13.797  28.538  10.597
 9321W        W77739  34.495  11.801   0.758
 9322W        W77740   1.460  20.736   3.633
 9323W        W77741  10.747  36.083   2.288
 9324W        W77742   8.717   0.359   1.230
 9325W        W77743   6.207  30.932   4.324
 9326W        W77744   2.910   3.911   0.867
 9327W        W77745  42.385  44.894   0.873
 9328W        W77746  22.598  17.245  11.948
 9329W        W77747  33.122  38.393   4.778
 9330W        W77748  31.552   0.321  10.945
 9331W        W77749  18.059  42.377   4.809
 9332W        W77750  40.503   4.393  11.096
 9333W        W77751  26.471  24.184   4.351
 9334W        W77752  38.414  13.279   4.146
 9335W        W77753  12.343  41.368   1.894
 9336W        W77754   9.323  30.568   4.715
 9337W        W77755  22.235  41.302   2.310
 9338W        W77756  20.220   8.707   4.138
 9339W        W77757  30.508   1.733   0.373
 9340W        W77758  18.123  44.773   0.271
 9341W        W77759  34.108  12.758  11.580
 9342W        W77760  10.681  33.075  10.957
 9343W        W77761  31.478  21.122  14.426
 9344W        W77762  35.407  41.788  14.333
 9345W        W77763  43.332  18.116  10.979
 9346W        W77764  20.736  14.181   2.678
 9347W        W77765  23.518  34.102   4.317
 9348W        W77766  17.710  32.414  14.358
 9349W        W77767  29.445  41.028   4.169
 9350W        W77768  11.639   0.801  13.964
 9351W        W77769   2.322  19.591  13.463
 9352W        W77770  35.078  19.226   4.242
 9353W        W77771  42.990  21.047  11.378
 9354W        W77772  42.983  38.834   0.927
 9355W        W77773  39.442  18.187  14.919
 9356W        W77774  26.143  33.421  12.488
 9357W        W77775  32.558   1.332  12.378
 9358W        W77776   3.377   5.831  10.634
 9359W        W77777   8.192   8.813   0.783
 9360W        W77778  28.456  39.953  14.452
 9361W        W77779  15.579   4.434   1.395
 9362W        W77780  23.587  16.792  11.430
 9363W        W77781   8.785   0.755   1.762
 9364W        W77782  30.158  32.397  13.795
 9365W        W77783   7.211  32.976   2.772
 9366W        W77784  15.654  44.476   2.226
 9367W        W77785  24.203  13.127   2.217
 9368W        W77786  10.814  43.003  12.911
 9369W        W77787  10.274  41.971  11.964
 9370W        W77788  34.553  27.572  11.951
 9371W        W77789  29.062  12.626   3.653
 9372W        W77790  30.473  10.672  12.452
 9373W        W77791  17.750   1.354  12.074
 9374W        W77792   6.748  25.967  14.384
 9375W        W77793   8.884  26.680  10.563
 9376W        W77794   8.403  12.195  10.990
 9377W        W77795  37.953   3.742  13.054
 9378W        W77796  15.653  44.347  11.013
 9379W        W77797  31.107   4.702   2.237
 9380W        W77798   9.664  29.598   1.707
 9381W        W77799  22.199  31.583   1.279
 9382W        W77800  38.868   4.890   1.700
 9383W        W77801  19.764  26.700  13.455
 9384W        W77802   7.409  24.658   3.785
 9385W        W77803  18.704  44.475  14.026
 9386W        W77804  42.287   4.906   4.737
 9387W        W77805   5.710   9.688  12.874
 9388W        W77806  21.731  26.516   4.323
 9389W        W77807  28.949  38.490  13.830
 9390W        W77808  19.712   3.255   1.254
 9391W        W77809  20.685  16.122   1.705
 9392W        W77810  31.518   3.435  10.475
 9393W        W77811  14.288   6.384  12.443
 9394W        W77812   8.191  39.360  10.596
 9395W        W77813  41.499  37.028  11.079
 9396W        W77814  31.011  38.965   3.324
 9397W        W77815   1.849  37.497  12.499
 9398W        W77816  33.399  30.554   5.224
 9399W        W77817   8.311   1.366  12.447
 9400W        W77818   7.177  14.832  12.935
 9401W        W77819  27.528  34.876   3.856
 9402W        W77820   7.224   7.212  14.433
 9403W        W77821  40.878  14.147  14.470
 9404W        W77822  39.462   8.367   2.251
 9405W        W77823   9.256  19.546  10.591
 9406W        W77824  30.960  26.539   4.832
 9407W        W77825  27.136   3.398   0.442
 9408W        W77826  30.036  18.066  13.514
 9409W        W77827  11.264  28.541  12.479
 9410W        W77828  21.082   6.260  14.337
 9411W        W77829  10.159  12.626   0.764
 9412W        W77830  18.592  23.572  11.889
 9413W        W77831  12.611   0.955  14.802
 9414W        W77832  11.762  37.528  11.592
 9415W        W77833  24.053  15.754  13.522
 9416W        W77834   3.216   9.260   3.635
 9417W        W77835  14.720  21.238  13.030
 9418W        W77836   8.662  41.470   1.886
 9419W        W77837  30.936  14.637  11.404
 9420W        W77838  20.719  40.337   1.375
 9421W        W77839   6.263   4.758  14.441
 9422W        W77840  28.161  40.018   4.745
 9423W        W77841  23.987  25.131  11.032
 9424W        W77842   2.229  14.142  12.070
 9425W        W77843  40.352  12.643   1.694
 9426W        W77844   2.414  20.065   4.684
 9427W        W77845  24.165  43.004   0.355
 9428W        W77846   2.306  31.008   3.708
 9429W        W77847   1.385  26.174   1.821
 9430W        W77848  12.228  35.423   2.675
 9431W        W77849  30.085  23.196   4.246
 9432W        W77850  44.790  16.729  12.897
 9433W        W77851  26.005  31.025  11.940
 9434W        W77852  32.111  11.740  11.004
 9435W        W77853  43.364  44.472   1.829
 9436W        W77854  12.639  21.642  14.779
 9437W        W77855  11.643  28.453  12.423
 9438W        W77856  30.992  31.137  10.518
 9439W        W77857  36.985   1.375   0.809
 9440W        W77858  39.060  21.604  13.543
 9441W        W77859  19.178  22.013  12.344
 9442W        W77860  27.067  30.448   2.893
 9443W        W77861  37.901  40.806  10.939
 9444W        W77862   2.751  22.150  13.829
 9445W        W77863  14.307  11.713   0.326
 9446W        W77864  32.606   3.796  11.057
 9447W        W77865  42.324   9.199   4.226
 9448W        W77866  38.350  38.849   0.255
 9449W        W77867   9.308   7.306   3.681
 9450W        W77868  28.169  11.261  14.802
 9451W        W77869   8.321  20.142   4.128
 9452W        W77870   6.713  18.272  12.036
 9453W        W77871  34.064  42.371   4.648
 9454W        W77872   4.759  27.447  10.155
 9455W        W77873  18.720  17.620  11.919
 9456W        W77874   9.256   5.358  11.516
 9457W        W77875  27.617  14.821  13.832
 9458W        W77876  16.308  12.841  12.940
 9459W        W77877  30.047  40.467   2.412
 9460W        W77878   7.789  41.996   3.285
 9461W        W77879   7.837   2.255  14.515
 9462W        W77880  28.961   7.881  10.437
 9463W        W77881  36.944  41.427   2.265
 9464W        W77882  18.087  31.463   4.811
 9465W        W77883  31.115  18.588  12.420
 9466W        W77884  27.492  41.524   3.316
 9467W        W77885  32.571   5.210   4.298
 9468W        W77886  25.016  31.916  10.988
 9469W        W77887  25.558  16.705   0.482
 9470W        W77888  32.507  17.069  13.852
 9471W        W77889   6.806   1.316   4.689
 9472W        W77890  35.858   5.883  11.539
 9473W        W77891  41.924  21.670   2.409
 9474W        W77892  30.142  37.462  14.944
 9475W        W77893  30.001  25.485  10.644
 9476W        W77894  34.059  34.932  14.884
 9477W        W77895  28.171   3.457  13.330
 9478W        W77896  42.795  21.641   9.487
 9479W        W77897   6.754  10.701   2.701
 9480W        W77898  25.058  26.956  13.475
 9481W        W77899  34.909  38.419   4.664
 9482W        W77900  36.439   4.841   2.326
 9483W        W77901  16.669  14.332   2.862
 9484W        W77902  31.447  15.622  10.085
 9485W        W77903  23.096  31.556   0.331
 9486W        W77904  35.852  37.858   2.393
 9487W        W77905   1.771   2.228  12.926
 9488W        W77906  43.959  21.050   5.283
 9489W        W77907   9.673  20.239  12.549
 9490W        W77908  27.625  39.377  10.454
 9491W        W77909  31.121  34.525   4.730
 9492W        W77910  19.709  26.049  14.340
 9493W        W77911   2.791  25.128  12.900
 9494W        W77912  28.023  38.944  11.441
 9495W        W77913  16.305   7.267   2.378
 9496W        W77914  36.021  11.720  10.562
 9497W        W77915  32.058   3.335  14.285
 9498W        W77916  38.880  44.434   3.737
 9499W        W77917  20.680  12.141   3.719
 9500W        W77918  15.190  32.117   2.888
 9501W        W77919  12.321   3.379   4.752
 9502W        W77920  13.784  38.071  11.559
 9503W        W77921   6.909  21.572   2.771
 9504W        W77922  11.352  26.110   1.364
 9505W        W77923  19.149  13.697   2.333
 9506W        W77924  34.929  41.458  12.426
 9507W        W77925  36.588  40.319   1.380
 9508W        W77926   5.268  33.996  12.004
 9509W        W77927  17.670  23.559  13.505
 9510W        W77928  13.246  39.852  11.437
 9511W        W77929  44.864  31.046   0.334
 9512W        W77930  20.066  34.888  12.446
 9513W        W77931  43.993  10.333   3.764
 9514W        W77932  35.018   2.891  13.902
 9515W        W77933   2.887  30.118   0.907
 9516W        W77934  13.623   5.923   2.690
 9517W        W77935   9.343  26.068  13.032
 9518W        W77936  11.195  44.862  13.355
 9519W        W77937   3.712   1.890  11.399
 9520W        W77938  44.934  33.882   3.356
 9521W        W77939  14.324  20.230  13.891
 9522W        W77940  33.470   1.846   4.633
 9523W        W77941  32.417  44.308  10.935
 9524W        W77942  39.468  37.850  13.510
 9525W        W77943  40.319  28.053   2.259
 9526W        W77944  43.834  15.707  14.413
 9527W        W77945  24.064  34.590   4.699
 9528W        W77946   4.440  44.808  13.978
 9529W        W77947  44.966  24.582   0.447
 9530W        W77948  12.244  39.066  14.304
 9531W        W77949  39.859  33.559  11.581
 9532W        W77950  11.221  29.594  14.500
 9533W        W77951   6.789   1.272  10.487
 9534W        W77952  33.019  31.942   4.118
 9535W        W77953  23.550  29.636  14.928
 9536W        W77954   6.752   5.697   3.851
 9537W        W77955  11.793  22.740  10.576
 9538W        W77956   6.206   6.330   2.886
 9539W        W77957  29.971  15.806  13.511
 9540W        W77958  22.506   7.823   0.813
 9541W        W77959  15.209  27.528  12.423
 9542W        W77960  40.506  14.114   0.291
 9543W        W77961  11.748  35.967  10.891
 9544W        W77962   6.322  35.375  11.562
 9545W        W77963  28.568   6.386   2.751
 9546W        W77964   9.357   5.253   0.481
 9547W        W77965  24.100  32.433  13.795
 9548W        W77966  32.602  31.038   4.119
 9549W        W77967  34.011  41.533  14.829
 9550W        W77968  40.315  19.535  12.967
 9551W        W77969   8.232   9.852  11.521
 9552W        W77970  27.569  17.100  12.868
 9553W        W77971  29.629  33.033   3.261
 9554W        W77972  19.728   5.729  13.502
 9555W        W77973  22.217  13.777   1.371
 9556W        W77974  39.981  37.882   1.712
 9557W        W77975  27.003  25.497  11.859
 9558W        W77976  18.297  29.106   1.383
 9559W        W77977   0.968  17.735  11.084
 9560W        W77978  23.987  40.011   1.701
 9561W        W77979   5.420   0.360  10.584
 9562W        W77980  41.526  17.722  12.887
 9563W        W77981  11.137  28.120   2.257
 9564W        W77982   0.774  17.266   3.223
 9565W        W77983  23.204  23.630   4.344
 9566W        W77984  17.612  44.499  10.419
 9567W        W77985  24.106  10.348   0.731
 9568W        W77986   1.444  42.498  12.846
 9569W        W77987  14.175  14.264  13.427
 9570W        W77988  16.573  23.150   0.376
 9571W        W77989   6.780  26.510  11.596
 9572W        W77990  24.046   3.461  11.467
 9573W        W77991   5.766  14.226   4.277
 9574W        W77992  32.973  34.514  12.524
 9575W        W77993  25.659  21.074  14.358
 9576W        W77994   0.359  44.434   4.829
 9577W        W77995  30.024  27.639   4.693
 9578W        W77996  10.731  27.052  11.065
 9579W        W77997  30.587  15.644   1.449
 9580W        W77998  24.177  14.152   9.926
 9581W        W77999  40.932  29.594  14.796
 9582W        W78000  22.643  28.613   3.258
 9583W        W78001  26.049  23.630   3.654
 9584W        W78002  17.158  32.576  13.454
 9585W        W78003  17.650   1.435  11.392
 9586W        W78004  17.721  41.883   3.700
 9587W        W78005  41.411  23.014   1.356
 9588W        W78006   3.385  38.957  11.937
 9589W        W78007   8.203   4.742   0.456
 9590W        W78008  36.863   6.794   3.255
 9591W        W78009  21.699  16.253  11.027
 9592W        W78010  14.319  41.493   4.208
 9593W        W78011   6.814  41.947  10.503
 9594W        W78012  32.610  35.997   0.959
 9595W        W78013   8.715  38.052   4.270
 9596W        W78014  24.050  31.104   2.888
 9597W        W78015  13.665  44.277   4.258
 9598W        W78016  20.537  19.167   2.353
 9599W        W78017  40.044  26.606  13.478
 9600W        W78018   9.326  39.060   3.842
 9601W        W78019   5.828  21.251  14.965
 9602W        W78020  26.523  29.131   0.955
 9603W        W78021  36.467  21.740   3.789
 9604W        W78022  24.060   1.398   2.761
 9605W        W78023   2.326  28.035  10.468
 9606W        W78024  34.972  29.918   1.862
 9607W        W78025   2.345  20.213  11.100
 9608W        W78026   4.816  10.248   1.381
 9609W        W78027  40.314  22.090  13.890
 9610W        W78028   7.258  39.422   2.777
 9611W        W78029   6.194  37.008   0.922
 9612W        W78030  17.638  40.888  13.534
 9613W        W78031  16.300  26.143  14.381
 9614W        W78032   5.701  30.559   1.241
 9615W        W78033  10.832   3.313   4.225
 9616W        W78034   2.278  43.954   4.785
 9617W        W78035  31.633  15.601  10.901
 9618W        W78036  35.520  16.086   2.191
 9619W        W78037  38.510   1.769  13.812
 9620W        W78038  43.856  41.892   2.845
 9621W        W78039  32.030  23.560  13.467
 9622W        W78040  33.907  16.702  11.575
 9623W        W78041  19.642   3.936   4.600
 9624W        W78042  18.682  28.146  13.500
 9625W        W78043  27.644  40.814   1.755
 9626W        W78044  31.427  11.212  11.393
 9627W        W78045   9.333  14.589   4.781
 9628W        W78046   5.929  31.984   1.258
 9629W        W78047  22.729   9.814   4.315
 9630W        W78048   0.823  19.619  11.464
 9631W        W78049  28.573  37.979  14.762
 9632W        W78050  30.536  25.598  11.904
 9633W        W78051  40.478  33.443  14.956
 9634W        W78052   7.748   5.352  13.965
 9635W        W78053  15.630  18.136   2.747
 9636W        W78054  31.487  36.077   0.802
 9637W        W78055   4.895   4.416   4.773
 9638W        W78056  42.929   2.893  13.369
 9639W        W78057  40.351  39.449   1.278
 9640W        W78058   7.315  18.611   0.358
 9641W        W78059  24.670  34.055  12.469
 9642W        W78060  34.990  36.000  10.508
 9643W        W78061  24.538  22.607  14.934
 9644W        W78062   8.363  28.105  14.920
 9645W        W78063  40.014   4.299   4.213
 9646W        W78064  25.683   5.780  11.449
 9647W        W78065  16.590  17.117   3.259
 9648W        W78066  43.887  33.447   1.819
 9649W        W78067   5.232  42.899  14.761
 9650W        W78068  27.510  12.762  14.349
 9651W        W78069  33.981  28.061   2.283
 9652W        W78070  41.041  30.954   1.235
 9653W        W78071  17.613  18.136  14.859
 9654W        W78072  28.622  11.164   4.765
 9655W        W78073  38.990   6.247  13.923
 9656W        W78074   7.220   5.373  11.537
 9657W        W78075  25.003  36.372  10.525
 9658W        W78076  25.711  35.402  11.112
 9659W        W78077   5.840  24.711   0.755
 9660W        W78078  36.526  11.231  11.402
 9661W        W78079  26.697  32.006   1.909
 9662W        W78080  31.911   0.938   3.808
 9663W        W78081  29.052  32.469   2.284
 9664W        W78082  38.970  31.432  13.939
 9665W        W78083  21.665   0.338   2.219
 9666W        W78084   9.390  10.686  12.354
 9667W        W78085  42.519  14.142  11.465
 9668W        W78086   4.327  31.598   1.751
 9669W        W78087  19.178   2.456  12.438
 9670W        W78088  15.125  19.604   2.239
 9671W        W78089  43.320  16.288   0.376
 9672W        W78090  14.796   6.357   4.678
 9673W        W78091  18.066  19.270   1.891
 9674W        W78092  34.915  15.596   3.803
 9675W        W78093  31.051  29.129  11.438
 9676W        W78094  40.930  41.882   3.258
 9677W        W78095  32.965  23.188  11.959
 9678W        W78096  43.380  42.517  11.008
 9679W        W78097  31.085   8.404   1.825
 9680W        W78098   0.348  41.402   4.771
 9681W        W78099  22.170  10.377   0.765
 9682W        W78100  24.058  16.649   4.284
 9683W        W78101  13.642  17.577  10.545
 9684W        W78102  41.409  11.674   2.725
 9685W        W78103  10.151   3.899  13.872
 9686W        W78104  43.373  19.552   4.269
 9687W        W78105  17.617   5.220   4.213
 9688W        W78106  32.052  23.989  12.504
 9689W        W78107  25.579  10.861   1.745
 9690W        W78108  25.146  28.490  13.357
 9691W        W78109   0.757  24.041  10.925
 9692W        W78110   1.757  34.082  13.039
 9693W        W78111  34.987  13.237   2.356
 9694W        W78112  23.519  26.126  12.959
 9695W        W78113  12.359  35.937  11.871
 9696W        W78114  13.651  20.170   2.224
 9697W        W78115  13.768   7.298   4.625
 9698W        W78116  41.885  31.474   0.244
 9699W        W78117  41.948  17.701   1.908
 9700W        W78118  37.030  15.796  14.453
 9701W        W78119  37.990  26.500  13.791
 9702W        W78120  24.575  27.453   0.380
 9703W        W78121  40.430  12.787  13.439
 9704W        W78122  18.143   7.389   4.168
 9705W        W78123  10.660  23.084  12.400
 9706W        W78124  17.582  28.588  12.931
 9707W        W78125  24.101  29.048   3.169
 9708W        W78126  33.034   7.339   4.767
 9709W        W78127   2.423  41.998   1.312
 9710W        W78128  23.162   5.739  12.509
 9711W        W78129  16.106   2.883   0.259
 9712W        W78130  37.863  19.775   0.935
 9713W        W78131  21.692   1.975   1.827
 9714W        W78132   6.210  43.826   4.747
 9715W        W78133  40.044  34.904  11.029
 9716W        W78134  38.850  28.038  11.124
 9717W        W78135  25.598   9.656   1.868
 9718W        W78136  25.602  12.276  13.533
 9719W        W78137  19.192  28.655   2.899
 9720W        W78138  14.591  11.731  13.343
 9721W        W78139  41.425  11.322  13.514
 9722W        W78140   4.729  27.975   0.433
 9723W        W78141  17.204  42.521   1.342
 9724W        W78142  14.653  37.922   1.445
 9725W        W78143  18.614  40.869   3.345
 9726W        W78144  35.964   9.809   1.845
 9727W        W78145   6.707  13.173   0.854
 9728W        W78146  29.618  34.011   1.904
 9729W        W78147  24.997   3.346  11.002
 9730W        W78148  33.490  25.205   4.235
 9731W        W78149  19.565  44.881  11.442
 9732W        W78150  32.900  32.487  12.046
 9733W        W78151  17.224  41.358  11.466
 9734W        W78152  23.223  12.701  11.382
 9735W        W78153  11.263  24.060   4.655
 9736W        W78154   1.280  37.409   2.188
 9737W        W78155   6.849   2.734  12.021
 9738W        W78156  20.086  37.390   5.127
 9739W        W78157   0.899   9.866  14.399
 9740W        W78158  13.295  44.909  11.915
 9741W        W78159   3.721  18.081   0.755
 9742W        W78160  26.575  30.513   0.775
 9743W        W78161  13.603   4.331   1.756
 9744W        W78162   8.230  32.118  11.385
 9745W        W78163  42.451   0.890  11.024
 9746W        W78164   3.727  30.035  11.019
 9747W        W78165   6.194  41.400  10.101
 9748W        W78166   6.750  20.755  10.549
 9749W        W78167  36.918  18.265   2.749
 9750W        W78168  16.076  27.679  14.836
 9751W        W78169  13.230  16.597   4.653
 9752W        W78170  41.972   0.269   4.325
 9753W        W78171  36.881  43.766  10.629
 9754W        W78172  40.881  32.480  10.519
 9755W        W78173   4.805  24.643   4.328
 9756W        W78174  11.632  13.218   2.411
 9757W        W78175  41.358  42.476  10.961
 9758W        W78176  33.432  14.112   1.242
 9759W        W78177  37.930   0.465   0.381
 9760W        W78178  11.279   6.757  14.012
 9761W        W78179  11.183  31.128   4.636
 9762W        W78180  25.710  43.787  14.463
 9763W        W78181  24.016   1.786   4.619
 9764W        W78182  26.475  19.222  10.422
 9765W        W78183  17.777  31.980  13.421
 9766W        W78184  21.682  24.157  10.947
 9767W        W78185   6.748  38.966  14.411
 9768W        W78186  28.437  32.065   3.272
 9769W        W78187  43.502  33.541  12.897
 9770W        W78188  18.788  24.202  13.475
 9771W        W78189  36.489  24.057  12.840
 9772W        W78190  32.394   1.899   3.867
 9773W        W78191   7.349   3.395  12.012
 9774W        W78192  36.073  36.945   0.389
 9775W        W78193  30.630   0.334  12.535
 9776W        W78194  35.463  32.614   4.603
 9777W        W78195  18.630   2.357   1.346
 9778W        W78196  35.396  27.018  11.600
 9779W        W78197   1.269  12.833   4.196
 9780W        W78198  35.955  38.430   4.207
 9781W        W78199  20.583  32.622   3.723
 9782W        W78200  23.081   3.732   4.618
 9783W        W78201  27.999   3.338  14.795
 9784W        W78202  30.133  27.579   1.408
 9785W        W78203  36.378  12.253   1.261
 9786W        W78204  31.997   7.236   4.747
 9787W        W78205  38.840  36.973   0.290
 9788W        W78206  32.013  18.133  11.907
 9789W        W78207   3.758   0.871  13.435
 9790W        W78208  12.822  40.922   3.702
 9791W        W78209   5.364  25.559  14.015
 9792W        W78210  35.897  12.681  13.529
 9793W        W78211  21.543  39.354   4.158
 9794W        W78212  17.759  22.634   3.633
 9795W        W78213  29.501  39.329  14.348
 9796W        W78214   0.492  14.341   0.426
 9797W        W78215   4.752  33.121  10.892
 9798W        W78216  43.425  31.610   3.283
 9799W        W78217  19.241   0.382   1.922
 9800W        W78218  17.776  44.412   1.234
 9801W        W78219  15.589  39.042  11.508
 9802W        W78220   4.229  22.251   3.368
 9803W        W78221   6.235  27.983   0.749
 9804W        W78222  36.493  36.541  11.022
 9805W        W78223  35.034  26.996   2.366
 9806W        W78224  35.554  17.658   0.431
 9807W        W78225  24.050  16.739  14.896
 9808W        W78226  39.858   5.828   1.769
 9809W        W78227   7.254   0.879   2.723
 9810W        W78228  30.962  43.971   2.216
 9811W        W78229   5.418  29.469   1.238
 9812W        W78230  38.391  29.000   4.245
 9813W        W78231  38.370  13.136   3.145
 9814W        W78232   3.721  44.910  11.076
 9815W        W78233  25.540   2.370   0.468
 9816W        W78234  13.809  22.052   1.297
 9817W        W78235  37.569  19.070   2.336
 9818W        W78236  44.275  23.105  11.022
 9819W        W78237   2.755  39.409  10.439
 9820W        W78238  26.570  20.657  12.838
 9821W        W78239  28.051  23.515  12.866
 9822W        W78240   5.367  44.977  13.519
 9823W        W78241  40.445  20.091   1.218
 9824W        W78242  34.596  14.284  11.492
 9825W        W78243   4.451  35.428  14.760
 9826W        W78244   4.237  36.432   4.634
 9827W        W78245  30.954   0.491   4.787
 9828W        W78246  13.206  28.961   5.262
 9829W        W78247  27.677  31.402   3.376
 9830W        W78248  21.750  33.983  13.360
 9831W        W78249   7.910   6.243  10.509
 9832W        W78250   0.399  34.961  11.886
 9833W        W78251   4.924  23.699  12.049
 9834W        W78252  29.129  26.985  11.570
 9835W        W78253  13.718   3.913  14.976
 9836W        W78254  19.593  37.024   3.225
 9837W        W78255  39.345  41.835  13.865
 9838W        W78256   6.395  40.393  14.995
 9839W        W78257  26.024  28.454  11.590
 9840W        W78258  39.824  14.326  14.373
 9841W        W78259   6.381  39.490   0.385
 9842W        W78260  34.064   7.402   1.845
 9843W        W78261   6.676  14.315   2.384
 9844W        W78262  37.913  21.715   3.782
 9845W        W78263  15.822   8.802   0.794
 9846W        W78264  37.932  24.549   1.226
 9847W        W78265  39.052   3.289   4.631
 9848W        W78266  26.067   8.232  10.086
 9849W        W78267  22.160  10.750  10.511
 9850W        W78268  20.660  42.032  12.924
 9851W        W78269  43.893  32.488   2.689
 9852W        W78270   7.894  23.522   3.631
 9853W        W78271   4.928  37.916   0.331
 9854W        W78272  22.023   5.428   2.417
 9855W        W78273  18.276  32.112  12.493
 9856W        W78274  29.616  26.482   2.817
 9857W        W78275  24.979   2.414   0.814
 9858W        W78276   8.822  27.053   4.703
 9859W        W78277  32.999  10.775  12.539
 9860W        W78278   2.861  19.614  12.558
 9861W        W78279   0.853  21.630   3.790
 9862W        W78280  42.473  33.046  13.495
 9863W        W78281   7.174  22.664   4.292
 9864W        W78282   0.400   4.219   4.782
 9865W        W78283  29.969  43.917   0.458
 9866W        W78284  42.933   0.491  11.417
 9867W        W78285   5.201  17.206  12.399
 9868W        W78286   2.910   7.829  14.966
 9869W        W78287   4.752  29.925  10.503
 9870W        W78288  18.571  41.303  11.417
 9871W        W78289  40.394  39.928  14.295
 9872W        W78290  27.086  23.688   2.693
 9873W        W78291  41.426  33.035  13.416
 9874W        W78292  19.234   9.848   4.721
 9875W        W78293   8.168  39.442  11.096
 9876W        W78294   6.273  10.654   0.336
 9877W        W78295   6.219  17.291  13.847
 9878W        W78296  36.085  10.877  11.551
 9879W        W78297  20.138   9.345   4.217
 9880W        W78298  28.048  13.750   1.722
 9881W        W78299  11.767   1.469   0.409
 9882W        W78300   0.948   8.285   4.686
 9883W        W78301   0.361  36.585   1.390
 9884W        W78302   1.463  33.444  11.893
 9885W        W78303  44.473  33.093  10.566
 9886W        W78304  40.470  38.037   0.792
 9887W        W78305  28.997  22.574  12.489
 9888W        W78306  39.329  27.114  14.343
 9889W        W78307   6.186  44.399  11.971
 9890W        W78308   0.352  42.806  11.953
 9891W        W78309   8.370  12.322   1.381
 9892W        W78310  42.400   1.340   4.171
 9893W        W78311  17.175   7.831   1.801
 9894W        W78312  44.796  25.703   2.852
 9895W        W78313  19.098  30.948  11.855
 9896W        W78314  16.263  18.280  14.894
 9897W        W78315  17.304   1.446   0.476
 9898W        W78316  22.503  27.179  12.417
 9899W        W78317  22.661  13.783  10.597
 9900W        W78318  36.929   2.355   1.829
 9901W        W78319  32.019  41.972   0.835
 9902W        W78320   7.268   1.795   0.438
 9903W        W78321  24.976  20.645   9.991
 9904W        W78322   3.272  19.108   1.354
 9905W        W78323  25.154  37.924   3.219
 9906W        W78324  11.185  15.595  12.945
 9907W        W78325  43.439  27.029   0.871
 9908W        W78326  13.691  42.294  12.392
 9909W        W78327  29.109  43.811  13.357
 9910W        W78328  41.514   6.342   0.920
 9911W        W78329  43.284  44.770  13.851
 9912W        W78330  44.972  24.094  14.511
 9913W        W78331  44.869  20.618   9.582
 9914W        W78332  32.087  20.251   0.777
 9915W        W78333  35.917  27.084   1.804
 9916W        W78334  33.401  32.452   4.220
 9917W        W78335   2.834  42.464  13.426
 9918W        W78336  11.310  17.205   3.707
 9919W        W78337  12.348  10.382  13.460
 9920W        W78338  14.599  13.711   2.412
 9921W        W78339  24.156  11.845  10.477
 9922W        W78340   2.292  17.612  11.008
 9923W        W78341   4.429   3.449   2.851
 9924W        W78342  26.479  37.413   4.823
 9925W        W78343  17.095  22.021   1.700
 9926W        W78344   4.703  26.125   4.345
 9927W        W78345  40.458  44.342   2.685
 9928W        W78346  40.974  31.947   0.392
 9929W        W78347  32.943  14.695  11.890
 9930W        W78348   1.765  29.134  14.769
 9931W        W78349  17.123  32.076   4.156
 9932W        W78350  42.398  11.803  11.603
 9933W        W78351   3.746  17.767  13.529
 9934W        W78352   4.226  24.006   3.198
 9935W        W78353   6.250  38.333   0.859
 9936W        W78354  24.679  10.148  13.799
 9937W        W78355  42.870  42.338   3.861
 9938W        W78356  18.090  30.590  12.922
 9939W        W78357   6.705  21.229  12.577
 9940W        W78358   8.701   4.428  14.336
 9941W        W78359  15.790  11.722  13.434
 9942W        W78360  37.060  21.123   1.882
 9943W        W78361  23.113   3.319  11.443
 9944W        W78362   0.475   2.756  13.939
 9945W        W78363  27.146  38.463   3.252
 9946W        W78364  20.200  31.922   3.814
 9947W        W78365  33.620   6.270  10.503
 9948W        W78366  23.544  13.159  11.051
 9949W        W78367   6.254  34.571  10.460
 9950W        W78368  11.360  38.867   2.759
 9951W        W78369  30.944  37.545   3.377
 9952W        W78370   8.656   4.337  14.968
 9953W        W78371  11.182  12.140  11.561
 9954W        W78372  24.157   8.769   2.698
 9955W        W78373  15.666  44.851   2.304
 9956W        W78374  29.584  41.797   2.813
 9957W        W78375  27.165  24.179  10.431
 9958W        W78376  25.124  28.476   2.182
 9959W        W78377  35.987  21.186  12.826
 9960W        W78378   3.273  15.646  14.491
 9961W        W78379  11.176  39.508  13.475
 9962W        W78380  11.267  21.641   3.363
 9963W        W78381   7.810  22.510  12.846
 9964W        W78382   7.204   7.370  11.494
 9965W        W78383  29.624  43.440   1.394
 9966W        W78384  23.123   5.382   2.774
 9967W        W78385  34.907  29.107  10.057
 9968W        W78386  43.289   1.434   0.259
 9969W        W78387  44.379   8.825  14.348
 9970W        W78388  12.164   4.792  13.417
 9971W        W78389  14.645  14.745  12.381
 9972W        W78390   2.230  34.928  11.947
 9973W        W78391  20.540  22.636   4.774
 9974W        W78392  14.269   2.421   3.703
 9975W        W78393  23.015  43.778  13.385
 9976W        W78394   6.763  33.029   2.689
 9977W        W78395   0.311   3.446  11.440
 9978W        W78396   7.803  38.384   1.301
 9979W        W78397  10.193  31.597   3.725
 9980W        W78398  27.999  38.337   4.170
 9981W        W78399  42.399  31.068  14.309
 9982W        W78400  38.999  37.337  11.492
 9983W        W78401  21.671  12.171  14.285
 9984W        W78402  28.493  28.547  12.497
 9985W        W78403  33.902   0.271  12.395
 9986W        W78404  30.960   9.762  13.352
 9987W        W78405  30.931  29.532  12.978
 9988W        W78406   8.161   7.346  13.513
 9989W        W78407  26.669  28.971  13.805
 9990W        W78408   9.275  34.439  14.940
 9991W        W78409  29.542  41.445   5.172
 9992W        W78410  30.919  28.527   1.789
 9993W        W78411  31.048  22.090  11.855
 9994W        W78412   0.952  10.673   0.395
 9995W        W78413  28.612  40.407  11.418
 9996W        W78414  20.028   0.831  13.950
 9997W        W78415  19.237  23.565  13.515
 9998W        W78416  32.938   3.227  12.504
 9999W        W78417  20.109   2.357   0.849
10000W        W78418  20.631  29.606   0.395
10001W        W78419  24.177  28.653  13.917
10002W        W78420  35.584  38.967   9.983
10003W        W78421  22.685  19.656   4.140
10004W        W78422  27.540  23.090  10.972
10005W        W78423   3.343  36.472   0.424
10006W        W78424  23.140   4.441   4.158
10007W        W78425  41.405  28.956  14.839
10008W        W78426   3.889  12.840   1.290
10009W        W78427  22.250   5.198  13.439
10010W        W78428   7.365  32.460   0.854
10011W        W78429  31.571  42.994  11.953
10012W        W78430  36.593  27.480  10.909
10013W        W78431  23.118   2.351   3.821
10014W        W78432  25.191  20.620  11.955
10015W        W78433  13.334   2.805  13.952
10016W        W78434   8.839  15.232   0.438
10017W        W78435   6.298  32.603   3.336
10018W        W78436  13.235  17.237   2.368
10019W        W78437  42.981  27.173  13.825
10020W        W78438   2.929  16.229   2.722
10021W        W78439   7.270   5.245   0.318
10022W        W78440  28.488  43.411  14.310
10023W        W78441  32.110  18.560  12.008
10024W        W78442  16.086  44.833   1.350
10025W        W78443  17.796   6.764   3.775
10026W        W78444  33.420   2.842  12.085
10027W        W78445  42.498   3.764   4.617
10028W        W78446   0.871   6.865   3.649
10029W        W78447   3.817   9.246   2.187
10030W        W78448  28.068  15.777  10.927
10031W        W78449  36.454  26.129   0.481
10032W        W78450  11.782   6.692  13.049
10033W        W78451  17.559  33.502  13.901
10034W        W78452  43.009   2.908   4.225
10035W        W78453  35.597  44.819  10.483
10036W        W78454  16.785   5.432   0.445
10037W        W78455   2.844   8.291  14.389
10038W        W78456  40.937   0.272  13.875
10039W        W78457   2.881  17.770  11.915
10040W        W78458  34.113  18.071  12.023
10041W        W78459  18.102  37.463  13.845
10042W        W78460  31.452  11.790   3.320
10043W        W78461  37.066  15.188   3.375
10044W        W78462  32.513  18.075  11.607
10045W        W78463  37.063  16.219   0.936
10046W        W78464  22.094  28.153   1.745
10047W        W78465   4.930   5.389  12.073
10048W        W78466  18.199   6.333   4.157
10049W        W78467  40.477   6.725   2.732
10050W        W78468  11.337   7.713   3.630
10051W        W78469  18.689   0.816   0.861
10052W        W78470  21.158   3.267  12.358
10053W        W78471  30.605  36.033  14.775
10054W        W78472  12.158  39.324  14.487
10055W        W78473  39.974  13.653   3.756
10056W        W78474  20.555  17.692   0.901
10057W        W78475  36.862   8.391  14.359
10058W        W78476   6.404  36.078   3.271
10059W        W78477  15.781  20.756   5.205
10060W        W78478  25.553   4.373   2.685
10061W        W78479   1.848   0.382  13.844
10062W        W78480  15.685   9.826   3.731
10063W        W78481  37.059   0.814  14.488
10064W        W78482  10.710  22.159  12.043
10065W        W78483   6.308  29.990   2.674
10066W        W78484   3.819  38.530   3.781
10067W        W78485  26.005  16.124   4.183
10068W        W78486  29.977   3.408   2.867
10069W        W78487  32.399  25.524   0.258
10070W        W78488  28.943  27.968  12.550
10071W        W78489  35.518   7.860  11.510
10072W        W78490  24.624  18.218   2.304
10073W        W78491   4.245  41.897  13.919
10074W        W78492  38.062   4.910   1.374
10075W        W78493  24.621   1.295   0.774
10076W        W78494  34.579  19.059  10.983
10077W        W78495  39.020  25.663   5.185
10078W        W78496  27.178   5.324  14.008
10079W        W78497  13.241  33.061  14.327
10080W        W78498  33.081  21.740  11.375
10081W        W78499  44.505  19.210  12.474
10082W        W78500  44.819  27.653  12.512
10083W        W78501  22.248  36.550  11.110
10084W        W78502  15.155  24.079   1.820
10085W        W78503  35.438  38.888   3.249
10086W        W78504   7.760  10.703  12.550
10087W        W78505   6.853  35.990   0.435
10088W        W78506   6.200  10.250  12.445
10089W        W78507   2.426  42.438   4.240
10090W        W78508  39.033  21.608  11.422
10091W        W78509   8.182  35.987   2.826
10092W        W78510  35.999   4.830  11.440
10093W        W78511   3.337  38.905  14.792
10094W        W78512   4.708  13.196  12.970
10095W        W78513   6.308  14.247   1.226
10096W        W78514  42.386  12.668  14.364
10097W        W78515  11.774  17.155   0.409
10098W        W78516  36.922  30.478  13.960
10099W        W78517  30.444  11.138   4.116
10100W        W78518   5.406  23.520   2.262
10101W        W78519  28.029  43.994   2.360
10102W        W78520  33.538  28.603   3.708
10103W        W78521  31.614  30.569   4.634
10104W        W78522  26.629   0.313  11.571
10105W        W78523   4.233  18.620  10.946
10106W        W78524  26.099  37.406   4.339
10107W        W78525  15.630   5.870   1.351
10108W        W78526  33.957  30.423  12.995
10109W        W78527  18.125  34.946   0.252
10110W        W78528  13.795   0.369  14.884
10111W        W78529  12.853  13.302  14.499
10112W        W78530  22.218   4.418   4.831
10113W        W78531   4.289  27.683   4.676
10114W        W78532  42.329  26.617  14.325
10115W        W78533  24.220  23.629   0.389
10116W        W78534   3.247   4.904  12.377
10117W        W78535  33.480  11.198  12.055
10118W        W78536   0.332  27.997  13.949
10119W        W78537  18.141  13.262  11.951
10120W        W78538  23.616  36.405  14.776
10121W        W78539  41.820  43.466   3.755
10122W        W78540  37.389   1.482   0.356
10123W        W78541  24.213  21.731  11.450
10124W        W78542  31.038  44.797   4.641
10125W        W78543  16.809  20.597   3.685
10126W        W78544  42.393  40.837   5.235
10127W        W78545  15.614  12.693  12.920
10128W        W78546  17.066   6.420  14.330
10129W        W78547  25.713  31.092  14.408
10130W        W78548   1.734   0.878  12.576
10131W        W78549  21.119   6.702  12.374
10132W        W78550  13.781  22.537  13.351
10133W        W78551  16.658  31.427  11.986
10134W        W78552  44.305  22.081   9.948
10135W        W78553   5.870  12.196   3.354
10136W        W78554  26.031   1.856  14.513
10137W        W78555   6.207   3.349  13.494
10138W        W78556   3.881  19.708  13.822
10139W        W78557  23.634  17.235   3.208
10140W        W78558  35.102  16.655   2.679
10141W        W78559  44.927  14.264   9.927
10142W        W78560   6.351  37.447   2.378
10143W        W78561   9.812  43.978   3.836
10144W        W78562  34.591  20.183  14.374
10145W        W78563  29.055  21.208   0.862
10146W        W78564  44.393   8.200   4.217
10147W        W78565  14.612  33.566  13.383
10148W        W78566  31.548  18.781   2.865
10149W        W78567   5.285   2.348   0.807
10150W        W78568  14.781   3.881  13.916
10151W        W78569   1.818  40.333   1.904
10152W        W78570  43.440  36.881  10.898
10153W        W78571  43.817  20.734  12.880
10154W        W78572   6.879  18.225   0.435
10155W        W78573  36.476   1.967   4.683
10156W        W78574   8.195  11.706  13.429
10157W        W78575  35.459  13.600  10.637
10158W        W78576  24.142  23.726  12.068
10159W        W78577  36.384  16.812   1.751
10160W        W78578  30.976  24.614   4.735
10161W        W78579  28.631  35.896   4.750
10162W        W78580  20.201  17.152   0.881
10163W        W78581  18.687  28.078   1.803
10164W        W78582  22.553  39.975  10.099
10165W        W78583  11.207  31.096  13.021
10166W        W78584   2.426   9.300  12.867
10167W        W78585  26.537   3.415  10.000
10168W        W78586  30.507  11.369  11.919
10169W        W78587  24.713  20.605   4.647
10170W        W78588  36.976   0.777  11.417
10171W        W78589  39.525   0.968  13.055
10172W        W78590   6.297  35.935   3.701
10173W        W78591   9.803  24.152  13.801
10174W        W78592  11.728   2.748   3.156
10175W        W78593  36.861  40.801   4.639
10176W        W78594   1.893  31.109  14.818
10177W        W78595   0.866   2.442  14.282
10178W        W78596  15.124  30.986   0.949
10179W        W78597  17.606  13.256   0.807
10180W        W78598   4.397  33.522   4.634
10181W        W78599   9.660   1.320   3.728
10182W        W78600  21.080  23.673   2.314
10183W        W78601   8.824  31.565   4.752
10184W        W78602  41.511  35.361  13.484
10185W        W78603   1.972   4.240  14.279
10186W        W78604  28.070  24.048  13.414
10187W        W78605  15.680  39.534  14.952
10188W        W78606  19.179  11.814  10.960
10189W        W78607   1.396  31.623  11.372
10190W        W78608   7.387  15.099  12.447
10191W        W78609  22.219  41.041   0.305
10192W        W78610  26.956  25.147   0.303
10193W        W78611  43.436  18.069   3.680
10194W        W78612  15.151  24.536  14.409
10195W        W78613  15.691  24.009  14.478
10196W        W78614  44.759  31.557  12.893
10197W        W78615   4.891   9.680   4.746
10198W        W78616   9.713  35.552   1.413
10199W        W78617  36.898  19.230   0.454
10200W        W78618  17.208  32.031  14.345
10201W        W78619  13.813  28.497  11.107
10202W        W78620  38.060  14.797   0.826
10203W        W78621   0.842   1.460  12.938
10204W        W78622  15.762  30.027   4.632
10205W        W78623  42.320  34.570  10.968
10206W        W78624  20.581  35.069  11.382
10207W        W78625  28.940   3.386  13.914
10208W        W78626  24.635   5.322  13.334
10209W        W78627  37.932  28.043  13.036
10210W        W78628  29.946  20.194  11.043
10211W        W78629  43.903  36.485  12.001
10212W        W78630  44.382  24.587   2.829
10213W        W78631  15.158  24.104  12.402
10214W        W78632  23.148   1.344   1.859
10215W        W78633  38.915  42.794   3.183
10216W        W78634  21.114  20.086  11.063
10217W        W78635  38.400  21.603   2.890
10218W        W78636   2.729  30.104   2.754
10219W        W78637  35.009   2.397   3.164
10220W        W78638  44.918  25.971   3.635
10221W        W78639  14.179  10.155  13.900
10222W        W78640  35.497  36.475   2.903
10223W        W78641  29.480   3.727   0.938
10224W        W78642  41.359   6.706   2.793
10225W        W78643  34.401   3.327   2.230
10226W        W78644  44.350  35.056   4.195
10227W        W78645   9.202  30.507   0.762
10228W        W78646  25.701   8.378  12.398
10229W        W78647  40.305  13.338   2.738
10230W        W78648  26.992  10.793  11.951
10231W        W78649  41.353  25.593   3.228
10232W        W78650  35.985  12.707  14.790
10233W        W78651   6.206   3.318   4.641
10234W        W78652  18.661   9.256  12.836
10235W        W78653  32.476  15.609   4.266
10236W        W78654  21.139   6.694   3.320
10237W        W78655   1.312  44.829   3.176
10238W        W78656  22.212  23.105  12.380
10239W        W78657   4.736   7.883  13.323
10240W        W78658  24.053   6.259   1.704
10241W        W78659   8.876  43.393   2.408
10242W        W78660   0.905  31.638   1.754
10243W        W78661  28.625  28.117   2.290
10244W        W78662  24.221  27.605  12.530
10245W        W78663  13.228  18.125  14.454
10246W        W78664  41.026  25.600   0.779
10247W        W78665  35.911  35.443   2.276
10248W        W78666  17.557   9.299  10.958
10249W        W78667  24.636  21.182  14.378
10250W        W78668  11.236  10.835   1.851
10251W        W78669  14.669   0.950   9.987
10252W        W78670  14.327   2.814  12.857
10253W        W78671  13.136  13.795  11.423
10254W        W78672  10.261  13.751   0.749
10255W        W78673  38.857  28.649   2.785
10256W        W78674  43.510  13.758  10.077
10257W        W78675   5.934  41.804   2.749
10258W        W78676   8.169  40.947  12.928
10259W        W78677  39.900  40.383   0.789
10260W        W78678  41.989  33.473  11.958
10261W        W78679  38.060  11.708   3.749
10262W        W78680  15.086  38.864  12.994
10263W        W78681   5.801   5.264  12.888
10264W        W78682  17.299  24.606   2.315
10265W        W78683  25.524  36.554  13.391
10266W        W78684  21.729  12.682   3.826
10267W        W78685  39.382  16.080   3.185
10268W        W78686  38.536   3.325   3.630
10269W        W78687   8.803   4.824  10.444
10270W        W78688   1.364  11.278   4.772
10271W        W78689  31.995  25.662  12.450
10272W        W78690  25.161  33.418  12.557
10273W        W78691  30.447  30.139  11.529
10274W        W78692  39.462  12.306  14.937
10275W        W78693  20.047   9.780   0.280
10276W        W78694  43.480  16.798  13.893
10277W        W78695  42.327  26.569   4.201
10278W        W78696   6.856  27.161   2.189
10279W        W78697  32.905  29.593   4.343
10280W        W78698   8.295  21.719   0.336
10281W        W78699  16.800  28.469   3.232
10282W        W78700  16.180   6.297   2.708
10283W        W78701  38.863  41.316   4.293
10284W        W78702  24.661   9.328  13.376
10285W        W78703   4.765  27.624   0.328
10286W        W78704  38.399  18.234  13.385
10287W        W78705  10.184  40.354  14.276
10288W        W78706  16.297  39.896   4.659
10289W        W78707  10.206   2.374  14.393
10290W        W78708  39.490  23.574   4.838
10291W        W78709  35.476  35.936   1.851
10292W        W78710  22.242  37.026  14.864
10293W        W78711  31.424  39.035   0.393
10294W        W78712  41.472  37.548  11.393
10295W        W78713  18.786   0.472   1.930
10296W        W78714  39.966  12.226  11.043
10297W        W78715   4.344  28.996   0.462
10298W        W78716  20.234   6.265   0.841
10299W        W78717  18.648  18.683   2.763
10300W        W78718  35.956   3.802   4.338
10301W        W78719   2.736   8.324   0.949
10302W        W78720  33.112  35.568   1.817
10303W        W78721   6.858   2.327  10.511
10304W        W78722  43.286  15.816   2.268
10305W        W78723  25.029   3.269  11.956
10306W        W78724  19.668  42.281  13.061
10307W        W78725  40.331  33.020  11.375
10308W        W78726  33.459  31.614  14.417
10309W        W78727  23.241  37.936  14.288
10310W        W78728   7.391   6.748   1.718
10311W        W78729  29.636  19.206  13.911
10312W        W78730  33.102  27.962  11.111
10313W        W78731  27.501  32.096   2.297
10314W        W78732  20.550  26.555   5.182
10315W        W78733  33.933  40.427  13.458
10316W        W78734  11.630  15.708   1.297
10317W        W78735  36.853   6.677  14.953
10318W        W78736  34.015  33.927   2.281
10319W        W78737  37.491  42.983   4.303
10320W        W78738   2.316  31.630   1.826
10321W        W78739  24.167  44.446  14.964
10322W        W78740   0.865  42.388   0.436
10323W        W78741  35.466   1.247  14.493
10324W        W78742  19.577  36.409  12.847
10325W        W78743  18.258  38.879   3.745
10326W        W78744  27.971  13.673  14.279
10327W        W78745  32.021  33.480   4.697
10328W        W78746  11.658   4.334   3.770
10329W        W78747  25.713  23.657   0.330
10330W        W78748  11.723  39.526   2.887
10331W        W78749   7.280  42.812   1.805
10332W        W78750  10.168  25.981  14.369
10333W        W78751  43.330  29.456  13.809
10334W        W78752  31.648   3.381   1.800
10335W        W78753  36.411  11.708   4.707
10336W        W78754   1.366  34.979   3.639
10337W        W78755  40.908  20.168  12.044
10338W        W78756   8.743  40.814  11.466
10339W        W78757  29.650  39.431  12.829
10340W        W78758   8.286  25.571  12.054
10341W        W78759  25.482  25.701   2.344
10342W        W78760  35.579  30.626  13.546
10343W        W78761  40.884   7.366   4.271
10344W        W78762   0.429  16.807   3.286
10345W        W78763  28.048  30.581   1.872
10346W        W78764  24.631  17.249  14.305
10347W        W78765  38.409  37.529  11.127
10348W        W78766  42.456  35.484  11.106
10349W        W78767  18.231  35.037   3.191
10350W        W78768  34.415  38.048   0.270
10351W        W78769  30.124  10.340   9.951
10352W        W78770   3.730  14.310  10.929
10353W        W78771  33.543   0.900  11.449
10354W        W78772  20.128  12.290  13.497
10355W        W78773  22.241  12.774  13.996
10356W        W78774  35.479  29.972   3.342
10357W        W78775   4.859  39.531  13.931
10358W        W78776  39.908  21.193   4.733
10359W        W78777   6.376  40.842  11.968
10360W        W78778  24.653  22.194  13.030
10361W        W78779  43.840  30.932  10.585
10362W        W78780  21.534  22.733   1.282
10363W        W78781  32.508  39.317  11.883
10364W        W78782  19.081   6.746  13.043
10365W        W78783  14.335  25.059   3.834
10366W        W78784   9.168   1.270   3.744
10367W        W78785  26.170  29.072   3.821
10368W        W78786  41.457  30.088   1.924
10369W        W78787  15.254   3.340   1.229
10370W        W78788  32.394  42.920  10.467
10371W        W78789  30.574   4.251  13.518
10372W        W78790  28.067  33.614   0.760
10373W        W78791  15.580   9.316  11.390
10374W        W78792  28.659  27.621  14.387
10375W        W78793   2.829  21.547  11.400
10376W        W78794   3.829  24.625  11.530
10377W        W78795  21.096  17.150  11.593
10378W        W78796  42.413  17.256   4.258
10379W        W78797  37.968  38.960   0.768
10380W        W78798   3.886  35.412   4.202
10381W        W78799  28.567   1.448  11.913
10382W        W78800  27.180   5.271   0.343
10383W        W78801  37.851   9.811   3.795
10384W        W78802  23.163   0.748   0.321
10385W        W78803  38.878  24.613  10.995
10386W        W78804   4.444  29.618  11.116
10387W        W78805  23.692   2.923   0.860
10388W        W78806  11.626   2.886  14.377
10389W        W78807  30.140   4.239   1.342
10390W        W78808   0.914   4.343  11.972
10391W        W78809  20.219  25.063   2.873
10392W        W78810  16.792   4.372  14.324
10393W        W78811  15.639  19.281  13.526
10394W        W78812  40.544  22.651  12.050
10395W        W78813  21.680  12.666  10.563
10396W        W78814  22.098   6.217   0.738
10397W        W78815  16.212  43.297  10.493
10398W        W78816   3.807  22.075  12.354
10399W        W78817   5.812  29.133   1.914
10400W        W78818  31.927  15.225   0.958
10401W        W78819  37.839  12.784   4.188
10402W        W78820  18.050  41.033   1.232
10403W        W78821  35.416  34.969  13.464
10404W        W78822  12.117  36.529   0.385
10405W        W78823  28.038  24.639  10.977
10406W        W78824   9.237  25.694   1.747
10407W        W78825  13.664  32.084   0.830
10408W        W78826  14.318   2.350   4.682
10409W        W78827   3.794   0.972  10.963
10410W        W78828  15.750  21.220   2.225
10411W        W78829  40.549  28.037   3.734
10412W        W78830  11.833  37.402   0.776
10413W        W78831  43.286  40.854  12.970
10414W        W78832  34.907  40.891   2.881
10415W        W78833  37.434  42.389   3.163
10416W        W78834  25.605  16.102  14.846
10417W        W78835  19.087  15.631   2.251
10418W        W78836  30.446   8.787  10.544
10419W        W78837  14.240  19.592  13.382
10420W        W78838  41.909  29.465   4.812
10421W        W78839   5.742  15.293   4.708
10422W        W78840  32.526  17.764   2.679
10423W        W78841   4.237  24.165   4.638
10424W        W78842  36.977  13.350   0.280
10425W        W78843  14.189  14.690  11.925
10426W        W78844   1.411  35.596   1.300
10427W        W78845  37.899  30.579  11.570
10428W        W78846  42.405  22.203   0.757
10429W        W78847  32.569  36.462  14.319
10430W        W78848  29.484  40.829  13.363
10431W        W78849  23.591  22.740   3.165
10432W        W78850  17.588   4.238  11.588
10433W        W78851  20.622  19.246   3.330
10434W        W78852  36.569  44.267  11.978
10435W        W78853  17.288  34.010   0.900
10436W        W78854  30.513  15.181   4.683
10437W        W78855  18.292  30.488   2.321
10438W        W78856  10.768   1.799  12.945
10439W        W78857  39.348  13.745   2.234
10440W        W78858  27.578  32.021   4.279
10441W        W78859  12.286  36.417  12.570
10442W        W78860   9.865  12.143  12.520
10443W        W78861  15.145  41.807  14.456
10444W        W78862   5.872  27.005   1.424
10445W        W78863  14.682  20.688   2.812
10446W        W78864  32.087  32.003  11.908
10447W        W78865  37.475  21.680   4.155
10448W        W78866  40.858  21.216  10.608
10449W        W78867  28.051   1.960  13.958
10450W        W78868  30.920  20.154   3.212
10451W        W78869  24.018  32.936  12.471
10452W        W78870  34.501  35.541  12.404
10453W        W78871  42.940  34.426  11.556
10454W        W78872  32.050   1.817  11.871
10455W        W78873  11.266   4.449   0.447
10456W        W78874  30.420  38.336  14.967
10457W        W78875  31.027  30.147   2.894
10458W        W78876  19.048  23.676  11.397
10459W        W78877  19.113   7.192  11.955
10460W        W78878   8.294  26.549   0.272
10461W        W78879  23.506  22.526   2.358
10462W        W78880  36.982  40.305   0.409
10463W        W78881   4.257   0.306  12.473
10464W        W78882  13.715   0.817  11.905
10465W        W78883  43.775  44.383   3.650
10466W        W78884  44.943  32.021  12.068
10467W        W78885  29.535  14.824   2.403
10468W        W78886  22.114  40.359  12.478
10469W        W78887  35.591  19.637  10.448
10470W        W78888  36.471  43.794   4.229
10471W        W78889   1.337  19.090   4.262
10472W        W78890   3.415  15.083  11.412
10473W        W78891  40.855  21.102  12.421
10474W        W78892  44.443   5.840  11.980
10475W        W78893  22.577  40.832   2.801
10476W        W78894  25.071  44.486  10.457
10477W        W78895  21.078  34.492   0.280
10478W        W78896   1.864  20.029  11.095
10479W        W78897  33.461  25.712  12.456
10480W        W78898  44.937  29.108  10.545
10481W        W78899  10.763  23.025   0.804
10482W        W78900   4.385   8.400   4.286
10483W        W78901  25.700   6.799  12.072
10484W        W78902  16.812  43.985   2.182
10485W        W78903   2.721  42.876   3.302
10486W        W78904   9.756  14.226   5.112
10487W        W78905  37.491  32.584   3.774
10488W        W78906  31.125   8.900  13.869
10489W        W78907  44.929  17.791  12.075
10490W        W78908  33.483  16.107   0.886
10491W        W78909   2.355  30.430  14.467
10492W        W78910  27.978  19.588  11.949
10493W        W78911  32.012  21.118  11.053
10494W        W78912  21.178  21.086  10.925
10495W        W78913   3.302  24.612   2.255
10496W        W78914   4.301  22.063  11.035
10497W        W78915  21.183  26.640  14.464
10498W        W78916   6.917  26.980  14.471
10499W        W78917  38.904  10.210   9.971
10500W        W78918  32.132  14.181   4.645
10501W        W78919  14.140  15.286  13.547
10502W        W78920   1.439  33.587   0.900
10503W        W78921   8.351  34.929  10.504
10504W        W78922   2.433  16.112  12.030
10505W        W78923  41.963  14.324   4.672
10506W        W78924  22.131  37.835  11.875
10507W        W78925   8.184  14.098   0.253
10508W        W78926  17.258  27.574  10.966
10509W        W78927  31.518  20.700   0.844
10510W        W78928   8.292  28.975   0.933
10511W        W78929   8.302  44.822   4.789
10512W        W78930  39.355  35.033   4.220
10513W        W78931   1.866   4.716  11.501
10514W        W78932   8.331  17.259   3.158
10515W        W78933  42.990  14.715  12.853
10516W        W78934   3.285  31.439  12.406
10517W        W78935  29.442  35.438  12.550
10518W        W78936  35.059  18.681   3.216
10519W        W78937  22.252  34.004   2.269
10520W        W78938  37.499  42.382   4.656
10521W        W78939  30.490   7.337  14.763
10522W        W78940  23.538  29.073   4.742
10523W        W78941  37.073   1.974  11.005
10524W        W78942  31.595  22.599  13.502
10525W        W78943  25.589  36.417   1.865
10526W        W78944   2.275  37.465  12.034
10527W        W78945  26.012   5.739   0.285
10528W        W78946  39.948  18.555  13.310
10529W        W78947  39.017   1.314   3.781
10530W        W78948  19.714   7.218  13.015
10531W        W78949  26.063  14.289  11.086
10532W        W78950  19.092  14.220   5.166
10533W        W78951  41.370  11.701   4.215
10534W        W78952   1.777  11.293  12.950
10535W        W78953  14.134  14.757  14.927
10536W        W78954  41.401  39.040   0.437
10537W        W78955  35.060   9.365  10.618
10538W        W78956  21.209  19.058   2.303
10539W        W78957  11.757   0.381   4.629
10540W        W78958   2.743   2.962  10.450
10541W        W78959  12.286  15.272  10.581
10542W        W78960  39.859  42.395   2.360
10543W        W78961  13.187   0.851   4.194
10544W        W78962  36.567   6.710   0.819
10545W        W78963   3.822  17.150   3.638
10546W        W78964  37.418  11.213  10.463
10547W        W78965   5.211   3.218   0.246
10548W        W78966  20.083  13.662  13.400
10549W        W78967   7.235   3.749  13.475
10550W        W78968  35.593  37.042  10.953
10551W        W78969  18.249  10.798  11.468
10552W        W78970  41.831  34.983  10.486
10553W        W78971  17.247   7.907  12.087
10554W        W78972  43.296  18.546  11.967
10555W        W78973  42.344  10.782   3.170
10556W        W78974  35.459  24.704  12.931
10557W        W78975  19.683  34.502  12.418
10558W        W78976  26.513  25.547   4.826
10559W        W78977   9.670  26.697  10.552
10560W        W78978  35.893   3.261   4.163
10561W        W78979   3.253  22.032   0.365
10562W        W78980  44.343  26.982   0.287
10563W        W78981   3.924  32.919  13.836
10564W        W78982  15.665  24.605  10.979
10565W        W78983  12.273  22.145   3.837
10566W        W78984   9.726  29.039  12.432
10567W        W78985   5.205   7.346  14.773
10568W        W78986  40.366  19.206   1.792
10569W        W78987  44.448  32.061  11.980
10570W        W78988  30.608  35.920  13.926
10571W        W78989   1.337  36.995  10.903
10572W        W78990  34.487  38.924  10.977
10573W        W78991  20.241  13.698  12.828
10574W        W78992   6.775   6.721  14.430
10575W        W78993  10.171  39.933  11.507
10576W        W78994   6.226  31.586   2.406
10577W        W78995  36.095  41.840  13.528
10578W        W78996  22.593  28.610  11.568
10579W        W78997  36.046  13.348   0.301
10580W        W78998  36.962  36.905  11.463
10581W        W78999  14.225  34.478  13.794
10582W        W79000  38.911  19.139   4.262
10583W        W79001   3.440  35.427  12.004
10584W        W79002  23.227  41.828  10.617
10585W        W79003  34.512  38.429  13.050
10586W        W79004   4.356  36.028  12.958
10587W        W79005   4.245  19.535   1.219
10588W        W79006  40.832  25.590   0.455
10589W        W79007  15.098  10.233   1.213
10590W        W79008  22.607   0.334   0.353
10591W        W79009  19.749  17.733   3.169
10592W        W79010  28.945  28.614   2.362
10593W        W79011  36.352  13.611   2.693
10594W        W79012  37.908  40.401   2.707
10595W        W79013  38.513   5.330   4.693
10596W        W79014  24.078  14.137   2.332
10597W        W79015  17.205  44.283   4.179
10598W        W79016  16.252  18.105  11.883
10599W        W79017  11.746  10.333  13.862
10600W        W79018   2.745  27.648   2.232
10601W        W79019   7.681  36.900  14.826
10602W        W79020  20.204  39.020   1.292
10603W        W79021  40.520   8.684   1.372
10604W        W79022   4.833  28.492  11.544
10605W        W79023   4.843   5.337  13.020
10606W        W79024  17.282   3.850   3.759
10607W        W79025  20.223  33.032   1.863
10608W        W79026   6.728   1.840   2.838
10609W        W79027   4.836  13.305   5.220
10610W        W79028  19.050  34.450  10.538
10611W        W79029  33.611  10.232  12.885
10612W        W79030  13.830  31.584   1.434
10613W        W79031   8.783  20.698   1.835
10614W        W79032   6.710  25.650   2.837
10615W        W79033  17.129  42.315   0.304
10616W        W79034  27.951   0.874  12.079
10617W        W79035   8.731   3.855  14.798
10618W        W79036  30.990  35.421  14.505
10619W        W79037  18.699   3.244   2.729
10620W        W79038   5.252  27.191  14.814
10621W        W79039  29.488  21.566  10.620
10622W        W79040  44.290  35.538  13.867
10623W        W79041  28.611  34.437   1.820
10624W        W79042  39.537  30.007  10.501
10625W        W79043  18.587   8.356  10.422
10626W        W79044  36.410  21.159  14.499
10627W        W79045   5.766   0.294  13.408
10628W        W79046   6.711  34.490   2.355
10629W        W79047  10.259  20.168   5.178
10630W        W79048  22.027   3.758   1.896
10631W        W79049  27.143  23.646  10.978
10632W        W79050  25.041  15.620  11.403
10633W        W79051  12.657  33.449   3.706
10634W        W79052  13.205   5.716  13.922
10635W        W79053   4.791   5.387  13.531
10636W        W79054  35.993  41.831   3.185
10637W        W79055  15.101  24.150  14.820
10638W        W79056   6.858  19.611  13.307
10639W        W79057  34.893  23.493   5.181
10640W        W79058  22.602  15.191   2.395
10641W        W79059  33.530  39.511  10.996
10642W        W79060  12.624  29.551  12.379
10643W        W79061  35.928  12.786  10.895
10644W        W79062  25.980  20.196  14.002
10645W        W79063  30.987  35.925  14.329
10646W        W79064  33.956  43.812   4.125
10647W        W79065  36.845  15.647   1.779
10648W        W79066  18.718  44.392   2.897
10649W        W79067  10.168   9.256   0.471
10650W        W79068   2.842  28.534   2.902
10651W        W79069  23.159  14.250  10.581
10652W        W79070  29.456  11.692   1.900
10653W        W79071  27.192  44.832   4.280
10654W        W79072   0.763  14.313   4.627
10655W        W79073  21.583   6.207   3.190
10656W        W79074  16.747   4.319  10.446
10657W        W79075  33.421  22.545   4.811
10658W        W79076  39.457  41.976   2.387
10659W        W79077  28.147   0.972  11.384
10660W        W79078   2.365   5.874  14.813
10661W        W79079  30.494  37.972  14.817
10662W        W79080  36.564  38.977   4.237
10663W        W79081  32.102  41.921   3.724
10664W        W79082   2.932  22.555  11.570
10665W        W79083  16.138  37.338   3.172
10666W        W79084  43.282  26.679  13.937
10667W        W79085  37.516  15.106  12.050
10668W        W79086  11.633  12.812   3.702
10669W        W79087  17.790  27.996   4.148
10670W        W79088  42.916  38.488  10.471
10671W        W79089  17.581   8.239   1.918
10672W        W79090  21.250  10.369  12.094
10673W        W79091  13.737  31.066  13.418
10674W        W79092  24.117  26.001   4.120
10675W        W79093   2.859  25.210   4.176
10676W        W79094   9.710  38.477   1.865
10677W        W79095   7.225   5.895  11.057
10678W        W79096  10.295  25.576   1.363
10679W        W79097  15.791   2.374  12.555
10680W        W79098  39.449  41.496  10.595
10681W        W79099  28.082   8.833  12.399
10682W        W79100  36.489  40.342   1.818
10683W        W79101  40.451  32.967  14.971
10684W        W79102  30.081   3.289  13.901
10685W        W79103  31.472  23.489  10.428
10686W        W79104  20.144  21.079   9.924
10687W        W79105  21.038  18.078   3.284
10688W        W79106  14.166  43.968   3.853
10689W        W79107  35.951  30.144  10.448
10690W        W79108  11.256  44.377  14.349
10691W        W79109  21.042  41.808   0.793
10692W        W79110  42.981   2.413  12.370
10693W        W79111  19.715  42.466   3.663
10694W        W79112  39.881  32.027  11.935
10695W        W79113  24.137   7.823  10.920
10696W        W79114  41.411  34.566   2.694
10697W        W79115  34.482  23.640  14.467
10698W        W79116  36.861   8.393  12.373
10699W        W79117   8.289  29.493   1.886
10700W        W79118  38.505   7.214  10.962
10701W        W79119  22.185  17.255  10.566
10702W        W79120   1.949   7.328  12.881
10703W        W79121  17.561  25.594  12.572
10704W        W79122  24.609  16.303   3.348
10705W        W79123  16.603  24.546  12.953
10706W        W79124  38.006  43.913  14.904
10707W        W79125  20.186  34.007   4.314
10708W        W79126  39.003  12.263  14.452
10709W        W79127  35.925  19.779  14.403
10710W        W79128   9.174  24.102   2.274
10711W        W79129  16.695  17.102  13.812
10712W        W79130  19.610  30.462   0.274
10713W        W79131  23.631   5.754  11.930
10714W        W79132   9.284  40.423   1.372
10715W        W79133  34.107   6.304   0.764
10716W        W79134  39.057  14.303  10.491
10717W        W79135  35.002  35.513   2.189
10718W        W79136  39.471   3.250  14.776
10719W        W79137  17.765  39.012   4.340
10720W        W79138  11.139   7.872  14.762
10721W        W79139  35.014  39.362   2.876
10722W        W79140  40.961   8.891  12.542
10723W        W79141  33.451   6.909   4.253
10724W        W79142   5.355  32.486  14.354
10725W        W79143  41.874  30.450   4.607
10726W        W79144  23.527  35.512  14.419
10727W        W79145  25.525  29.570  12.988
10728W        W79146  34.973  43.912  12.469
10729W        W79147   6.733  23.116   0.866
10730W        W79148  20.173  37.574  13.441
10731W        W79149   8.376  22.115   0.308
10732W        W79150  28.973  35.076   2.246
10733W        W79151   3.941  32.499   0.475
10734W        W79152  23.639   5.356   3.863
10735W        W79153  28.112  16.812  10.991
10736W        W79154  30.493  43.769   3.354
10737W        W79155  25.653  29.460  14.872
10738W        W79156   0.333  41.511  13.975
10739W        W79157  19.250  18.740   4.145
10740W        W79158  12.820  31.601  10.995
10741W        W79159  26.109  10.798  12.460
10742W        W79160   6.771  40.979   0.794
10743W        W79161  39.445   5.349   2.395
10744W        W79162  12.615  42.998  14.006
10745W        W79163  12.278  20.179   0.325
10746W        W79164  40.475  26.652   4.654
10747W        W79165  19.068   9.858   1.897
10748W        W79166  24.049  33.121   1.751
10749W        W79167   3.737   3.311   3.197
10750W        W79168  31.044  36.381   4.345
10751W        W79169   7.254  28.438  14.372
10752W        W79170  18.566  38.033   3.835
10753W        W79171   3.283  40.991   4.130
10754W        W79172  36.387  39.414   3.826
10755W        W79173  41.482  32.466   5.286
10756W        W79174   5.764  20.696  14.284
10757W        W79175  18.289  18.293  14.771
10758W        W79176   1.759   5.866   2.876
10759W        W79177  27.092  42.310   4.333
10760W        W79178  40.864   8.721  11.018
10761W        W79179  33.905   2.872   2.388
10762W        W79180  27.045  34.602  12.537
10763W        W79181  24.719  43.956  11.960
10764W        W79182  29.467   7.344   1.725
10765W        W79183  33.415  25.472  11.057
10766W        W79184  14.827  16.752  13.444
10767W        W79185  13.720  17.704  13.351
10768W        W79186  41.299  35.976   1.296
10769W        W79187  27.521  11.686   3.841
10770W        W79188   2.293   0.986   5.201
10771W        W79189  30.923  39.065  11.080
10772W        W79190  37.345  20.234   3.315
10773W        W79191   6.350  11.810  10.954
10774W        W79192   7.771   2.772  12.489
10775W        W79193  32.450   2.722   3.197
10776W        W79194  27.037   2.468   2.794
10777W        W79195  23.036   6.341   2.389
10778W        W79196   2.865  41.500  10.912
10779W        W79197  42.846  24.185  12.923
10780W        W79198  39.021   5.241  12.562
10781W        W79199  17.089  19.074   3.321
10782W        W79200  42.401  13.727   1.345
10783W        W79201  33.570  31.916  14.409
10784W        W79202  17.604  34.474   1.864
10785W        W79203  29.541  38.422  11.070
10786W        W79204  13.307   9.744  10.504
10787W        W79205  28.528   0.903  13.053
10788W        W79206   4.751   6.737  12.855
10789W        W79207  18.188  18.791  14.481
10790W        W79208  36.559  12.171  12.496
10791W        W79209   1.745  32.903   3.631
10792W        W79210  14.771  43.896  13.909
10793W        W79211  36.567  35.964   4.264
10794W        W79212  25.048  23.583   4.637
10795W        W79213  26.110   2.347   1.437
10796W        W79214   6.390  15.678  13.373
10797W        W79215  12.144  27.182  14.290
10798W        W79216  19.576  42.403  12.012
10799W        W79217  27.179  21.259   1.430
10800W        W79218  10.820  29.428   2.860
10801W        W79219  39.892   2.283  10.537
10802W        W79220  36.467   7.865   2.878
10803W        W79221  21.723  38.914  13.965
10804W        W79222  11.742  42.811   4.221
10805W        W79223  37.502  34.509   2.884
10806W        W79224  24.083  36.897   0.839
10807W        W79225   3.300  19.232  13.957
10808W        W79226   3.890  14.611   3.225
10809W        W79227  17.255   1.948   1.434
10810W        W79228  14.143   5.277   3.705
10811W        W79229  22.688  18.750   3.773
10812W        W79230  18.565  32.581   4.231
10813W        W79231  11.731  43.439  12.903
10814W        W79232  14.785  13.262   1.741
10815W        W79233  34.923   5.858   1.260
10816W        W79234  38.554   1.264   0.880
10817W        W79235  22.059  38.428   5.642
10818W        W79236  21.164  10.845   3.650
10819W        W79237  19.608  39.919  10.553
10820W        W79238  12.748   0.922  10.576
10821W        W79239  37.867  22.562   0.260
10822W        W79240  22.676   5.724   4.746
10823W        W79241  38.004  44.394   0.823
10824W        W79242  29.652  28.968   3.780
10825W        W79243  23.643  41.916  12.888
10826W        W79244  24.582  35.965   2.781
10827W        W79245  28.077  19.058   2.860
10828W        W79246  41.455  25.675   1.270
10829W        W79247  34.970  37.448   0.329
10830W        W79248   6.420  17.760   0.385
10831W        W79249  37.980  12.850   4.705
10832W        W79250  43.297  33.506   2.724
10833W        W79251  39.878  12.830   2.841
10834W        W79252  33.020   9.763  13.942
10835W        W79253  22.579  35.929  14.887
10836W        W79254  26.579  20.205  11.522
10837W        W79255   4.934  10.310  14.309
10838W        W79256  21.020  20.174  14.819
10839W        W79257  24.049  40.030   2.755
10840W        W79258   4.836  14.323   4.268
10841W        W79259  38.554  23.100   4.818
10842W        W79260  19.209  21.658   4.236
10843W        W79261   2.756  28.973  10.426
10844W        W79262  35.963  33.570  11.074
10845W        W79263   6.758  39.344   0.960
10846W        W79264  10.270  44.344   3.826
10847W        W79265  27.063  18.639   2.721
10848W        W79266  37.062  12.227   3.835
10849W        W79267  32.633  13.815   0.316
10850W        W79268  19.756   7.841   2.820
10851W        W79269  42.477   3.246   0.334
10852W        W79270  18.708   1.340   2.378
10853W        W79271   5.247   4.849  13.856
10854W        W79272  27.481  26.635  14.879
10855W        W79273  33.097  44.754  11.519
10856W        W79274  34.110  36.990  11.912
10857W        W79275   2.879  29.657  10.584
10858W        W79276  24.609  21.747  13.433
10859W        W79277  37.409  27.152  11.920
10860W        W79278  21.029   3.275   0.306
10861W        W79279  39.855  20.137  10.479
10862W        W79280  35.360  13.262   3.166
10863W        W79281  22.108  43.473  11.868
10864W        W79282  31.153   8.692   1.752
10865W        W79283  39.980  14.167  10.981
10866W        W79284  30.992   7.264   4.128
10867W        W79285   8.846  44.281   3.703
10868W        W79286   1.254  27.640  11.015
10869W        W79287  18.228  34.865  11.106
10870W        W79288  29.021   2.471  10.907
10871W        W79289  42.372  40.848  13.006
10872W        W79290  26.552  30.983   5.118
10873W        W79291  20.221  16.612  11.972
10874W        W79292  26.027  12.649   4.648
10875W        W79293  34.036  44.428   2.848
10876W        W79294  33.918  34.415  13.048
10877W        W79295  33.534  13.261   2.666
10878W        W79296  41.949  14.588  12.006
10879W        W79297  18.581  12.150   0.858
10880W        W79298  23.203  13.790   4.145
10881W        W79299  12.763  13.657  14.837
10882W        W79300  10.712  24.617  14.341
10883W        W79301   5.380  42.299   3.192
10884W        W79302  13.117  21.168   1.402
10885W        W79303  41.509  43.363   4.187
10886W        W79304   8.221  15.263   0.948
10887W        W79305  15.669  43.925  14.988
10888W        W79306   8.795  15.704   0.338
10889W        W79307   0.335  37.483  14.484
10890W        W79308  28.960  27.125  12.856
10891W        W79309  20.713  42.282  13.954
10892W        W79310  15.187  42.980  14.940
10893W        W79311  17.230  23.642   4.606
10894W        W79312  29.477  40.384   4.195
10895W        W79313  23.546  10.255   0.296
10896W        W79314  40.986   6.786  12.549
10897W        W79315  38.030   8.900   2.794
10898W        W79316   7.706  16.083   3.688
10899W        W79317   2.245  35.920  14.412
10900W        W79318  42.994  44.354  10.908
10901W        W79319  23.540  32.424  10.921
10902W        W79320  10.281  10.639  14.818
10903W        W79321  34.969  25.082  10.148
10904W        W79322   1.872  37.556   2.860
10905W        W79323  44.264  26.070  12.393
10906W        W79324  25.141  40.005   2.838
10907W        W79325  13.669  17.752  11.029
10908W        W79326   6.700  23.014  14.887
10909W        W79327  36.996  33.464  12.051
10910W        W79328  18.129  33.029  11.112
10911W        W79329  38.847   2.807  10.564
10912W        W79330   6.376  26.000  11.017
10913W        W79331  36.397  33.045  13.861
10914W        W79332  25.483  14.217   1.923
10915W        W79333  20.195   3.365  12.498
10916W        W79334   8.353  18.565   2.191
10917W        W79335  24.552  39.948   3.728
10918W        W79336  27.515  27.944   4.796
10919W        W79337  20.603  43.344   2.294
10920W        W79338  24.585  23.156   0.255
10921W        W79339   1.429  42.396   4.252
10922W        W79340  11.370  22.186   2.861
10923W        W79341  26.119   7.672   9.436
10924W        W79342  37.015  40.989   3.695
10925W        W79343  36.384  28.149   0.306
10926W        W79344  26.083   3.276   4.291
10927W        W79345   0.255  27.490   3.184
10928W        W79346  27.574  21.515   3.773
10929W        W79347  25.005  12.184   0.279
10930W        W79348  43.407  33.462   1.836
10931W        W79349  21.055   6.185   4.202
10932W        W79350  17.716  36.574   2.350
10933W        W79351  10.151   1.772   0.313
10934W        W79352  20.031  42.029  13.879
10935W        W79353  25.526  42.020  10.993
10936W        W79354  27.192  42.441  13.962
10937W        W79355  20.037  37.894  10.998
10938W        W79356  17.247  17.605  12.511
10939W        W79357  10.220  11.347   3.359
10940W        W79358  24.217   0.287  11.101
10941W        W79359   4.360   3.242  10.513
10942W        W79360   7.890  14.634  13.400
10943W        W79361  38.326  11.643  13.883
10944W        W79362  20.148  36.979  11.448
10945W        W79363  37.366  26.193  14.511
10946W        W79364  37.869  32.992  12.347
10947W        W79365   7.701  23.607  11.504
10948W        W79366   6.812  32.615  13.462
10949W        W79367  34.952  34.002  14.479
10950W        W79368  40.924  43.307   3.819
10951W        W79369  28.143  15.099   2.820
10952W        W79370   5.907   2.922   4.700
10953W        W79371   7.696  33.118  10.531
10954W        W79372  22.703  28.026   3.213
10955W        W79373  10.822  29.960  12.095
10956W        W79374  30.547   6.735  10.519
10957W        W79375   0.445  43.511  10.933
10958W        W79376  35.529   5.402   0.273
10959W        W79377  42.343   6.852  11.421
10960W        W79378   4.784  42.808   5.184
10961W        W79379  13.231  23.239  13.400
10962W        W79380  37.949   1.907  14.948
10963W        W79381  37.978  30.089   1.368
10964W        W79382  24.977  32.441  10.960
10965W        W79383  12.835  42.481  13.809
10966W        W79384  42.380  33.008   3.305
10967W        W79385   5.415  14.720   2.400
10968W        W79386  28.462   6.903   1.289
10969W        W79387  39.058  10.714  13.360
10970W        W79388  42.893  30.533  14.327
10971W        W79389  38.006  19.180  14.349
10972W        W79390  29.081  28.995   1.435
10973W        W79391  26.558  40.859  14.456
10974W        W79392   3.926  11.354  12.040
10975W        W79393  18.228  37.475   0.848
10976W        W79394  24.647  14.621  11.086
10977W        W79395  36.076  32.104  11.126
10978W        W79396  43.826   8.720  11.965
10979W        W79397  37.539   2.860   0.398
10980W        W79398   0.344  42.776  12.370
10981W        W79399  29.125   1.851  11.406
10982W        W79400  38.462  17.596  14.504
10983W        W79401  18.226  44.458   0.859
10984W        W79402   8.256  39.315   1.262
10985W        W79403  15.107   8.896  14.513
10986W        W79404  16.160  38.348  11.421
10987W        W79405  27.172   4.816  14.970
10988W        W79406   2.320  21.669   0.832
10989W        W79407  43.468  20.089   2.770
10990W        W79408  33.120  38.898   0.765
10991W        W79409  29.668  20.655   2.221
10992W        W79410  39.441  21.121  13.052
10993W        W79411  40.344   7.877   5.246
10994W        W79412  25.195   2.771   1.270
10995W        W79413  17.645  31.018  11.985
10996W        W79414  37.394  25.667   2.375
10997W        W79415  41.985   7.904   3.630
10998W        W79416  20.104  21.703   0.939
10999W        W79417  19.261  35.938  11.014
11000W        W79418   5.861  32.918  13.810
11001W        W79419  36.043  23.002   1.327
11002W        W79420  28.494  19.128  12.959
11003W        W79421  17.169  18.085  13.043
11004W        W79422   3.835  28.458   2.181
11005W        W79423  34.077  17.125   1.700
11006W        W79424  36.371   0.977  11.439
11007W        W79425  11.238  29.088   0.305
11008W        W79426   4.341  34.975  12.969
11009W        W79427  39.422  14.290  11.608
11010W        W79428  43.484  41.822   1.934
11011W        W79429  17.104   3.301   3.271
11012W        W79430  20.760  38.819  11.572
11013W        W79431  44.349  22.030   0.334
11014W        W79432  34.866   1.740  11.114
11015W        W79433  14.766  11.314  11.588
11016W        W79434   1.431  10.650   4.158
11017W        W79435  40.507   9.369   1.898
11018W        W79436  44.444  29.667  10.413
11019W        W79437  41.418   2.894  13.834
11020W        W79438  29.606  17.627  14.340
11021W        W79439  37.469  16.096   3.806
11022W        W79440  36.094  21.222   0.450
11023W        W79441  15.585   3.315  12.023
11024W        W79442  16.160  11.826  14.941
11025W        W79443  11.624  12.749  13.855
11026W        W79444  23.578  23.599   0.931
11027W        W79445  37.423  41.453   3.355
11028W        W79446  29.924  40.476   2.745
11029W        W79447  40.996  44.911  12.504
11030W        W79448  40.409  23.519   1.326
11031W        W79449  15.276  42.978  12.500
11032W        W79450  42.446   8.832   1.297
11033W        W79451  17.285  32.102  11.861
11034W        W79452  11.240   8.398  11.038
11035W        W79453  29.954  18.724   1.703
11036W        W79454  13.697  26.518   5.157
11037W        W79455   7.670   9.245   3.268
11038W        W79456  38.824  40.834   1.283
11039W        W79457  22.239  13.210   0.863
11040W        W79458   3.290  29.940  14.293
11041W        W79459  19.215  23.503   1.249
11042W        W79460  29.060  19.690   0.244
11043W        W79461  39.371  28.184   3.641
11044W        W79462  25.602  19.726   1.723
11045W        W79463  40.464  38.852   1.707
11046W        W79464  16.617  37.458  14.006
11047W        W79465  26.988  12.637   3.285
11048W        W79466   5.439  34.999  12.931
11049W        W79467  36.368  36.905   5.322
11050W        W79468   7.758  31.905   4.266
11051W        W79469   5.903  44.482   1.712
11052W        W79470  26.035  14.833   0.921
11053W        W79471  38.934   2.438  14.381
11054W        W79472  22.040  11.213  10.933
11055W        W79473   2.263  31.020   4.163
11056W        W79474   8.368   3.904   2.258
11057W        W79475  21.158  17.580   4.269
11058W        W79476  36.920  38.325   0.395
11059W        W79477  13.640  13.128  12.401
11060W        W79478  40.046  22.727  14.326
11061W        W79479  22.169  33.008  12.056
11062W        W79480  22.533   6.229  10.565
11063W        W79481  41.356   3.404   0.370
11064W        W79482  32.395  19.713   1.794
11065W        W79483  42.811  21.581   0.341
11066W        W79484  38.842  27.561  12.015
11067W        W79485   2.753  10.682   4.349
11068W        W79486   1.853  10.719   3.183
11069W        W79487  21.670   5.865  11.910
11070W        W79488   1.287  43.314  13.379
11071W        W79489  29.171  14.762   0.466
11072W        W79490  19.564  11.740   0.374
11073W        W79491  32.551  27.147   0.779
11074W        W79492  24.573  21.545   4.206
11075W        W79493  19.694  39.377   0.845
11076W        W79494  21.132  13.614  10.940
11077W        W79495  37.436  20.262   0.426
11078W        W79496  19.568  15.171  11.975
11079W        W79497  37.505   1.260  12.874
11080W        W79498  36.029   6.277   3.280
11081W        W79499  43.483  16.709   1.749
11082W        W79500   6.379  19.124   4.234
11083W        W79501  28.597   6.889  10.903
11084W        W79502   5.205   0.443   3.803
11085W        W79503   1.247  14.330   2.283
11086W        W79504  12.819   8.777   0.403
11087W        W79505  36.942   5.734   0.356
11088W        W79506  39.485  26.613   4.179
11089W        W79507   0.831   0.856  14.810
11090W        W79508  43.905  26.630   5.319
11091W        W79509  13.120  26.199   4.318
11092W        W79510  27.531  23.122   4.179
11093W        W79511   6.309  20.649  12.000
11094W        W79512  35.012  38.514  12.012
11095W        W79513  43.013  20.765   3.198
11096W        W79514  30.120  16.152   0.797
11097W        W79515   6.730  18.769  14.369
11098W        W79516  43.508   9.654   3.848
11099W        W79517  37.555  33.112  14.463
11100W        W79518   0.887   1.302   3.782
11101W        W79519  12.116  33.542   0.776
11102W        W79520  12.220  37.928   1.783
11103W        W79521  18.150  17.716   1.795
11104W        W79522  23.712  33.019   3.747
11105W        W79523  43.497   7.217   1.807
11106W        W79524  41.901  25.188   5.137
11107W        W79525  24.572  16.255   2.307
11108W        W79526  33.102  37.362   3.661
11109W        W79527   3.283  41.804   0.867
11110W        W79528  31.034  27.165   4.724
11111W        W79529   6.218  43.416  14.868
11112W        W79530  28.080  18.158   0.255
11113W        W79531  37.450  25.639  10.582
11114W        W79532  15.131   2.966  11.398
11115W        W79533  32.892  26.579  12.898
11116W        W79534   7.813  34.988  12.013
11117W        W79535   2.917  16.185  11.480
11118W        W79536   6.298   7.704  13.019
11119W        W79537  35.510   9.167   2.710
11120W        W79538  25.018  27.020   3.827
11121W        W79539  24.025  31.447  11.397
11122W        W79540  20.526   8.254  13.380
11123W        W79541  44.327  18.659  12.541
11124W        W79542  15.805  29.099   1.743
11125W        W79543  23.509  13.705   4.148
11126W        W79544  15.728  37.491   0.739
11127W        W79545  44.896  12.611   9.636
11128W        W79546  25.629  38.449   4.777
11129W        W79547  41.428  34.116  14.467
11130W        W79548  18.150   4.943   1.777
11131W        W79549  13.124   0.840   2.297
11132W        W79550  22.229  21.104  11.562
11133W        W79551  36.077  16.164  11.913
11134W        W79552  15.697  10.173   0.411
11135W        W79553  42.309  32.636   3.663
11136W        W79554   6.688  31.442   0.912
11137W        W79555  30.042  24.032  12.492
11138W        W79556  30.445  18.067  12.408
11139W        W79557  30.489   2.870  14.803
11140W        W79558   8.292  24.109   0.824
11141W        W79559  18.754  38.347   0.382
11142W        W79560   7.402  32.458   3.206
11143W        W79561   8.739  26.169  13.541
11144W        W79562  32.408  38.958   4.125
11145W        W79563  15.760   7.880   5.127
11146W        W79564  30.533  37.481  14.464
11147W        W79565   2.742  11.166   2.352
11148W        W79566  29.532  25.593  11.603
11149W        W79567  42.014  29.448  12.557
11150W        W79568   8.871  13.744   2.384
11151W        W79569  10.806  30.458  14.801
11152W        W79570  36.879  18.563   0.301
11153W        W79571  14.095  28.145   3.184
11154W        W79572  39.389   4.754   3.275
11155W        W79573  30.009  39.931   3.716
11156W        W79574  41.002  21.700   2.341
11157W        W79575  35.887   0.875  11.896
11158W        W79576   5.780   3.233  12.832
11159W        W79577  11.300  30.560   0.417
11160W        W79578  37.420  18.722   1.764
11161W        W79579  30.151  14.128   4.244
11162W        W79580  25.058   8.192   0.889
11163W        W79581  43.859  40.966  10.548
11164W        W79582  31.912  39.356  10.436
11165W        W79583  41.033  21.681   3.779
11166W        W79584  18.116   5.296   4.249
11167W        W79585   8.350  35.395   3.754
11168W        W79586  22.157   2.378  11.045
11169W        W79587   7.667  43.274  11.446
11170W        W79588  16.140  24.118  10.569
11171W        W79589  41.024  34.070  13.858
11172W        W79590  31.451  42.297  13.921
11173W        W79591  24.040  18.262  13.972
11174W        W79592  39.396  19.243  11.049
11175W        W79593  38.502  20.252   3.764
11176W        W79594  11.316  44.466   2.267
11177W        W79595  41.305  12.303  10.040
11178W        W79596   2.885  23.558   0.744
11179W        W79597  13.206  20.250   2.745
11180W        W79598  32.417  15.680  14.881
11181W        W79599  42.009  17.072  10.105
11182W        W79600  40.958  19.773  11.937
11183W        W79601   9.215  40.539  14.360
11184W        W79602  26.035  38.522  12.890
11185W        W79603  14.304   0.298  11.940
11186W        W79604  41.433  22.703  13.356
11187W        W79605  13.632  44.268  13.435
11188W        W79606  18.567  13.840  10.437
11189W        W79607   1.436  36.578  11.863
11190W        W79608   0.409  20.034  11.098
11191W        W79609  25.144  40.874   3.859
11192W        W79610  38.966  40.814  14.516
11193W        W79611  29.925  12.644   0.846
11194W        W79612  21.658  19.586   1.250
11195W        W79613  29.025   3.355  13.498
11196W        W79614  20.260  31.047   3.296
11197W        W79615  29.076   9.805  12.438
11198W        W79616  26.191  27.135  14.298
11199W        W79617  39.972  29.601  13.384
11200W        W79618  32.401  28.123   0.788
11201W        W79619  15.176  28.059   3.675
11202W        W79620  33.023   3.307   4.206
11203W        W79621   3.427  38.929   3.227
11204W        W79622  16.313  29.502   3.219
11205W        W79623  43.354  29.036   4.775
11206W        W79624  24.112  11.748   4.283
11207W        W79625  41.490  24.117   3.739
11208W        W79626  33.395  44.353   3.722
11209W        W79627  34.958  26.092   2.226
11210W        W79628  33.551  18.547  13.376
11211W        W79629  25.145  14.117   1.799
11212W        W79630  42.474  19.644  12.545
11213W        W79631  27.094  13.776   3.709
11214W        W79632   9.708   3.345   0.436
11215W        W79633  28.648  41.342   3.147
11216W        W79634  36.968   8.866  11.488
11217W        W79635   6.692  12.215  12.359
11218W        W79636  43.315  23.579   2.903
11219W        W79637  12.750  17.556  14.306
11220W        W79638  18.264  12.647   1.255
11221W        W79639   5.239  40.001  14.301
11222W        W79640  37.368  32.136  13.792
11223W        W79641   7.286  24.164   2.406
11224W        W79642   1.967  27.949   4.143
11225W        W79643   5.212  29.073   3.691
11226W        W79644  21.754   2.780   3.687
11227W        W79645  33.984  16.126   4.115
11228W        W79646  26.194  36.990   3.768
11229W        W79647   3.299  27.996  14.979
11230W        W79648   5.418  21.225  12.924
11231W        W79649  28.573  29.969   1.362
11232W        W79650  25.214  35.096  14.956
11233W        W79651  44.355   9.795  14.806
11234W        W79652  36.366  12.317  12.914
11235W        W79653  10.203  16.786   3.660
11236W        W79654  43.352   3.768   4.183
11237W        W79655  34.909  31.425   3.216
11238W        W79656  10.660  18.077   0.475
11239W        W79657  17.582  41.326   0.957
11240W        W79658  34.583  38.501  13.446
11241W        W79659   6.809  17.660  13.473
11242W        W79660  15.711  16.573  14.516
11243W        W79661  22.692  34.610  11.012
11244W        W79662   0.270  15.198  12.891
11245W        W79663  38.921  33.518   5.147
11246W        W79664  40.372  20.151   2.729
11247W        W79665  25.177  11.197   4.757
11248W        W79666  41.496  38.490   4.224
11249W        W79667  41.036  39.826   4.752
11250W        W79668  15.648   2.282   2.290
11251W        W79669  37.888  39.324   2.332
11252W        W79670  39.967  14.297   1.766
11253W        W79671  23.225  10.305   4.163
11254W        W79672  10.658  11.769   0.267
11255W        W79673  43.897  14.833  11.114
11256W        W79674  29.920  18.584   1.415
11257W        W79675  13.336  39.858  12.035
11258W        W79676  21.590  26.164   2.375
11259W        W79677  24.653   2.845  13.530
11260W        W79678  32.434  42.885   1.724
11261W        W79679  11.369   5.768  11.378
11262W        W79680  40.394  40.812   3.650
11263W        W79681   3.929   3.338   1.823
11264W        W79682  31.066   3.305  11.565
11265W        W79683  14.752  19.774  12.933
11266W        W79684  36.531  27.122   3.200
11267W        W79685   3.362  44.764   0.395
11268W        W79686  24.602  21.747   3.746
11269W        W79687  40.480  15.689   2.844
11270W        W79688  35.949   7.215  12.555
11271W        W79689  33.104  29.624   0.834
11272W        W79690  21.073  15.293  14.397
11273W        W79691  11.828  40.830  13.971
11274W        W79692  19.225  16.759   0.419
11275W        W79693  12.674   1.377   2.284
11276W        W79694   8.159  43.853  10.631
11277W        W79695   3.879   3.332   1.294
11278W        W79696  37.416  30.951  13.797
11279W        W79697  20.653  23.116   5.166
11280W        W79698  36.386   5.233   1.738
11281W        W79699  36.406  26.085  14.864
11282W        W79700   2.344  24.160   4.163
11283W        W79701  13.771  17.181   1.449
11284W        W79702  24.669  44.342  11.111
11285W        W79703  17.249  43.783   4.618
11286W        W79704  36.395  42.401  12.481
11287W        W79705  26.133  14.785   1.710
11288W        W79706  33.618  18.252  12.423
11289W        W79707  38.474  22.699  14.398
11290W        W79708   4.229   5.713   3.796
11291W        W79709  15.313  37.535  10.530
11292W        W79710   2.395  38.448   3.360
11293W        W79711  44.421   1.865  13.924
11294W        W79712  35.549  41.378   1.373
11295W        W79713  25.995   5.412  10.549
11296W        W79714  11.868  25.615   0.802
11297W        W79715  11.244  16.775   0.298
11298W        W79716  44.889  41.483  12.850
11299W        W79717  44.826  14.602  11.017
11300W        W79718  24.483  42.994  13.535
11301W        W79719  27.989  39.495  14.347
11302W        W79720   5.231  31.068   0.398
11303W        W79721   2.426  33.607  14.995
11304W        W79722  43.501   3.347   2.353
11305W        W79723  24.653  38.034   0.962
11306W        W79724  37.078  11.329   4.335
11307W        W79725  26.042  29.507  13.904
11308W        W79726   1.856  33.998   4.724
11309W        W79727  26.991  28.012   4.790
11310W        W79728   8.392  39.455  12.526
11311W        W79729  27.151  16.127  11.090
11312W        W79730  44.343  24.149  14.762
11313W        W79731  26.975  12.765   1.852
11314W        W79732  42.947  12.318   0.893
11315W        W79733  18.234  15.754  10.516
11316W        W79734  10.265  24.090  14.848
11317W        W79735  27.581  23.547  14.327
11318W        W79736   8.862   9.349   5.284
11319W        W79737  23.608  20.078   2.182
11320W        W79738  28.045  43.450  12.911
11321W        W79739   6.279  20.074   0.899
11322W        W79740  18.086  24.531   1.423
11323W        W79741  22.241  16.810  10.560
11324W        W79742   2.901  11.673  11.869
11325W        W79743  18.570  12.153   5.222
11326W        W79744  11.664  17.704  13.997
11327W        W79745   8.256  42.964   2.201
11328W        W79746  40.852  37.517   2.230
11329W        W79747  36.416  10.803  10.484
11330W        W79748  11.715  22.650  11.994
11331W        W79749   6.700  24.539  11.488
11332W        W79750  25.012   9.394  12.364
11333W        W79751   6.889  34.106   4.809
11334W        W79752  10.710  18.642   1.778
11335W        W79753   9.789  30.979  11.953
11336W        W79754  42.937   4.384  13.025
11337W        W79755  19.772  14.638   3.648
11338W        W79756  41.907  11.354  11.453
11339W        W79757  39.451  29.434   2.833
11340W        W79758  41.932  18.599   0.831
11341W        W79759  12.248   4.896  11.856
11342W        W79760  33.438   3.756   1.323
11343W        W79761  22.694   3.726   4.659
11344W        W79762  37.938  16.265   4.745
11345W        W79763  13.338  31.626   3.341
11346W        W79764   3.720   0.355  14.377
11347W        W79765  24.026  44.413   4.702
11348W        W79766  38.063  12.256   4.713
11349W        W79767  37.391  21.048   2.896
11350W        W79768  41.449  14.198   2.807
11351W        W79769  29.006  33.452  10.558
11352W        W79770  26.466  14.684   1.722
11353W        W79771  41.806  26.960   4.251
11354W        W79772  21.094  21.112  11.479
11355W        W79773  22.579   5.282  12.523
11356W        W79774   6.280  23.991  11.560
11357W        W79775  13.143  34.881   4.173
11358W        W79776   2.343  28.533  11.449
11359W        W79777   0.364  30.501  12.968
11360W        W79778  19.138  32.570  11.986
11361W        W79779  34.598  31.923   0.893
11362W        W79780   2.412   2.366  10.627
11363W        W79781  36.894  12.219  13.945
11364W        W79782  26.686  16.805   3.250
11365W        W79783   7.854  29.146   4.713
11366W        W79784  20.041   7.209   0.881
11367W        W79785  16.218   7.908   2.263
11368W        W79786  28.667  35.525   1.263
11369W        W79787  15.646  30.079   9.948
11370W        W79788   0.318  30.075   3.366
11371W        W79789   0.900   2.932  13.941
11372W        W79790   9.304  30.112   0.477
11373W        W79791   1.956  43.472  12.911
11374W        W79792  37.915  43.386   2.264
11375W        W79793  33.053  22.074  11.094
11376W        W79794   0.787  12.705  11.082
11377W        W79795  12.207   8.404  11.506
11378W        W79796  23.508  44.980  12.902
11379W        W79797  21.514   9.851  12.387
11380W        W79798  33.078  12.726   2.344
11381W        W79799  24.694   8.658  13.417
11382W        W79800  43.484   0.963  10.907
11383W        W79801  39.896  30.936   1.350
11384W        W79802  20.045   9.862   3.804
11385W        W79803  13.110  19.233  13.307
11386W        W79804  23.043  21.658  12.088
11387W        W79805  33.066   5.345  14.375
11388W        W79806  12.264  31.428   3.667
11389W        W79807   1.865  33.075  11.096
11390W        W79808  32.563  27.655  12.375
11391W        W79809  12.752  36.991   2.845
11392W        W79810  19.043  22.120  12.962
11393W        W79811  38.058   2.815   4.227
11394W        W79812  17.290  37.903   4.156
11395W        W79813   7.276  22.601  10.425
11396W        W79814   6.684  34.610   0.886
11397W        W79815   9.172  41.472   1.342
11398W        W79816  35.061  31.041  10.412
11399W        W79817  22.584  10.693   3.686
11400W        W79818  20.084  13.313  11.964
11401W        W79819  13.826   1.814  12.899
11402W        W79820  30.990  39.049   1.256
11403W        W79821  10.767  36.957   0.282
11404W        W79822  14.637  17.169   2.669
11405W        W79823   2.466  39.016  13.829
11406W        W79824  11.262  28.978  12.849
11407W        W79825  36.464   8.203   1.801
11408W        W79826  18.082  27.103  10.472
11409W        W79827  24.561  12.797  14.826
11410W        W79828   4.247  27.973   2.742
11411W        W79829  26.677   1.929   4.115
11412W        W79830  25.470  17.717   1.356
11413W        W79831   8.677  36.495  12.870
11414W        W79832  16.739  11.829  10.639
11415W        W79833  40.977  40.303  14.876
11416W        W79834  36.882  14.276  12.543
11417W        W79835  37.959  26.966   4.663
11418W        W79836  32.054  37.363   0.760
11419W        W79837  29.429  31.534   1.377
11420W        W79838  12.811  13.246   4.182
11421W        W79839  42.303  35.874   3.755
11422W        W79840  15.086   4.707   2.373
11423W        W79841  18.168  24.677  14.878
11424W        W79842  21.167  17.634  12.420
11425W        W79843  27.979  22.609  11.549
11426W        W79844   3.216  33.394  13.922
11427W        W79845   5.255  25.590  10.921
11428W        W79846   2.889  15.241   4.803
11429W        W79847  14.596  18.285  13.002
11430W        W79848  22.006  23.527   1.318
11431W        W79849  21.019  24.089  11.397
11432W        W79850   7.815  31.624   1.338
11433W        W79851   7.263  35.509   2.836
11434W        W79852  14.606  27.008   2.677
11435W        W79853   1.892  41.792   4.725
11436W        W79854  34.026   2.311  12.363
11437W        W79855  34.983  14.112  10.034
11438W        W79856  24.030   2.948  13.975
11439W        W79857   0.783  23.086  11.092
11440W        W79858  32.516  12.805  13.013
11441W        W79859  38.012  15.086   2.685
11442W        W79860  10.767  34.906   1.328
11443W        W79861  19.183  32.924  13.984
11444W        W79862  26.134  34.930   1.383
11445W        W79863   1.773  39.371   3.802
11446W        W79864  11.228   6.321   0.267
11447W        W79865  25.181   9.826   4.645
11448W        W79866  43.953   8.834  14.426
11449W        W79867  39.836  35.571  12.548
11450W        W79868  16.730  41.840   2.395
11451W        W79869  19.233  17.273  12.463
11452W        W79870  40.415   0.800   2.756
11453W        W79871  21.111  28.442   2.250
11454W        W79872  35.962  15.169   1.928
11455W        W79873  28.495  14.309   4.663
11456W        W79874   0.344  31.598  11.071
11457W        W79875  10.345  12.714  13.032
11458W        W79876  40.479  34.512   1.428
11459W        W79877  18.295  18.544   2.682
11460W        W79878  39.814  14.333   3.781
11461W        W79879  28.034  31.512   4.771
11462W        W79880  22.009  40.391   4.648
11463W        W79881  24.711  30.448   2.250
11464W        W79882  35.962  10.645  13.474
11465W        W79883  15.084  16.702   3.653
11466W        W79884  41.324  39.830   5.290
11467W        W79885   6.404  14.120  12.540
11468W        W79886  16.650  10.638  11.438
11469W        W79887  17.738   6.230  12.449
11470W        W79888  34.113  21.135   2.377
11471W        W79889  43.801  44.870   2.760
11472W        W79890  27.950  24.128  13.832
11473W        W79891  13.186   1.841  12.080
11474W        W79892  26.134  34.426   3.792
11475W        W79893   3.446   7.219   0.303
11476W        W79894  35.908  11.689  11.535
11477W        W79895  11.720  20.144   4.693
11478W        W79896   6.277  28.448   0.895
11479W        W79897  29.635   7.186  14.946
11480W        W79898   7.892  16.170  10.636
11481W        W79899  14.239   8.329   4.650
11482W        W79900  19.682  22.711  10.971
11483W        W79901   3.904  22.040   2.863
11484W        W79902  31.924  24.003  13.379
11485W        W79903   3.361  29.996   4.703
11486W        W79904  43.288  15.582  12.033
11487W        W79905  13.217   5.194  14.886
11488W        W79906   6.383  21.227  13.816
11489W        W79907  26.070  35.902  14.403
11490W        W79908  39.354   7.339   1.259
11491W        W79909  43.415  34.590   4.764
11492W        W79910   0.487  10.166  13.983
11493W        W79911  41.945  13.178  14.887
11494W        W79912  13.226  19.226  13.920
11495W        W79913  28.170   7.826   1.849
11496W        W79914  12.213  18.151   3.179
11497W        W79915   0.356  14.175  11.471
11498W        W79916  40.495   0.438  11.401
11499W        W79917   2.822  39.357   2.314
11500W        W79918  23.039  18.552  11.445
11501W        W79919  18.106  34.379   2.239
11502W        W79920  32.573  21.064   2.306
11503W        W79921   7.211  24.549   0.431
11504W        W79922  34.558  10.848   4.749
11505W        W79923  12.176  40.964  11.551
11506W        W79924  11.200  30.417  13.489
11507W        W79925  44.969  13.658  12.558
11508W        W79926  44.796  36.862   0.960
11509W        W79927  21.059  37.972  11.855
11510W        W79928  33.572  25.476  10.463
11511W        W79929  34.118  37.345  10.620
11512W        W79930  31.644  40.324   1.374
11513W        W79931  11.346  27.496  11.922
11514W        W79932  31.152  33.935  14.760
11515W        W79933  28.955  43.297  11.054
11516W        W79934  38.904  22.733   5.138
11517W        W79935   5.850  38.848  12.057
11518W        W79936  40.317  36.494   3.710
11519W        W79937  39.341   4.381   1.411
11520W        W79938   2.769  10.837   2.322
11521W        W79939  25.059   0.883   4.148
11522W        W79940  12.305  22.169  13.461
11523W        W79941  26.030  15.718   4.125
11524W        W79942  35.364  40.420  12.457
11525W        W79943  25.612  29.484  14.361
11526W        W79944  11.849   3.428   2.356
11527W        W79945  32.122   2.361  14.835
11528W        W79946  23.058  28.119  11.920
11529W        W79947  30.958   4.222   0.373
11530W        W79948  17.702   3.313  13.366
11531W        W79949  43.490  37.399  14.968
11532W        W79950  35.393  16.221  10.529
11533W        W79951  35.979  22.613  11.413
11534W        W79952  34.072  13.333   1.214
11535W        W79953  18.772   8.382  14.344
11536W        W79954  29.651  15.663  14.812
11537W        W79955   2.846  42.022  11.445
11538W        W79956  11.335  14.142   3.680
11539W        W79957  36.963   2.869   1.373
11540W        W79958  19.179  13.171   5.146
11541W        W79959  41.814  38.950   5.793
11542W        W79960   0.751  18.764   2.695
11543W        W79961  42.024  23.096  13.478
11544W        W79962   9.248  29.534  14.924
11545W        W79963  19.597  35.365   4.639
11546W        W79964  34.496  10.236  14.516
11547W        W79965  43.406   7.414  12.427
11548W        W79966  12.139  44.825   2.667
11549W        W79967  21.081  24.070   3.768
11550W        W79968  35.980   8.381   3.321
11551W        W79969   7.233   1.396   0.882
11552W        W79970  10.682  27.511  12.067
11553W        W79971   2.753   6.387   4.156
11554W        W79972   1.820  43.449   2.275
11555W        W79973  32.974  13.235   2.670
11556W        W79974  29.459   0.464   4.716
11557W        W79975  34.594  25.072  14.292
11558W        W79976  21.530  27.594  14.372
11559W        W79977  41.479  44.919   2.190
11560W        W79978  13.236  13.320  13.046
11561W        W79979  41.339  19.721  12.447
11562W        W79980  44.385  27.536   4.236
11563W        W79981  22.218  11.367  10.485
11564W        W79982  11.730  35.384   4.167
11565W        W79983  22.125  19.751   3.369
11566W        W79984  36.900  30.155  13.802
11567W        W79985  32.471   1.859  14.909
11568W        W79986  28.030  35.476  10.981
11569W        W79987  24.561  34.407  11.598
11570W        W79988  29.509  25.102  12.831
11571W        W79989  38.478  21.242   2.738
11572W        W79990  28.145  42.299   3.674
11573W        W79991  36.055  36.426   4.708
11574W        W79992   8.814  37.504  10.952
11575W        W79993  37.053  41.958   0.726
11576W        W79994  28.489  23.730   2.321
11577W        W79995  26.183  27.577   3.246
11578W        W79996  12.319   0.939  12.410
11579W        W79997  24.125   2.951  12.514
11580W        W79998  19.542   3.404  10.985
11581W        W79999  44.007  39.440  12.408
11582W        W80000  28.614  14.115   2.396
11583W        W80001   0.340  22.529  13.475
11584W        W80002  14.670  14.291   3.633
11585W        W80003  28.570  34.019  11.877
11586W        W80004  17.737  12.848   4.764
11587W        W80005   7.319  31.562   3.759
11588W        W80006  30.951  14.169   0.761
11589W        W80007  17.758  37.977   3.846
11590W        W80008  32.138  17.614  13.008
11591W        W80009  43.850  36.849   0.448
11592W        W80010  16.644   6.856   5.615
11593W        W80011   2.405  24.693   0.332
11594W        W80012  27.167   3.340   5.144
11595W        W80013  37.020  30.936  10.416
11596W        W80014  18.296  17.179   2.771
11597W        W80015  27.128  11.137   2.371
11598W        W80016   6.307  27.122  10.566
11599W        W80017  10.219   8.782   2.785
11600W        W80018  37.400   1.420   1.733
11601W        W80019  17.587  24.143  13.424
11602W        W80020  24.189  18.244  10.641
11603W        W80021  37.516   9.370   2.801
11604W        W80022  14.212  28.517  12.849
11605W        W80023  27.456  41.487  11.375
11606W        W80024   5.846  28.978   4.318
11607W        W80025  11.692   4.700   0.823
11608W        W80026  44.758  24.140  12.034
11609W        W80027  41.501  12.790  11.561
11610W        W80028  31.083  22.669  12.358
11611W        W80029  30.485  34.024  12.514
11612W        W80030  29.029  25.015  10.486
11613W        W80031  34.099  27.459  14.877
11614W        W80032   1.815   2.308   4.608
11615W        W80033  21.133  16.680   1.913
11616W        W80034  31.943  38.350  11.969
11617W        W80035  28.156  44.980   3.694
11618W        W80036  41.907  44.779   3.255
11619W        W80037  32.437   2.945  13.895
11620W        W80038   9.287   6.901   3.700
11621W        W80039   9.360  38.848  13.987
11622W        W80040   6.825   4.356  10.559
11623W        W80041  39.061  27.197   3.355
11624W        W80042  34.047   2.283   3.829
11625W        W80043   0.308  12.796   4.203
11626W        W80044  39.520  42.781   3.289
11627W        W80045   6.785   0.367  13.848
11628W        W80046   6.750  21.649   4.836
11629W        W80047  19.219  43.014   3.237
11630W        W80048  31.084  41.019  14.891
11631W        W80049   4.295  39.477  12.887
11632W        W80050  34.450   0.361  14.299
11633W        W80051  14.818  24.700   0.741
11634W        W80052  13.737   1.910   2.356
11635W        W80053  18.083  10.292   1.422
11636W        W80054  13.784   1.938  14.490
11637W        W80055  29.450  35.897   1.927
11638W        W80056   5.328  42.294  14.955
11639W        W80057  39.321  43.488   4.812
11640W        W80058  42.507  13.609   2.741
11641W        W80059  17.749  22.601   4.640
11642W        W80060  26.538  41.424  11.996
11643W        W80061  41.522  27.667  10.449
11644W        W80062  18.675  25.491   1.783
11645W        W80063   2.780  41.833  11.119
11646W        W80064  26.168  28.132   1.703
11647W        W80065  22.221  25.162  11.903
11648W        W80066  28.115  26.464  12.468
11649W        W80067  11.663   8.394  14.025
11650W        W80068  12.184   2.366   3.853
11651W        W80069  24.695  15.644  11.946
11652W        W80070  20.664  19.100  13.313
11653W        W80071  18.723  36.078  11.904
11654W        W80072  33.047  38.525  14.447
11655W        W80073  38.553   1.478  11.570
11656W        W80074  31.575  17.199  14.000
11657W        W80075  22.677  34.975   3.779
11658W        W80076  37.890  26.594  14.313
11659W        W80077  39.339   9.753  14.994
11660W        W80078  11.827   5.410   3.870
11661W        W80079  15.258  43.988  12.862
11662W        W80080  32.068  22.191  14.469
11663W        W80081   4.889  10.379   0.773
11664W        W80082  38.500  10.742   2.355
11665W        W80083   3.248  25.684   0.896
11666W        W80084   8.341  24.080  10.987
11667W        W80085  13.148   2.749  12.060
11668W        W80086   7.905  34.952  14.509
11669W        W80087  38.978  24.698   0.317
11670W        W80088  42.507  10.264   2.201
11671W        W80089  18.547   2.396   0.805
11672W        W80090  39.550  31.615  11.466
11673W        W80091  20.089  32.110  14.900
11674W        W80092  44.455  22.714  11.492
11675W        W80093  23.025  41.524   5.649
11676W        W80094  43.324  24.166  10.116
11677W        W80095   4.443   6.378   2.186
11678W        W80096  15.717  24.705  14.953
11679W        W80097  15.209  25.504  12.449
11680W        W80098  32.579  31.640  11.999
11681W        W80099  44.281   3.215   4.686
11682W        W80100  15.197  32.415  13.995
11683W        W80101  12.330  41.315  12.847
11684W        W80102  10.163  40.484  12.052
11685W        W80103   2.450  11.331   0.271
11686W        W80104  20.538   3.782  14.417
11687W        W80105  35.555   1.254   2.400
11688W        W80106  40.366   2.834   0.768
11689W        W80107  20.708  13.796   2.319
11690W        W80108  15.197  33.027   3.335
11691W        W80109  24.532  31.539  14.373
11692W        W80110  30.138  40.002   3.278
11693W        W80111  21.137   0.262  13.921
11694W        W80112  29.429  23.058   4.130
11695W        W80113  40.912  17.568  13.317
11696W        W80114  32.485   6.814  12.932
11697W        W80115  29.579  39.560  11.042
11698W        W80116   7.776  24.502   3.204
11699W        W80117  36.353  15.668   4.779
11700W        W80118   7.862  42.841   0.745
11701W        W80119   6.782  11.215   4.799
11702W        W80120   7.286  11.227  11.971
11703W        W80121  28.179   2.307  11.071
11704W        W80122   1.810  32.551   4.128
11705W        W80123  17.794  39.522  13.978
11706W        W80124  34.883  16.312   3.656
11707W        W80125  16.696  25.002  10.482
11708W        W80126  40.851  22.656   0.827
11709W        W80127  28.617   1.425   4.221
11710W        W80128  28.459  15.286  12.079
11711W        W80129   2.850  20.581   4.785
11712W        W80130  32.022  42.424  14.859
11713W        W80131  16.799  44.008  13.806
11714W        W80132  22.592   8.880   5.218
11715W        W80133   5.372   3.819  10.458
11716W        W80134   6.907  34.519  11.381
11717W        W80135  12.846  24.520   0.428
11718W        W80136  37.498  30.552   2.342
11719W        W80137  39.020  30.123   1.869
11720W        W80138  42.461  19.643  13.928
11721W        W80139  18.553   5.895   3.253
11722W        W80140   2.450   6.738   0.908
11723W        W80141  16.600   3.853   2.705
11724W        W80142  14.267  28.009  11.926
11725W        W80143  41.398  41.043  14.946
11726W        W80144  23.692   9.848   0.769
11727W        W80145  32.422  28.488  13.833
11728W        W80146   1.445  24.207   3.377
11729W        W80147  14.617  41.502  13.990
11730W        W80148  33.420  22.747  13.333
11731W        W80149  31.088   2.275   3.703
11732W        W80150  32.603  17.211   2.703
11733W        W80151  41.836  43.015  13.017
11734W        W80152  37.862  22.597  13.947
11735W        W80153  39.929   5.346   2.760
11736W        W80154  14.173  25.059  11.551
11737W        W80155  20.675  43.303  13.860
11738W        W80156  31.516   8.771   2.362
11739W        W80157  19.058  44.385   1.251
11740W        W80158   6.759   8.203  10.608
11741W        W80159  38.023  44.939  10.481
11742W        W80160  23.219   1.926   3.222
11743W        W80161  32.022  28.645  13.920
11744W        W80162  14.157  22.111  13.502
11745W        W80163  37.053  12.633  12.471
11746W        W80164  19.148  11.846   4.700
11747W        W80165   8.277  26.206  14.335
11748W        W80166  23.646  42.508  14.020
11749W        W80167  22.029  13.807  12.497
11750W        W80168  20.647  16.568  14.393
11751W        W80169  33.382  36.496  12.931
11752W        W80170  22.540  31.024   1.380
11753W        W80171  37.856  37.979  11.066
11754W        W80172  40.985   3.338  11.425
11755W        W80173  42.013  22.718  12.906
11756W        W80174  35.916  10.139   0.819
11757W        W80175  15.246  19.129  13.006
11758W        W80176  32.437  26.978  11.104
11759W        W80177   0.341  37.966   2.708
11760W        W80178  16.594  22.190  12.471
11761W        W80179  29.922  39.960  13.861
11762W        W80180  11.808  24.624  13.341
11763W        W80181  27.111  19.108   4.162
11764W        W80182  13.710  41.327  12.496
11765W        W80183  41.415   6.184  12.826
11766W        W80184  39.481  41.042  13.031
11767W        W80185  14.717  16.726   2.775
11768W        W80186   2.871  12.188   2.872
11769W        W80187  32.517  16.277  11.398
11770W        W80188   2.879  32.928  10.954
11771W        W80189  35.896  22.071  10.620
11772W        W80190  29.939  44.482  12.919
11773W        W80191  14.173   4.361   2.224
11774W        W80192  17.767  36.435  11.042
11775W        W80193  33.476  22.174   0.361
11776W        W80194  34.913  37.343  12.512
11777W        W80195  18.757  14.162   2.214
11778W        W80196   0.864   5.889  12.997
11779W        W80197   3.842  32.050   4.699
11780W        W80198  21.156  18.210   2.418
11781W        W80199  38.375  17.739   3.760
11782W        W80200  37.946  39.558  13.885
11783W        W80201  36.009  12.195   4.315
11784W        W80202  35.991   8.299   0.877
11785W        W80203  37.014  40.802   0.731
11786W        W80204  27.117  25.581   4.355
11787W        W80205  39.874   2.727   3.208
11788W        W80206   8.731   9.292  11.990
11789W        W80207  29.045  31.035  14.301
11790W        W80208  38.984   8.858  14.355
11791W        W80209  20.732  29.618  12.990
11792W        W80210  26.004  27.680  14.493
11793W        W80211  39.009  20.093   4.757
11794W        W80212   9.885  21.715   1.894
11795W        W80213  17.718  33.890   0.354
11796W        W80214   8.278  10.357   0.317
11797W        W80215  26.026  12.758   2.284
11798W        W80216  15.135  24.203  13.515
11799W        W80217  30.053  14.609  11.564
11800W        W80218   6.322   8.365  12.925
11801W        W80219  26.203  16.191   1.446
11802W        W80220  42.880   0.491  10.123
11803W        W80221  30.148  20.078   3.291
11804W        W80222  13.620  12.201  11.060
11805W        W80223  43.327   1.281   4.625
11806W        W80224  22.245  25.523  13.346
11807W        W80225  12.336  20.748  10.955
11808W        W80226  11.136  42.018   4.270
11809W        W80227  20.224   4.276  12.026
11810W        W80228  37.448  12.802   0.345
11811W        W80229  42.318   9.730  13.807
11812W        W80230  33.093  15.642   0.367
11813W        W80231  17.146   4.769   1.910
11814W        W80232  42.818   2.896   3.340
11815W        W80233  27.639  10.351   4.730
11816W        W80234  44.865  12.835  10.640
11817W        W80235  23.139  26.120  14.865
11818W        W80236  40.385   1.820   1.301
11819W        W80237  22.539  23.538   3.381
11820W        W80238  15.598   6.267  12.035
11821W        W80239  10.260  32.579   1.411
11822W        W80240   2.794   4.425   2.409
11823W        W80241  15.248   7.259  13.862
11824W        W80242   0.393  33.409  10.604
11825W        W80243  39.541  34.405  11.476
11826W        W80244   8.792  35.406  12.021
11827W        W80245   7.373  15.653   1.331
11828W        W80246  41.400  22.699   0.920
11829W        W80247  34.112  22.203  12.075
11830W        W80248  42.302   8.299   3.352
11831W        W80249  44.427  36.403  13.528
11832W        W80250  32.125   9.217   4.824
11833W        W80251  17.563   1.775   3.149
11834W        W80252  27.978  37.860  10.546
11835W        W80253  32.999  27.956   0.311
11836W        W80254  31.924  34.417   1.830
11837W        W80255   3.324  24.576   3.761
11838W        W80256  44.766   6.259   4.307
11839W        W80257   8.335   0.958  13.475
11840W        W80258   8.313  23.712   4.690
11841W        W80259  33.519  39.898  10.959
11842W        W80260  27.669   4.285  10.558
11843W        W80261  16.129  28.662  11.069
11844W        W80262   5.743   5.831   2.230
11845W        W80263  38.928  11.183  10.539
11846W        W80264  44.387  32.501   2.678
11847W        W80265   7.375  28.997  10.618
11848W        W80266   6.357   9.246   0.928
11849W        W80267  17.109   8.330  12.366
11850W        W80268  19.664  33.043  10.426
11851W        W80269  38.515  20.137   4.603
11852W        W80270   4.267  34.596  14.982
11853W        W80271   8.200  16.123   2.775
11854W        W80272  39.461  28.186  12.996
11855W        W80273  13.794  42.489   0.846
11856W        W80274  35.565  12.848   4.836
11857W        W80275  27.483  43.365   2.303
11858W        W80276  38.948  16.721   0.373
11859W        W80277  44.327  43.452  12.561
11860W        W80278  19.051  43.289  10.625
11861W        W80279  34.890  25.070   2.670
11862W        W80280  36.942  13.205  11.494
11863W        W80281   2.311  43.939   2.689
11864W        W80282  24.225  17.185  10.074
11865W        W80283  24.563  19.723   3.649
11866W        W80284  22.146   1.313  13.454
11867W        W80285  27.560   9.370  12.826
11868W        W80286  41.040   2.286  10.614
11869W        W80287  29.564  33.495   3.660
11870W        W80288  21.188  22.693   4.136
11871W        W80289  11.680  23.003   3.781
11872W        W80290  22.076  11.284  12.955
11873W        W80291  44.400  10.862   1.774
11874W        W80292  21.544  14.748  11.488
11875W        W80293  32.421  24.151   0.372
11876W        W80294  38.887  17.662  13.336
11877W        W80295  36.922  10.158   2.291
11878W        W80296  28.145  37.948   1.397
11879W        W80297  44.785  42.296  13.428
11880W        W80298  24.036  41.315  12.395
11881W        W80299  12.204  44.347  10.637
11882W        W80300  39.424   2.453   0.414
11883W        W80301   9.357  16.718  10.476
11884W        W80302  38.455  43.375   1.250
11885W        W80303  36.925  37.889  13.051
11886W        W80304  36.003  40.488  10.051
11887W        W80305  35.567  31.917  10.580
11888W        W80306  17.165   6.887   3.692
11889W        W80307  19.558  15.624  14.345
11890W        W80308  36.977  26.157  14.374
11891W        W80309  38.402  32.410   0.783
11892W        W80310  28.491  35.108  10.444
11893W        W80311   7.217  34.407  13.818
11894W        W80312  23.511  27.107   4.704
11895W        W80313  17.226  34.026   4.781
11896W        W80314  41.947  19.041   3.146
11897W        W80315  14.740  24.136  11.989
11898W        W80316  29.595   7.822  12.417
11899W        W80317   3.255  41.030  11.602
11900W        W80318  13.110  27.622  12.409
11901W        W80319  16.685  27.047  13.998
11902W        W80320  21.217   3.285   3.229
11903W        W80321  15.747  38.938   4.812
11904W        W80322   4.243   0.831  12.532
11905W        W80323  20.590  12.162  13.522
11906W        W80324  44.309  16.723  14.800
11907W        W80325  36.878  17.559  11.951
11908W        W80326  16.115  31.458  11.557
11909W        W80327  18.135  29.103  12.851
11910W        W80328  20.598  25.088  14.990
11911W        W80329  43.484  44.292   4.825
11912W        W80330   8.780  31.034  13.361
11913W        W80331  31.542  11.215   3.275
11914W        W80332  18.581  30.461  14.789
11915W        W80333  23.211  13.640  12.361
11916W        W80334  14.655  22.719   1.723
11917W        W80335  35.931  11.280  13.506
11918W        W80336  20.591  35.510   2.784
11919W        W80337  33.410   2.815  13.330
11920W        W80338  19.182   8.732   4.132
11921W        W80339  36.050  39.844  14.429
11922W        W80340   3.722  35.383  11.435
11923W        W80341   9.748  28.557  13.326
11924W        W80342  40.419  15.219  13.329
11925W        W80343  35.003  11.784   0.461
11926W        W80344  14.644  30.490  12.922
11927W        W80345   1.477  12.342   2.274
11928W        W80346   1.360  33.494  11.538
11929W        W80347  34.472  29.617  11.384
11930W        W80348  34.569  23.025  12.436
11931W        W80349  33.547  31.578   1.715
11932W        W80350   7.705  27.992   5.297
11933W        W80351   8.251  27.682  12.899
11934W        W80352  32.465   3.282   3.208
11935W        W80353  19.150  30.565   1.699
11936W        W80354  17.300  21.650  12.361
11937W        W80355  30.444  19.652  11.117
11938W        W80356  20.062  20.590  13.823
11939W        W80357  33.910  38.882  12.358
11940W        W80358  36.898   0.780  14.796
11941W        W80359  14.701   7.384   4.811
11942W        W80360  22.536  31.509   4.631
11943W        W80361  28.984  10.688  13.044
11944W        W80362  12.807  11.342   0.922
11945W        W80363  24.203  41.818   1.314
11946W        W80364  27.691   3.856   0.759
11947W        W80365   4.825  15.275  12.860
11948W        W80366  44.958  20.534  13.792
11949W        W80367   7.326   8.777  13.948
11950W        W80368  24.200  20.750  11.417
11951W        W80369   8.802  23.632   4.295
11952W        W80370  22.140  27.067  10.943
11953W        W80371  24.004   6.841  14.815
11954W        W80372   7.845  35.455   4.743
11955W        W80373  16.652   5.920   3.723
11956W        W80374   6.416  37.018   3.831
11957W        W80375  26.181  15.180   1.748
11958W        W80376  43.855  22.105   3.341
11959W        W80377  32.522  26.546  12.529
11960W        W80378   9.751  26.991   2.231
11961W        W80379  14.740  44.267   3.679
11962W        W80380  30.583  17.586   4.259
11963W        W80381  37.016  38.452   4.714
11964W        W80382   9.266   8.885  11.432
11965W        W80383  20.162  33.033  12.912
11966W        W80384  11.747  41.858   1.281
11967W        W80385  27.570  16.207   3.233
11968W        W80386  23.223   4.330   3.756
11969W        W80387  39.454  33.925  11.548
11970W        W80388  32.562  27.542   3.369
11971W        W80389  17.298  26.152   0.899
11972W        W80390  22.516  35.997   9.961
11973W        W80391  16.310  38.558  13.064
11974W        W80392  14.117  23.681   4.211
11975W        W80393  36.053  30.556  14.512
11976W        W80394  24.107  34.958   2.768
11977W        W80395  36.910  32.131   1.429
11978W        W80396  28.182  12.262   0.445
11979W        W80397  10.178   6.238   3.179
11980W        W80398  34.392   9.149  10.927
11981W        W80399  38.388  25.081   2.687
11982W        W80400   8.662  25.522   1.265
11983W        W80401  39.917  31.407   4.721
11984W        W80402  14.607  42.303   3.723
11985W        W80403  39.898  44.267  11.589
11986W        W80404  13.721  43.994  13.490
11987W        W80405  22.738  23.210   1.739
11988W        W80406  11.701  21.512   1.251
11989W        W80407  39.558  22.661  12.918
11990W        W80408  33.541  19.722  13.860
11991W        W80409  38.378  22.038  14.408
11992W        W80410  36.987  42.786  14.993
11993W        W80411  33.588   7.875   1.230
11994W        W80412  29.660  10.845  13.031
11995W        W80413  31.576  19.541   3.870
11996W        W80414  22.089   6.703  14.995
11997W        W80415   0.840  41.812   1.376
11998W        W80416   3.789   6.268  13.802
11999W        W80417   0.443  19.597  14.961
12000W        W80418   4.740   3.271   0.747
12001W        W80419  39.960   1.757   1.825
12002W        W80420  32.556  14.819  13.518
12003W        W80421  16.151   6.250   1.902
12004W        W80422  22.174   4.388  11.097
12005W        W80423   9.315  34.985  14.345
12006W        W80424  25.186  15.728   0.320
12007W        W80425  32.466   0.957  12.422
12008W        W80426   4.891  29.919   0.381
12009W        W80427  34.019   4.371  10.428
12010W        W80428  31.084  28.070   2.854
12011W        W80429  39.951  31.509   2.343
12012W        W80430  17.165  20.554   2.225
12013W        W80431   2.791   5.738   0.899
12014W        W80432  34.398  15.687  13.342
12015W        W80433  17.172   4.854  10.584
12016W        W80434  21.637  26.690  14.284
12017W        W80435  31.522  14.648   1.266
12018W        W80436  36.453   2.725   0.800
12019W        W80437  10.837   1.470   0.410
12020W        W80438   5.260  16.793   2.802
12021W        W80439  44.368  12.811   5.786
12022W        W80440  18.648   7.413   2.789
12023W        W80441   4.762  29.941   2.392
12024W        W80442  12.711   2.796  14.854
12025W        W80443   6.840  16.773  11.029
12026W        W80444  18.126  23.582   4.834
12027W        W80445  38.470  39.049   3.164
12028W        W80446   4.838  33.523  10.989
12029W        W80447  10.853  15.638   3.640
12030W        W80448   3.954  31.526   2.407
12031W        W80449  33.497  23.200   4.302
12032W        W80450   3.436  28.166   3.278
12033W        W80451  27.612   0.944   2.301
12034W        W80452  37.433   1.931  14.326
12035W        W80453  32.922  16.189   2.231
12036W        W80454  15.703  38.351  10.431
12037W        W80455  44.486   8.655   3.798
12038W        W80456   9.323  35.434   1.902
12039W        W80457  19.212  39.866   2.354
12040W        W80458  12.649  17.227  13.977
12041W        W80459  24.522  31.993  11.592
12042W        W80460  37.070  11.732   1.796
12043W        W80461   8.685  26.694   5.272
12044W        W80462  18.728  12.146  14.769
12045W        W80463  37.484  15.765  10.119
12046W        W80464  37.433  10.305  11.099
12047W        W80465  27.026  37.909  13.967
12048W        W80466  42.503  43.344   4.638
12049W        W80467   6.222   5.821   0.387
12050W        W80468  11.178  22.125  13.495
12051W        W80469  36.476  30.070   2.739
12052W        W80470  39.957  15.305   0.386
12053W        W80471  13.237  22.060   0.765
12054W        W80472   2.471  33.409  13.325
12055W        W80473   6.845  43.904  11.578
12056W        W80474  15.612   7.262   1.343
12057W        W80475  36.378  39.488  11.900
12058W        W80476  15.264  24.122   2.405
12059W        W80477  31.633  37.937  12.445
12060W        W80478  21.512   1.814  14.449
12061W        W80479   2.462  30.649   4.664
12062W        W80480  28.081  42.479  10.897
12063W        W80481  14.255   0.957   1.378
12064W        W80482  27.016  31.085  10.544
12065W        W80483   1.469  15.117  11.400
12066W        W80484  27.034  42.902  14.014
12067W        W80485  20.642  39.055  14.394
12068W        W80486  15.587  39.347  11.123
12069W        W80487  13.683  38.435   2.267
12070W        W80488  29.967  30.415   2.185
12071W        W80489  15.155  26.515   3.372
12072W        W80490  27.546  37.075  12.066
12073W        W80491  32.424   0.871  11.988
12074W        W80492  36.406  13.137   2.705
12075W        W80493  31.489  28.448  13.498
12076W        W80494   8.655   2.364  14.479
12077W        W80495   6.367  19.546  10.553
12078W        W80496  11.155  13.666   2.280
12079W        W80497  21.046   9.667  14.823
12080W        W80498  31.900  42.838  10.024
12081W        W80499  19.589  19.068  12.439
12082W        W80500  24.074  37.482  13.951
12083W        W80501  30.092  10.172   3.183
12084W        W80502  40.876  14.709  13.875
12085W        W80503   6.422  37.459  13.863
12086W        W80504  17.737  42.832  10.410
12087W        W80505  23.603  41.033   2.681
12088W        W80506  17.574  29.137   0.401
12089W        W80507  22.553  38.341  12.346
12090W        W80508  31.594   8.363   3.204
12091W        W80509  30.158  10.713  13.902
12092W        W80510  30.979  16.210   3.742
12093W        W80511  38.355  36.082   4.788
12094W        W80512  30.617  35.555   2.253
12095W        W80513  16.091  36.368  12.833
12096W        W80514  32.139  41.434  14.817
12097W        W80515  10.841  24.650  11.401
12098W        W80516   1.282  33.411  10.560
12099W        W80517  28.674  33.431  14.941
12100W        W80518  22.031   9.679   3.721
12101W        W80519  38.891  22.578  10.467
12102W        W80520   3.432  29.114  14.417
12103W        W80521  26.153  24.001   1.257
12104W        W80522  10.667  42.932  10.453
12105W        W80523   3.793  21.581  14.908
12106W        W80524  37.488  40.418  10.941
12107W        W80525   2.765  42.781   0.392
12108W        W80526  40.968   3.930  14.472
12109W        W80527  21.221  43.799  11.971
12110W        W80528  28.999   5.717  10.538
12111W        W80529  38.346  39.429  14.401
12112W        W80530  20.031  42.957  14.400
12113W        W80531  15.689  14.760   0.786
12114W        W80532  38.887  33.019  13.434
12115W        W80533  32.429  28.590  14.896
12116W        W80534  23.715   8.726  11.087
12117W        W80535  34.945  19.774  13.875
12118W        W80536  16.775  35.892  11.127
12119W        W80537   1.815  33.572  14.982
12120W        W80538  11.359  43.379  12.998
12121W        W80539  20.108  15.816   4.134
12122W        W80540   8.780  43.322   3.836
12123W        W80541  10.688   0.758  10.000
12124W        W80542  23.074  33.973   3.795
12125W        W80543  12.758   7.330  11.003
12126W        W80544  28.629  30.585   2.810
12127W        W80545  25.618   8.869   0.315
12128W        W80546  15.215   0.492  12.895
12129W        W80547  44.000  19.616   0.423
12130W        W80548  29.590  10.293  12.479
12131W        W80549   8.859  44.340   0.281
12132W        W80550   3.431  12.262   0.866
12133W        W80551   1.324  40.393   4.128
12134W        W80552  30.991  12.137  12.497
12135W        W80553  36.407  27.959   5.243
12136W        W80554  16.162  39.049  12.083
12137W        W80555  15.612  42.983   3.670
12138W        W80556  32.062  14.636   5.162
12139W        W80557   1.753  23.044   1.755
12140W        W80558  29.499  17.096  14.917
12141W        W80559   0.433  40.039  10.900
12142W        W80560  30.441  43.881   4.696
12143W        W80561  12.247   3.787   1.392
12144W        W80562  44.469  29.012   2.716
12145W        W80563  25.489  35.509   2.706
12146W        W80564  11.732  35.456   1.330
12147W        W80565  20.202   9.792  11.556
12148W        W80566  17.609  33.933   1.252
12149W        W80567  39.420  24.670   4.293
12150W        W80568  15.695  38.381  12.439
12151W        W80569  12.647  24.725  10.617
12152W        W80570  42.015   2.358   1.884
12153W        W80571  39.450  32.025  10.999
12154W        W80572  17.083   8.803  10.942
12155W        W80573   1.966  34.104   0.811
12156W        W80574   5.216  32.633  10.522
12157W        W80575  40.546  12.783  10.517
12158W        W80576  43.441  14.098   1.281
12159W        W80577  26.131  42.914  11.600
12160W        W80578  13.717  38.348  13.494
12161W        W80579  42.775  19.751  12.442
12162W        W80580  36.490  41.364   0.914
12163W        W80581   4.737  23.234  12.858
12164W        W80582  35.386  15.730   3.657
12165W        W80583  39.858  42.846  11.932
12166W        W80584  25.988  30.634   3.798
12167W        W80585  15.605  14.661   4.237
12168W        W80586  39.524  28.602  14.997
12169W        W80587   2.374   7.324   1.850
12170W        W80588  37.866  32.067   2.304
12171W        W80589  12.792   5.327  11.082
12172W        W80590   1.819  27.118   0.367
12173W        W80591   1.450  32.564   3.649
12174W        W80592   7.406   6.837   0.267
12175W        W80593  30.933  19.067  10.484
12176W        W80594  34.103  22.069   1.350
12177W        W80595  13.351  15.201  12.933
12178W        W80596  15.589  10.380  12.872
12179W        W80597  43.901  32.630   3.829
12180W        W80598  33.449  34.546   2.807
12181W        W80599  13.331   8.345   4.699
12182W        W80600  16.590  42.370  13.967
12183W        W80601   6.283  26.481   4.253
12184W        W80602  41.492  15.140   1.865
12185W        W80603   3.410  20.752   2.267
12186W        W80604  24.184  14.695  12.844
12187W        W80605  35.370   2.369   2.247
12188W        W80606  11.309  22.045   1.328
12189W        W80607  35.979   5.195  13.385
12190W        W80608  13.842  30.588   1.920
12191W        W80609   2.943  34.040   2.199
12192W        W80610   8.402  42.904  13.993
12193W        W80611   4.916   8.398  11.392
12194W        W80612  34.880  22.018   1.833
12195W        W80613  17.606  43.352  13.038
12196W        W80614  41.409  31.001  12.368
12197W        W80615  31.529  15.811   3.146
12198W        W80616  36.585  32.131  13.470
12199W        W80617   0.281   6.302  11.970
12200W        W80618   0.387  27.142   3.705
12201W        W80619  38.075  14.262  14.461
12202W        W80620   3.756  21.693  12.998
12203W        W80621  34.529   7.193  11.127
12204W        W80622  12.630   2.886   0.736
12205W        W80623  41.333   6.778  13.325
12206W        W80624  38.546   4.776  14.292
12207W        W80625  40.925  37.398  14.880
12208W        W80626  28.120  32.430  14.471
12209W        W80627  15.326  13.274   4.324
12210W        W80628  17.708  36.452   2.826
12211W        W80629  24.975   1.950   3.630
12212W        W80630  36.084  20.046   3.236
12213W        W80631  40.480  40.520   0.883
12214W        W80632  16.644  33.460   3.702
12215W        W80633  31.113  30.551   5.226
12216W        W80634  28.983  15.297   4.284
12217W        W80635  33.521  39.391   0.266
12218W        W80636  25.171  42.012   0.366
12219W        W80637  34.094  39.453  12.550
12220W        W80638  10.800  32.042   4.654
12221W        W80639  29.509  12.754   3.326
12222W        W80640  17.682   8.803  14.410
12223W        W80641  12.152  26.582   2.762
12224W        W80642  32.103  33.937   1.364
12225W        W80643  17.169  22.592  10.895
12226W        W80644  36.454  20.742   2.291
12227W        W80645  14.792  21.040  10.509
12228W        W80646  32.139  13.233  14.442
12229W        W80647  17.109  29.120   4.204
12230W        W80648  18.136  25.592  11.005
12231W        W80649  37.560  35.942  13.421
12232W        W80650  10.278  21.571   3.686
12233W        W80651   5.739  19.749   1.369
12234W        W80652  17.654  43.887   4.811
12235W        W80653  26.017  33.011  14.762
12236W        W80654  33.120  36.488   3.788
12237W        W80655   5.251  43.862  11.585
12238W        W80656  38.832  29.945   2.257
12239W        W80657  35.088   2.350   1.903
12240W        W80658   2.856  11.186   1.809
12241W        W80659  20.752  20.241  14.957
12242W        W80660  35.950  14.122  10.571
12243W        W80661  12.360  42.475   4.768
12244W        W80662  41.307  40.319   0.407
12245W        W80663  25.996  26.535  14.769
12246W        W80664  40.476  22.654  10.920
12247W        W80665  41.964  22.238  11.880
12248W        W80666  27.519  44.471   4.133
12249W        W80667  12.274  32.998  13.986
12250W        W80668  34.932  35.080   3.201
12251W        W80669   6.244  23.558   3.355
12252W        W80670  39.494  32.487  11.571
12253W        W80671  19.285   5.295   0.452
12254W        W80672  17.294  35.885   5.181
12255W        W80673  20.244  38.890  14.983
12256W        W80674  28.027   4.250   4.310
12257W        W80675  12.664   9.183  10.433
12258W        W80676  39.351  39.861  14.348
12259W        W80677  29.477  21.037   2.371
12260W        W80678  14.246  19.677   4.347
12261W        W80679  20.676  31.483   4.617
12262W        W80680   5.759  17.621   0.271
12263W        W80681   3.400  42.968   1.421
12264W        W80682   9.803  37.479  14.292
12265W        W80683  38.331  39.845   4.791
12266W        W80684  40.944  17.667   0.338
12267W        W80685   0.357  17.614   3.751
12268W        W80686  21.092  33.971   1.289
12269W        W80687  34.118  12.244  11.096
12270W        W80688  35.494  24.668   2.833
12271W        W80689   5.347  13.787   2.258
12272W        W80690  20.037  43.291   0.852
12273W        W80691   9.814   0.914  10.580
12274W        W80692  16.581   8.365   0.783
12275W        W80693  35.986  16.072   3.336
12276W        W80694  35.977   9.325  13.927
12277W        W80695   9.818  41.866   4.683
12278W        W80696  14.165   9.382   1.781
12279W        W80697  16.665  32.120   0.348
12280W        W80698  41.945  42.438  11.072
12281W        W80699  20.598  28.647   1.716
12282W        W80700  40.545  18.098   1.877
12283W        W80701  11.152  13.820   2.882
12284W        W80702  26.612  43.780  10.980
12285W        W80703  32.433  28.600  12.403
12286W        W80704   1.280  10.764   0.343
12287W        W80705  22.092  33.058  14.872
12288W        W80706  21.602  30.965   1.753
12289W        W80707   9.380  21.051  11.883
12290W        W80708  21.688  38.834   1.309
12291W        W80709  32.900  19.127  11.408
12292W        W80710  41.362  31.405   4.183
12293W        W80711  14.152  24.660   4.671
12294W        W80712  28.963  19.256   0.879
12295W        W80713  40.547  27.115   2.341
12296W        W80714  40.987  19.682   1.341
12297W        W80715  19.723   5.756   3.660
12298W        W80716   7.755  15.664   5.242
12299W        W80717  14.728   0.867  12.391
12300W        W80718  31.444  37.930  14.315
12301W        W80719  41.412   3.455   2.311
12302W        W80720   1.417  33.040   3.204
12303W        W80721  17.225  25.099  14.769
12304W        W80722  20.672   3.767  12.041
12305W        W80723  19.628  21.173  14.981
12306W        W80724  39.358  11.716   2.841
12307W        W80725  25.041  29.574   0.866
12308W        W80726   4.293   1.795  11.520
12309W        W80727   6.859  24.535   0.250
12310W        W80728  11.780  44.962  11.406
12311W        W80729  28.059  30.957   0.285
12312W        W80730   8.853  31.432   3.341
12313W        W80731  12.224  29.530  11.997
12314W        W80732  30.640  10.736   1.783
12315W        W80733  14.828  29.607  14.374
12316W        W80734  20.254  33.939   2.310
12317W        W80735  29.580  43.862  12.566
12318W        W80736  42.794   5.381   1.397
12319W        W80737  22.528  34.572  11.442
12320W        W80738  24.051  37.455   4.165
12321W        W80739   6.418  33.542  14.772
12322W        W80740   6.418  26.655   0.431
12323W        W80741  27.567  25.064  11.439
12324W        W80742  31.903  44.765  10.634
12325W        W80743   6.212   3.930  11.097
12326W        W80744  20.546  27.120   2.731
12327W        W80745   6.752  41.912  13.002
12328W        W80746  11.811  33.390   2.807
12329W        W80747  15.267  35.070   4.289
12330W        W80748   5.363   5.282   3.728
12331W        W80749  29.960  16.647  14.952
12332W        W80750  42.416   2.419   0.778
12333W        W80751  21.054  18.611  11.989
12334W        W80752  30.071  23.216   4.699
12335W        W80753  12.357  25.065   2.775
12336W        W80754  30.053  41.335  10.493
12337W        W80755  35.370  25.157   1.297
12338W        W80756  42.372  32.522   0.395
12339W        W80757  40.985  43.361  13.840
12340W        W80758  21.024  11.357   3.710
12341W        W80759  35.374  17.164   3.311
12342W        W80760  41.516   0.953   3.865
12343W        W80761  38.065  35.001   3.767
12344W        W80762  38.422  13.170  10.431
12345W        W80763  28.632  16.595  11.874
12346W        W80764  42.821  22.625   4.808
12347W        W80765  34.992  22.637   0.394
12348W        W80766   8.227   2.798   2.902
12349W        W80767   5.862   5.839  13.546
12350W        W80768  18.754  23.576  10.996
12351W        W80769  35.517  22.079   1.904
12352W        W80770  35.492  44.000  13.824
12353W        W80771  30.971  24.087  13.416
12354W        W80772   5.273  32.500  10.903
12355W        W80773  23.632   7.402   2.801
12356W        W80774   9.709  42.865  11.067
12357W        W80775  27.054  11.737  12.971
12358W        W80776  19.192  33.382   2.718
12359W        W80777  43.906  32.001   1.821
12360W        W80778  26.026   0.801   1.744
12361W        W80779   0.916  44.337   3.318
12362W        W80780  16.750  13.657   1.885
12363W        W80781  15.100  43.854  12.404
12364W        W80782  16.248  34.581   3.822
12365W        W80783   0.318  33.477   1.759
12366W        W80784  16.607  35.441  11.383
12367W        W80785  20.680   6.424  14.839
12368W        W80786   5.202  37.892   1.395
12369W        W80787  30.088  41.320   4.147
12370W        W80788   6.364  18.156   0.925
12371W        W80789  37.462   6.249   0.450
12372W        W80790   2.458  16.163   1.857
12373W        W80791  40.015   2.312   1.894
12374W        W80792   0.771   3.942   2.394
12375W        W80793  26.579  32.618  11.472
12376W        W80794  36.454  38.533   2.349
12377W        W80795  12.234  22.031  11.962
12378W        W80796  17.688  42.505   2.896
12379W        W80797   4.374  30.112  12.426
12380W        W80798  21.168  29.107   3.211
12381W        W80799  31.023  25.567   1.752
12382W        W80800   6.868  34.876   3.185
12383W        W80801  11.249  11.363  11.011
12384W        W80802  29.940   9.234   4.654
12385W        W80803  35.508  25.200  12.831
12386W        W80804  22.536   5.846   0.444
12387W        W80805  40.310   6.199  14.888
12388W        W80806  27.993  29.166  11.021
12389W        W80807  44.866   5.362   2.362
12390W        W80808  33.410  21.054  12.005
12391W        W80809  15.660  20.221   1.934
12392W        W80810  15.589  23.208  12.826
12393W        W80811  43.859  44.979   4.690
12394W        W80812  37.869  35.954  12.966
12395W        W80813   7.790  44.951  14.813
12396W        W80814  42.004  32.396  13.431
12397W        W80815  17.295  31.545  10.595
12398W        W80816  32.904   1.421  13.056
12399W        W80817  41.865  39.924   1.435
12400W        W80818  25.198  20.202   3.197
12401W        W80819   3.296  43.984   2.829
12402W        W80820  42.962  31.901  13.012
12403W        W80821  26.494  22.608   2.851
12404W        W80822   4.277   0.251   1.823
12405W        W80823  19.152  24.027   4.330
12406W        W80824  23.570  38.016   9.949
12407W        W80825  37.366  18.759  14.801
12408W        W80826  43.963  16.256  14.363
12409W        W80827  20.685  22.596  10.638
12410W        W80828   4.729  35.526   0.821
12411W        W80829  17.301  25.992   2.824
12412W        W80830   3.840  34.522   9.927
12413W        W80831  15.210   9.341   1.735
12414W        W80832  27.078   4.244   4.197
12415W        W80833  20.055  30.504   5.203
12416W        W80834  29.942  28.078  11.947
12417W        W80835   9.856  38.061   4.225
12418W        W80836  30.433  28.960  13.363
12419W        W80837  25.699  25.501  12.545
12420W        W80838  43.326   1.294  12.086
12421W        W80839  42.326   5.349  12.066
12422W        W80840   2.408  19.603   5.137
12423W        W80841  16.303  38.958  10.040
12424W        W80842  25.102   9.668  14.493
12425W        W80843  33.880  39.369   0.341
12426W        W80844  21.185   9.837   4.209
12427W        W80845  31.991  39.520   2.758
12428W        W80846  42.319  16.809  10.583
12429W        W80847  16.598  19.638  12.559
12430W        W80848  14.596  37.558   1.869
12431W        W80849   3.787  15.179  10.595
12432W        W80850  23.092  30.945  13.901
12433W        W80851  27.967  18.609   2.221
12434W        W80852  35.455  39.440   1.739
12435W        W80853  11.307   4.377   3.869
12436W        W80854  43.396  13.786  12.541
12437W        W80855  40.806  17.307  11.030
12438W        W80856  23.020  39.966   2.697
12439W        W80857  22.208  12.213   0.466
12440W        W80858  29.035  15.798  12.860
12441W        W80859   6.230   8.836  14.382
12442W        W80860  31.409   0.479   0.246
12443W        W80861   3.391  19.725  11.564
12444W        W80862  28.633  24.044   0.319
12445W        W80863  29.985   4.894  11.033
12446W        W80864  16.572  34.097   4.705
12447W        W80865   2.310  21.522  12.359
12448W        W80866  24.700   5.222   3.825
12449W        W80867  25.126  25.540  13.018
12450W        W80868  10.159  22.602   5.214
12451W        W80869  41.930   7.870  13.330
12452W        W80870  33.987  20.139   4.219
12453W        W80871  31.932  28.493   4.673
12454W        W80872   0.493  17.684  10.926
12455W        W80873  37.581  23.207  14.507
12456W        W80874  37.356  16.092   2.729
12457W        W80875   9.683   4.415  13.890
12458W        W80876   9.269  12.733  14.769
12459W        W80877   6.284  21.056  12.994
12460W        W80878  31.430  41.816   2.742
12461W        W80879   2.238  38.075   1.382
12462W        W80880  34.055  17.627   3.346
12463W        W80881  29.440   9.809   2.703
12464W        W80882  23.574  28.521   4.761
12465W        W80883  15.590  34.544   4.784
12466W        W80884   9.865  42.325   0.817
12467W        W80885  25.975  42.314   2.863
12468W        W80886   3.865  42.526  14.474
12469W        W80887   3.221  16.707  13.791
12470W        W80888  33.469  41.827  10.580
12471W        W80889  15.111  38.928   4.228
12472W        W80890  32.474  30.625   4.256
12473W        W80891  44.493  31.592   1.751
12474W        W80892  25.568  17.729   0.800
12475W        W80893  12.726  28.641   4.221
12476W        W80894   1.783   8.729  13.547
12477W        W80895  31.096   5.875  11.462
12478W        W80896  13.760  20.543  13.923
12479W        W80897  23.234  44.002   3.687
12480W        W80898  17.789  13.263   3.356
12481W        W80899  27.575  37.421  13.483
12482W        W80900  30.508  43.312  13.473
12483W        W80901  42.780  33.071   1.747
12484W        W80902  12.741  11.842  10.947
12485W        W80903  14.257  36.573   3.859
12486W        W80904   0.479  17.271  12.571
12487W        W80905   7.777  28.153  10.556
12488W        W80906  22.647  37.926  11.106
12489W        W80907  16.179   4.939   4.838
12490W        W80908   8.211   2.737   0.357
12491W        W80909  17.675  40.446   0.396
12492W        W80910  23.120  17.065   0.899
12493W        W80911  37.448  23.565   0.918
12494W        W80912   9.842  16.194  11.571
12495W        W80913  33.019  34.025   4.144
12496W        W80914  42.917  35.579  10.638
12497W        W80915   8.731  25.470  14.982
12498W        W80916  25.627  25.572  11.014
12499W        W80917  34.052  27.555   1.307
12500W        W80918   4.810  43.961  14.461
12501W        W80919  27.659  40.029  13.483
12502W        W80920   5.254  28.526   2.787
12503W        W80921   5.883  36.017  11.391
12504W        W80922  33.427  31.481   0.446
12505W        W80923  39.491   7.408   2.865
12506W        W80924  18.186   1.447   3.683
12507W        W80925  37.451  25.674  11.511
12508W        W80926  23.651  37.855  12.905
12509W        W80927  32.625  20.186  12.032
12510W        W80928  10.215  41.028   3.822
12511W        W80929  39.842  30.558  13.422
12512W        W80930  36.444  11.191   0.449
12513W        W80931  10.645  12.245  14.018
12514W        W80932  28.157  26.990  13.401
12515W        W80933  18.631  31.088  10.428
12516W        W80934  19.040  41.437  10.940
12517W        W80935  17.165  32.929  14.022
12518W        W80936  22.094  22.107  13.967
12519W        W80937  17.204  26.175  12.825
12520W        W80938  27.635  14.163  13.974
12521W        W80939  39.458  20.612  13.000
12522W        W80940  39.557  43.888  11.546
12523W        W80941  19.747  20.176   3.735
12524W        W80942  43.384  23.000   4.722
12525W        W80943  37.511  14.150  13.507
12526W        W80944   8.290  29.017   0.250
12527W        W80945  11.367  32.550  12.512
12528W        W80946  27.991  41.015  13.921
12529W        W80947   1.964  16.742   2.192
12530W        W80948  41.347   8.327   2.821
12531W        W80949  31.106  30.961  13.842
12532W        W80950  17.751  26.595   4.774
12533W        W80951  16.607   7.812  13.483
12534W        W80952  12.666  11.370  10.589
12535W        W80953  17.269  27.464  14.462
12536W        W80954  37.350  25.131  13.884
12537W        W80955  37.543  37.015  10.986
12538W        W80956  32.994   4.290   0.411
12539W        W80957  11.851  39.929   3.252
12540W        W80958  36.952  10.847  12.569
12541W        W80959  18.762  24.186  12.436
12542W        W80960  38.554  20.634  10.553
12543W        W80961  31.927  26.078   2.717
12544W        W80962   8.257  38.019  13.022
12545W        W80963  29.148  40.530  10.496
12546W        W80964  20.550  12.351   4.787
12547W        W80965  28.476   9.178   5.604
12548W        W80966  31.033  27.137   0.261
12549W        W80967  17.648   1.849   3.672
12550W        W80968  23.536  29.090   1.256
12551W        W80969  10.721  12.343  12.492
12552W        W80970  26.956   2.769  13.420
12553W        W80971   9.745  31.148   1.788
12554W        W80972  40.873   6.194  13.927
12555W        W80973  14.805  17.555   1.831
12556W        W80974  32.589  20.581  11.526
12557W        W80975   0.878  31.613   4.789
12558W        W80976  12.161  13.275   0.398
12559W        W80977  33.015   4.382   2.676
12560W        W80978  41.335  24.146  10.555
12561W        W80979   6.919  36.876   4.665
12562W        W80980  19.536  18.606  11.104
12563W        W80981   9.161  12.852   4.776
12564W        W80982  16.194  37.477   0.348
12565W        W80983  14.297  25.005  13.949
12566W        W80984  44.325  15.710   4.618
12567W        W80985  25.164  25.626   0.876
12568W        W80986  21.179   6.883  11.912
12569W        W80987  31.985  30.941   2.820
12570W        W80988  16.312  37.082  14.294
12571W        W80989  31.031  12.814   0.463
12572W        W80990  41.448  18.249   4.656
12573W        W80991  14.103  38.471  13.021
12574W        W80992  12.192  34.369   2.863
12575W        W80993  34.908  32.425   4.829
12576W        W80994  18.293  14.313   1.325
12577W        W80995  43.398  16.185   3.314
12578W        W80996  28.177  26.097  10.628
12579W        W80997  17.747  13.151   1.354
12580W        W80998  23.042  35.881  12.015
12581W        W80999  32.407  23.624  14.800
12582W        W81000  34.012   5.708   0.382
12583W        W81001  24.565  29.569  11.545
12584W        W81002  36.568  26.517   1.335
12585W        W81003  30.919  18.281   1.833
12586W        W81004  28.010   1.952  13.521
12587W        W81005  12.213   4.257   3.762
12588W        W81006  14.776  29.441   0.948
12589W        W81007  27.620  29.600   2.814
12590W        W81008  26.486  11.250   0.469
12591W        W81009  26.030  12.222  12.083
12592W        W81010  14.103  17.075   2.893
12593W        W81011   1.456  40.861  14.281
12594W        W81012  18.570  44.365  10.010
12595W        W81013   7.232  34.372   2.261
12596W        W81014  35.950   6.824  14.311
12597W        W81015   9.874  26.671  13.791
12598W        W81016  35.949  43.294  10.926
12599W        W81017  15.652  35.387   0.787
12600W        W81018   6.905  43.815   2.832
12601W        W81019  40.385  27.465   1.914
12602W        W81020   8.236  24.201  12.458
12603W        W81021   0.847  33.995  12.005
12604W        W81022  26.098  17.101   1.323
12605W        W81023   2.772  33.417   3.230
12606W        W81024  33.955  43.339  11.557
12607W        W81025  30.488  36.350   3.337
12608W        W81026   9.361   0.483  12.397
12609W        W81027   4.814  43.289   1.850
12610W        W81028  25.647  21.258   2.365
12611W        W81029  14.206  11.641  14.906
12612W        W81030  41.481  41.969  14.886
12613W        W81031  24.712  40.350   4.669
12614W        W81032  41.852  42.484   2.206
12615W        W81033  17.088  31.635   2.699
12616W        W81034   7.733  19.047   2.381
12617W        W81035  35.857  38.841  12.468
12618W        W81036  40.799  41.802  14.925
12619W        W81037  13.824  14.628   4.665
12620W        W81038  42.517   7.248  13.424
12621W        W81039   1.336  38.343   1.781
12622W        W81040  41.929  43.899  14.369
12623W        W81041   9.251  29.937  14.320
12624W        W81042  17.300   9.778   1.728
12625W        W81043   5.700  12.626   2.198
12626W        W81044  18.612  41.513   1.787
12627W        W81045  40.832  21.576  11.439
12628W        W81046  37.869  11.304  11.991
12629W        W81047  29.131  13.215   4.745
12630W        W81048  22.738  31.961   3.254
12631W        W81049  17.728  36.932   3.254
12632W        W81050  42.823  41.410   3.295
12633W        W81051  33.972  31.030  10.951
12634W        W81052  16.307  20.035   4.785
12635W        W81053  11.773   6.384   2.789
12636W        W81054  20.150  11.320   0.855
12637W        W81055  27.097  41.807   4.828
12638W        W81056  33.385  24.591   0.884
12639W        W81057  21.066  32.892  10.599
12640W        W81058  21.655  15.103  14.487
12641W        W81059  41.373  26.663  14.006
12642W        W81060  39.953  17.666  13.983
12643W        W81061  10.721   1.286   2.186
12644W        W81062  44.435  24.541  14.317
12645W        W81063  16.570  33.076  11.950
12646W        W81064  33.957  17.600   4.694
12647W        W81065  19.589  19.746  12.519
12648W        W81066  42.803  20.706  13.960
12649W        W81067   5.698  36.004  12.545
12650W        W81068   8.344  15.146   3.638
12651W        W81069  27.644  14.780   1.395
12652W        W81070   4.824  11.861   2.738
12653W        W81071  41.344   5.350  13.448
12654W        W81072  15.269  11.818   4.606
12655W        W81073   8.815  31.616  11.978
12656W        W81074  34.490  12.237  14.356
12657W        W81075  17.200  33.399  13.360
12658W        W81076  17.108  41.904   4.278
12659W        W81077  28.667  20.097   1.861
12660W        W81078   8.856  13.781  11.097
12661W        W81079  26.121  34.375   4.278
12662W        W81080   8.394  32.058  13.838
12663W        W81081   3.785   3.394  13.433
12664W        W81082  21.633  19.178   0.384
12665W        W81083  38.874  20.586   3.224
12666W        W81084   3.869  40.437   4.146
12667W        W81085   2.782  30.122  12.547
12668W        W81086  10.289  37.527  10.915
12669W        W81087  42.392  24.615  11.110
12670W        W81088  38.420  39.368  12.495
12671W        W81089  39.908  13.652   3.364
12672W        W81090  11.766  41.405  11.575
12673W        W81091  40.834   7.328   3.232
12674W        W81092  30.938  30.657   0.345
12675W        W81093  12.739  29.643   1.412
12676W        W81094  43.926  37.492   0.245
12677W        W81095  10.235  24.203  11.505
12678W        W81096  24.695  20.067   4.621
12679W        W81097  33.930  43.846  11.046
12680W        W81098  12.196  29.086  13.315
12681W        W81099   1.834  41.023   0.481
12682W        W81100  23.039   6.336   1.704
12683W        W81101  31.435   6.903   1.317
12684W        W81102  23.726  36.590  12.068
12685W        W81103  19.678  19.546   3.163
12686W        W81104  31.503  11.284   4.323
12687W        W81105  30.526  22.533   5.180
12688W        W81106  11.773  14.201  14.846
12689W        W81107  17.710   9.316  12.000
12690W        W81108  16.234  38.858  12.880
12691W        W81109   7.694  23.537   9.933
12692W        W81110  18.657   3.414   3.182
12693W        W81111  17.743   3.296  14.296
12694W        W81112  43.393  21.545   3.199
12695W        W81113  37.441  28.068   3.340
12696W        W81114  17.792  37.372  11.538
12697W        W81115   7.237  21.586   0.957
12698W        W81116   9.652  41.965  14.853
12699W        W81117  15.173  15.813  11.952
12700W        W81118  37.053  10.644  14.391
12701W        W81119  41.814  41.812   4.198
12702W        W81120  44.894  20.166  14.292
12703W        W81121  21.028  35.939  14.946
12704W        W81122   5.768  37.962  13.935
12705W        W81123  39.388  14.653   1.770
12706W        W81124  39.827  37.480   2.378
12707W        W81125   7.852  15.151  14.483
12708W        W81126  38.963  43.299  12.929
12709W        W81127  17.111   2.407   1.886
12710W        W81128   5.196  23.146   0.838
12711W        W81129  24.575  34.068  13.380
12712W        W81130   3.282  40.016  11.054
12713W        W81131  25.684  17.672  14.285
12714W        W81132  25.109  26.596   2.288
12715W        W81133  34.412  23.590  11.474
12716W        W81134  23.190  23.006   0.967
12717W        W81135  39.333   3.415   2.787
12718W        W81136  42.833  12.815   5.169
12719W        W81137   2.861  35.985  12.833
12720W        W81138   5.286  18.667  11.925
12721W        W81139  21.691   3.855  11.538
12722W        W81140  18.568  42.924  12.418
12723W        W81141  44.371  26.577   2.234
12724W        W81142  30.057   9.171   2.727
12725W        W81143   8.191  13.742   2.197
12726W        W81144  40.040   8.862   0.275
12727W        W81145  44.843  27.609   4.832
12728W        W81146  39.359  35.568  12.566
12729W        W81147  35.930  32.140   1.225
12730W        W81148  11.641  43.322  12.529
12731W        W81149  31.420  36.932  14.007
12732W        W81150  10.171  39.414   1.443
12733W        W81151  21.238  21.129   5.318
12734W        W81152  37.461   7.720  10.435
12735W        W81153  33.548  41.520   1.777
12736W        W81154  37.376  30.991   1.427
12737W        W81155  11.181   1.265   2.722
12738W        W81156   6.359  21.620   3.326
12739W        W81157  35.958  44.844   1.329
12740W        W81158  16.693  19.273  11.030
12741W        W81159   4.447  40.046   2.802
12742W        W81160   4.744  34.592   0.852
12743W        W81161  18.757  41.488  10.062
12744W        W81162  30.950  37.379  13.829
12745W        W81163   6.682  32.594  11.594
12746W        W81164  41.414  17.259  12.953
12747W        W81165  24.033  38.355   1.309
12748W        W81166  10.384  42.458   1.343
12749W        W81167  26.969  17.645   2.764
12750W        W81168   3.718  18.158  14.959
12751W        W81169  21.730  25.190   4.656
12752W        W81170  18.148   2.810   3.678
12753W        W81171  23.999   0.339   1.914
12754W        W81172  41.853   2.777   3.199
12755W        W81173   4.886  23.535   4.321
12756W        W81174   9.351  42.372   3.756
12757W        W81175  31.483  40.538  12.386
12758W        W81176  35.438  28.088   2.178
12759W        W81177  42.783   3.940   4.817
12760W        W81178  18.552  27.601  10.949
12761W        W81179  17.690  33.508  12.480
12762W        W81180  28.079   0.291  10.998
12763W        W81181  11.301  23.012  11.062
12764W        W81182  24.537  39.495   0.409
12765W        W81183  43.971   8.230   2.341
12766W        W81184  13.646  33.595  13.998
12767W        W81185  32.559  32.551   1.760
12768W        W81186  40.380  41.323   0.911
12769W        W81187  13.123  24.494   2.879
12770W        W81188  38.553  41.509   2.417
12771W        W81189  10.310  27.471  14.945
12772W        W81190  30.993  21.732  11.054
12773W        W81191   3.811  43.277  10.404
12774W        W81192  38.983   4.881   4.202
12775W        W81193  34.582  22.701  13.955
12776W        W81194  20.740   8.281   2.668
12777W        W81195  29.623   6.811   0.297
12778W        W81196  20.706  42.979   5.174
12779W        W81197  23.124  34.598  14.357
12780W        W81198  10.699   3.817  10.986
12781W        W81199  44.447  33.071   2.770
12782W        W81200  38.559  35.534   0.839
12783W        W81201  18.572   9.311  11.517
12784W        W81202  27.468  21.164   2.373
12785W        W81203   5.332  39.964  10.426
12786W        W81204  13.130  36.908  14.285
12787W        W81205  29.640  33.931   0.963
12788W        W81206  24.067  26.470   2.390
12789W        W81207  16.209   5.356  12.829
12790W        W81208   6.256  41.999   1.312
12791W        W81209   7.756   7.728  10.565
12792W        W81210   7.698  43.480  10.952
12793W        W81211   4.714  37.441  13.928
12794W        W81212  14.170  41.316   0.371
12795W        W81213  33.579  39.828   2.192
12796W        W81214  31.908  38.531  10.415
12797W        W81215  19.691  10.228  10.627
12798W        W81216  43.930   9.259   0.402
12799W        W81217  43.494  35.396   1.707
12800W        W81218  34.524  15.157   1.377
12801W        W81219   1.731  44.910   1.275
12802W        W81220  35.392  25.176  13.849
12803W        W81221   6.226   5.794  11.908
12804W        W81222  31.945  12.127   0.821
12805W        W81223  26.583  29.954   4.140
12806W        W81224  14.679  32.394  14.362
12807W        W81225  41.844   4.270   4.247
12808W        W81226   7.271  35.482   1.212
12809W        W81227   7.384  33.926  12.974
12810W        W81228  11.304  17.677   0.462
12811W        W81229  14.751  39.429   0.363
12812W        W81230  15.184   3.937   5.803
12813W        W81231   4.215  21.096   4.744
12814W        W81232   2.806  31.114   1.283
12815W        W81233  31.625  41.828   3.230
12816W        W81234  16.767   2.949  12.948
12817W        W81235  38.049  27.628   0.778
12818W        W81236  27.163  20.091   2.382
12819W        W81237  23.664  17.260  11.474
12820W        W81238  24.600   0.327  12.969
12821W        W81239  22.043  32.984  13.458
12822W        W81240  41.030  35.978  12.090
12823W        W81241  19.635  22.118   1.852
12824W        W81242  25.713  22.232  12.032
12825W        W81243  14.739   8.804   2.397
12826W        W81244  19.537   4.801   0.727
12827W        W81245  12.752  29.558   0.433
12828W        W81246  28.171  27.602  12.380
12829W        W81247   0.426  28.574   0.408
12830W        W81248  43.961  39.966  10.451
12831W        W81249  14.639  36.914  11.982
12832W        W81250  13.131   0.923  14.375
12833W        W81251  39.432  12.667   5.271
12834W        W81252  35.956  40.508  13.812
12835W        W81253  18.579  15.327   0.318
12836W        W81254  36.047   5.356   3.318
12837W        W81255   3.374   7.234  12.462
12838W        W81256  17.118   7.279   1.734
12839W        W81257  11.743  19.729  10.911
12840W        W81258  25.137  12.718   2.673
12841W        W81259   1.740  11.203   4.663
12842W        W81260  30.158   9.154  14.438
12843W        W81261  28.446  13.798  11.535
12844W        W81262  15.175  10.279   2.699
12845W        W81263  38.924   0.389  11.095
12846W        W81264  22.043  17.291   1.732
12847W        W81265   9.351   8.719   9.948
12848W        W81266   0.918  38.343  10.600
12849W        W81267  12.362  14.289   1.210
12850W        W81268  23.583   6.330  13.811
12851W        W81269   9.849  41.519   3.368
12852W        W81270  27.036   4.867   3.167
12853W        W81271  10.669  14.801  12.972
12854W        W81272  32.496  14.684   3.343
12855W        W81273   5.776   8.237  13.818
12856W        W81274  26.566  43.826   2.180
12857W        W81275  34.908  37.934   0.860
12858W        W81276  23.574  22.018  11.081
12859W        W81277  19.580  22.610   1.824
12860W        W81278  16.601  38.523   0.924
12861W        W81279  28.459   8.675  11.063
12862W        W81280  26.512  30.634   3.315
12863W        W81281   0.346  16.147   3.850
12864W        W81282  38.495   7.218   3.178
12865W        W81283  22.238  29.921   4.187
12866W        W81284  15.307  24.489   1.835
12867W        W81285  27.119  13.197   3.335
12868W        W81286   8.723  37.904   3.308
12869W        W81287  17.565   5.828  13.944
12870W        W81288   9.775  42.839  13.309
12871W        W81289  17.747  29.433  10.458
12872W        W81290  17.203  28.136   1.320
12873W        W81291  42.932   0.969   2.250
12874W        W81292  29.080  16.125  10.967
12875W        W81293  16.163   0.268  13.472
12876W        W81294  33.987  32.112   3.634
12877W        W81295  32.101  23.493   0.858
12878W        W81296  16.221  25.991  14.964
12879W        W81297  25.557   2.783  12.943
12880W        W81298   7.788  17.107  14.008
12881W        W81299  34.926   6.893  14.472
12882W        W81300   4.819  35.387   1.913
12883W        W81301   7.894  14.251  14.880
12884W        W81302  44.456  11.173  12.450
12885W        W81303  39.368   6.256  10.560
12886W        W81304  37.968  13.771  14.379
12887W        W81305  29.578   6.707  12.989
12888W        W81306  34.938   7.744  14.411
12889W        W81307  44.854   0.473   3.351
12890W        W81308  34.418  33.063   4.794
12891W        W81309  12.785  26.044   3.264
12892W        W81310  28.171  24.502   1.721
12893W        W81311  24.479  21.162  12.460
12894W        W81312   7.900  32.011  11.100
12895W        W81313   3.833   6.716  13.973
12896W        W81314  28.493  29.985  13.421
12897W        W81315  24.106   8.751   9.981
12898W        W81316  42.834  21.149   3.179
12899W        W81317   2.728  33.393  12.000
12900W        W81318  15.771  44.846   4.624
12901W        W81319  29.654  15.737  10.590
12902W        W81320   5.720  20.264   1.857
12903W        W81321  35.464  31.526  12.459
12904W        W81322  32.591  35.578  11.476
12905W        W81323  30.097  37.483   2.377
12906W        W81324  25.211  17.580  11.430
12907W        W81325  11.176  11.660  13.032
12908W        W81326  43.431  22.247  14.495
12909W        W81327   3.754  30.098   1.931
12910W        W81328  35.062  11.270   1.228
12911W        W81329  11.197  15.632  12.557
12912W        W81330   6.412  33.127   1.344
12913W        W81331   8.330  11.748  13.907
12914W        W81332  35.462  20.524   1.215
12915W        W81333  14.743  16.746   0.890
12916W        W81334  28.474   8.329   0.305
12917W        W81335  35.369  16.809  11.862
12918W        W81336  17.164   4.291   0.458
12919W        W81337  24.659  36.964   2.682
12920W        W81338  37.447  36.909  13.988
12921W        W81339  22.622   1.922  14.285
12922W        W81340  19.779  19.135  10.536
12923W        W81341  38.523  40.326   4.770
12924W        W81342  20.055  37.471   2.703
12925W        W81343  15.620  40.893  14.973
12926W        W81344  29.459  30.015  11.449
12927W        W81345   1.815   4.786  10.963
12928W        W81346  30.574  23.734   0.422
12929W        W81347  44.993  12.284  10.599
12930W        W81348  11.287  21.679   4.720
12931W        W81349  22.106  26.571  10.458
12932W        W81350  35.379  15.275   1.450
12933W        W81351   7.374   8.745   0.844
12934W        W81352  20.257   8.234   4.234
12935W        W81353   6.861  42.940   3.835
12936W        W81354  16.210  14.297   2.680
12937W        W81355  27.643   2.889   2.246
12938W        W81356  26.995   1.479   0.756
12939W        W81357  37.018  33.451  10.558
12940W        W81358  34.112  15.108   2.182
12941W        W81359  14.115  10.653  13.419
12942W        W81360   2.329   9.847   0.413
12943W        W81361  12.183  15.658   3.645
12944W        W81362  29.554  39.058  12.362
12945W        W81363  42.357  35.012   4.225
12946W        W81364  14.623  38.420  11.427
12947W        W81365   5.884  14.202  14.420
12948W        W81366  31.133  28.493  14.332
12949W        W81367   4.353   7.823  13.436
12950W        W81368  38.334  24.604   3.647
12951W        W81369  39.905  36.571   1.724
12952W        W81370  39.049   5.755  12.413
12953W        W81371  24.204  11.704  14.477
12954W        W81372  29.954   2.781  14.291
12955W        W81373  28.944  14.314   3.361
12956W        W81374   3.333  41.312   2.304
12957W        W81375   0.417  15.701   1.768
12958W        W81376  42.482  16.312   2.835
12959W        W81377  26.143  37.981  14.809
12960W        W81378  38.349   0.911   4.191
12961W        W81379   6.370  27.168  14.000
12962W        W81380  26.105   3.428   4.648
12963W        W81381   9.791  23.159  11.089
12964W        W81382   0.319  16.309  14.907
12965W        W81383  34.598  20.665  10.417
12966W        W81384  24.176  14.600   1.907
12967W        W81385   5.307  35.600  13.969
12968W        W81386  44.959  12.857   4.647
12969W        W81387  31.127  23.994  11.102
12970W        W81388  25.984   8.390  13.962
12971W        W81389   2.231  22.580  10.974
12972W        W81390  35.919  20.623  11.864
12973W        W81391  12.781  25.706  11.008
12974W        W81392   0.825  24.615  11.487
12975W        W81393  21.727  30.598   2.674
12976W        W81394  14.265   3.889  10.553
12977W        W81395  26.643  10.378   2.724
12978W        W81396  23.053  35.996  13.807
12979W        W81397  13.834  31.453  12.029
12980W        W81398   4.763  11.714   2.289
12981W        W81399  35.105   9.347   2.759
12982W        W81400   8.811   6.680  14.284
12983W        W81401  31.953  13.188  11.051
12984W        W81402  38.488  19.173   1.798
12985W        W81403   3.425  14.760   3.311
12986W        W81404  29.554  26.992  12.046
12987W        W81405   6.183  12.827  12.017
12988W        W81406  35.368  26.499  10.471
12989W        W81407  19.234  23.113  13.990
12990W        W81408  18.641   3.227   1.314
12991W        W81409  39.051  44.389   2.355
12992W        W81410   9.740  14.775  12.997
12993W        W81411  42.843   6.741   0.881
12994W        W81412  42.378   7.844  14.507
12995W        W81413  18.655   1.934  13.998
12996W        W81414  18.080  20.193   3.298
12997W        W81415  36.841  32.613   4.788
12998W        W81416  44.440  37.532   2.373
12999W        W81417  34.940  12.705  12.558
13000W        W81418  32.920  13.265   0.266
13001W        W81419  16.208  44.843   3.830
13002W        W81420  13.787  10.204  14.931
13003W        W81421  40.876  29.012  13.545
13004W        W81422  31.016  37.441   2.699
13005W        W81423   3.893   9.790  12.421
13006W        W81424  40.495  38.525  13.011
13007W        W81425   5.201  40.380  10.972
13008W        W81426  26.004  25.510   1.771
13009W        W81427   3.409  39.877  11.374
13010W        W81428  42.925   6.836   4.147
13011W        W81429  28.646  21.730  11.450
13012W        W81430  13.176   6.235   0.787
13013W        W81431  36.579  19.107   1.785
13014W        W81432   0.482  22.139   4.810
13015W        W81433  30.048  42.395  11.468
13016W        W81434  36.947  11.719   3.168
13017W        W81435  37.482  17.727   4.814
13018W        W81436  26.205  14.226  14.477
13019W        W81437  11.778  40.980   4.287
13020W        W81438  13.627  31.076  12.519
13021W        W81439   5.813  37.087   1.358
13022W        W81440  29.462  37.050  14.294
13023W        W81441   6.911  30.032  11.891
13024W        W81442   8.161  41.799   3.322
13025W        W81443  36.540  17.739  11.892
13026W        W81444  31.527  17.589   4.735
13027W        W81445   2.899  12.208  12.921
13028W        W81446  23.227   0.857  14.453
13029W        W81447  25.090  29.120  14.967
13030W        W81448   2.846  43.967  14.461
13031W        W81449  36.586  29.935   4.625
13032W        W81450  12.828  17.143   3.369
13033W        W81451   6.845   6.699  13.378
13034W        W81452  26.172  36.347  11.472
13035W        W81453   7.844  31.560  13.526
13036W        W81454  33.483  25.142  14.896
13037W        W81455  13.666  41.906   1.710
13038W        W81456  40.340  39.501  12.976
13039W        W81457  17.298  27.116   4.166
13040W        W81458  40.877  35.061  12.460
13041W        W81459  34.452   1.324   3.359
13042W        W81460  23.178   7.821  10.553
13043W        W81461   2.804  42.785  12.957
13044W        W81462  26.611   2.443  11.092
13045W        W81463   9.247   6.408  14.329
13046W        W81464   1.935  31.577   4.629
13047W        W81465  31.521  10.874  10.577
13048W        W81466   8.395  14.094  12.480
13049W        W81467  40.503  43.358  11.010
13050W        W81468  19.623  14.233   3.866
13051W        W81469  40.432   3.817   4.155
13052W        W81470  14.675  16.250   3.201
13053W        W81471  10.632  25.595  11.018
13054W        W81472  33.626  19.193   2.901
13055W        W81473   7.719  41.423  11.947
13056W        W81474   1.791  16.196   0.806
13057W        W81475  44.915  34.968   1.375
13058W        W81476  32.925   3.419   2.178
13059W        W81477  10.359  18.558   3.632
13060W        W81478  24.094  43.342   4.159
13061W        W81479  13.212  24.705  11.535
13062W        W81480  31.461  37.882   4.263
13063W        W81481  39.879   3.926  10.583
13064W        W81482   2.946  17.572  12.554
13065W        W81483  25.603  17.164  10.509
13066W        W81484   0.769  19.614   5.268
13067W        W81485  12.324  44.413   3.239
13068W        W81486  37.571  27.643   2.774
13069W        W81487  13.110  41.880  12.010
13070W        W81488  26.630  32.401   0.816
13071W        W81489  44.811   0.364  14.452
13072W        W81490  15.303   5.893  11.386
13073W        W81491  37.925  35.591   3.645
13074W        W81492  17.070   9.206   4.817
13075W        W81493  36.042  24.119   0.900
13076W        W81494  41.037  19.581   2.674
13077W        W81495  18.088  34.608   0.340
13078W        W81496   1.748  15.670   1.738
13079W        W81497  21.200  27.562  12.970
13080W        W81498  20.632   2.883   1.380
13081W        W81499  35.037  42.016  10.645
13082W        W81500   7.816  18.663   1.881
13083W        W81501   9.839  11.353  10.555
13084W        W81502   4.773  18.102  12.480
13085W        W81503  42.956  30.442   1.923
13086W        W81504  34.925  37.381   1.763
13087W        W81505  17.063  44.884   2.825
13088W        W81506  12.343  37.904  13.942
13089W        W81507  33.618   6.194   4.831
13090W        W81508  11.304  21.647  11.426
13091W        W81509   1.790  31.066  12.410
13092W        W81510  16.107  10.191  11.560
13093W        W81511  26.179  30.101   3.727
13094W        W81512  39.809  21.631  12.077
13095W        W81513  24.517  37.526   1.706
13096W        W81514  34.507  41.417   4.733
13097W        W81515  33.897  38.452  10.010
13098W        W81516  21.044  35.894  14.502
13099W        W81517  14.180  42.817   3.292
13100W        W81518  11.687  38.840   3.818
13101W        W81519  37.015  33.622  12.997
13102W        W81520  19.634  26.529   2.664
13103W        W81521   4.905  34.085   2.355
13104W        W81522  10.786  21.078   4.177
13105W        W81523  33.445  32.107   1.339
13106W        W81524   6.348  26.956   1.886
13107W        W81525   3.365  21.233   3.775
13108W        W81526  14.761   5.920  10.612
13109W        W81527  26.124  43.303  12.023
13110W        W81528  26.096  24.706   2.287
13111W        W81529   1.429   8.815  11.556
13112W        W81530  17.077  29.005  12.983
13113W        W81531  24.692  24.614  14.499
13114W        W81532  24.052   7.889  14.341
13115W        W81533   5.208  36.854   4.242
13116W        W81534  26.621  36.991  11.600
13117W        W81535   4.314  30.042   4.174
13118W        W81536   0.855  17.601  13.853
13119W        W81537   0.953   1.856   4.280
13120W        W81538   6.235  15.650   2.390
13121W        W81539  23.717  32.013  13.862
13122W        W81540  26.585  40.330   4.769
13123W        W81541   8.337  24.206   4.200
13124W        W81542   5.687  22.233  11.054
13125W        W81543  38.886  18.140  12.940
13126W        W81544  31.568   6.864   2.332
13127W        W81545  19.203   3.765  12.030
13128W        W81546  42.981  11.356   2.740
13129W        W81547  19.120  22.619   3.635
13130W        W81548  13.805  42.412  10.560
13131W        W81549  44.966  33.054   4.821
13132W        W81550  12.352   8.879  14.393
13133W        W81551  22.214  40.322   3.364
13134W        W81552  42.335  40.983  14.971
13135W        W81553  15.809  20.064  13.996
13136W        W81554  35.439  35.579  13.356
13137W        W81555   9.383  40.360   4.607
13138W        W81556  23.618  38.327  13.433
13139W        W81557  34.588  17.590   3.637
13140W        W81558  25.530  44.897   2.741
13141W        W81559   1.793   0.829   0.294
13142W        W81560  19.649  27.600   2.329
13143W        W81561  31.002  43.350  10.616
13144W        W81562  23.990  25.480   0.931
13145W        W81563  30.503   2.254  11.427
13146W        W81564  29.628   8.401  11.587
13147W        W81565   2.762  29.099   1.862
13148W        W81566  38.345  10.141   0.245
13149W        W81567  28.096  38.995   2.846
13150W        W81568  37.991   7.285   0.350
13151W        W81569  33.099  33.618   1.443
13152W        W81570  24.532  13.772  11.937
13153W        W81571  42.015  40.340   2.792
13154W        W81572  37.920  27.505   4.809
13155W        W81573   5.832  18.624  14.873
13156W        W81574  14.130  20.724   0.949
13157W        W81575   6.265  33.514   0.476
13158W        W81576  38.557  17.746  11.603
13159W        W81577   8.679  25.029  11.082
13160W        W81578  41.998  42.453   0.348
13161W        W81579   2.908   0.294   4.255
13162W        W81580  33.617   0.270  12.491
13163W        W81581  24.707  14.817   3.385
13164W        W81582  11.838  15.791  13.958
13165W        W81583  31.083   8.265  14.380
13166W        W81584  36.582  22.053   4.825
13167W        W81585  44.381   2.243  14.491
13168W        W81586  15.248  17.194   2.188
13169W        W81587   8.701  28.175   4.230
13170W        W81588  36.491  22.083   1.840
13171W        W81589   1.846  28.004   4.691
13172W        W81590  43.391  41.917  13.805
13173W        W81591  23.124   4.333   1.730
13174W        W81592  20.635  25.688   4.186
13175W        W81593  17.262  21.625   1.915
13176W        W81594  35.966  20.166  12.436
13177W        W81595  41.300  13.833  10.601
13178W        W81596   2.750  43.785  14.812
13179W        W81597   2.963  28.001  12.077
13180W        W81598   9.305  12.659  11.124
13181W        W81599   3.414  34.976   0.263
13182W        W81600  21.679  22.712  13.358
13183W        W81601  20.045  40.307   3.672
13184W        W81602  39.501  42.928   4.167
13185W        W81603  43.829  32.487  14.918
13186W        W81604  30.435  12.621  13.392
13187W        W81605   7.301  14.824   0.921
13188W        W81606  26.115  16.767   3.790
13189W        W81607  41.937  15.751  10.467
13190W        W81608  24.993  41.396  14.341
13191W        W81609  30.535  26.996   4.654
13192W        W81610  15.727  19.051  10.482
13193W        W81611  43.433  24.694  13.515
13194W        W81612  17.750  15.726  11.424
13195W        W81613  13.152  41.982   4.669
13196W        W81614  16.733  35.977   1.231
13197W        W81615  34.885   9.291   0.446
13198W        W81616  33.598  32.474   3.655
13199W        W81617  17.563  13.166  14.503
13200W        W81618  39.315  38.372   0.865
13201W        W81619   7.393  25.570  13.384
13202W        W81620  26.545   7.748  13.328
13203W        W81621  11.152  26.999  11.422
13204W        W81622  28.534   1.367  14.299
13205W        W81623  22.632  42.420   3.284
13206W        W81624  25.105  21.107   0.844
13207W        W81625  16.164   5.907   1.793
13208W        W81626  14.688  40.966   0.258
13209W        W81627  27.601  43.857   2.279
13210W        W81628  17.130   9.820   3.375
13211W        W81629   5.712   8.393   0.390
13212W        W81630  10.360  43.857   1.755
13213W        W81631   6.404  41.968  14.391
13214W        W81632  32.074  10.851   1.901
13215W        W81633  36.991  32.004  10.513
13216W        W81634  21.094  34.117   2.887
13217W        W81635  12.280   7.834   3.635
13218W        W81636  42.012  44.880   1.758
13219W        W81637  40.976  35.487   3.280
13220W        W81638   6.804  16.289  13.341
13221W        W81639  32.074  17.165   4.158
13222W        W81640  19.108   1.336   1.418
13223W        W81641  19.267  26.057   4.808
13224W        W81642  36.901  43.412   4.235
13225W        W81643  34.534  13.180  13.362
13226W        W81644  11.298  16.128  11.942
13227W        W81645  23.104   4.851   1.230
13228W        W81646   1.862  43.774   4.202
13229W        W81647   5.804  34.464   1.326
13230W        W81648  20.152  28.670   2.333
13231W        W81649  38.069   4.337   2.744
13232W        W81650  40.048  24.996  12.833
13233W        W81651   1.939  18.688  12.460
13234W        W81652  31.434  32.625  13.019
13235W        W81653  11.193   7.767   2.781
13236W        W81654   2.297  41.006  14.947
13237W        W81655  37.885   2.923  12.470
13238W        W81656  26.561  26.618  14.319
13239W        W81657  18.052   1.301   4.130
13240W        W81658  24.104  29.962   3.178
13241W        W81659  37.488  40.866   0.371
13242W        W81660   0.466   7.716   2.347
13243W        W81661  36.471  42.332   0.777
13244W        W81662   6.245  27.075  11.025
13245W        W81663  40.940  33.112  14.909
13246W        W81664  24.716  34.434  13.819
13247W        W81665  25.679  18.738  14.031
13248W        W81666  29.600  37.944  11.933
13249W        W81667  27.458  32.943  12.460
13250W        W81668   0.796  21.225   2.316
13251W        W81669  18.768  44.407  14.806
13252W        W81670  34.965  43.499   1.246
13253W        W81671  35.465  33.538  10.573
13254W        W81672  20.103  18.114   9.943
13255W        W81673   3.868  40.982   0.277
13256W        W81674  14.136  39.893  10.634
13257W        W81675  31.465  42.812  14.399
13258W        W81676  24.991   2.365   2.250
13259W        W81677   0.478  38.459   4.115
13260W        W81678   3.801   5.766  11.562
13261W        W81679  42.378  42.502   4.804
13262W        W81680  42.289   4.264   4.725
13263W        W81681  32.033  40.028   1.356
13264W        W81682  40.817  44.932  12.829
13265W        W81683   0.386  12.143   2.311
13266W        W81684  26.137   1.944  10.451
13267W        W81685  32.142  37.496  12.452
13268W        W81686  12.317  36.415  11.399
13269W        W81687  31.074  28.595   2.218
13270W        W81688   4.918  35.063  10.451
13271W        W81689   9.732  39.444  10.569
13272W        W81690  13.177  12.154   2.880
13273W        W81691   9.325  22.692  11.372
13274W        W81692  42.308  28.186  10.908
13275W        W81693   0.341  20.654  13.368
13276W        W81694   3.922  13.759  11.563
13277W        W81695  40.938  40.034  11.398
13278W        W81696  33.599  29.635   5.181
13279W        W81697   2.470  34.084  11.399
13280W        W81698  34.895  26.577  13.964
13281W        W81699  27.080  22.577   1.323
13282W        W81700  43.384  34.941  10.410
13283W        W81701  26.471  20.677  11.978
13284W        W81702  22.139  11.297  14.298
13285W        W81703  43.903  29.985  11.896
13286W        W81704   0.977   9.754  13.902
13287W        W81705  43.993  20.150  10.606
13288W        W81706  32.030  13.774   4.174
13289W        W81707   9.180   0.971  10.637
13290W        W81708  41.414   2.906  10.947
13291W        W81709  20.268  13.205   1.442
13292W        W81710  32.436  32.544   1.378
13293W        W81711   1.826  19.181   1.744
13294W        W81712  35.576  36.952   5.719
13295W        W81713  15.118  31.463   2.879
13296W        W81714  10.850   6.813   0.455
13297W        W81715  28.937   4.807  11.033
13298W        W81716  27.459  31.078  11.544
13299W        W81717   1.480  37.559  14.374
13300W        W81718  36.573   8.272  14.293
13301W        W81719   4.328   7.294  10.542
13302W        W81720   5.827   1.249   3.379
13303W        W81721   7.747  18.210  10.101
13304W        W81722   3.809  36.073  11.488
13305W        W81723   4.899  23.222  13.794
13306W        W81724  12.779   1.795  13.536
13307W        W81725  15.723  24.593   1.758
13308W        W81726  10.145  41.344   0.848
13309W        W81727  30.990  39.043   0.771
13310W        W81728   2.860  23.659   2.247
13311W        W81729  29.071  35.495  12.375
13312W        W81730  37.945  36.456   4.766
13313W        W81731  28.622  38.552  14.347
13314W        W81732  26.016  24.054  13.989
13315W        W81733   2.314  29.045  11.974
13316W        W81734   9.666  15.119   0.939
13317W        W81735  38.490  18.174  14.916
13318W        W81736  15.777  26.148   3.644
13319W        W81737  10.254  13.122   1.766
13320W        W81738  12.355  43.497   2.244
13321W        W81739   4.307  26.187   0.417
13322W        W81740   0.382  11.372  13.815
13323W        W81741  35.891   6.326  14.357
13324W        W81742  16.770  24.676  14.505
13325W        W81743   7.337  38.035   0.481
13326W        W81744  34.580  36.455   2.733
13327W        W81745  14.711  42.842  14.418
13328W        W81746  18.778  24.982   5.706
13329W        W81747  25.018  42.838  14.479
13330W        W81748   9.836  37.998  10.634
13331W        W81749  34.056  28.017  11.962
13332W        W81750  27.965  28.115   1.401
13333W        W81751  16.750   4.717   3.340
13334W        W81752  35.995  24.498   2.405
13335W        W81753  20.214   6.810  10.907
13336W        W81754  12.827  25.506   1.281
13337W        W81755  27.487  24.146   3.303
13338W        W81756  23.008  44.301   4.167
13339W        W81757  39.028  32.458   1.409
13340W        W81758  40.434   1.949  12.536
13341W        W81759  13.287  14.596  11.386
13342W        W81760  11.738  21.639  13.855
13343W        W81761  13.214  44.418   9.969
13344W        W81762  23.140   5.712   0.811
13345W        W81763  30.623  19.573   0.331
13346W        W81764   3.399   3.253  14.434
13347W        W81765  32.521  22.121   2.723
13348W        W81766  25.114  14.291  14.376
13349W        W81767  42.412  36.056   1.330
13350W        W81768  16.719  14.122   1.216
13351W        W81769  40.310  28.629  14.903
13352W        W81770   4.710   8.822  13.947
13353W        W81771   4.421  44.005   4.817
13354W        W81772  16.253  26.160   3.267
13355W        W81773  34.903  16.616  13.328
13356W        W81774  41.944  44.473  11.118
13357W        W81775  19.754  15.595   4.250
13358W        W81776  30.933  25.531   4.689
13359W        W81777  31.942  11.851   5.107
13360W        W81778  29.111  38.975   2.244
13361W        W81779  42.460   1.766   1.909
13362W        W81780   1.932   5.875  12.895
13363W        W81781  35.916  35.472  14.280
13364W        W81782  11.186  12.272   2.808
13365W        W81783  20.730  35.877   1.784
13366W        W81784  25.569  32.574  13.793
13367W        W81785  14.163  24.646  12.939
13368W        W81786  38.013  18.239  11.993
13369W        W81787  41.341  21.223   1.347
13370W        W81788  37.056  20.745   0.853
13371W        W81789   1.831  37.950   1.297
13372W        W81790  21.064   8.773   4.301
13373W        W81791   8.843   5.275   0.407
13374W        W81792  19.151  11.822  11.442
13375W        W81793  14.257  26.044   1.331
13376W        W81794  23.549  35.903   4.235
13377W        W81795  36.098  29.495   4.777
13378W        W81796  23.056   2.434  13.060
13379W        W81797  34.046  32.942   0.444
13380W        W81798  43.429   8.762  12.961
13381W        W81799  41.833  19.064  10.421
13382W        W81800   9.386  28.988  12.018
13383W        W81801  35.400  27.131  11.088
13384W        W81802  31.554  29.640   4.172
13385W        W81803  19.608   8.869   1.804
13386W        W81804  15.089  28.105   4.246
13387W        W81805  18.711   9.371   2.256
13388W        W81806  35.454  11.645   1.739
13389W        W81807   3.762  34.455   4.292
13390W        W81808  33.061   9.880  13.495
13391W        W81809   8.777  14.600  11.926
13392W        W81810  28.158   8.306  11.962
13393W        W81811  42.464   2.953   3.255
13394W        W81812  37.532  12.759   2.875
13395W        W81813  15.804  44.801  10.416
13396W        W81814   3.233  28.599  10.443
13397W        W81815  36.423  33.620  13.405
13398W        W81816  12.794   8.864  13.326
13399W        W81817  43.920  28.636   2.772
13400W        W81818   3.791   6.881   0.324
13401W        W81819  17.262  40.043   1.437
13402W        W81820  33.883  36.479   3.217
13403W        W81821  13.336  31.044  10.478
13404W        W81822  21.615  26.592   3.725
13405W        W81823  35.466  41.820  13.345
13406W        W81824   4.281   0.308  11.518
13407W        W81825  33.941  18.135  11.016
13408W        W81826  10.319  11.860   5.186
13409W        W81827  26.621  40.543   0.796
13410W        W81828  44.391  39.417   2.743
13411W        W81829  37.447  43.903  13.884
13412W        W81830  12.703  37.339  11.595
13413W        W81831  42.798  11.767   4.835
13414W        W81832   3.436  27.954   0.803
13415W        W81833   7.369  39.924   2.708
13416W        W81834  13.287  39.828   2.726
13417W        W81835  18.731  35.480  12.935
13418W        W81836   1.411  21.723  12.486
13419W        W81837  20.612  39.544   1.786
13420W        W81838   4.812  41.459  10.124
13421W        W81839  11.646  10.672  11.412
13422W        W81840  33.598  20.176   4.215
13423W        W81841  10.156  40.966   2.358
13424W        W81842  28.052  24.671  10.514
13425W        W81843  41.035  19.621   3.859
13426W        W81844  25.146  39.831   1.372
13427W        W81845  11.363   8.287   1.210
13428W        W81846  21.030  44.828   0.247
13429W        W81847  43.394  33.105  13.860
13430W        W81848   6.336  18.630  14.933
13431W        W81849  36.571  30.417  12.970
13432W        W81850  20.086   9.391   1.418
13433W        W81851  14.681  44.375  10.542
13434W        W81852  30.011  42.891  10.423
13435W        W81853  37.899  44.332   1.440
13436W        W81854  16.805  11.274   1.269
13437W        W81855  41.344  16.742  10.581
13438W        W81856  40.821  12.272   3.762
13439W        W81857  10.847   6.750   3.862
13440W        W81858  19.240  37.970   3.337
13441W        W81859  12.164  24.186   2.846
13442W        W81860  37.404  33.113  10.466
13443W        W81861   6.752   6.753   2.667
13444W        W81862  43.275  26.034   3.729
13445W        W81863  27.082  15.785  12.576
13446W        W81864  43.295  39.891   0.473
13447W        W81865   3.333   8.293  14.312
13448W        W81866  43.805   7.297  10.956
13449W        W81867  30.025  21.593  12.510
13450W        W81868  18.633   5.851  10.994
13451W        W81869  24.522   6.864  12.865
13452W        W81870  12.335  28.567  13.815
13453W        W81871  17.278  40.347   4.160
13454W        W81872  18.214  20.148   4.234
13455W        W81873  23.619   7.704  12.483
13456W        W81874  40.850  33.997   0.962
13457W        W81875   6.919  13.348   1.806
13458W        W81876  37.884  28.634   4.344
13459W        W81877  12.296  43.288  13.403
13460W        W81878  36.952  39.468   3.374
13461W        W81879  44.267  10.662  13.351
13462W        W81880  44.865  22.645  13.894
13463W        W81881  36.405  35.097   3.785
13464W        W81882  44.902   7.894   3.807
13465W        W81883   0.331  38.016  13.849
13466W        W81884  39.808  40.025  12.008
13467W        W81885  42.387   7.756   0.816
13468W        W81886  20.645  17.726   4.711
13469W        W81887   9.318  36.366   2.871
13470W        W81888  28.438  11.716  14.391
13471W        W81889   4.373   4.333   2.827
13472W        W81890   4.324   3.450  12.411
13473W        W81891  17.069  11.788   5.149
13474W        W81892  40.420  13.778  12.373
13475W        W81893   5.342  22.031  12.829
13476W        W81894   0.829  12.222  11.569
13477W        W81895  39.980  23.029   0.880
13478W        W81896  31.920  18.057   2.676
13479W        W81897   6.186  14.190  10.610
13480W        W81898  16.226  14.774  14.803
13481W        W81899   8.306  44.754   2.756
13482W        W81900  17.751  19.649   4.662
13483W        W81901  14.293  21.192  12.843
13484W        W81902  24.668  38.412   3.738
13485W        W81903  19.115   3.430  11.031
13486W        W81904  27.616  28.479  12.087
13487W        W81905  30.009  10.342  10.528
13488W        W81906  30.510   1.258  14.987
13489W        W81907   3.747   5.694   0.441
13490W        W81908  26.488   6.781   4.317
13491W        W81909  27.524  18.609  10.896
13492W        W81910  24.179  21.554  12.963
13493W        W81911  25.133  14.717   0.438
13494W        W81912  23.574  12.121  11.491
13495W        W81913  10.809  14.301   2.229
13496W        W81914  37.518  22.178  11.444
13497W        W81915  42.954  40.921   2.767
13498W        W81916   6.732  15.180  12.898
13499W        W81917  44.365  35.061  12.887
13500W        W81918  42.365   5.708   0.922
13501W        W81919  40.391  29.616  10.474
13502W        W81920   0.469  14.223  10.405
13503W        W81921   0.360  12.263  14.452
13504W        W81922  22.232   8.777  13.935
13505W        W81923  37.937   2.470  10.935
13506W        W81924  28.581  21.701   1.935
13507W        W81925   5.853  33.534  12.546
13508W        W81926  30.588  18.051   1.890
13509W        W81927  42.799  38.465  12.927
13510W        W81928  13.252  31.563   1.920
13511W        W81929  27.153  23.132  10.407
13512W        W81930  12.359  26.572  10.528
13513W        W81931  31.143  32.497  10.552
13514W        W81932  34.009  13.336  13.328
13515W        W81933  33.967  16.134   0.860
13516W        W81934  18.191   1.462  12.575
13517W        W81935  21.202  24.518  14.952
13518W        W81936  36.505   0.811  12.014
13519W        W81937  35.417  29.609   3.767
13520W        W81938  36.541   5.833   3.807
13521W        W81939   3.315  21.644  14.022
13522W        W81940   6.881  27.454   4.268
13523W        W81941  27.973  19.093  12.996
13524W        W81942  34.595  14.818   2.845
13525W        W81943   8.865  37.508  13.859
13526W        W81944  15.627  39.029   3.675
13527W        W81945  35.425  18.084  12.909
13528W        W81946  36.520  16.118  10.404
13529W        W81947  25.688  43.969  13.939
13530W        W81948   3.366  39.547   0.857
13531W        W81949  44.439  27.532  14.030
13532W        W81950  19.065   5.310   2.197
13533W        W81951   3.803  44.331  10.887
13534W        W81952  32.619  11.164  12.405
13535W        W81953  13.131  28.093   3.208
13536W        W81954  28.083  31.094  13.398
13537W        W81955  42.009  31.616   2.777
13538W        W81956   7.668  16.279   2.255
13539W        W81957  16.609  37.457  14.768
13540W        W81958  22.236  16.224  13.794
13541W        W81959  21.604  41.933  11.053
13542W        W81960  44.264  13.667   0.886
13543W        W81961  14.654  12.715  10.996
13544W        W81962  29.037  43.344   1.784
13545W        W81963  40.338  42.024   2.269
13546W        W81964  21.079   3.867  13.899
13547W        W81965  24.657   1.893  13.366
13548W        W81966  40.916   6.832  12.039
13549W        W81967  15.616  29.021  11.989
13550W        W81968   5.195  13.229   1.695
13551W        W81969  34.894   8.164  14.970
13552W        W81970   9.167  40.336   0.798
13553W        W81971  44.270  10.681   1.223
13554W        W81972   6.248  11.359  13.827
13555W        W81973  39.020  20.654  11.905
13556W        W81974  15.597  13.121   0.843
13557W        W81975  38.976   2.840   1.427
13558W        W81976  16.673  19.589  11.577
13559W        W81977  17.178  43.416   0.896
13560W        W81978   1.311   8.318   0.848
13561W        W81979  38.569  43.918  10.444
13562W        W81980  22.508  25.979  13.886
13563W        W81981  12.241  24.528   3.243
13564W        W81982   8.742  10.768   4.188
13565W        W81983  32.025   2.862   4.176
13566W        W81984  10.324  10.186   0.769
13567W        W81985  13.117  26.506  14.903
13568W        W81986  17.626  20.203  14.328
13569W        W81987  17.705   3.891   2.315
13570W        W81988  29.160  23.600   4.308
13571W        W81989  24.591  31.440  10.474
13572W        W81990  40.918   3.373   2.704
13573W        W81991   7.747  37.545   3.380
13574W        W81992   7.393  29.591   0.795
13575W        W81993  43.941  13.621  12.502
13576W        W81994  40.891  29.124   4.127
13577W        W81995  34.579  11.846  12.524
13578W        W81996  17.754  30.163  11.380
13579W        W81997  23.730  28.107  13.523
13580W        W81998   4.839  43.462  10.993
13581W        W81999  38.468   8.238   0.297
13582W        W82000  40.417   5.249   1.425
13583W        W82001   9.765  29.063  14.388
13584W        W82002  28.501  43.324  10.931
13585W        W82003  40.839  11.796   2.313
13586W        W82004  21.642  15.818  14.301
13587W        W82005  20.150  14.816  12.031
13588W        W82006  15.703  15.324  12.339
13589W        W82007  31.637   8.229  14.469
13590W        W82008  37.990  43.312  11.448
13591W        W82009  34.112  22.744  14.771
13592W        W82010  37.420  40.331   3.827
13593W        W82011  14.695  28.514   0.283
13594W        W82012  30.085  21.141   2.883
13595W        W82013  24.178  20.117   3.651
13596W        W82014  16.584  18.590  11.498
13597W        W82015  40.425  38.869  14.802
13598W        W82016  33.601  19.183  10.536
13599W        W82017   7.802  21.655   0.845
13600W        W82018  35.586  18.117  10.589
13601W        W82019  14.301  14.700   1.265
13602W        W82020   9.658  10.355   0.841
13603W        W82021  16.761  19.191  13.874
13604W        W82022  32.579  17.295   4.118
13605W        W82023   7.793   1.961   0.804
13606W        W82024  27.469  18.692   1.301
13607W        W82025  23.209  37.562  11.090
13608W        W82026   9.705   3.303   3.363
13609W        W82027   6.751   4.352   2.769
13610W        W82028  25.534  23.647   4.211
13611W        W82029   1.945  27.643   0.736
13612W        W82030   7.879  22.634   2.340
13613W        W82031  10.219  40.853  13.419
13614W        W82032  14.189  20.269   2.376
13615W        W82033   4.254   5.313  13.008
13616W        W82034  14.149  21.556   1.325
13617W        W82035  33.991   2.901  12.394
13618W        W82036  44.980   1.355  14.506
13619W        W82037  36.532   3.797   0.473
13620W        W82038  42.523  23.004  14.833
13621W        W82039  37.498   1.468   0.728
13622W        W82040  29.066   2.863   2.212
13623W        W82041   0.362   1.947   4.145
13624W        W82042  11.631   6.194   3.818
13625W        W82043  27.628  25.073   3.716
13626W        W82044   4.824  34.371   0.267
13627W        W82045  37.485  35.502  14.889
13628W        W82046  27.969  14.831   1.879
13629W        W82047  10.192  32.637   5.249
13630W        W82048  40.987  33.091   0.289
13631W        W82049  37.917  18.087   3.200
13632W        W82050  38.539   6.902  14.937
13633W        W82051  24.035   3.392   4.629
13634W        W82052  20.565  14.180   2.299
13635W        W82053  40.942   0.946   4.210
13636W        W82054   5.791  10.354  10.104
13637W        W82055  43.797  17.664  13.009
13638W        W82056  38.550  34.470  11.050
13639W        W82057  41.043  23.183   1.306
13640W        W82058  23.578  37.376  11.385
13641W        W82059  41.374  32.559   4.145
13642W        W82060  28.510  39.878  12.465
13643W        W82061  38.006  10.792   4.768
13644W        W82062  32.616  27.122  13.454
13645W        W82063   5.734   1.863   0.844
13646W        W82064  33.559   7.345  12.356
13647W        W82065   9.881   9.795   2.744
13648W        W82066  43.878  12.314  11.021
13649W        W82067  28.524  28.500  12.046
13650W        W82068   1.805  23.098   3.871
13651W        W82069  12.328  31.525   1.866
13652W        W82070  36.377   0.829   4.159
13653W        W82071  40.353  23.013  14.009
13654W        W82072  39.047  15.632   1.926
13655W        W82073  40.415   0.936   4.255
13656W        W82074  32.961  15.626   1.345
13657W        W82075  32.064  31.903   0.431
13658W        W82076  12.696  42.824  13.361
13659W        W82077  13.632  25.517  11.127
13660W        W82078  13.705  10.711  14.844
13661W        W82079  13.147  32.434  12.089
13662W        W82080  41.434  10.742  11.569
13663W        W82081  21.689  18.787  11.099
13664W        W82082   5.212  18.658   1.315
13665W        W82083  14.151  19.575  13.918
13666W        W82084   9.327  37.054  14.308
13667W        W82085  41.035  36.581  12.987
13668W        W82086  33.380  34.116  10.593
13669W        W82087   9.762   0.407  10.545
13670W        W82088  33.023  30.428  14.879
13671W        W82089  30.915  17.741   4.319
13672W        W82090   6.785   4.338   1.301
13673W        W82091  19.123  20.181   0.941
13674W        W82092   8.193  23.196  12.536
13675W        W82093  19.758  39.355   3.778
13676W        W82094   6.837   8.736  11.508
13677W        W82095   5.876  23.673  10.635
13678W        W82096  26.593  28.515   3.153
13679W        W82097  23.179  22.209  10.427
13680W        W82098  29.640   5.370  10.408
13681W        W82099  14.270  25.013   3.333
13682W        W82100  29.463  39.452   4.808
13683W        W82101  32.485  38.869  10.022
13684W        W82102  42.874  29.025   4.621
13685W        W82103  32.983  31.153  10.988
13686W        W82104  27.559   8.869  12.050
13687W        W82105   7.897  19.643   0.922
13688W        W82106   2.814  21.632   2.894
13689W        W82107  29.924  14.265  13.063
13690W        W82108   0.863  26.545  14.498
13691W        W82109   8.711   9.314  10.425
13692W        W82110  30.106  17.573   0.315
13693W        W82111   8.867  13.687   2.824
13694W        W82112  25.590   9.793  12.993
13695W        W82113  17.613  28.561  11.864
13696W        W82114   8.721   3.410  12.414
13697W        W82115  28.989  31.033   2.771
13698W        W82116  20.526  28.145  11.583
13699W        W82117  39.892  31.118  11.915
13700W        W82118  23.612   6.694  12.948
13701W        W82119   9.283  21.158  14.422
13702W        W82120  12.831  21.596   1.859
13703W        W82121  40.943  31.598   3.698
13704W        W82122  19.593  38.980  13.888
13705W        W82123  24.591  21.515  12.500
13706W        W82124   0.260  22.169   5.777
13707W        W82125  40.304  23.030   3.635
13708W        W82126   9.759  42.285  11.917
13709W        W82127  27.478  43.301  12.469
13710W        W82128  29.032  35.092  14.397
13711W        W82129  27.645   3.729   2.312
13712W        W82130  38.903  43.278  10.935
13713W        W82131  13.138  11.129   4.115
13714W        W82132  41.832  43.443   2.257
13715W        W82133   6.197  41.304   5.087
13716W        W82134  12.249   8.373   3.267
13717W        W82135   5.304  14.328  14.394
13718W        W82136  39.977  13.296  13.033
13719W        W82137  27.532  24.508   3.333
13720W        W82138   3.827  27.637  12.044
13721W        W82139  33.553  28.561   2.416
13722W        W82140  25.129  15.232  11.448
13723W        W82141   4.866  42.525   5.153
13724W        W82142   0.744  31.011   2.292
13725W        W82143  31.018   5.214  14.301
13726W        W82144  14.742  13.763  12.402
13727W        W82145  23.172  22.165  14.339
13728W        W82146  14.590  33.454   2.205
13729W        W82147  10.809   3.302  13.371
13730W        W82148  34.590  21.554  13.941
13731W        W82149  35.026  20.579   1.216
13732W        W82150  30.650   0.830   4.809
13733W        W82151  29.044  23.210  10.494
13734W        W82152  17.768  38.031  10.485
13735W        W82153  24.995   2.829   1.901
13736W        W82154  35.401   9.879   2.663
13737W        W82155  25.966  21.636  10.502
13738W        W82156  32.003   6.217  11.044
13739W        W82157  31.132  25.629  14.300
13740W        W82158  32.022  25.683   2.699
13741W        W82159  42.853   0.466  13.992
13742W        W82160   9.328   9.160  11.610
13743W        W82161  17.118  29.510  12.378
13744W        W82162  32.429  22.066   0.730
13745W        W82163   8.820  33.538   2.704
13746W        W82164  38.368  12.347   3.267
13747W        W82165  17.121  14.131  10.921
13748W        W82166   5.238  36.431   0.408
13749W        W82167  36.558  21.524   1.229
13750W        W82168  40.884   3.219  12.388
13751W        W82169  16.746   5.931   1.890
13752W        W82170  28.994  31.498  13.849
13753W        W82171  30.143   7.267  13.951
13754W        W82172  23.182  22.148   3.764
13755W        W82173  26.533  13.218   0.296
13756W        W82174  22.011   2.387   1.265
13757W        W82175  20.227  17.580   3.173
13758W        W82176   5.225  19.621  11.959
13759W        W82177   9.791  44.003   2.889
13760W        W82178   8.813   1.244   3.276
13761W        W82179  33.028  19.260   2.336
13762W        W82180  31.546  44.386   3.835
13763W        W82181  26.571   5.873  11.856
13764W        W82182  13.719  18.636   0.820
13765W        W82183  33.541  40.027   4.143
13766W        W82184   1.946  13.202   2.844
13767W        W82185  31.153   1.269   1.368
13768W        W82186  44.297  33.017  11.103
13769W        W82187  27.186   3.227   2.754
13770W        W82188  33.466   0.930  14.874
13771W        W82189  18.762   6.897   0.728
13772W        W82190  12.201  24.993  14.299
13773W        W82191  13.320   7.757  11.068
13774W        W82192   4.863  43.498   0.836
13775W        W82193   4.813  24.159   4.232
13776W        W82194  40.020  24.543   0.382
13777W        W82195  26.109  35.997   2.213
13778W        W82196   3.454   8.356   1.225
13779W        W82197  26.172  14.661  13.500
13780W        W82198  39.331   9.304   0.924
13781W        W82199  43.958  22.563  12.031
13782W        W82200   4.924  30.927  13.457
13783W        W82201  17.267  26.163   2.293
13784W        W82202  39.848   4.257   0.806
13785W        W82203  33.413  39.944  13.791
13786W        W82204   6.344  25.684   1.345
13787W        W82205  24.686  40.975  14.393
13788W        W82206   0.467  37.031  12.843
13789W        W82207   4.261  40.952   1.443
13790W        W82208  30.997  13.750  13.041
13791W        W82209  14.738   6.809   0.374
13792W        W82210  19.695  38.999  14.851
13793W        W82211  15.100  17.764  14.473
13794W        W82212  43.995  27.649  11.894
13795W        W82213   5.785  37.987   3.321
13796W        W82214  10.846   1.315   3.224
13797W        W82215  38.507  35.455  10.930
13798W        W82216  14.249  39.875   9.987
13799W        W82217  25.093  39.369  13.811
13800W        W82218  29.448  22.669  13.001
13801W        W82219  16.657  20.137  14.461
13802W        W82220  37.578  14.631  14.433
13803W        W82221  22.661  36.965  14.400
13804W        W82222   7.171  44.885   2.688
13805W        W82223  36.583  11.312   0.805
13806W        W82224  29.096  41.036   2.807
13807W        W82225  24.127  24.018   1.379
13808W        W82226   2.894  26.686   1.324
13809W        W82227  28.976   9.159   3.318
13810W        W82228  33.974  18.762  13.973
13811W        W82229  23.699  38.441   1.299
13812W        W82230  42.298  35.604   0.451
13813W        W82231  44.760   3.301  14.839
13814W        W82232   3.369  18.728   4.676
13815W        W82233  36.883  37.356  14.345
13816W        W82234  31.635  14.299  13.322
13817W        W82235  14.247  34.088   3.294
13818W        W82236  43.322  32.476  13.367
13819W        W82237  18.584  40.545  11.909
13820W        W82238  43.290  23.080   3.643
13821W        W82239  37.490  14.746   3.863
13822W        W82240  37.013  20.727  12.035
13823W        W82241  19.230  33.431  14.985
13824W        W82242  24.556  16.227  14.889
13825W        W82243  29.605   9.214  13.038
13826W        W82244  37.009   4.921  10.501
13827W        W82245  25.501  13.327   1.288
13828W        W82246  31.032  26.539  13.868
13829W        W82247   2.422   3.452  14.869
13830W        W82248  35.081  19.220   1.831
13831W        W82249  38.427   4.858  12.531
13832W        W82250  42.412  14.678  12.899
13833W        W82251  21.217  38.988   2.278
13834W        W82252  37.842  12.269  12.915
13835W        W82253  18.279   4.375   3.746
13836W        W82254  29.573   3.885  11.487
13837W        W82255  43.294   8.183  12.355
13838W        W82256  30.653   2.766  14.022
13839W        W82257  34.001   8.382  11.590
13840W        W82258  12.300  20.274   3.778
13841W        W82259  20.718  25.136  12.044
13842W        W82260  34.921  34.531  12.090
13843W        W82261  44.895  12.331   1.386
13844W        W82262   6.686  40.509  12.390
13845W        W82263  15.288  42.872   4.768
13846W        W82264   6.677  28.622  11.964
13847W        W82265  30.071   6.708  14.990
13848W        W82266  19.774  31.141   4.831
13849W        W82267  30.022   6.896  14.326
13850W        W82268  28.955  38.830   3.160
13851W        W82269  10.167  42.874   3.214
13852W        W82270  43.014  14.636   4.185
13853W        W82271  20.752   7.364   1.768
13854W        W82272   0.929  17.615  14.929
13855W        W82273  16.297  11.660  12.542
13856W        W82274   3.356   3.839  12.529
13857W        W82275  30.149  43.341   0.771
13858W        W82276  41.006  17.200   1.441
13859W        W82277  35.536  43.933  11.483
13860W        W82278  30.020  35.447  12.940
13861W        W82279  15.699  34.525  10.081
13862W        W82280  15.280  10.322   0.276
13863W        W82281  43.408   7.298  11.593
13864W        W82282  44.275  36.096   0.905
13865W        W82283  24.162  16.653   2.369
13866W        W82284  35.100  23.539  11.383
13867W        W82285   6.198  39.906   0.376
13868W        W82286  35.582  24.065  12.873
13869W        W82287   7.186  34.963  14.927
13870W        W82288  37.894  41.890   0.416
13871W        W82289  21.726  21.028   3.300
13872W        W82290  17.078  38.337  13.033
13873W        W82291   6.917  30.030  14.865
13874W        W82292  30.970  31.947  12.398
13875W        W82293  12.634  21.171  12.059
13876W        W82294  30.496  14.701   3.765
13877W        W82295  37.879  28.447  12.573
13878W        W82296  23.615  13.813   4.825
13879W        W82297  16.313   6.878  13.308
13880W        W82298  36.405  11.213   4.828
13881W        W82299  43.922  29.173  14.910
13882W        W82300   2.890  20.212   0.828
13883W        W82301  40.350  25.647  11.375
13884W        W82302  36.367   7.199  13.820
13885W        W82303  30.512  10.290  12.950
13886W        W82304   2.864   4.356  12.406
13887W        W82305   2.302  21.175  10.626
13888W        W82306  25.160  11.831   3.166
13889W        W82307  32.631  13.244  14.912
13890W        W82308   9.289  44.333  10.157
13891W        W82309  37.948  15.748  12.877
13892W        W82310  15.658   7.173   3.370
13893W        W82311  38.372  17.574   0.480
13894W        W82312  21.250  21.684   4.176
13895W        W82313  40.859  26.613   0.423
13896W        W82314  26.486  25.219  13.036
13897W        W82315  19.600  11.180   0.380
13898W        W82316  39.817  34.416  12.550
13899W        W82317  11.349  28.982  13.835
13900W        W82318  43.852  18.181  13.530
13901W        W82319  26.067  23.134  13.022
13902W        W82320   6.899  16.282  12.502
13903W        W82321   0.770  35.952  13.978
13904W        W82322  40.383  19.714  10.503
13905W        W82323  32.131  40.406   4.628
13906W        W82324  27.460  44.976   4.670
13907W        W82325  28.016  34.116   3.662
13908W        W82326  44.288  43.841   4.724
13909W        W82327  31.641  14.248   4.114
13910W        W82328  29.463  43.857  13.944
13911W        W82329   9.811   9.663   3.368
13912W        W82330  38.931  29.623  14.319
13913W        W82331  17.785  20.555   4.237
13914W        W82332  30.946  30.578  10.938
13915W        W82333  42.325  33.085  10.977
13916W        W82334  30.111  38.535   1.313
13917W        W82335  26.195   0.491   2.739
13918W        W82336  41.959  16.677  13.943
13919W        W82337   8.384   0.776  11.982
13920W        W82338  14.235  31.571  12.070
13921W        W82339  38.919  29.986   0.855
13922W        W82340  25.629  33.066  11.123
13923W        W82341  30.122  43.985   3.630
13924W        W82342  24.512   6.338   0.330
13925W        W82343  29.546  25.158  11.090
13926W        W82344   9.291  24.129  13.339
13927W        W82345  38.924   2.233   1.813
13928W        W82346  20.558  30.494   3.640
13929W        W82347  23.572   5.201  10.998
13930W        W82348   2.270  29.128   1.351
13931W        W82349  38.523  31.102   2.178
13932W        W82350  38.055  32.052  14.816
13933W        W82351  14.283  17.254   4.348
13934W        W82352  19.191  25.714  11.995
13935W        W82353  11.696  21.636   2.672
13936W        W82354  12.209  20.222   3.267
13937W        W82355  17.771  24.608  11.083
13938W        W82356   3.449  38.528   4.147
13939W        W82357  31.469  25.698   0.865
13940W        W82358   1.482  35.065   4.774
13941W        W82359   5.222  41.526  12.995
13942W        W82360   4.258  23.490   1.848
13943W        W82361  19.778  21.700   1.910
13944W        W82362  35.526  22.594  11.478
13945W        W82363  44.976   8.374   3.861
13946W        W82364   5.895  29.503  14.910
13947W        W82365   5.908   9.797  10.548
13948W        W82366  17.091  12.621  13.542
13949W        W82367  44.961  28.585  11.572
13950W        W82368  15.155  23.556   1.784
13951W        W82369  44.862   6.307   2.383
13952W        W82370  23.603   2.917  10.630
13953W        W82371  44.461  10.255  11.058
13954W        W82372   8.704  25.167  10.071
13955W        W82373  35.003  25.192  13.869
13956W        W82374  40.485  42.005   3.631
13957W        W82375  36.938   9.370   1.422
13958W        W82376  24.604  13.256   2.871
13959W        W82377  15.210  13.743  11.018
13960W        W82378  22.071  18.280  12.516
13961W        W82379  38.837  11.725  10.520
13962W        W82380  43.933  40.887   3.292
13963W        W82381  21.063   2.306  13.513
13964W        W82382   0.746  30.517  14.890
13965W        W82383   9.874  36.050  11.553
13966W        W82384   5.828  37.469   1.753
13967W        W82385  29.552  27.459   2.750
13968W        W82386  10.750   8.216  11.004
13969W        W82387  24.167  33.563   5.168
13970W        W82388  24.503   8.376  10.642
13971W        W82389  10.847  41.892  13.388
13972W        W82390   1.952  10.724  11.984
13973W        W82391  38.872  22.660   3.663
13974W        W82392  34.863  35.874  10.948
13975W        W82393  33.583  15.216  14.394
13976W        W82394   9.651   6.719  14.333
13977W        W82395  31.146  19.681  12.562
13978W        W82396  23.128  12.116  11.569
13979W        W82397  32.974   5.334  12.047
13980W        W82398  21.581  41.963   4.307
13981W        W82399  39.496   3.389  14.349
13982W        W82400  33.616  25.523  13.905
13983W        W82401  20.644  39.368  12.073
13984W        W82402  39.543  38.503  10.918
13985W        W82403   6.864   4.361  12.353
13986W        W82404  23.732   9.828  11.943
13987W        W82405  27.019   0.359  14.450
13988W        W82406  28.580   2.803   1.877
13989W        W82407   6.844  16.177   4.129
13990W        W82408  39.347  30.637   3.352
13991W        W82409  10.257  43.472  13.815
13992W        W82410  16.263  10.383   1.439
13993W        W82411  14.789  13.773   0.888
13994W        W82412  16.720  38.049   2.696
13995W        W82413  21.135  30.973   4.225
13996W        W82414  44.459  33.942  13.874
13997W        W82415   2.266  19.653  10.575
13998W        W82416  17.274  14.668   3.650
13999W        W82417   3.869  42.799   1.897
14000W        W82418  43.352  38.890   2.242
14001W        W82419   6.922  44.424   0.939
14002W        W82420  36.422  30.652  12.462
14003W        W82421  37.951  44.872   1.382
14004W        W82422  38.999  11.800   5.187
14005W        W82423  32.025  22.742   1.935
14006W        W82424   4.226  15.159   3.752
14007W        W82425  18.235   5.328   4.661
14008W        W82426  11.151   8.317  12.395
14009W        W82427  25.495  26.071  12.409
14010W        W82428   3.923  27.959   2.324
14011W        W82429   8.376  41.297  12.918
14012W        W82430  10.649  16.744   4.730
14013W        W82431  27.087  11.272   1.822
14014W        W82432  22.045  14.306  12.411
14015W        W82433  14.307   3.790   2.888
14016W        W82434  15.615  36.858  14.814
14017W        W82435  10.334  18.769   0.336
14018W        W82436   7.765  43.771   3.835
14019W        W82437  28.550  27.530  14.877
14020W        W82438  29.017   9.225   2.267
14021W        W82439   1.860  28.633   1.869
14022W        W82440  20.240  44.902  12.358
14023W        W82441  37.933  34.492  12.017
14024W        W82442  43.981  43.486   2.867
14025W        W82443  29.462  20.237  10.512
14026W        W82444  23.583  29.042  14.377
14027W        W82445   3.460  42.395  13.459
14028W        W82446   5.802   6.880   4.654
14029W        W82447   5.784  20.184   0.286
14030W        W82448  34.542  43.017   0.891
14031W        W82449   6.272  26.535   1.290
14032W        W82450  16.160  34.920  12.923
14033W        W82451  24.571   7.350  13.464
14034W        W82452   9.648  14.813  13.892
14035W        W82453  24.174  29.607  12.518
14036W        W82454  15.089  42.830   5.121
14037W        W82455  35.450  12.213  13.947
14038W        W82456   4.370   5.422  14.964
14039W        W82457  20.767  31.934   1.861
14040W        W82458  33.623  16.723  12.545
14041W        W82459   8.248  19.586  14.348
14042W        W82460  13.836  37.356   3.299
14043W        W82461  38.390  26.685   4.283
14044W        W82462  34.966  30.453   2.666
14045W        W82463  20.525   4.711  14.013
14046W        W82464  44.328   1.780   3.773
14047W        W82465  11.678  43.952  12.529
14048W        W82466   6.384   6.242  10.524
14049W        W82467  33.601   2.800   2.807
14050W        W82468  35.023  18.261  14.291
14051W        W82469  42.977  10.181   0.478
14052W        W82470  19.273   2.400   1.374
14053W        W82471   4.213   1.458  14.963
14054W        W82472  38.828  10.864   2.215
14055W        W82473  31.913  30.076  10.611
14056W        W82474  14.335   7.688  11.021
14057W        W82475  22.217  43.773  10.446
14058W        W82476  37.550   5.279  14.442
14059W        W82477   8.828  22.111  10.482
14060W        W82478  12.689  24.106  11.944
14061W        W82479  34.384   8.200  11.966
14062W        W82480  33.995   4.872  14.961
14063W        W82481  24.042  36.455   0.794
14064W        W82482   8.743   3.373  11.897
14065W        W82483   5.390  12.659  14.010
14066W        W82484  10.203  22.024  11.528
14067W        W82485  16.210  28.939   3.342
14068W        W82486   1.756  18.135   3.831
14069W        W82487  36.003   5.328  14.845
14070W        W82488   3.744  39.321  13.538
14071W        W82489  24.579  13.820  14.011
14072W        W82490  17.558  18.628   3.229
14073W        W82491   8.871   4.869  14.281
14074W        W82492  31.462  15.271   4.317
14075W        W82493  14.121  12.211  10.907
14076W        W82494  28.436  13.772  10.900
14077W        W82495  42.815   1.325  13.817
14078W        W82496  13.333  20.113  12.979
14079W        W82497  21.758  27.601  13.976
14080W        W82498   1.887  39.833  12.847
14081W        W82499  22.730   7.301  10.138
14082W        W82500  29.549  19.062  11.019
14083W        W82501   6.297  33.424   3.355
14084W        W82502  43.988  29.534  14.771
14085W        W82503   3.714   9.243   0.281
14086W        W82504  26.702  44.804  14.474
14087W        W82505  27.035  24.493  11.522
14088W        W82506   7.192  42.285  13.495
14089W        W82507   4.726  38.491  13.023
14090W        W82508  27.105  36.573  10.964
14091W        W82509   1.328  38.855   1.882
14092W        W82510  14.713  24.981   3.855
14093W        W82511   7.710  19.672   4.772
14094W        W82512  11.669  42.401  14.923
14095W        W82513  41.454  23.607  12.868
14096W        W82514  23.582  16.112   3.662
14097W        W82515  38.410  44.845   4.735
14098W        W82516  13.699  22.064   3.630
14099W        W82517  32.435   4.305  13.363
14100W        W82518  20.709  41.975   3.166
14101W        W82519  10.723  28.678  14.366
14102W        W82520  25.625  24.043  12.945
14103W        W82521  37.429  40.315   4.832
14104W        W82522  13.310   0.926  14.761
14105W        W82523  13.607  15.722  14.494
14106W        W82524  23.117  24.524  11.382
14107W        W82525  14.746  10.259  12.432
14108W        W82526  30.934   6.193  11.454
14109W        W82527  37.396  15.197  14.945
14110W        W82528   7.288   0.747   0.440
14111W        W82529   3.368  13.315   3.656
14112W        W82530  24.612  26.019   0.470
14113W        W82531  41.851  39.926  14.309
14114W        W82532  40.537  10.643   2.257
14115W        W82533  37.454  14.106  11.980
14116W        W82534  21.100  27.687  14.392
14117W        W82535  19.233   4.852   4.218
14118W        W82536  43.935   3.789   1.699
14119W        W82537  44.467  17.597  13.409
14120W        W82538   7.250  35.879   4.773
14121W        W82539  25.975  32.469   3.157
14122W        W82540  38.943  33.055  10.945
14123W        W82541  18.697  38.931   3.770
14124W        W82542  27.484  23.731   3.722
14125W        W82543  35.059  25.567  14.413
14126W        W82544  42.948  34.914   2.806
14127W        W82545   8.284   8.342   1.241
14128W        W82546   6.370   4.892  14.797
14129W        W82547   0.414  39.421  13.887
14130W        W82548   1.291  36.055  11.517
14131W        W82549  15.634  15.317   4.736
14132W        W82550   8.798   6.212   4.350
14133W        W82551   8.206  18.174   2.359
14134W        W82552  17.563  24.076  10.957
14135W        W82553  18.757   4.872  10.899
14136W        W82554  18.285   3.263   0.875
14137W        W82555  17.242  41.912   1.702
14138W        W82556  27.464  13.348  13.500
14139W        W82557   9.242  32.062  14.815
14140W        W82558  36.473  30.916  12.066
14141W        W82559   8.278  34.988   1.357
14142W        W82560  26.572  29.052   0.288
14143W        W82561  11.187  39.808  13.874
14144W        W82562  20.734  34.055  13.940
14145W        W82563  12.272   7.812  10.426
14146W        W82564  25.641   9.829  11.128
14147W        W82565  43.993  21.227   9.624
14148W        W82566  30.956  42.000  11.431
14149W        W82567   1.262  29.604  11.861
14150W        W82568  10.644   9.253  11.921
14151W        W82569   4.796   9.828  14.491
14152W        W82570   4.409  13.673  12.561
14153W        W82571  34.015  43.501   1.822
14154W        W82572  34.530  42.987   3.711
14155W        W82573   2.229  16.805   0.399
14156W        W82574  39.385  38.015   2.195
14157W        W82575  43.278   1.791   4.741
14158W        W82576   7.295  25.519  12.908
14159W        W82577  28.506  42.526  14.306
14160W        W82578  33.899   7.405   2.777
14161W        W82579   7.209  27.115   3.386
14162W        W82580  40.954  32.552   3.778
14163W        W82581  37.370  38.859   0.900
14164W        W82582  41.885  36.496  13.936
14165W        W82583  33.541   8.277   4.264
14166W        W82584  11.180  27.011  13.814
14167W        W82585  21.254  22.216  10.479
14168W        W82586  28.156  21.515   0.472
14169W        W82587  34.967   7.864  10.584
14170W        W82588   6.812  26.181  11.938
14171W        W82589  30.045  36.432   0.771
14172W        W82590  40.856  19.689  14.929
14173W        W82591  30.063   8.303   3.734
14174W        W82592  35.477  16.275  13.844
14175W        W82593  25.665  30.102  14.321
14176W        W82594  44.959  27.007   2.849
14177W        W82595  20.063  28.970  10.014
14178W        W82596   0.372   2.886  10.892
14179W        W82597  25.032  13.202  11.017
14180W        W82598  36.509   9.792  10.981
14181W        W82599  44.299  19.058   0.335
14182W        W82600  18.118  30.473   0.750
14183W        W82601   5.847  37.567  12.069
14184W        W82602  15.273  27.161  10.610
14185W        W82603  32.614  32.518   3.350
14186W        W82604  35.523  31.137   2.242
14187W        W82605  23.619  21.557   4.154
14188W        W82606  33.592  21.518   0.335
14189W        W82607   3.315  20.129  11.005
14190W        W82608  34.938  16.654   0.941
14191W        W82609  16.279  26.005   4.205
14192W        W82610  38.934  38.916  11.611
14193W        W82611  44.365  34.510  12.864
14194W        W82612  39.924  35.102   2.881
14195W        W82613  35.442  32.995  14.484
14196W        W82614  12.773  27.633   0.260
14197W        W82615  38.494  31.524  11.429
14198W        W82616  10.677  34.897   0.450
14199W        W82617  13.808   7.232   1.848
14200W        W82618  34.113  38.911  12.062
14201W        W82619  28.067  36.350   3.350
14202W        W82620  18.214  10.292  10.602
14203W        W82621  31.897   0.817  11.867
14204W        W82622  23.078  39.318   1.299
14205W        W82623  31.626   6.336  11.519
14206W        W82624  34.956  39.845   1.394
14207W        W82625   3.930  10.648  13.325
14208W        W82626   9.373  21.079   3.293
14209W        W82627   2.950  22.100   2.764
14210W        W82628  13.748  33.510   0.393
14211W        W82629  24.168  11.309   1.880
14212W        W82630  19.693  11.699   2.253
14213W        W82631  34.595  15.130   2.398
14214W        W82632  36.484  38.529  14.393
14215W        W82633   3.347  22.093   3.275
14216W        W82634  14.318  31.523   1.298
14217W        W82635  38.025   2.239  14.806
14218W        W82636  37.546  41.406   3.708
14219W        W82637  29.621  37.392  11.532
14220W        W82638  25.648  13.112  14.394
14221W        W82639  26.537  42.496   3.814
14222W        W82640   9.845  28.172  14.313
14223W        W82641  39.331  18.240  10.461
14224W        W82642  36.428   8.396  11.382
14225W        W82643   4.227  39.456   3.362
14226W        W82644   4.284  34.401  13.908
14227W        W82645  18.788  40.482   3.720
14228W        W82646  28.501  44.887   4.715
14229W        W82647  11.667  10.207  10.946
14230W        W82648   6.757  14.755  12.057
14231W        W82649   3.849  19.749   1.764
14232W        W82650  13.264  30.045   2.293
14233W        W82651   7.363  24.715  13.532
14234W        W82652  20.551   2.286  11.902
14235W        W82653  37.984  20.261   3.674
14236W        W82654  25.694  37.848   1.837
14237W        W82655  35.970  44.322  11.400
14238W        W82656  20.067  30.927   2.185
14239W        W82657   6.296  13.636   0.389
14240W        W82658  20.527  30.158  11.463
14241W        W82659   8.804   7.191  13.501
14242W        W82660  29.662   1.434   4.771
14243W        W82661  35.951  12.348   3.299
14244W        W82662  14.144  18.706   4.301
14245W        W82663   7.710  39.324  12.989
14246W        W82664   7.349  39.487  14.854
14247W        W82665   9.329  38.063   2.827
14248W        W82666  27.646  22.519  12.484
14249W        W82667   5.416  36.975   3.227
14250W        W82668  30.078  30.100   4.689
14251W        W82669  16.235  37.346  13.998
14252W        W82670  37.573   7.313   1.419
14253W        W82671  27.482   7.720   0.351
14254W        W82672   8.849   1.284  11.489
14255W        W82673  15.099  33.410   1.235
14256W        W82674  31.617  38.881   3.817
14257W        W82675   4.449  35.542   4.232
14258W        W82676  10.183  44.422  13.837
14259W        W82677   4.879   5.262  10.933
14260W        W82678  23.154  26.515   5.307
14261W        W82679   8.300   8.196  10.588
14262W        W82680  22.009  11.135   1.845
14263W        W82681   6.757  18.744  11.109
14264W        W82682  32.113  38.555  12.868
14265W        W82683  33.597  30.461  13.950
14266W        W82684  35.893   6.692   3.201
14267W        W82685  26.116  27.146   1.796
14268W        W82686  22.742  25.568   3.193
14269W        W82687   0.257  35.009   1.780
14270W        W82688  37.869  16.291   3.768
14271W        W82689  15.792  33.394   2.180
14272W        W82690  14.628  30.588   1.915
14273W        W82691  26.489  17.566   4.298
14274W        W82692   7.733  25.211   0.841
14275W        W82693   9.791  15.814  12.096
14276W        W82694  27.121  30.988   2.295
14277W        W82695  29.611  20.079   1.930
14278W        W82696  33.404  41.452   3.835
14279W        W82697  11.335  43.947   3.273
14280W        W82698  32.479   7.299   0.726
14281W        W82699   0.425  29.558  13.380
14282W        W82700  35.357  34.401  13.548
14283W        W82701   2.913  28.930  13.357
14284W        W82702  32.135  29.164   3.277
14285W        W82703   3.811   3.858   2.368
14286W        W82704  28.177   6.881  14.427
14287W        W82705  18.636  27.683   1.818
14288W        W82706  32.907  37.845   3.767
14289W        W82707   0.413  24.030   2.248
14290W        W82708  43.374  44.359   0.738
14291W        W82709  38.043  28.606  14.912
14292W        W82710  13.844  37.576  13.857
14293W        W82711  10.847  37.903  13.414
14294W        W82712  30.620   5.787   1.229
14295W        W82713  41.380   9.852  13.965
14296W        W82714   9.247   6.424   2.784
14297W        W82715  25.049   7.719  11.062
14298W        W82716  26.601  21.714  14.969
14299W        W82717  13.608  17.077  10.555
14300W        W82718   1.401   5.372   0.397
14301W        W82719  23.694  33.109  11.590
14302W        W82720  29.550  40.496   0.390
14303W        W82721  14.812  12.310   1.899
14304W        W82722  15.269  14.201   2.242
14305W        W82723   1.275  20.622   4.146
14306W        W82724  12.725  12.818   0.275
14307W        W82725   8.836  25.993   4.691
14308W        W82726  35.075  38.473  12.833
14309W        W82727   3.883  30.488   4.203
14310W        W82728  28.939  40.418  12.030
14311W        W82729   3.374   1.246   0.805
14312W        W82730  12.187  10.769   2.898
14313W        W82731  18.281  20.643   0.824
14314W        W82732  21.193  33.519   2.757
14315W        W82733  17.238  43.369   3.749
14316W        W82734  23.727   7.283   3.335
14317W        W82735  22.707  23.633  14.807
14318W        W82736   6.326  13.248   2.856
14319W        W82737   2.229  34.960   2.875
14320W        W82738   8.775  35.436   3.165
14321W        W82739  43.782  42.328  11.051
14322W        W82740  42.026  12.784  12.831
14323W        W82741  34.949   8.840   0.269
14324W        W82742  24.000  18.293  11.610
14325W        W82743  25.473  26.124  14.424
14326W        W82744  17.116  39.465  11.016
14327W        W82745  31.051  20.599   4.674
14328W        W82746   2.444  28.445  10.445
14329W        W82747  28.539  26.641  12.483
14330W        W82748   9.664  26.577  12.989
14331W        W82749  22.503  40.907  12.898
14332W        W82750   8.298  24.661   1.306
14333W        W82751  40.022   1.470   4.115
14334W        W82752  19.064  29.073  12.885
14335W        W82753  29.613  38.071   4.612
14336W        W82754   5.249   8.406  13.968
14337W        W82755   1.457   0.373   4.138
14338W        W82756  32.527   8.207   4.837
14339W        W82757  37.410  33.456   3.676
14340W        W82758  44.882  18.557   2.301
14341W        W82759  33.942   3.837   2.197
14342W        W82760  30.602  20.165  13.797
14343W        W82761   4.300  33.977   0.440
14344W        W82762   7.394   7.785  13.890
14345W        W82763  41.804  38.994   1.732
14346W        W82764  31.111  38.479   1.416
14347W        W82765  13.666   9.764   3.699
14348W        W82766  29.535  26.139  14.363
14349W        W82767  37.070  20.062  13.007
14350W        W82768  22.720  13.625  13.484
14351W        W82769   2.947   4.721  11.859
14352W        W82770  41.403   1.419  11.504
14353W        W82771   6.917  19.059  14.321
14354W        W82772  38.846  26.201   3.191
14355W        W82773  16.569  20.272   4.769
14356W        W82774  21.135  21.170  14.324
14357W        W82775  28.619  41.470   4.305
14358W        W82776  19.241  16.583  12.480
14359W        W82777  14.623   4.748  13.830
14360W        W82778   8.235  32.428   0.269
14361W        W82779  12.162   2.413   0.351
14362W        W82780  13.832  25.214  14.487
14363W        W82781   9.705  36.027   2.715
14364W        W82782  41.312  42.353  14.783
14365W        W82783  15.215   8.754   4.719
14366W        W82784   4.785   9.355  13.897
14367W        W82785  20.535  17.559   4.298
14368W        W82786  18.152   2.889   3.286
14369W        W82787  25.000  30.067   2.887
14370W        W82788   3.862   6.695  10.535
14371W        W82789  19.058  38.386  11.388
14372W        W82790   0.424  13.284   0.942
14373W        W82791  31.936  20.634   3.832
14374W        W82792  20.522  12.281   2.854
14375W        W82793  36.366  18.220   4.249
14376W        W82794  27.976   7.832   0.859
14377W        W82795  16.205  39.947  14.450
14378W        W82796  17.742   2.316   0.883
14379W        W82797  19.178  41.318   2.732
14380W        W82798  41.979   1.264   4.190
14381W        W82799  27.966  33.904   4.344
14382W        W82800  43.793  25.189   4.281
14383W        W82801  39.390  12.679  12.383
14384W        W82802  35.856  42.335  11.900
14385W        W82803  36.003  30.062   2.700
14386W        W82804  41.810   5.840  14.335
14387W        W82805  16.174  33.464  14.492
14388W        W82806  17.202  24.661  13.398
14389W        W82807   2.784  30.050   1.253
14390W        W82808   2.298  35.869   0.428
14391W        W82809   1.342  33.399   2.294
14392W        W82810  10.858  30.080  13.413
14393W        W82811  17.604   5.784   3.347
14394W        W82812  30.591  40.383   3.672
14395W        W82813   1.317  26.616  12.453
14396W        W82814  22.146  24.657   0.768
14397W        W82815  10.754  20.566   0.286
14398W        W82816  22.672  19.706   0.748
14399W        W82817  20.593  12.661   0.308
14400W        W82818   0.355  18.580   4.221
14401W        W82819  42.497  11.713  10.614
14402W        W82820  14.612  32.620  14.797
14403W        W82821  28.602  28.657  13.307
14404W        W82822   2.721   4.742  11.445
14405W        W82823   4.906  26.077   5.203
14406W        W82824  18.217  24.146  13.477
14407W        W82825  26.643  43.347   1.248
14408W        W82826  30.076  43.503   1.926
14409W        W82827   1.880  12.236   4.635
14410W        W82828   2.351  40.515   0.353
14411W        W82829  15.606   4.823  14.366
14412W        W82830  42.389  18.183  13.893
14413W        W82831  19.681  13.269   1.248
14414W        W82832   4.255  31.129  13.458
14415W        W82833  10.654  42.421  11.984
14416W        W82834  32.115  36.543   4.669
14417W        W82835  39.008  40.987   1.776
14418W        W82836  26.137   4.254   4.118
14419W        W82837  37.582  23.732  13.344
14420W        W82838   3.749  13.824  14.487
14421W        W82839  24.981  16.602   4.245
14422W        W82840  27.002  10.722  11.591
14423W        W82841   8.230  23.572  11.908
14424W        W82842  37.971  30.975  13.835
14425W        W82843   1.355  10.740   3.715
14426W        W82844   8.794  30.920  10.602
14427W        W82845  42.309  37.971   0.385
14428W        W82846   1.857  24.990  12.913
14429W        W82847  41.888  13.330   1.816
14430W        W82848   6.285  28.657  12.090
14431W        W82849  14.598  36.045  10.081
14432W        W82850  44.289   4.433  12.957
14433W        W82851   3.353  35.571  12.402
14434W        W82852  10.678  16.619  13.418
14435W        W82853  12.232  31.539   4.603
14436W        W82854  20.173  14.191  10.125
14437W        W82855   2.802  19.663  14.867
14438W        W82856  19.692  17.706   4.333
14439W        W82857  31.510  25.629  12.905
14440W        W82858  34.913  30.427  10.943
14441W        W82859  24.651  39.976   1.832
14442W        W82860  14.740  32.456   2.259
14443W        W82861  41.995  43.285   1.720
14444W        W82862  38.517  10.321   2.324
14445W        W82863  18.556  22.030   2.673
14446W        W82864  24.997  22.242  12.948
14447W        W82865  40.326  43.811  13.532
14448W        W82866  38.533  11.679   4.297
14449W        W82867  33.543  41.828  11.049
14450W        W82868   9.699  19.192  11.026
14451W        W82869  26.491   2.455  14.842
14452W        W82870  27.630  30.934   2.414
14453W        W82871  15.270   8.274  11.896
14454W        W82872  25.602   1.950  10.146
14455W        W82873  29.135  39.397  14.353
14456W        W82874   6.190   0.412  12.407
14457W        W82875  10.799  29.633   0.843
14458W        W82876   2.882   5.273   1.273
14459W        W82877  11.749  38.486  13.882
14460W        W82878  26.656  14.341   1.210
14461W        W82879  42.394  11.800   0.382
14462W        W82880   8.867  18.675   4.699
14463W        W82881   8.180  31.475   3.781
14464W        W82882  27.950  13.602   0.845
14465W        W82883  38.466  32.120   2.181
14466W        W82884  16.266   3.788   3.683
14467W        W82885  13.654  30.103   1.853
14468W        W82886  43.977   5.815  12.413
14469W        W82887   3.836  24.018   0.907
14470W        W82888  31.457  13.803  11.439
14471W        W82889  15.744   4.919  10.131
14472W        W82890  24.144  14.829   0.328
14473W        W82891  10.746  12.269   2.701
14474W        W82892  12.720   2.457   4.749
14475W        W82893   8.340   5.882   2.309
14476W        W82894  41.378   7.410   4.214
14477W        W82895  32.893  39.047   1.237
14478W        W82896  22.632  25.972   5.317
14479W        W82897  29.126  27.560  11.988
14480W        W82898  13.145  10.198  12.003
14481W        W82899  14.757  21.546   3.704
14482W        W82900  31.124  44.946  13.949
14483W        W82901   7.388  20.585   1.853
14484W        W82902  30.648  14.221   0.959
14485W        W82903  35.087  41.370  13.529
14486W        W82904  11.313  38.453  11.448
14487W        W82905  40.354  16.663  10.938
14488W        W82906  38.438   3.333  13.320
14489W        W82907  18.556  26.095   0.347
14490W        W82908  11.365  27.456  12.463
14491W        W82909   7.297  30.415   1.874
14492W        W82910  18.266  32.048   2.409
14493W        W82911   9.767  21.676   1.298
14494W        W82912  22.579  18.141  11.500
14495W        W82913   0.822  14.309  12.560
14496W        W82914   9.868  27.044  12.850
14497W        W82915  20.213  25.064  13.975
14498W        W82916  39.912  27.063  12.504
14499W        W82917  42.911  28.606   4.347
14500W        W82918   1.785  16.192  13.481
14501W        W82919  27.634   3.895  14.339
14502W        W82920   3.312  11.743   4.240
14503W        W82921  33.454  41.965   2.851
14504W        W82922  12.790  22.512  14.921
14505W        W82923  11.676  37.988  13.817
14506W        W82924  42.979  41.007   3.343
14507W        W82925   7.745  33.122  11.569
14508W        W82926  42.998  29.974  12.838
14509W        W82927  32.111  41.987  13.912
14510W        W82928  19.547   1.305   2.257
14511W        W82929  33.496  18.693   3.636
14512W        W82930   3.935  36.009  13.966
14513W        W82931  39.392   7.809   1.787
14514W        W82932  34.489  24.215   4.736
14515W        W82933  28.162  27.101   2.328
14516W        W82934  30.569  42.893  11.592
14517W        W82935   3.761  36.347   4.264
14518W        W82936   3.461  29.628  10.905
14519W        W82937  16.257  12.612  10.999
14520W        W82938  16.701  16.220  12.056
14521W        W82939  28.650  20.664   0.322
14522W        W82940   0.763  17.081   4.757
14523W        W82941  43.838   4.752  11.460
14524W        W82942  14.174  21.235  10.954
14525W        W82943  27.651   2.756  11.871
14526W        W82944  28.449  40.400  13.020
14527W        W82945   5.824  44.856  11.095
14528W        W82946  31.554  20.658  10.936
14529W        W82947  26.643   6.269   2.276
14530W        W82948  44.285  24.506   1.244
14531W        W82949  10.721  28.066   0.961
14532W        W82950  37.038  10.782   2.389
14533W        W82951   6.317  21.627  10.603
14534W        W82952  35.932  37.561  14.397
14535W        W82953  36.557   7.354  14.447
14536W        W82954   6.393  44.309  13.390
14537W        W82955  28.087  27.005  10.602
14538W        W82956   7.777  28.169   2.342
14539W        W82957  32.912  13.203  14.455
14540W        W82958  37.863   6.730   2.374
14541W        W82959  44.446   6.346   4.630
14542W        W82960  42.849  41.835   9.461
14543W        W82961  16.271  21.171   3.714
14544W        W82962   8.805  12.271  14.975
14545W        W82963  16.271  23.725  11.549
14546W        W82964  37.486  16.134  11.450
14547W        W82965  29.472  29.998  14.868
14548W        W82966   0.365  31.898  14.456
14549W        W82967   9.185  22.689  10.537
14550W        W82968  10.351  14.121   0.740
14551W        W82969   4.767  16.696   0.359
14552W        W82970  26.971  43.775  12.378
14553W        W82971  25.485   9.329   3.237
14554W        W82972  11.299  36.487  11.004
14555W        W82973   7.251  15.279   2.368
14556W        W82974  43.338  39.033  12.406
14557W        W82975  42.341  39.518  11.087
14558W        W82976  42.932  42.338  14.998
14559W        W82977   5.335  15.293   2.844
14560W        W82978  11.818  33.499  10.503
14561W        W82979  19.706   3.818  10.567
14562W        W82980  44.261   6.231   1.333
14563W        W82981  12.674  11.808   1.419
14564W        W82982  14.664  28.534  11.916
14565W        W82983  32.921  42.346   0.441
14566W        W82984   2.305  32.140  11.551
14567W        W82985  18.732   0.858   4.140
14568W        W82986  15.326  22.543   4.318
14569W        W82987  19.283  18.142   0.863
14570W        W82988   0.775  34.425   1.739
14571W        W82989  27.468  33.062  13.309
14572W        W82990  38.037  12.832  10.562
14573W        W82991  10.172  32.955   1.915
14574W        W82992  27.133  28.564  10.954
14575W        W82993  35.366  40.499   4.267
14576W        W82994  13.292  26.515   3.693
14577W        W82995   8.399   5.903   3.701
14578W        W82996  39.380  13.338   0.768
14579W        W82997  19.568  33.516   3.692
14580W        W82998  37.052  20.557   2.822
14581W        W82999  43.379  20.031   2.409
14582W        W83000   0.440   6.333  13.863
14583W        W83001  20.601  24.157   0.342
14584W        W83002  28.109  18.121   1.762
14585W        W83003   5.934  20.042   4.183
14586W        W83004   9.334  43.291  11.441
14587W        W83005   8.872  16.239   0.835
14588W        W83006  25.510  34.870   0.367
14589W        W83007  33.011  34.523   0.458
14590W        W83008  42.473   0.969   4.787
14591W        W83009   7.381  19.183  14.956
14592W        W83010  30.149  29.073   1.324
14593W        W83011  32.552  18.767  11.435
14594W        W83012  11.646  31.600  13.915
14595W        W83013  25.695  30.929   1.425
14596W        W83014   1.880  27.626  11.118
14597W        W83015   5.729  10.279  13.981
14598W        W83016  22.693  22.157  11.521
14599W        W83017  14.781  20.058  13.321
14600W        W83018   5.213   4.926  12.462
14601W        W83019   1.297  23.016  14.026
14602W        W83020  28.525  40.963  10.443
14603W        W83021   1.749  40.408  14.830
14604W        W83022  41.416  20.090   2.672
14605W        W83023  36.054  39.480   1.319
14606W        W83024  19.099  22.022  11.939
14607W        W83025  42.990  28.652  13.917
14608W        W83026  30.122  40.953   4.155
14609W        W83027  41.914   3.265  10.433
14610W        W83028  25.688  42.453   0.857
14611W        W83029  19.565  26.200  12.988
14612W        W83030   9.156  28.156  10.424
14613W        W83031  11.345  32.629   3.313
14614W        W83032   3.762   6.785  11.009
14615W        W83033  33.561  42.486  12.969
14616W        W83034   4.897  22.218  12.971
14617W        W83035   5.344  33.457  13.838
14618W        W83036  34.403  13.123   0.367
14619W        W83037  21.600  39.413   2.858
14620W        W83038  40.458   0.332   0.734
14621W        W83039  39.444  28.096  10.138
14622W        W83040  22.563  24.051  13.003
14623W        W83041  34.936  37.526   5.099
14624W        W83042  13.677  29.117  14.423
14625W        W83043  28.998  43.297  14.489
14626W        W83044  13.128  40.031   3.833
14627W        W83045  27.637  10.292   1.884
14628W        W83046  28.167   2.383   2.883
14629W        W83047  32.502  31.039  11.017
14630W        W83048  19.127   0.272  10.433
14631W        W83049  20.755   6.220   1.420
14632W        W83050   3.781  12.728   0.909
14633W        W83051  19.175  23.020  11.071
14634W        W83052  26.098  24.496  12.542
14635W        W83053  26.596  36.912   4.148
14636W        W83054   7.210  20.054  13.022
14637W        W83055   5.287  22.609  13.365
14638W        W83056   3.285  29.924   2.383
14639W        W83057   2.233   0.777  12.391
14640W        W83058  35.384  39.886  10.032
14641W        W83059  19.634  10.755  10.493
14642W        W83060  43.296  25.090  11.951
14643W        W83061   7.837  37.087  12.993
14644W        W83062  21.628  11.623  14.289
14645W        W83063  29.044  33.526  11.860
14646W        W83064   4.945  23.717  10.920
14647W        W83065  10.277  29.545  14.404
14648W        W83066  39.031  24.028   3.348
14649W        W83067   4.837  43.956   2.288
14650W        W83068  34.101  10.143  13.457
14651W        W83069  31.455  21.719   3.844
14652W        W83070  32.938  31.547  11.485
14653W        W83071   3.726  39.930   0.480
14654W        W83072  43.295  22.733   3.652
14655W        W83073  30.481   0.354   0.792
14656W        W83074   2.248  44.331  11.598
14657W        W83075  33.578  19.058   3.752
14658W        W83076  26.160  31.121  11.445
14659W        W83077  23.722  19.653  13.427
14660W        W83078   6.392   7.875   0.891
14661W        W83079  10.698  19.211   0.313
14662W        W83080  39.966  25.040   3.686
14663W        W83081  16.633  19.568  11.893
14664W        W83082  27.978   1.471  10.904
14665W        W83083  38.854  28.074   3.153
14666W        W83084  44.804  13.303   4.788
14667W        W83085  18.247  18.164  12.001
14668W        W83086  26.523  43.007  12.063
14669W        W83087   1.293  10.245   1.767
14670W        W83088  41.817  10.298   0.882
14671W        W83089  16.714  39.512  10.980
14672W        W83090  24.010  21.143   1.863
14673W        W83091  40.450  12.755   3.300
14674W        W83092  31.063  33.080   4.604
14675W        W83093  40.374  17.627  13.538
14676W        W83094  37.417  20.739  11.409
14677W        W83095  10.304  10.751   4.684
14678W        W83096  34.558  17.148   2.286
14679W        W83097  11.720  23.105   1.882
14680W        W83098  12.267  28.960   4.160
14681W        W83099   6.213  36.552  13.809
14682W        W83100  18.228  23.179   0.426
14683W        W83101  20.598  35.872   3.195
14684W        W83102  42.397  23.659  12.414
14685W        W83103  43.891  10.728  11.499
14686W        W83104   2.465  18.625  12.828
14687W        W83105  30.420  30.453  10.580
14688W        W83106  14.125  19.680  14.985
14689W        W83107  18.172  15.772   4.812
14690W        W83108   9.866  43.506   4.827
14691W        W83109  43.936  35.506   2.222
14692W        W83110  37.915  11.253  10.899
14693W        W83111  15.749  10.817  12.950
14694W        W83112  34.481   9.185  12.998
14695W        W83113  10.345  15.127   3.770
14696W        W83114  26.185  28.087   4.321
14697W        W83115   8.766  18.207   1.815
14698W        W83116  11.351   1.881  13.977
14699W        W83117  38.002  36.504   1.877
14700W        W83118  36.567   5.209  10.535
14701W        W83119  12.272   1.330  10.979
14702W        W83120  31.530  24.580  13.830
14703W        W83121   9.183   2.902  12.044
14704W        W83122  20.634  44.283  14.825
14705W        W83123  43.851  18.782  11.555
14706W        W83124   8.317  38.895   0.841
14707W        W83125  43.952  13.831   3.694
14708W        W83126   3.909   2.802   4.760
14709W        W83127  11.173  37.339  10.506
14710W        W83128  20.527  43.937  11.917
14711W        W83129  36.032  36.925  14.852
14712W        W83130  14.269  13.660   4.153
14713W        W83131   3.879  35.407   4.766
14714W        W83132  10.664  23.181   4.140
14715W        W83133  20.685   0.820  11.570
14716W        W83134  42.817   3.222  10.893
14717W        W83135  37.356   3.345  12.933
14718W        W83136   7.809  26.653   5.105
14719W        W83137  29.932  43.984  14.807
14720W        W83138  23.239  17.639  11.517
14721W        W83139  35.486  16.207  11.915
14722W        W83140  34.919  10.784   2.297
14723W        W83141  38.841  39.997  14.953
14724W        W83142  17.648  19.163   4.292
14725W        W83143  43.011  38.435  14.885
14726W        W83144  13.841  41.935  13.444
14727W        W83145   9.205   9.386  11.931
14728W        W83146  40.357   2.320   4.327
14729W        W83147   4.259  36.390  14.986
14730W        W83148  32.116  25.201   0.738
14731W        W83149  41.006  13.206  14.997
14732W        W83150  24.579  30.577  12.837
14733W        W83151  31.526   9.339  14.355
14734W        W83152  27.085  26.165  13.837
14735W        W83153  17.143   3.890   2.851
14736W        W83154  39.448  11.707   4.143
14737W        W83155   6.862  14.164   4.268
14738W        W83156  34.420  10.197  12.039
14739W        W83157   6.708  14.691  14.400
14740W        W83158  33.413  20.071   2.854
14741W        W83159  13.732  44.907   4.227
14742W        W83160  10.675   2.374  12.511
14743W        W83161  42.340  34.595  12.043
14744W        W83162  18.050   4.864  14.761
14745W        W83163  11.851  11.684  13.020
14746W        W83164  32.610  18.783   3.263
14747W        W83165  33.017  26.468  13.409
14748W        W83166   0.248  22.673   5.715
14749W        W83167  12.691  27.676   2.207
14750W        W83168  10.247  18.573  13.392
14751W        W83169  30.507  33.069  12.476
14752W        W83170   7.717   6.269   0.924
14753W        W83171  25.100  43.382   0.267
14754W        W83172  16.586  18.602   4.832
14755W        W83173  42.376  31.409  14.920
14756W        W83174   7.405   6.414  12.833
14757W        W83175  14.303  44.427   2.854
14758W        W83176  20.223  38.571   0.796
14759W        W83177  20.211  35.415  12.532
14760W        W83178  15.313   1.325   3.671
14761W        W83179  25.619  26.667   0.424
14762W        W83180  12.708  12.644   1.760
14763W        W83181  30.019  17.696  11.458
14764W        W83182  34.032  21.063  10.149
14765W        W83183  44.772  34.115  12.453
14766W        W83184  44.980  16.753  13.905
14767W        W83185   6.741  15.692  14.022
14768W        W83186   3.858  34.007   3.771
14769W        W83187  36.587  11.155  13.948
14770W        W83188  16.631  33.903   1.343
14771W        W83189  35.394  15.662  12.054
14772W        W83190  25.208  12.159  12.503
14773W        W83191  11.139  36.999   1.268
14774W        W83192  31.937  21.253  11.451
14775W        W83193  18.777  21.115   3.335
14776W        W83194  25.182  15.616   3.767
14777W        W83195  38.398  31.037  10.631
14778W        W83196  17.183  21.183  10.023
14779W        W83197   0.475  28.947   1.907
14780W        W83198  15.294  16.112   2.323
14781W        W83199  13.626  24.537  10.535
14782W        W83200   1.959  29.948  11.388
14783W        W83201  40.869  38.541   1.225
14784W        W83202  13.837  27.579   0.796
14785W        W83203  28.138  23.063   0.309
14786W        W83204  25.484  21.647   0.764
14787W        W83205  13.781  41.407   4.127
14788W        W83206  32.981  16.729  11.422
14789W        W83207  31.572  30.055   1.902
14790W        W83208  20.184  30.085   0.403
14791W        W83209  20.744   5.856  11.525
14792W        W83210  32.968  26.664  14.376
14793W        W83211  30.042  12.340   3.150
14794W        W83212  21.081  42.822  10.541
14795W        W83213  32.968  17.762  12.404
14796W        W83214   2.915  13.639  14.887
14797W        W83215  24.600   2.847  10.586
14798W        W83216  20.273  44.478   4.217
14799W        W83217  44.420   9.203   0.916
14800W        W83218   2.230  39.389   0.484
14801W        W83219  40.953  21.653  11.023
14802W        W83220   7.722  43.980  13.335
14803W        W83221  26.010  44.316   3.819
14804W        W83222  35.049   9.271   1.818
14805W        W83223   3.762   2.392  14.899
14806W        W83224  25.030  15.702  11.074
14807W        W83225  29.138  38.957   1.754
14808W        W83226  25.495  25.028   2.262
14809W        W83227  44.427  21.695   4.120
14810W        W83228  11.137  36.847  11.924
14811W        W83229   0.759  38.372   4.268
14812W        W83230   8.176  36.561   3.361
14813W        W83231  28.564  10.745   4.766
14814W        W83232  11.785   8.175   2.665
14815W        W83233  17.236  36.532  10.495
14816W        W83234  12.743  33.080   3.852
14817W        W83235  11.373  26.141   2.198
14818W        W83236   0.986   7.398   2.874
14819W        W83237  28.502   9.788   3.760
14820W        W83238  27.518  20.187   2.200
14821W        W83239  31.560  24.487   0.923
14822W        W83240  16.650   6.895   3.658
14823W        W83241  22.700   7.686  13.409
14824W        W83242  19.110  27.549  10.416
14825W        W83243  28.957  12.642  11.858
14826W        W83244  23.227  31.071  14.404
14827W        W83245  15.741  37.979   2.713
14828W        W83246  32.396  32.079   1.314
14829W        W83247  33.905  18.681  14.768
14830W        W83248  30.932  42.834  14.389
14831W        W83249  24.156  35.068  11.509
14832W        W83250   1.345  20.613   1.341
14833W        W83251  28.120  34.455   3.331
14834W        W83252   7.195  25.626  11.385
14835W        W83253  16.584  14.118  12.466
14836W        W83254  12.642  31.054  14.278
14837W        W83255  20.135  37.566  12.506
14838W        W83256  28.090  42.364  14.413
14839W        W83257  25.490  43.410   4.812
14840W        W83258  25.028   4.938   1.277
14841W        W83259  38.027  14.135   2.806
14842W        W83260  35.931  41.444   4.675
14843W        W83261  29.438  40.415  13.977
14844W        W83262  12.172  23.232   2.694
14845W        W83263  17.229  41.474  12.934
14846W        W83264  37.496  34.073   4.310
14847W        W83265  32.443  37.006  11.985
14848W        W83266  44.946  19.623   0.751
14849W        W83267  16.620  30.092   2.661
14850W        W83268  20.136  37.019  10.416
14851W        W83269  39.386  28.045   2.744
14852W        W83270  22.577  12.700  12.955
14853W        W83271   3.881  18.684  10.472
14854W        W83272  17.228   4.249   2.764
14855W        W83273  37.071   5.393  11.887
14856W        W83274  11.732  14.819  11.888
14857W        W83275  30.616  43.911  10.493
14858W        W83276  16.236  22.617  14.452
14859W        W83277  23.078  27.557   2.369
14860W        W83278   0.440  35.899   2.381
14861W        W83279   4.892  20.646  13.946
14862W        W83280  11.709  39.329   4.684
14863W        W83281  19.732  26.463  11.386
14864W        W83282   7.743  30.136   2.746
14865W        W83283  16.651  14.763  11.449
14866W        W83284   0.908  32.027   3.285
14867W        W83285  17.270  34.935  11.068
14868W        W83286  11.763  39.476  14.897
14869W        W83287  22.011  18.212  11.427
14870W        W83288  44.886  19.094  12.990
14871W        W83289  23.080   8.733   3.370
14872W        W83290  29.078  13.352  10.987
14873W        W83291   0.342  43.976   2.885
14874W        W83292   5.737   1.822   2.414
14875W        W83293  26.694  29.622  11.498
14876W        W83294   5.396  34.979   0.940
14877W        W83295  27.193  11.239   2.844
14878W        W83296  36.957  34.084   4.761
14879W        W83297  12.285  26.558  11.504
14880W        W83298  32.109  37.898   3.694
14881W        W83299  13.339  20.256  11.865
14882W        W83300  44.822  42.383  13.955
14883W        W83301  23.167  30.923   0.418
14884W        W83302   5.826  19.215  14.000
14885W        W83303  20.660  10.160   1.927
14886W        W83304  33.010  18.648   3.802
14887W        W83305  43.301   0.487  10.530
14888W        W83306   4.277  16.089  11.891
14889W        W83307  36.389  23.011   3.764
14890W        W83308  35.042  11.836   3.384
14891W        W83309  36.390  36.575  11.891
14892W        W83310   9.801   2.758   4.228
14893W        W83311  33.046  21.721   4.654
14894W        W83312  17.140  27.473   4.675
14895W        W83313  38.339   4.329   2.765
14896W        W83314  15.255  30.591   4.221
14897W        W83315   4.422  37.842  10.557
14898W        W83316  21.584  21.629   4.246
14899W        W83317  43.865   1.306   2.767
14900W        W83318  18.755  41.326   1.273
14901W        W83319  38.921  25.135  13.845
14902W        W83320  33.428  42.021  14.321
14903W        W83321   3.459  23.725  13.041
14904W        W83322  24.605  35.868  10.946
14905W        W83323   1.829  41.791   4.260
14906W        W83324  12.683  16.640  14.436
14907W        W83325  14.318   6.303  11.503
14908W        W83326  42.996  27.582  11.070
14909W        W83327  30.651  12.160   4.226
14910W        W83328  13.756  23.209   1.715
14911W        W83329  27.135  31.526   4.277
14912W        W83330  34.575  10.852   3.211
14913W        W83331  29.006  22.722  13.835
14914W        W83332  28.016  32.008   0.817
14915W        W83333   0.437  13.795   9.936
14916W        W83334  30.080  11.296   0.416
14917W        W83335  24.185   1.857  12.447
14918W        W83336  43.497  31.475   1.734
14919W        W83337  36.424  36.379   0.392
14920W        W83338  33.070  15.660   4.188
14921W        W83339   9.223  20.231  12.992
14922W        W83340  30.471  17.799   4.763
14923W        W83341  15.667  14.275  13.955
14924W        W83342   1.382   3.413   2.848
14925W        W83343   4.400  39.063  14.981
14926W        W83344  23.079   2.900   2.843
14927W        W83345  31.565  15.791   0.921
14928W        W83346  42.406   1.817  14.835
14929W        W83347  44.870  13.639  12.038
14930W        W83348  38.332  22.662   0.306
14931W        W83349  36.950  22.716   2.225
14932W        W83350  25.641  25.652  13.509
14933W        W83351  33.606  28.096   2.802
14934W        W83352  44.961  24.115   3.199
14935W        W83353   1.879  44.827   1.786
14936W        W83354   6.339   7.202   1.891
14937W        W83355  39.917  34.532  11.500
14938W        W83356  35.907  43.919   2.268
14939W        W83357  14.337   9.319  14.967
14940W        W83358  12.282  27.515  10.577
14941W        W83359  35.578  10.715   1.748
14942W        W83360  33.998  35.100  10.073
14943W        W83361  16.242   9.296   2.185
14944W        W83362  13.341  35.418  14.868
14945W        W83363  12.193  17.638  13.846
14946W        W83364  43.864  33.570   3.321
14947W        W83365  13.238  23.586   0.861
14948W        W83366  32.909  20.584  14.389
14949W        W83367  12.733  20.166  14.953
14950W        W83368   0.768   4.295   2.762
14951W        W83369   4.722   1.920  11.913
14952W        W83370  38.980  38.432  14.805
14953W        W83371  32.040   5.841   4.793
14954W        W83372  10.278   8.202   3.854
14955W        W83373  41.990  27.633  12.971
14956W        W83374  38.067  15.779   3.859
14957W        W83375  41.333  16.175   3.326
14958W        W83376  11.297   2.938  11.408
14959W        W83377   6.871  12.265  11.072
14960W        W83378  37.399  32.576  13.535
14961W        W83379  14.178  22.066  10.960
14962W        W83380  31.547  28.596   4.256
14963W        W83381  19.238  32.940  12.479
14964W        W83382  19.273   8.371  11.451
14965W        W83383  13.725  35.428  13.489
14966W        W83384  29.522   7.336  11.127
14967W        W83385  14.176  28.024   5.295
14968W        W83386   4.404   4.910  14.804
14969W        W83387  43.877  30.121  13.498
14970W        W83388  34.426  40.318   2.666
14971W        W83389  16.076  27.989  10.517
14972W        W83390  12.848   7.214  11.611
14973W        W83391  41.965   4.373  11.943
14974W        W83392  21.207  42.867   1.414
14975W        W83393  39.808   5.800   3.756
14976W        W83394  30.495  21.065  12.571
14977W        W83395  13.271   8.204  12.951
14978W        W83396  34.500  36.384   0.478
14979W        W83397  24.983   0.365   0.394
14980W        W83398  30.632  40.022  12.577
14981W        W83399  32.575  23.585   1.917
14982W        W83400   7.258  13.835   2.733
14983W        W83401  28.509  39.007   0.862
14984W        W83402   8.798   1.835  10.457
14985W        W83403  41.909  23.164  12.482
14986W        W83404  15.752   6.811   4.725
14987W        W83405  35.369  23.612  10.643
14988W        W83406  10.349   7.721   2.198
14989W        W83407  40.421   1.376  13.546
14990W        W83408  26.089  42.001  12.943
14991W        W83409  13.697   8.178   4.342
14992W        W83410  13.807   0.876  14.827
14993W        W83411  31.992  17.717  13.404
14994W        W83412   4.776   3.731  13.976
14995W        W83413  23.102   2.867   0.414
14996W        W83414  43.838  15.696   0.838
14997W        W83415  22.581   8.226   1.856
14998W        W83416  43.487  26.140  14.793
14999W        W83417  32.083  13.203  12.464
15000W        W83418  13.159  37.989  13.355
15001W        W83419  21.244  21.742  13.843
15002W        W83420  38.370  44.807  10.532
15003W        W83421  25.132  23.225   2.883
15004W        W83422  11.329  21.131  13.524
15005W        W83423  32.139  44.006  14.281
15006W        W83424   1.307  25.585   1.403
15007W        W83425  25.560  19.059   0.957
15008W        W83426  12.851  27.100  10.415
15009W        W83427  20.531  33.875   0.791
15010W        W83428   6.255  23.665  10.117
15011W        W83429  25.218  26.591   1.329
15012W        W83430  33.979  38.986   2.826
15013W        W83431   5.878   2.446  11.904
15014W        W83432  14.780  44.967   2.275
15015W        W83433  33.533  21.243   4.259
15016W        W83434   3.819  38.547   0.785
15017W        W83435  28.657   2.291  12.951
15018W        W83436  39.847  21.726   3.375
15019W        W83437  10.680  36.387   4.797
15020W        W83438  16.798  19.707   0.907
15021W        W83439  23.120  39.843  14.306
15022W        W83440  17.063  17.108  14.960
15023W        W83441   2.411  37.404  12.394
15024W        W83442   0.389  16.775  11.579
15025W        W83443   2.905  36.092   1.905
15026W        W83444  26.503  23.615   4.261
15027W        W83445  21.592   2.362  14.450
15028W        W83446   1.920  22.575  10.923
15029W        W83447  43.013  11.681  14.512
15030W        W83448   6.828  43.282  14.396
15031W        W83449  10.314   5.831   9.976
15032W        W83450  41.452  38.917  13.433
15033W        W83451  23.662  12.817   1.242
15034W        W83452  14.758  39.313  14.001
15035W        W83453  43.925  21.600   5.148
15036W        W83454  31.010  43.431   0.302
15037W        W83455  13.302  26.982  11.929
15038W        W83456   1.310  24.496   0.783
15039W        W83457   2.245  18.768   3.646
15040W        W83458  43.846  18.257   4.182
15041W        W83459   6.340  19.117  12.968
15042W        W83460  12.335  43.466   1.210
15043W        W83461  14.803   0.392  14.313
15044W        W83462  41.951  14.764  12.829
15045W        W83463  36.430  20.110   2.215
15046W        W83464  25.141   4.710   3.157
15047W        W83465   5.692  35.512   3.161
15048W        W83466   3.363  39.819  14.770
15049W        W83467  22.557   2.884  10.539
15050W        W83468  26.091  39.329  11.973
15051W        W83469   9.207  35.439  13.317
15052W        W83470  14.784   5.883   4.747
15053W        W83471   8.241  22.155   4.599
15054W        W83472   9.207  24.614   0.736
15055W        W83473  40.334   9.168   3.722
15056W        W83474  31.072  34.886   3.684
15057W        W83475  21.101  20.735   0.807
15058W        W83476  41.390  13.612  11.434
15059W        W83477  41.487   3.897  10.935
15060W        W83478  24.042  38.945  11.456
15061W        W83479  30.415   9.201  14.275
15062W        W83480  20.158  36.437  11.495
15063W        W83481  15.694  17.614  12.496
15064W        W83482  30.996  44.937  10.593
15065W        W83483   7.729  23.997   4.249
15066W        W83484  35.596  15.676  12.950
15067W        W83485   6.768  41.478  12.060
15068W        W83486  16.671  28.522  14.315
15069W        W83487  39.950  21.163   2.840
15070W        W83488   5.286  36.590  10.936
15071W        W83489  15.771  30.949  10.471
15072W        W83490  24.665  17.194  14.765
15073W        W83491  14.611  18.174   2.712
15074W        W83492  43.838  21.190  12.978
15075W        W83493  26.530  23.730   1.303
15076W        W83494  36.025  37.348   0.272
15077W        W83495  40.964  30.030   1.829
15078W        W83496  35.887  23.184  13.010
15079W        W83497   2.414   3.438   2.865
15080W        W83498  18.739  28.488  11.389
15081W        W83499  28.519  38.489   2.688
15082W        W83500   1.433  41.810   4.670
15083W        W83501  39.894  14.219  13.472
15084W        W83502  18.086  32.606  10.962
15085W        W83503  33.055   3.778   4.831
15086W        W83504   3.384  28.592   0.926
15087W        W83505  19.251  41.369  12.934
15088W        W83506  14.706  44.841   0.343
15089W        W83507  11.317  14.187   0.415
15090W        W83508  33.449  41.800  12.052
15091W        W83509  12.638  25.630  14.483
15092W        W83510  25.036  35.544  11.405
15093W        W83511  42.014  10.863   4.822
15094W        W83512  43.463  21.614  14.776
15095W        W83513  25.203   6.345  14.299
15096W        W83514  21.639  32.588   3.333
15097W        W83515  33.441  30.091  11.033
15098W        W83516  25.650  32.907   0.905
15099W        W83517   2.743  22.177   1.780
15100W        W83518   0.899  24.639   4.609
15101W        W83519  19.271  17.214   4.679
15102W        W83520  41.902   7.240  11.884
15103W        W83521  10.743  26.986   4.218
15104W        W83522  14.286  35.387  14.365
15105W        W83523   7.881  28.582  13.856
15106W        W83524  25.619   0.808  13.395
15107W        W83525  37.085  42.492   1.857
15108W        W83526  30.005  30.522   3.231
15109W        W83527   8.349   5.879  14.889
15110W        W83528   6.317  44.790  13.386
15111W        W83529  23.547   1.237   2.804
15112W        W83530  38.352   1.906   4.208
15113W        W83531  27.075  42.366   1.789
15114W        W83532  33.482   8.334   2.767
15115W        W83533  24.602  14.276  12.938
15116W        W83534   0.311  29.558  12.496
15117W        W83535  42.837   2.736   1.802
15118W        W83536   9.369  15.086   0.394
15119W        W83537  42.472  44.410  14.377
15120W        W83538  18.701  16.658  11.068
15121W        W83539  23.045  37.578   3.817
15122W        W83540  30.547  14.810   2.326
15123W        W83541  15.755  44.474  13.025
15124W        W83542  36.855   7.357   1.426
15125W        W83543  10.847  22.034  12.357
15126W        W83544   1.733  25.644   4.221
15127W        W83545  12.694  28.497   2.332
15128W        W83546  39.927  38.328   3.149
15129W        W83547   4.735  12.259   0.944
15130W        W83548  28.167  23.018  11.591
15131W        W83549  24.604  22.067   4.659
15132W        W83550  30.435   8.328   2.288
15133W        W83551  24.155  27.139   2.316
15134W        W83552   6.739  30.465   0.770
15135W        W83553  36.002  14.135  13.452
15136W        W83554  16.648  42.970   0.849
15137W        W83555  17.722  30.943   3.733
15138W        W83556  21.101  44.267  13.414
15139W        W83557   7.206  32.535  13.802
15140W        W83558  10.731   8.324  11.522
15141W        W83559   0.866  24.649  10.997
15142W        W83560  22.064  29.960   1.826
15143W        W83561  33.881  37.371  14.459
15144W        W83562  26.690  38.929  12.396
15145W        W83563  18.100  34.118   0.733
15146W        W83564   4.869  16.157  11.406
15147W        W83565  33.598  41.398  12.558
15148W        W83566  24.508  25.529  14.356
15149W        W83567  14.107  44.764  13.812
15150W        W83568  36.391   7.326   3.176
15151W        W83569  30.437  31.449   3.662
15152W        W83570   4.394  43.310  11.121
15153W        W83571  27.122  37.550   0.855
15154W        W83572   0.805   5.241  14.860
15155W        W83573  42.788  31.930  14.845
15156W        W83574  43.822  37.396   4.197
15157W        W83575  25.148  44.394  14.922
15158W        W83576  24.665  40.427  12.470
15159W        W83577  34.004  42.978  12.097
15160W        W83578  34.512  30.551  13.872
15161W        W83579  28.967   5.829  14.856
15162W        W83580  21.138  11.742   0.796
15163W        W83581   7.783  41.884  13.443
15164W        W83582  26.951  30.118   3.202
15165W        W83583  21.120  42.876  10.104
15166W        W83584   5.232  18.208  13.369
15167W        W83585   3.346  22.514  14.432
15168W        W83586  27.954  30.418   4.737
15169W        W83587  40.999   9.237   1.346
15170W        W83588  25.622  18.591   3.827
15171W        W83589  33.059  43.865  13.341
15172W        W83590  27.020  17.738  12.377
15173W        W83591  32.030   2.932  14.472
15174W        W83592  38.821   5.792   0.341
15175W        W83593  23.132  15.207  11.904
15176W        W83594   7.315  13.134  11.108
15177W        W83595  29.930  13.707  10.421
15178W        W83596  29.546  37.553   2.372
15179W        W83597  19.643   9.388  14.455
15180W        W83598   9.259  12.773  13.440
15181W        W83599  20.125  21.215  12.956
15182W        W83600   4.719  19.646  10.035
15183W        W83601   3.882   3.237  14.487
15184W        W83602  44.482  35.501   2.777
15185W        W83603  31.077  21.256   0.954
15186W        W83604  39.879  29.029  11.063
15187W        W83605   0.330  39.867   0.332
15188W        W83606  26.563  29.446  12.824
15189W        W83607  37.953  15.268  14.337
15190W        W83608   8.209  44.493   0.877
15191W        W83609  39.869  23.081  13.041
15192W        W83610   0.314  27.540  14.023
15193W        W83611  21.017   4.280  11.008
15194W        W83612  28.103  18.154   9.938
15195W        W83613   5.777  18.058   1.396
15196W        W83614  14.117  28.977   3.654
15197W        W83615  20.574  18.788   4.648
15198W        W83616  10.220  29.980   1.926
15199W        W83617   1.243   6.370   4.597
15200W        W83618  31.596  33.052  12.465
15201W        W83619  28.488  11.709   0.383
15202W        W83620  19.199  31.965   2.373
15203W        W83621  14.600  26.103   2.712
15204W        W83622  30.156  32.477   2.853
15205W        W83623  44.912   3.300  12.353
15206W        W83624  11.745  27.660   0.770
15207W        W83625  28.089  14.131   3.344
15208W        W83626   8.180  33.622   3.278
15209W        W83627  44.284   1.329  13.936
15210W        W83628  38.973  28.473  14.020
15211W        W83629  41.786   3.734  10.519
15212W        W83630  17.260   4.908   4.191
15213W        W83631   0.904  24.107   0.834
15214W        W83632  31.431  40.897  11.575
15215W        W83633   0.326   2.811   2.869
15216W        W83634  27.493  15.618   2.260
15217W        W83635  14.686   0.303  12.938
15218W        W83636  41.880  21.691   4.771
15219W        W83637   0.433   0.902  10.946
15220W        W83638  25.090  39.008  13.885
15221W        W83639  41.352  29.519   3.152
15222W        W83640  15.612   2.801  11.919
15223W        W83641  39.482  19.237  12.548
15224W        W83642  18.735   4.257   2.815
15225W        W83643  13.748  21.197  12.351
15226W        W83644   3.369  40.408  14.850
15227W        W83645  32.893   2.777  12.396
15228W        W83646   7.363  20.619   3.321
15229W        W83647  25.997  23.506  13.873
15230W        W83648  15.683  17.276  10.475
15231W        W83649  36.559  19.771  12.466
15232W        W83650  40.049  26.577  11.426
15233W        W83651  41.513  36.511   2.418
15234W        W83652  28.438  42.988  14.363
15235W        W83653  38.369  36.531   0.268
15236W        W83654  42.429   4.424   3.805
15237W        W83655  14.814  13.656  13.524
15238W        W83656   8.398  17.757  14.961
15239W        W83657  18.610  13.164   4.195
15240W        W83658  18.582   3.943  13.446
15241W        W83659  10.225  28.951  11.871
15242W        W83660  25.979  13.259  13.316
15243W        W83661  12.310  18.774  14.410
15244W        W83662  17.790  28.640  14.960
15245W        W83663  18.680  14.227  13.525
15246W        W83664  43.998  33.538   4.353
15247W        W83665  19.091  41.482   0.253
15248W        W83666  12.742  38.968  11.520
15249W        W83667  20.672  33.544  13.896
15250W        W83668   3.418   2.335  12.855
15251W        W83669  24.581   3.902   4.689
15252W        W83670   6.838   1.838   3.243
15253W        W83671  40.884  42.962   5.173
15254W        W83672  15.811  11.367   4.763
15255W        W83673  25.636  25.520   4.316
15256W        W83674   7.294   8.678   2.220
15257W        W83675  31.617  17.764  12.931
15258W        W83676   4.263   7.850  14.399
15259W        W83677  14.596   8.872  12.500
15260W        W83678  26.984  15.188   4.317
15261W        W83679  28.546  12.262   4.233
15262W        W83680  42.021  44.281   1.363
15263W        W83681  17.678   0.327  14.289
15264W        W83682   4.735  23.028  11.386
15265W        W83683  12.611  23.120  12.979
15266W        W83684  27.516   2.324   1.374
15267W        W83685   5.870  29.451   4.623
15268W        W83686  38.476  29.465  11.557
15269W        W83687  15.738  14.124  10.911
15270W        W83688  30.557  33.943   1.852
15271W        W83689  21.255   1.440   4.776
15272W        W83690  16.314   9.327   1.223
15273W        W83691   2.276   5.849   1.891
15274W        W83692   6.862  11.191   3.302
15275W        W83693   2.287   1.472  14.917
15276W        W83694   7.329   3.268  10.521
15277W        W83695  11.150  30.937  10.622
15278W        W83696  19.127  42.791   1.901
15279W        W83697  29.550  32.929   3.812
15280W        W83698  38.860  19.549   3.735
15281W        W83699   3.316  41.467   0.385
15282W        W83700  42.464  19.109   1.899
15283W        W83701  16.805  41.416  10.597
15284W        W83702  16.766   6.732  14.475
15285W        W83703  26.185   1.844   1.317
15286W        W83704  30.966   5.904   4.238
15287W        W83705  27.000   1.331  11.521
15288W        W83706  35.490  16.139   4.737
15289W        W83707  43.002  24.108   3.235
15290W        W83708  19.228   8.283  10.604
15291W        W83709  11.637  34.607  14.390
15292W        W83710   2.316  12.256   2.685
15293W        W83711  39.346  36.491  10.529
15294W        W83712  24.602  12.336  10.445
15295W        W83713  12.172  33.005  14.392
15296W        W83714  32.072  14.643  12.070
15297W        W83715  15.801  23.126  13.543
15298W        W83716  10.636  27.109  14.888
15299W        W83717  36.387  20.152  11.406
15300W        W83718  10.329   5.382  11.093
15301W        W83719  40.949  22.078  10.639
15302W        W83720  36.393  38.924   0.965
15303W        W83721  15.731  32.113   0.872
15304W        W83722  34.513  44.959   1.832
15305W        W83723  21.631  12.242   2.880
15306W        W83724  37.954  39.406   5.142
15307W        W83725  28.176  36.073   2.378
15308W        W83726  17.150  40.351   2.300
15309W        W83727  18.666   6.796  10.582
15310W        W83728  23.566  19.130   0.821
15311W        W83729   3.394  29.655   0.793
15312W        W83730  15.823  10.828   4.231
15313W        W83731  17.575  34.982  12.458
15314W        W83732  36.892   3.261   2.766
15315W        W83733   0.340  39.858  14.428
15316W        W83734  25.710  37.366  12.536
15317W        W83735  34.982  42.443  10.968
15318W        W83736  18.138   0.824  13.021
15319W        W83737  37.988  25.565   4.215
15320W        W83738  20.582  44.964   0.866
15321W        W83739  24.168  36.939   4.600
15322W        W83740   7.197  17.141  10.969
15323W        W83741   2.309  24.657  12.433
15324W        W83742  42.922  34.557  12.354
15325W        W83743   3.376  43.932   0.841
15326W        W83744  37.023  24.003  12.849
15327W        W83745  18.627  23.092  14.426
15328W        W83746  43.885  43.836  12.550
15329W        W83747  10.192  16.153  11.084
15330W        W83748  44.324  39.849   1.380
15331W        W83749  43.827  42.778  11.565
15332W        W83750  31.040  14.771   3.211
15333W        W83751  38.335  44.776  11.392
15334W        W83752  25.620  43.370   4.236
15335W        W83753  15.142  28.642   2.794
15336W        W83754  39.874  33.004   1.386
15337W        W83755  44.841  13.603   1.796
15338W        W83756   3.913  30.119   0.353
15339W        W83757   2.919   3.321   0.821
15340W        W83758  38.964  34.871  11.957
15341W        W83759  16.666  38.391  13.015
15342W        W83760  39.376  36.880  13.040
15343W        W83761   8.174   0.959  12.891
15344W        W83762  36.993  19.689   2.821
15345W        W83763  22.576  13.326   1.315
15346W        W83764  26.195  15.269   4.833
15347W        W83765  29.978  12.751   2.332
15348W        W83766  19.178  23.113  12.963
15349W        W83767  24.711   6.824  10.542
15350W        W83768  43.292  22.655  13.969
15351W        W83769  21.697  19.594   2.758
15352W        W83770  41.470  12.854  14.782
15353W        W83771  10.649   3.733   0.852
15354W        W83772   3.399   9.379   4.137
15355W        W83773  43.013  19.728   1.732
15356W        W83774  44.890  11.358  14.339
15357W        W83775  32.450   8.818  14.980
15358W        W83776  36.572   1.416  13.933
15359W        W83777  17.775  32.481   3.856
15360W        W83778  14.285  12.687  13.466
15361W        W83779   3.286  39.042   3.672
15362W        W83780  20.274  14.273   1.872
15363W        W83781   2.922  23.137   2.896
15364W        W83782  30.988  43.002  13.399
15365W        W83783  32.453  42.956   3.260
15366W        W83784   3.735  10.199  12.398
15367W        W83785  43.771   7.833  11.564
15368W        W83786  37.354  36.467  13.889
15369W        W83787  10.854  30.016  12.936
15370W        W83788  27.582  15.720   0.462
15371W        W83789  39.393  20.544  10.609
15372W        W83790  21.067  37.843   1.434
15373W        W83791   0.891  32.600   1.227
15374W        W83792  32.123  18.622  14.479
15375W        W83793  40.442  41.341  11.095
15376W        W83794  16.302  10.241  11.920
15377W        W83795  27.996  16.162  12.075
15378W        W83796  23.208   9.803   0.303
15379W        W83797  26.013  14.713   3.179
15380W        W83798  13.780  11.326   3.334
15381W        W83799  23.536  12.695  13.369
15382W        W83800   8.348  12.816   4.700
15383W        W83801   3.843  14.201  11.940
15384W        W83802  17.144  14.249   0.830
15385W        W83803  34.604   5.787   3.754
15386W        W83804  10.835  35.539  12.891
15387W        W83805  44.762  43.279   0.248
15388W        W83806  39.993  15.226  14.417
15389W        W83807  15.118  28.951   4.800
15390W        W83808  20.112   1.755  13.466
15391W        W83809  16.694  21.580  12.931
15392W        W83810  34.481  13.212  11.395
15393W        W83811  43.359   2.730  11.044
15394W        W83812  27.571  39.827  14.769
15395W        W83813  42.377  38.437   9.975
15396W        W83814  25.115  10.681   3.338
15397W        W83815  23.051   5.295   0.958
15398W        W83816  28.514  15.794   3.242
15399W        W83817  43.913   3.265   1.842
15400W        W83818  22.098   9.749  14.321
15401W        W83819  17.765  28.992  11.499
15402W        W83820  39.456  41.904  11.979
15403W        W83821  32.618  16.645  14.438
15404W        W83822  27.103  36.854   1.287
15405W        W83823  39.343  17.689  11.883
15406W        W83824  14.664  35.512   0.347
15407W        W83825  36.412  34.090  13.533
15408W        W83826  27.170   8.753   0.904
15409W        W83827  10.774   0.476   3.250
15410W        W83828  40.452  17.180   5.224
15411W        W83829  18.788  36.478   1.241
15412W        W83830  18.258  36.481   1.701
15413W        W83831  25.992  19.040  11.930
15414W        W83832  38.971  17.167   4.242
15415W        W83833  11.852  16.587  10.472
15416W        W83834  38.330  37.006   1.825
15417W        W83835  16.646  27.020  11.536
15418W        W83836  27.178  32.492  11.591
15419W        W83837  24.003  33.541  12.939
15420W        W83838  39.976  24.129  11.081
15421W        W83839  43.478   1.919  12.429
15422W        W83840   9.347  33.883   3.289
15423W        W83841  12.235  35.857  10.603
15424W        W83842   7.289  30.022   3.865
15425W        W83843  43.832  40.315  14.839
15426W        W83844   0.332  23.164   2.860
15427W        W83845   8.286   5.253  10.460
15428W        W83846  17.560  14.336   1.756
15429W        W83847  40.410   4.325   1.344
15430W        W83848  30.157  43.406  15.000
15431W        W83849   3.859  21.197   0.726
15432W        W83850  27.100  24.607  10.491
15433W        W83851  28.583  23.659  12.979
15434W        W83852   5.237  13.309   0.844
15435W        W83853   7.709   4.734  10.533
15436W        W83854   6.920  30.939  13.942
15437W        W83855  10.828   2.277  11.565
15438W        W83856  13.750  30.453  10.613
15439W        W83857  24.673  41.518  11.409
15440W        W83858  11.766   1.318   2.191
15441W        W83859  19.707  11.361   4.626
15442W        W83860  12.792   7.708  11.906
15443W        W83861  34.972  40.960  13.435
15444W        W83862  12.713   6.216   2.796
15445W        W83863  30.555  21.143  11.863
15446W        W83864  17.583  16.181   3.278
15447W        W83865  40.927   1.301   2.875
15448W        W83866  32.408  29.985  10.453
15449W        W83867  41.456  15.708   2.218
15450W        W83868  43.457  32.544   3.166
15451W        W83869  43.980  41.834  10.437
15452W        W83870  10.674   2.304   1.335
15453W        W83871  31.434  41.328  12.379
15454W        W83872  23.984   3.444   1.325
15455W        W83873   1.906  13.617  13.379
15456W        W83874  29.065  12.636  14.771
15457W        W83875   0.836  16.114   1.222
15458W        W83876  22.511  11.185  10.115
15459W        W83877  26.692  16.698   1.433
15460W        W83878   6.417  13.660  13.370
15461W        W83879  33.034  40.508  14.320
15462W        W83880  24.186  43.938  10.889
15463W        W83881  25.622  22.031   4.610
15464W        W83882  33.416  23.024   1.393
15465W        W83883  26.554  14.622   2.812
15466W        W83884  15.660   2.784  10.460
15467W        W83885  39.992  12.814   3.354
15468W        W83886  36.381   5.262  12.989
15469W        W83887  26.194  38.470  11.538
15470W        W83888  35.436  30.561   3.697
15471W        W83889  26.542  34.917  13.809
15472W        W83890  33.989  35.449  14.811
15473W        W83891  23.603   6.275   1.398
15474W        W83892  12.670  19.770   2.841
15475W        W83893  21.172  16.595  12.968
15476W        W83894  36.349  44.365   9.969
15477W        W83895  17.674   9.822   4.698
15478W        W83896  19.149   5.785   3.794
15479W        W83897  34.094   0.354  10.992
15480W        W83898   4.828  24.977  10.562
15481W        W83899  19.687  11.248  12.896
15482W        W83900  41.455  18.669   2.895
15483W        W83901   3.410  14.787   2.323
15484W        W83902  36.861  18.717  10.988
15485W        W83903  39.811  41.440  12.979
15486W        W83904  41.949  11.653   2.182
15487W        W83905  31.123  36.575   0.765
15488W        W83906  43.467  25.577   2.786
15489W        W83907  21.191  33.968  11.565
15490W        W83908  21.158  26.968  14.400
15491W        W83909  44.336  27.115  14.465
15492W        W83910   3.226   0.344   0.275
15493W        W83911  20.671  23.698  12.948
15494W        W83912   3.353   5.227  10.974
15495W        W83913  28.998  38.886   4.661
15496W        W83914   9.829  18.787   0.785
15497W        W83915  31.012  35.509  14.923
15498W        W83916  21.249  25.069   0.247
15499W        W83917  33.445  12.745  12.990
15500W        W83918  31.904   5.233   4.721
15501W        W83919  20.103  25.665  10.585
15502W        W83920  34.554  13.209   2.887
15503W        W83921  13.773  12.742   0.837
15504W        W83922   8.849   5.692   1.737
15505W        W83923  23.183  36.047   1.407
15506W        W83924   7.327   6.880   2.418
15507W        W83925  44.404  28.577  12.519
15508W        W83926  24.071   6.232   5.202
15509W        W83927   1.386   7.703  11.525
15510W        W83928   8.753  31.923   1.318
15511W        W83929  42.391  31.416  13.437
15512W        W83930  31.611  13.668  13.440
15513W        W83931  10.206  29.042   0.395
15514W        W83932  16.652  17.760   4.734
15515W        W83933  13.230  20.595   1.442
15516W        W83934   5.405  24.118  14.993
15517W        W83935  13.348   5.400   1.341
15518W        W83936  34.494  25.050  10.430
15519W        W83937   8.837  36.886  12.541
15520W        W83938  14.827  35.079   1.856
15521W        W83939   3.785  21.086   4.694
15522W        W83940   8.804  15.608   3.302
15523W        W83941  34.877  30.425  11.460
15524W        W83942  34.472  13.291   1.805
15525W        W83943  35.460  33.625   1.819
15526W        W83944   7.241  14.668  11.391
15527W        W83945  28.489  34.088   4.784
15528W        W83946   7.819  25.614  10.511
15529W        W83947  24.091   4.363   1.440
15530W        W83948  23.148  30.530  14.955
15531W        W83949   3.911  20.571  14.281
15532W        W83950  36.401   1.255   4.745
15533W        W83951  17.566  44.311  11.986
15534W        W83952   4.931  12.656  10.918
15535W        W83953  16.292  34.021   0.339
15536W        W83954   9.658  37.914   1.917
15537W        W83955  38.846  38.043   0.357
15538W        W83956  30.625  32.401   2.778
15539W        W83957  35.503  31.151  10.461
15540W        W83958  35.505  25.503   0.801
15541W        W83959  29.526   4.714   2.331
15542W        W83960  36.382  32.426  11.016
15543W        W83961  28.461   4.763  10.594
15544W        W83962   0.951  10.280  11.502
15545W        W83963  29.453   5.357  14.912
15546W        W83964  20.684  36.401  10.404
15547W        W83965  32.628  41.979   4.724
15548W        W83966  17.124  31.423  10.948
15549W        W83967  15.655  43.507  14.514
15550W        W83968  23.736  20.754  13.347
15551W        W83969   9.682   3.940   2.759
15552W        W83970  17.096  40.856   3.221
15553W        W83971  37.083   6.219  11.487
15554W        W83972  44.324  25.081  14.314
15555W        W83973  18.123  30.577  13.980
15556W        W83974  39.344  19.207   4.275
15557W        W83975   0.831   0.872   0.952
15558W        W83976  11.340   2.292  12.530
15559W        W83977   2.440  22.108  13.955
15560W        W83978   1.898   9.777   3.810
15561W        W83979   8.886  25.604   4.326
15562W        W83980   8.403  34.468  11.111
15563W        W83981   6.333   3.743  12.912
15564W        W83982  20.558   3.279  14.846
15565W        W83983  27.098  23.171  12.522
15566W        W83984  17.307  20.751  12.939
15567W        W83985  16.765   8.873  11.900
15568W        W83986  19.764  22.614   0.452
15569W        W83987  23.148  30.005  13.876
15570W        W83988  33.599  35.545  10.441
15571W        W83989   2.319  34.884  14.420
15572W        W83990   9.760  29.520  12.418
15573W        W83991  32.620  11.332   4.259
15574W        W83992  32.405  16.159   3.802
15575W        W83993  33.004   9.693   3.302
15576W        W83994  35.520  18.161   4.270
15577W        W83995  37.853  21.245  14.777
15578W        W83996   4.243  40.479   4.633
15579W        W83997  28.073   6.392   3.204
15580W        W83998   0.357  22.528   5.177
15581W        W83999  44.842  31.040   4.146
15582W        W84000  22.594  24.045   2.351
15583W        W84001  40.399  24.479  14.321
15584W        W84002  26.986   0.918  11.577
15585W        W84003  23.177  40.993  11.039
15586W        W84004   4.753  19.265   1.429
15587W        W84005  15.259  29.132   3.314
15588W        W84006  26.465  43.412  10.571
15589W        W84007   9.287  17.689  13.507
15590W        W84008  26.042  30.923  11.029
15591W        W84009  31.006   1.340   4.625
15592W        W84010   7.296  25.710   4.745
15593W        W84011  39.526  40.363  14.855
15594W        W84012  14.116  38.487   4.352
15595W        W84013  27.067   4.803  10.938
15596W        W84014  16.608  33.904   4.174
15597W        W84015  29.053  34.538  10.618
15598W        W84016   6.282  10.635   2.219
15599W        W84017  19.147  44.944   0.440
15600W        W84018   5.815  15.698   3.367
15601W        W84019  35.571  40.315   1.290
15602W        W84020  33.893   0.840   4.159
15603W        W84021  28.177  34.002   0.898
15604W        W84022  41.448  19.589  14.406
15605W        W84023   0.793  33.095  13.826
15606W        W84024   1.340  23.675  12.350
15607W        W84025   7.356  28.003  14.002
15608W        W84026   1.804  30.983   5.146
15609W        W84027  42.979  23.171  13.959
15610W        W84028  11.647  20.138   2.841
15611W        W84029  36.925  24.599   2.339
15612W        W84030  13.219  25.566  11.037
15613W        W84031  28.563  38.037  13.487
15614W        W84032   2.963  18.094  14.476
15615W        W84033   3.225  19.535  10.146
15616W        W84034  33.948   0.945   0.373
15617W        W84035  20.610  38.461  12.496
15618W        W84036  20.680  16.172  10.458
15619W        W84037   1.313  25.477   2.318
15620W        W84038  34.929   8.344   1.849
15621W        W84039  43.300  37.962  15.000
15622W        W84040  40.035  19.667   2.726
15623W        W84041   4.895  26.167  11.886
15624W        W84042  40.345  38.445   4.338
15625W        W84043   5.872   2.396   3.373
15626W        W84044  14.220  16.212   2.412
15627W        W84045  39.448   1.423   2.742
15628W        W84046  42.842  30.457   3.347
15629W        W84047  29.135  44.766  12.404
15630W        W84048   5.206  27.071   3.193
15631W        W84049  27.647  11.844  12.398
15632W        W84050   3.830  44.418   3.171
15633W        W84051  32.497  23.716   4.146
15634W        W84052   3.889   3.234  11.060
15635W        W84053   8.772  11.179   1.788
15636W        W84054  14.243  22.726   3.159
15637W        W84055  34.095  19.222   1.339
15638W        W84056  16.604   4.883   2.786
15639W        W84057  20.083   2.370   4.327
15640W        W84058  18.655  28.614   4.647
15641W        W84059  40.385  42.316   4.281
15642W        W84060   9.721  43.480   1.449
15643W        W84061  24.009  44.277  11.025
15644W        W84062  44.883   5.806  10.560
15645W        W84063  13.336  30.065  12.911
15646W        W84064  27.122  12.199  11.417
15647W        W84065  12.134  32.524  13.796
15648W        W84066  41.828   9.785   1.241
15649W        W84067  27.191   4.407   2.402
15650W        W84068  31.475   5.434   0.473
15651W        W84069  29.028  36.879   0.904
15652W        W84070  31.494  13.140  13.968
15653W        W84071   1.837  30.937   1.361
15654W        W84072  38.544  24.543  13.033
15655W        W84073  31.146  35.551  13.484
15656W        W84074  44.460  44.464   4.783
15657W        W84075  15.136  17.081   4.138
15658W        W84076  35.368   3.723  14.391
15659W        W84077  36.373   5.762   2.680
15660W        W84078  25.622  42.941  14.407
15661W        W84079  10.739  18.761  11.066
15662W        W84080  36.920  14.215   0.890
15663W        W84081  17.086  21.739   3.239
15664W        W84082  10.259  14.746  10.113
15665W        W84083  36.885   5.778  12.366
15666W        W84084  13.720   7.740  11.511
15667W        W84085   7.723  40.530   2.332
15668W        W84086  38.045  26.564   4.652
15669W        W84087  21.616   3.766   4.156
15670W        W84088  38.423  31.914  10.437
15671W        W84089  21.232   2.830  11.569
15672W        W84090  42.527  35.084   3.373
15673W        W84091   7.879  25.123   0.364
15674W        W84092  35.531  39.843  13.059
15675W        W84093  17.080  12.270  11.481
15676W        W84094  25.099  43.929   0.861
15677W        W84095  27.497  11.628   0.383
15678W        W84096   7.412  42.440  12.957
15679W        W84097  13.132  34.435  10.585
15680W        W84098  38.992  17.110   2.324
15681W        W84099  19.662  22.249   0.269
15682W        W84100   9.713  38.833   3.216
15683W        W84101  33.025   9.242  11.886
15684W        W84102   3.883  18.252   2.318
15685W        W84103   6.891  29.456  14.965
15686W        W84104  26.179  26.654   4.767
15687W        W84105  36.085  28.436  14.996
15688W        W84106   3.735   4.853  10.639
15689W        W84107  43.398  28.665   3.869
15690W        W84108   9.671  26.072   3.750
15691W        W84109  40.881   7.702   2.400
15692W        W84110  20.233  26.651   0.366
15693W        W84111   0.754  42.491  11.567
15694W        W84112   4.832  21.572   2.363
15695W        W84113  31.486  27.677   0.364
15696W        W84114  33.469  44.505  10.962
15697W        W84115  21.539  26.493  13.023
15698W        W84116  15.139  25.219  10.477
15699W        W84117  12.773  44.951  13.980
15700W        W84118  16.283  29.153  14.023
15701W        W84119  40.883  37.915  13.518
15702W        W84120  28.066   1.346   3.160
15703W        W84121   0.822  10.333  10.080
15704W        W84122  25.593  27.152   4.121
15705W        W84123  11.637  15.095  11.580
15706W        W84124   5.889  26.043  11.010
15707W        W84125  14.798   7.858  13.797
15708W        W84126  22.585  18.263   5.104
15709W        W84127  26.965  41.986   3.224
15710W        W84128  23.191  15.154   3.189
15711W        W84129  39.008   3.306  12.939
15712W        W84130   6.844  18.732   4.313
15713W        W84131   5.312  22.611   4.716
15714W        W84132  19.142  28.497   2.207
15715W        W84133  30.112   1.898  13.545
15716W        W84134   9.188  31.429  10.997
15717W        W84135   3.432  36.589   2.861
15718W        W84136   3.788  26.600   0.914
15719W        W84137   1.291  26.614  11.056
15720W        W84138  26.199  38.372  13.508
15721W        W84139  22.166  12.756  10.970
15722W        W84140  11.348  24.156  13.347
15723W        W84141  44.873  27.660  12.049
15724W        W84142  23.610  32.094   1.245
15725W        W84143  36.571  32.554  14.770
15726W        W84144  30.928  37.390  11.960
15727W        W84145  29.971  19.236   2.182
15728W        W84146   1.273  30.504  14.420
15729W        W84147  41.024  34.457  12.573
15730W        W84148  31.547  36.917  12.860
15731W        W84149  10.769  13.614  13.822
15732W        W84150   5.721  13.220  14.781
15733W        W84151   9.780  16.072  10.904
15734W        W84152  18.257  23.142   4.287
15735W        W84153  22.101  30.915  12.340
15736W        W84154  43.405  20.090  12.416
15737W        W84155  17.652  19.202   1.267
15738W        W84156   2.388   6.225   2.875
15739W        W84157  26.201  14.334   1.450
15740W        W84158   6.693  27.181  14.975
15741W        W84159  29.982  16.577  12.041
15742W        W84160  40.829  32.935  11.415
15743W        W84161  41.348  29.949   3.652
15744W        W84162  35.011  22.502   1.357
15745W        W84163   3.818  21.705  13.927
15746W        W84164  43.462  41.531   4.694
15747W        W84165  39.993  38.368  14.820
15748W        W84166  13.347  40.325  12.543
15749W        W84167   3.336  25.130   1.322
15750W        W84168   1.780  32.513   4.609
15751W        W84169  21.665  34.938  12.579
15752W        W84170  42.917  21.107  12.947
15753W        W84171  33.450   6.346   0.420
15754W        W84172  43.997  38.856  13.951
15755W        W84173  43.875  11.801  10.095
15756W        W84174  35.066   6.805   4.162
15757W        W84175  10.759  10.200   3.666
15758W        W84176  30.953  38.517  11.402
15759W        W84177   4.889   5.249  10.566
15760W        W84178   7.696  20.732   4.275
15761W        W84179  20.055   8.366  13.905
15762W        W84180  37.500  36.965   0.368
15763W        W84181  26.670   6.348   3.759
15764W        W84182  11.811  39.018   4.312
15765W        W84183  24.535  27.546  13.974
15766W        W84184   5.690  24.637  13.946
15767W        W84185  13.630  27.446  11.113
15768W        W84186  29.564  32.593  14.896
15769W        W84187   4.277  16.095   2.360
15770W        W84188  11.703  31.501   2.323
15771W        W84189   3.760   9.729   2.234
15772W        W84190  28.067  40.994  14.819
15773W        W84191   8.810   5.755  11.386
15774W        W84192   2.758   9.157  11.896
15775W        W84193   7.223  27.495  12.481
15776W        W84194  37.029  11.799   0.389
15777W        W84195  12.688   4.306  13.437
15778W        W84196  32.557  37.046   2.712
15779W        W84197  11.152   9.321   2.364
15780W        W84198  41.822  31.916   2.815
15781W        W84199  40.452  33.613   2.836
15782W        W84200  34.965  32.624   1.903
15783W        W84201   8.659   9.368  14.341
15784W        W84202   7.367   9.760  13.048
15785W        W84203  14.779  41.459  12.093
15786W        W84204   0.381  32.415   2.752
15787W        W84205  18.694  18.116   2.379
15788W        W84206  32.114  25.196  10.485
15789W        W84207   9.175  30.051  10.997
15790W        W84208  34.922   6.821  10.903
15791W        W84209   1.271  20.229   9.968
15792W        W84210  14.738   3.750  12.853
15793W        W84211  20.585   2.898   2.825
15794W        W84212   0.794  19.724   9.996
15795W        W84213  24.529  40.920  12.533
15796W        W84214  20.133   6.344   0.363
15797W        W84215  24.709  20.730  14.479
15798W        W84216  19.748  21.517   3.646
15799W        W84217  16.761  11.260  10.629
15800W        W84218  14.680  22.523   4.141
15801W        W84219  22.608   5.433  14.759
15802W        W84220  11.306  32.532   0.805
15803W        W84221   1.387  12.768  12.438
15804W        W84222   5.885  22.065   3.360
15805W        W84223  23.010   0.988   3.271
15806W        W84224  25.035  24.522  12.959
15807W        W84225  40.467  28.089  13.417
15808W        W84226  19.699  13.277  14.372
15809W        W84227   7.400  43.364   1.323
15810W        W84228  31.458  35.405  10.512
15811W        W84229  24.672  10.221   4.654
15812W        W84230  15.720   5.232   2.701
15813W        W84231  23.205  41.392   0.286
15814W        W84232  15.285  30.018  14.390
15815W        W84233  21.636  23.637   2.182
15816W        W84234  20.052  18.692   4.701
15817W        W84235  30.557  15.622   1.750
15818W        W84236  20.565  10.831  11.473
15819W        W84237   1.848  25.549  13.513
15820W        W84238  22.662  13.639   2.411
15821W        W84239   9.756  22.143  11.969
15822W        W84240  37.852   0.425   0.765
15823W        W84241   4.722  13.311   2.807
15824W        W84242  14.624  36.001   1.284
15825W        W84243  34.454  27.163  14.331
15826W        W84244  40.340   6.847  10.425
15827W        W84245  33.951  15.276  14.807
15828W        W84246  40.924  37.970  11.594
15829W        W84247  18.581  17.572   3.377
15830W        W84248  32.054  44.476   4.227
15831W        W84249   5.343  30.053   3.332
15832W        W84250  16.769   6.200  11.119
15833W        W84251  30.562  18.752   2.783
15834W        W84252  14.115  38.520   2.857
15835W        W84253  18.701  16.231  12.369
15836W        W84254  25.669  15.113  13.006
15837W        W84255   9.251  26.131   0.899
15838W        W84256  38.460  25.692  14.031
15839W        W84257  37.526  38.876  11.443
15840W        W84258   5.304  32.890   4.156
15841W        W84259  33.495  24.483  10.017
15842W        W84260   6.831  17.699   1.710
15843W        W84261  35.383  10.857   1.396
15844W        W84262  39.556   2.885   2.365
15845W        W84263  13.650  20.613   4.657
15846W        W84264  39.495  31.053  11.453
15847W        W84265   9.691  43.972   4.679
15848W        W84266  38.833  25.007  11.930
15849W        W84267  24.052  17.071  11.390
15850W        W84268  36.375  13.345   4.832
15851W        W84269  25.150  32.594  12.039
15852W        W84270  21.532   5.276   0.920
15853W        W84271   9.793  25.590  12.024
15854W        W84272   7.731  14.243   2.329
15855W        W84273  19.189  13.694  12.917
15856W        W84274  22.073  26.588  13.960
15857W        W84275  44.392  22.673   4.786
15858W        W84276  28.568  30.985   3.149
15859W        W84277  38.841  35.459  10.592
15860W        W84278  41.846   3.775  14.284
15861W        W84279  28.530   4.891  11.501
15862W        W84280  43.513  22.196   4.616
15863W        W84281  44.411  41.897   4.279
15864W        W84282  33.060  12.220   2.263
15865W        W84283  18.285  15.677  14.873
15866W        W84284   2.437  37.983  14.324
15867W        W84285  14.139   4.745   0.367
15868W        W84286   6.841  13.347   1.230
15869W        W84287  17.273  21.515   0.756
15870W        W84288  19.146  34.382   2.336
15871W        W84289  10.364   3.382   3.323
15872W        W84290  42.827   1.972   2.736
15873W        W84291   9.395  11.336   2.288
15874W        W84292  10.290  34.085  12.551
15875W        W84293  43.855  27.608   4.640
15876W        W84294  34.484  40.804   0.470
15877W        W84295  21.564  23.024   4.339
15878W        W84296  22.096  30.096  13.980
15879W        W84297   8.878   5.883  12.443
15880W        W84298   7.823  38.478  11.605
15881W        W84299  12.331  27.607   1.418
15882W        W84300  37.861  29.597  12.833
15883W        W84301   2.862   7.858  12.499
15884W        W84302  14.734  39.946   1.324
15885W        W84303  44.295   2.465  10.439
15886W        W84304  18.763  13.770   3.198
15887W        W84305   5.426  35.450  11.085
15888W        W84306  20.696  23.730  12.532
15889W        W84307   2.722   9.250  13.822
15890W        W84308  16.707   6.685   4.283
15891W        W84309  25.003   7.338   4.263
15892W        W84310   2.361  12.696   4.197
15893W        W84311  33.598  11.154   4.832
15894W        W84312  44.980  13.694   9.495
15895W        W84313  44.497  12.350   0.845
15896W        W84314  21.709  44.979   2.880
15897W        W84315   4.890  25.489   2.852
15898W        W84316  23.017   2.395   3.236
15899W        W84317  39.471  16.709   0.258
15900W        W84318  26.979  31.480   1.366
15901W        W84319   2.769   4.912   2.357
15902W        W84320  38.883  30.451   0.287
15903W        W84321  42.967  26.597  14.428
15904W        W84322  36.960  21.150   2.396
15905W        W84323   2.938  26.548   4.774
15906W        W84324  22.164  42.777   1.278
15907W        W84325   6.345   8.854   0.252
15908W        W84326  30.091  44.478   4.737
15909W        W84327  23.073  40.330   3.663
15910W        W84328  12.173  36.370  11.954
15911W        W84329   6.260  42.808  14.480
15912W        W84330  22.599  27.506  12.042
15913W        W84331  26.543   5.197  13.314
15914W        W84332  44.917  17.783   4.311
15915W        W84333   7.320  15.211   0.310
15916W        W84334  11.209   9.359  11.066
15917W        W84335  39.959  40.988   3.346
15918W        W84336  24.050  14.771  12.566
15919W        W84337  15.291  43.445  12.918
15920W        W84338  37.490   9.734   0.923
15921W        W84339  38.043  17.246  12.851
15922W        W84340  19.555  41.348   0.798
15923W        W84341   5.229  30.587   4.335
15924W        W84342  20.635   2.789  12.371
15925W        W84343   2.394  38.527   1.725
15926W        W84344   0.808  34.930  13.852
15927W        W84345  23.725   5.693   2.379
15928W        W84346  35.581  37.875  14.454
15929W        W84347  18.120  42.877   4.676
15930W        W84348  22.583   8.815  13.452
15931W        W84349  40.824   7.267   1.904
15932W        W84350  25.159  34.463  11.902
15933W        W84351  20.183   7.328   2.278
15934W        W84352  28.125  39.871  13.324
15935W        W84353  37.905  13.651   1.308
15936W        W84354  27.946  12.808  13.980
15937W        W84355  33.051  21.731   4.184
15938W        W84356  29.444  11.792  11.901
15939W        W84357  43.850   2.341   2.218
15940W        W84358  10.757  20.534   3.146
15941W        W84359   9.379  18.131   0.910
15942W        W84360  38.955  37.991   1.241
15943W        W84361  42.288  31.023  14.928
15944W        W84362  36.949  29.936   3.146
15945W        W84363  36.438  44.448  13.815
15946W        W84364  27.086  41.504  12.059
15947W        W84365  25.468   1.333   0.737
15948W        W84366  24.993   4.295  12.349
15949W        W84367  13.130  13.772   4.152
15950W        W84368   0.967  31.117  13.448
15951W        W84369  44.004   1.762  11.945
15952W        W84370  28.055  30.929  14.786
15953W        W84371  42.817  28.161   0.371
15954W        W84372  23.104   3.915   3.274
15955W        W84373  19.130  16.110   3.331
15956W        W84374  41.536  40.045   2.234
15957W        W84375  11.211  38.867  13.508
15958W        W84376   0.931   7.789   4.173
15959W        W84377   3.888  10.223   2.743
15960W        W84378  26.144  30.506   0.965
15961W        W84379  28.990  19.055  11.863
15962W        W84380  15.098  18.183  14.981
15963W        W84381  44.837  19.272  14.975
15964W        W84382  20.615  10.726   3.726
15965W        W84383  11.860   4.418   3.147
15966W        W84384  16.741   0.982   1.357
15967W        W84385  25.977   3.952  14.017
15968W        W84386  27.536  35.096  11.122
15969W        W84387  30.587  10.379   1.700
15970W        W84388  32.052  11.833  10.504
15971W        W84389  17.270   7.386   3.743
15972W        W84390  26.509  24.613  10.421
15973W        W84391  40.536  44.317  10.968
15974W        W84392   5.314  21.539  12.045
15975W        W84393  42.926   4.293   2.188
15976W        W84394   9.753  17.245   4.686
15977W        W84395  13.708   3.220   0.963
15978W        W84396  31.560  34.428   1.712
15979W        W84397  26.124   3.927  10.615
15980W        W84398  19.121  17.643  13.367
15981W        W84399  20.645  11.765  12.033
15982W        W84400   2.924  15.787  11.916
15983W        W84401  23.603  40.435  10.115
15984W        W84402  29.054  39.362   3.854
15985W        W84403  11.215  11.801  14.434
15986W        W84404  30.438  30.081  14.296
15987W        W84405  23.551  15.657   0.754
15988W        W84406  26.566  42.390   5.162
15989W        W84407  11.319   1.267  14.974
15990W        W84408  17.652  28.048  13.395
15991W        W84409  29.534  26.180  14.004
15992W        W84410  13.608  12.621   4.651
15993W        W84411  32.957  42.305   3.745
15994W        W84412  11.164  11.204   1.814
15995W        W84413  37.906  25.672  12.425
15996W        W84414  19.656  43.922  14.428
15997W        W84415  12.145  27.603   1.801
15998W        W84416   3.244  40.542   2.261
15999W        W84417  16.725  16.670   4.150
16000W        W84418  24.494  26.998   4.677
16001W        W84419  43.014  39.410  14.414
16002W        W84420  16.072  40.020  12.439
16003W        W84421   9.230  43.292  13.989
16004W        W84422  12.834  38.997  11.118
16005W        W84423   5.799  17.745  12.520
16006W        W84424  10.708  30.959  11.039
16007W        W84425  11.248   3.807   2.367
16008W        W84426  18.622  12.622  14.334
16009W        W84427  17.220  36.513  11.408
16010W        W84428   2.919   7.293   4.151
16011W        W84429   6.734  42.974  11.879
16012W        W84430   9.765  42.028   1.901
16013W        W84431  37.402  32.016  13.347
16014W        W84432  36.557  15.662   1.449
16015W        W84433  23.728  23.202  11.495
16016W        W84434  37.474  28.011   2.776
16017W        W84435  17.189  20.707  14.969
16018W        W84436   6.791   2.857  14.424
16019W        W84437  30.950  39.861   4.716
16020W        W84438  31.040  44.871  13.512
16021W        W84439   8.192  26.607  10.914
16022W        W84440  20.633   9.323   1.709
16023W        W84441  23.629  10.803  12.352
16024W        W84442   9.357  21.208   3.644
16025W        W84443  20.198   2.467  11.053
16026W        W84444  18.117   5.733  14.454
16027W        W84445  29.162  39.065  10.431
16028W        W84446  13.317  31.456  13.888
16029W        W84447  36.896  26.607  11.930
16030W        W84448  34.040  16.601  14.835
16031W        W84449  33.432  15.161  10.622
16032W        W84450  35.464  12.214  10.628
16033W        W84451  33.891  44.280   4.350
16034W        W84452  32.417  19.072  13.810
16035W        W84453   2.270  30.452   2.293
16036W        W84454  23.206   0.930  12.004
16037W        W84455   3.774   8.267  13.410
16038W        W84456  40.838  22.244  11.038
16039W        W84457   6.688  32.128   0.816
16040W        W84458  38.490  44.391  14.365
16041W        W84459  32.088  43.319  12.452
16042W        W84460  14.809  34.877   4.159
16043W        W84461   7.693   6.789  12.400
16044W        W84462   6.778  14.692   1.771
16045W        W84463  40.320  19.091  10.968
16046W        W84464  40.364  18.273  13.896
16047W        W84465  43.292  35.370   2.724
16048W        W84466  38.961  36.587   2.257
16049W        W84467  35.386  33.081  13.903
16050W        W84468  20.247  33.474  13.497
16051W        W84469  15.193   6.734  10.535
16052W        W84470  38.899  10.643  12.576
16053W        W84471  25.555  33.130  12.355
16054W        W84472  26.159   1.247  11.041
16055W        W84473  19.065  11.142  14.904
16056W        W84474  39.019  37.082   2.770
16057W        W84475  10.634  11.310  13.328
16058W        W84476  17.150  24.505   3.853
16059W        W84477  13.199  20.534   4.340
16060W        W84478  11.369  31.060   0.874
16061W        W84479  13.760  26.568  10.571
16062W        W84480  20.227  15.101  14.843
16063W        W84481  32.558   4.698  14.324
16064W        W84482  32.901  14.784   0.358
16065W        W84483  24.491  30.151  12.426
16066W        W84484  11.366  24.126   4.160
16067W        W84485  34.601  34.006   4.152
16068W        W84486  43.283   1.450   2.179
16069W        W84487   7.747   5.824  13.927
16070W        W84488   7.678  28.053   2.665
16071W        W84489  22.583  41.301   1.702
16072W        W84490  15.146   5.827   1.415
16073W        W84491  24.558  12.766   2.252
16074W        W84492  28.044  13.752  11.857
16075W        W84493   3.890  25.011   1.714
16076W        W84494  44.462   4.858  10.484
16077W        W84495   9.275  23.539  10.548
16078W        W84496  28.028  22.173   0.286
16079W        W84497  35.038  42.411  11.563
16080W        W84498  43.315   4.284   2.707
16081W        W84499   5.862   6.923  14.898
16082W        W84500  39.900   9.792  12.430
16083W        W84501  11.245  41.943  12.960
16084W        W84502  12.667  23.141  12.095
16085W        W84503   3.790  23.605  11.448
16086W        W84504  30.609   0.355  14.988
16087W        W84505  22.684  18.772   1.752
16088W        W84506  31.608   9.766  13.825
16089W        W84507  29.020  30.550  10.609
16090W        W84508  43.769  28.516   4.649
16091W        W84509  37.472  42.426  14.927
16092W        W84510  27.130  32.998  11.576
16093W        W84511  42.363  27.980   2.816
16094W        W84512  11.760  10.849  13.861
16095W        W84513  29.965   0.387  14.936
16096W        W84514  38.886   5.242   2.208
16097W        W84515   6.281  35.033   5.188
16098W        W84516  10.767  11.366  14.032
16099W        W84517  40.975  16.651  12.074
16100W        W84518  32.906  28.619   3.162
16101W        W84519  42.885  42.001   0.812
16102W        W84520  13.152  31.494   3.870
16103W        W84521  40.864  23.647  13.927
16104W        W84522   2.811  27.069   0.458
16105W        W84523  28.464  41.380   2.203
16106W        W84524  41.448  14.702  10.458
16107W        W84525  31.153  15.686   1.260
16108W        W84526  10.379  27.993  11.023
16109W        W84527  37.057  43.793   4.124
16110W        W84528  30.416  12.301   2.300
16111W        W84529  29.138   3.912  10.925
16112W        W84530  22.539   1.900  12.401
16113W        W84531   2.844  31.094  13.924
16114W        W84532  26.109   0.389   1.910
16115W        W84533  43.909   0.781  12.865
16116W        W84534  42.327  16.208   1.327
16117W        W84535  10.168  18.106  14.982
16118W        W84536  20.699  26.179  14.835
16119W        W84537  36.548  10.715   0.928
16120W        W84538  23.081  33.484   2.829
16121W        W84539  23.532  38.551   5.084
16122W        W84540  26.000  17.268   3.278
16123W        W84541  44.309  35.901  11.469
16124W        W84542  29.513  16.773   0.247
16125W        W84543   3.399  39.327   4.729
16126W        W84544  14.197  36.876   3.793
16127W        W84545  38.907  43.773   1.713
16128W        W84546   1.430  35.863  12.387
16129W        W84547  39.445   7.885   3.648
16130W        W84548  18.596  16.184  12.840
16131W        W84549  23.179   7.720  12.871
16132W        W84550   9.749   4.832  10.406
16133W        W84551  36.035  31.996   1.933
16134W        W84552  38.538  43.956   3.316
16135W        W84553  44.283  39.478  12.415
16136W        W84554   8.198  29.007   4.620
16137W        W84555   3.811  10.154   4.798
16138W        W84556  16.152  42.433  13.437
16139W        W84557  16.753  12.657  14.870
16140W        W84558  27.536  16.112  11.570
16141W        W84559   6.266  26.478  10.415
16142W        W84560  29.503  38.530  11.424
16143W        W84561   3.864   9.724   4.339
16144W        W84562  20.753  24.654   3.303
16145W        W84563  14.637  42.826   0.875
16146W        W84564  35.907  28.610  11.118
16147W        W84565  14.661  34.966  13.528
16148W        W84566  18.140  33.415  14.921
16149W        W84567   8.307   0.950  11.045
16150W        W84568  23.993  36.535   2.339
16151W        W84569  42.813  33.561  14.961
16152W        W84570   0.823   2.943   4.214
16153W        W84571   4.803   6.299   4.245
16154W        W84572  23.081   0.752   1.850
16155W        W84573  28.663  13.661  13.460
16156W        W84574  21.567  29.499   1.281
16157W        W84575  32.527  13.670  10.499
16158W        W84576  35.470  28.581  13.014
16159W        W84577   5.274  11.350   0.789
16160W        W84578  24.687  30.941  14.786
16161W        W84579  18.701  14.699   5.744
16162W        W84580   2.261  28.515  14.410
16163W        W84581  24.540  35.073  12.565
16164W        W84582   4.285   7.225  12.014
16165W        W84583  26.987   1.868  11.046
16166W        W84584  10.696  40.470   3.839
16167W        W84585  22.217  19.153   0.908
16168W        W84586   5.336  17.136  11.520
16169W        W84587  18.185  21.636   3.156
16170W        W84588  21.744  20.539  14.296
16171W        W84589   7.781  28.657   4.833
16172W        W84590  10.864   8.227   4.321
16173W        W84591  28.044  18.615   2.760
16174W        W84592   7.703   4.248  12.503
16175W        W84593  28.046   9.724  14.346
16176W        W84594   5.196  38.545  14.008
16177W        W84595   5.782  10.228   1.250
16178W        W84596  15.202  17.589   3.672
16179W        W84597   8.338   4.852   0.752
16180W        W84598   1.904  38.401  11.509
16181W        W84599  33.616  18.699  13.060
16182W        W84600  32.623  43.799   4.817
16183W        W84601  16.287  41.922  12.084
16184W        W84602  21.750  30.549  12.861
16185W        W84603  23.152  18.639  12.350
16186W        W84604  26.472   6.902   5.169
16187W        W84605  31.079  44.990   0.831
16188W        W84606  37.376  25.169   4.154
16189W        W84607  12.760  14.715   4.270
16190W        W84608  12.845  26.104  13.360
16191W        W84609  24.621   1.297   2.811
16192W        W84610  42.469   4.766  13.365
16193W        W84611  32.060  36.963   1.837
16194W        W84612  24.988  35.471   3.345
16195W        W84613  13.340  25.036   4.827
16196W        W84614   0.918  21.686   1.292
16197W        W84615  35.898  37.563  10.081
16198W        W84616  33.082  21.056  11.460
16199W        W84617  32.457   7.838   3.168
16200W        W84618  32.524  14.692  11.929
16201W        W84619   2.329  43.894   1.262
16202W        W84620   5.785  12.641   4.251
16203W        W84621  12.674   5.930  11.075
16204W        W84622  21.147  38.005  11.442
16205W        W84623  39.430  17.662  12.963
16206W        W84624  20.210  31.441  12.434
16207W        W84625  37.068  23.524   4.345
16208W        W84626  38.917  42.960   1.897
16209W        W84627   0.445  13.175   1.786
16210W        W84628  19.570  41.900   2.312
16211W        W84629   7.374  31.420   2.706
16212W        W84630  20.193  28.152   1.785
16213W        W84631  28.672  29.434  12.414
16214W        W84632  34.601   7.680   3.675
16215W        W84633  28.006  26.186   2.836
16216W        W84634  11.766   3.256  11.937
16217W        W84635  16.233  35.498  12.906
16218W        W84636   9.655  32.510  10.461
16219W        W84637  40.798  28.066   2.863
16220W        W84638  18.192  26.514  11.418
16221W        W84639  17.670   6.258  12.862
16222W        W84640  42.950  14.723   0.305
16223W        W84641   0.310  37.569   3.823
16224W        W84642   6.384  25.186   5.246
16225W        W84643  14.829  32.128   4.653
16226W        W84644  11.232  44.983   4.320
16227W        W84645  14.201  31.606  11.374
16228W        W84646  38.355  15.101  13.484
16229W        W84647  13.725  18.786   1.230
16230W        W84648  23.158  16.118  11.944
16231W        W84649   7.320  42.915   4.663
16232W        W84650  15.119   6.820   5.248
16233W        W84651  22.690  36.499  10.607
16234W        W84652  36.581  28.589   3.228
16235W        W84653  17.264  18.116  12.547
16236W        W84654   0.977  22.514   3.372
16237W        W84655  12.728   0.819   4.600
16238W        W84656  17.673  18.122   1.292
16239W        W84657  33.571  41.916  11.590
16240W        W84658  33.057   7.836  12.884
16241W        W84659   3.279   1.928  13.531
16242W        W84660  14.186  25.471  12.985
16243W        W84661  11.220   1.827  14.981
16244W        W84662   1.369  22.104   2.196
16245W        W84663  42.816  21.550   1.750
16246W        W84664  12.227  41.353   2.193
16247W        W84665  17.744  42.840   2.311
16248W        W84666  29.503  34.374   2.759
16249W        W84667   4.356  13.109  10.924
16250W        W84668  10.377  37.833  13.443
16251W        W84669  20.228  35.935   5.264
16252W        W84670  26.191  25.178  11.501
16253W        W84671   2.756  23.704  13.916
16254W        W84672   0.380  34.080  14.454
16255W        W84673   1.756  40.395  11.374
16256W        W84674  12.680   3.286   1.387
16257W        W84675  20.683   7.844  10.948
16258W        W84676   7.859  31.081   2.742
16259W        W84677  35.490  39.541   2.723
16260W        W84678  36.502  43.340   2.869
16261W        W84679  19.619  43.898   0.253
16262W        W84680   1.737  32.995  14.999
16263W        W84681  41.807  35.489   0.389
16264W        W84682  23.583  42.927   1.783
16265W        W84683  14.179  12.662   2.233
16266W        W84684   6.785   6.807  14.781
16267W        W84685   6.890  44.781   4.333
16268W        W84686   1.974  34.888  13.334
16269W        W84687  24.028   5.215  13.879
16270W        W84688  29.969  24.213   4.251
16271W        W84689   4.809  14.209  11.434
16272W        W84690  43.407   4.920  11.584
16273W        W84691  27.107   3.230  12.984
16274W        W84692  28.971   1.348  14.835
16275W        W84693  29.655  11.642  10.082
16276W        W84694  44.797  11.341  10.558
16277W        W84695  43.843  17.260   0.948
16278W        W84696  27.953  37.376  10.428
16279W        W84697  15.125  13.637   4.818
16280W        W84698  31.957  11.848   1.935
16281W        W84699   2.374   9.186   1.395
16282W        W84700   6.749  35.524   1.259
16283W        W84701  24.479  35.600   0.389
16284W        W84702  30.051  34.493   4.738
16285W        W84703  23.726  25.107   1.379
16286W        W84704  25.091  36.035  11.521
16287W        W84705  41.484  18.654   4.350
16288W        W84706  22.723  30.415  12.492
16289W        W84707  35.032  41.801  13.992
16290W        W84708   6.873  19.189   4.731
16291W        W84709  21.173  44.923  14.948
16292W        W84710  11.686  11.282  12.874
16293W        W84711   0.837  32.067   2.663
16294W        W84712  18.770  28.444   1.816
16295W        W84713  26.621   2.379   2.287
16296W        W84714   7.390  20.121   1.900
16297W        W84715   3.732  12.791   3.862
16298W        W84716  36.519  18.558  13.417
16299W        W84717  26.541  10.792   2.316
16300W        W84718  10.155  17.266   4.167
16301W        W84719  11.229  32.987  11.948
16302W        W84720   7.286   9.379  10.982
16303W        W84721  27.574  43.004   3.337
16304W        W84722   1.780   3.360   3.232
16305W        W84723  14.148  34.914  11.438
16306W        W84724   8.817  35.966  11.408
16307W        W84725  17.195  11.676  13.003
16308W        W84726  26.139  20.032   2.321
16309W        W84727   5.739  34.500  14.447
16310W        W84728  30.964  25.056   0.281
16311W        W84729  22.173  30.015  12.511
16312W        W84730  33.001  24.608   3.195
16313W        W84731  30.445  15.595  10.566
16314W        W84732   8.170  40.519   4.196
16315W        W84733  10.263  37.947   2.777
16316W        W84734  40.026   2.745   0.778
16317W        W84735   0.850  10.761  14.997
16318W        W84736  40.977  30.096   3.225
16319W        W84737  30.522   4.289   2.205
16320W        W84738  21.263  31.514  10.154
16321W        W84739  43.477  11.669  13.883
16322W        W84740  24.098  32.969   0.816
16323W        W84741  31.944  21.545  13.383
16324W        W84742  27.504   1.382  11.472
16325W        W84743  42.841   7.677   4.170
16326W        W84744   4.247  35.872  14.967
16327W        W84745  28.564  25.969  10.495
16328W        W84746   1.748  28.650  12.370
16329W        W84747  14.630  29.098   2.350
16330W        W84748  37.441  44.981  12.876
16331W        W84749   1.356  28.536  10.982
16332W        W84750  24.182  16.676   3.684
16333W        W84751  41.530  38.924  14.795
16334W        W84752   4.752   0.306   2.881
16335W        W84753  17.282  20.526   3.329
16336W        W84754  27.631  11.674   0.790
16337W        W84755  16.126  14.271   0.332
16338W        W84756  22.201   9.342   0.425
16339W        W84757  38.943  28.460  14.394
16340W        W84758   3.329  42.028  13.529
16341W        W84759  15.738   2.463   4.132
16342W        W84760  24.590  10.232  10.445
16343W        W84761  26.542  21.575   0.296
16344W        W84762   3.835   5.915  10.564
16345W        W84763   6.761   2.900   1.252
16346W        W84764   7.271  23.163  12.346
16347W        W84765  13.204   4.422   1.745
16348W        W84766  12.728  42.026   2.821
16349W        W84767   0.751  18.783   0.306
16350W        W84768   0.742   5.882  12.002
16351W        W84769  18.785  42.387  13.450
16352W        W84770  34.905  17.802   2.206
16353W        W84771  43.018  21.138  14.467
16354W        W84772   5.765  35.452   0.388
16355W        W84773  33.605  30.127  10.522
16356W        W84774  37.493   3.887  13.925
16357W        W84775   1.788  17.296  14.342
16358W        W84776  33.122  11.722  10.944
16359W        W84777   0.373  28.149  12.937
16360W        W84778  34.413  30.560  12.048
16361W        W84779  24.994  25.684   2.900
16362W        W84780  37.073  31.967  14.918
16363W        W84781   2.843  22.006   1.391
16364W        W84782  41.888  40.856  13.512
16365W        W84783  37.532  32.491   4.113
16366W        W84784  31.030  40.945   1.777
16367W        W84785  10.825  23.169  10.955
16368W        W84786  19.591   7.299  13.865
16369W        W84787  41.006  11.308  10.894
16370W        W84788  38.004  22.733  12.405
16371W        W84789  20.251   2.379   4.639
16372W        W84790  10.836  27.049   2.793
16373W        W84791  13.242  41.819   3.196
16374W        W84792  34.002  14.113  14.907
16375W        W84793  18.293  33.954   4.619
16376W        W84794  42.896  16.099   4.699
16377W        W84795  29.448  39.812  12.571
16378W        W84796  21.544  43.807   2.731
16379W        W84797  25.587  42.289  13.045
16380W        W84798  32.140  10.842   0.463
16381W        W84799  20.720  31.535  13.824
16382W        W84800  23.540  15.090  12.439
16383W        W84801  44.280  29.565  10.109
16384W        W84802  16.288  22.016   0.379
16385W        W84803  18.655  18.678  14.316
16386W        W84804   2.751   3.853  12.471
16387W        W84805   5.318  22.006  12.371
16388W        W84806  30.977  30.622  11.406
16389W        W84807  23.221  43.299   2.840
16390W        W84808  23.229  33.402  12.504
16391W        W84809  11.207   0.323  12.470
16392W        W84810   8.853  28.060  12.894
16393W        W84811  39.435   1.275   0.774
16394W        W84812  17.700   9.854  11.583
16395W        W84813  36.016  10.850   1.399
16396W        W84814  43.929   8.359   2.865
16397W        W84815  39.808  22.086   4.290
16398W        W84816  11.275  37.066   3.246
16399W        W84817  37.963  11.812  10.965
16400W        W84818  42.412   2.409   2.217
16401W        W84819  14.262  14.300  14.507
16402W        W84820  17.186  41.478  14.779
16403W        W84821  15.163  15.612  11.373
16404W        W84822  20.049  23.129   4.304
16405W        W84823  43.839   7.223  10.477
16406W        W84824  12.625  21.263   1.328
16407W        W84825  30.446  44.769   3.809
16408W        W84826   7.375   3.320  13.401
16409W        W84827  23.064  21.115   1.377
16410W        W84828  34.468  14.268  11.000
16411W        W84829  22.072   5.227   0.275
16412W        W84830  14.307   1.265   4.790
16413W        W84831   6.323  30.041   3.713
16414W        W84832  44.505  35.549   1.776
16415W        W84833   3.232  32.495   4.190
16416W        W84834  25.487  43.353   2.725
16417W        W84835  10.164   1.381   2.743
16418W        W84836   3.899  28.516  11.542
16419W        W84837  23.710  37.981  13.307
16420W        W84838  18.272  34.094  14.393
16421W        W84839  15.591  35.903   1.216
16422W        W84840  13.794  34.028  12.428
16423W        W84841  14.824  34.533   0.434
16424W        W84842  27.538  44.757   0.871
16425W        W84843  21.056  22.714  12.002
16426W        W84844  12.687  33.510   1.250
16427W        W84845  31.026  35.071   0.860
16428W        W84846  40.379  26.955  11.488
16429W        W84847  31.970  12.212   0.331
16430W        W84848  29.567   8.279   0.922
16431W        W84849  11.160   8.783  14.419
16432W        W84850  32.407  24.662   3.799
16433W        W84851  24.637   6.403  12.846
16434W        W84852  31.038  13.278  11.860
16435W        W84853  28.181  20.560  12.580
16436W        W84854  24.690   9.843  13.936
16437W        W84855   9.217  16.176  14.407
16438W        W84856  41.909  18.632   2.706
16439W        W84857  20.541  39.886   2.894
16440W        W84858  33.976  20.058  12.904
16441W        W84859  13.715  18.289   0.399
16442W        W84860  12.184   3.248  12.507
16443W        W84861  17.768   6.329   4.651
16444W        W84862  23.733  22.515   1.855
16445W        W84863   2.351  10.351   1.723
16446W        W84864  20.642  33.446   1.777
16447W        W84865  40.803  13.638  13.026
16448W        W84866  38.883  23.014   4.205
16449W        W84867  18.686  11.782   9.545
16450W        W84868  21.032  31.102   3.709
16451W        W84869  25.156  12.274  12.920
16452W        W84870  33.504  36.496  12.564
16453W        W84871   0.800  38.468   0.809
16454W        W84872   4.796  39.818   4.204
16455W        W84873  35.976  34.955  14.283
16456W        W84874  30.084   8.359  10.077
16457W        W84875   5.220  18.785   3.161
16458W        W84876  20.226  35.549  14.881
16459W        W84877  41.420  22.694   0.437
16460W        W84878  29.498  30.061   3.794
16461W        W84879  19.690   7.831  12.915
16462W        W84880  18.638  27.460  13.509
16463W        W84881  33.913  12.794  13.431
16464W        W84882  15.324  30.565   2.272
16465W        W84883  33.104  18.131  10.524
16466W        W84884  35.401  25.687  13.983
16467W        W84885   7.184  32.060   0.961
16468W        W84886  24.167  25.985   2.271
16469W        W84887  20.114  29.063  11.060
16470W        W84888  18.629  34.428  11.605
16471W        W84889  41.467  24.597  14.276
16472W        W84890  28.476  35.044   4.609
16473W        W84891  33.516  23.611   2.847
16474W        W84892  34.510   6.416  12.073
16475W        W84893  22.602  38.845  10.889
16476W        W84894  41.376  17.595   0.944
16477W        W84895   4.246  32.127  13.792
16478W        W84896  27.460  11.284  11.588
16479W        W84897  33.474  32.583  10.566
16480W        W84898  40.925   4.385  14.359
16481W        W84899  14.676  30.100  14.958
16482W        W84900  20.655  31.623   2.669
16483W        W84901  23.211  43.990   3.277
16484W        W84902  10.165  22.159   4.740
16485W        W84903  21.132  30.590  11.961
16486W        W84904  35.482   6.869   4.724
16487W        W84905  39.958   2.413  12.447
16488W        W84906  23.984   2.273   1.413
16489W        W84907   2.320  31.911  14.813
16490W        W84908  44.925   4.340   1.250
16491W        W84909  32.598  22.701   2.233
16492W        W84910  14.310   7.239  11.124
16493W        W84911  40.475   1.277  10.906
16494W        W84912  28.469  19.549   3.825
16495W        W84913   2.453  19.229   2.254
16496W        W84914  13.272  30.474  13.001
16497W        W84915   9.291   0.839  10.034
16498W        W84916  38.940  19.267   1.871
16499W        W84917  33.529  32.456  12.476
16500W        W84918  26.032  14.187   0.759
16501W        W84919  35.902  14.271   4.341
16502W        W84920  28.991  17.635   2.309
16503W        W84921   0.401  14.154   3.228
16504W        W84922   2.334  28.972   2.867
16505W        W84923  43.449  24.509   1.752
16506W        W84924   3.252   4.399   1.779
16507W        W84925  28.590  21.529  14.888
16508W        W84926   9.370  38.459  14.824
16509W        W84927  17.247  43.502   2.399
16510W        W84928  19.779  26.520  12.883
16511W        W84929  31.481   7.340   0.955
16512W        W84930  19.680  25.099   2.896
16513W        W84931   7.900   9.336   1.712
16514W        W84932  14.266  39.987  14.032
16515W        W84933  41.960  21.681   4.175
16516W        W84934  29.552  21.724   2.884
16517W        W84935  42.445  15.140  11.527
16518W        W84936  38.419  26.961  14.481
16519W        W84937  36.537  28.538   1.900
16520W        W84938  22.554  34.048   2.718
16521W        W84939  26.969  36.920  12.842
16522W        W84940   3.783  36.996  14.420
16523W        W84941  18.247   2.770   1.340
16524W        W84942  14.701  42.927  12.965
16525W        W84943  32.959  19.147  12.461
16526W        W84944  38.965  41.838   0.791
16527W        W84945  44.975  36.414   4.263
16528W        W84946   5.769  13.825  11.103
16529W        W84947  44.312   5.899  11.467
16530W        W84948  32.128   7.792   1.781
16531W        W84949  24.022  41.791   4.229
16532W        W84950  22.222  17.120  12.374
16533W        W84951  14.622  20.225   2.300
16534W        W84952  29.591  30.021   2.818
16535W        W84953  25.035   7.289   3.761
16536W        W84954  17.084  42.415  12.539
16537W        W84955   8.333   6.350  10.575
16538W        W84956  30.947  37.956   4.635
16539W        W84957  11.726  19.587  13.466
16540W        W84958   2.948   3.841   1.711
16541W        W84959  35.053  11.130   0.469
16542W        W84960   3.422  34.583   0.830
16543W        W84961   8.826  40.362   4.824
16544W        W84962   1.810  13.307  11.919
16545W        W84963  28.124  15.637  13.947
16546W        W84964  12.288  30.159  12.903
16547W        W84965  31.047  11.801  13.887
16548W        W84966  31.034  13.633   1.702
16549W        W84967  16.744  21.214  13.435
16550W        W84968  21.055  19.217   0.291
16551W        W84969  43.780  18.580   0.346
16552W        W84970  17.132  19.721   4.161
16553W        W84971  39.887  41.321   3.233
16554W        W84972  38.472  36.437   1.307
16555W        W84973  24.997  12.646   3.734
16556W        W84974  20.244  18.586  14.983
16557W        W84975  44.978  24.183  10.922
16558W        W84976  36.885  32.576   1.348
16559W        W84977  25.173  35.001  13.976
16560W        W84978  38.907  30.018  14.295
16561W        W84979  26.030   0.253  10.548
16562W        W84980  13.659  17.564  11.887
16563W        W84981  39.851   1.386   2.705
16564W        W84982   2.298  15.757   2.202
16565W        W84983  20.238  23.215   4.831
16566W        W84984  12.307  11.731   2.231
16567W        W84985  18.646   1.471  13.840
16568W        W84986  44.299  30.633   9.956
16569W        W84987  21.207  24.012  13.347
16570W        W84988  29.663  41.870   1.263
16571W        W84989   6.342  42.017   0.730
16572W        W84990  27.565  33.461   0.293
16573W        W84991  37.848  41.943  11.408
16574W        W84992  14.162   3.390  12.568
16575W        W84993  17.557  11.181  11.936
16576W        W84994  13.641  40.850  13.842
16577W        W84995  32.009  22.693   0.290
16578W        W84996  33.568  44.321  13.366
16579W        W84997   5.374  26.543   3.182
16580W        W84998  32.595  30.636  12.373
16581W        W84999  43.291   4.750   3.187
16582W        W85000  36.562   7.911  14.371
16583W        W85001  32.637  34.903   3.660
16584W        W85002  38.020  38.502  14.891
16585W        W85003  18.130   8.655   5.268
16586W        W85004   1.923   2.733   2.185
16587W        W85005  43.819  13.696   2.870
16588W        W85006  17.741  32.472   0.754
16589W        W85007  39.421  22.165  14.971
16590W        W85008   5.798  26.638   1.889
16591W        W85009  42.907  44.819   2.822
16592W        W85010  16.222  27.088  10.572
16593W        W85011   5.342  32.065  11.472
16594W        W85012  24.492  27.997  12.018
16595W        W85013  21.042  29.571   2.798
16596W        W85014  25.504  30.961  11.028
16597W        W85015  35.105  25.040   0.735
16598W        W85016  14.670  17.118   1.904
16599W        W85017  19.659  28.434   0.256
16600W        W85018   1.906  10.867   1.446
16601W        W85019  37.946  13.108   0.439
16602W        W85020   4.721  22.611   1.292
16603W        W85021  11.364  30.521   2.892
16604W        W85022  32.109  43.918   1.358
16605W        W85023  18.767  11.730  14.765
16606W        W85024  39.954   2.435  11.982
16607W        W85025  27.603  25.501  12.453
16608W        W85026  12.248  31.447   4.202
16609W        W85027  39.051  17.119   9.941
16610W        W85028  14.244  25.646   0.300
16611W        W85029  22.648  31.454   0.747
16612W        W85030  34.520   5.803   1.742
16613W        W85031   0.402  22.513   3.727
16614W        W85032  26.979   7.669  14.919
16615W        W85033  43.803  17.149  13.331
16616W        W85034  27.657  23.517   2.738
16617W        W85035  23.120  34.508   4.736
16618W        W85036  29.425  42.402  14.440
16619W        W85037  17.212   7.670  10.973
16620W        W85038  20.751  22.078   4.134
16621W        W85039  29.108  25.667   3.319
16622W        W85040   2.730  17.666  12.858
16623W        W85041  26.178  27.532  11.941
16624W        W85042  34.082  16.096   2.890
16625W        W85043  18.260   6.296   4.815
16626W        W85044  42.024   9.192   1.370
16627W        W85045   1.312  38.473  14.477
16628W        W85046  44.774  19.626   4.353
16629W        W85047  43.436  38.473   3.837
16630W        W85048  20.129  14.828  10.988
16631W        W85049  24.229  14.764   3.821
16632W        W85050  25.150  13.253   3.703
16633W        W85051  20.176   0.749   1.913
16634W        W85052  23.050   9.809   0.761
16635W        W85053  15.232  36.043  10.438
16636W        W85054   7.863  21.243   0.793
16637W        W85055  19.772   3.317   2.397
16638W        W85056  11.307  26.572   2.278
16639W        W85057  20.067  32.561   2.805
16640W        W85058   2.875  28.633  11.976
16641W        W85059  17.217  44.851  14.358
16642W        W85060  37.079  14.636  14.310
16643W        W85061  20.140  31.912   4.696
16644W        W85062   4.310  28.497  13.791
16645W        W85063   6.189  28.094   4.300
16646W        W85064  12.217   2.349   1.925
16647W        W85065  39.064  26.557  12.899
16648W        W85066  27.559   3.952  13.889
16649W        W85067  41.525   7.231  14.979
16650W        W85068  41.032  17.780   3.301
16651W        W85069  21.568  12.221   3.746
16652W        W85070  14.244   2.833  13.511
16653W        W85071  39.934  10.645   2.316
16654W        W85072  19.124  32.506  14.479
16655W        W85073  41.001  33.905   4.661
16656W        W85074   8.163  43.374   3.268
16657W        W85075  25.469  29.065  10.552
16658W        W85076  38.474  41.990  13.860
16659W        W85077  11.303  10.325   2.313
16660W        W85078  35.438  38.050  12.972
16661W        W85079   2.343  44.466   4.833
16662W        W85080   9.393  44.396   3.156
16663W        W85081  39.332  41.518   3.156
16664W        W85082  11.219  30.504  10.589
16665W        W85083  34.443  14.643  12.002
16666W        W85084  43.442  42.991  11.497
16667W        W85085  11.656  25.994  14.393
16668W        W85086  31.073  44.304  13.484
16669W        W85087  31.131  11.808  10.418
16670W        W85088  25.703  29.925   0.817
16671W        W85089  19.630  13.347   3.267
16672W        W85090  34.078  41.034   2.266
16673W        W85091  30.451  29.103  14.276
16674W        W85092  30.618  26.610  12.453
16675W        W85093  37.884  42.885  13.446
16676W        W85094  10.231  13.176  13.358
16677W        W85095   5.899  28.071  13.357
16678W        W85096  31.579  39.459  12.948
16679W        W85097  35.531  16.653  11.066
16680W        W85098   5.366   1.889  11.560
16681W        W85099  25.219  20.167   4.617
16682W        W85100  11.158  30.430   2.220
16683W        W85101   9.307  26.047   1.252
16684W        W85102  11.709  19.633   2.855
16685W        W85103  20.250  43.296   3.218
16686W        W85104  42.511  21.699   4.298
16687W        W85105  11.859   8.270   2.327
16688W        W85106  25.110  10.655  13.819
16689W        W85107  14.337   2.870   2.266
16690W        W85108  21.183  27.040   4.185
16691W        W85109  13.167  16.316  13.926
16692W        W85110  42.418  33.057  14.856
16693W        W85111   8.228  37.885   4.601
16694W        W85112   7.245   8.399  13.486
16695W        W85113  21.671  24.015  10.455
16696W        W85114   9.391   2.242  11.469
16697W        W85115  28.609   2.836   4.147
16698W        W85116   3.885  24.700  10.640
16699W        W85117  30.917  33.479   4.796
16700W        W85118  44.875  32.962  11.862
16701W        W85119  43.943   8.376   0.807
16702W        W85120   0.932  33.000   2.712
16703W        W85121   5.800  30.449  11.540
16704W        W85122  17.653  16.260   2.375
16705W        W85123  41.909  25.691   1.386
16706W        W85124  32.566   0.951  10.442
16707W        W85125  29.590  29.112  12.478
16708W        W85126  32.058  27.187   4.673
16709W        W85127  40.826  23.715  13.536
16710W        W85128  40.929  28.470   1.814
16711W        W85129  33.890  26.984   1.247
16712W        W85130  16.276   6.788   3.867
16713W        W85131   0.897  14.801   3.726
16714W        W85132  15.192  30.912  13.968
16715W        W85133  34.484   7.857   0.317
16716W        W85134  17.599  43.837  14.311
16717W        W85135  33.069  20.769  10.437
16718W        W85136  42.485   2.274  14.851
16719W        W85137  37.469   0.940   2.327
16720W        W85138  42.797   9.718   2.372
16721W        W85139  23.495  19.664   3.826
16722W        W85140   6.264  31.954   2.278
16723W        W85141  22.040  35.895   2.330
16724W        W85142  21.630  14.635   4.287
16725W        W85143  17.587  29.497  10.935
16726W        W85144  26.579   7.828   0.961
16727W        W85145   2.937  25.981   3.691
16728W        W85146  22.663  32.552   2.806
16729W        W85147  34.073  12.180  11.537
16730W        W85148   6.347  17.661  12.566
16731W        W85149  19.694   0.296  10.905
16732W        W85150   0.937   6.424  12.563
16733W        W85151  37.071  40.400   3.285
16734W        W85152  25.987  10.260  11.549
16735W        W85153   8.354  14.661   1.859
16736W        W85154   8.354  35.979   4.818
16737W        W85155  13.201   9.258   1.785
16738W        W85156  22.202  10.725  14.914
16739W        W85157  40.413  27.097   2.777
16740W        W85158   2.952   4.449  13.456
16741W        W85159  33.385  36.866   1.823
16742W        W85160  14.625   8.687   3.172
16743W        W85161  12.173   3.878  10.617
16744W        W85162  34.572  41.992  10.516
16745W        W85163  42.784  23.686   5.607
16746W        W85164   3.714  31.037  12.487
16747W        W85165  11.861  38.882   2.900
16748W        W85166  40.052  36.992   0.754
16749W        W85167   2.855  11.678  13.860
16750W        W85168  44.295  32.057   3.865
16751W        W85169   0.901  42.503   2.365
16752W        W85170   2.291  32.975  10.472
16753W        W85171  17.709  19.602   3.258
16754W        W85172  28.576  10.770  11.372
16755W        W85173  35.031   3.345  10.473
16756W        W85174  14.266  40.361   4.293
16757W        W85175  13.615  19.598  10.486
16758W        W85176  14.207   0.255   9.987
16759W        W85177  26.173  23.733  14.277
16760W        W85178  40.489  39.846  12.909
16761W        W85179  15.628  35.594  13.050
16762W        W85180  39.890  24.040  10.520
16763W        W85181  11.180  40.955  12.030
16764W        W85182  26.173  26.583   3.245
16765W        W85183  17.272  19.101  11.093
16766W        W85184  27.033  26.132   1.732
16767W        W85185  40.370  40.798   1.835
16768W        W85186  41.377  20.200  14.790
16769W        W85187  23.154   0.328   0.360
16770W        W85188  31.900   7.351   0.734
16771W        W85189  21.046  14.778  14.368
16772W        W85190  13.224  42.384  14.392
16773W        W85191  43.338  20.599   5.250
16774W        W85192  12.148   4.867  14.878
16775W        W85193  27.148  42.424  14.469
16776W        W85194  29.165  34.511  11.074
16777W        W85195  40.031  22.204   4.606
16778W        W85196  18.124  11.252  13.411
16779W        W85197  41.788   7.257  12.931
16780W        W85198  27.470  44.755  13.963
16781W        W85199  33.088  23.634   1.694
16782W        W85200  21.061   9.663   1.448
16783W        W85201  27.996   0.370  14.778
16784W        W85202  44.891  43.784  10.526
16785W        W85203  40.344  16.312  10.542
16786W        W85204   4.367  14.151   0.277
16787W        W85205  24.628  35.602   2.364
16788W        W85206  35.861   2.303   3.306
16789W        W85207  19.073   9.722  13.398
16790W        W85208  22.586  40.874   0.932
16791W        W85209   4.728  19.620  14.382
16792W        W85210   4.786  15.708  10.535
16793W        W85211  28.137   2.369   4.194
16794W        W85212  18.707  28.035   4.268
16795W        W85213  10.178  13.185   3.796
16796W        W85214   0.277  36.578   2.665
16797W        W85215   5.214  44.976  13.963
16798W        W85216   1.252  21.596  11.904
16799W        W85217  10.645  28.483  11.500
16800W        W85218   4.778  32.503  10.418
16801W        W85219  26.155  29.477  10.416
16802W        W85220  27.569  38.468   1.722
16803W        W85221  15.279   7.777  13.885
16804W        W85222  35.856  23.637  11.510
16805W        W85223  17.195   9.652   9.984
16806W        W85224  41.950  16.169  10.577
16807W        W85225  42.481  18.786  14.782
16808W        W85226   8.810  26.638   2.881
16809W        W85227   6.894   5.931  11.095
16810W        W85228  26.535  41.374   2.870
16811W        W85229  36.350  28.076   2.852
16812W        W85230  11.244   3.352  12.050
16813W        W85231  12.215  33.454   4.643
16814W        W85232  31.033   0.800   5.084
16815W        W85233  16.729  42.787   4.652
16816W        W85234  40.839  38.942   1.293
16817W        W85235   0.969  15.207  14.385
16818W        W85236   9.320  31.507   2.803
16819W        W85237  14.690   9.310   4.613
16820W        W85238  38.061  31.405  11.094
16821W        W85239  34.402  25.977   3.756
16822W        W85240  26.583  39.847  13.931
16823W        W85241  19.592  38.980  14.510
16824W        W85242  42.481  39.046  12.991
16825W        W85243  22.583  28.127   3.749
16826W        W85244   3.750  19.642  12.440
16827W        W85245  27.522  38.457  13.950
16828W        W85246  10.638  25.713  14.494
16829W        W85247  39.850  10.774   1.250
16830W        W85248  13.784  29.942   1.353
16831W        W85249  39.875   2.288   4.327
16832W        W85250  10.853   0.766   2.266
16833W        W85251   6.750  43.306  13.393
16834W        W85252  43.361  27.461  12.474
16835W        W85253  29.117  25.473  14.844
16836W        W85254   2.236  17.064  12.025
16837W        W85255  44.342  12.800  14.858
16838W        W85256  30.606   5.341  13.491
16839W        W85257   5.313   2.861  13.880
16840W        W85258  41.382  32.977   4.131
16841W        W85259  19.181  44.499   2.309
16842W        W85260  30.528  14.292   4.597
16843W        W85261  18.555  25.176   4.143
16844W        W85262  22.649  38.880   2.214
16845W        W85263  36.885  16.099   1.731
16846W        W85264  23.713   7.341   4.786
16847W        W85265  31.111   1.864   0.898
16848W        W85266   5.322  23.065   4.340
16849W        W85267  37.358  18.288   2.864
16850W        W85268   4.442  44.808  13.456
16851W        W85269  31.968  29.973  12.912
16852W        W85270  41.424  40.503  12.375
16853W        W85271   8.826  22.596   4.720
16854W        W85272  14.290  10.145  12.483
16855W        W85273  12.270  25.213   3.751
16856W        W85274  15.740  35.427   4.245
16857W        W85275  42.868  38.326  14.429
16858W        W85276  19.102   9.333  13.955
16859W        W85277  35.045  33.087   2.377
16860W        W85278  20.074   4.862  13.849
16861W        W85279  22.082  33.454  14.988
16862W        W85280   8.728  37.339   0.892
16863W        W85281  44.313   9.305  13.957
16864W        W85282   6.186  24.054  13.899
16865W        W85283  36.394  12.154   0.264
16866W        W85284   1.795  10.805  14.892
16867W        W85285  19.176  25.711   1.330
16868W        W85286   3.277  36.916  13.847
16869W        W85287   5.233   5.203  10.595
16870W        W85288  32.533  11.627  12.517
16871W        W85289  36.852  22.729   0.347
16872W        W85290  26.502  43.429   4.255
16873W        W85291  16.588   3.417  12.347
16874W        W85292  14.108  28.475  11.388
16875W        W85293  19.745   6.422   0.813
16876W        W85294  17.574   3.281  14.958
16877W        W85295  31.095   9.376  12.067
16878W        W85296   3.762  43.282  12.828
16879W        W85297  16.218  20.112   1.259
16880W        W85298  43.377   1.931   2.386
16881W        W85299  44.838  36.467  14.508
16882W        W85300   0.950  13.826   5.257
16883W        W85301  28.636  18.179  14.826
16884W        W85302  37.858   8.704   0.268
16885W        W85303  22.624   5.297  12.886
16886W        W85304  35.550  11.276   4.212
16887W        W85305  41.338  37.475  10.560
16888W        W85306  17.638  19.088  12.847
16889W        W85307   6.310  13.282   0.808
16890W        W85308  22.616  27.093   4.699
16891W        W85309  44.964  35.103   4.232
16892W        W85310  25.977   1.909  13.014
16893W        W85311   4.307  35.592  10.541
16894W        W85312  42.387  41.041  13.542
16895W        W85313  30.475  39.338   0.482
16896W        W85314  31.032  40.404   3.322
16897W        W85315  28.078  17.742  11.397
16898W        W85316  30.082  16.630  10.963
16899W        W85317  32.578  20.029  14.418
16900W        W85318  40.335  32.999  11.122
16901W        W85319  16.138  24.137   0.778
16902W        W85320  44.797  24.487  11.909
16903W        W85321   3.756  34.976  11.549
16904W        W85322  10.160  19.085   0.272
16905W        W85323  18.637  26.530   1.401
16906W        W85324  14.334   9.347  13.843
16907W        W85325  25.699  30.659   9.927
16908W        W85326  13.299  43.382  14.428
16909W        W85327  17.790   4.901  14.842
16910W        W85328   7.667  38.422   1.881
16911W        W85329   7.715  11.198  11.126
16912W        W85330  18.067   5.840   1.400
16913W        W85331  30.099  37.832   2.383
16914W        W85332   6.406   2.729   4.206
16915W        W85333  25.683  18.086  10.942
16916W        W85334   2.291  20.268   0.790
16917W        W85335   5.729  22.593   0.895
16918W        W85336  39.420   2.329  11.411
16919W        W85337  35.973  35.058  12.408
16920W        W85338  11.365  28.450  14.283
16921W        W85339  15.187   4.212  14.869
16922W        W85340  16.310  43.484   2.240
16923W        W85341  17.729   7.853  10.637
16924W        W85342  38.347   2.263   2.901
16925W        W85343  29.129  11.766   2.300
16926W        W85344  12.357  11.785  12.574
16927W        W85345   2.821  10.233  14.349
16928W        W85346  38.942  43.771   5.296
16929W        W85347  19.112  11.646  14.445
16930W        W85348  38.460  23.696   1.827
16931W        W85349  37.528  35.067   2.790
16932W        W85350  43.811  24.166  13.484
16933W        W85351  39.495  27.660   3.247
16934W        W85352  15.590   4.939   0.959
16935W        W85353  27.120   4.239   2.725
16936W        W85354  31.059  15.127  12.498
16937W        W85355  40.805  24.120   1.437
16938W        W85356  35.100   4.778   1.848
16939W        W85357  31.563  10.364   0.939
16940W        W85358   0.816  40.421  10.988
16941W        W85359  25.502  16.174   3.332
16942W        W85360  16.705   8.831   4.828
16943W        W85361  30.550  41.384   2.223
16944W        W85362  23.128  36.998  14.806
16945W        W85363  22.095  31.095   2.259
16946W        W85364  40.329  16.077  12.408
16947W        W85365  14.236   3.219  10.564
16948W        W85366  28.947  12.685   2.697
16949W        W85367  12.208  42.375  12.888
16950W        W85368  12.263  19.658  13.044
16951W        W85369  22.661  36.524  13.838
16952W        W85370  23.236  24.688   1.278
16953W        W85371   9.832  28.627   1.307
16954W        W85372  21.215  30.534   3.764
16955W        W85373   3.808  10.147   3.367
16956W        W85374  15.198  34.884  14.786
16957W        W85375   6.870   2.342  11.545
16958W        W85376  11.304  28.039   0.382
16959W        W85377  28.119   7.318  12.058
16960W        W85378   8.718  41.360   4.706
16961W        W85379  24.190  38.485   3.739
16962W        W85380  24.130  44.380  10.619
16963W        W85381   4.843  26.953  13.997
16964W        W85382  40.868  42.981   2.749
16965W        W85383  33.905  17.710  10.899
16966W        W85384   5.376  22.541  14.960
16967W        W85385  41.834  22.687   4.716
16968W        W85386  32.073  37.546   1.275
16969W        W85387  28.532  24.699   2.403
16970W        W85388   7.368  22.577  11.580
16971W        W85389  31.416  25.000  13.975
16972W        W85390  44.421  36.381  11.577
16973W        W85391  13.832  39.941   4.181
16974W        W85392  36.591  13.794   1.366
16975W        W85393  26.036  21.682  12.975
16976W        W85394   1.274   8.668   4.757
16977W        W85395   4.912   6.920  11.592
16978W        W85396  42.289  21.096   2.715
16979W        W85397  19.645   8.723  10.626
16980W        W85398  21.039  28.621   2.698
16981W        W85399   6.242  17.280  11.064
16982W        W85400  27.985   3.399  10.056
16983W        W85401  10.776  21.258   2.282
16984W        W85402  34.997  21.120   1.923
16985W        W85403  25.565  11.780  13.436
16986W        W85404   6.222  44.317   5.241
16987W        W85405   2.416  26.163  10.576
16988W        W85406   0.389  19.633  12.542
16989W        W85407  33.440  29.973   4.276
16990W        W85408   5.216  11.627  10.892
16991W        W85409  22.236  37.878   3.315
16992W        W85410  19.089  10.799   4.690
16993W        W85411   5.400   4.808  14.904
16994W        W85412  40.345  17.766   1.830
16995W        W85413  26.473   1.416   2.298
16996W        W85414  37.357  30.023   0.759
16997W        W85415  23.211  37.036   3.325
16998W        W85416  36.039  35.863  14.378
16999W        W85417  24.645   3.261   4.796
17000W        W85418   6.376  16.317  10.580
17001W        W85419  42.891  28.622   1.870
17002W        W85420   8.358  22.162   4.230
17003W        W85421  38.415  20.057  14.928
17004W        W85422  13.738  40.965  13.047
17005W        W85423   7.911  27.551   0.277
17006W        W85424  34.394  41.826   0.769
17007W        W85425   2.374  22.579  14.003
17008W        W85426  24.559  19.764  14.789
17009W        W85427  39.429   7.298   3.784
17010W        W85428  11.760  19.088   0.284
17011W        W85429  13.264  33.967  14.417
17012W        W85430  21.093   0.773   1.391
17013W        W85431  32.103  22.043   1.292
17014W        W85432  13.783  21.133   5.147
17015W        W85433   9.831  11.655  10.417
17016W        W85434  26.071   2.278  10.929
17017W        W85435  40.812  33.929   1.307
17018W        W85436  41.535  22.125   9.988
17019W        W85437  27.046  10.303   0.831
17020W        W85438  11.147  14.612  13.465
17021W        W85439  12.258   1.246  12.861
17022W        W85440  13.251  24.219   1.780
17023W        W85441  19.741  18.612   0.318
17024W        W85442  10.758   7.856   3.778
17025W        W85443  42.804  28.137   1.876
17026W        W85444   0.820  39.891  12.863
17027W        W85445  39.924  32.424   0.409
17028W        W85446  35.991  39.844  10.531
17029W        W85447  28.555  27.014   1.846
17030W        W85448   2.258  22.539   1.315
17031W        W85449   1.900   1.811  12.419
17032W        W85450  42.429  28.604  10.442
17033W        W85451  29.485  28.498  12.529
17034W        W85452   1.397  14.290   0.875
17035W        W85453  34.012  26.160  14.330
17036W        W85454  15.695  43.503   3.386
17037W        W85455  39.917   0.392  12.541
17038W        W85456   2.373  19.115  10.009
17039W        W85457  24.678  42.889  14.858
17040W        W85458  21.665   9.786  10.529
17041W        W85459  40.824   9.343   4.749
17042W        W85460  18.771  13.739  11.613
17043W        W85461  36.547  34.582   2.813
17044W        W85462  33.888  43.020  10.520
17045W        W85463  33.974  15.176  10.546
17046W        W85464   0.770  32.540  12.978
17047W        W85465   0.352  44.505   3.332
17048W        W85466  25.199  31.480  14.996
17049W        W85467   1.899  15.732  14.428
17050W        W85468   9.359  43.380  13.396
17051W        W85469  34.875  36.435   3.837
17052W        W85470  12.187  32.456   1.415
17053W        W85471  42.903  20.058   3.251
17054W        W85472  31.999  41.461  10.564
17055W        W85473  41.906  10.821  14.801
17056W        W85474  38.011  37.970  11.381
17057W        W85475   4.748  10.709   0.823
17058W        W85476   8.827  13.707  13.021
17059W        W85477   7.213  21.534  14.460
17060W        W85478   7.233  11.259  14.501
17061W        W85479   5.863  31.149   1.754
17062W        W85480   3.286   7.809   5.293
17063W        W85481  33.497   2.407  14.355
17064W        W85482  15.668  35.511  11.967
17065W        W85483  15.727   0.484   0.787
17066W        W85484  11.792  22.609   0.354
17067W        W85485   2.383   5.343   2.361
17068W        W85486  36.940  30.555  10.405
17069W        W85487  11.803  20.241   0.415
17070W        W85488  12.346  41.886  13.930
17071W        W85489   0.974  13.127  13.875
17072W        W85490  16.170  43.021  11.544
17073W        W85491  26.499  22.062  10.904
17074W        W85492  39.963  22.510  10.513
17075W        W85493  19.061  30.138   1.913
17076W        W85494  13.237   7.789  13.054
17077W        W85495  26.620   6.811   9.973
17078W        W85496   4.382  41.000  10.929
17079W        W85497  41.316  23.600   4.348
17080W        W85498   3.360  32.565   2.797
17081W        W85499  36.979   7.786  14.846
17082W        W85500   5.428  23.720   0.892
17083W        W85501   7.793   0.811   4.288
17084W        W85502  27.947  19.277   0.328
17085W        W85503  44.777   4.851   2.699
17086W        W85504  29.126  28.974   1.780
17087W        W85505   8.857   3.222  13.798
17088W        W85506  42.525  15.280   2.293
17089W        W85507   1.329  23.136   1.340
17090W        W85508  31.434  29.486   3.362
17091W        W85509  17.795  23.676  11.083
17092W        W85510  16.299  21.725  14.028
17093W        W85511  28.150  42.944   1.855
17094W        W85512  19.602  15.612  14.825
17095W        W85513  17.610  37.491   3.677
17096W        W85514  10.150  43.270  12.455
17097W        W85515  34.096  39.413  14.014
17098W        W85516  36.379   7.377  11.984
17099W        W85517  37.476  21.077  12.857
17100W        W85518   6.274  10.741  13.990
17101W        W85519  40.026  11.710   2.744
17102W        W85520   2.318  36.581   0.262
17103W        W85521  25.143  34.462   4.789
17104W        W85522  22.537  32.427  13.405
17105W        W85523   4.406   0.876  10.637
17106W        W85524  24.563   6.392  14.998
17107W        W85525   4.219   0.760  12.901
17108W        W85526   5.299  44.811  13.031
17109W        W85527   1.824  43.284   1.244
17110W        W85528   5.230  23.563   4.139
17111W        W85529  30.073  26.206   1.314
17112W        W85530  36.874  10.692   1.330
17113W        W85531   1.319  12.267  12.894
17114W        W85532  41.329  18.242  13.513
17115W        W85533   7.730  35.989  11.951
17116W        W85534   4.938   5.932   3.674
17117W        W85535  39.389  19.191   1.342
17118W        W85536  31.051  37.030   3.865
17119W        W85537  40.395  22.604   3.358
17120W        W85538  30.964   3.249   0.927
17121W        W85539   8.313  44.936  13.947
17122W        W85540  25.191  31.006  11.973
17123W        W85541  26.094   9.671  14.923
17124W        W85542  36.453  14.688   4.128
17125W        W85543   4.874  12.660   2.884
17126W        W85544   0.466  26.647  12.900
17127W        W85545  20.162   7.802  14.364
17128W        W85546  38.470  21.584   0.927
17129W        W85547  19.149  40.838   2.206
17130W        W85548   5.705  32.124  11.869
17131W        W85549   3.925   1.744  11.101
17132W        W85550   7.347  39.905   3.833
17133W        W85551  12.268  18.091  11.566
17134W        W85552  37.449   6.344  14.344
17135W        W85553  25.067   0.951   1.904
17136W        W85554  25.034  13.759   4.131
17137W        W85555  31.989   9.783  11.964
17138W        W85556  42.328  42.506  13.547
17139W        W85557  10.660  43.821   4.775
17140W        W85558   9.657  27.627  12.878
17141W        W85559  23.091  39.456  12.079
17142W        W85560  29.633   0.404  13.968
17143W        W85561  21.168   5.932   2.245
17144W        W85562  25.681  44.300  11.559
17145W        W85563  38.879  25.054  10.470
17146W        W85564  35.009  21.680  11.610
17147W        W85565  21.091  25.523  10.577
17148W        W85566  18.646  17.286   9.974
17149W        W85567  31.994  17.681   1.826
17150W        W85568  41.030   2.433   0.324
17151W        W85569  39.535  17.273  10.956
17152W        W85570  43.881  31.537  13.935
17153W        W85571  16.606   1.847  12.833
17154W        W85572   6.425  24.592   4.771
17155W        W85573  13.675  40.905  14.435
17156W        W85574  12.336  38.351   0.865
17157W        W85575  26.651  40.858  13.325
17158W        W85576  13.280  15.596   3.238
17159W        W85577   8.275   0.444   0.273
17160W        W85578   1.973  26.105  14.502
17161W        W85579  23.000  23.998   1.740
17162W        W85580   6.697  39.058  12.974
17163W        W85581  32.503  37.841   3.328
17164W        W85582  36.881  21.570   4.673
17165W        W85583  23.106  34.904   2.343
17166W        W85584  12.664   9.784  10.540
17167W        W85585  34.585  30.422  12.949
17168W        W85586   7.804  29.513  10.991
17169W        W85587  34.400  39.365   4.793
17170W        W85588   4.261  11.182  13.026
17171W        W85589  27.543  42.020  10.421
17172W        W85590  40.483  20.718   1.803
17173W        W85591  35.578  28.664   2.830
17174W        W85592  44.950  32.119  13.990
17175W        W85593  29.918  41.442  13.949
17176W        W85594   6.417  44.929  11.858
17177W        W85595  42.969  39.012  10.596
17178W        W85596   0.421   0.432  11.412
17179W        W85597   1.376  29.080   2.412
17180W        W85598  12.179   5.333  12.974
17181W        W85599  38.447   7.366  14.843
17182W        W85600  15.789  25.641  12.937
17183W        W85601  15.185  20.630   3.637
17184W        W85602  13.809  26.982  12.083
17185W        W85603  33.042  22.146  14.482
17186W        W85604  31.636  13.739   0.435
17187W        W85605  39.476   3.278   2.251
17188W        W85606  42.287  29.442   2.208
17189W        W85607  17.288   9.340  11.933
17190W        W85608  24.216  39.412   0.802
17191W        W85609  19.210  16.264  14.479
17192W        W85610  17.696  43.441  12.025
17193W        W85611  40.364  43.961   3.797
17194W        W85612  15.653  12.273   0.266
17195W        W85613   5.812  44.900   1.745
17196W        W85614  31.534  29.965  11.077
17197W        W85615  18.140  24.640  12.539
17198W        W85616  44.446   6.195  12.966
17199W        W85617  12.840  17.123   4.751
17200W        W85618   2.740   4.286  11.418
17201W        W85619  13.300   2.392   3.219
17202W        W85620  15.199   2.326  12.847
17203W        W85621  42.976   9.203  14.888
17204W        W85622  43.893  31.999  13.525
17205W        W85623   7.284   4.319   0.382
17206W        W85624  44.360  28.127   9.989
17207W        W85625  37.013  25.057   3.848
17208W        W85626  18.780  32.057   5.128
17209W        W85627  18.591  21.659  11.537
17210W        W85628  19.054  39.539  13.337
17211W        W85629  17.636  36.348  14.375
17212W        W85630  23.658  44.426  10.510
17213W        W85631  31.595  30.551  14.802
17214W        W85632  34.545  14.824   3.653
17215W        W85633  33.098  41.464   3.335
17216W        W85634  14.207  12.673  10.910
17217W        W85635  18.681  15.208   1.912
17218W        W85636  12.331   8.685   0.787
17219W        W85637  12.261  24.071   4.724
17220W        W85638  27.602  32.963  11.077
17221W        W85639  13.108   0.348  12.088
17222W        W85640  20.260  39.505  12.903
17223W        W85641  33.113  39.912  14.781
17224W        W85642   5.369  21.226  11.980
17225W        W85643  16.236  27.000   1.804
17226W        W85644   4.785   2.735  13.961
17227W        W85645   3.722  21.676  11.965
17228W        W85646  39.347   9.790  11.552
17229W        W85647  38.341  17.257   4.754
17230W        W85648  24.688  10.842  13.503
17231W        W85649   5.700  37.498  14.338
17232W        W85650  38.819  12.628   3.732
17233W        W85651  38.556  42.523  13.461
17234W        W85652  23.144  26.540   1.834
17235W        W85653  26.544  33.445  12.442
17236W        W85654  19.257  28.964  14.830
17237W        W85655  32.609   6.212   3.335
17238W        W85656  25.543  44.812  10.522
17239W        W85657  41.501   9.868  10.420
17240W        W85658  39.006  44.293   5.283
17241W        W85659   2.865  14.615   0.385
17242W        W85660  16.279   3.226  11.921
17243W        W85661  11.765  30.934  12.398
17244W        W85662  16.798  36.098  12.397
17245W        W85663  19.754  15.762   0.835
17246W        W85664   9.846  35.923   1.367
17247W        W85665   9.708   2.960  11.912
17248W        W85666   0.754  37.037   2.772
17249W        W85667  35.881  10.757  12.568
17250W        W85668  15.780   2.301  12.031
17251W        W85669  17.659  11.832   2.723
17252W        W85670   0.763   0.865   0.288
17253W        W85671  44.772  13.754   3.340
17254W        W85672  44.414  36.017  10.480
17255W        W85673   6.217  31.563   3.297
17256W        W85674   8.728  18.260  14.878
17257W        W85675  32.989  19.060   1.822
17258W        W85676   2.758  11.769  11.086
17259W        W85677  27.149   3.287  14.410
17260W        W85678  40.817  10.704   0.849
17261W        W85679  30.441  14.230  13.880
17262W        W85680   7.881  20.245  12.001
17263W        W85681  10.377  11.846  11.093
17264W        W85682  21.255  16.267  12.057
17265W        W85683   5.836  23.097   4.133
17266W        W85684  39.827  41.496   3.860
17267W        W85685  44.399  12.199   2.320
17268W        W85686  43.484  29.110  10.585
17269W        W85687  42.437  22.542   3.342
17270W        W85688  21.195  36.571   4.778
17271W        W85689  34.979  38.403  10.588
17272W        W85690   3.304  22.589   2.381
17273W        W85691  32.612  37.506   5.250
17274W        W85692  29.500  25.996   2.221
17275W        W85693  36.937  14.252  10.477
17276W        W85694  44.448   2.247  13.858
17277W        W85695   1.938   8.757   3.864
17278W        W85696   7.713  26.152   3.372
17279W        W85697  36.057  32.564  12.538
17280W        W85698   5.718  18.153  11.089
17281W        W85699  42.995  10.177  14.967
17282W        W85700  29.585  33.958  10.615
17283W        W85701  34.414  21.629   3.765
17284W        W85702  20.184  32.059   2.314
17285W        W85703  34.491   0.927   4.324
17286W        W85704   3.341  27.524   1.302
17287W        W85705   2.252  43.991  12.415
17288W        W85706  19.068  11.306  12.081
17289W        W85707  25.169  38.061   2.284
17290W        W85708  17.096  39.821  14.874
17291W        W85709  28.011  15.723   0.349
17292W        W85710  12.673  16.222  11.089
17293W        W85711  17.172   0.851   2.338
17294W        W85712  26.462  27.026   1.337
17295W        W85713  39.976   6.243   2.800
17296W        W85714  41.528   9.218   4.679
17297W        W85715  18.158  12.308   5.265
17298W        W85716   9.809  37.923   4.634
17299W        W85717  32.480  12.800  10.597
17300W        W85718  32.946  20.527   4.737
17301W        W85719   8.778  11.353  12.956
17302W        W85720  27.954  26.546  14.799
17303W        W85721  30.091  14.152  11.575
17304W        W85722  17.150  27.488  10.550
17305W        W85723  38.995   2.374  12.391
17306W        W85724  12.760  36.895   1.910
17307W        W85725  28.125  23.545  10.083
17308W        W85726  15.263  36.508  10.942
17309W        W85727  25.139  28.610  11.525
17310W        W85728   5.736  17.116   4.704
17311W        W85729  14.690  39.382   2.208
17312W        W85730   0.466  41.883  11.595
17313W        W85731  43.327   3.887  10.938
17314W        W85732  11.712  14.327   2.853
17315W        W85733   9.826  16.294   3.786
17316W        W85734  23.992  38.026   4.696
17317W        W85735  37.461  26.985  14.894
17318W        W85736  27.513  42.785  12.944
17319W        W85737  13.820   4.400   2.888
17320W        W85738   2.909   3.903  11.539
17321W        W85739  30.576  22.532   4.295
17322W        W85740  32.582   6.853  14.871
17323W        W85741  40.434   8.255   3.760
17324W        W85742  44.350  17.186   4.196
17325W        W85743  14.694  38.923   4.700
17326W        W85744   7.884  11.641  10.426
17327W        W85745  25.032  22.159   4.251
17328W        W85746   8.268   4.423  14.805
17329W        W85747  41.796  38.834   2.208
17330W        W85748  16.716   5.889   1.392
17331W        W85749  41.841   2.345  10.978
17332W        W85750  24.720  36.041  12.475
17333W        W85751   4.941  17.649   4.234
17334W        W85752   7.315  27.962  14.333
17335W        W85753  24.117   6.422   3.146
17336W        W85754  38.438  20.593   0.421
17337W        W85755  31.086  34.446  14.500
17338W        W85756  27.960   9.645   9.503
17339W        W85757  33.968  11.151   4.754
17340W        W85758  26.205  12.649   0.860
17341W        W85759  10.784  19.565  13.983
17342W        W85760  13.843  25.171  14.837
17343W        W85761   4.932  41.529  10.441
17344W        W85762  36.572   1.926  13.536
17345W        W85763   7.270  39.444  12.533
17346W        W85764  23.582  40.386  10.438
17347W        W85765   0.398   8.197  10.923
17348W        W85766  37.511  35.959  10.624
17349W        W85767   4.818   1.373  11.569
17350W        W85768  36.001  39.497   4.120
17351W        W85769  41.821   3.454  10.122
17352W        W85770  20.595  13.298   5.659
17353W        W85771  17.755  11.759   0.886
17354W        W85772  18.210  23.542  11.016
17355W        W85773  25.502  19.753   3.807
17356W        W85774  22.037   1.872   0.867
17357W        W85775  28.053  37.350  14.352
17358W        W85776   8.338  42.373  10.611
17359W        W85777  37.854  21.089   3.652
17360W        W85778  35.947   7.192   4.708
17361W        W85779  22.603  28.997   9.990
17362W        W85780  16.570  15.175   4.833
17363W        W85781  26.696  13.724   3.380
17364W        W85782  20.205  39.453   0.462
17365W        W85783  18.757  33.452   4.769
17366W        W85784  31.937  13.131  14.789
17367W        W85785  10.874  41.434   0.865
17368W        W85786  37.968  42.458   2.353
17369W        W85787  36.003  40.877   1.361
17370W        W85788  41.873  11.707  13.929
17371W        W85789  17.306  13.690   9.985
17372W        W85790  23.632  13.707  12.017
17373W        W85791  30.539  42.471  14.965
17374W        W85792  40.512  26.012  10.488
17375W        W85793  24.127  33.471   0.463
17376W        W85794  43.901   8.878   3.647
17377W        W85795  25.062   0.337  10.917
17378W        W85796  30.030  44.313  12.385
17379W        W85797  40.389   4.308  13.031
17380W        W85798  22.042  29.464   2.788
17381W        W85799  26.529  18.169  14.509
17382W        W85800  33.014   0.329  13.000
17383W        W85801  44.396  35.415  10.564
17384W        W85802  14.749   5.840  14.307
17385W        W85803  30.140  40.458   1.353
17386W        W85804  35.575  12.281  14.297
17387W        W85805  12.696   3.802   1.779
17388W        W85806  38.568  35.493  12.510
17389W        W85807  12.208  19.694   1.412
17390W        W85808   6.335  11.783  14.496
17391W        W85809   1.370  11.222   1.933
17392W        W85810  13.237   3.884  14.402
17393W        W85811   4.784  17.723   3.293
17394W        W85812  11.721  17.217   3.186
17395W        W85813  24.017  23.111  14.941
17396W        W85814   2.356   9.157  11.549
17397W        W85815  14.608   3.377   4.262
17398W        W85816  19.139  23.033  11.960
17399W        W85817  41.439  32.053  13.933
17400W        W85818  12.705  12.164  10.924
17401W        W85819   0.820  21.139   3.732
17402W        W85820  25.564  10.206  13.947
17403W        W85821  19.638  19.684   2.366
17404W        W85822  38.364  30.002   0.780
17405W        W85823  35.090  40.395   3.370
17406W        W85824  27.008  36.997  10.435
17407W        W85825  36.399  42.807  11.929
17408W        W85826  43.851  29.090   3.288
17409W        W85827  31.625  37.071  10.973
17410W        W85828  37.471  27.567  11.516
17411W        W85829  23.152   0.485  14.359
17412W        W85830   8.354   4.323  14.031
17413W        W85831  14.824   0.801   0.828
17414W        W85832  31.024   4.854  10.504
17415W        W85833  31.571  32.990  10.969
17416W        W85834  11.229  22.722  14.839
17417W        W85835  33.948  10.139   1.361
17418W        W85836  23.994  14.096  12.552
17419W        W85837  42.802   6.375   0.932
17420W        W85838  31.068  10.339   0.843
17421W        W85839  40.365  33.456  12.974
17422W        W85840   7.892  39.333   0.819
17423W        W85841  20.162   4.348   0.865
17424W        W85842  39.348   8.370  13.396
17425W        W85843  15.308   7.385  13.036
17426W        W85844  44.479  10.173   3.321
17427W        W85845  21.231  22.115  12.466
17428W        W85846  19.058  39.920  11.398
17429W        W85847  13.184  23.611  14.398
17430W        W85848  16.678  32.626   1.316
17431W        W85849  21.541  40.527  14.494
17432W        W85850  40.312   7.817  13.938
17433W        W85851  32.136  32.979  11.928
17434W        W85852  41.521  10.810  13.445
17435W        W85853  33.021  24.187  14.831
17436W        W85854  18.108  42.953  12.024
17437W        W85855  41.518  32.937   2.381
17438W        W85856  15.581  25.046   1.410
17439W        W85857  30.977  11.206  10.529
17440W        W85858  26.522  14.136  13.959
17441W        W85859  39.546  42.898   2.740
17442W        W85860   1.336  28.932  14.954
17443W        W85861  38.411  29.966   1.895
17444W        W85862  28.952  22.630  14.301
17445W        W85863  15.672  27.008   2.806
17446W        W85864   8.852  28.116   2.901
17447W        W85865   9.361   0.941   0.740
17448W        W85866  27.600  10.200  10.929
17449W        W85867   1.320  21.057   2.396
17450W        W85868  43.819  32.075  12.016
17451W        W85869  40.382  42.482   3.800
17452W        W85870  40.900  37.850   0.787
17453W        W85871  21.050  41.361  14.291
17454W        W85872  44.390  18.238   2.821
17455W        W85873  40.867   2.296  12.824
17456W        W85874  26.468  28.088   4.762
17457W        W85875  37.445  39.918   1.862
17458W        W85876  26.553  31.135  12.871
17459W        W85877  18.214  26.583  14.030
17460W        W85878  26.120  38.441  11.096
17461W        W85879  26.001  16.742   1.341
17462W        W85880  44.753   7.905   4.324
17463W        W85881  12.294  30.908  10.495
17464W        W85882  26.081  26.190  14.887
17465W        W85883  15.636  12.658  11.402
17466W        W85884  10.316   6.807  12.969
17467W        W85885   7.196  44.268  14.292
17468W        W85886  12.267  19.726  14.361
17469W        W85887  35.050  25.209   2.336
17470W        W85888   4.427   8.361  13.500
17471W        W85889  23.532  10.635  12.929
17472W        W85890  42.413   5.306   0.872
17473W        W85891   1.473  13.646   0.263
17474W        W85892   5.253  39.931   0.870
17475W        W85893  42.393  22.143   0.259
17476W        W85894  28.948  29.977   4.193
17477W        W85895  23.677  17.294  13.050
17478W        W85896  32.493  13.223   1.907
17479W        W85897  14.148  27.115  12.392
17480W        W85898  36.449  37.344  11.561
17481W        W85899  38.496   7.179  12.464
17482W        W85900   2.922  22.239   2.237
17483W        W85901  27.173  14.277   1.790
17484W        W85902  33.893  24.231  14.422
17485W        W85903   5.226  19.569  10.893
17486W        W85904  25.644  14.645  14.761
17487W        W85905  31.144   7.882   1.278
17488W        W85906  15.628  11.330  12.444
17489W        W85907  16.273  19.597  13.820
17490W        W85908  18.604  32.397   3.229
17491W        W85909  32.576   5.200  11.591
17492W        W85910  26.002  17.149   4.605
17493W        W85911  25.616   2.352   3.675
17494W        W85912  41.983   9.313   0.959
17495W        W85913  34.941  35.507  14.515
17496W        W85914   1.412  40.891   2.753
17497W        W85915  23.719  31.983  12.355
17498W        W85916  19.140  25.692  11.446
17499W        W85917  42.006  37.457  11.554
17500W        W85918  43.339  18.187   3.278
17501W        W85919   7.202  17.565  12.082
17502W        W85920  38.420  13.350  14.006
17503W        W85921  21.198  40.489   5.621
17504W        W85922  32.081  34.071  12.067
17505W        W85923  33.498  30.602   4.339
17506W        W85924   9.385  22.086  12.538
17507W        W85925  12.680  14.268   3.725
17508W        W85926  14.164  17.753   4.139
17509W        W85927  27.679  26.126   3.636
17510W        W85928  22.156  43.936   0.450
17511W        W85929  29.504  14.221  14.883
17512W        W85930  11.309  18.581  10.454
17513W        W85931   0.295   6.708   1.923
17514W        W85932  44.393  16.707  11.039
17515W        W85933  30.577  44.406   4.783
17516W        W85934   7.235  18.152   3.751
17517W        W85935  36.545  15.609  14.798
17518W        W85936  33.579   7.757   0.436
17519W        W85937  14.745  39.963   4.784
17520W        W85938  29.923   4.790  12.043
17521W        W85939   8.297  34.401  11.950
17522W        W85940  31.622  34.970  14.029
17523W        W85941  32.016   8.729  12.934
17524W        W85942   7.734  14.165   1.266
17525W        W85943  23.604  13.154   0.824
17526W        W85944  39.339  25.149  14.887
17527W        W85945  33.036  22.233   1.406
17528W        W85946   8.320  13.673   3.170
17529W        W85947  21.151  29.564   0.854
17530W        W85948  18.606   1.418   3.635
17531W        W85949   8.253  22.613   3.716
17532W        W85950  44.906   6.703   4.161
17533W        W85951   1.342  39.982   4.649
17534W        W85952  38.872  26.638  14.472
17535W        W85953  34.513  15.656   0.785
17536W        W85954  33.127   6.209   0.346
17537W        W85955   0.408  42.842  12.888
17538W        W85956  39.434  11.750  13.022
17539W        W85957   1.434  17.557  14.282
17540W        W85958  14.593  32.057  14.359
17541W        W85959  37.951   7.845  11.089
17542W        W85960  31.500  20.621  11.569
17543W        W85961  21.610  16.288  11.527
17544W        W85962  21.523  30.995  12.839
17545W        W85963  23.163  36.460  12.905
17546W        W85964   2.937  44.786  11.556
17547W        W85965  29.992   4.920  13.504
17548W        W85966   9.224   7.220   9.991
17549W        W85967  41.309  44.411  10.621
17550W        W85968   0.927  39.314  14.289
17551W        W85969  14.286  42.842   2.842
17552W        W85970  29.993  15.671   0.256
17553W        W85971  34.432   0.263  14.900
17554W        W85972   5.417  38.026   1.721
17555W        W85973  23.638  35.925   0.295
17556W        W85974  30.490  24.105   0.752
17557W        W85975  38.395  34.507   3.798
17558W        W85976  32.034   8.172  12.848
17559W        W85977  39.487  21.677   1.864
17560W        W85978  35.873  26.189  11.609
17561W        W85979  30.938  38.525   4.667
17562W        W85980  21.189  14.233  11.000
17563W        W85981  25.487  44.482  12.920
17564W        W85982  23.160   1.349  14.409
17565W        W85983  42.512  22.165   3.701
17566W        W85984  42.863  28.997   1.404
17567W        W85985  11.761  39.953   2.683
17568W        W85986  21.583  13.334   1.399
17569W        W85987  14.187   9.235   0.250
17570W        W85988   7.835  20.153   1.828
17571W        W85989  35.445  26.143   1.738
17572W        W85990  12.732  38.538   2.263
17573W        W85991   1.317   7.368  13.856
17574W        W85992  24.718  12.680  11.380
17575W        W85993  12.181  32.512  13.399
17576W        W85994  21.643   3.223   1.886
17577W        W85995  12.736   4.810   3.716
17578W        W85996  12.190   7.698  12.983
17579W        W85997   3.331   4.839   3.678
17580W        W85998  40.461  21.189   0.796
17581W        W85999  17.090  41.492   5.092
17582W        W86000  19.564   2.917   1.699
17583W        W86001  14.126  18.166   0.316
17584W        W86002  24.675   0.803   0.408
17585W        W86003   1.330  33.898   0.443
17586W        W86004  14.316  18.204   1.303
17587W        W86005  20.161  38.397  12.929
17588W        W86006  42.290  10.365  14.315
17589W        W86007  42.401  23.576   5.318
17590W        W86008  35.417  22.032  14.400
17591W        W86009  13.208  42.461  10.487
17592W        W86010  27.675  32.465   0.868
17593W        W86011  12.192  27.588   4.817
17594W        W86012  33.933  28.968   2.386
17595W        W86013   3.216  31.574  14.807
17596W        W86014  24.600   3.920   3.638
17597W        W86015  15.594  28.485   2.417
17598W        W86016  14.166  13.718   2.845
17599W        W86017  23.035  16.721   4.755
17600W        W86018  21.080  10.700  10.598
17601W        W86019  11.279   5.903  12.361
17602W        W86020  17.132  33.080  14.840
17603W        W86021  15.709  21.073  13.956
17604W        W86022  17.252  21.245   0.764
17605W        W86023   1.445   6.894   0.916
17606W        W86024  35.556   5.746   0.963
17607W        W86025  23.584   9.791  10.577
17608W        W86026  14.737  36.427   4.716
17609W        W86027  13.732  41.824  10.426
17610W        W86028  24.155  15.280  10.535
17611W        W86029  15.225   5.375   4.726
17612W        W86030  12.798  25.102  13.315
17613W        W86031  12.773  26.964  12.549
17614W        W86032  39.969  29.165  10.601
17615W        W86033  37.455  16.604   0.362
17616W        W86034  25.194  25.496   0.437
17617W        W86035  28.525  39.326   0.830
17618W        W86036  12.325  24.603  13.941
17619W        W86037  20.573  13.728  10.413
17620W        W86038   3.368  17.106  14.372
17621W        W86039  20.545  27.120  11.425
17622W        W86040  12.207  40.499  14.383
17623W        W86041  27.987  12.191  14.833
17624W        W86042  12.125  34.545   1.425
17625W        W86043  14.654   7.384   5.252
17626W        W86044   2.254  11.764   1.255
17627W        W86045  19.540  17.697  14.914
17628W        W86046   8.252  19.047   1.377
17629W        W86047  26.595  20.076  14.995
17630W        W86048  43.839  15.126   1.798
17631W        W86049  17.178   9.225  12.555
17632W        W86050  39.847   4.727   0.417
17633W        W86051  35.923  43.291  12.369
17634W        W86052  24.054  16.154  12.500
17635W        W86053  13.817   7.360  11.890
17636W        W86054  35.015  25.540   4.143
17637W        W86055  23.140  35.476  13.320
17638W        W86056   2.388  38.392  10.919
17639W        W86057  11.199  36.013   0.324
17640W        W86058   7.350   8.357   3.201
17641W        W86059  29.072   0.287  11.101
17642W        W86060  24.628   9.718  13.414
17643W        W86061  17.078  39.000   1.885
17644W        W86062  23.114  26.590  11.380
17645W        W86063  39.324  20.613  13.446
17646W        W86064   7.727  40.418   1.737
17647W        W86065  15.819  18.164   2.324
17648W        W86066  36.515  38.003  14.505
17649W        W86067  28.048  40.433   3.169
17650W        W86068  16.585   5.275  13.522
17651W        W86069  21.023  39.457  12.518
17652W        W86070  20.044  16.081  13.457
17653W        W86071  31.032  19.215  14.369
17654W        W86072  38.945  27.564   4.343
17655W        W86073  12.676  33.886  10.431
17656W        W86074  32.936  14.262  11.557
17657W        W86075   9.647  21.628  14.019
17658W        W86076  17.656   0.902  11.510
17659W        W86077   3.338   5.700  13.418
17660W        W86078   9.847   0.476  14.898
17661W        W86079  23.179  13.811   2.851
17662W        W86080   8.379  40.999  11.499
17663W        W86081  21.631   9.237  14.488
17664W        W86082  14.834   8.690  13.876
17665W        W86083  43.415  36.490   1.375
17666W        W86084  37.074  13.148  12.502
17667W        W86085   5.837   2.425   1.738
17668W        W86086   4.856  35.912   0.425
17669W        W86087  43.322   1.903  11.999
17670W        W86088  36.037  32.628   1.847
17671W        W86089   1.808  20.620  10.409
17672W        W86090  37.559   6.765   1.913
17673W        W86091  32.937  36.078   3.684
17674W        W86092  28.937  19.545   1.272
17675W        W86093  25.608  36.566  12.040
17676W        W86094  40.817  19.106  10.612
17677W        W86095  35.941  21.098  14.476
17678W        W86096  36.568  42.381   4.289
17679W        W86097   5.268   1.849  13.023
17680W        W86098  15.104  20.059  11.015
17681W        W86099  29.061  16.804  13.032
17682W        W86100   2.816  23.136   4.819
17683W        W86101  17.720  37.047  11.906
17684W        W86102  21.713  36.966   1.351
17685W        W86103  25.098  30.542  12.353
17686W        W86104  42.899  15.781   1.854
17687W        W86105  44.909   0.341   3.860
17688W        W86106  44.499  40.495   0.899
17689W        W86107  23.563  20.705  12.088
17690W        W86108  43.286  30.429   5.294
17691W        W86109   9.181  32.080   1.828
17692W        W86110  40.039  15.724   1.867
17693W        W86111  11.301  21.130   1.432
17694W        W86112  30.927  23.645   0.426
17695W        W86113   6.708   7.726   2.788
17696W        W86114  36.975  32.946  13.541
17697W        W86115   1.970  39.985   1.349
17698W        W86116   8.392  27.110  11.876
17699W        W86117  41.824  18.584  13.898
17700W        W86118  14.810  13.636   4.687
17701W        W86119   0.303  41.001   1.730
17702W        W86120   7.257   5.808   3.750
17703W        W86121   7.339   1.364  14.924
17704W        W86122  33.122  27.593   0.927
17705W        W86123  18.271  17.686  10.427
17706W        W86124  14.730   3.219   0.247
17707W        W86125   7.806  18.213  13.338
17708W        W86126   6.252   1.937  13.331
17709W        W86127   3.229  15.088  12.483
17710W        W86128  32.509  31.085  13.818
17711W        W86129  15.732  36.014  14.850
17712W        W86130  20.197  40.940   4.688
17713W        W86131  23.229  22.240   0.740
17714W        W86132  20.712  29.996  10.462
17715W        W86133  42.930  31.515   1.791
17716W        W86134  18.090  43.976  12.368
17717W        W86135  10.167  13.663   1.700
17718W        W86136   5.408  32.961   2.778
17719W        W86137   3.316  41.356   4.339
17720W        W86138  43.796  16.213  14.801
17721W        W86139   8.714  42.820   3.331
17722W        W86140  27.110   7.781  12.486
17723W        W86141  13.239   4.407   1.351
17724W        W86142  26.522  21.676   1.439
17725W        W86143  26.036   7.732   2.772
17726W        W86144  34.381   1.731  13.460
17727W        W86145  33.478  12.763   3.843
17728W        W86146   3.282  41.873   4.256
17729W        W86147  34.371  13.694   3.276
17730W        W86148  39.812  39.486  14.966
17731W        W86149  26.071  39.316  13.862
17732W        W86150   1.911  31.916  11.556
17733W        W86151   5.247   6.773  11.893
17734W        W86152  44.765  23.558   4.324
17735W        W86153  15.700   1.972   2.395
17736W        W86154  35.395   6.365   4.703
17737W        W86155  44.388   8.205   2.668
17738W        W86156  36.358   5.403  12.339
17739W        W86157   6.813   3.866   4.113
17740W        W86158   7.819  34.020  10.638
17741W        W86159  35.941  31.519   2.770
17742W        W86160  22.011  44.789   0.254
17743W        W86161  22.165  35.523  12.914
17744W        W86162  38.015  21.033   0.254
17745W        W86163  18.075  18.713  11.588
17746W        W86164  15.607   0.832   2.746
17747W        W86165  15.128  31.616  11.126
17748W        W86166  12.851  29.468   4.800
17749W        W86167  25.972  38.982  12.044
17750W        W86168  30.500  25.194   5.242
17751W        W86169  24.644  11.698  12.554
17752W        W86170  27.448   6.787   5.575
17753W        W86171  19.678  25.172   1.865
17754W        W86172   6.865  21.113   4.198
17755W        W86173  23.181  24.712   4.205
17756W        W86174  30.105  31.017  13.443
17757W        W86175  25.485  12.686   1.313
17758W        W86176  17.600   5.410   9.488
17759W        W86177  13.258  41.942  13.037
17760W        W86178  25.101  43.983   4.306
17761W        W86179  33.094  37.983   4.312
17762W        W86180  41.349  36.506   3.782
17763W        W86181   1.266  19.618  13.357
17764W        W86182  27.947  12.675  11.914
17765W        W86183   0.801  25.160   4.652
17766W        W86184  35.408   4.855  13.941
17767W        W86185  28.535  36.933  11.373
17768W        W86186  24.028  18.215  10.044
17769W        W86187  11.741  10.153  14.401
17770W        W86188   3.858  42.502   2.667
17771W        W86189  21.739   6.236   1.890
17772W        W86190  20.547  38.993   4.830
17773W        W86191  42.877  11.798  13.512
17774W        W86192  33.106  33.410  10.593
17775W        W86193   5.887  20.614  12.059
17776W        W86194  36.030  37.574   9.534
17777W        W86195  22.504  31.991   4.789
17778W        W86196  38.337   8.805   3.186
17779W        W86197  27.127  11.335  14.777
17780W        W86198  41.501   3.883  13.815
17781W        W86199  15.608  34.595   2.268
17782W        W86200  14.114   4.217  12.964
17783W        W86201   6.782  22.567   1.712
17784W        W86202  26.660  29.104   3.754
17785W        W86203  40.395  42.323   4.635
17786W        W86204   4.369  44.477  11.516
17787W        W86205  22.176  40.355  13.375
17788W        W86206  14.178   9.368  14.305
17789W        W86207  42.788   2.749   1.393
17790W        W86208   9.155  26.669   3.773
17791W        W86209  42.868  18.756   2.712
17792W        W86210  42.807   1.436  11.101
17793W        W86211  44.869  30.034  10.950
17794W        W86212   4.224  23.104  13.934
17795W        W86213  39.501  11.856  11.068
17796W        W86214   8.656   9.839  14.394
17797W        W86215  19.269  10.698   0.350
17798W        W86216  13.660  10.855  11.387
17799W        W86217  40.873  23.519   3.664
17800W        W86218   1.893  27.581   0.365
17801W        W86219  32.949  28.474   4.130
17802W        W86220  40.949   1.442   1.896
17803W        W86221  33.610  16.680   4.198
17804W        W86222   9.307  28.933  10.600
17805W        W86223  27.073  33.086   1.311
17806W        W86224  11.160   1.827   3.376
17807W        W86225  37.081   7.706   1.217
17808W        W86226  21.045  18.145   4.805
17809W        W86227  13.841   7.226   3.826
17810W        W86228  23.043  20.576  11.518
17811W        W86229  44.500   3.245  12.496
17812W        W86230  27.633  17.135  13.983
17813W        W86231  12.304  18.734   0.827
17814W        W86232  19.755  18.083   2.301
17815W        W86233   3.215  38.474   0.839
17816W        W86234  28.109  40.010   1.440
17817W        W86235  28.165  30.008   3.269
17818W        W86236  28.481  28.006   3.192
17819W        W86237  27.523   8.655  13.976
17820W        W86238  25.013   0.984   3.152
17821W        W86239  27.143  12.220   0.441
17822W        W86240  27.142   0.983   1.842
17823W        W86241   0.344  12.339   1.729
17824W        W86242  32.982  28.658  14.024
17825W        W86243   5.720  34.524   0.726
17826W        W86244  17.769  16.746   3.383
17827W        W86245  28.983  10.373  12.853
17828W        W86246  44.332  44.336   2.897
17829W        W86247  12.857  43.426   2.374
17830W        W86248  30.533   0.915   0.806
17831W        W86249  16.162  42.927   4.634
17832W        W86250   9.206  26.996   0.243
17833W        W86251  17.216   7.808   5.219
17834W        W86252  28.986  39.996  10.428
17835W        W86253   7.290  36.378   1.435
17836W        W86254  35.984  38.824   1.776
17837W        W86255   2.935  22.548  14.787
17838W        W86256  37.457  36.057  13.970
17839W        W86257  13.302  32.109   0.398
17840W        W86258  14.673  13.793  11.126
17841W        W86259  42.780  35.086   2.382
17842W        W86260   8.289  22.058   1.773
17843W        W86261  10.737  11.834   1.702
17844W        W86262  43.288  16.751  14.469
17845W        W86263   3.448  30.551   3.279
17846W        W86264  12.842  31.417  13.820
17847W        W86265  22.686  30.140  12.505
17848W        W86266  30.602  11.771  11.554
17849W        W86267  12.648  10.869  13.531
17850W        W86268  27.453  44.377  11.993
17851W        W86269  21.691  20.673   2.818
17852W        W86270  43.792   1.250  13.841
17853W        W86271  12.223   2.894   1.373
17854W        W86272  39.812  26.986   0.876
17855W        W86273  44.324  12.305  12.342
17856W        W86274  34.972  34.373   2.323
17857W        W86275  13.232  43.788   4.783
17858W        W86276   6.775  22.651   0.880
17859W        W86277   5.793  42.852   3.169
17860W        W86278  14.733  22.739   2.725
17861W        W86279  11.714  30.658  13.995
17862W        W86280  28.627  44.328  10.449
17863W        W86281   8.675  32.008   3.149
17864W        W86282  12.328  32.511  12.864
17865W        W86283  10.835  32.424   1.833
17866W        W86284  10.729  12.205   1.805
17867W        W86285  24.544  22.236  11.906
17868W        W86286   8.711  10.798  11.479
17869W        W86287  38.891  24.625   0.858
17870W        W86288  35.441  20.065   1.864
17871W        W86289  41.953  44.977  14.385
17872W        W86290  40.913  19.777   3.205
17873W        W86291  16.655  29.157  11.029
17874W        W86292  21.756  28.478   4.779
17875W        W86293  20.161   7.683   4.203
17876W        W86294   3.384  20.158  13.941
17877W        W86295  42.376  31.601   3.804
17878W        W86296  37.439  23.226   3.648
17879W        W86297  19.175   0.478  12.039
17880W        W86298  37.355  14.714   1.361
17881W        W86299  16.681   9.255  13.384
17882W        W86300  24.091   0.460   4.169
17883W        W86301  35.868   3.711   2.681
17884W        W86302  36.438  19.713  10.522
17885W        W86303   5.885  26.954   0.869
17886W        W86304  25.201  22.046  11.480
17887W        W86305  15.578   3.756  14.410
17888W        W86306   1.936  11.199  10.520
17889W        W86307  30.948  11.258   1.368
17890W        W86308  30.636  19.686   3.777
17891W        W86309  33.514  28.478  12.565
17892W        W86310  11.236  23.211   3.361
17893W        W86311   1.922  39.424   3.299
17894W        W86312  28.514  37.579  13.977
17895W        W86313   6.739  20.251   4.689
17896W        W86314  18.269   8.339   1.262
17897W        W86315  17.143  44.327  11.999
17898W        W86316  31.647   8.897  11.425
17899W        W86317  28.594  19.112  14.962
17900W        W86318   8.847  14.725  13.049
17901W        W86319   6.190  15.664  11.401
17902W        W86320  42.785  25.581  12.842
17903W        W86321  27.588   0.424  11.126
17904W        W86322   3.946  18.680  12.825
17905W        W86323  19.676   9.358  11.450
17906W        W86324  26.660  40.338  11.475
17907W        W86325  15.685  43.984   2.747
17908W        W86326   0.375  25.573   1.220
17909W        W86327  39.885  36.511  13.920
17910W        W86328  28.108  38.949   5.309
17911W        W86329  22.039  17.752   0.347
17912W        W86330  10.220   2.811  12.843
17913W        W86331  40.483  33.090  12.030
17914W        W86332  23.518  15.240   1.809
17915W        W86333  20.111  11.340  14.482
17916W        W86334  20.682   2.936  14.919
17917W        W86335  29.924   8.300   0.454
17918W        W86336  26.523  20.540  12.363
17919W        W86337   0.951  26.487   0.853
17920W        W86338  43.400  23.999  10.467
17921W        W86339  16.106  39.894  12.931
17922W        W86340  36.464   5.426  14.767
17923W        W86341   0.448  10.736   1.767
17924W        W86342   9.254  43.841  14.431
17925W        W86343   8.199   8.844  12.911
17926W        W86344  44.994  20.644   3.349
17927W        W86345  21.703  11.188  10.887
17928W        W86346  39.319  41.372  14.884
17929W        W86347   6.919  28.978   3.151
17930W        W86348  16.782  41.967   0.436
17931W        W86349   5.860  11.214  11.948
17932W        W86350   5.196  27.130   1.325
17933W        W86351  28.028  29.648  10.934
17934W        W86352  30.528  22.202  13.479
17935W        W86353  15.151   7.195  10.912
17936W        W86354  23.507  16.670   3.863
17937W        W86355   2.384  39.440  12.570
17938W        W86356  36.570  40.809  14.788
17939W        W86357   3.772  16.647   0.787
17940W        W86358  22.046   7.911  10.484
17941W        W86359  15.611  33.489   3.736
17942W        W86360  19.051   6.705   3.282
17943W        W86361  19.279  27.954   0.457
17944W        W86362  44.819  10.758   2.359
17945W        W86363  18.269  25.137  11.537
17946W        W86364   7.762  42.015  10.464
17947W        W86365  41.972  27.576   1.929
17948W        W86366  37.413  26.144  14.918
17949W        W86367  21.192  22.212   5.172
17950W        W86368   4.276  38.407   4.190
17951W        W86369  13.662  25.549   3.323
17952W        W86370  36.542  14.244   2.878
17953W        W86371  26.546  27.550  14.764
17954W        W86372  28.445  33.884  13.319
17955W        W86373  37.492  26.510  14.376
17956W        W86374   7.728  37.454   1.904
17957W        W86375  26.080   2.359  11.570
17958W        W86376  15.303  41.942   0.909
17959W        W86377  23.523  44.327   4.152
17960W        W86378   4.710  25.041   1.399
17961W        W86379   5.894  12.710  10.515
17962W        W86380  44.754   9.333  12.449
17963W        W86381  25.656  10.183   3.235
17964W        W86382  17.251  12.153  12.097
17965W        W86383  15.822  32.076  10.998
17966W        W86384  27.653  11.336   1.699
17967W        W86385  34.995  42.443  12.370
17968W        W86386  11.855  23.701  13.501
17969W        W86387   0.423  27.549   2.803
17970W        W86388  23.230  38.330  12.888
17971W        W86389  20.703  14.258   1.768
17972W        W86390  24.064  30.564   1.862
17973W        W86391  19.189  36.469   1.431
17974W        W86392  26.124  20.200  14.441
17975W        W86393  41.496  25.647   4.772
17976W        W86394  36.358  42.802   5.305
17977W        W86395   9.190  24.056   1.745
17978W        W86396  10.875  43.811  13.890
17979W        W86397   2.227  14.661   4.144
17980W        W86398  37.889  27.149  14.904
17981W        W86399  11.358  21.612  12.955
17982W        W86400  20.065   6.420   3.807
17983W        W86401  33.405  23.987   5.207
17984W        W86402  39.485  12.658  13.835
17985W        W86403   9.828   4.941  11.084
17986W        W86404  21.636  15.303   2.240
17987W        W86405  30.532  13.127  14.298
17988W        W86406  38.868  30.103  12.952
17989W        W86407  40.492  23.236   1.314
17990W        W86408  12.658  25.568   0.373
17991W        W86409  34.913  42.498   1.826
17992W        W86410  19.083  29.428   3.713
17993W        W86411  40.530  11.336  14.401
17994W        W86412  16.304   7.342   5.218
17995W        W86413  43.441   1.388  11.107
17996W        W86414  34.006  19.756  12.551
17997W        W86415  18.638  30.012  13.360
17998W        W86416  12.215  23.599  10.466
17999W        W86417  36.541   6.324  10.617
18000W        W86418  23.044  13.663  10.586
18001W        W86419  22.133  37.054   0.932
18002W        W86420  27.128  41.924   4.221
18003W        W86421  44.004  43.823   0.820
18004W        W86422   4.710   8.772  11.555
18005W        W86423  16.625  30.415   1.351
18006W        W86424   8.856  32.108   4.264
18007W        W86425  31.517  40.821  13.847
18008W        W86426   7.261  37.048  11.960
18009W        W86427   0.492   8.395   3.743
18010W        W86428  34.478   8.334  11.448
18011W        W86429  41.038  17.747   1.328
18012W        W86430   6.678   6.680   3.755
18013W        W86431   0.881   2.868   1.801
18014W        W86432   6.354  19.656  12.829
18015W        W86433  23.504  26.650  12.508
18016W        W86434  21.700  27.614  12.348
18017W        W86435  39.375  18.285   0.444
18018W        W86436  13.652  38.368   4.670
18019W        W86437  27.964   8.707  10.588
18020W        W86438  10.691   9.315   2.677
18021W        W86439  33.431  22.039   3.750
18022W        W86440  26.199  40.423  12.860
18023W        W86441  38.566  34.499   3.211
18024W        W86442  27.625  17.636   4.243
18025W        W86443  16.736  24.614  10.524
18026W        W86444  44.794   1.292   1.808
18027W        W86445  15.728   2.831   2.883
18028W        W86446  21.234   0.873  13.322
18029W        W86447   8.874   1.384  12.036
18030W        W86448  29.090  16.750  12.043
18031W        W86449  12.285  37.349  10.472
18032W        W86450  42.851  42.407   2.411
18033W        W86451  39.057  39.495  11.579
18034W        W86452   3.801  35.469  13.525
18035W        W86453  36.918  12.639   4.750
18036W        W86454  39.053   1.320  11.584
18037W        W86455  14.802  17.078  14.951
18038W        W86456   1.967  10.308  12.938
18039W        W86457  13.783  25.649  13.522
18040W        W86458  18.664  43.927   1.853
18041W        W86459  11.739  28.492  13.881
18042W        W86460   2.362   2.920  14.982
18043W        W86461   6.760  25.988  14.873
18044W        W86462  30.611  29.107   4.347
18045W        W86463  26.550  12.342  13.501
18046W        W86464   6.752  34.482   2.790
18047W        W86465   9.677  10.274   0.382
18048W        W86466  18.684  13.823   4.781
18049W        W86467  29.063  10.773  10.915
18050W        W86468  38.929  43.314  13.949
18051W        W86469   0.799  21.202  11.375
18052W        W86470  32.509  31.024   2.255
18053W        W86471  10.189  44.835   0.938
18054W        W86472  39.844  36.476   3.756
18055W        W86473  38.992  11.272   3.279
18056W        W86474  26.024  43.317   3.296
18057W        W86475   5.194  18.696   2.796
18058W        W86476  12.649   1.966   0.344
18059W        W86477  28.630  41.408  10.645
18060W        W86478   0.486  21.096  11.437
18061W        W86479   0.784  24.604  12.017
18062W        W86480  21.690   4.728  11.031
18063W        W86481   8.798  14.141  11.097
18064W        W86482   5.396  25.041   3.777
18065W        W86483  39.945  25.966  14.785
18066W        W86484  18.212  13.712   2.879
18067W        W86485   1.349  36.926   0.736
18068W        W86486  15.315  30.640  14.471
18069W        W86487  22.704   9.388   0.376
18070W        W86488  41.318  13.241   2.179
18071W        W86489  29.517  19.240   2.242
18072W        W86490  41.321  15.186  14.469
18073W        W86491   8.900   3.345   4.722
18074W        W86492  35.359  33.452   0.271
18075W        W86493  31.563  27.955   1.709
18076W        W86494  30.445  20.588  14.855
18077W        W86495  13.666  44.415   1.742
18078W        W86496  25.550  29.125  11.861
18079W        W86497  20.230   5.767  11.093
18080W        W86498  42.495   0.871   4.263
18081W        W86499  30.109   7.242   3.301
18082W        W86500  33.007   3.883  10.539
18083W        W86501   7.820   3.953  10.476
18084W        W86502   6.729  36.943   4.191
18085W        W86503  13.693  27.972   0.964
18086W        W86504   1.367  22.124  13.468
18087W        W86505  30.101  38.468  13.932
18088W        W86506  22.716  30.054   0.363
18089W        W86507   5.687  20.675  11.550
18090W        W86508   5.214  28.570  14.798
18091W        W86509  29.975   0.421   2.852
18092W        W86510  22.112  27.114   0.844
18093W        W86511  31.597  26.512  10.465
18094W        W86512  23.055  27.050   1.325
18095W        W86513   8.341   5.893  13.986
18096W        W86514  28.992  43.833   2.850
18097W        W86515  42.888  39.549  10.929
18098W        W86516  18.234   4.739   0.842
18099W        W86517  32.890  17.083   0.310
18100W        W86518  40.506  34.607  11.908
18101W        W86519   4.403  12.740   0.729
18102W        W86520   5.882  12.654  12.540
18103W        W86521  17.194  36.928   2.291
18104W        W86522  28.543   1.406  10.923
18105W        W86523  29.933   6.263  11.543
18106W        W86524  27.635  44.917   4.136
18107W        W86525  40.320  14.635  10.639
18108W        W86526  12.727  20.640   3.760
18109W        W86527  33.465  19.548  12.829
18110W        W86528  10.158  16.726  12.463
18111W        W86529  39.012  34.006  10.466
18112W        W86530  27.033  23.988   2.288
18113W        W86531  32.992  23.529   3.638
18114W        W86532  24.989  12.788   1.416
18115W        W86533   3.828  22.700  11.588
18116W        W86534  28.127   2.867   2.853
18117W        W86535   2.427  30.065  13.510
18118W        W86536  28.674   1.943   1.764
18119W        W86537  42.361  40.865   3.805
18120W        W86538  41.947  25.037   0.309
18121W        W86539  17.601   4.802  13.386
18122W        W86540  36.592  12.309  10.519
18123W        W86541  12.340   1.360   4.188
18124W        W86542  11.863  31.616   2.855
18125W        W86543  17.099  13.257   2.683
18126W        W86544  39.016  35.958  10.630
18127W        W86545  33.105  12.229  12.999
18128W        W86546  20.267  32.970   2.770
18129W        W86547  27.074  22.108  13.926
18130W        W86548  29.665  12.215  10.438
18131W        W86549   4.212  12.792  13.905
18132W        W86550  25.469  41.426   0.480
18133W        W86551  40.365  31.946  12.474
18134W        W86552  20.563   0.858  14.827
18135W        W86553  34.390  31.537  12.406
18136W        W86554  44.788  38.445  13.809
18137W        W86555  16.720  44.972  11.107
18138W        W86556  27.570  27.494   2.319
18139W        W86557  21.749  38.978   1.837
18140W        W86558  37.017  17.140  14.310
18141W        W86559  13.302  40.029  10.539
18142W        W86560   5.708  31.437   4.256
18143W        W86561  17.775  43.014   0.886
18144W        W86562  34.384   3.938   3.236
18145W        W86563   7.685  34.039  11.066
18146W        W86564  33.112  24.523  13.500
18147W        W86565  28.008  11.773  10.557
18148W        W86566  29.041   2.856   0.902
18149W        W86567  12.729  39.978  13.946
18150W        W86568  26.534  12.745  12.028
18151W        W86569  31.936   8.219   2.339
18152W        W86570   3.731  44.985   0.890
18153W        W86571  37.891  13.158   3.699
18154W        W86572  40.457  28.440  12.403
18155W        W86573   8.159  29.039  11.568
18156W        W86574  27.478  13.642  10.622
18157W        W86575  22.576   1.847   3.734
18158W        W86576  22.069  17.591  10.959
18159W        W86577  32.514  34.940   1.289
18160W        W86578  26.967  32.614   0.767
18161W        W86579   1.886  17.189   1.712
18162W        W86580  41.942  31.116  10.943
18163W        W86581  20.155  27.659  14.500
18164W        W86582   8.276   9.341   2.314
18165W        W86583  15.084  38.478  11.004
18166W        W86584  14.107  12.238  14.433
18167W        W86585  44.317  40.978   3.233
18168W        W86586   4.808  16.179   1.259
18169W        W86587  31.146  16.273  14.398
18170W        W86588  36.009   7.338  11.084
18171W        W86589  20.527  44.809  12.972
18172W        W86590  12.153  41.949   2.869
18173W        W86591  24.135  32.602   0.289
18174W        W86592  28.641  11.752  13.796
18175W        W86593  15.654  20.175  10.616
18176W        W86594  18.128  41.341   4.142
18177W        W86595  19.580  16.185   2.352
18178W        W86596  33.919  34.412   3.376
18179W        W86597  23.151  43.470  13.481
18180W        W86598  17.206  42.337  10.544
18181W        W86599  21.616   3.308  14.933
18182W        W86600  39.045  32.556   3.320
18183W        W86601  28.955  22.737   1.221
18184W        W86602  14.149  13.145  12.571
18185W        W86603   0.827  17.598  13.029
18186W        W86604  28.457  28.055   4.647
18187W        W86605  12.622   8.172   4.255
18188W        W86606  25.681   9.355  11.398
18189W        W86607  16.189  11.658   4.184
18190W        W86608  17.796   8.812  14.871
18191W        W86609  18.290  36.929  11.378
18192W        W86610  26.526  15.164  12.012
18193W        W86611  20.178  31.061   0.325
18194W        W86612  25.078  38.538   0.820
18195W        W86613  29.516  44.794  11.601
18196W        W86614   2.938  21.260   4.257
18197W        W86615  36.482  39.493  13.470
18198W        W86616  18.061   4.288  12.345
18199W        W86617   9.677  44.005   4.176
18200W        W86618  44.983  37.574  13.930
18201W        W86619  39.533  35.459   1.870
18202W        W86620  25.477  39.925   4.670
18203W        W86621  36.585   0.438   0.265
18204W        W86622  29.468   3.447  13.826
18205W        W86623  15.173  28.009  12.437
18206W        W86624   8.406  21.222  14.983
18207W        W86625  19.074  38.561  10.500
18208W        W86626  16.197  21.583  14.768
18209W        W86627   1.266   4.244   4.799
18210W        W86628  17.208  38.023  14.860
18211W        W86629   3.219   4.797   4.680
18212W        W86630  15.126   7.270  10.474
18213W        W86631  18.670  14.206   4.628
18214W        W86632  22.012  22.578  10.905
18215W        W86633  36.864  16.615   1.220
18216W        W86634  32.570  31.898  11.518
18217W        W86635   3.938  19.218   2.408
18218W        W86636   1.736  30.075  13.032
18219W        W86637  24.977  34.919  13.426
18220W        W86638  11.786  37.937   4.604
18221W        W86639   6.769  43.287  14.835
18222W        W86640  33.456   8.392  14.887
18223W        W86641  17.758  44.393   4.347
18224W        W86642  22.240   7.810   2.245
18225W        W86643  15.729  17.746  12.089
18226W        W86644  15.264  21.678   3.151
18227W        W86645   2.388  31.060  12.997
18228W        W86646  14.600  40.401  14.955
18229W        W86647  16.183  37.341   1.758
18230W        W86648   0.332  28.538  10.967
18231W        W86649  31.418   3.777  11.403
18232W        W86650  27.585  20.597   2.271
18233W        W86651  23.704  33.094  11.101
18234W        W86652  42.778  28.484   4.794
18235W        W86653   9.385  36.572  12.439
18236W        W86654  25.026  44.434   2.766
18237W        W86655  25.703  14.599  13.428
18238W        W86656  28.959  13.619  10.627
18239W        W86657  18.082  43.291   1.293
18240W        W86658  42.474  33.459   0.261
18241W        W86659   3.238   7.370  12.930
18242W        W86660  44.301   1.414  14.284
18243W        W86661  14.266  42.031   1.418
18244W        W86662  43.771   7.728  14.021
18245W        W86663  20.618  44.455   1.895
18246W        W86664  35.479  14.689  13.369
18247W        W86665  35.045  22.526   1.869
18248W        W86666  34.465  29.967   0.938
18249W        W86667   2.359  12.646   2.232
18250W        W86668  24.578  26.665   2.782
18251W        W86669   9.347  24.023   5.089
18252W        W86670  35.557  28.021  13.437
18253W        W86671   1.780  12.627   0.726
18254W        W86672  18.291  32.515  11.402
18255W        W86673  14.725  15.808  12.382
18256W        W86674   9.804  14.625  12.018
18257W        W86675  11.684  39.830  12.397
18258W        W86676  43.508   9.755  10.904
18259W        W86677  42.331   5.312   3.670
18260W        W86678  40.874   2.835  13.527
18261W        W86679   5.277  20.057   4.764
18262W        W86680   7.280   4.735   1.300
18263W        W86681  40.502  34.005   0.947
18264W        W86682  26.607  22.655   1.384
18265W        W86683   5.368  34.398   2.859
18266W        W86684  28.155  32.932  10.917
18267W        W86685   2.928   3.332  13.923
18268W        W86686  17.584  44.936   3.773
18269W        W86687  28.451  30.033   2.664
18270W        W86688  28.669  32.894  14.436
18271W        W86689   9.180  36.474  12.937
18272W        W86690  35.440  14.122  11.127
18273W        W86691  38.911  28.521  12.451
18274W        W86692  39.029  37.853  14.789
18275W        W86693   2.324  10.251   3.853
18276W        W86694  40.386  20.217  10.929
18277W        W86695  38.421   5.341   3.217
18278W        W86696  43.454  34.575   4.260
18279W        W86697  24.996  19.214  14.835
18280W        W86698  41.867  12.268   5.133
18281W        W86699  31.928  28.155   1.368
18282W        W86700  26.506  35.364  13.030
18283W        W86701  38.517   1.896   2.681
18284W        W86702  16.698  40.524  10.462
18285W        W86703  41.529  29.450  12.499
18286W        W86704  32.477  25.219   5.086
18287W        W86705  14.636  10.707   2.668
18288W        W86706  43.791  19.541  13.047
18289W        W86707   0.984  18.562   3.212
18290W        W86708   8.770  21.562   3.632
18291W        W86709  29.606  10.154   2.330
18292W        W86710  30.954  28.672  11.534
18293W        W86711  11.842  37.532  12.003
18294W        W86712  15.768  10.794   0.259
18295W        W86713  22.552   6.222   3.729
18296W        W86714  34.037  29.147   4.670
18297W        W86715  17.279  40.870  13.047
18298W        W86716   8.786   4.834  10.959
18299W        W86717   7.251  17.746  10.560
18300W        W86718  20.167   6.918  12.382
18301W        W86719  37.023   4.939   4.346
18302W        W86720   7.396  41.000   2.375
18303W        W86721  41.346  38.018  10.946
18304W        W86722  16.307   1.770  12.913
18305W        W86723  35.067  43.400  10.412
18306W        W86724  40.928  27.968  11.471
18307W        W86725  10.827  38.889   4.330
18308W        W86726   7.385  20.622  14.931
18309W        W86727  29.936  26.090  12.845
18310W        W86728   6.800  21.542  14.879
18311W        W86729  29.006  13.194   0.309
18312W        W86730  37.468  39.843   3.673
18313W        W86731  34.044  35.009   4.285
18314W        W86732  28.484  44.851   1.388
18315W        W86733  11.667  23.538   2.795
18316W        W86734  35.016  23.992   0.890
18317W        W86735  31.495   3.919  14.964
18318W        W86736  19.119  16.105  12.052
18319W        W86737  14.331  31.010  11.012
18320W        W86738  34.613  27.448   0.733
18321W        W86739  11.225  35.378  14.970
18322W        W86740   5.855   7.372  13.405
18323W        W86741  28.522   6.915   3.841
18324W        W86742   5.808  17.668  11.457
18325W        W86743  23.602  31.644   4.231
18326W        W86744  28.637  29.929   4.744
18327W        W86745  35.921   2.375   4.185
18328W        W86746  20.210  24.545  10.908
18329W        W86747  41.455   7.880  13.363
18330W        W86748   5.903  12.261   2.703
18331W        W86749  42.518  15.672  11.008
18332W        W86750  23.626  31.093  14.846
18333W        W86751  30.047  24.491   1.266
18334W        W86752  13.220  28.114  10.583
18335W        W86753   1.876  44.322  12.998
18336W        W86754  19.616  10.319   2.282
18337W        W86755   7.800  13.315  13.839
18338W        W86756  17.732  35.538  11.092
18339W        W86757  13.119   2.899  12.926
18340W        W86758   3.309   1.469  11.988
18341W        W86759  10.796  10.366  12.878
18342W        W86760   3.852  17.245  11.388
18343W        W86761  37.013  11.221   3.297
18344W        W86762  12.624  25.056   3.172
18345W        W86763  28.538   3.401   2.239
18346W        W86764  40.852  16.267  11.088
18347W        W86765  30.529  18.626   4.822
18348W        W86766  31.911  20.270   3.231
18349W        W86767  13.130   1.947   0.791
18350W        W86768  16.152   6.419   5.133
18351W        W86769   2.396  23.189   2.253
18352W        W86770  10.872  12.739   3.702
18353W        W86771   4.394  16.728   2.248
18354W        W86772  44.303  38.524  12.392
18355W        W86773  42.877  16.708   4.329
18356W        W86774   9.390  13.832  14.860
18357W        W86775  30.163  28.125  11.457
18358W        W86776  34.064  30.029   1.931
18359W        W86777   8.882  37.957   4.823
18360W        W86778  27.592  24.695   2.688
18361W        W86779   9.717  38.469   0.268
18362W        W86780  10.341  22.603   3.328
18363W        W86781   3.446  17.559  11.861
18364W        W86782  15.123  15.589  12.542
18365W        W86783  23.202  32.530   0.808
18366W        W86784  33.469  44.387   5.143
18367W        W86785  35.081  30.561   0.328
18368W        W86786  44.273  37.580  14.998
18369W        W86787   9.664   4.280   4.294
18370W        W86788  18.258  33.965   3.200
18371W        W86789  17.646  33.083  14.511
18372W        W86790  14.229   8.388   0.821
18373W        W86791  20.262  28.492  11.935
18374W        W86792  24.637   0.778  12.535
18375W        W86793  16.246  19.097   2.854
18376W        W86794  21.101   5.773  14.461
18377W        W86795  40.024   3.395  12.369
18378W        W86796  15.201  13.749  13.494
18379W        W86797  35.036  37.065  13.012
18380W        W86798  22.551  14.180  12.577
18381W        W86799  15.705  17.065  11.386
18382W        W86800  32.082  37.514   0.418
18383W        W86801   2.339  15.246  10.998
18384W        W86802   4.409  26.486  10.540
18385W        W86803   3.405   9.691   1.398
18386W        W86804  21.659  34.612   3.694
18387W        W86805  28.543   5.193   4.167
18388W        W86806  18.091  35.470   2.385
18389W        W86807  14.803  27.639   3.815
18390W        W86808  27.517  12.168  13.824
18391W        W86809  23.006  23.084   1.778
18392W        W86810   6.282  40.863  12.877
18393W        W86811  37.081  36.084  13.950
18394W        W86812  39.463   9.273   0.431
18395W        W86813   2.388  14.593  13.863
18396W        W86814  21.577  23.497  14.463
18397W        W86815  25.071  12.248   0.758
18398W        W86816  39.538   5.738  12.373
18399W        W86817  19.579  14.320   5.652
18400W        W86818  39.496  28.032  10.897
18401W        W86819  25.578  30.540   3.349
18402W        W86820  19.643  11.671  10.408
18403W        W86821  11.309   2.743   1.366
18404W        W86822  37.882  18.232   3.741
18405W        W86823  20.753  34.910  14.806
18406W        W86824  16.653  28.942  13.534
18407W        W86825  43.406  30.920  14.986
18408W        W86826  44.430  40.879   0.358
18409W        W86827   4.296  33.415  13.007
18410W        W86828   6.374   5.694   2.310
18411W        W86829   4.210  20.564  14.901
18412W        W86830   4.444   7.842  12.357
18413W        W86831  42.951   8.738   3.348
18414W        W86832  36.572  25.114  11.024
18415W        W86833  43.332   0.429  13.942
18416W        W86834  23.554  40.007  13.889
18417W        W86835   4.923   3.255  11.522
18418W        W86836  35.415  16.604   0.784
18419W        W86837   2.376   1.903  10.932
18420W        W86838  35.576  37.048  12.095
18421W        W86839  28.590  44.313   0.326
18422W        W86840  42.412  30.997   2.218
18423W        W86841   8.187  20.613  12.469
18424W        W86842  32.599  25.634  12.066
18425W        W86843   6.806  13.196  13.799
18426W        W86844   6.762  21.212   0.966
18427W        W86845  27.465  44.416  11.043
18428W        W86846  39.454  33.506  11.883
18429W        W86847  42.832  24.644   3.237
18430W        W86848  10.837  16.744   2.189
18431W        W86849   1.954  16.712  14.763
18432W        W86850  33.524   1.318   4.812
18433W        W86851  33.536   1.241  13.822
18434W        W86852   7.179  37.429  12.358
18435W        W86853  22.592  21.682  11.554
18436W        W86854   4.831  30.159  14.809
18437W        W86855  38.895   6.795   0.306
18438W        W86856  42.365   7.227   0.328
18439W        W86857   7.831  40.428   1.254
18440W        W86858   6.238  36.482  14.836
18441W        W86859  34.052   5.858   2.733
18442W        W86860  29.167  44.869  11.481
18443W        W86861   4.249  27.130   3.251
18444W        W86862  33.625  11.633  12.563
18445W        W86863  41.867  19.089  11.980
18446W        W86864   0.798  24.608  14.370
18447W        W86865   7.830  18.622   0.263
18448W        W86866  43.869  42.468  13.338
18449W        W86867  24.614  30.554   5.166
18450W        W86868  36.370  23.651   4.754
18451W        W86869  19.238  23.210   4.191
18452W        W86870  31.420  14.140  13.815
18453W        W86871  10.210  33.584   0.827
18454W        W86872  20.720  15.607  11.050
18455W        W86873  25.708   2.309   4.835
18456W        W86874  39.504  14.638  10.449
18457W        W86875  21.203   5.851  10.142
18458W        W86876   0.934  15.241   0.327
18459W        W86877  11.355  35.600  14.345
18460W        W86878  24.581  36.520   4.635
18461W        W86879  10.866   0.273  10.549
18462W        W86880  20.598   0.760   3.840
18463W        W86881   7.391   7.323  11.872
18464W        W86882  35.982  12.670   1.448
18465W        W86883   3.846   7.732   0.911
18466W        W86884  15.299  27.454   2.857
18467W        W86885  15.217   4.415  11.086
18468W        W86886  32.628  33.056  14.360
18469W        W86887  11.322  22.671  11.421
18470W        W86888  33.543  37.896   0.278
18471W        W86889  25.079   0.951   5.180
18472W        W86890  31.937   7.825   3.853
18473W        W86891   1.826  10.751   0.821
18474W        W86892   8.863  18.703  11.889
18475W        W86893   4.343  43.325  14.917
18476W        W86894   0.800   6.712   4.633
18477W        W86895  15.762  37.352   1.815
18478W        W86896   6.329   8.194   0.948
18479W        W86897   6.220  27.136  11.470
18480W        W86898  11.208   1.907   1.779
18481W        W86899  19.542  22.025   0.735
18482W        W86900  37.857   6.894   4.828
18483W        W86901  16.589   1.884   3.366
18484W        W86902  19.145   4.374   1.733
18485W        W86903  39.399  19.590  11.612
18486W        W86904   2.410  22.145   2.358
18487W        W86905   0.371  20.211   1.268
18488W        W86906  43.821  12.680   3.843
18489W        W86907  33.074   4.307   0.805
18490W        W86908  41.328  22.999   0.731
18491W        W86909   5.275   9.699  13.009
18492W        W86910   9.182  16.193   4.765
18493W        W86911  24.074  13.274  13.812
18494W        W86912  39.884  30.081  13.872
18495W        W86913   6.265  16.797  13.493
18496W        W86914  20.553  19.687   4.166
18497W        W86915  13.732   2.884   0.446
18498W        W86916  22.665  43.988   1.758
18499W        W86917  10.799   8.348  12.824
18500W        W86918   8.894   9.689  14.912
18501W        W86919  15.131  42.785   3.226
18502W        W86920  15.142  33.132  14.027
18503W        W86921  36.455  28.130  10.907
18504W        W86922  41.962  23.110   5.317
18505W        W86923  33.077  20.150   0.828
18506W        W86924  25.525  12.334  12.356
18507W        W86925  23.690   8.698   0.933
18508W        W86926  37.467   3.724   1.778
18509W        W86927  12.313   5.433  14.351
18510W        W86928  38.006  25.205   3.870
18511W        W86929  39.891   6.790   2.798
18512W        W86930  25.529  22.501   0.351
18513W        W86931  10.825  37.387  12.414
18514W        W86932  37.002  42.472   3.707
18515W        W86933  13.340   1.827   4.164
18516W        W86934  41.936  21.163   3.384
18517W        W86935  20.647  25.052   4.696
18518W        W86936  21.120   1.969   3.764
18519W        W86937   1.906  26.604   3.285
18520W        W86938  21.059  33.120   3.354
18521W        W86939  21.154  34.585   2.796
18522W        W86940  41.903  19.121   0.364
18523W        W86941  29.572  41.491  14.998
18524W        W86942  17.081   5.920  13.062
18525W        W86943   4.325  23.098  10.414
18526W        W86944   2.249  24.995  13.409
18527W        W86945  32.615  23.099  10.458
18528W        W86946  17.567  20.555   1.884
18529W        W86947  29.465  34.545  11.393
18530W        W86948  24.603  38.417   4.194
18531W        W86949  24.203  20.698   4.169
18532W        W86950  29.455  20.234   3.267
18533W        W86951  20.621   7.213   2.276
18534W        W86952  21.738   8.854   3.221
18535W        W86953   7.309   9.708  10.620
18536W        W86954  25.500  32.535  12.503
18537W        W86955  31.147  42.473   2.886
18538W        W86956  15.198  21.170  13.880
18539W        W86957  17.649  13.298  14.856
18540W        W86958  43.422  10.283   1.777
18541W        W86959  21.600  21.526   1.712
18542W        W86960  25.165   6.881  12.915
18543W        W86961  25.974   4.836   3.710
18544W        W86962  38.836  27.168  12.994
18545W        W86963   0.954   7.192   5.168
18546W        W86964   2.961   7.410  12.361
18547W        W86965   3.748  12.236   3.800
18548W        W86966  12.315   8.223  14.760
18549W        W86967   3.854  30.428   1.403
18550W        W86968   8.775  34.476  12.559
18551W        W86969  21.698  42.308   2.883
18552W        W86970   9.213   8.319  10.941
18553W        W86971  19.219  32.069  11.569
18554W        W86972  24.624  12.182   0.934
18555W        W86973   3.341  27.178   4.715
18556W        W86974  22.590  29.960   1.758
18557W        W86975  37.526  36.426  12.439
18558W        W86976  40.462  10.866   4.695
18559W        W86977  10.649  44.294   1.339
18560W        W86978   5.777  18.784  10.906
18561W        W86979  15.618  26.537   5.160
18562W        W86980  37.060   3.712   4.249
18563W        W86981  34.098  10.784  14.342
18564W        W86982  43.435  29.037  12.826
18565W        W86983  18.203  26.150   2.808
18566W        W86984  11.173  27.129   2.678
18567W        W86985  17.291  34.514   3.773
18568W        W86986  43.501  34.924  14.917
18569W        W86987  39.820  40.435  14.283
18570W        W86988   1.263  22.674   1.299
18571W        W86989  28.969  33.516   3.713
18572W        W86990  14.626  21.043  12.402
18573W        W86991  13.273  22.173   4.704
18574W        W86992   5.810  41.466   1.716
18575W        W86993  20.757   4.309  12.042
18576W        W86994  42.441  19.708  10.557
18577W        W86995  41.919  35.934  11.541
18578W        W86996  37.579  16.088  11.972
18579W        W86997  27.617  21.051  14.488
18580W        W86998  28.665   4.851  14.771
18581W        W86999  18.222  42.884   1.324
18582W        W87000  36.992   1.327   1.926
18583W        W87001  29.046  31.492   2.779
18584W        W87002  39.920  42.939  11.606
18585W        W87003   4.246  37.973   1.811
18586W        W87004  17.173  29.645   4.795
18587W        W87005  34.543  30.414  14.350
18588W        W87006  11.301  34.930   0.360
18589W        W87007  35.964  38.935   3.694
18590W        W87008  27.044  20.257   1.341
18591W        W87009  36.428   3.347   3.658
18592W        W87010  40.543  43.013   2.892
18593W        W87011  26.152  25.136   0.818
18594W        W87012   3.403  17.757  12.433
18595W        W87013  44.381  17.203  12.472
18596W        W87014   2.901  33.592   2.295
18597W        W87015  31.404   6.826  12.458
18598W        W87016   7.415  17.077   4.621
18599W        W87017   7.185  39.377   2.407
18600W        W87018  43.447  35.524   1.424
18601W        W87019  32.924  21.619  12.833
18602W        W87020  10.762   6.312  10.622
18603W        W87021  23.218  28.025   4.137
18604W        W87022   0.451  21.219   5.244
18605W        W87023  17.263  32.117   0.776
18606W        W87024  19.650   9.746   4.671
18607W        W87025  28.932   7.292   4.159
18608W        W87026  34.867  40.538   1.435
18609W        W87027  42.443   8.301   1.714
18610W        W87028  17.076  20.274   1.752
18611W        W87029  15.623  14.332   1.411
18612W        W87030  22.745  33.527   1.301
18613W        W87031   2.950  18.565  11.596
18614W        W87032  23.561   3.429   3.868
18615W        W87033  28.167  36.402  14.434
18616W        W87034  24.065  39.313  14.383
18617W        W87035  17.081   7.886  11.399
18618W        W87036   5.824  28.987   0.862
18619W        W87037  12.138  25.103  13.838
18620W        W87038  42.962   2.258   2.201
18621W        W87039  13.815  40.362   1.893
18622W        W87040  14.713  42.427  12.542
18623W        W87041  10.730  24.631  14.908
18624W        W87042  27.538   4.214   1.752
18625W        W87043   2.400  44.450   5.180
18626W        W87044  33.417   5.421  13.372
18627W        W87045  25.209  44.841   2.338
18628W        W87046  23.064  19.619  14.368
18629W        W87047   6.389  23.544  14.815
18630W        W87048  19.244  12.242   2.269
18631W        W87049   7.216  43.835   1.780
18632W        W87050   9.876   8.304  12.356
18633W        W87051  41.421   6.234   1.243
18634W        W87052  36.546  16.697  14.823
18635W        W87053   1.417  43.305   1.394
18636W        W87054  11.351  33.477   3.637
18637W        W87055   3.955  11.169   3.154
18638W        W87056   9.887  13.345  11.548
18639W        W87057  29.949  36.463   4.767
18640W        W87058  14.683  39.419  13.004
18641W        W87059  37.911  39.367  12.023
18642W        W87060  44.998  23.650  10.453
18643W        W87061  29.532  25.609  10.591
18644W        W87062   1.737   2.256   4.220
18645W        W87063  12.799  42.910   4.323
18646W        W87064  22.018  34.614   1.244
18647W        W87065  16.145  14.209   3.274
18648W        W87066  14.298  41.950   0.945
18649W        W87067  28.974   8.237   2.342
18650W        W87068  12.329  31.576   3.212
18651W        W87069   8.782  36.565  13.820
18652W        W87070  28.003   9.784   4.191
18653W        W87071  12.134  14.661   3.230
18654W        W87072  39.970  43.914   0.445
18655W        W87073  15.789  28.652   3.848
18656W        W87074  19.147   1.299  10.587
18657W        W87075  33.110  17.678  13.055
18658W        W87076  42.334  31.093   4.161
18659W        W87077  35.449  24.106   4.617
18660W        W87078  31.538   0.974  10.523
18661W        W87079  42.835  19.229   1.745
18662W        W87080  31.977  32.095  11.092
18663W        W87081  43.339  13.163  13.967
18664W        W87082  22.055  12.761  13.470
18665W        W87083  31.606  24.979  11.910
18666W        W87084  37.408  23.600   3.357
18667W        W87085   4.379  34.461   1.711
18668W        W87086  13.328  35.427  13.356
18669W        W87087  32.491  24.716  11.925
18670W        W87088  30.045  42.888   0.861
18671W        W87089  39.435  36.480  12.504
18672W        W87090  36.531   6.894  10.580
18673W        W87091  21.190  40.419  13.800
18674W        W87092  33.008  43.400  10.977
18675W        W87093  34.053  37.341   2.795
18676W        W87094  44.897   3.285   1.828
18677W        W87095   0.417  31.615   4.628
18678W        W87096  11.162   7.735   0.816
18679W        W87097  30.060   8.246  14.454
18680W        W87098  34.608   2.453  12.021
18681W        W87099  29.047  10.817  12.563
18682W        W87100   0.450   5.314  12.046
18683W        W87101  37.891  30.121   0.327
18684W        W87102  10.359  11.638   3.287
18685W        W87103  15.585  27.656   9.967
18686W        W87104  28.079   1.477   1.347
18687W        W87105   1.822  14.781  13.476
18688W        W87106  28.614   9.695  12.061
18689W        W87107  21.115  13.793  12.357
18690W        W87108  18.622  12.657   4.324
18691W        W87109   7.670  16.182  14.464
18692W        W87110   5.221  30.130   3.781
18693W        W87111   6.220   6.242   3.804
18694W        W87112   4.206   9.156   2.398
18695W        W87113  39.881  28.511   4.642
18696W        W87114  14.335  29.587   0.408
18697W        W87115  27.566  19.079   2.749
18698W        W87116   6.242  23.630  12.999
18699W        W87117  39.045   9.242  14.463
18700W        W87118  27.051  15.814   3.329
18701W        W87119  26.591  14.259   3.152
18702W        W87120  10.771  12.696   2.868
18703W        W87121  23.555  37.979   9.485
18704W        W87122  18.132  22.030  14.828
18705W        W87123  15.815   5.372  11.092
18706W        W87124  43.000   9.765   4.798
18707W        W87125  17.239  34.465   2.368
18708W        W87126  42.884  40.489  10.934
18709W        W87127  25.204  26.114  12.543
18710W        W87128  32.916  35.575   2.883
18711W        W87129   4.859  14.601  11.022
18712W        W87130   9.213  16.116   0.756
18713W        W87131  32.597  18.279  13.843
18714W        W87132  33.913  31.936   4.600
18715W        W87133  22.053  10.149  12.892
18716W        W87134  26.123  37.487  12.061
18717W        W87135  13.685  22.129   2.719
18718W        W87136  37.500  18.765  12.379
18719W        W87137  25.173  42.999   0.376
18720W        W87138  15.618  27.195  11.463
18721W        W87139  25.549  13.775  10.431
18722W        W87140  39.553  39.926  11.083
18723W        W87141   9.234   0.954   0.316
18724W        W87142  27.060  18.143  11.067
18725W        W87143  37.357  10.753   2.369
18726W        W87144  11.130  12.770   4.120
18727W        W87145  15.786  37.427  13.850
18728W        W87146  37.936  14.281  13.878
18729W        W87147  44.483  39.057   9.959
18730W        W87148   1.968  24.197  14.916
18731W        W87149  24.577   7.390  10.466
18732W        W87150  27.979   9.307   3.364
18733W        W87151  21.026  23.631  11.436
18734W        W87152  27.948  31.403  14.311
18735W        W87153   8.359  34.959   2.187
18736W        W87154  14.199   0.464  13.462
18737W        W87155   6.415  40.986   2.665
18738W        W87156  26.672  41.848  13.415
18739W        W87157  42.360  25.161  12.969
18740W        W87158   5.222  10.692   2.238
18741W        W87159  13.839  40.320  14.024
18742W        W87160  22.529  26.539  10.581
18743W        W87161  13.680   4.711  12.432
18744W        W87162  15.087  28.028  11.885
18745W        W87163   6.693   5.728   0.907
18746W        W87164  29.973  33.601   2.188
18747W        W87165  28.520   6.386   1.260
18748W        W87166   9.302  30.936   3.719
18749W        W87167   8.847  24.563  12.844
18750W        W87168  32.003  41.314   4.775
18751W        W87169  19.074  33.484  10.903
18752W        W87170  10.716  32.115   1.220
18753W        W87171  20.696  27.497  11.904
18754W        W87172   7.859   8.224  13.339
18755W        W87173  20.711  35.932  11.538
18756W        W87174   4.743  35.538   3.252
18757W        W87175  14.826  44.374   4.148
18758W        W87176  38.843  33.563   1.445
18759W        W87177  33.969  37.959  10.082
18760W        W87178  33.985   4.816  13.407
18761W        W87179  29.971  18.166   3.342
18762W        W87180  41.447  14.745  14.857
18763W        W87181  17.177  39.484   0.434
18764W        W87182  26.646  38.021  13.515
18765W        W87183  22.250  10.301  13.838
18766W        W87184  23.188  21.556  10.912
18767W        W87185  11.816   7.313  14.809
18768W        W87186  37.839   7.737  12.894
18769W        W87187  19.041  24.180   2.672
18770W        W87188   3.235  39.447  10.450
18771W        W87189  40.886  39.412   9.563
18772W        W87190  20.682  42.922  13.433
18773W        W87191  43.973  12.353   4.179
18774W        W87192  33.922  31.594   0.821
18775W        W87193  41.006   6.419  12.930
18776W        W87194  38.826  13.278   2.243
18777W        W87195  38.568  29.517  12.402
18778W        W87196   4.375  19.057  14.450
18779W        W87197   0.778  40.864   0.392
18780W        W87198  24.106   9.344   4.182
18781W        W87199  43.430  25.986   0.438
18782W        W87200   0.390  20.589   5.082
18783W        W87201  16.707  43.346  10.550
18784W        W87202  39.494  41.298  13.032
18785W        W87203  37.460  15.602  14.378
18786W        W87204  41.882  14.818   3.651
18787W        W87205  33.599  22.592  12.838
18788W        W87206   9.822  38.392   3.821
18789W        W87207   4.864  26.579   4.244
18790W        W87208  41.951  27.975  13.355
18791W        W87209  17.741  32.566   2.807
18792W        W87210  15.223   3.360  13.455
18793W        W87211   4.814  20.607  10.462
18794W        W87212  26.606  39.813  14.815
18795W        W87213  17.788   5.697   0.320
18796W        W87214  18.769  25.011  11.455
18797W        W87215  33.975  44.947   4.184
18798W        W87216   5.849   1.901  10.530
18799W        W87217   5.232  36.039   4.744
18800W        W87218  27.052  37.024   0.814
18801W        W87219  29.500  40.051   4.775
18802W        W87220  35.995   8.323  14.945
18803W        W87221  37.906  30.074   0.885
18804W        W87222   0.375  23.657  10.468
18805W        W87223  26.550  12.142  13.957
18806W        W87224   8.306  44.415  12.463
18807W        W87225  42.462  14.675  13.872
18808W        W87226  40.345  39.436  10.944
18809W        W87227  43.790  20.640   4.296
18810W        W87228  20.265  41.381   4.135
18811W        W87229  16.699  20.736   1.288
18812W        W87230  35.952  10.713   0.268
18813W        W87231  12.775  34.510  12.566
18814W        W87232  27.646   7.400  14.477
18815W        W87233  35.024   3.781   0.834
18816W        W87234  38.846  27.487   2.692
18817W        W87235  31.079  41.299   0.780
18818W        W87236   9.684  42.436  13.340
18819W        W87237  31.599  40.863  14.823
18820W        W87238  11.804   8.894   1.220
18821W        W87239  28.598  25.596   3.159
18822W        W87240  26.618  13.176   4.645
18823W        W87241   8.686  12.171   4.206
18824W        W87242  42.956  10.706  13.439
18825W        W87243  41.522   7.329  13.976
18826W        W87244  26.986  44.474  12.477
18827W        W87245  25.710  25.184  11.550
18828W        W87246  14.253  10.696  13.985
18829W        W87247  29.591  42.973  13.811
18830W        W87248  16.715  12.745   9.952
18831W        W87249  38.015  17.716  13.541
18832W        W87250   0.985  44.450  10.481
18833W        W87251   9.716  30.146   3.803
18834W        W87252  14.214  15.257  12.504
18835W        W87253  24.624  13.257  10.631
18836W        W87254   3.258   7.194  14.348
18837W        W87255   1.238  43.308   2.325
18838W        W87256  38.332  21.091  11.400
18839W        W87257  20.691  38.887   3.376
18840W        W87258  42.479   0.985  14.765
18841W        W87259   0.825  13.280  14.499
18842W        W87260  40.478  12.782  12.396
18843W        W87261   1.277  14.246  12.439
18844W        W87262   3.316  25.642  13.898
18845W        W87263  19.642  34.503  11.508
18846W        W87264  42.494  24.592   2.354
18847W        W87265  15.588  41.397  12.948
18848W        W87266  14.794  43.862   4.814
18849W        W87267  33.512   9.281  13.807
18850W        W87268  24.119  33.901   1.440
18851W        W87269  28.950  27.466  12.897
18852W        W87270  11.662  18.658  10.000
18853W        W87271   1.289  18.544   1.337
18854W        W87272  20.573   3.917   4.205
18855W        W87273  12.125  12.251  14.846
18856W        W87274   8.357  24.599  14.929
18857W        W87275  44.836  38.464   1.814
18858W        W87276  41.519  33.423   4.232
18859W        W87277   9.197  24.693  14.942
18860W        W87278  43.944  38.471   9.674
18861W        W87279  44.472  20.029  11.047
18862W        W87280  20.140   4.433   4.703
18863W        W87281  43.486  40.947  11.449
18864W        W87282  40.020   2.853   2.894
18865W        W87283   4.936  39.443   3.238
18866W        W87284  27.183  17.169  14.888
18867W        W87285  13.245  24.099  13.420
18868W        W87286  35.511  15.184  12.847
18869W        W87287  24.144  31.987   1.811
18870W        W87288  27.500  17.612   0.947
18871W        W87289  35.969  15.324   1.262
18872W        W87290  25.586   1.882   4.203
18873W        W87291  30.954   8.896   9.971
18874W        W87292  31.040  12.623  13.379
18875W        W87293   0.438  44.829   2.771
18876W        W87294  32.514  34.479  10.534
18877W        W87295  42.951   4.255   2.787
18878W        W87296   5.276  43.444  12.837
18879W        W87297  15.680  18.620  13.463
18880W        W87298   1.891   3.373   1.832
18881W        W87299  42.326  33.900   1.429
18882W        W87300  32.528   6.391  12.898
18883W        W87301  42.942  29.655   0.817
18884W        W87302  22.192   5.218  14.810
18885W        W87303   4.856  39.981   0.868
18886W        W87304  35.088  10.260  14.796
18887W        W87305  21.221  32.942   1.834
18888W        W87306  20.184  24.609  12.987
18889W        W87307  22.076  13.739  13.466
18890W        W87308   8.758   0.790  14.943
18891W        W87309  29.513  38.949  13.348
18892W        W87310  30.603  20.652   3.387
18893W        W87311  44.419  19.640  12.057
18894W        W87312  19.558   8.247  13.344
18895W        W87313   9.740   4.428   0.308
18896W        W87314  41.353  34.387  13.443
18897W        W87315   4.410  42.880  10.578
18898W        W87316   7.311  12.648   3.742
18899W        W87317  30.109  13.253   2.333
18900W        W87318  25.053  14.128  14.795
18901W        W87319  32.568  41.035   2.674
18902W        W87320  29.090  35.475   4.715
18903W        W87321  18.627  40.401  13.859
18904W        W87322   2.294  34.489  14.885
18905W        W87323  26.976  44.436   0.839
18906W        W87324   0.431  33.531   1.397
18907W        W87325   3.279   5.779   1.280
18908W        W87326  28.053  25.669   3.168
18909W        W87327  20.567  30.047   2.306
18910W        W87328  38.987  34.490  14.981
18911W        W87329  36.070  43.816  14.769
18912W        W87330  32.122  12.694   1.251
18913W        W87331  24.082  14.243   4.132
18914W        W87332  39.475  20.216  11.034
18915W        W87333  25.521   5.920  13.026
18916W        W87334   9.761  18.741  11.898
18917W        W87335  18.050   2.824  13.815
18918W        W87336  31.919  37.491  14.819
18919W        W87337  40.034  14.677   2.396
18920W        W87338  33.565  31.568   4.234
18921W        W87339  14.100  36.057  12.853
18922W        W87340  16.636  26.206   0.797
18923W        W87341  25.984  27.050  10.493
18924W        W87342  22.683   2.275  12.851
18925W        W87343  37.073  10.310   4.141
18926W        W87344  29.018   6.301  12.401
18927W        W87345   2.739   8.368  13.019
18928W        W87346  40.469   8.176  14.454
18929W        W87347   9.313  30.443  13.008
18930W        W87348  41.452  24.030   4.695
18931W        W87349  27.591   5.373   2.712
18932W        W87350  33.124  38.342   3.201
18933W        W87351  39.916  16.209   2.400
18934W        W87352   1.782  18.196   1.845
18935W        W87353  27.123  39.964  12.505
18936W        W87354  24.980   5.773  10.421
18937W        W87355  39.837  30.563   3.233
18938W        W87356  33.436  40.986   2.302
18939W        W87357  40.008   9.782  14.874
18940W        W87358  29.575   4.220   4.670
18941W        W87359  19.699  18.591  13.889
18942W        W87360  20.551  26.702   9.565
18943W        W87361  12.622  27.120   1.324
18944W        W87362  33.876  41.896  11.507
18945W        W87363   8.685  40.011   4.241
18946W        W87364  13.344   0.751   2.779
18947W        W87365  37.938   6.266   1.372
18948W        W87366  39.913   8.848  13.058
18949W        W87367  11.677  23.534  14.387
18950W        W87368   1.291  14.618  11.040
18951W        W87369  12.651  40.938  12.837
18952W        W87370  11.710   8.342  10.124
18953W        W87371  23.223  10.850  11.891
18954W        W87372  11.172  16.683  11.468
18955W        W87373  14.205  34.500  13.321
18956W        W87374   4.292   2.251   0.906
18957W        W87375  24.068  35.985   3.229
18958W        W87376  42.841  35.872   4.281
18959W        W87377  42.937  29.969   1.909
18960W        W87378  21.687  30.511  12.356
18961W        W87379   7.704  41.968  13.918
18962W        W87380   1.946  20.729   1.285
18963W        W87381  38.901   6.727   4.211
18964W        W87382  11.737  27.656   4.236
18965W        W87383   1.418   4.354   1.243
18966W        W87384  43.423   4.227   0.803
18967W        W87385  26.683  18.642   0.347
18968W        W87386  42.969  44.414  11.462
18969W        W87387  18.545  39.821   4.182
18970W        W87388  43.375  11.758   4.782
18971W        W87389  12.726   8.742   2.757
18972W        W87390   2.854  38.996  13.017
18973W        W87391  44.441  44.495   1.927
18974W        W87392  21.614  29.010  14.294
18975W        W87393  27.460  41.033  11.982
18976W        W87394  19.719  24.517   2.314
18977W        W87395  34.530  39.370   2.262
18978W        W87396  27.593   7.712   0.922
18979W        W87397  26.610   9.234   3.740
18980W        W87398  10.642  23.569  13.972
18981W        W87399  29.463  21.632   0.432
18982W        W87400   0.979  14.724  13.929
18983W        W87401  27.122  15.765  10.017
18984W        W87402  38.402   0.471   2.223
18985W        W87403  32.577  13.713  11.065
18986W        W87404  34.890  32.946   2.750
18987W        W87405  31.095  36.051   2.399
18988W        W87406  30.022  10.239   3.792
18989W        W87407  40.524   1.836  10.146
18990W        W87408  16.578  11.816   0.315
18991W        W87409  37.963   9.201   0.741
18992W        W87410  15.186  31.089  11.916
18993W        W87411  24.698  42.298  10.610
18994W        W87412  28.472  40.404  13.397
18995W        W87413   2.332  26.107  11.497
18996W        W87414  25.058  33.436   2.876
18997W        W87415  28.448  34.991   3.303
18998W        W87416  11.792  37.015   2.788
18999W        W87417  43.913  36.558  12.416
19000W        W87418   9.279  10.640  13.363
19001W        W87419  26.088  24.653  14.328
19002W        W87420  38.962   7.396  12.030
19003W        W87421  36.031   2.252  11.417
19004W        W87422  38.871   9.660   2.380
19005W        W87423  30.139  21.194  13.908
19006W        W87424  38.545  32.055   5.207
19007W        W87425   8.265  24.508  11.591
19008W        W87426   3.780  37.487  13.962
19009W        W87427  11.220  28.610   1.246
19010W        W87428  15.098  35.087  10.911
19011W        W87429  43.870  38.820  14.287
19012W        W87430  25.498  20.627  14.373
19013W        W87431  22.629  16.791   0.815
19014W        W87432  40.821   4.732  11.544
19015W        W87433  26.104  20.257  14.919
19016W        W87434  41.815   3.287   2.741
19017W        W87435  11.165  13.269  12.094
19018W        W87436  13.186  34.594   2.186
19019W        W87437  27.105   0.799   3.197
19020W        W87438   7.288  21.579   3.790
19021W        W87439  42.475  41.788  12.874
19022W        W87440  23.543  23.155  13.843
19023W        W87441  23.665  17.061  12.480
19024W        W87442  27.070   5.292  10.476
19025W        W87443  37.498   4.854   3.813
19026W        W87444   5.755  11.184  13.905
19027W        W87445  33.947  14.835   0.856
19028W        W87446  34.917  14.808   1.715
19029W        W87447  28.659  38.979  13.877
19030W        W87448   1.781   4.923   3.840
19031W        W87449   3.381  42.782  13.525
19032W        W87450  31.991  25.660  13.806
19033W        W87451  11.661  14.154  13.815
19034W        W87452  22.062  32.122   4.322
19035W        W87453  12.751  40.544   2.392
19036W        W87454  35.868  11.791   5.319
19037W        W87455  32.508  40.867  14.491
19038W        W87456  44.473  11.753   9.670
19039W        W87457   6.408  15.259  12.074
19040W        W87458  30.445  13.703  12.939
19041W        W87459  21.738   7.779  12.955
19042W        W87460  17.163  26.986  11.116
19043W        W87461  19.562  35.593   1.290
19044W        W87462  17.681  31.135   2.862
19045W        W87463  25.996  21.696  14.408
19046W        W87464  29.624  19.110  12.057
19047W        W87465  26.117  19.263   1.832
19048W        W87466  36.849  35.991  10.898
19049W        W87467  44.350  16.302   2.818
19050W        W87468  43.448  35.484  13.452
19051W        W87469  17.578  23.581   0.742
19052W        W87470  24.088  38.325   1.844
19053W        W87471  10.287  30.939   2.748
19054W        W87472  27.960   1.412   4.280
19055W        W87473   1.299  19.738   0.932
19056W        W87474  17.583  32.929  10.982
19057W        W87475  26.565  44.497  13.977
19058W        W87476  29.997   0.381  11.062
19059W        W87477  28.631  34.413   4.704
19060W        W87478  11.669  27.151  11.927
19061W        W87479  40.478  18.594   1.718
19062W        W87480  37.531  12.127  11.608
19063W        W87481  31.553  21.709   1.306
19064W        W87482   9.682  43.862  10.944
19065W        W87483   4.851   5.720  13.538
19066W        W87484  34.585  27.044  11.875
19067W        W87485   7.888   0.787   3.360
19068W        W87486  23.718   0.481   4.300
19069W        W87487  40.520  23.514   1.931
19070W        W87488  24.537  16.073  14.367
19071W        W87489  35.905   4.876  11.110
19072W        W87490  19.208  22.662  14.851
19073W        W87491  13.842   5.261   4.781
19074W        W87492  38.974   0.448  12.931
19075W        W87493  35.520  41.006  12.351
19076W        W87494  40.827  20.233  14.938
19077W        W87495   2.763   8.677   3.318
19078W        W87496  41.469   6.874  12.037
19079W        W87497  33.007  14.749  12.363
19080W        W87498  10.781  42.975   3.640
19081W        W87499  18.720  42.331  13.861
19082W        W87500  17.113  22.714   3.198
19083W        W87501   5.395  30.080  10.539
19084W        W87502  31.149  39.480  13.043
19085W        W87503  15.084   5.847  12.889
19086W        W87504  35.566  32.028   4.201
19087W        W87505  41.036  16.302   0.327
19088W        W87506  25.977   9.781   4.689
19089W        W87507   1.872  11.221   2.689
19090W        W87508  20.613  21.611  10.514
19091W        W87509   7.271  35.972  13.877
19092W        W87510  44.959  19.620   2.880
19093W        W87511  34.918  14.262  10.508
19094W        W87512  40.883  27.179   1.284
19095W        W87513  14.664  32.999  14.979
19096W        W87514  15.306  27.674   0.290
19097W        W87515  13.207  30.945   2.776
19098W        W87516  22.607  36.929   0.819
19099W        W87517  24.997  10.202   2.791
19100W        W87518   8.667  20.060   3.385
19101W        W87519  36.583  35.549  12.977
19102W        W87520  13.715  14.278   0.282
19103W        W87521   9.245  10.843  12.912
19104W        W87522  14.798  19.259   3.629
19105W        W87523  23.602  10.170  14.832
19106W        W87524  26.174  34.001  10.924
19107W        W87525   2.883  31.118   2.221
19108W        W87526  23.714   9.880  13.445
19109W        W87527  30.111   6.214  14.397
19110W        W87528  32.913  36.591  14.324
19111W        W87529  37.929   1.260   4.711
19112W        W87530  13.768  19.737   3.823
19113W        W87531  31.548  16.718  13.793
19114W        W87532  13.606   5.246   3.183
19115W        W87533   0.370   3.432   3.692
19116W        W87534  18.676   8.776  12.873
19117W        W87535   7.273  23.608   2.811
19118W        W87536  32.431  20.117   0.846
19119W        W87537  32.595  27.018  13.868
19120W        W87538  37.850  43.435   0.895
19121W        W87539   5.775  39.921  10.918
19122W        W87540  30.157   9.769  14.822
19123W        W87541   5.749   3.713  14.355
19124W        W87542  18.564  16.646   0.754
19125W        W87543  24.489  21.588  11.878
19126W        W87544   6.276  14.696   3.828
19127W        W87545   2.797   3.935   2.249
19128W        W87546  24.154   1.243   3.744
19129W        W87547  38.564  40.536  14.514
19130W        W87548  43.481  29.498   0.815
19131W        W87549  35.486  18.689   0.780
19132W        W87550  10.295  14.723  12.449
19133W        W87551  44.969  43.003   2.820
19134W        W87552  29.583  30.930  13.966
19135W        W87553  37.862  23.700   0.246
19136W        W87554  22.244  11.766   4.598
19137W        W87555  44.291   1.896   0.839
19138W        W87556  38.463  29.155   3.350
19139W        W87557   0.889  20.034  11.929
19140W        W87558  13.663   5.376  10.530
19141W        W87559  13.718   8.712  12.089
19142W        W87560  14.601  40.320   2.219
19143W        W87561  22.057  42.402   2.240
19144W        W87562  23.992   9.785  13.012
19145W        W87563  33.527  36.500   1.766
19146W        W87564  30.443  15.153  14.345
19147W        W87565  33.985  21.598  12.981
19148W        W87566  24.181  16.145  11.430
19149W        W87567  37.459   4.924  14.452
19150W        W87568  25.622  37.873   0.286
19151W        W87569  10.768  31.996  10.078
19152W        W87570  17.238  44.759   0.900
19153W        W87571  37.482  37.039  13.343
19154W        W87572  31.078  14.613   0.947
19155W        W87573  41.317  20.118   0.292
19156W        W87574  26.087  12.145   2.835
19157W        W87575  17.582  19.611   0.411
19158W        W87576  14.259  29.143   0.297
19159W        W87577  22.246  22.644  14.014
19160W        W87578  16.710  31.127  10.473
19161W        W87579  18.696  33.073   1.811
19162W        W87580  26.176  32.008  11.990
19163W        W87581  30.015  27.099  13.961
19164W        W87582   9.221  13.304  10.456
19165W        W87583  37.407  44.339   2.242
19166W        W87584  32.926  19.103  13.918
19167W        W87585  27.449  38.981  10.409
19168W        W87586  42.422  30.549   1.742
19169W        W87587   8.319  27.552  12.479
19170W        W87588  10.739  22.672   3.636
19171W        W87589   6.242  31.422  14.855
19172W        W87590  44.264  25.694   4.207
19173W        W87591  14.285  30.964   2.853
19174W        W87592  34.953  33.502   2.740
19175W        W87593  10.306  27.040   5.274
19176W        W87594   2.936   1.255   4.203
19177W        W87595  36.541   4.233   4.636
19178W        W87596  32.057  19.283  10.602
19179W        W87597  38.864  14.640   1.824
19180W        W87598   5.799   1.462  10.553
19181W        W87599  33.572   1.463  12.515
19182W        W87600  16.152  42.477  11.491
19183W        W87601  42.478  12.124   4.805
19184W        W87602  42.915  23.733  12.062
19185W        W87603  13.324   3.918  10.603
19186W        W87604   8.836  15.600  12.503
19187W        W87605  22.598   9.836   2.375
19188W        W87606  20.573  32.436   2.885
19189W        W87607  10.783  28.085   4.208
19190W        W87608  21.526   6.739   0.478
19191W        W87609  16.266   6.868   1.839
19192W        W87610  18.729  41.404   0.800
19193W        W87611   9.354   7.268  14.281
19194W        W87612  23.541   2.325  10.916
19195W        W87613  22.043  42.776  12.469
19196W        W87614  15.267  31.566  10.489
19197W        W87615  12.318  14.198  11.961
19198W        W87616  38.998   1.913  13.546
19199W        W87617   9.757  40.882  10.585
19200W        W87618   9.303  35.410  12.942
19201W        W87619  34.498  29.575   1.927
19202W        W87620  26.067   1.845  13.927
19203W        W87621   4.210   1.481   4.747
19204W        W87622   8.769  34.419   3.358
19205W        W87623  39.858  23.093   2.786
19206W        W87624  44.489   8.389   4.756
19207W        W87625  38.975  41.463   4.621
19208W        W87626   2.821  44.910   4.685
19209W        W87627  36.964  31.410  14.840
19210W        W87628   0.461   9.179  13.436
19211W        W87629   4.932   9.680  12.537
19212W        W87630  25.159  35.585   3.635
19213W        W87631  12.312  40.508  10.440
19214W        W87632  40.517  17.199  12.980
19215W        W87633  28.441  30.088  10.911
19216W        W87634  34.563  40.476  10.948
19217W        W87635  24.168  11.776   3.642
19218W        W87636  38.071  24.209  11.551
19219W        W87637   1.318  17.596  10.547
19220W        W87638  43.313  20.534   5.579
19221W        W87639   5.856  43.384  12.383
19222W        W87640  44.009  41.934  14.022
19223W        W87641  32.030  25.981   4.603
19224W        W87642  10.337  24.635  11.085
19225W        W87643  10.355  29.918   2.739
19226W        W87644  35.546  27.017  11.986
19227W        W87645  30.570  22.232   1.409
19228W        W87646   4.909  23.718   3.837
19229W        W87647  29.169  40.974   3.382
19230W        W87648  13.760  34.905  12.355
19231W        W87649  29.564  30.416  14.367
19232W        W87650   2.306  25.600   1.395
19233W        W87651   5.357  24.079   1.756
19234W        W87652  39.823  37.537   4.597
19235W        W87653  24.040  10.700   3.210
19236W        W87654   4.710  42.401  11.590
19237W        W87655   1.267  15.739  10.407
19238W        W87656  35.102  33.100   3.291
19239W        W87657   3.294  22.639   3.201
19240W        W87658   7.208   0.785   4.294
19241W        W87659  10.725  18.282  14.937
19242W        W87660  16.247  18.220   1.905
19243W        W87661  24.585   1.263   1.328
19244W        W87662  34.465  43.447  10.910
19245W        W87663  32.629  26.494   2.882
19246W        W87664   2.893  16.253   3.152
19247W        W87665  15.303   4.937  14.892
19248W        W87666  37.858  38.373   9.991
19249W        W87667  32.569   1.371   3.765
19250W        W87668  31.085  15.192  14.984
19251W        W87669  19.626  12.357   4.250
19252W        W87670   0.419   1.379   3.163
19253W        W87671   0.904  11.850  12.021
19254W        W87672  43.819  22.683   3.326
19255W        W87673  26.640   6.715   0.962
19256W        W87674   4.422  43.380  11.471
19257W        W87675  40.371  42.415  11.454
19258W        W87676  11.641  39.515  12.979
19259W        W87677   6.739  17.770   4.624
19260W        W87678  44.368  36.347   1.845
19261W        W87679  39.847  32.066  10.936
19262W        W87680   0.280  37.050  12.389
19263W        W87681   5.766   4.874   3.698
19264W        W87682  43.806   4.888  13.892
19265W        W87683  16.311  25.504   3.794
19266W        W87684  43.928   3.290  12.398
19267W        W87685  20.625  23.583  13.956
19268W        W87686  44.812  21.561   1.422
19269W        W87687   4.855   9.846  13.386
19270W        W87688   3.783   7.298  13.884
19271W        W87689  27.025  30.421   4.711
19272W        W87690  31.411  40.936   1.335
19273W        W87691  40.393   0.974   3.703
19274W        W87692   2.853  23.505   3.231
19275W        W87693  42.338  23.634   0.333
19276W        W87694  41.425   6.405  14.909
19277W        W87695  32.941  17.278  11.117
19278W        W87696  34.612  39.379   0.249
19279W        W87697  35.014   6.754   0.861
19280W        W87698  18.087   9.648  12.406
19281W        W87699  13.775  15.155   0.815
19282W        W87700   6.866  29.476   4.165
19283W        W87701   0.934  28.440  10.635
19284W        W87702  33.399  28.505  11.377
19285W        W87703  24.572  36.517  10.573
19286W        W87704  13.336   9.756   0.759
19287W        W87705  11.817  32.552   1.772
19288W        W87706  17.691   9.240  14.440
19289W        W87707  44.367   0.447   5.106
19290W        W87708   1.931  35.083   3.766
19291W        W87709  31.510  21.692   3.173
19292W        W87710  43.449  30.058  14.990
19293W        W87711  22.186  14.149  11.494
19294W        W87712  27.519  24.197  14.839
19295W        W87713   7.328  15.283   1.249
19296W        W87714  11.314  42.892  14.920
19297W        W87715  28.029  10.164   4.775
19298W        W87716  13.675  34.546  13.019
19299W        W87717  34.376  27.957  14.992
19300W        W87718   1.967  22.610   4.341
19301W        W87719  44.431  26.607  10.516
19302W        W87720   8.827  20.040  14.863
19303W        W87721  24.992   9.390  13.061
19304W        W87722  36.549  10.245  14.397
19305W        W87723  12.629   5.890   3.850
19306W        W87724  29.448  40.933   3.157
19307W        W87725  22.614  16.102   4.223
19308W        W87726  33.505  27.990   1.439
19309W        W87727  41.915  26.557   0.272
19310W        W87728  40.307  25.072  14.772
19311W        W87729   2.833  15.237   2.278
19312W        W87730  18.734  38.367  13.353
19313W        W87731  37.560  19.238  11.067
19314W        W87732  20.717  41.398   1.306
19315W        W87733  25.970  33.611  11.898
19316W        W87734  27.955  28.541  13.804
19317W        W87735  39.557  11.361   2.248
19318W        W87736  26.970  12.663  13.375
19319W        W87737  19.568  30.554  14.014
19320W        W87738  16.128  28.994  14.288
19321W        W87739  43.819  12.244  13.478
19322W        W87740  15.689  11.742  13.802
19323W        W87741  30.955  16.626   4.751
19324W        W87742  26.987  21.689   0.840
19325W        W87743  30.907  33.930  14.458
19326W        W87744   3.766  34.442   2.300
19327W        W87745  21.567  10.143   4.128
19328W        W87746   3.318  24.158   4.647
19329W        W87747  27.673   5.283  11.948
19330W        W87748  29.942  20.182   0.961
19331W        W87749  18.184  13.197   1.869
19332W        W87750  14.180  37.378  13.434
19333W        W87751  19.057  39.036  13.832
19334W        W87752  23.988  39.942  12.859
19335W        W87753  17.278  13.331   5.250
19336W        W87754   3.903   1.333   1.758
19337W        W87755  23.524  15.153   1.356
19338W        W87756  31.528  38.473  10.993
19339W        W87757  44.481  43.845  14.804
19340W        W87758  30.560  30.018   4.704
19341W        W87759  13.257  16.255  12.083
19342W        W87760  12.693  34.881   1.275
19343W        W87761  11.775   9.761   2.408
19344W        W87762   0.794  43.812  14.348
19345W        W87763   0.761  38.009   1.227
19346W        W87764  15.327  25.107   4.606
19347W        W87765  24.160  16.183   3.304
19348W        W87766  30.464  17.096  12.494
19349W        W87767  28.141  30.142  14.276
19350W        W87768   0.913   7.404   4.258
19351W        W87769  39.809   9.713  13.501
19352W        W87770  39.934  29.533  10.947
19353W        W87771  25.713  21.530   3.798
19354W        W87772   2.373  27.563  11.508
19355W        W87773   8.186   7.240  12.466
19356W        W87774  15.787  40.475   2.224
19357W        W87775  34.557  23.166   2.806
19358W        W87776  41.403  31.117  13.058
19359W        W87777  24.033  26.623  11.930
19360W        W87778  11.169  13.201   2.270
19361W        W87779  33.407  38.386  14.781
19362W        W87780  14.168  31.053   3.853
19363W        W87781  12.806  22.048   1.282
19364W        W87782   9.644   1.479  12.922
19365W        W87783  38.330  11.784  14.835
19366W        W87784  19.259  12.855   5.259
19367W        W87785  22.148   8.280  13.833
19368W        W87786   1.894  14.150  14.329
19369W        W87787  24.153  24.985  13.503
19370W        W87788  32.065  44.982   1.256
19371W        W87789   8.292   8.733   3.865
19372W        W87790  31.130   7.198  13.431
19373W        W87791   3.771  14.300  13.359
19374W        W87792  19.096  28.039   3.869
19375W        W87793  33.434  23.671  11.578
19376W        W87794  18.703   8.228  13.055
19377W        W87795   3.771  30.422  13.975
19378W        W87796  21.628  25.047   3.727
19379W        W87797   4.793  44.753   2.419
19380W        W87798  34.467  28.059  13.308
19381W        W87799  25.151  12.741   4.148
19382W        W87800  10.724  43.322   3.809
19383W        W87801  23.169  20.739  12.400
19384W        W87802  18.182   9.671  11.494
19385W        W87803  33.394  13.761   1.347
19386W        W87804  39.987  20.038   4.653
19387W        W87805  18.717  36.474  14.418
19388W        W87806  34.542  17.562  13.401
19389W        W87807  35.462  38.453  10.996
19390W        W87808  15.277  42.441  14.378
19391W        W87809  40.347   2.235   2.743
19392W        W87810   3.325  29.540   1.355
19393W        W87811  25.549  14.141  13.974
19394W        W87812  11.133  16.258  14.472
19395W        W87813   0.804   0.943   1.901
19396W        W87814   0.459  21.586   9.477
19397W        W87815  15.106  33.391  12.456
19398W        W87816  39.544  33.048  14.018
19399W        W87817  25.571  23.092  14.785
19400W        W87818   3.829  28.612   2.729
19401W        W87819  21.539  19.121   0.856
19402W        W87820  39.957  21.512   4.283
19403W        W87821  15.109  35.082   3.334
19404W        W87822   1.855  43.372  14.975
19405W        W87823  23.198  32.520   0.306
19406W        W87824  13.309  28.672   0.352
19407W        W87825  20.661  40.539   4.238
19408W        W87826  39.024  29.654  12.831
19409W        W87827  26.503   7.805   1.260
19410W        W87828  33.092  27.579  11.081
19411W        W87829  24.712   1.278  10.564
19412W        W87830  28.010  13.661   2.816
19413W        W87831   1.976  11.823  11.537
19414W        W87832  13.282  37.577  10.436
19415W        W87833  37.348  37.940  11.036
19416W        W87834  38.037  21.139  12.010
19417W        W87835  42.434  15.128   4.795
19418W        W87836  34.919  23.559  10.556
19419W        W87837  39.375  39.385  11.004
19420W        W87838   9.679  12.231   4.151
19421W        W87839  13.146  12.823  14.816
19422W        W87840   1.934  15.180   2.364
19423W        W87841  22.712  20.580  12.079
19424W        W87842  36.923  10.713   1.875
19425W        W87843  25.493   4.833  14.376
19426W        W87844  27.115   6.425   0.766
19427W        W87845  11.271   4.298  11.975
19428W        W87846   8.882  34.051   0.273
19429W        W87847  16.669  18.669  14.958
19430W        W87848  34.451  16.294  11.484
19431W        W87849  11.215   2.305  13.518
19432W        W87850  40.887  44.973  10.968
19433W        W87851  29.175  32.564  13.891
19434W        W87852  17.234  28.137   3.174
19435W        W87853  38.903  13.190  14.463
19436W        W87854  32.088   5.192   0.335
19437W        W87855  22.995  24.504  12.465
19438W        W87856  27.468   6.793  11.874
19439W        W87857  29.019   8.198  14.909
19440W        W87858   2.387  41.885  12.970
19441W        W87859  30.006  22.030  13.869
19442W        W87860  13.156   8.750   3.866
19443W        W87861  34.920  16.792   4.685
19444W        W87862   6.285   1.779   1.760
19445W        W87863  12.138  31.132   2.408
19446W        W87864  44.893  14.697   4.119
19447W        W87865  43.345   5.736  14.840
19448W        W87866  41.958  42.518  13.508
19449W        W87867   0.895  15.156   2.321
19450W        W87868   0.743  27.025  10.441
19451W        W87869  38.420  29.068  10.606
19452W        W87870  27.142  31.022   4.771
19453W        W87871  32.036   7.687   4.340
19454W        W87872  22.673  43.022   5.307
19455W        W87873  14.126  37.477   5.104
19456W        W87874  17.694  18.727  12.900
19457W        W87875   4.414  18.251   1.822
19458W        W87876  20.250  29.492  12.949
19459W        W87877  33.897  11.640  10.505
19460W        W87878  43.484   3.225   4.716
19461W        W87879  40.033  34.370   3.816
19462W        W87880   6.392  39.012   3.771
19463W        W87881   7.746  34.917  11.036
19464W        W87882  42.297  36.466   3.149
19465W        W87883  34.389   3.817  12.825
19466W        W87884  44.760  32.516   0.869
19467W        W87885  33.079  12.806  12.034
19468W        W87886  10.846  21.037   1.851
19469W        W87887  43.506  37.359   4.828
19470W        W87888  35.482  43.333  11.416
19471W        W87889  13.182   3.417  13.862
19472W        W87890  32.042  30.919   1.325
19473W        W87891  16.275  28.486  10.614
19474W        W87892   7.186   5.359   3.815
19475W        W87893  33.964  38.018  12.543
19476W        W87894  25.982   6.698   1.304
19477W        W87895   4.887  18.707  12.047
19478W        W87896  15.147  39.406  11.387
19479W        W87897  21.572  38.480   2.383
19480W        W87898  37.529  21.701  10.535
19481W        W87899  44.756  22.654   1.765
19482W        W87900   2.380  16.758   1.255
19483W        W87901   0.451  37.519  10.095
19484W        W87902   0.922  20.586  10.978
19485W        W87903   1.345  34.018  14.332
19486W        W87904  30.120  10.263   4.150
19487W        W87905  24.714  33.016   1.909
19488W        W87906   0.415   7.214  14.452
19489W        W87907  44.264  27.588   2.414
19490W        W87908  31.439  10.200  10.917
19491W        W87909  12.294   6.333   3.708
19492W        W87910  38.971  27.098  14.006
19493W        W87911  23.511  11.153   2.275
19494W        W87912  33.436  10.137  14.800
19495W        W87913  21.131  16.657  10.999
19496W        W87914  42.398   7.345  11.949
19497W        W87915  38.055  11.731   0.283
19498W        W87916  36.951  30.435   1.780
19499W        W87917  38.441  26.494   2.411
19500W        W87918   6.377  17.557  14.460
19501W        W87919  27.509  39.413  14.951
19502W        W87920  39.968  26.051   1.750
19503W        W87921   9.651   8.385  11.490
19504W        W87922  18.189  23.642   1.874
19505W        W87923  34.552  44.302   3.672
19506W        W87924  44.804  44.001   2.830
19507W        W87925  27.048  18.287   3.643
19508W        W87926  16.309  14.115  13.840
19509W        W87927  31.640  17.618   3.299
19510W        W87928  11.154   7.911  10.584
19511W        W87929  16.713   4.224  10.987
19512W        W87930  17.705  11.687   1.798
19513W        W87931  20.251  13.190  14.852
19514W        W87932   3.719  26.659  14.899
19515W        W87933  40.981  27.131   3.210
19516W        W87934  28.937   0.256  12.959
19517W        W87935  10.226  36.876  13.419
19518W        W87936   5.793  13.616  13.332
19519W        W87937  23.106  28.163   2.828
19520W        W87938  12.330  13.816   3.858
19521W        W87939  34.428  35.999  13.949
19522W        W87940  35.965  32.963  10.508
19523W        W87941  28.646  12.811  14.366
19524W        W87942   5.396  15.192  14.868
19525W        W87943  37.047  11.680   1.449
19526W        W87944  16.759  20.686   0.950
19527W        W87945  43.861   9.732  10.581
19528W        W87946  19.722  23.540   1.441
19529W        W87947  10.285  40.960   1.367
19530W        W87948  28.530   9.358  10.027
19531W        W87949  15.776  34.053  11.012
19532W        W87950  17.661   3.744  12.896
19533W        W87951  30.633  28.524   1.429
19534W        W87952  31.117   2.277  12.045
19535W        W87953  39.843  23.076   2.189
19536W        W87954  11.629  18.700   0.858
19537W        W87955   6.726  44.265   2.743
19538W        W87956  32.574  16.116   3.261
19539W        W87957   4.921  22.594   4.783
19540W        W87958  16.214  33.960  12.511
19541W        W87959   2.358  14.238   5.287
19542W        W87960  24.674   0.785  10.429
19543W        W87961  19.634  11.337  13.485
19544W        W87962  41.355  17.626   4.783
19545W        W87963  18.691  31.960   0.281
19546W        W87964  22.709  31.544  14.989
19547W        W87965  28.452  37.021  12.360
19548W        W87966  38.034  42.964   2.239
19549W        W87967  17.635  38.978  14.298
19550W        W87968  39.953   2.413   1.314
19551W        W87969  44.318  25.605  10.582
19552W        W87970  19.679   5.383  14.348
19553W        W87971  40.312  39.050   0.401
19554W        W87972  22.623  32.036  13.889
19555W        W87973  19.707  11.228   2.806
19556W        W87974  23.102  36.904   0.377
19557W        W87975  39.898  39.470   4.671
19558W        W87976  40.873  38.516  12.388
19559W        W87977  31.041   9.180   1.839
19560W        W87978  15.689  28.532   1.823
19561W        W87979  42.311  38.025  11.047
19562W        W87980  43.790   4.268  14.308
19563W        W87981  16.693  41.419   2.677
19564W        W87982  15.323  40.398  14.909
19565W        W87983   2.302  15.794  12.962
19566W        W87984   9.277   6.897   2.712
19567W        W87985  41.944  38.500  13.389
19568W        W87986  23.543  33.944  13.341
19569W        W87987  15.166  14.817   2.221
19570W        W87988  32.946   1.283   2.390
19571W        W87989   4.856   6.810   2.345
19572W        W87990  39.432  42.912  12.051
19573W        W87991   4.351  28.985  10.991
19574W        W87992  42.826  43.357  14.490
19575W        W87993   9.170  30.912   2.878
19576W        W87994  31.127   8.330   3.161
19577W        W87995  29.566  32.492   2.725
19578W        W87996  30.109  41.866   2.260
19579W        W87997  41.883  19.648   1.350
19580W        W87998  11.725   3.718  14.813
19581W        W87999  15.280  31.939  10.549
19582W        W88000  38.398   3.351  11.101
19583W        W88001  39.975  21.568  10.993
19584W        W88002  23.665  11.199   0.389
19585W        W88003  40.337  21.738   4.229
19586W        W88004  17.657  44.983   4.146
19587W        W88005   2.421   9.230  11.117
19588W        W88006  28.089   5.266   1.729
19589W        W88007   5.430   5.698   3.335
19590W        W88008   4.447  32.582  14.932
19591W        W88009  37.009  17.161   0.780
19592W        W88010   3.722   1.869  13.999
19593W        W88011  24.555   4.265   0.784
19594W        W88012   2.785  29.087   4.201
19595W        W88013  43.911  12.126  10.159
19596W        W88014   4.938   1.471   2.705
19597W        W88015   9.292  21.756   1.354
19598W        W88016  23.532  10.852  10.406
19599W        W88017  29.110  33.914   2.309
19600W        W88018  24.139   8.375   0.434
19601W        W88019  19.063  13.833  12.398
19602W        W88020  24.073  32.104   5.113
19603W        W88021  19.619  37.559  10.068
19604W        W88022   8.198  12.626  11.373
19605W        W88023   1.370  20.134  12.547
19606W        W88024   6.365   4.426  11.398
19607W        W88025  34.592  41.960   3.270
19608W        W88026  25.219  34.101   0.377
19609W        W88027  37.905  17.602  10.638
19610W        W88028  30.546  35.971   1.242
19611W        W88029   3.760  43.818  14.324
19612W        W88030   0.979  21.571  13.482
19613W        W88031  41.042  37.836   2.774
19614W        W88032   7.756   4.416  11.995
19615W        W88033  14.271  18.756  10.533
19616W        W88034  10.144  13.695   4.785
19617W        W88035  18.674  18.705  12.400
19618W        W88036   3.856  36.357   1.809
19619W        W88037  32.092   9.772  14.778
19620W        W88038  43.847  24.080   2.293
19621W        W88039  37.357  16.089   4.219
19622W        W88040  18.200  31.598  14.488
19623W        W88041  13.312  17.555  13.850
19624W        W88042  14.767  42.473   0.844
19625W        W88043  15.715  25.148  14.785
19626W        W88044  44.933  43.948   4.163
19627W        W88045  16.724  10.705  14.993
19628W        W88046  32.585   8.749   9.926
19629W        W88047  24.562  41.447  12.429
19630W        W88048  40.989   2.454  13.456
19631W        W88049  10.370  17.137   5.168
19632W        W88050   7.811  18.583   3.669
19633W        W88051  44.316  34.547  11.932
19634W        W88052  31.584  32.495  12.049
19635W        W88053  39.056  23.170  14.763
19636W        W88054  30.096  37.888   0.337
19637W        W88055   4.931  16.698   1.433
19638W        W88056   0.488   8.334   1.934
19639W        W88057  38.921  42.907  13.836
19640W        W88058  17.684  27.602  12.954
19641W        W88059  40.944   5.689   4.115
19642W        W88060  11.160  31.468   2.361
19643W        W88061  27.972  38.367   2.219
19644W        W88062  39.440  30.617  11.583
19645W        W88063   7.781   6.744   4.815
19646W        W88064  10.338   5.245   3.811
19647W        W88065   9.733  12.257   4.739
19648W        W88066  42.286  25.592   1.443
19649W        W88067   9.847  38.493   0.938
19650W        W88068   2.380  33.063   1.929
19651W        W88069  13.123  44.288  14.427
19652W        W88070  13.820   0.285   2.855
19653W        W88071   3.889  30.981   2.243
19654W        W88072  23.701  44.881   2.836
19655W        W88073  30.619   3.380  10.409
19656W        W88074   3.393  10.252   5.125
19657W        W88075  42.336  22.026   5.153
19658W        W88076  38.826  40.802   3.324
19659W        W88077   2.795  22.677  10.474
19660W        W88078  37.491  42.871   9.958
19661W        W88079   0.873  17.199  10.972
19662W        W88080  38.345  44.446  12.466
19663W        W88081   0.813   5.285   1.431
19664W        W88082   9.302   5.290  10.472
19665W        W88083   1.342  26.042  11.925
19666W        W88084  27.093  14.638  11.526
19667W        W88085   3.864  10.718   2.357
19668W        W88086  41.915   8.390  13.983
19669W        W88087  38.848  29.971  10.598
19670W        W88088  23.552  18.155   4.337
19671W        W88089  35.064   7.246   3.304
19672W        W88090  37.034  43.439  12.488
19673W        W88091  37.021  26.562   2.353
19674W        W88092  16.784  26.465   2.795
19675W        W88093  22.057  41.329  13.925
19676W        W88094  25.518  25.031  10.049
19677W        W88095  17.735  43.819  12.968
19678W        W88096  44.993   4.376   0.736
19679W        W88097  30.533  19.061   4.822
19680W        W88098  38.060  10.765  13.517
19681W        W88099  43.277  42.858   0.429
19682W        W88100  17.694  41.958   3.210
19683W        W88101  14.114  30.451   3.186
19684W        W88102   5.313   0.321   4.133
19685W        W88103  25.991  27.561  11.429
19686W        W88104  33.506   8.784  13.832
19687W        W88105   5.736   3.313   3.727
19688W        W88106  26.639  34.911  13.530
19689W        W88107  34.556  31.597  10.586
19690W        W88108   2.387  14.325   2.730
19691W        W88109   5.817  28.963  11.952
19692W        W88110   0.895  10.723   2.393
19693W        W88111  40.893  36.458  13.545
19694W        W88112  12.661  34.575   2.250
19695W        W88113  40.414  30.656  14.407
19696W        W88114  43.945  20.184   1.274
19697W        W88115  17.652  38.429   2.331
19698W        W88116  30.095  42.470   0.835
19699W        W88117  10.773  40.484  13.463
19700W        W88118  11.368  33.905   1.276
19701W        W88119  24.664  41.814  13.874
19702W        W88120  17.111  30.963  13.416
19703W        W88121  28.527  26.058   4.173
19704W        W88122  28.159  29.956  14.933
19705W        W88123  27.641   6.881   9.583
19706W        W88124  23.727  30.014   1.310
19707W        W88125  10.283   2.749  14.493
19708W        W88126   0.358  21.673  11.410
19709W        W88127  20.600  18.056  11.871
19710W        W88128  41.374  26.144  10.969
19711W        W88129   5.298  21.067   4.338
19712W        W88130  28.589   0.973   2.860
19713W        W88131   6.853  42.987   1.842
19714W        W88132  37.908  23.022   0.863
19715W        W88133  27.195   0.807   2.185
19716W        W88134  37.076  29.991  12.463
19717W        W88135  32.142   7.348  11.055
19718W        W88136  38.066   1.762  11.964
19719W        W88137  30.487  27.178  10.986
19720W        W88138  43.300  12.622  13.848
19721W        W88139  44.956   3.925  11.097
19722W        W88140   3.854  36.365   3.212
19723W        W88141  23.677  25.975  12.434
19724W        W88142   8.371   1.925   2.218
19725W        W88143  33.391   5.822  12.966
19726W        W88144  38.019   6.369   0.401
19727W        W88145   2.805   0.265  11.549
19728W        W88146  40.054   4.888  11.378
19729W        W88147  16.300  16.728  10.930
19730W        W88148  37.917  33.063  13.473
19731W        W88149  42.981  13.218  12.422
19732W        W88150  32.982  16.156  10.593
19733W        W88151  39.996  25.172   1.418
19734W        W88152   1.772  42.352  14.026
19735W        W88153  27.112  20.222   0.821
19736W        W88154  34.495  34.444  13.970
19737W        W88155  38.885  29.637   4.276
19738W        W88156   3.814  19.571   5.238
19739W        W88157   8.308  13.834  13.916
19740W        W88158  21.086  25.562  14.461
19741W        W88159  16.754  35.038  13.055
19742W        W88160  36.991  38.973  10.557
19743W        W88161  10.192   1.248   0.833
19744W        W88162   9.648  40.347  13.806
19745W        W88163  28.066  20.104   4.153
19746W        W88164  20.577  10.734  14.406
19747W        W88165  39.408  20.247   3.260
19748W        W88166  35.375  24.578  11.611
19749W        W88167  15.261  24.715   2.217
19750W        W88168  36.948   7.309   2.721
19751W        W88169   9.753   8.770   4.193
19752W        W88170  42.303  24.135   3.636
19753W        W88171   3.270   8.852  11.460
19754W        W88172   6.256  36.494  12.986
19755W        W88173  20.098  17.278   4.754
19756W        W88174  18.155  10.754   2.675
19757W        W88175  15.146  33.895   3.302
19758W        W88176  10.817  26.064  14.911
19759W        W88177   1.300  30.961  11.529
19760W        W88178  33.545  23.516  10.643
19761W        W88179  16.675  30.114   1.295
19762W        W88180  36.487  43.433  10.891
19763W        W88181  19.256   4.272   2.876
19764W        W88182  19.618  35.916  11.872
19765W        W88183   3.381  36.966   1.403
19766W        W88184  39.543  28.665  13.522
19767W        W88185  25.479  27.688  10.557
19768W        W88186  31.925  28.455   0.395
19769W        W88187  12.136  19.141  10.984
19770W        W88188  11.238  16.620  12.060
19771W        W88189  39.820   6.704  11.987
19772W        W88190  37.434  19.154  12.950
19773W        W88191  12.223  37.892   3.333
19774W        W88192  16.171  26.692  10.911
19775W        W88193   8.227  32.505  13.522
19776W        W88194   9.358  33.439  12.575
19777W        W88195  41.888   2.735  13.947
19778W        W88196   2.762  16.159   4.236
19779W        W88197   4.229  31.441   4.712
19780W        W88198  40.313  13.159   5.148
19781W        W88199   6.748  43.999  12.934
19782W        W88200  40.914  39.040   0.262
19783W        W88201   3.380  10.269   4.122
19784W        W88202  38.910  23.236   1.931
19785W        W88203  25.157  13.697  13.432
19786W        W88204  43.814  14.228  10.413
19787W        W88205   3.866  28.589   4.176
19788W        W88206  35.922  18.701  13.376
19789W        W88207  11.656  32.951  12.049
19790W        W88208   1.954   3.768  11.470
19791W        W88209  42.318  18.719  10.961
19792W        W88210   1.435  38.455   1.445
19793W        W88211  37.902  23.678  11.538
19794W        W88212  20.604  12.196   5.803
19795W        W88213  24.005  11.198   0.384
19796W        W88214  28.052  32.950   9.964
19797W        W88215   9.277  16.727   4.614
19798W        W88216  20.659  34.880   4.699
19799W        W88217   0.786  43.870  10.427
19800W        W88218  28.001  24.013   3.683
19801W        W88219   0.461  44.986   1.283
19802W        W88220  33.483   3.287   2.901
19803W        W88221   0.762  31.967  10.148
19804W        W88222   8.206  25.009   1.901
19805W        W88223   1.949  22.648   5.657
19806W        W88224  35.100   9.337  13.880
19807W        W88225   1.348  14.626  12.395
19808W        W88226  23.232   7.230  14.794
19809W        W88227  41.300  19.240   2.211
19810W        W88228  12.853  42.499   3.202
19811W        W88229   3.285  31.608   2.413
19812W        W88230  34.057  20.550  12.051
19813W        W88231  38.508  30.919  12.829
19814W        W88232  16.165  33.441   0.420
19815W        W88233  31.612   3.411  14.401
19816W        W88234   6.850  20.069  13.964
19817W        W88235   6.879  11.359  11.967
19818W        W88236  15.238  12.214  10.940
19819W        W88237  26.137  27.684   0.460
19820W        W88238   5.859   9.676  11.401
19821W        W88239  33.107  14.704   1.284
19822W        W88240  18.092  38.357   0.336
19823W        W88241   7.712   2.754   4.622
19824W        W88242   2.430  14.190  12.991
19825W        W88243  23.148  17.280  11.391
19826W        W88244  39.014  44.876  13.908
19827W        W88245  15.192   6.184  10.125
19828W        W88246  16.100  33.993   4.318
19829W        W88247  39.869   3.955  11.960
19830W        W88248  42.453   1.741  13.989
19831W        W88249  30.136   4.885   1.364
19832W        W88250  31.011  22.688   3.849
19833W        W88251   3.845  10.355  12.064
19834W        W88252  13.248  19.593   2.303
19835W        W88253  44.971  37.927  11.970
19836W        W88254  13.232  37.080  11.489
19837W        W88255  14.607  11.776  10.098
19838W        W88256  16.600  26.973   2.848
19839W        W88257  27.163  34.934  13.829
19840W        W88258  22.657  33.419  12.476
19841W        W88259   8.217  34.545  14.932
19842W        W88260  20.211  13.178   9.963
19843W        W88261   8.339  10.878  12.089
19844W        W88262  10.171   3.458  12.852
19845W        W88263   8.659  33.404  14.458
19846W        W88264  20.557   0.262   0.837
19847W        W88265   4.297  33.115   1.275
19848W        W88266  33.010  25.212  12.422
19849W        W88267  20.686  33.477  10.532
19850W        W88268  32.142  39.052   4.155
19851W        W88269  18.596  14.832   3.840
19852W        W88270  37.531  20.062   4.597
19853W        W88271  14.631  42.904   1.326
19854W        W88272  17.215  36.923  11.902
19855W        W88273  42.401  26.051   4.672
19856W        W88274   1.911  31.523   0.367
19857W        W88275   2.437  27.562   1.696
19858W        W88276  18.199   9.849  10.890
19859W        W88277  41.308  31.065  14.422
19860W        W88278   4.796   2.848   3.286
19861W        W88279  43.946  38.415  12.936
19862W        W88280  12.779  44.400   0.447
19863W        W88281  31.611  36.461  12.432
19864W        W88282  38.071  23.104   1.229
19865W        W88283  33.580   6.709  13.987
19866W        W88284  12.138   6.423   2.192
19867W        W88285  10.335  30.432  11.084
19868W        W88286  26.679  13.166  10.997
19869W        W88287  26.109  37.352   1.285
19870W        W88288  39.446  17.628   0.792
19871W        W88289  34.548  26.551  14.949
19872W        W88290  42.483  30.448  13.895
19873W        W88291  27.042  22.052   1.836
19874W        W88292  37.972  37.011   2.786
19875W        W88293  35.397  23.220   3.691
19876W        W88294  42.007  26.550   2.402
19877W        W88295  19.704  31.622  11.444
19878W        W88296  32.003  26.130   2.336
19879W        W88297   2.332   2.852   2.821
19880W        W88298   2.341  30.451   3.338
19881W        W88299  26.612  11.622  11.390
19882W        W88300   8.356   5.800  13.383
19883W        W88301   5.774  33.024   1.811
19884W        W88302  41.515  29.016   0.908
19885W        W88303   2.279   6.725   4.830
19886W        W88304   1.739   3.817   2.356
19887W        W88305  25.105  41.454   2.862
19888W        W88306  15.616  19.556  12.888
19889W        W88307   7.200  38.849   4.624
19890W        W88308   7.310  42.821  10.614
19891W        W88309  43.378  42.296  12.914
19892W        W88310   3.276  37.408  13.331
19893W        W88311  17.127  35.572   1.812
19894W        W88312  32.611  40.504   9.939
19895W        W88313  25.583  29.578   4.809
19896W        W88314   2.230  10.325  12.038
19897W        W88315  24.225  38.068   5.230
19898W        W88316   9.197   8.363   4.711
19899W        W88317  29.554  25.027  11.593
19900W        W88318  13.660  26.031   0.293
19901W        W88319  32.137  25.972   1.342
19902W        W88320   7.225  44.357  13.384
19903W        W88321  21.616  28.058   4.699
19904W        W88322  30.923  29.431   4.210
19905W        W88323  13.648  32.495   0.736
19906W        W88324  22.140  11.846  12.023
19907W        W88325  36.350   0.918  13.046
19908W        W88326   4.231   2.807   2.310
19909W        W88327   4.738  32.081  13.882
19910W        W88328  33.021  43.772  11.412
19911W        W88329  24.063  36.936   0.261
19912W        W88330   7.308  37.932   1.351
19913W        W88331  31.114  30.098  11.527
19914W        W88332  21.246  44.993  10.939
19915W        W88333  16.133  21.109  10.069
19916W        W88334   5.812   0.444  14.309
19917W        W88335  35.084  12.687   1.771
19918W        W88336  35.387   3.355   0.821
19919W        W88337  14.759  20.551  12.367
19920W        W88338  37.381  16.259   1.710
19921W        W88339  29.625  40.463  13.012
19922W        W88340  21.123   6.870  14.955
19923W        W88341  33.498   4.225  13.869
19924W        W88342   9.764   5.736   0.465
19925W        W88343  12.244  26.025   4.656
19926W        W88344  15.182  20.078   2.233
19927W        W88345  14.109  35.409   0.345
19928W        W88346  37.858  21.160  13.021
19929W        W88347   0.295  32.029  10.969
19930W        W88348   3.738  13.786  12.467
19931W        W88349  29.136   9.243   3.834
19932W        W88350  27.600  33.029   0.910
19933W        W88351  34.535   5.363  14.797
19934W        W88352  38.905  14.335  12.856
19935W        W88353  21.583   9.154  10.456
19936W        W88354  23.075  29.968   2.357
19937W        W88355   6.339  42.992  11.857
19938W        W88356   2.839  27.490  14.439
19939W        W88357  26.998  26.667  13.033
19940W        W88358   7.253  33.409  13.504
19941W        W88359  32.093  33.943  14.405
19942W        W88360  38.007  22.622  10.411
19943W        W88361   4.782   3.758   3.249
19944W        W88362  13.649  26.680   0.446
19945W        W88363  44.422   8.854  10.607
19946W        W88364  21.692   2.300   1.288
19947W        W88365  37.920  12.715  12.424
19948W        W88366  36.926  41.012  11.080
19949W        W88367  31.484   9.680   3.717
19950W        W88368  37.903  22.155  14.969
19951W        W88369  15.146   0.428   4.186
19952W        W88370  19.602  36.423   5.225
19953W        W88371  14.312  29.481   5.308
19954W        W88372  11.247  27.074   1.313
19955W        W88373  33.997  44.825  10.996
19956W        W88374  19.778  30.080   1.713
19957W        W88375  32.606  14.192   4.831
19958W        W88376   3.904  41.527  12.946
19959W        W88377   8.259  32.513   3.352
19960W        W88378  20.615  18.180  11.468
19961W        W88379  38.387  11.282   4.641
19962W        W88380   1.869  29.629   0.896
19963W        W88381  34.955  37.447  14.959
19964W        W88382  36.450  26.166   4.712
19965W        W88383  30.518  31.922   2.311
19966W        W88384  10.374  16.282  14.978
19967W        W88385  13.134  26.628  11.583
19968W        W88386  44.904   7.911   0.400
19969W        W88387   8.840   7.275  14.793
19970W        W88388   4.218  11.671   3.735
19971W        W88389  11.753  17.263   4.811
19972W        W88390  27.671  31.049   4.314
19973W        W88391  22.657  39.535  12.556
19974W        W88392  23.150   3.850  13.937
19975W        W88393  12.269  40.804  14.301
19976W        W88394   7.802  27.508  12.990
19977W        W88395  44.425  20.139   0.867
19978W        W88396  13.813  36.393   1.790
19979W        W88397  42.829  42.463   0.459
19980W        W88398  30.600  43.307  11.908
19981W        W88399   9.813   5.392  14.464
19982W        W88400  15.207  29.470   3.748
19983W        W88401  20.246  20.252  14.832
19984W        W88402  29.472  30.075   4.670
19985W        W88403  16.762   9.364   0.414
19986W        W88404  25.696   8.676   0.798
19987W        W88405  35.876   9.347  10.538
19988W        W88406  29.978   2.316  14.399
19989W        W88407   7.695   3.804   1.893
19990W        W88408   7.876  36.058   4.800
19991W        W88409  10.281  44.346   4.299
19992W        W88410  12.716  39.914  10.957
19993W        W88411  30.558  23.011   2.281
19994W        W88412  34.120  37.036  12.514
19995W        W88413  20.085   2.800  10.572
19996W        W88414  27.536  35.945   3.840
19997W        W88415   7.813  31.972   1.723
19998W        W88416  40.930  11.356   0.848
19999W        W88417  12.144   5.899   4.119
20000W        W88418  34.968  15.261   2.250
20001W        W88419  30.920  41.000   0.944
20002W        W88420  14.189   4.700   1.389
20003W        W88421  36.849  26.099   2.670
20004W        W88422   1.824  28.990  12.847
20005W        W88423  10.163  42.896  14.352
20006W        W88424   2.411  40.333   5.161
20007W        W88425  34.462  27.490   2.727
20008W        W88426  39.880   6.416   4.690
20009W        W88427  40.452  28.168   0.303
20010W        W88428   9.291   8.243   1.895
20011W        W88429  44.382  20.572  10.914
20012W        W88430  27.640  22.726   4.664
20013W        W88431  19.060  40.993   0.288
20014W        W88432  25.598  43.453  13.359
20015W        W88433   6.713  14.161  10.547
20016W        W88434   0.932  39.551  14.019
20017W        W88435  38.391  37.875  14.766
20018W        W88436   1.467  20.115   2.188
20019W        W88437  43.798  17.696  14.425
20020W        W88438  37.425   8.247  14.993
20021W        W88439  19.729   5.348  11.529
20022W        W88440  18.183  41.922  13.009
20023W        W88441   7.232  40.862  13.321
20024W        W88442  37.923   4.751   4.245
20025W        W88443   4.944  10.774  14.329
20026W        W88444  16.306  32.937  11.026
20027W        W88445  22.710  30.115  11.106
20028W        W88446  35.399   6.829  13.401
20029W        W88447   4.717  37.575  10.979
20030W        W88448   9.356  37.337  11.469
20031W        W88449  44.806  28.680  14.346
20032W        W88450  42.852  29.641  13.314
20033W        W88451   1.752  23.084  10.508
20034W        W88452  34.905  11.223   4.654
20035W        W88453  25.632   9.751  11.926
20036W        W88454  33.072  24.546  12.524
20037W        W88455  32.091  15.652   0.481
20038W        W88456   5.741  20.084   0.854
20039W        W88457  34.531  35.933  10.626
20040W        W88458   1.933   4.278  14.789
20041W        W88459  28.054  27.653   9.972
20042W        W88460   2.837  29.028   1.273
20043W        W88461  38.831  18.687  14.901
20044W        W88462  21.085   5.264   2.836
20045W        W88463   2.759  35.014  13.051
20046W        W88464  20.522   0.875   1.917
20047W        W88465  44.436  28.510   4.695
20048W        W88466  26.541  28.010   3.740
20049W        W88467  20.187  22.509   1.401
20050W        W88468  12.326   3.722  10.956
20051W        W88469   2.922   9.860   4.607
20052W        W88470  14.116  39.445   0.307
20053W        W88471  17.265  13.189   3.688
20054W        W88472   2.248  33.512   3.175
20055W        W88473  43.411   1.791  13.345
20056W        W88474   6.295   4.296   2.419
20057W        W88475  32.431  25.982  12.090
20058W        W88476  21.233  44.370   2.738
20059W        W88477  12.616  39.822   0.952
20060W        W88478   8.845  34.593  11.404
20061W        W88479  14.121  14.762   4.762
20062W        W88480   9.389  12.323  12.965
20063W        W88481  15.201  22.200   4.836
20064W        W88482  21.231  18.685  14.334
20065W        W88483  30.564  29.637  13.357
20066W        W88484   2.423   4.355  11.944
20067W        W88485   5.429  37.904   2.889
20068W        W88486  10.790  23.169  13.846
20069W        W88487  12.263  37.982   1.279
20070W        W88488   3.744  44.470   4.712
20071W        W88489  22.044  32.553   4.311
20072W        W88490  16.287   7.409   4.193
20073W        W88491  13.319  13.659   0.739
20074W        W88492  34.869   4.827   2.396
20075W        W88493  37.898  38.034  12.543
20076W        W88494  18.132  11.752   9.974
20077W        W88495  36.938  40.023  13.323
20078W        W88496  38.965  20.569   2.707
20079W        W88497  12.619  19.647   0.817
20080W        W88498  26.490   8.736   2.360
20081W        W88499  21.212  38.991  11.068
20082W        W88500   8.734  30.451  14.286
20083W        W88501  44.359  32.497  10.079
20084W        W88502   4.450  27.144  13.046
20085W        W88503  42.010  18.752  12.465
20086W        W88504  33.036  34.949   3.148
20087W        W88505  21.159   7.860  12.377
20088W        W88506  38.471  21.252   3.737
20089W        W88507   4.713  18.104  11.993
20090W        W88508  31.061  13.288  14.857
20091W        W88509  33.959  33.427  10.453
20092W        W88510   7.765   7.837  11.378
20093W        W88511  11.324  43.007  11.876
20094W        W88512  18.220  28.169  14.815
20095W        W88513  37.454  29.049   1.737
20096W        W88514  38.002  16.763   3.846
20097W        W88515   1.776  14.246   1.267
20098W        W88516  29.026   9.189   0.482
20099W        W88517  35.410  38.394   2.284
20100W        W88518  37.853  29.154  10.450
20101W        W88519  27.125  44.851  11.427
20102W        W88520   2.888  28.062   4.666
20103W        W88521  17.591  22.705   4.150
20104W        W88522   8.286  39.529  13.961
20105W        W88523  31.937  16.600   1.438
20106W        W88524   3.919   3.811   1.789
20107W        W88525  14.803  26.633  13.438
20108W        W88526  40.416  21.749   0.420
20109W        W88527  44.801  40.978   1.754
20110W        W88528  30.629  26.082  14.795
20111W        W88529  29.511   3.823  14.025
20112W        W88530  27.053  15.713  11.039
20113W        W88531  19.228  27.660   4.131
20114W        W88532  10.337  18.274  13.912
20115W        W88533  11.328   5.928  12.026
20116W        W88534  28.075  28.973  12.519
20117W        W88535  24.572   9.778   3.265
20118W        W88536  22.131  42.780  10.608
20119W        W88537  15.154   8.248   1.883
20120W        W88538  27.492  28.155   2.888
20121W        W88539  27.637  10.677  12.431
20122W        W88540   1.830  44.355  10.481
20123W        W88541  10.687  38.373   4.619
20124W        W88542  35.860  19.712  10.615
20125W        W88543   5.786  26.697  11.455
20126W        W88544  13.761   6.809  13.957
20127W        W88545   2.289   3.297  12.520
20128W        W88546  28.539  39.023   4.263
20129W        W88547  18.227  34.026  12.892
20130W        W88548   5.220  28.504  13.411
20131W        W88549  33.528   3.868  13.385
20132W        W88550  38.912   9.772  13.406
20133W        W88551  30.063   9.713   2.380
20134W        W88552   4.301   4.818   4.817
20135W        W88553  15.292  22.022   4.142
20136W        W88554  28.143  31.607   2.359
20137W        W88555  30.480  21.660   4.718
20138W        W88556  18.548  12.665  11.002
20139W        W88557  24.109  18.560   2.702
20140W        W88558  31.525  43.857   3.318
20141W        W88559  14.648  35.457  10.454
20142W        W88560  26.601  27.498  14.006
20143W        W88561  43.312   7.265  10.901
20144W        W88562  36.848  13.122   2.366
20145W        W88563  10.732  17.116   1.447
20146W        W88564  18.288  23.505  13.829
20147W        W88565  26.670   1.811  11.037
20148W        W88566  43.807  14.258   0.791
20149W        W88567   7.229   9.269   2.862
20150W        W88568   9.376  14.802  14.394
20151W        W88569  23.232  39.944  11.085
20152W        W88570  28.053  23.700  10.636
20153W        W88571  16.155  16.280  11.873
20154W        W88572  11.783  21.222  10.556
20155W        W88573  39.889   0.346   0.263
20156W        W88574  19.581  11.638  12.450
20157W        W88575  44.761   1.763   4.267
20158W        W88576  41.334  13.310  10.515
20159W        W88577  29.022  24.725   0.843
20160W        W88578  23.043   2.806  11.077
20161W        W88579  15.768  43.779   4.754
20162W        W88580   8.780   9.786  13.422
20163W        W88581  30.537  13.810   3.837
20164W        W88582  17.186   0.905   4.757
20165W        W88583   9.719   7.819  12.580
20166W        W88584  24.114   4.422   4.832
20167W        W88585  13.603  32.509   3.239
20168W        W88586  24.004   7.781  12.895
20169W        W88587  24.562  16.628   2.200
20170W        W88588  19.049  23.010   1.822
20171W        W88589  38.447  41.842   3.280
20172W        W88590  30.456   6.346  13.451
20173W        W88591  16.690  29.487  13.940
20174W        W88592  39.816  20.764  13.930
20175W        W88593  41.431   6.700   0.898
20176W        W88594  43.342  32.560  12.911
20177W        W88595  26.959  20.044  10.413
20178W        W88596  28.155   3.950   1.780
20179W        W88597  40.481  31.984  13.792
20180W        W88598  16.645   0.285   0.255
20181W        W88599  16.209  11.163   0.352
20182W        W88600  11.724  23.999  11.469
20183W        W88601   7.698  17.099   2.775
20184W        W88602   1.453  28.558  13.854
20185W        W88603   1.972  21.568   2.766
20186W        W88604  17.264   9.691  14.977
20187W        W88605  26.581  26.668  14.030
20188W        W88606  16.277  44.404  12.967
20189W        W88607  28.618  37.893   1.892
20190W        W88608   5.882  10.139  12.373
20191W        W88609  39.871  41.307  12.410
20192W        W88610  36.525  40.388   4.597
20193W        W88611  24.121   5.194  13.492
20194W        W88612   2.840  37.978   3.754
20195W        W88613  33.104  28.976  10.470
20196W        W88614  23.241  40.873   3.804
20197W        W88615  24.221  36.853   1.303
20198W        W88616   5.827  16.107   1.317
20199W        W88617  44.383  12.229  13.400
20200W        W88618   4.304  28.609  14.830
20201W        W88619  36.071  33.937   3.317
20202W        W88620  42.949  16.755  10.908
20203W        W88621  20.554  42.501   1.724
20204W        W88622  40.951   4.361   4.258
20205W        W88623  33.985  38.875   5.301
20206W        W88624  23.042   2.307  14.461
20207W        W88625  17.122  36.843   3.822
20208W        W88626  12.318  20.204  12.570
20209W        W88627  37.942   3.764   4.696
20210W        W88628  34.017  15.582  10.988
20211W        W88629  41.933  26.676   1.804
20212W        W88630  35.100  10.269   4.813
20213W        W88631  34.566   0.927   0.430
20214W        W88632  34.024  14.328   3.298
20215W        W88633  28.564   2.826  14.841
20216W        W88634   9.347  10.811   2.851
20217W        W88635   9.163   9.711  12.573
20218W        W88636   8.781  24.710  10.572
20219W        W88637  21.184   5.341  12.944
20220W        W88638  17.208  43.971   0.289
20221W        W88639  18.224  24.017   4.799
20222W        W88640  27.691   5.375   4.668
20223W        W88641  21.190  35.596  13.522
20224W        W88642  33.420  27.943   4.183
20225W        W88643  20.104  35.363  13.447
20226W        W88644  14.598  18.658   4.829
20227W        W88645   4.337  30.653  13.923
20228W        W88646  42.496  38.460   2.266
20229W        W88647  30.074  33.989   4.160
20230W        W88648  44.282  24.186  14.407
20231W        W88649  33.106  44.407   3.229
20232W        W88650  11.270  27.076  14.363
20233W        W88651  21.041  27.157  12.968
20234W        W88652  39.877   7.844   1.732
20235W        W88653  34.974  15.085  13.891
20236W        W88654  40.875  23.102  14.809
20237W        W88655  11.734  33.504   5.127
20238W        W88656  29.450  22.145  14.005
20239W        W88657  10.308  40.396  10.951
20240W        W88658   2.301  31.638  13.009
20241W        W88659  27.031  42.446  12.039
20242W        W88660  24.207  23.587   2.748
20243W        W88661  41.803  30.485   4.245
20244W        W88662   6.713  26.480   1.891
20245W        W88663  15.597  27.679   1.259
20246W        W88664  24.650   7.875  10.629
20247W        W88665  16.725   7.180  11.035
20248W        W88666   3.450   4.403  10.453
20249W        W88667   5.242   4.913   1.390
20250W        W88668  33.509  19.178  13.885
20251W        W88669  39.063   2.441   4.627
20252W        W88670  35.373   5.751   2.237
20253W        W88671  16.173  22.235   3.639
20254W        W88672  14.231  35.567   2.744
20255W        W88673  19.164   5.250  12.566
20256W        W88674  39.846  44.850  11.966
20257W        W88675   4.262   6.218  11.581
20258W        W88676  38.933  44.305   2.818
20259W        W88677  30.571  13.160   4.805
20260W        W88678  25.558  24.028  11.957
20261W        W88679  31.899  43.815  12.961
20262W        W88680  16.576  31.421   1.732
20263W        W88681  38.991  15.624   2.296
20264W        W88682  23.538  26.538   0.354
20265W        W88683  41.373  14.328   4.628
20266W        W88684  24.118  13.149   4.720
20267W        W88685  30.005   7.212  12.575
20268W        W88686  35.460  20.214  13.824
20269W        W88687  43.489  12.269  14.452
20270W        W88688   8.225  11.369   3.204
20271W        W88689  25.083   3.831   0.396
20272W        W88690  21.191  11.741  14.461
20273W        W88691  13.114   7.750  13.361
20274W        W88692   2.768  27.006   4.652
20275W        W88693  40.025  13.105  11.588
20276W        W88694   5.358  42.303  10.936
20277W        W88695   3.400  17.276   5.130
20278W        W88696  23.501  37.008  14.311
20279W        W88697   7.233  17.241  14.978
20280W        W88698  22.088   3.930  13.504
20281W        W88699  31.985  37.929   2.316
20282W        W88700   6.835  32.485   4.771
20283W        W88701  29.149  37.434  11.559
20284W        W88702   5.258  14.805  10.626
20285W        W88703  30.474   9.369  14.985
20286W        W88704   1.477  25.116   3.290
20287W        W88705  30.562  36.906  12.866
20288W        W88706  40.903  25.163  14.848
20289W        W88707  44.460   4.801   3.861
20290W        W88708  35.106  23.506   0.454
20291W        W88709  11.198  28.000  14.370
20292W        W88710  26.651   0.773   2.289
20293W        W88711   2.965  12.341  14.912
20294W        W88712  40.901  35.579   4.608
20295W        W88713  11.775  23.210   4.318
20296W        W88714  23.999  23.504  12.935
20297W        W88715  38.458  21.754   0.344
20298W        W88716  41.999  21.109   1.355
20299W        W88717  44.301  24.981   2.222
20300W        W88718   1.818  25.514   0.296
20301W        W88719  23.606  21.522   3.263
20302W        W88720  22.234  24.103  11.990
20303W        W88721   4.834  13.351  12.498
20304W        W88722  36.943   1.307  13.311
20305W        W88723  15.203  22.087   1.233
20306W        W88724  18.780  33.975   1.852
20307W        W88725  37.547  32.411  13.061
20308W        W88726  19.066  30.578  11.481
20309W        W88727  28.047  22.670  11.012
20310W        W88728  23.023   1.294   0.926
20311W        W88729  25.533  17.757  11.420
20312W        W88730  18.745  19.060  13.915
20313W        W88731  41.004  43.331   2.685
20314W        W88732  24.548  31.141   1.887
20315W        W88733  23.579  19.054   4.142
20316W        W88734  29.431   5.875   4.654
20317W        W88735  17.127   6.407  12.344
20318W        W88736  25.476  34.932  10.453
20319W        W88737  34.516  38.930   4.734
20320W        W88738  11.740  34.032  14.316
20321W        W88739  16.643  28.482   0.914
20322W        W88740  22.030  42.500   0.440
20323W        W88741  19.263  40.884  14.278
20324W        W88742  26.082  42.398   1.758
20325W        W88743   7.717   0.437   0.247
20326W        W88744   3.217  10.825  13.874
20327W        W88745  31.974  17.261  14.937
20328W        W88746   6.364  21.708  14.287
20329W        W88747  28.457  44.817   2.849
20330W        W88748  35.916  41.884   4.272
20331W        W88749  32.043   2.314   3.838
20332W        W88750  32.068  40.518  13.536
20333W        W88751  33.511  10.843  12.061
20334W        W88752  27.586   7.752   5.239
20335W        W88753   7.731  39.356  13.971
20336W        W88754   9.675  42.296   2.260
20337W        W88755  36.954  14.155   3.848
20338W        W88756  39.443  33.127   4.678
20339W        W88757  29.941  18.647   2.897
20340W        W88758   0.423   3.814  14.789
20341W        W88759  23.003  41.801  14.283
20342W        W88760   9.827   9.391   0.730
20343W        W88761  38.023  33.905   3.303
20344W        W88762  36.892  26.674   4.824
20345W        W88763  17.182  17.258   2.708
20346W        W88764  42.306  28.145   4.176
20347W        W88765   3.723  33.976   0.261
20348W        W88766  17.777  33.104   4.319
20349W        W88767  27.985  36.411   1.767
20350W        W88768  42.300  39.355   0.458
20351W        W88769  35.479  41.842   3.836
20352W        W88770  30.945  37.840  12.416
20353W        W88771  39.538  33.482   1.335
20354W        W88772  28.136  31.567   9.993
20355W        W88773  44.872  43.273  13.412
20356W        W88774  32.136  24.674   0.923
20357W        W88775  15.615  37.059   0.450
20358W        W88776  38.852  17.722  11.016
20359W        W88777   8.198  20.752   2.869
20360W        W88778   2.366  38.509   4.601
20361W        W88779  31.411   7.329   2.231
20362W        W88780  13.338  22.527  11.923
20363W        W88781  14.174   9.739   4.146
20364W        W88782  21.112  37.874   1.776
20365W        W88783  37.931   4.870  12.366
20366W        W88784  30.493  28.647   4.332
20367W        W88785  11.230  40.539  12.947
20368W        W88786  12.789  30.913  11.099
20369W        W88787  21.154  31.087  12.378
20370W        W88788  23.193   9.784  11.058
20371W        W88789  10.670   6.334  11.063
20372W        W88790  22.196  41.044   3.201
20373W        W88791  37.987  33.565   4.177
20374W        W88792  11.155   0.381  14.996
20375W        W88793  11.746  33.071  11.485
20376W        W88794  14.821  12.685   0.963
20377W        W88795   9.279  18.672  14.351
20378W        W88796  35.038  35.463  10.567
20379W        W88797  42.512   1.273   1.820
20380W        W88798  33.896  25.061  12.466
20381W        W88799   3.254  10.821   0.786
20382W        W88800  34.442   7.337   0.345
20383W        W88801  15.258   0.839  12.376
20384W        W88802  39.957  36.576  10.636
20385W        W88803  22.663  17.139   1.386
20386W        W88804  14.643   7.743   2.871
20387W        W88805  31.524  28.149  10.637
20388W        W88806  10.798  30.106   3.270
20389W        W88807  38.952  43.487   4.322
20390W        W88808  38.993  25.205   1.702
20391W        W88809  27.692  23.065  14.400
20392W        W88810  21.106  24.613  12.881
20393W        W88811  25.617  12.853  14.359
20394W        W88812  34.897   2.793  12.416
20395W        W88813  26.143  18.785  12.868
20396W        W88814   4.849  24.120   2.791
20397W        W88815   7.306  40.349   0.375
20398W        W88816  34.512  11.355   3.757
20399W        W88817  16.180   8.401   1.373
20400W        W88818  24.668   2.301   3.296
20401W        W88819  42.510  22.092   1.776
20402W        W88820  12.234  31.123   2.787
20403W        W88821  41.942   7.847   0.311
20404W        W88822  15.735  27.545  14.866
20405W        W88823   1.409  34.986   0.745
20406W        W88824  44.318  27.003  10.500
20407W        W88825  16.191  15.683   3.237
20408W        W88826  34.902  11.276   2.384
20409W        W88827   0.764  29.569   4.116
20410W        W88828   8.690   9.304  11.389
20411W        W88829  20.078  13.156   2.248
20412W        W88830  12.154   2.279  14.367
20413W        W88831  36.579  32.137  12.980
20414W        W88832   2.782  31.053   2.728
20415W        W88833  15.597  31.143   2.297
20416W        W88834  25.111  43.823  14.945
20417W        W88835  28.668  38.501  11.498
20418W        W88836  41.389   9.301  14.426
20419W        W88837  10.250  40.038  11.986
20420W        W88838   4.316  44.300   2.756
20421W        W88839  44.366  15.177  10.899
20422W        W88840  10.366  29.432   0.741
20423W        W88841  13.144  22.142  14.348
20424W        W88842  36.437  42.902   1.753
20425W        W88843  24.603  12.751  14.408
20426W        W88844   5.717   0.791  13.052
20427W        W88845  39.915   5.799   2.820
20428W        W88846  10.724  35.958   4.683
20429W        W88847  17.788  30.013  10.591
20430W        W88848  42.943   0.354   0.395
20431W        W88849   0.305  37.894   0.752
20432W        W88850  35.957  14.676   4.141
20433W        W88851   1.468  44.261  11.891
20434W        W88852  39.439  37.448   4.610
20435W        W88853  39.472  43.454  14.907
20436W        W88854  11.807   6.907  10.594
20437W        W88855  38.571  19.273  11.390
20438W        W88856   3.367  23.176   4.310
20439W        W88857  15.597  29.963  13.363
20440W        W88858  24.723  41.873  11.441
20441W        W88859  40.428  11.731  13.821
20442W        W88860  40.370  28.550   0.794
20443W        W88861  18.171  14.101   4.287
20444W        W88862  13.701  24.515   3.263
20445W        W88863  41.526  13.275  10.972
20446W        W88864  18.212  38.453   2.235
20447W        W88865  25.616  19.762   4.298
20448W        W88866  44.417  37.873  12.038
20449W        W88867  25.616  19.561   0.834
20450W        W88868   4.927  31.487  11.124
20451W        W88869  29.529  23.205   3.243
20452W        W88870   7.294  29.640  12.966
20453W        W88871  38.958  43.502   3.356
20454W        W88872   8.663  14.120   2.786
20455W        W88873  20.545  34.049  12.948
20456W        W88874  12.644  13.153   3.171
20457W        W88875   4.715  36.377  12.880
20458W        W88876  33.528  14.618  11.076
20459W        W88877   1.843  32.982   2.259
20460W        W88878  32.897  25.549  12.506
20461W        W88879  36.504  16.757   3.309
20462W        W88880  31.974  37.988   4.187
20463W        W88881  35.972  23.589   0.796
20464W        W88882  28.530  35.976  11.451
20465W        W88883   0.373   1.811  14.770
20466W        W88884  23.191   3.894   2.692
20467W        W88885  23.104  35.450   1.857
20468W        W88886  28.119   7.305   0.286
20469W        W88887  29.643  24.145   4.164
20470W        W88888   6.800   5.800  12.060
20471W        W88889  16.678  18.059   4.726
20472W        W88890   0.851  43.396  14.434
20473W        W88891  22.663  12.673   1.787
20474W        W88892   0.249  23.159  12.877
20475W        W88893  35.434   7.893   3.287
20476W        W88894   3.898  29.985  14.300
20477W        W88895   5.229   4.724  13.345
20478W        W88896  24.722  31.454  14.956
20479W        W88897  42.411   0.473  14.352
20480W        W88898  35.367  25.145   5.197
20481W        W88899  19.113   5.330  11.927
20482W        W88900  37.830   5.390   2.186
20483W        W88901  21.571  27.130  12.080
20484W        W88902  23.665  13.793   3.853
20485W        W88903  26.988   7.779  10.429
20486W        W88904  39.427  23.536   1.317
20487W        W88905   0.422  12.348  13.480
20488W        W88906  37.025  29.632   2.267
20489W        W88907  20.187  33.095   2.312
20490W        W88908  26.496  44.763   3.761
20491W        W88909  11.631  33.592   0.260
20492W        W88910  25.098  20.698   4.253
20493W        W88911  44.362  38.059  14.326
20494W        W88912  16.197  31.081  11.108
20495W        W88913   2.344  11.278  11.593
20496W        W88914  44.826   4.733   1.804
20497W        W88915  26.491  34.972   0.954
20498W        W88916   9.866  38.530  12.392
20499W        W88917  37.374  21.577   2.362
20500W        W88918  35.899   1.321   3.717
20501W        W88919  16.572  15.285   0.354
20502W        W88920   7.283  17.220  11.960
20503W        W88921  19.628   7.900   4.303
20504W        W88922  29.551   4.263   3.161
20505W        W88923  25.579   4.901  11.430
20506W        W88924  17.279   5.735  11.599
20507W        W88925   7.256  13.641   3.657
20508W        W88926  20.566  15.616   0.807
20509W        W88927  35.096   2.413  11.425
20510W        W88928  26.635  21.093   0.880
20511W        W88929  41.975  21.036  12.498
20512W        W88930  14.109  42.330  14.775
20513W        W88931  17.133  36.525  13.929
20514W        W88932  29.090   3.924  14.390
20515W        W88933  40.429  24.526   0.929
20516W        W88934   4.389  11.264   0.293
20517W        W88935   2.266  37.895   0.320
20518W        W88936  42.286   2.921  13.870
20519W        W88937  17.658  19.667   2.709
20520W        W88938  19.194  31.408  14.774
20521W        W88939   5.226  35.550   0.888
20522W        W88940  36.523  36.392   4.275
20523W        W88941  10.877  14.718  10.913
20524W        W88942   8.338  13.223   4.756
20525W        W88943   0.941  27.045  11.448
20526W        W88944  10.728  10.649   2.296
20527W        W88945   7.712  27.613   2.331
20528W        W88946   8.824  17.738  12.391
20529W        W88947  34.115  24.561   0.909
20530W        W88948  18.611  11.663  10.972
20531W        W88949  23.584   8.383   0.286
20532W        W88950  18.746  23.676  10.563
20533W        W88951  17.138  40.861  11.000
20534W        W88952  13.151  30.485   3.268
20535W        W88953  37.872  17.777   0.353
20536W        W88954  15.663  11.137  14.289
20537W        W88955   6.852   2.330   1.818
20538W        W88956  21.261  31.445   2.317
20539W        W88957  43.766  22.694  14.420
20540W        W88958   4.228  24.587  13.411
20541W        W88959  37.035  19.227  11.896
20542W        W88960  34.519   8.189   2.241
20543W        W88961  29.445  25.628   3.642
20544W        W88962   3.809  27.015  14.467
20545W        W88963  19.708  35.028  11.076
20546W        W88964  32.474  32.989  12.874
20547W        W88965  19.566  36.024  11.545
20548W        W88966  43.774   6.690   3.156
20549W        W88967  44.840  13.734   0.312
20550W        W88968  40.330  41.976  11.999
20551W        W88969   7.361  28.983   3.242
20552W        W88970  28.443  16.787  14.370
20553W        W88971  16.583   4.822   5.748
20554W        W88972  29.475  43.981   0.821
20555W        W88973  33.536  37.980  11.395
20556W        W88974  39.443  33.535   4.117
20557W        W88975   8.319  26.113  10.469
20558W        W88976  20.028  10.323   2.384
20559W        W88977  39.459  32.136   3.234
20560W        W88978  42.880  27.032   3.370
20561W        W88979  34.903   5.925  11.585
20562W        W88980  31.441   0.908   2.698
20563W        W88981   8.314  27.063  14.349
20564W        W88982  39.328  11.247   1.737
20565W        W88983  18.556  18.777  13.448
20566W        W88984  28.931  14.648  11.372
20567W        W88985  40.938   4.846   3.202
20568W        W88986   2.789  29.560  12.857
20569W        W88987  21.093  24.540   4.666
20570W        W88988  23.055  11.744   2.205
20571W        W88989  33.072  36.560   1.732
20572W        W88990   3.912  15.139   3.280
20573W        W88991  18.585  17.281  13.524
20574W        W88992  23.176   3.944  12.492
20575W        W88993  11.710  44.404   0.439
20576W        W88994  13.182  23.572   1.860
20577W        W88995  38.041  24.036  14.290
20578W        W88996  25.674  37.852   3.334
20579W        W88997  44.862  30.417   1.234
20580W        W88998  40.440  31.565  12.021
20581W        W88999  27.051  20.627  12.522
20582W        W89000  25.181  39.899   0.409
20583W        W89001  23.522  14.650  10.956
20584W        W89002  44.846  21.568  13.476
20585W        W89003  30.549   3.815   3.217
20586W        W89004  41.802  15.199  11.068
20587W        W89005  33.464  26.955   2.308
20588W        W89006  33.060   4.884  12.472
20589W        W89007  40.993  37.447   0.820
20590W        W89008  13.735  13.172   2.201
20591W        W89009   3.871   7.273  11.605
20592W        W89010   4.215  30.113   3.680
20593W        W89011  39.058   4.290   0.246
20594W        W89012   2.952  39.930  14.438
20595W        W89013   9.701  19.546   1.429
20596W        W89014   9.838  29.472   0.251
20597W        W89015  34.938  19.586  12.434
20598W        W89016  18.703  31.615  14.515
20599W        W89017  13.202  12.814  13.428
20600W        W89018   1.314  11.761   0.844
20601W        W89019   0.902  16.704  11.383
20602W        W89020  25.028  25.122  11.946
20603W        W89021  41.985  41.496   0.326
20604W        W89022  16.279  27.167   0.823
20605W        W89023  14.190  37.920  10.594
20606W        W89024  16.764   0.485  14.943
20607W        W89025  30.999  21.053  14.983
20608W        W89026  26.559   6.882  13.371
20609W        W89027  27.181  11.696   0.273
20610W        W89028   0.836  12.250  14.370
20611W        W89029  18.770   1.448  12.854
20612W        W89030  11.747  17.266   2.249
20613W        W89031   4.944  44.761  10.896
20614W        W89032  23.117  12.669   3.790
20615W        W89033   7.686  44.755  13.411
20616W        W89034  35.067  22.168  13.457
20617W        W89035  44.352  28.627  14.470
20618W        W89036  43.945   4.700  14.819
20619W        W89037  29.563  11.677  10.568
20620W        W89038  33.608   1.469   3.841
20621W        W89039   1.882   6.319   3.831
20622W        W89040  38.903  15.300   2.793
20623W        W89041  39.487   3.946  12.427
20624W        W89042  35.465  38.370   0.326
20625W        W89043  26.010  20.265  11.009
20626W        W89044  42.949  42.338  10.556
20627W        W89045  31.014  43.790   0.929
20628W        W89046  31.964   4.297   1.373
20629W        W89047  16.283  34.066  10.453
20630W        W89048  13.224   8.783   1.413
20631W        W89049  24.539   8.176   0.419
20632W        W89050  27.025  13.787   4.722
20633W        W89051   3.789  43.277   4.630
20634W        W89052   8.704   0.419   2.196
20635W        W89053  37.499  18.170  13.038
20636W        W89054  33.909  34.071  14.976
20637W        W89055  29.154  10.272  11.114
20638W        W89056  36.901  38.422  14.842
20639W        W89057  10.875  41.950   4.725
20640W        W89058  38.975  39.849  11.913
20641W        W89059  41.889   7.783  11.108
20642W        W89060  13.298   6.769   4.229
20643W        W89061  42.832  21.755  11.438
20644W        W89062  23.563  13.285  13.028
20645W        W89063  23.589  16.657  11.917
20646W        W89064  35.515  38.547  12.006
20647W        W89065  30.559   0.429  11.451
20648W        W89066  10.212  17.739  12.432
20649W        W89067  13.204  29.072   0.938
20650W        W89068  27.505   7.375  13.318
20651W        W89069  24.674  14.817   3.833
20652W        W89070   2.318   1.863  10.101
20653W        W89071   6.184  43.782  13.803
20654W        W89072   2.863  35.362   2.851
20655W        W89073  29.064  11.822   1.715
20656W        W89074   7.833  26.162   1.820
20657W        W89075  17.759  15.182   4.333
20658W        W89076  12.708  21.205   3.698
20659W        W89077  26.539  29.003  11.416
20660W        W89078  36.875  18.235  14.863
20661W        W89079  37.846  21.675  11.985
20662W        W89080  30.438  44.817   1.337
20663W        W89081   7.415  36.358   4.333
20664W        W89082  26.999  13.128   0.887
20665W        W89083  21.740  30.485   3.276
20666W        W89084  16.168  41.003   3.374
20667W        W89085   4.364  29.514  14.869
20668W        W89086   7.378  34.433  14.975
20669W        W89087  27.595  26.028  13.548
20670W        W89088   0.253   0.867  12.025
20671W        W89089  17.217  34.462   0.820
20672W        W89090  29.527  27.684  12.008
20673W        W89091  27.057  34.097   1.699
20674W        W89092  20.199  29.585  12.065
20675W        W89093  34.398  28.178  12.377
20676W        W89094   2.933  15.747   1.334
20677W        W89095  32.400  44.296  12.891
20678W        W89096  16.809  17.119  12.016
20679W        W89097  43.834   3.399  12.045
20680W        W89098  22.653  15.755  10.516
20681W        W89099  19.138   1.243   2.864
20682W        W89100  23.989  32.110  12.519
20683W        W89101  28.936  21.712   1.213
20684W        W89102  41.525   9.780  12.077
20685W        W89103  37.983  39.520   3.340
20686W        W89104  30.118   2.941  11.034
20687W        W89105  39.980  15.618  10.599
20688W        W89106  30.425   9.886   2.693
20689W        W89107  13.166  33.481  12.346
20690W        W89108  36.864  31.036  11.061
20691W        W89109  31.001  25.644  12.358
20692W        W89110  41.929   7.711   1.263
20693W        W89111  28.578   1.744   0.780
20694W        W89112  33.528   3.841  14.761
20695W        W89113  37.003   7.319   3.672
20696W        W89114  40.479  34.385  14.943
20697W        W89115  18.736  30.418   2.269
20698W        W89116  36.347  19.139   3.221
20699W        W89117  19.160  18.774   4.802
20700W        W89118  27.675  43.448   2.751
20701W        W89119  38.992  42.809   2.877
20702W        W89120  25.979  36.356   4.342
20703W        W89121  20.618  33.922  11.511
20704W        W89122  33.900  23.702  13.527
20705W        W89123  32.579  43.388   2.223
20706W        W89124  20.191  42.397   3.273
20707W        W89125  10.737  12.807  11.965
20708W        W89126   9.716  15.582   2.278
20709W        W89127  19.620  28.554   2.758
20710W        W89128  11.762  30.563   3.291
20711W        W89129  35.368  20.105   0.757
20712W        W89130   2.347   1.299   1.370
20713W        W89131  32.960   3.415   1.738
20714W        W89132   5.263   9.693  10.465
20715W        W89133  39.435  27.107   4.320
20716W        W89134  30.468  10.809  13.935
20717W        W89135  35.058  13.349  10.541
20718W        W89136  26.557  35.573   1.258
20719W        W89137  36.889  10.762  10.621
20720W        W89138  27.950   6.270  13.914
20721W        W89139  14.749   4.743  14.453
20722W        W89140  12.827  44.805   2.901
20723W        W89141  30.472  29.070   1.743
20724W        W89142  42.298  31.580   1.400
20725W        W89143   9.285  44.269   0.853
20726W        W89144  11.149  33.478  14.490
20727W        W89145   6.859   5.295   1.782
20728W        W89146  23.702  36.020   1.694
20729W        W89147  11.790   4.724  10.479
20730W        W89148  33.943  33.522  10.061
20731W        W89149   8.882   1.736  14.856
20732W        W89150  13.344  26.673  14.384
20733W        W89151  15.755  31.149   4.143
20734W        W89152  12.839  32.126  14.373
20735W        W89153  43.851  14.815  14.331
20736W        W89154  15.632  35.454  13.439
20737W        W89155   5.424  20.540  11.925
20738W        W89156  34.111  42.827  14.846
20739W        W89157  23.174  33.130   0.285
20740W        W89158  39.417   5.696  12.022
20741W        W89159  27.964  23.717  13.384
20742W        W89160  43.375  13.166   1.873
20743W        W89161  20.629  29.925   0.373
20744W        W89162   0.933   2.776  12.001
20745W        W89163  12.198  18.768   4.739
20746W        W89164  11.728   9.159   4.338
20747W        W89165  20.598  20.608   0.426
20748W        W89166  44.474   6.762   3.674
20749W        W89167  24.629  19.178  12.515
20750W        W89168  25.528  39.343   0.448
20751W        W89169  41.321  29.030   1.269
20752W        W89170  44.871  37.835   4.183
20753W        W89171  34.949  24.152   2.702
20754W        W89172  34.586  32.541   4.627
20755W        W89173  20.146  14.271  14.431
20756W        W89174  10.259  10.239  12.844
20757W        W89175  31.930   8.254  12.445
20758W        W89176  31.610  30.413   1.839
20759W        W89177  30.582   8.310  13.435
20760W        W89178   1.332   4.332  14.289
20761W        W89179  11.245  33.894  12.024
20762W        W89180  11.772   7.897   2.188
20763W        W89181  44.421  44.273   3.238
20764W        W89182  38.331  31.463   4.671
20765W        W89183  32.098  22.106  11.600
20766W        W89184  37.854  29.640   3.811
20767W        W89185  38.416  22.142  12.439
20768W        W89186  13.828  12.323  10.516
20769W        W89187  22.103  14.704  13.971
20770W        W89188  37.561   7.858  12.904
20771W        W89189  36.533  36.071  14.770
20772W        W89190   6.381  43.997  11.948
20773W        W89191  12.191  42.920  13.362
20774W        W89192   7.785  34.463  13.469
20775W        W89193  35.003  38.558   4.333
20776W        W89194  22.172  25.053  14.364
20777W        W89195  20.153  16.312   3.689
20778W        W89196   7.392  42.016  13.930
20779W        W89197  20.191  12.148   0.246
20780W        W89198   7.211  36.472  14.466
20781W        W89199   6.725   6.200   2.814
20782W        W89200   1.362   1.917  10.489
20783W        W89201   9.241  10.188  13.945
20784W        W89202  41.957  27.680   4.230
20785W        W89203  13.802  18.620  14.903
20786W        W89204  22.543  10.693   4.139
20787W        W89205  24.127  15.788  10.151
20788W        W89206  15.657   0.433  10.583
20789W        W89207   5.801  25.685   1.860
20790W        W89208  38.922  40.817   2.785
20791W        W89209  24.163  40.865   4.648
20792W        W89210  13.263   5.204  12.086
20793W        W89211  38.349   0.981   1.727
20794W        W89212  23.184  38.994  13.372
20795W        W89213  17.088  28.649   4.754
20796W        W89214   1.776   5.332   1.771
20797W        W89215  17.209  40.838  14.011
20798W        W89216   3.920  36.948   3.157
20799W        W89217  37.055  12.803  13.014
20800W        W89218  16.644  39.397  12.411
20801W        W89219   4.779  39.482  13.001
20802W        W89220  43.808   7.205  13.316
20803W        W89221  23.604  23.178   2.691
20804W        W89222  10.772  26.601  12.880
20805W        W89223  28.602  18.072  13.474
20806W        W89224  28.480  19.100  14.447
20807W        W89225  26.669   0.363   3.732
20808W        W89226  39.883  10.644  11.893
20809W        W89227  12.715   6.242  13.873
20810W        W89228  33.892   7.290  14.895
20811W        W89229  10.838  26.566  11.907
20812W        W89230  25.476  43.345  10.533
20813W        W89231  33.471  40.422  14.281
20814W        W89232   3.302  12.631   1.871
20815W        W89233   1.816  41.880   0.431
20816W        W89234   5.387  20.744  10.611
20817W        W89235  36.386  11.821   4.247
20818W        W89236  37.519  18.741  10.571
20819W        W89237   9.289  43.352  12.522
20820W        W89238  28.125  32.098   0.427
20821W        W89239  38.873  43.822   3.789
20822W        W89240  25.137   9.718  13.009
20823W        W89241  31.117  39.399   0.343
20824W        W89242  21.592  24.579   4.721
20825W        W89243   6.392  41.345  12.894
20826W        W89244  10.187  29.608   3.860
20827W        W89245  16.695  25.980   1.369
20828W        W89246  17.069  21.577   4.674
20829W        W89247  40.960  15.190   4.290
20830W        W89248  29.502  26.597   3.760
20831W        W89249  10.149  30.070  11.555
20832W        W89250  39.542  38.457  12.874
20833W        W89251   5.308  36.553   2.755
20834W        W89252  17.083  15.788   4.178
20835W        W89253  18.117  18.219   1.781
20836W        W89254  37.509   8.697   2.689
20837W        W89255  28.589  25.165  11.403
20838W        W89256   2.429  12.319  12.017
20839W        W89257  25.043  22.180  13.359
20840W        W89258  35.538  21.642  10.899
20841W        W89259  44.369  28.678  12.008
20842W        W89260  23.607   0.454   2.242
20843W        W89261  23.664  10.336  10.615
20844W        W89262  10.252  12.727   3.322
20845W        W89263  27.561   0.321   0.753
20846W        W89264  25.971  26.118  12.069
20847W        W89265  22.074  14.734   1.783
20848W        W89266  39.559  22.640   0.256
20849W        W89267   6.396  23.571  11.047
20850W        W89268  44.354   7.320   4.329
20851W        W89269  21.708  11.151   4.822
20852W        W89270  24.618  17.563  10.966
20853W        W89271   9.792   2.466   0.479
20854W        W89272  39.838  41.805  13.803
20855W        W89273  43.800  25.125   1.905
20856W        W89274  31.935  40.352   3.365
20857W        W89275  22.246  41.369  11.511
20858W        W89276  17.167  41.957   9.946
20859W        W89277   1.317   7.414  12.415
20860W        W89278   2.403  29.113  14.489
20861W        W89279  36.934   2.471   3.847
20862W        W89280   3.891  17.583  13.856
20863W        W89281  22.067  17.727  14.923
20864W        W89282  41.791  19.230   1.785
20865W        W89283  16.770  38.976   3.723
20866W        W89284  26.598  17.239   5.099
20867W        W89285  12.811  15.281   0.440
20868W        W89286  11.255  22.134  14.424
20869W        W89287   7.761   3.365   2.830
20870W        W89288   5.411  19.284  13.007
20871W        W89289  31.492  44.780  10.584
20872W        W89290   4.937  44.888   3.232
20873W        W89291   1.301  38.916  12.047
20874W        W89292  33.583  12.249   2.268
20875W        W89293  29.108  13.329   2.747
20876W        W89294  11.142  26.593  13.314
20877W        W89295  11.849  31.017   2.723
20878W        W89296  18.603  20.628  13.378
20879W        W89297  20.763  42.844  14.866
20880W        W89298  29.040  13.812  14.514
20881W        W89299  34.575   5.857   4.634
20882W        W89300  13.749  42.894   3.275
20883W        W89301  33.104   1.849  14.394
20884W        W89302  22.139  10.822   2.302
20885W        W89303  39.869  36.909   1.406
20886W        W89304  41.344   2.472  13.484
20887W        W89305  24.535  28.450  11.863
20888W        W89306  28.533  32.562  10.598
20889W        W89307  17.717   0.258   0.349
20890W        W89308  28.017  20.605   3.645
20891W        W89309  25.079   6.364   1.345
20892W        W89310  41.818  36.946   1.899
20893W        W89311  21.175  37.549  13.945
20894W        W89312  39.527  20.066  13.988
20895W        W89313   5.931  17.231  13.525
20896W        W89314  10.670  16.312   4.677
20897W        W89315   4.430  10.791   4.145
20898W        W89316  42.855  41.303   2.190
20899W        W89317  12.801   4.338  11.119
20900W        W89318  32.898   9.336   0.789
20901W        W89319  17.184   9.303  12.992
20902W        W89320  29.060   2.403   2.419
20903W        W89321  38.925   3.864  14.902
20904W        W89322  23.191  25.964  10.592
20905W        W89323  17.690  42.508   4.760
20906W        W89324  41.007  37.582  10.418
20907W        W89325  14.284  29.492   1.768
20908W        W89326  30.514   2.250  14.017
20909W        W89327   3.734  19.730  14.337
20910W        W89328  25.060  29.018  13.805
20911W        W89329  42.993  16.700   1.743
20912W        W89330  14.768  22.518  13.957
20913W        W89331  40.001  25.704   1.756
20914W        W89332  44.848  13.200  13.477
20915W        W89333  44.825   8.760   1.743
20916W        W89334  43.351  20.251   0.920
20917W        W89335  16.737  22.102  11.589
20918W        W89336   0.965  17.246  13.314
20919W        W89337  11.735  11.859   2.304
20920W        W89338   5.223  24.633   1.751
20921W        W89339  24.131  19.672   3.716
20922W        W89340  40.965  25.011  11.533
20923W        W89341  32.460  23.722   1.215
20924W        W89342  17.214  37.484   0.254
20925W        W89343  36.088   9.354   4.780
20926W        W89344  20.064  30.158   1.235
20927W        W89345  32.061  19.604   1.349
20928W        W89346  13.288  14.224   1.773
20929W        W89347  35.990  29.002   4.606
20930W        W89348  36.467  22.565  14.469
20931W        W89349  40.876  32.090   3.244
20932W        W89350   9.300  20.754   0.411
20933W        W89351  25.971  23.083  11.408
20934W        W89352  18.760  20.047  11.036
20935W        W89353  21.049  19.040  11.572
20936W        W89354   0.903  26.083  14.818
20937W        W89355   0.951  44.894   1.793
20938W        W89356  15.710  21.092   0.413
20939W        W89357  24.005   1.452   2.280
20940W        W89358  25.167  28.644   2.686
20941W        W89359  23.205  10.229  13.811
20942W        W89360  38.906   0.848   3.236
20943W        W89361  41.001  41.789   3.719
20944W        W89362   8.198  30.933  12.430
20945W        W89363  20.109  43.780  10.618
20946W        W89364   8.261  30.961   0.438
20947W        W89365  33.532  19.210   2.217
20948W        W89366  31.438  32.969  11.389
20949W        W89367  16.199  32.885  13.988
20950W        W89368  30.996  14.291  13.992
20951W        W89369  22.999   5.867   2.283
20952W        W89370  17.173   6.875   4.775
20953W        W89371  33.005  16.795  12.988
20954W        W89372  14.277  36.490  13.036
20955W        W89373  11.709   9.183   1.223
20956W        W89374  20.615  17.709  10.949
20957W        W89375  39.878  40.039  11.414
20958W        W89376  42.388  14.200   4.228
20959W        W89377   0.980   9.149   4.709
20960W        W89378  23.507  30.994   2.855
20961W        W89379  18.715  33.091   2.405
20962W        W89380  23.637   5.895  12.346
20963W        W89381  20.567   7.290   4.191
20964W        W89382  18.106  10.723  12.418
20965W        W89383  28.542  12.282   3.845
20966W        W89384  40.413  44.348   0.301
20967W        W89385   3.905   0.960   4.721
20968W        W89386  43.897  20.122   4.181
20969W        W89387   9.652  14.704  10.981
20970W        W89388  19.067  15.286   4.736
20971W        W89389  16.201  19.578   1.907
20972W        W89390  17.293  38.465   3.679
20973W        W89391  16.768  18.655  12.085
20974W        W89392  28.641  11.319   0.808
20975W        W89393  35.437   0.899  11.569
20976W        W89394  19.593  14.168  11.910
20977W        W89395  31.950  25.701   4.223
20978W        W89396  35.450   3.252  14.474
20979W        W89397  32.902  16.723  14.795
20980W        W89398  13.220   7.839   1.277
20981W        W89399  42.859  21.684   3.749
20982W        W89400  22.555  19.593  14.373
20983W        W89401  23.625   8.846  14.418
20984W        W89402   1.305  16.288   2.373
20985W        W89403   9.645  28.609   0.345
20986W        W89404  11.366  10.382   1.329
20987W        W89405  44.921  44.787   0.857
20988W        W89406   0.377  20.163   9.946
20989W        W89407  12.257  22.552   1.307
20990W        W89408   6.701   4.250  11.599
20991W        W89409  42.866   1.248  12.483
20992W        W89410  16.698  22.042  14.294
20993W        W89411  29.172  23.236  12.478
20994W        W89412  34.586   1.468   1.905
20995W        W89413  40.447   6.218  10.412
20996W        W89414   4.314  29.990  11.993
20997W        W89415  23.626   1.836   1.882
20998W        W89416  26.699  17.768  13.531
20999W        W89417  11.160  30.116   2.727
21000W        W89418   3.404  32.561  11.568
21001W        W89419   1.482  39.034  14.973
21002W        W89420   6.310  23.103   4.157
21003W        W89421  27.631   8.364  14.892
21004W        W89422  23.127   3.383   3.684
21005W        W89423  16.792  28.610  13.381
21006W        W89424  17.169   2.399   2.663
21007W        W89425  35.510  20.144   4.222
21008W        W89426  44.338  44.436  10.992
21009W        W89427   6.692  33.993   4.118
21010W        W89428  22.086  26.613   3.656
21011W        W89429   4.267  29.161  12.342
21012W        W89430  39.481  10.764   3.746
21013W        W89431   8.730  33.416  11.515
21014W        W89432  34.977  26.696   5.197
21015W        W89433   9.161  24.658  12.854
21016W        W89434  31.519  31.625   0.897
21017W        W89435  16.780   1.371   2.898
21018W        W89436  34.989  44.777   2.822
21019W        W89437  33.446  32.058   3.753
21020W        W89438  17.715  14.691   1.719
21021W        W89439  12.656   4.814   0.761
21022W        W89440  39.460   3.309   5.123
21023W        W89441  29.605  13.240   0.449
21024W        W89442  27.633  36.525  14.433
21025W        W89443  34.518  42.972  11.479
21026W        W89444  26.134  14.801   1.396
21027W        W89445  28.159  38.963   4.191
21028W        W89446  36.962   7.289   1.831
21029W        W89447  21.187  13.173   0.438
21030W        W89448   2.228   7.755  11.008
21031W        W89449  22.149  27.617  13.439
21032W        W89450  37.390  44.482  14.345
21033W        W89451  31.043  29.614  10.441
21034W        W89452   7.291  33.609  12.866
21035W        W89453   4.360  22.637  10.890
21036W        W89454   4.759  11.224   2.412
21037W        W89455  44.462   9.746  11.391
21038W        W89456   8.816  24.049  14.397
21039W        W89457  11.324  24.658  13.920
21040W        W89458  28.961  12.291   4.303
21041W        W89459  21.646  14.789  14.023
21042W        W89460  32.453  18.063   0.253
21043W        W89461  13.725  44.827  14.903
21044W        W89462  18.646  17.735   3.792
21045W        W89463  39.047  15.810   3.240
21046W        W89464  21.107   7.360  11.483
21047W        W89465  32.993  21.161   4.656
21048W        W89466  38.420  33.588   2.296
21049W        W89467  38.002  38.522   3.741
21050W        W89468  11.213  18.712  14.420
21051W        W89469   0.298  38.018   1.244
21052W        W89470  26.085   2.281  14.857
21053W        W89471   2.760  33.444  13.966
21054W        W89472  16.268  39.499   2.314
21055W        W89473  36.861  28.020  10.964
21056W        W89474  20.187  37.970  11.926
21057W        W89475  27.649  29.606  12.012
21058W        W89476   8.277  36.434  14.423
21059W        W89477  38.493  20.522  14.339
21060W        W89478  26.080  38.427   0.845
21061W        W89479  31.066  24.209  14.309
21062W        W89480   0.772  29.568   5.237
21063W        W89481  27.603  17.087  14.405
21064W        W89482  10.794  16.213   4.320
21065W        W89483   6.387  28.101   3.733
21066W        W89484  40.321  19.085   0.842
21067W        W89485  35.435  14.260  12.930
21068W        W89486  28.602  19.747   2.901
21069W        W89487  29.148  18.570  14.275
21070W        W89488   6.796  16.592   3.335
21071W        W89489   0.269  25.088   3.851
21072W        W89490  18.120  16.712  12.400
21073W        W89491   0.366  44.298   2.723
21074W        W89492  14.266  44.914   4.266
21075W        W89493   1.481  40.463  11.375
21076W        W89494  10.875  38.968  14.952
21077W        W89495   2.908  29.638   4.716
21078W        W89496  27.029   2.898   4.214
21079W        W89497  43.282  28.630  11.579
21080W        W89498  24.090  21.561   2.251
21081W        W89499  44.282  18.616   1.235
21082W        W89500   7.415  16.279  12.851
21083W        W89501  30.915  12.164   0.870
21084W        W89502  24.049  39.889   3.690
21085W        W89503  35.950   9.780   2.870
21086W        W89504  14.730   9.650   1.745
21087W        W89505  36.380  20.699  11.595
21088W        W89506  30.990  33.614  11.401
21089W        W89507  10.744   7.199  14.334
21090W        W89508  21.038   6.736   0.292
21091W        W89509   7.875  32.490   3.255
21092W        W89510  22.136   5.369   4.698
21093W        W89511  40.984  15.166   3.326
21094W        W89512  23.118  43.885   4.313
21095W        W89513  30.458  22.173  12.363
21096W        W89514  41.887  34.961   3.299
21097W        W89515  39.442  42.337   2.207
21098W        W89516  31.048  41.402  11.593
21099W        W89517  24.110  43.895  13.002
21100W        W89518  34.590   1.876  11.995
21101W        W89519  37.510  31.944   4.212
21102W        W89520   8.308   1.268  10.558
21103W        W89521  12.126   4.372  13.435
21104W        W89522   5.754  27.986   2.859
21105W        W89523   1.334  42.470  12.560
21106W        W89524  27.057   1.457  10.474
21107W        W89525  14.762  37.495   4.321
21108W        W89526  30.543   8.866   0.796
21109W        W89527  25.708  26.703  13.891
21110W        W89528  16.600   4.924  10.968
21111W        W89529  14.597   2.245  11.979
21112W        W89530   2.228  16.155  14.873
21113W        W89531  31.566  29.669  12.518
21114W        W89532  35.894  26.462  10.473
21115W        W89533  35.886  31.437   1.244
21116W        W89534  19.249  11.820  12.516
21117W        W89535  40.416  36.848   4.206
21118W        W89536  22.601   6.324   0.815
21119W        W89537  35.942  22.201   3.803
21120W        W89538   7.356   7.783  11.002
21121W        W89539  38.528  16.774   2.679
21122W        W89540   5.727  12.218   2.352
21123W        W89541  37.489  43.370   1.816
21124W        W89542  12.316  15.792   4.623
21125W        W89543  19.752  33.890  10.574
21126W        W89544   0.375   0.376   2.795
21127W        W89545  26.144  22.554  14.447
21128W        W89546  19.731  41.854  12.516
21129W        W89547  11.664  28.153   3.196
21130W        W89548  16.113  10.849   3.328
21131W        W89549  26.116  33.390   2.289
21132W        W89550   8.870  33.428   3.171
21133W        W89551   3.956   4.290   4.221
21134W        W89552   1.948  41.404   4.239
21135W        W89553   0.908  17.172   0.354
21136W        W89554   3.388   9.829  11.447
21137W        W89555  18.725  33.390   0.901
21138W        W89556  40.828  41.296   0.856
21139W        W89557   0.303  38.989   4.622
21140W        W89558  37.835  25.558   4.757
21141W        W89559  44.892   9.174  10.474
21142W        W89560  17.696   5.697  10.992
21143W        W89561  41.862  39.880   0.842
21144W        W89562  12.855  30.503   1.706
21145W        W89563  23.544  25.534  13.063
21146W        W89564   5.245  31.999   4.768
21147W        W89565  43.384  35.497  14.985
21148W        W89566  27.976  35.108   4.774
21149W        W89567   5.768  14.283  12.839
21150W        W89568  17.589  42.991   1.771
21151W        W89569  21.732  26.686   1.855
21152W        W89570  12.718   2.472  13.931
21153W        W89571  16.211  15.247  10.943
21154W        W89572  20.735  27.973   0.925
21155W        W89573   4.811  20.705   4.270
21156W        W89574  30.917  14.320   2.364
21157W        W89575  39.065  11.243   3.753
21158W        W89576   6.290  43.336   0.360
21159W        W89577  43.879  35.500   1.911
21160W        W89578  27.610   9.304   4.167
21161W        W89579  31.459  29.941  12.985
21162W        W89580  23.577   4.713  12.369
21163W        W89581   4.933  13.335  10.543
21164W        W89582  17.726   8.304   1.396
21165W        W89583  21.054  15.728  12.823
21166W        W89584   0.368  40.846   0.868
21167W        W89585   9.870  10.361   4.793
21168W        W89586  31.049  10.326   0.289
21169W        W89587  14.130  27.946  13.908
21170W        W89588  31.530  12.241  11.113
21171W        W89589  35.997  16.201   0.946
21172W        W89590  27.459   2.376  14.481
21173W        W89591  13.843  30.597   1.436
21174W        W89592   5.928  25.064   2.332
21175W        W89593  29.980  36.930   2.326
21176W        W89594  41.359  37.388  13.924
21177W        W89595  25.581  40.433   2.801
21178W        W89596   2.755  25.165  11.119
21179W        W89597   1.238  12.358  11.547
21180W        W89598  17.624  11.275  11.543
21181W        W89599  25.681  16.095   4.156
21182W        W89600   7.275  17.143  12.539
21183W        W89601  16.211  24.001  11.389
21184W        W89602   8.342   7.214   3.861
21185W        W89603   3.222  39.064  14.397
21186W        W89604   8.371  38.364   2.840
21187W        W89605  20.122  41.338   2.880
21188W        W89606  35.572   9.663  10.413
21189W        W89607  40.935  41.017   0.481
21190W        W89608   8.272  38.380   3.643
21191W        W89609  23.560  25.633   0.789
21192W        W89610  37.474  13.700  10.988
21193W        W89611   0.780   5.746   4.828
21194W        W89612  41.987  28.606   4.231
21195W        W89613  31.980  39.957  10.024
21196W        W89614  25.134  13.330  14.960
21197W        W89615  43.918   2.311   4.281
21198W        W89616   4.873   4.944  10.582
21199W        W89617  20.229  33.101  14.023
21200W        W89618  13.109  40.938  14.359
21201W        W89619   5.720   5.411   0.361
21202W        W89620  34.086   1.427  12.903
21203W        W89621   6.216  37.439   2.809
21204W        W89622  24.119  36.443   1.369
21205W        W89623  12.842  37.079   3.202
21206W        W89624  37.454  39.380   0.733
21207W        W89625  35.988  37.496   4.834
21208W        W89626   3.880  21.140   1.384
21209W        W89627   3.357  43.478  12.837
21210W        W89628  16.128  34.496   1.283
21211W        W89629  35.391  31.960  14.361
21212W        W89630  37.557  42.920  13.039
21213W        W89631   8.662   2.311  10.642
21214W        W89632   4.277  17.193  10.590
21215W        W89633  14.187  24.563   0.449
21216W        W89634  21.596  11.732  11.447
21217W        W89635  23.549  31.480  14.960
21218W        W89636  26.516  25.132  11.103
21219W        W89637  23.124  31.529   0.829
21220W        W89638  44.487  10.750   2.750
21221W        W89639  36.911  24.989   1.899
21222W        W89640  35.891   3.321  13.401
21223W        W89641   2.456  25.143  10.586
21224W        W89642  10.186   3.796   4.287
21225W        W89643   4.313  30.072  10.990
21226W        W89644   4.278   9.276   4.631
21227W        W89645   8.776  14.332  10.626
21228W        W89646  29.162  12.237  14.781
21229W        W89647  25.014  20.629   1.794
21230W        W89648  42.414  10.255   0.437
21231W        W89649   3.878  43.409  13.373
21232W        W89650  13.206  26.953   4.782
21233W        W89651  30.540  38.543  10.541
21234W        W89652  39.846  22.572   2.334
21235W        W89653  21.101   1.807   4.821
21236W        W89654  33.498  12.768  11.921
21237W        W89655  40.024  21.199  14.902
21238W        W89656   2.405  24.700   2.765
21239W        W89657  30.158  37.909  13.398
21240W        W89658  37.413  25.134  11.496
21241W        W89659  37.524  26.503   1.695
21242W        W89660  27.644  42.398  11.469
21243W        W89661  24.101  36.882   4.217
21244W        W89662  15.740  21.526   1.294
21245W        W89663  19.113  17.304   4.270
21246W        W89664   3.437  44.396   0.334
21247W        W89665  38.509  30.413   2.746
21248W        W89666  44.841  32.063  10.600
21249W        W89667  10.739  30.016   2.356
21250W        W89668  24.224   3.740   3.296
21251W        W89669  30.024   2.288   1.256
21252W        W89670   1.843  27.163   4.291
21253W        W89671   0.939  34.089   1.380
21254W        W89672  20.688  19.235  10.597
21255W        W89673  11.129  14.728   3.691
21256W        W89674  23.559   6.682   4.804
21257W        W89675  36.069  43.852  10.480
21258W        W89676  16.086  44.936  13.532
21259W        W89677  15.618   0.365   2.372
21260W        W89678  40.483  32.601   2.352
21261W        W89679  15.704  32.393   2.769
21262W        W89680  28.576  39.553   4.764
21263W        W89681  19.748  14.219   2.182
21264W        W89682  31.149  11.760  12.359
21265W        W89683  28.591  43.929  12.401
21266W        W89684  35.409   5.863   4.216
21267W        W89685   6.910  43.348   3.305
21268W        W89686  14.301  16.636  13.369
21269W        W89687  17.104  42.360   1.858
21270W        W89688  28.096  17.146   3.740
21271W        W89689  25.193  25.513   2.221
21272W        W89690  18.583  14.234   3.669
21273W        W89691  40.372  25.604   1.347
21274W        W89692  20.274  21.742  12.839
21275W        W89693  15.621  28.465  11.943
21276W        W89694  39.462  16.175  12.574
21277W        W89695  36.512  17.785   0.337
21278W        W89696   5.366   8.364   4.802
21279W        W89697  14.723  17.771   3.310
21280W        W89698  10.692  16.632  14.467
21281W        W89699   6.778  33.559   2.239
21282W        W89700  35.406  44.495   2.664
21283W        W89701   5.725  11.857   1.809
21284W        W89702  43.441  33.916  12.569
21285W        W89703  44.897  34.599   2.414
21286W        W89704  17.189  36.551  12.925
21287W        W89705  26.182  21.142  14.014
21288W        W89706   4.428   5.872  14.829
21289W        W89707   3.220  41.987  13.859
21290W        W89708  31.636   6.423   2.271
21291W        W89709  41.030   3.252  12.907
21292W        W89710  26.208   1.883   3.323
21293W        W89711  34.531  40.315   3.714
21294W        W89712  25.209  35.452  13.374
21295W        W89713  39.329   9.693  14.464
21296W        W89714  36.469   8.173  13.483
21297W        W89715  44.804  36.495  11.529
21298W        W89716  36.462  19.678   4.113
21299W        W89717  20.051   9.323  10.606
21300W        W89718  44.954  26.511   3.300
21301W        W89719   4.433  13.166  14.516
21302W        W89720  44.858   7.266  11.463
21303W        W89721  38.928  28.555   4.802
21304W        W89722  41.033   9.259  14.002
21305W        W89723  42.513   8.236  10.441
21306W        W89724  26.569  26.107  14.428
21307W        W89725  20.159  32.532  13.902
21308W        W89726   4.806   8.341   2.293
21309W        W89727  28.044  36.537   2.371
21310W        W89728   3.392  15.711  13.988
21311W        W89729  34.929  21.095   0.382
21312W        W89730   8.718  27.588  12.086
21313W        W89731  10.155  25.669   5.119
21314W        W89732  41.346  13.699  12.019
21315W        W89733  41.382  34.601  12.046
21316W        W89734  17.599  24.210  12.945
21317W        W89735  29.968  11.358   4.336
21318W        W89736   0.897  23.137   5.806
21319W        W89737  12.808  20.035   4.604
21320W        W89738  31.898  37.945   0.942
21321W        W89739  13.194  13.700   4.767
21322W        W89740  44.761  44.761  11.057
21323W        W89741  44.871  19.672  12.991
21324W        W89742   5.316   9.852   1.316
21325W        W89743  38.505   4.703  11.040
21326W        W89744  31.550  30.479   1.254
21327W        W89745   5.254  39.064  11.381
21328W        W89746  42.378  40.942   9.522
21329W        W89747  39.315  20.216  13.049
21330W        W89748  34.417  32.129   1.743
21331W        W89749  28.093  28.605  14.860
21332W        W89750  10.733   7.255   0.750
21333W        W89751  25.095   0.948   2.290
21334W        W89752  11.651   0.950   1.842
21335W        W89753  18.267  15.091  13.469
21336W        W89754  30.599  29.481   0.736
21337W        W89755  16.220  17.703   1.841
21338W        W89756  22.555  11.671   5.242
21339W        W89757  15.674   3.273   5.137
21340W        W89758  29.615  34.389  14.322
21341W        W89759  23.517   3.219   3.371
21342W        W89760   4.360  41.432   2.729
21343W        W89761   8.297  31.558  12.956
21344W        W89762  17.557   9.285   3.166
21345W        W89763  26.564   0.473   2.860
21346W        W89764  42.791  23.660  12.386
21347W        W89765   3.223  39.901  10.004
21348W        W89766  28.614  42.961   3.235
21349W        W89767  24.711  40.547   4.183
21350W        W89768  22.657  37.864  13.012
21351W        W89769  10.137  34.097  14.347
21352W        W89770   9.332  30.931   0.918
21353W        W89771  43.829  34.974   1.769
21354W        W89772  37.975  22.215  10.892
21355W        W89773  31.609   6.879   3.648
21356W        W89774  16.719  15.730   4.801
21357W        W89775  40.035  25.639   1.409
21358W        W89776  34.872  17.267   3.166
21359W        W89777  13.775  11.758   2.211
21360W        W89778  22.139   2.322   4.221
21361W        W89779  33.075   2.466   4.151
21362W        W89780  43.955  23.218   3.788
21363W        W89781  28.147  31.618  11.900
21364W        W89782  16.153  19.228  12.402
21365W        W89783  43.317  19.048  12.855
21366W        W89784  42.933  10.748  14.778
21367W        W89785   7.313  32.496   2.714
21368W        W89786  18.597   5.870  11.899
21369W        W89787  36.076  27.525  12.407
21370W        W89788   0.816  34.433  13.904
21371W        W89789  32.934   7.300  13.032
21372W        W89790  17.105   0.788   3.158
21373W        W89791  37.527  41.508   2.873
21374W        W89792   7.804  12.721   2.390
21375W        W89793   6.193  44.374   4.817
21376W        W89794  34.542  33.091  13.519
21377W        W89795  19.721   7.334  11.465
21378W        W89796  40.431  44.968  13.507
21379W        W89797  23.678  17.765   1.222
21380W        W89798  43.312  13.178   4.323
21381W        W89799   8.297  16.160   3.145
21382W        W89800  36.403  32.588   3.307
21383W        W89801   5.747  14.098  12.080
21384W        W89802  22.636  21.074  13.909
21385W        W89803  31.527  19.703   1.850
21386W        W89804  27.536  38.342   4.209
21387W        W89805  44.855  35.517  10.558
21388W        W89806  12.337   0.792  13.308
21389W        W89807  27.026  37.470   2.362
21390W        W89808  37.048  31.454  13.908
21391W        W89809  13.341   8.757   2.758
21392W        W89810  34.450  33.990  14.302
21393W        W89811  33.472  15.776  11.009
21394W        W89812  37.401  20.579  14.463
21395W        W89813  29.952   0.829   1.225
21396W        W89814  36.079  42.352  10.461
21397W        W89815  25.591   1.918  12.482
21398W        W89816  11.260  23.985  11.876
21399W        W89817   7.313  39.808   1.826
21400W        W89818   4.855  38.501  13.980
21401W        W89819  11.309  14.102   1.813
21402W        W89820  35.567  35.490  12.886
21403W        W89821   7.270  33.509   3.784
21404W        W89822  29.477  42.918   4.731
21405W        W89823  36.593  11.244  14.283
21406W        W89824  24.050  43.358  13.342
21407W        W89825  28.593  44.756   4.215
21408W        W89826   7.852   1.467  11.489
21409W        W89827  32.137   1.751   1.772
21410W        W89828  40.318  14.814   1.889
21411W        W89829  12.786  29.508  14.949
21412W        W89830  41.331   6.257  11.864
21413W        W89831  44.351  38.842  14.852
21414W        W89832   1.905  17.297  11.891
21415W        W89833  32.438  29.467  11.106
21416W        W89834  39.463  22.160  12.902
21417W        W89835   8.330  31.414  10.961
21418W        W89836  19.210  24.043   0.837
21419W        W89837  12.155  42.788  12.823
21420W        W89838   7.872  36.033  10.439
21421W        W89839  21.632  14.640   0.439
21422W        W89840  28.635  30.488   3.277
21423W        W89841  19.653  26.496   4.832
21424W        W89842  16.767  23.102   1.736
21425W        W89843  14.813  30.544  14.452
21426W        W89844  20.184  15.715  13.449
21427W        W89845  17.133  22.662  12.870
21428W        W89846  33.556  40.909  13.935
21429W        W89847  24.653   1.254   4.754
21430W        W89848   8.212   4.402   1.260
21431W        W89849  32.458  13.625   3.804
21432W        W89850   9.340  35.916  13.402
21433W        W89851   8.822   6.413   0.362
21434W        W89852  21.197  21.644  10.940
21435W        W89853  25.124  42.024  11.912
21436W        W89854   4.822  37.911   0.966
21437W        W89855  43.363  27.681  11.519
21438W        W89856  35.008  14.291   3.867
21439W        W89857  36.878  38.967   0.252
21440W        W89858  18.724  21.160  11.927
21441W        W89859  20.274  37.359   4.752
21442W        W89860  35.088  43.870  11.528
21443W        W89861  30.489  20.746   1.763
21444W        W89862  36.024   9.336   3.778
21445W        W89863  42.322  41.449  14.856
21446W        W89864   1.814  36.955  13.412
21447W        W89865  17.108  26.702  10.000
21448W        W89866  37.554  17.643  14.306
21449W        W89867  35.535  21.581   3.206
21450W        W89868  27.036   1.873   4.744
21451W        W89869  31.936  10.702   4.193
21452W        W89870  23.605  31.918   3.376
21453W        W89871   9.166  28.020   4.635
21454W        W89872  38.000  28.972   1.896
21455W        W89873   9.265  30.651   2.400
21456W        W89874   8.765  36.897  11.490
21457W        W89875  27.607  22.663  13.360
21458W        W89876  30.983   4.936   0.450
21459W        W89877   1.251  12.244  10.404
21460W        W89878  24.048  37.007   2.734
21461W        W89879  18.141  42.475   0.730
21462W        W89880  26.685  26.589   4.767
21463W        W89881  40.414  12.352   2.333
21464W        W89882  44.863  28.594   2.308
21465W        W89883  39.560   4.239  13.364
21466W        W89884  11.328  23.576  13.416
21467W        W89885  35.061  15.317   1.289
21468W        W89886  24.019  44.980   1.268
21469W        W89887   2.293  27.946   2.836
21470W        W89888  17.301  30.142   4.278
21471W        W89889  37.552  44.824  12.368
21472W        W89890  41.975  43.015   4.159
21473W        W89891  17.597   3.880   4.625
21474W        W89892  29.094  16.128   4.125
21475W        W89893  24.580  15.762  11.024
21476W        W89894  20.230   5.929  12.567
21477W        W89895  12.800  26.595   1.758
21478W        W89896   7.292  36.451  14.862
21479W        W89897  30.656  24.534  11.388
21480W        W89898   7.738   0.896  10.531
21481W        W89899  15.601  31.600  11.560
21482W        W89900  12.728   1.815  13.875
21483W        W89901  39.344  10.768  11.970
21484W        W89902   6.802   6.724   4.316
21485W        W89903  44.941  14.171   9.455
21486W        W89904   6.300  33.886  14.507
21487W        W89905   3.335  42.009  12.928
21488W        W89906  43.510  38.506   4.799
21489W        W89907  25.191  30.596  11.529
21490W        W89908  27.580   9.260  11.009
21491W        W89909  38.982  20.271   1.710
21492W        W89910  22.597  27.022  13.822
21493W        W89911   0.969   4.901   0.845
21494W        W89912  17.568  23.620   2.790
21495W        W89913  33.423  37.432   4.133
21496W        W89914  39.327  25.123   1.807
21497W        W89915   2.297  44.869   3.851
21498W        W89916  43.874  44.477   0.862
21499W        W89917  10.790   0.467   0.922
21500W        W89918  34.876  13.714  11.917
21501W        W89919  41.859  29.026   2.246
21502W        W89920   7.687  15.171  12.913
21503W        W89921  24.503   6.792   1.344
21504W        W89922  16.207  12.180   4.728
21505W        W89923   4.327  18.251  11.612
21506W        W89924   0.344   9.750   1.254
21507W        W89925  38.357  12.280   2.302
21508W        W89926  40.805  30.430   0.318
21509W        W89927   0.429   4.902  11.483
21510W        W89928  22.100  25.175   9.615
21511W        W89929  29.953  40.473  14.315
21512W        W89930  22.103  22.673   3.809
21513W        W89931  18.761  43.780   2.786
21514W        W89932  41.418   1.383  14.814
21515W        W89933  26.952  29.600  11.416
21516W        W89934  32.073  13.203   5.195
21517W        W89935  38.021   2.277   1.294
21518W        W89936   6.719  23.990  13.952
21519W        W89937  27.466   5.275  13.932
21520W        W89938  23.051  17.130  13.800
21521W        W89939  43.022   0.249  10.982
21522W        W89940   7.248  11.850  14.458
21523W        W89941  44.917  11.358  10.912
21524W        W89942  31.505  13.815  14.772
21525W        W89943   0.340  12.260  11.103
21526W        W89944  25.046   8.211   4.154
21527W        W89945   5.246  11.708  10.608
21528W        W89946   3.437  13.123   4.837
21529W        W89947  39.410  23.141  11.978
21530W        W89948  42.019  36.354   2.849
21531W        W89949  29.923  43.314  14.379
21532W        W89950  19.749  41.007  14.910
21533W        W89951  36.426  39.041   3.275
21534W        W89952  26.495   2.821   0.790
21535W        W89953   3.755  28.960   2.227
21536W        W89954  38.389  19.543   0.272
21537W        W89955  32.905  42.033   1.438
21538W        W89956   7.863   3.713   1.242
21539W        W89957  24.998   0.295  13.852
21540W        W89958  15.638   9.298  13.801
21541W        W89959  12.743  38.544  11.417
21542W        W89960  20.598  32.117  13.960
21543W        W89961  44.423  15.324   2.862
21544W        W89962  44.310   0.777   3.177
21545W        W89963   5.763   0.344   1.271
21546W        W89964  18.292   5.719  12.492
21547W        W89965  39.913  14.308  11.932
21548W        W89966   8.881  26.576   4.602
21549W        W89967  38.950   6.300  10.066
21550W        W89968  18.551  15.635   0.444
21551W        W89969  28.955  44.378  11.005
21552W        W89970  28.632  27.073   4.650
21553W        W89971   7.307  36.031  12.452
21554W        W89972   4.323   0.378   2.226
21555W        W89973  27.032  14.219  13.866
21556W        W89974  33.057   6.322   4.738
21557W        W89975  14.766  29.565   4.802
21558W        W89976  39.320   3.431  11.936
21559W        W89977  30.429   2.455   4.241
21560W        W89978   0.288  22.249  14.025
21561W        W89979  39.492  33.416  14.790
21562W        W89980  31.017   7.254   5.172
21563W        W89981   8.288  44.350   4.729
21564W        W89982  39.549  23.686   4.315
21565W        W89983  29.585   9.875   2.262
21566W        W89984  21.718   4.719   3.654
21567W        W89985   8.307   5.294   1.703
21568W        W89986  11.325   3.367  11.562
21569W        W89987  41.392  21.213   1.760
21570W        W89988  26.673  36.382  10.992
21571W        W89989  25.500  14.778   4.172
21572W        W89990  41.339   1.945   2.320
21573W        W89991  41.814   3.933   2.234
21574W        W89992  19.711  40.820  12.965
21575W        W89993   7.677  31.979   5.261
21576W        W89994  30.550  20.259   2.839
21577W        W89995  26.560   7.347  11.449
21578W        W89996  14.630  14.097  12.989
21579W        W89997   8.276  31.096   1.325
21580W        W89998  21.697  11.201  13.867
21581W        W89999  22.158  35.878   0.745
21582W        W90000  27.141  14.261   1.309
21583W        W90001  30.629   8.307  10.566
21584W        W90002  24.594  27.000   2.800
21585W        W90003  27.030   9.213  12.384
21586W        W90004   5.882  35.912  13.405
21587W        W90005  25.195  32.035  10.531
21588W        W90006  37.908  30.453  13.889
21589W        W90007  27.582  42.520   4.649
21590W        W90008  33.932  38.463   3.287
21591W        W90009  13.789   8.791   4.724
21592W        W90010  35.020  21.730  14.877
21593W        W90011  18.595  12.710  13.799
21594W        W90012  28.621  40.379   1.252
21595W        W90013  34.076  20.097  14.867
21596W        W90014  34.103   2.940  12.010
21597W        W90015   1.239  14.144  11.423
21598W        W90016  37.440  32.092   2.280
21599W        W90017  17.071   2.924  13.811
21600W        W90018  24.520   9.331  10.629
21601W        W90019  24.601  41.950  14.792
21602W        W90020  30.158   2.937  12.841
21603W        W90021  27.529  13.665   4.731
21604W        W90022  40.897  28.163   3.649
21605W        W90023  14.771  39.413   4.148
21606W        W90024   4.733  42.281  14.467
21607W        W90025  44.410  34.480  10.592
21608W        W90026   0.343  42.957   1.224
21609W        W90027  32.033   1.877  14.506
21610W        W90028  41.958  39.058  11.988
21611W        W90029  16.204  16.109  14.876
21612W        W90030  14.664  25.068   1.323
21613W        W90031  36.098  31.115   4.185
21614W        W90032  10.195  12.694   4.226
21615W        W90033  20.062   7.284   0.269
21616W        W90034  15.705  19.113   4.645
21617W        W90035  38.996   3.723   3.734
21618W        W90036   4.426  30.573  13.531
21619W        W90037  39.812  24.033   4.641
21620W        W90038   1.376   3.850  11.564
21621W        W90039  44.413  25.672  12.488
21622W        W90040   4.939   9.202  12.558
21623W        W90041   8.876  15.788   0.763
21624W        W90042   9.781  33.951   0.277
21625W        W90043  31.934  11.689   4.689
21626W        W90044  22.694  44.893  14.394
21627W        W90045  32.062  22.070  11.062
21628W        W90046   8.363  33.964  14.421
21629W        W90047  42.776  22.620  14.984
21630W        W90048  24.722  15.162   0.810
21631W        W90049  20.557  25.966   4.342
21632W        W90050  35.035  19.151   1.341
21633W        W90051  42.943  24.580  11.501
21634W        W90052  20.678  14.637  13.414
21635W        W90053  28.028  10.356   0.480
21636W        W90054  14.717  28.513  13.022
21637W        W90055   1.864  10.257  14.962
21638W        W90056  28.643   0.336   3.681
21639W        W90057  40.425  17.264   0.254
21640W        W90058  10.830  39.965   2.357
21641W        W90059   7.249  25.052  14.436
21642W        W90060  33.446   3.775  14.417
21643W        W90061  20.150   5.825  14.973
21644W        W90062   9.661  19.541   2.405
21645W        W90063  37.895  33.545  10.580
21646W        W90064   8.893   4.271   1.319
21647W        W90065  11.275  12.305   3.270
21648W        W90066   0.308   0.430  11.977
21649W        W90067  36.073  44.942  13.491
21650W        W90068  35.575  43.420   0.337
21651W        W90069  15.674  29.019  11.575
21652W        W90070  22.666   6.769  11.607
21653W        W90071  26.561  35.890   1.790
21654W        W90072  23.614  22.739  13.399
21655W        W90073  26.570  17.239  13.872
21656W        W90074  38.964  35.416   0.473
21657W        W90075  12.615  24.025   4.720
21658W        W90076  25.616  38.486   2.342
21659W        W90077   5.793  23.058   4.838
21660W        W90078  41.486   3.445  14.782
21661W        W90079  34.015   1.358   1.922
21662W        W90080  28.098  39.512   2.385
21663W        W90081  29.658  26.130   3.851
21664W        W90082  11.723  12.219   4.324
21665W        W90083  20.683   1.918  14.896
21666W        W90084  26.128  24.201   2.329
21667W        W90085  18.151   2.243  11.555
21668W        W90086  25.217  20.069   2.821
21669W        W90087  16.766  18.248  12.937
21670W        W90088  37.561  26.474   2.302
21671W        W90089   3.237  12.756  12.927
21672W        W90090  40.382  33.596   3.764
21673W        W90091  37.029  35.999   1.305
21674W        W90092   1.240  38.371  12.981
21675W        W90093  32.911   7.272   1.396
21676W        W90094   6.846  40.811  12.074
21677W        W90095  41.404  18.112   1.390
21678W        W90096  41.935   4.795  10.545
21679W        W90097  18.619  23.632  14.971
21680W        W90098   8.193  38.463  12.843
21681W        W90099  19.252  38.420  12.406
21682W        W90100  15.673  25.012   4.128
21683W        W90101  43.001  32.079   1.772
21684W        W90102  17.744  26.994   1.912
21685W        W90103  14.660  36.375  12.474
21686W        W90104   0.430  29.495  11.423
21687W        W90105  33.119  31.094   3.722
21688W        W90106  37.965  22.610  13.534
21689W        W90107  13.158  14.185   0.821
21690W        W90108  33.890   7.828   2.190
21691W        W90109  42.476  23.606   0.830
21692W        W90110  24.580  43.820   3.152
21693W        W90111  18.745  22.733   5.105
21694W        W90112   6.191   1.920   0.402
21695W        W90113  26.663  33.052   5.243
21696W        W90114   3.316   1.739  10.462
21697W        W90115  37.415   2.258  12.892
21698W        W90116  37.940   5.267  13.051
21699W        W90117  11.225  19.698  14.988
21700W        W90118  35.396  33.425  14.837
21701W        W90119  42.943  15.803  10.970
21702W        W90120  29.080  37.025  11.511
21703W        W90121  29.964  22.543  11.050
21704W        W90122   0.469  43.902  11.922
21705W        W90123   7.231   6.424  12.093
21706W        W90124  14.269  44.384  11.950
21707W        W90125   4.410  26.045  11.927
21708W        W90126  12.676   3.440  10.416
21709W        W90127  40.921  16.771  12.967
21710W        W90128   2.353  34.050  12.359
21711W        W90129  21.096  30.641  11.376
21712W        W90130  23.629  13.769   0.462
21713W        W90131  14.206  36.878   2.823
21714W        W90132  24.230  26.575   0.778
21715W        W90133  19.603  24.181  14.997
21716W        W90134  28.675  38.564  12.022
21717W        W90135  12.343  12.254   4.343
21718W        W90136   7.891  38.417   2.891
21719W        W90137   2.903   5.825  13.311
21720W        W90138  31.434  30.130   4.161
21721W        W90139  38.981  29.665  12.034
21722W        W90140   7.267  26.999  12.474
21723W        W90141  22.065  10.318  13.531
21724W        W90142  26.105  44.296  12.844
21725W        W90143  41.820  28.582   1.410
21726W        W90144  44.988  10.278   1.322
21727W        W90145  18.158  43.939  14.511
21728W        W90146  18.209  31.132  12.971
21729W        W90147   9.801  32.603  11.590
21730W        W90148  14.749  26.955   4.229
21731W        W90149  37.088  31.630  11.075
21732W        W90150  24.697  29.986  10.423
21733W        W90151  27.129  25.480  13.471
21734W        W90152  32.508   2.907  11.885
21735W        W90153   5.310  12.321  10.489
21736W        W90154   1.732   2.265  11.404
21737W        W90155   5.817  39.840  14.414
21738W        W90156  43.364  38.956  13.031
21739W        W90157  34.933  43.346   4.651
21740W        W90158   6.326   7.241   4.145
21741W        W90159   6.400  11.192  11.518
21742W        W90160   5.835  31.613  12.903
21743W        W90161  21.744  14.611  14.958
21744W        W90162  14.756  18.072   0.261
21745W        W90163  33.968   9.328  11.028
21746W        W90164  20.700   8.403   3.381
21747W        W90165   6.809  34.464   1.811
21748W        W90166  19.703  23.641   5.758
21749W        W90167  15.230  21.169   0.468
21750W        W90168  43.479  40.964   2.697
21751W        W90169  29.648   5.756  14.017
21752W        W90170   8.285  19.205   4.334
21753W        W90171  37.060  29.628   1.241
21754W        W90172  31.622  39.334   3.259
21755W        W90173  18.082  25.708  10.122
21756W        W90174   8.294  14.188   4.273
21757W        W90175   1.324   5.241   1.892
21758W        W90176   2.949  42.493   3.320
21759W        W90177  26.561  33.519   1.289
21760W        W90178  27.950  30.650   0.820
21761W        W90179  37.080   1.850  14.474
21762W        W90180  32.491   5.819   0.317
21763W        W90181   1.746  23.020   4.257
21764W        W90182   7.721  36.514   1.296
21765W        W90183  35.561  28.968   3.868
21766W        W90184  11.712  43.878  11.892
21767W        W90185  12.633  20.720   0.451
21768W        W90186  39.336  12.721   0.777
21769W        W90187  26.173  20.539  14.302
21770W        W90188  26.170  11.240   0.817
21771W        W90189  41.506  16.741   2.696
21772W        W90190  20.736  17.711   3.648
21773W        W90191  42.304  21.682   1.323
21774W        W90192  20.095  35.361  13.879
21775W        W90193  19.763  44.428   0.911
21776W        W90194  15.686   4.374  14.282
21777W        W90195   5.339  18.175  10.612
21778W        W90196  38.872  43.795  14.787
21779W        W90197  21.538  22.126   0.416
21780W        W90198  20.732  23.572  11.508
21781W        W90199  15.127  19.637   2.732
21782W        W90200  37.026   8.716   2.233
21783W        W90201  43.514  37.530   2.278
21784W        W90202  26.466  32.137   0.739
21785W        W90203  24.050  11.253  11.094
21786W        W90204  23.181  40.822   4.211
21787W        W90205   8.345  32.444  12.879
21788W        W90206  28.456  37.490   3.234
21789W        W90207  39.986  21.697  11.419
21790W        W90208  32.062   8.261  11.964
21791W        W90209  43.005  23.649  11.586
21792W        W90210  21.225  27.953   2.238
21793W        W90211  24.014   4.728   9.944
21794W        W90212  32.941  35.559   2.411
21795W        W90213  17.558  40.896   1.723
21796W        W90214  29.427  42.366   4.741
21797W        W90215   1.277   8.252  11.053
21798W        W90216  36.516   5.872   4.660
21799W        W90217   7.780  11.218  14.484
21800W        W90218  25.154   4.874  11.950
21801W        W90219  43.977  27.509   0.481
21802W        W90220  30.544  32.512  13.467
21803W        W90221   8.257  39.897   4.724
21804W        W90222  10.712   3.317   3.332
21805W        W90223  14.719  31.500   1.826
21806W        W90224  19.649  26.979   4.771
21807W        W90225  18.138  39.509   2.408
21808W        W90226  18.754  14.113  12.887
21809W        W90227  26.572   3.261   3.837
21810W        W90228   6.227  41.331   1.221
21811W        W90229  44.282  31.506  10.910
21812W        W90230  38.482  36.362   2.754
21813W        W90231  34.497  24.975   4.781
21814W        W90232  39.412  35.520   3.221
21815W        W90233  18.143   6.878   4.304
21816W        W90234  28.516  25.608  10.524
21817W        W90235  16.607  44.780   2.312
21818W        W90236  35.946  32.029  12.406
21819W        W90237  12.311   1.823   4.213
21820W        W90238  28.979  22.202   0.786
21821W        W90239  14.244  26.955   0.426
21822W        W90240  26.970   4.280  14.308
21823W        W90241   5.236   6.729  14.897
21824W        W90242  29.999   0.966  13.917
21825W        W90243  22.055  26.102   0.830
21826W        W90244  23.572  13.674   2.356
21827W        W90245  11.731  18.653   3.324
21828W        W90246  40.040  25.101   0.938
21829W        W90247  42.868  43.820   4.145
21830W        W90248  37.358   8.300   2.902
21831W        W90249  25.675  18.102  13.985
21832W        W90250  14.618  27.462   1.350
21833W        W90251   2.808  14.789   4.682
21834W        W90252   0.942   4.791   4.174
21835W        W90253  33.484  33.488   0.897
21836W        W90254   4.843  35.923  13.991
21837W        W90255  36.361  23.054  12.408
21838W        W90256  11.260  33.089   3.257
21839W        W90257  10.214  25.631  13.327
21840W        W90258   2.832   9.151   3.861
21841W        W90259  20.627  25.056   2.796
21842W        W90260  22.170   1.251   0.429
21843W        W90261   5.294   2.840   2.885
21844W        W90262  10.786  31.612   3.332
21845W        W90263   8.815  21.667  14.028
21846W        W90264  26.660  42.352  13.848
21847W        W90265  26.549  44.484  12.577
21848W        W90266   3.776   6.402  13.023
21849W        W90267  24.030   8.780   2.408
21850W        W90268  42.481   0.342  11.893
21851W        W90269  32.016   9.780  14.328
21852W        W90270  16.162  31.011   4.679
21853W        W90271  20.618  39.858  12.914
21854W        W90272   9.747  33.041  10.894
21855W        W90273  32.054  35.441   3.674
21856W        W90274   5.767  35.922   0.427
21857W        W90275  15.149  31.037   3.371
21858W        W90276  36.942  34.479  13.052
21859W        W90277  22.250  31.576  12.921
21860W        W90278  19.580  39.991   3.181
21861W        W90279  29.441   5.728  12.441
21862W        W90280   1.361  23.044   1.918
21863W        W90281  10.854  22.711  14.375
21864W        W90282  16.122  19.111   3.340
21865W        W90283  34.436  38.440   9.477
21866W        W90284   9.707   2.951   2.408
21867W        W90285   8.179  16.706  11.565
21868W        W90286   6.287  30.605   5.109
21869W        W90287   0.316  27.501  12.370
21870W        W90288  32.112   0.326  10.099
21871W        W90289  25.703  22.139  10.596
21872W        W90290  16.225  15.165   0.349
21873W        W90291  23.700  34.462   2.284
21874W        W90292  26.588  21.202   1.286
21875W        W90293  16.618  11.158  12.889
21876W        W90294  20.209  32.520  14.438
21877W        W90295  14.282  10.712   4.756
21878W        W90296  15.624   4.908   3.737
21879W        W90297   5.879   8.215  12.537
21880W        W90298   3.215  30.557  13.417
21881W        W90299   8.734  32.032   2.850
21882W        W90300  41.386  10.808  14.771
21883W        W90301   1.434  44.396  11.486
21884W        W90302  26.961  15.117  13.436
21885W        W90303  23.137  29.530  10.487
21886W        W90304  26.023  10.282  12.486
21887W        W90305  18.733  29.460  12.060
21888W        W90306   9.313  44.865  13.352
21889W        W90307  13.285  29.614   3.847
21890W        W90308  23.664  33.392   3.794
21891W        W90309  44.767  28.441   1.320
21892W        W90310  29.649   7.693   4.350
21893W        W90311  20.259  30.499   0.780
21894W        W90312  27.952  34.408  12.864
21895W        W90313  13.603  42.980   4.223
21896W        W90314  10.873  37.508   1.419
21897W        W90315  37.510   9.857   4.121
21898W        W90316  27.462  38.474  11.995
21899W        W90317   1.778  42.987  11.949
21900W        W90318   5.360   6.205   0.321
21901W        W90319  36.394   9.243   2.309
21902W        W90320   2.314  36.005   1.244
21903W        W90321  35.477   4.758   9.952
21904W        W90322  18.243   8.295  11.876
21905W        W90323  15.737  15.144  13.531
21906W        W90324  39.919   8.288   4.320
21907W        W90325  37.415  38.536   2.283
21908W        W90326  42.299  20.051   1.876
21909W        W90327  13.619  22.190  12.087
21910W        W90328  21.585  10.161   0.323
21911W        W90329  11.176  23.125   2.726
21912W        W90330  19.758  29.928   0.415
21913W        W90331   0.281  43.930  13.392
21914W        W90332  24.604  19.752   0.950
21915W        W90333  37.972  32.961   0.918
21916W        W90334  18.122  14.290   4.620
21917W        W90335   0.939  23.589  12.377
21918W        W90336  36.401   7.265  11.568
21919W        W90337  27.563   0.908   4.653
21920W        W90338  16.685  31.606  11.587
21921W        W90339  44.404  35.984   3.160
21922W        W90340  10.204   9.155  13.012
21923W        W90341  37.853   3.279   2.755
21924W        W90342  25.601  30.042  11.594
21925W        W90343  29.479  33.907  12.942
21926W        W90344   3.941  13.810   2.198
21927W        W90345  26.530  10.218  12.409
21928W        W90346  21.024   9.717  11.412
21929W        W90347  23.165  11.752   2.865
21930W        W90348  27.609  14.185  14.918
21931W        W90349  36.383  40.047   0.382
21932W        W90350  33.547  40.415   2.337
21933W        W90351   1.444   2.844  14.848
21934W        W90352  25.671  28.045   3.680
21935W        W90353  28.550  38.896   3.151
21936W        W90354  26.201  39.946   0.334
21937W        W90355   7.191  38.509  10.412
21938W        W90356   1.747   3.249   2.671
21939W        W90357  30.916  27.952   0.281
21940W        W90358  21.062  42.019   2.323
21941W        W90359  44.843  35.107  14.371
21942W        W90360  32.900   6.424  12.979
21943W        W90361   0.912  29.552   0.830
21944W        W90362  27.655  31.056   3.177
21945W        W90363   3.416  11.664  13.531
21946W        W90364  34.595   4.816   3.756
21947W        W90365   3.414  35.446  10.587
21948W        W90366  18.195   9.155  11.485
21949W        W90367  33.504   3.248  10.419
21950W        W90368  29.470  16.639   1.218
21951W        W90369  25.034  19.069  12.084
21952W        W90370  20.718  38.026  10.594
21953W        W90371  21.610  10.247  11.414
21954W        W90372   7.308  30.068  11.469
21955W        W90373  41.510   6.854   3.354
21956W        W90374  39.872  22.252  14.436
21957W        W90375  31.946  31.565   0.334
21958W        W90376  13.149  20.082  12.463
21959W        W90377  26.484   9.820   0.413
21960W        W90378   7.248  29.572  11.066
21961W        W90379  31.915  15.581  14.382
21962W        W90380   6.833  16.677  11.407
21963W        W90381  34.368  32.077  10.574
21964W        W90382  18.142  12.200   1.761
21965W        W90383  11.237  37.064  14.424
21966W        W90384  29.922  29.551   3.281
21967W        W90385  24.008  18.223  11.994
21968W        W90386   3.448  23.688   3.178
21969W        W90387  26.465  38.366   4.251
21970W        W90388  36.013  25.966   4.298
21971W        W90389  34.444  22.072  11.411
21972W        W90390  12.179  21.650   0.355
21973W        W90391  34.960   0.981  10.923
21974W        W90392  36.375  33.925  14.904
21975W        W90393  29.430  11.831   3.863
21976W        W90394  34.549  38.550   4.236
21977W        W90395  42.911  43.956  14.311
21978W        W90396   4.707  12.635  11.438
21979W        W90397  44.300  10.785   4.758
21980W        W90398  31.615  38.914   4.810
21981W        W90399   4.806  21.093   4.606
21982W        W90400  14.761  41.300   1.916
21983W        W90401  28.473  10.734  13.022
21984W        W90402  12.626  33.968  13.473
21985W        W90403  26.670  13.618  11.548
21986W        W90404  36.379  23.736  12.455
21987W        W90405  43.320  38.035   1.267
21988W        W90406  21.190   9.277  13.403
21989W        W90407   7.675  13.292  10.972
21990W        W90408  11.152   0.399   3.719
21991W        W90409  35.913  19.705  12.511
21992W        W90410   9.813  24.006   4.611
21993W        W90411  39.367  14.773  11.880
21994W        W90412   7.761  13.773   4.617
21995W        W90413  40.046   3.285  11.042
21996W        W90414  22.014  17.673  12.491
21997W        W90415  28.004  16.779   0.854
21998W        W90416   5.770  35.980  12.032
21999W        W90417  36.487  26.497   2.804
22000W        W90418  41.993  20.126   3.868
22001W        W90419  44.944   2.929   0.821
22002W        W90420  39.466  23.683  12.389
22003W        W90421  37.382  21.059  14.337
22004W        W90422  36.068  31.070   3.807
22005W        W90423  41.480   5.307   1.410
22006W        W90424  31.976   5.745   0.769
22007W        W90425   1.314   3.321   1.855
22008W        W90426  25.555  33.483   1.402
22009W        W90427  39.551  40.413   2.318
22010W        W90428  30.656   4.893  11.052
22011W        W90429  16.748  23.588   1.764
22012W        W90430  10.642  30.593  10.899
22013W        W90431  24.995  44.786  14.355
22014W        W90432  19.577  14.740   5.693
22015W        W90433  28.665  18.630  10.457
22016W        W90434  16.649   7.903  10.473
22017W        W90435   2.847  33.129  13.466
22018W        W90436  26.469  24.094  11.016
22019W        W90437  39.043  22.510  13.865
22020W        W90438   3.397   4.387  12.578
22021W        W90439  16.750   3.793  10.639
22022W        W90440  39.947  39.414   4.186
22023W        W90441   8.271  14.716  14.856
22024W        W90442  39.534  21.613   4.327
22025W        W90443  36.571  30.433   0.731
22026W        W90444  12.681  28.083  10.505
22027W        W90445  21.063   8.690   3.287
22028W        W90446  19.659  29.589  14.948
22029W        W90447  13.671  12.731  12.967
22030W        W90448   0.467   6.849   3.268
22031W        W90449  10.653  37.837  11.101
22032W        W90450   6.303  37.345  10.998
22033W        W90451  14.807  44.783  11.562
22034W        W90452  15.796  17.783   1.212
22035W        W90453   6.300  33.505  13.368
22036W        W90454  42.846  10.829  11.417
22037W        W90455  22.548   8.863   3.300
22038W        W90456   6.731  19.668  10.457
22039W        W90457   7.253  10.719  13.814
22040W        W90458  44.337   7.257  14.502
22041W        W90459  43.944  29.949   2.360
22042W        W90460   3.736  26.539  12.385
22043W        W90461  32.531  11.737  11.437
22044W        W90462  40.052  22.539  12.061
22045W        W90463  43.470  21.752   2.732
22046W        W90464  32.026  14.780  11.472
22047W        W90465   8.358  44.902  14.773
22048W        W90466  25.695  37.883  12.078
22049W        W90467  30.021  32.410  13.311
22050W        W90468  16.613   2.393  14.492
22051W        W90469  10.147   5.693  12.395
22052W        W90470  15.705  24.516   2.367
22053W        W90471  38.412  28.180   3.852
22054W        W90472  31.538  43.951  14.323
22055W        W90473  16.247  27.183   0.400
22056W        W90474   2.420  31.092  14.810
22057W        W90475  31.470   1.845   1.393
22058W        W90476  29.010  21.080   1.429
22059W        W90477  34.931  16.804   2.329
22060W        W90478  37.856  16.098   3.297
22061W        W90479  38.330  44.873   4.197
22062W        W90480  43.319  14.226   5.263
22063W        W90481   3.940  21.246   0.395
22064W        W90482  13.761  30.449   3.272
22065W        W90483  37.012  28.567  14.490
22066W        W90484   0.332  44.982   2.208
22067W        W90485   5.741  38.365  14.492
22068W        W90486  11.216  28.565   3.653
22069W        W90487   3.710  28.095   2.665
22070W        W90488  24.540  16.741   3.235
22071W        W90489   7.866  27.095   2.723
22072W        W90490   1.469  33.473   0.419
22073W        W90491  35.522   1.347  11.427
22074W        W90492  24.030  36.090  12.028
22075W        W90493  25.492  29.959   2.231
22076W        W90494  25.031  21.189  14.978
22077W        W90495  32.136  30.597   4.837
22078W        W90496  29.438  42.802   2.799
22079W        W90497   5.723   5.413   4.336
22080W        W90498   4.818  22.178   2.871
22081W        W90499  41.859  18.060  10.419
22082W        W90500   7.196  14.624  12.095
22083W        W90501  29.971  41.919   0.329
22084W        W90502  11.175  18.627   3.151
22085W        W90503  11.363  22.173  12.468
22086W        W90504  18.173  31.908  10.482
22087W        W90505  20.531   3.890   4.684
22088W        W90506  42.472  22.179  12.082
22089W        W90507  17.684  44.351  10.914
22090W        W90508  31.434  21.149  14.915
22091W        W90509  32.573   3.905  13.043
22092W        W90510  44.753  10.745  12.861
22093W        W90511   0.346  17.076  13.465
22094W        W90512  24.017  19.671  13.492
22095W        W90513  35.568  30.062  11.057
22096W        W90514  38.408  40.983  14.963
22097W        W90515  13.224  34.002   4.225
22098W        W90516  14.161   6.342   1.266
22099W        W90517  44.951  29.604   3.176
22100W        W90518  35.519  39.373  12.077
22101W        W90519  16.611  27.078  14.907
22102W        W90520  16.299   4.267  10.497
22103W        W90521  35.022   5.861   3.157
22104W        W90522  32.577  39.811   3.717
22105W        W90523   8.193   3.215   3.861
22106W        W90524  27.079  44.784   1.222
22107W        W90525   4.724  26.018   1.214
22108W        W90526   5.823  38.366  13.521
22109W        W90527  11.623  24.984   0.900
22110W        W90528  11.366  20.265  14.884
22111W        W90529  29.502  21.128  12.473
22112W        W90530  31.141  43.302  14.934
22113W        W90531  28.182  30.623  13.440
22114W        W90532  31.003   0.959   0.439
22115W        W90533  25.662  26.666   3.789
22116W        W90534  10.176   0.755   4.646
22117W        W90535  44.942  25.584   4.264
22118W        W90536  33.388  41.439  13.039
22119W        W90537   7.298  30.030  11.971
22120W        W90538  17.263  20.043   2.845
22121W        W90539  22.231  25.990  11.399
22122W        W90540   6.748  33.602  11.468
22123W        W90541   6.194   2.338   4.766
22124W        W90542  38.392   5.832   2.854
22125W        W90543   0.852  38.425  13.037
22126W        W90544  18.560   2.251  12.978
22127W        W90545  14.138   1.738   4.772
22128W        W90546  21.039  14.260   3.794
22129W        W90547   9.260  43.307   2.722
22130W        W90548  42.526  44.003  12.528
22131W        W90549   3.868  40.304   4.698
22132W        W90550  23.500  14.715   0.920
22133W        W90551  20.129   6.196   4.308
22134W        W90552  16.659  16.088   4.135
22135W        W90553  15.114   1.950   1.738
22136W        W90554   4.305   5.811  13.482
22137W        W90555  33.965  44.365   4.711
22138W        W90556   3.711  21.050   5.155
22139W        W90557  23.537   7.233   1.438
22140W        W90558  38.357   9.364  14.943
22141W        W90559   4.399  36.391   4.273
22142W        W90560  44.332  28.503  13.923
22143W        W90561  18.183   9.864  10.480
22144W        W90562  15.641  33.588  11.080
22145W        W90563  34.369   8.288   3.272
22146W        W90564  12.126   6.357  14.514
22147W        W90565   1.371  18.160  12.961
22148W        W90566  26.535   7.383   3.181
22149W        W90567  14.130  26.593  12.549
22150W        W90568  35.460  13.705   3.645
22151W        W90569  12.849  14.723  13.790
22152W        W90570  19.603  10.197  13.337
22153W        W90571  44.379  38.345  10.496
22154W        W90572  34.915  24.609   1.859
22155W        W90573  26.995  41.994  12.543
22156W        W90574  31.446  28.599   0.350
22157W        W90575  36.373  27.979  11.385
22158W        W90576  39.006  16.082  14.408
22159W        W90577   9.841  31.111  13.535
22160W        W90578  26.530   3.325   4.742
22161W        W90579   9.655  29.606   0.850
22162W        W90580   4.743  32.096   2.777
22163W        W90581  38.893  32.909   2.762
22164W        W90582   1.832  44.905  13.925
22165W        W90583  36.906  10.843  11.978
22166W        W90584  39.513  23.988   3.262
22167W        W90585  25.646  28.045   4.604
22168W        W90586  11.720  25.137  12.405
22169W        W90587  24.075  25.089   5.134
22170W        W90588  42.944  24.536  10.607
22171W        W90589  44.836  27.051   0.941
22172W        W90590   2.268  31.580   0.429
22173W        W90591  36.430   0.301   1.297
22174W        W90592  21.020  22.521   1.785
22175W        W90593  39.008   0.412   0.729
22176W        W90594   1.307  28.988   2.772
22177W        W90595  10.251  28.172   5.258
22178W        W90596  27.133  23.520   0.304
22179W        W90597  29.590  43.010   5.156
22180W        W90598   3.860  18.632   4.160
22181W        W90599  26.090  14.155  12.033
22182W        W90600  34.085  29.451  10.591
22183W        W90601  23.240  28.088   2.197
22184W        W90602   7.196  17.142  11.555
22185W        W90603   5.268  38.375  14.802
22186W        W90604  39.915  31.597  12.860
22187W        W90605  22.742  20.537   4.836
22188W        W90606  10.357   0.258   1.264
22189W        W90607  39.484  16.656   3.779
22190W        W90608  22.672   2.308   1.741
22191W        W90609  41.533  34.377  14.312
22192W        W90610  27.486  30.527   1.234
22193W        W90611  37.929  24.619   3.809
22194W        W90612  43.322  36.373  10.482
22195W        W90613  40.470  32.052   1.218
22196W        W90614  39.417  30.445   2.398
22197W        W90615   3.710  15.730  14.930
22198W        W90616  21.572  10.251   0.796
22199W        W90617   4.291  20.179  11.539
22200W        W90618  40.520  28.157   5.186
22201W        W90619   6.858  23.515  11.096
22202W        W90620  11.859  31.965  11.917
22203W        W90621  12.275  30.542  12.945
22204W        W90622  11.310  39.841  13.374
22205W        W90623  37.463  41.859  12.456
22206W        W90624  39.539  21.752  12.340
22207W        W90625  22.086  24.054   0.934
22208W        W90626  17.621  23.145   2.676
22209W        W90627   7.791  43.483  12.565
22210W        W90628  22.096  18.128  13.004
22211W        W90629  31.970  30.091  10.918
22212W        W90630  37.876  41.866   2.736
22213W        W90631  33.590  42.859  12.874
22214W        W90632  12.135   3.910  14.021
22215W        W90633   0.779  26.696  13.332
22216W        W90634  19.092  44.822   4.344
22217W        W90635  42.977  25.990   2.359
22218W        W90636  23.056   7.871  13.930
22219W        W90637   5.242  25.636  13.492
22220W        W90638  40.360  25.115   2.415
22221W        W90639   0.745  44.900  13.940
22222W        W90640  22.149  19.725   4.811
22223W        W90641  39.552   5.928  13.463
22224W        W90642  40.345  10.673  14.798
22225W        W90643  16.764   2.806   1.279
22226W        W90644  21.170  34.557  12.386
22227W        W90645  38.392  35.979  10.546
22228W        W90646  37.894  25.468  14.513
22229W        W90647   7.685  28.018  10.109
22230W        W90648  30.627   1.417  12.005
22231W        W90649  20.265  40.960   2.309
22232W        W90650  19.039  44.345   4.259
22233W        W90651  18.160   4.307   1.771
22234W        W90652   4.360  20.736   1.746
22235W        W90653  40.922  33.586  11.982
22236W        W90654  24.655  30.951   1.237
22237W        W90655   2.453   5.851   1.359
22238W        W90656  11.789  29.665   0.857
22239W        W90657   2.962  27.497  11.979
22240W        W90658  10.316  21.190   5.111
22241W        W90659  13.772  20.237   0.278
22242W        W90660  10.221  28.145   3.305
22243W        W90661  22.707  20.038   4.144
22244W        W90662  33.914  34.093   1.232
22245W        W90663  13.147  19.276   1.911
22246W        W90664  36.421  36.956  10.644
22247W        W90665  37.393  21.671  12.395
22248W        W90666  16.172  14.729   1.324
22249W        W90667  37.038   3.765   0.466
22250W        W90668  16.722  32.529  11.540
22251W        W90669  20.596   8.263  10.434
22252W        W90670  28.435  34.984  10.018
22253W        W90671  27.688  30.602   2.212
22254W        W90672  22.598  41.390   1.238
22255W        W90673  34.422  14.811   2.282
22256W        W90674  23.233  17.076   3.869
22257W        W90675  23.131  44.957   0.849
22258W        W90676  39.896  18.616  12.563
22259W        W90677  39.053  21.034  14.007
22260W        W90678  24.156  31.476   0.418
22261W        W90679  42.426   3.920   1.805
22262W        W90680  44.834  24.551  12.538
22263W        W90681  43.993  24.645  14.363
22264W        W90682  33.052   4.433  10.597
22265W        W90683  31.637   1.921   2.719
22266W        W90684  23.067  35.581  13.978
22267W        W90685  15.142  14.104   3.243
22268W        W90686   9.299  40.347   4.225
22269W        W90687  28.986  39.844   2.209
22270W        W90688  29.530   2.938   4.718
22271W        W90689   9.785  27.187  11.049
22272W        W90690  29.434  36.075  13.848
22273W        W90691  17.119   4.741   0.888
22274W        W90692  15.658  38.555  14.866
22275W        W90693  43.989   5.330  13.797
22276W        W90694  32.573  15.126  10.597
22277W        W90695  12.179   4.264  12.891
22278W        W90696  34.599  13.207   3.236
22279W        W90697  26.084  31.434  13.908
22280W        W90698  23.054  28.499  14.966
22281W        W90699  31.613  40.818   2.333
22282W        W90700  35.915  10.271   1.933
22283W        W90701  41.471  40.437   3.811
22284W        W90702  42.817  43.409   0.418
22285W        W90703  40.410  43.837  11.517
22286W        W90704  30.465  37.514   0.310
22287W        W90705   1.383   2.944  12.898
22288W        W90706  15.196  28.185   3.381
22289W        W90707   0.270  43.467   2.746
22290W        W90708  37.571  42.517   1.911
22291W        W90709  21.516  16.667  13.889
22292W        W90710  16.217   8.693   1.287
22293W        W90711  20.552  21.673   4.726
22294W        W90712  44.441   1.747   1.336
22295W        W90713  16.623  23.604   0.777
22296W        W90714  44.885  39.527  12.571
22297W        W90715  24.066  27.673  10.450
22298W        W90716  44.328   7.905   0.292
22299W        W90717  14.236  34.887   4.294
22300W        W90718   8.320  40.864   2.418
22301W        W90719  34.411  37.016  12.444
22302W        W90720  35.015  26.971   0.404
22303W        W90721   6.363  24.221  14.456
22304W        W90722   8.221  18.680   4.308
22305W        W90723  16.795  28.166   1.285
22306W        W90724  23.678  41.330   3.322
22307W        W90725   7.897  44.956  12.980
22308W        W90726   7.779  20.107   0.444
22309W        W90727   4.699  12.704  14.957
22310W        W90728  42.477  10.200   4.641
22311W        W90729  43.946   7.736  10.628
22312W        W90730  22.594   7.303   4.348
22313W        W90731  10.310  15.790   4.195
22314W        W90732  14.318  30.432  14.506
22315W        W90733  29.015  26.643   1.832
22316W        W90734   4.788  38.840   4.270
22317W        W90735  28.119  30.436  11.988
22318W        W90736  31.017  24.089   3.264
22319W        W90737  37.008  39.357   4.328
22320W        W90738  14.663  40.534  11.017
22321W        W90739  35.979  16.277   4.126
22322W        W90740  32.083  33.022   2.226
22323W        W90741  26.572  43.012   4.249
22324W        W90742  16.625  17.753  13.340
22325W        W90743  33.396  36.579   3.742
22326W        W90744  36.043  36.518  13.454
22327W        W90745  26.481   3.309  14.428
22328W        W90746   2.279  26.016   0.935
22329W        W90747  14.615  24.224   3.634
22330W        W90748  10.361  22.114   3.161
22331W        W90749  37.433  17.094   4.619
22332W        W90750  22.189  21.546  12.090
22333W        W90751  26.958  20.181   4.747
22334W        W90752   1.763   6.873  12.404
22335W        W90753  23.601   0.976   3.852
22336W        W90754  44.384   1.739  10.632
22337W        W90755   9.829  21.580  11.393
22338W        W90756  37.006   8.332  10.414
22339W        W90757  44.342  40.482  11.417
22340W        W90758   2.469   7.173  10.902
22341W        W90759   1.348  27.183   3.844
22342W        W90760  24.993   1.917   0.798
22343W        W90761  39.815  31.968   1.262
22344W        W90762  34.606  22.588   4.780
22345W        W90763  17.785   0.487   3.740
22346W        W90764   1.275  11.162  10.943
22347W        W90765   7.288  21.651  10.464
22348W        W90766  38.932  39.838   0.881
22349W        W90767  27.481  24.693  13.447
22350W        W90768  28.129  28.132  10.513
22351W        W90769   8.759  14.717   0.949
22352W        W90770  33.446  42.473   3.308
22353W        W90771  44.827  41.875  11.950
22354W        W90772  36.866  16.313   1.400
22355W        W90773  39.003  44.936  13.407
22356W        W90774  10.146  10.149   1.262
22357W        W90775  19.173  18.645  10.461
22358W        W90776  35.069  11.282   9.944
22359W        W90777   2.728  19.246  12.065
22360W        W90778   2.783  36.512   4.824
22361W        W90779  37.997  25.598   1.376
22362W        W90780  36.938   6.680   4.630
22363W        W90781  33.078  42.326   2.785
22364W        W90782  28.603  31.024  12.532
22365W        W90783  34.076  15.671   2.719
22366W        W90784  17.624  42.374  14.399
22367W        W90785  32.512  20.763   3.207
22368W        W90786  41.374   7.721   4.128
22369W        W90787  37.374  12.306  14.839
22370W        W90788  11.656  26.090   0.784
22371W        W90789  32.518  13.244   1.301
22372W        W90790  29.425   1.423  11.983
22373W        W90791  44.917  18.247   2.210
22374W        W90792   3.230   0.448   1.346
22375W        W90793  43.997  41.902  10.069
22376W        W90794  40.440  26.093   4.135
22377W        W90795   3.752  34.386  10.412
22378W        W90796  13.734  23.128  14.777
22379W        W90797  13.214  42.841   9.923
22380W        W90798  15.769  17.078   4.175
22381W        W90799   6.207  28.558   4.143
22382W        W90800  43.956   7.282   4.133
22383W        W90801  37.519  24.648  12.020
22384W        W90802  14.303   9.683   0.846
22385W        W90803  37.844  42.786  10.603
22386W        W90804   1.845  23.042   5.620
22387W        W90805  29.621   3.282  10.098
22388W        W90806  11.191  33.068   3.846
22389W        W90807  39.989   3.836   2.852
22390W        W90808  27.621  10.776   2.797
22391W        W90809  16.238  13.285  12.399
22392W        W90810   8.349  39.937   1.697
22393W        W90811  34.431  23.001  13.482
22394W        W90812   8.176   0.768  11.393
22395W        W90813   5.226  39.019  13.867
22396W        W90814  10.347  21.230   2.699
22397W        W90815  37.051  28.114  14.391
22398W        W90816  15.165  25.208   0.884
22399W        W90817  39.901  36.469   0.316
22400W        W90818  33.938  20.612   1.269
22401W        W90819  17.241  28.952   3.804
22402W        W90820   3.811   2.446  11.610
22403W        W90821  33.532  25.520   3.288
22404W        W90822  35.022   8.714  13.902
22405W        W90823  34.451  34.887  13.373
22406W        W90824  14.333  41.927   4.650
22407W        W90825  11.797  15.759  11.865
22408W        W90826  22.244  21.547  11.373
22409W        W90827  19.649  37.467  12.415
22410W        W90828   7.794  10.147   1.790
22411W        W90829   3.274  29.152  11.069
22412W        W90830  28.651  26.517  11.935
22413W        W90831  27.555  24.062  12.015
22414W        W90832  41.440  15.101  10.549
22415W        W90833  27.464  15.813   2.760
22416W        W90834  31.907  11.752   1.435
22417W        W90835  11.685  31.028   0.849
22418W        W90836   8.380   8.372  12.558
22419W        W90837  44.873  23.011  11.394
22420W        W90838  19.137  23.621  10.634
22421W        W90839  40.040  21.253  12.053
22422W        W90840  40.420  34.938   0.469
22423W        W90841   2.848  26.125  12.416
22424W        W90842  36.593  28.108  14.931
22425W        W90843  12.702   8.901   0.815
22426W        W90844  39.984  30.544  14.317
22427W        W90845  33.106  35.958  12.828
22428W        W90846  21.600  41.525  11.415
22429W        W90847  32.465  17.664  11.054
22430W        W90848  38.414  43.805  13.791
22431W        W90849  25.125   7.765  11.610
22432W        W90850   4.718  43.271  13.425
22433W        W90851  12.221  43.016  14.295
22434W        W90852  23.188   5.702  14.766
22435W        W90853  37.042  39.402  10.053
22436W        W90854  14.760  32.054   2.746
22437W        W90855  32.626  36.055  10.907
22438W        W90856  19.109  33.446   1.372
22439W        W90857  22.506  39.951  10.546
22440W        W90858  10.168  21.698   0.432
22441W        W90859   6.191  17.108  13.323
22442W        W90860  26.668   3.860   1.780
22443W        W90861  37.908  31.560   4.193
22444W        W90862  27.691  44.901  12.508
22445W        W90863  19.075   1.889  12.829
22446W        W90864  30.112  32.479  11.061
22447W        W90865  21.023   7.697   2.400
22448W        W90866  17.095  19.191  14.030
22449W        W90867  35.486  23.730   1.833
22450W        W90868  29.549   2.373   0.843
22451W        W90869   1.948  28.087  11.499
22452W        W90870  24.011  25.032  12.502
22453W        W90871  11.167  22.046   2.269
22454W        W90872  32.423  17.062   1.716
22455W        W90873  20.720   7.736   2.351
22456W        W90874  43.347  24.060  13.892
22457W        W90875  21.111  27.508   9.976
22458W        W90876  33.387  13.745  10.028
22459W        W90877  29.570  22.513   4.160
22460W        W90878  40.034  27.164   3.314
22461W        W90879  42.333  44.779  13.060
22462W        W90880   9.350  43.835   0.841
22463W        W90881  16.654  42.841   2.419
22464W        W90882  20.262   6.696  11.901
22465W        W90883  21.114   1.266  14.777
22466W        W90884  42.900  12.321   2.807
22467W        W90885  36.480   4.848  12.379
22468W        W90886  34.086  25.026  13.820
22469W        W90887  11.655  16.154  12.555
22470W        W90888  14.599   9.659   3.193
22471W        W90889  44.388   1.915   9.927
22472W        W90890  34.915  20.738   3.158
22473W        W90891  16.580  20.672  14.899
22474W        W90892  18.670  37.885  10.919
22475W        W90893  42.942  12.303   1.765
22476W        W90894  43.902  36.060   4.711
22477W        W90895  25.044  15.818   4.744
22478W        W90896  38.375  40.998   2.399
22479W        W90897  34.594   8.283   2.861
22480W        W90898  28.089  17.792   3.345
22481W        W90899   8.728  41.008   2.256
22482W        W90900  40.804  40.526  13.928
22483W        W90901  31.564   1.922   2.209
22484W        W90902  17.586  13.767   4.760
22485W        W90903   8.813   7.895  11.611
22486W        W90904  20.256  25.998  11.105
22487W        W90905   6.207   8.748  13.827
22488W        W90906  16.194   5.326  13.378
22489W        W90907   9.272   9.242   1.386
22490W        W90908   0.859  15.624   4.193
22491W        W90909  17.615   5.690   1.743
22492W        W90910  28.058  31.923  10.974
22493W        W90911   5.689  32.951   3.796
22494W        W90912  28.471  40.929  14.447
22495W        W90913  30.082  24.719  12.546
22496W        W90914   1.292   1.387  14.799
22497W        W90915  15.658  34.398  11.125
22498W        W90916  24.028  23.548   1.220
22499W        W90917  24.006  21.748   4.214
22500W        W90918  23.044   5.258  10.927
22501W        W90919  22.651   4.228   3.811
22502W        W90920  28.479   6.822   2.870
22503W        W90921   9.248  27.943  13.927
22504W        W90922  33.877  19.750   0.299
22505W        W90923  26.954   6.789   9.562
22506W        W90924  43.423  42.023  12.459
22507W        W90925  26.129   0.362   0.352
22508W        W90926  34.872  31.465  14.012
22509W        W90927  36.535  39.434   5.254
22510W        W90928   0.343  22.620  14.871
22511W        W90929  17.139  18.095   0.247
22512W        W90930   8.856  40.997  14.467
22513W        W90931  40.315  12.725   0.435
22514W        W90932  36.369  20.523   3.203
22515W        W90933   7.838   0.252  11.452
22516W        W90934   0.988  23.990   2.778
22517W        W90935  28.045  32.132  12.446
22518W        W90936  40.946   3.439  13.406
22519W        W90937  37.039  10.353  13.344
22520W        W90938  37.420   0.968  12.052
22521W        W90939  11.344   1.974  13.416
22522W        W90940   8.654  29.537  13.845
22523W        W90941   4.755  30.542  12.854
22524W        W90942  11.241  31.527   3.838
22525W        W90943  32.514   0.778   2.900
22526W        W90944  12.146  27.522   2.849
22527W        W90945  41.989  22.695  14.862
22528W        W90946  35.365  21.100   1.379
22529W        W90947  40.519   3.257   3.787
22530W        W90948  22.184  14.668  12.934
22531W        W90949  40.944  29.015   3.245
22532W        W90950  38.010  19.103  10.894
22533W        W90951  16.297  18.739   2.706
22534W        W90952  38.518   7.850   2.892
22535W        W90953  35.077  44.295   4.243
22536W        W90954  33.578  22.627   0.381
22537W        W90955  32.613  31.047   0.450
22538W        W90956  32.559   3.274   3.640
22539W        W90957   6.874  37.487  13.800
22540W        W90958  30.933  42.933  11.497
22541W        W90959  34.464  36.088   0.904
22542W        W90960  39.379  28.613   0.818
22543W        W90961   5.262  25.072  13.349
22544W        W90962  40.537  37.014  12.460
22545W        W90963  19.168   8.280  13.818
22546W        W90964  26.469   4.263  11.916
22547W        W90965   8.370  37.575  14.280
22548W        W90966  24.712  41.504  13.319
22549W        W90967  28.538   5.934   9.620
22550W        W90968  44.452  20.040   2.842
22551W        W90969  35.918  15.811  14.424
22552W        W90970  35.498  26.672   3.643
22553W        W90971  25.627  28.476   3.331
22554W        W90972  12.139  20.591   4.315
22555W        W90973  33.416  24.719   1.814
22556W        W90974  23.650  37.050  13.873
22557W        W90975   5.251  25.075  10.416
22558W        W90976  32.934  28.452   3.773
22559W        W90977  39.919  41.792  14.790
22560W        W90978  14.239   5.915  10.105
22561W        W90979  21.650  44.753  13.930
22562W        W90980  41.877  37.082   3.358
22563W        W90981  17.127  35.034   4.312
22564W        W90982  15.670  34.456  11.950
22565W        W90983  17.762  32.967   0.327
22566W        W90984  26.590  30.455  10.415
22567W        W90985  38.509   3.824  11.592
22568W        W90986  11.821   8.782  13.054
22569W        W90987   8.772  36.008   1.726
22570W        W90988  42.910   2.843   0.372
22571W        W90989  42.009  30.563  13.350
22572W        W90990  21.699   6.409  12.067
22573W        W90991   1.740  19.086   1.268
22574W        W90992  29.481  44.823  14.345
22575W        W90993  10.343  27.615  11.882
22576W        W90994  11.791   7.373  10.579
22577W        W90995  36.582   9.248  12.971
22578W        W90996  13.141  24.585   3.642
22579W        W90997  10.162  33.383   4.805
22580W        W90998   9.378  18.214   1.744
22581W        W90999   5.373  15.697   4.618
22582W        W91000  25.584  39.491  12.888
22583W        W91001  35.962  30.650   2.309
22584W        W91002  24.585  23.051   2.723
22585W        W91003  20.668  14.217  14.359
22586W        W91004  10.775  16.799  13.018
22587W        W91005  15.181  40.970  14.379
22588W        W91006  27.090  35.859   0.797
22589W        W91007  12.628  10.818   3.807
22590W        W91008  19.684  23.211   4.750
22591W        W91009   4.404  16.712  13.865
22592W        W91010  42.295  41.926  10.044
22593W        W91011  11.775  26.125   1.755
22594W        W91012  31.080  15.643  14.337
22595W        W91013  15.118  16.701  13.307
22596W        W91014  40.488  33.562  10.060
22597W        W91015  39.000  23.594   1.694
22598W        W91016  22.079  44.404  12.024
22599W        W91017  44.400  41.454   0.406
22600W        W91018  28.632  20.673  13.403
22601W        W91019   7.396  31.086  12.936
22602W        W91020   0.375  21.059   2.283
22603W        W91021   6.810  37.573   3.289
22604W        W91022  15.585  15.267   2.826
22605W        W91023  36.091  40.478   5.270
22606W        W91024   9.240   9.248  14.986
22607W        W91025  44.495  29.624   3.785
22608W        W91026  26.129  11.180  12.910
22609W        W91027   9.367  35.051   1.256
22610W        W91028  44.269  18.634  14.516
22611W        W91029  34.956  35.433  11.108
22612W        W91030  28.659  14.292  14.479
22613W        W91031   4.794  32.454  10.974
22614W        W91032  11.213  42.415   0.867
22615W        W91033  12.660  12.649  11.377
22616W        W91034  27.683  43.981  11.419
22617W        W91035   1.763   9.157  12.548
22618W        W91036  21.093  28.169   3.814
22619W        W91037  33.577   4.931  12.552
22620W        W91038  34.416  14.299  13.428
22621W        W91039  28.061  16.662   3.847
22622W        W91040  32.054   0.305  10.945
22623W        W91041  33.560  41.418   4.270
22624W        W91042   9.263  36.450  11.938
22625W        W91043  30.027  22.640  14.488
22626W        W91044  27.107  24.124   3.151
22627W        W91045  40.510  31.938  10.905
22628W        W91046  32.405  22.253  10.599
22629W        W91047   1.773  35.515  12.975
22630W        W91048  35.449   1.740   4.647
22631W        W91049   9.160  21.225  13.976
22632W        W91050  34.467  22.084  12.374
22633W        W91051  34.435  28.974  11.024
22634W        W91052  35.520  18.070   2.877
22635W        W91053  26.596  21.525  12.904
22636W        W91054  34.065  35.370  11.082
22637W        W91055  31.462  42.334  14.879
22638W        W91056   2.392  36.542   4.807
22639W        W91057   8.279  44.314   3.149
22640W        W91058  34.078  42.390  13.325
22641W        W91059  10.247   0.901  14.435
22642W        W91060  35.012  39.370   3.278
22643W        W91061  22.117   0.988  13.955
22644W        W91062  36.909  10.227  11.089
22645W        W91063  40.952  30.469  12.833
22646W        W91064  22.675  21.089  14.332
22647W        W91065  24.218   4.211  13.992
22648W        W91066  23.630  28.167  12.011
22649W        W91067   5.367  22.671   1.757
22650W        W91068  21.207  21.535   3.676
22651W        W91069  26.612  12.246  11.933
22652W        W91070  40.429   9.288   4.827
22653W        W91071  10.857  32.951   0.419
22654W        W91072  32.431  36.970  13.339
22655W        W91073   6.302  32.985  14.965
22656W        W91074  38.845  12.201  13.850
22657W        W91075  21.532  30.432  11.531
22658W        W91076  28.550  35.997  12.467
22659W        W91077  16.732  28.095   0.425
22660W        W91078  10.349  30.502   0.866
22661W        W91079  26.992  14.143   2.410
22662W        W91080  32.933  23.669  12.550
22663W        W91081  35.405  20.761   3.824
22664W        W91082  28.497  32.515  12.907
22665W        W91083   0.405  20.621  10.645
22666W        W91084  36.447  17.294  14.809
22667W        W91085  40.364  21.642   2.277
22668W        W91086  42.028  41.423   9.937
22669W        W91087  36.395  21.124  13.036
22670W        W91088  42.492  19.728  12.064
22671W        W91089  39.539  19.647  12.557
22672W        W91090  14.793  41.908   2.218
22673W        W91091  20.056  34.408   1.423
22674W        W91092  19.652  16.695   1.890
22675W        W91093  13.712   9.228  14.380
22676W        W91094  23.511   5.851   2.702
22677W        W91095  43.425  35.358  14.381
22678W        W91096  17.747  14.682  13.825
22679W        W91097   5.223  20.191  11.043
22680W        W91098  31.142  20.653   2.188
22681W        W91099  39.442  35.055  14.906
22682W        W91100  44.921  34.955   2.338
22683W        W91101  15.317  40.319   4.306
22684W        W91102  24.988   9.889  13.450
22685W        W91103  27.106  16.693   0.856
22686W        W91104   4.442   8.712   1.735
22687W        W91105  10.374  24.525   0.330
22688W        W91106  23.572   4.700   2.844
22689W        W91107  18.694  15.812  14.343
22690W        W91108  22.577  10.226   3.638
22691W        W91109  10.868  12.308   1.352
22692W        W91110  30.984  44.935  13.029
22693W        W91111  20.726  26.632   4.226
22694W        W91112   0.248  43.854  12.844
22695W        W91113   6.778  22.663  14.433
22696W        W91114   8.752  22.736   1.818
22697W        W91115   7.766  31.024  10.488
22698W        W91116   8.691  28.511  13.375
22699W        W91117  32.400  10.688  14.004
22700W        W91118  26.626  26.988   2.665
22701W        W91119  22.732  14.617  12.910
22702W        W91120  36.578  34.414  11.965
22703W        W91121   5.369  10.765   0.743
22704W        W91122  33.526   1.847  10.644
22705W        W91123  27.119  33.123  14.346
22706W        W91124  21.159  25.001  11.076
22707W        W91125  30.563  14.272   2.242
22708W        W91126   8.710  39.821  14.506
22709W        W91127  41.987  39.350  11.397
22710W        W91128  36.574  30.987  13.397
22711W        W91129  38.341  31.562   3.194
22712W        W91130   4.277   3.776   1.300
22713W        W91131  39.952  10.716   3.385
22714W        W91132  16.170  37.422   2.814
22715W        W91133  39.498   2.773   1.307
22716W        W91134  33.105  30.092   0.882
22717W        W91135  40.353  35.956   3.251
22718W        W91136  35.413  19.151   4.689
22719W        W91137  29.942  14.253  14.874
22720W        W91138  44.280  12.323  14.851
22721W        W91139  40.857  14.697   1.796
22722W        W91140  27.010  34.430   4.204
22723W        W91141   4.343  26.461   4.662
22724W        W91142   7.389  33.566   2.267
22725W        W91143  17.676  17.775  13.475
22726W        W91144  41.810   0.279  11.867
22727W        W91145  13.268  32.432  12.530
22728W        W91146  43.899  43.009  14.931
22729W        W91147  20.119   2.962   3.717
22730W        W91148   2.903   2.862  11.001
22731W        W91149   5.855   3.776  13.467
22732W        W91150  41.026  24.989  12.890
22733W        W91151  43.921  31.552   0.421
22734W        W91152  37.529  39.935   2.338
22735W        W91153  13.190  12.356  11.387
22736W        W91154  12.156  38.043   4.705
22737W        W91155  20.746   3.919   3.227
22738W        W91156  15.744  36.087   4.207
22739W        W91157  26.530   7.747   3.808
22740W        W91158  30.517  15.763  11.391
22741W        W91159  13.657  20.066   1.900
22742W        W91160  12.762  27.566  12.463
22743W        W91161  32.104  27.133  13.447
22744W        W91162  43.502  18.121  13.417
22745W        W91163  43.938  24.179  11.499
22746W        W91164  15.666   4.715   2.402
22747W        W91165   7.734   0.871  13.059
22748W        W91166  35.373   4.838   1.210
22749W        W91167  32.996  30.014   4.732
22750W        W91168  12.627  29.995   3.190
22751W        W91169  16.740  25.665   4.182
22752W        W91170   5.885  30.433  13.460
22753W        W91171  12.193  12.689   4.132
22754W        W91172  30.958  30.626  13.502
22755W        W91173   6.212  44.500  13.815
22756W        W91174  42.020  34.547  11.996
22757W        W91175   4.327  15.104  11.026
22758W        W91176  39.982   7.286   4.208
22759W        W91177  31.470  36.018  10.938
22760W        W91178  39.435  12.715  13.526
22761W        W91179  44.898  36.474   2.321
22762W        W91180  21.045   6.392   2.398
22763W        W91181  26.574  32.909  10.113
22764W        W91182   3.370   3.727   4.745
22765W        W91183   5.818  41.494   3.682
22766W        W91184   5.743  28.559  13.365
22767W        W91185  32.577   2.472  12.834
22768W        W91186  11.803   5.223   0.829
22769W        W91187  32.442  16.318  13.410
22770W        W91188  31.439  23.215   0.406
22771W        W91189  10.784  35.001   2.222
22772W        W91190  35.534  28.010   2.716
22773W        W91191  30.597  18.185  13.473
22774W        W91192  36.393   1.255   1.918
22775W        W91193  11.763   4.919   2.801
22776W        W91194  10.832  42.924   3.215
22777W        W91195  25.154  37.899   3.807
22778W        W91196  15.298  20.267   3.774
22779W        W91197   8.713  17.574  12.903
22780W        W91198  27.636  40.841  13.986
22781W        W91199   6.903  23.192   0.467
22782W        W91200   1.403  12.247   1.895
22783W        W91201   5.386  40.903  13.893
22784W        W91202  31.543  34.080  14.316
22785W        W91203   4.797  32.928   2.763
22786W        W91204  14.816  35.462   3.363
22787W        W91205   1.808  42.022   1.776
22788W        W91206  12.627  26.052  11.926
22789W        W91207  38.825  42.835  10.631
22790W        W91208  24.033   9.693   2.715
22791W        W91209  31.940  18.286   1.790
22792W        W91210  43.350  33.903  11.932
22793W        W91211  12.739   9.202   4.140
22794W        W91212   7.682  37.929  11.884
22795W        W91213  10.704  25.501   3.313
22796W        W91214  38.040  42.331  14.011
22797W        W91215  29.513  18.078   2.367
22798W        W91216  22.693  28.050   4.277
22799W        W91217  25.678  27.949  12.510
22800W        W91218   9.280  19.626  13.031
22801W        W91219  18.785   5.382   4.769
22802W        W91220   7.230   0.403  10.978
22803W        W91221   8.302  33.451  11.572
22804W        W91222  28.548  23.129  14.868
22805W        W91223  40.411  43.957   1.721
22806W        W91224  10.745  37.519   3.293
22807W        W91225  36.357  29.057   0.734
22808W        W91226  15.281  37.016  14.009
22809W        W91227   0.747  31.069   1.861
22810W        W91228  17.620   3.735  11.113
22811W        W91229   1.297   9.271   4.241
22812W        W91230  11.289  18.670  13.312
22813W        W91231  41.513  24.172  13.962
22814W        W91232  41.493  19.158  11.046
22815W        W91233  12.255  30.484   0.727
22816W        W91234   6.380  23.137  14.817
22817W        W91235  43.849  38.835   1.844
22818W        W91236  25.183  23.105   1.332
22819W        W91237  18.583  33.447  13.454
22820W        W91238  43.299  13.730   1.775
22821W        W91239  16.752   6.230  13.315
22822W        W91240  29.031  19.607  13.402
22823W        W91241  34.097  11.363  13.894
22824W        W91242  33.066  12.842  11.394
22825W        W91243   8.321  20.207  14.326
22826W        W91244  42.892   3.423   3.803
22827W        W91245  33.614  15.729  10.514
22828W        W91246  29.975   4.791  10.492
22829W        W91247   5.707  18.092   4.338
22830W        W91248  36.380  39.969  10.468
22831W        W91249  38.350  22.613   1.367
22832W        W91250   0.459   0.899   3.177
22833W        W91251  38.057  12.668  14.330
22834W        W91252  11.811   3.774   1.904
22835W        W91253  13.818  43.989  11.530
22836W        W91254  42.002  15.083  12.449
22837W        W91255  31.582  12.786  12.934
22838W        W91256  31.963  39.326  12.843
22839W        W91257  39.468  42.871  11.563
22840W        W91258  31.584  35.515  11.080
22841W        W91259  33.929  31.963   1.213
22842W        W91260  13.753  42.838  12.950
22843W        W91261  27.568  19.097   0.870
22844W        W91262  30.081  44.753   1.315
22845W        W91263  39.545  40.843   0.294
22846W        W91264  44.356  24.115   4.731
22847W        W91265   5.894  40.334   3.708
22848W        W91266  12.296  33.063  11.948
22849W        W91267   6.756  25.985   1.705
22850W        W91268   0.784   9.707  14.922
22851W        W91269  15.638   1.831  13.499
22852W        W91270  25.987  43.871   1.354
22853W        W91271  16.308   4.764   2.862
22854W        W91272   8.682  36.508  12.005
22855W        W91273   0.422   9.210  12.539
22856W        W91274  34.490   6.389  11.556
22857W        W91275  15.632   9.744   2.310
22858W        W91276   0.818  30.129   2.663
22859W        W91277   9.361   7.247   4.798
22860W        W91278  22.563  29.476   2.387
22861W        W91279  38.029  31.948  13.359
22862W        W91280  27.592  24.996   3.328
22863W        W91281  33.402  13.837  14.987
22864W        W91282  11.286   5.835   2.814
22865W        W91283  33.035   9.762   1.861
22866W        W91284  39.492  40.373  12.048
22867W        W91285   9.236   0.917   2.820
22868W        W91286  21.175  15.613   3.261
22869W        W91287  24.031   9.812  14.349
22870W        W91288  37.838  17.223  11.444
22871W        W91289  18.069  37.412  12.478
22872W        W91290  23.113  16.309   3.204
22873W        W91291  29.077  24.576   4.653
22874W        W91292  34.985  32.122  12.503
22875W        W91293  17.770  24.085   0.860
22876W        W91294  25.006  44.392   1.210
22877W        W91295  10.782  30.123   2.667
22878W        W91296  30.548  12.618  13.863
22879W        W91297  16.784   4.326   1.750
22880W        W91298  15.226  25.051   2.298
22881W        W91299  12.824   1.797   3.270
22882W        W91300  19.771  37.445  13.793
22883W        W91301   6.767  10.320  11.462
22884W        W91302   8.307   8.202   2.782
22885W        W91303  28.167   6.758  12.003
22886W        W91304  38.491  11.337  13.916
22887W        W91305  25.491  30.981  12.069
22888W        W91306  22.687   5.200  14.410
22889W        W91307  29.537  44.456  12.466
22890W        W91308  30.432  26.188  10.959
22891W        W91309  30.493  34.520  10.433
22892W        W91310   8.900   7.411   2.364
22893W        W91311  43.963  18.119  11.103
22894W        W91312  28.093  23.067   3.713
22895W        W91313  31.083  43.470   0.877
22896W        W91314   8.394  25.708   2.693
22897W        W91315  30.125  35.463   4.254
22898W        W91316   8.362  20.541  14.282
22899W        W91317  40.902   2.467   3.859
22900W        W91318   7.327  20.581  11.436
22901W        W91319   5.345  19.142  14.936
22902W        W91320  39.856   1.238  13.004
22903W        W91321  31.608  15.609  10.561
22904W        W91322  19.713  40.006   0.262
22905W        W91323  32.472  15.313  14.371
22906W        W91324  11.322  26.519  10.468
22907W        W91325  35.593   6.191  12.903
22908W        W91326  39.064  43.969   1.261
22909W        W91327  32.123  25.514   1.297
22910W        W91328  14.673  15.320  11.517
22911W        W91329  35.898  36.500   5.196
22912W        W91330   1.883  21.515  12.873
22913W        W91331  37.447  21.711   1.934
22914W        W91332  32.128   7.689   4.746
22915W        W91333   7.366  44.411  14.964
22916W        W91334   0.854  39.413   0.807
22917W        W91335  27.144   2.237   1.347
22918W        W91336  20.621  33.065  14.991
22919W        W91337   5.261   9.770   1.915
22920W        W91338   3.328  10.256   3.154
22921W        W91339   2.878  30.632   2.318
22922W        W91340  44.893   1.416   3.692
22923W        W91341  22.728  30.576  13.399
22924W        W91342   7.891   6.912  11.465
22925W        W91343  42.505  11.246   2.847
22926W        W91344  39.875  16.164   4.664
22927W        W91345  27.084   8.770   4.206
22928W        W91346  25.560  33.014  14.383
22929W        W91347  42.843  43.289   3.818
22930W        W91348  30.107  28.554  14.907
22931W        W91349  40.961  42.440   4.164
22932W        W91350  20.229   8.169  11.014
22933W        W91351  16.676   1.403   3.153
22934W        W91352  33.941  21.155   4.326
22935W        W91353  34.525  16.810   4.165
22936W        W91354  35.503  10.760   2.216
22937W        W91355  42.800  41.500   5.301
22938W        W91356  29.987  42.021   1.791
22939W        W91357  20.135  38.939   2.415
22940W        W91358   5.325   2.394  12.939
22941W        W91359  33.498  39.842   2.784
22942W        W91360  44.317  33.086  11.517
22943W        W91361  26.071  19.687  13.989
22944W        W91362  39.909  20.632   4.690
22945W        W91363  34.467  30.087  10.559
22946W        W91364  12.671  29.919   0.818
22947W        W91365  32.950  26.651  13.931
22948W        W91366  14.166  11.779   3.362
22949W        W91367  15.135  30.506   1.384
22950W        W91368  23.067   7.405  10.461
22951W        W91369  10.673  26.522  10.481
22952W        W91370  37.396  34.477   4.185
22953W        W91371  44.936  28.639  12.004
22954W        W91372  27.942  13.782   4.666
22955W        W91373  38.918  17.207  14.945
22956W        W91374   8.261   8.787  14.940
22957W        W91375  32.567  33.396  11.123
22958W        W91376  36.355   2.787  12.551
22959W        W91377   9.785  17.658  12.561
22960W        W91378  40.830  27.081   0.728
22961W        W91379  38.330  38.557   2.840
22962W        W91380  38.061  23.510  13.367
22963W        W91381  27.573  14.127   0.813
22964W        W91382  29.472  19.091   0.770
22965W        W91383  38.975  12.700   3.384
22966W        W91384  43.834  14.604   5.262
22967W        W91385   3.288  43.948  11.915
22968W        W91386   2.443  36.011   3.238
22969W        W91387  34.003  10.724  11.534
22970W        W91388  41.963  28.469   4.618
22971W        W91389  22.237  27.076  13.382
22972W        W91390  15.597  24.520  12.364
22973W        W91391  12.636  21.585  14.317
22974W        W91392  29.665  16.200  12.005
22975W        W91393  30.611  37.889   0.885
22976W        W91394   6.731  11.812  11.553
22977W        W91395  26.134  38.030  12.918
22978W        W91396  33.486  20.759  12.934
22979W        W91397  43.284  37.502   3.292
22980W        W91398   7.773  37.523   5.177
22981W        W91399  33.439  32.905   0.370
22982W        W91400  19.547  28.113  12.884
22983W        W91401  24.642  29.631  10.974
22984W        W91402   8.220  36.980  11.874
22985W        W91403   2.867  33.522   4.333
22986W        W91404  35.042  32.034  11.107
22987W        W91405  14.589  10.278  11.873
22988W        W91406  39.316  13.343  13.360
22989W        W91407  13.124  41.471  13.798
22990W        W91408  22.191  41.354   3.634
22991W        W91409   8.164  13.706  11.519
22992W        W91410   1.755  32.997  11.930
22993W        W91411  42.964  15.231   3.845
22994W        W91412  44.903  40.407   1.295
22995W        W91413  20.232  15.716   9.976
22996W        W91414  11.667  40.311  12.840
22997W        W91415  16.247   6.688   0.905
22998W        W91416  43.009  24.679  12.045
22999W        W91417  23.683  24.134   0.816
23000W        W91418  20.608  27.682   2.714
23001W        W91419  19.534   3.424   3.342
23002W        W91420   8.811  35.890   4.210
23003W        W91421  12.722   3.461   2.828
23004W        W91422  39.465  26.958  12.348
23005W        W91423   0.423  42.920   1.816
23006W        W91424  25.578  21.601  14.833
23007W        W91425   6.212  33.577   0.810
23008W        W91426   9.669   1.413  14.876
23009W        W91427  25.661  30.041   3.316
23010W        W91428  24.511  13.839   3.281
23011W        W91429  31.407  29.074  13.034
23012W        W91430   2.930  39.057  13.432
23013W        W91431  25.636  39.988   2.291
23014W        W91432  29.068  26.132  14.807
23015W        W91433  17.149  35.969   3.320
23016W        W91434  21.259  13.336   0.881
23017W        W91435  25.484  11.747  11.947
23018W        W91436   9.295  44.268   4.277
23019W        W91437  19.233  41.518  13.893
23020W        W91438  16.149  21.640   0.357
23021W        W91439  29.929  10.807  10.912
23022W        W91440  22.032   1.940   0.437
23023W        W91441  29.601   3.928   4.682
23024W        W91442  21.660  33.953   4.759
23025W        W91443   2.435  23.655   3.339
23026W        W91444  31.065  43.953   0.372
23027W        W91445  28.150  15.114  10.918
23028W        W91446  37.423  14.175   3.302
23029W        W91447  14.797  13.799  14.790
23030W        W91448  42.929  32.438   2.231
23031W        W91449  20.246  18.653   1.776
23032W        W91450  23.549  16.184   4.796
23033W        W91451   8.825  42.471   1.754
23034W        W91452  42.299  32.624  11.882
23035W        W91453  21.030   8.874   2.842
23036W        W91454   1.909  21.692  10.931
23037W        W91455  23.702  31.514   3.739
23038W        W91456   5.819  20.735   0.359
23039W        W91457  19.594  42.380   3.217
23040W        W91458   5.914  21.713  12.873
23041W        W91459   3.915   9.377  13.470
23042W        W91460   4.224  32.017   1.918
23043W        W91461   1.866  22.742   5.148
23044W        W91462   5.879  10.849  11.108
23045W        W91463  11.690  33.581   1.213
23046W        W91464  33.588  17.252  14.019
23047W        W91465  27.007  33.924  14.865
23048W        W91466   5.207  11.358   3.698
23049W        W91467  20.643  24.134   5.215
23050W        W91468  36.018   0.954  11.418
23051W        W91469  34.588  38.014  11.380
23052W        W91470  23.167  22.734   0.453
23053W        W91471  25.964  20.745   0.934
23054W        W91472  30.019  25.986  11.478
23055W        W91473  38.340  36.953  12.031
23056W        W91474  44.831  42.473  14.480
23057W        W91475  34.040   0.851  11.485
23058W        W91476  24.661  19.595  12.381
23059W        W91477  29.555  20.652   0.302
23060W        W91478   4.252  28.457   2.322
23061W        W91479  25.140   0.282  11.508
23062W        W91480   3.916  36.502   0.446
23063W        W91481   0.783  13.610  11.917
23064W        W91482  16.661   5.203   2.850
23065W        W91483  34.009  27.125  14.293
23066W        W91484  24.985   9.828  10.951
23067W        W91485   1.423  12.234   3.805
23068W        W91486   4.439  14.187  13.918
23069W        W91487  24.975  35.465   0.903
23070W        W91488  38.924  37.492   0.874
23071W        W91489  29.657  12.144  11.423
23072W        W91490  17.275  12.747  12.911
23073W        W91491  44.901  36.392   1.358
23074W        W91492  35.014  17.212  10.624
23075W        W91493  25.650  34.116   4.116
23076W        W91494  39.927  30.631   2.285
23077W        W91495  23.105  27.520  11.563
23078W        W91496  30.963  35.551   4.746
23079W        W91497  32.394   1.254  11.455
23080W        W91498  16.194  35.527   2.678
23081W        W91499  43.935   2.351  12.490
23082W        W91500  32.073   3.770   0.921
23083W        W91501  13.744  40.877   1.405
23084W        W91502  30.571  37.918  14.388
23085W        W91503  40.857  42.299  12.855
23086W        W91504  14.137  39.515   3.656
23087W        W91505  25.685   6.333  14.881
23088W        W91506  26.084  23.106   0.955
23089W        W91507   6.309   2.768  10.645
23090W        W91508   4.274  40.482  11.922
23091W        W91509  19.553  43.967   0.966
23092W        W91510  17.307  16.182   0.909
23093W        W91511   7.402  14.317  14.473
23094W        W91512  42.967  19.232   0.855
23095W        W91513  14.826  14.829   2.415
23096W        W91514  26.172   4.928  10.462
23097W        W91515  10.139   6.899   3.308
23098W        W91516  24.496  28.639  12.486
23099W        W91517  37.914  21.154   1.781
23100W        W91518  26.028  28.642  11.915
23101W        W91519   7.680  23.125   2.766
23102W        W91520  42.965  41.530   0.894
23103W        W91521  35.547   6.345  11.518
23104W        W91522  12.294  34.530  12.055
23105W        W91523  12.676  43.781   1.874
23106W        W91524   3.214   6.355  14.387
23107W        W91525  38.032  12.709   2.187
23108W        W91526   1.388  32.525  14.868
23109W        W91527  31.118   0.940   3.378
23110W        W91528  22.064  10.826   3.252
23111W        W91529  16.271   6.845  14.477
23112W        W91530  24.510   9.663   1.867
23113W        W91531  17.756  39.336   3.187
23114W        W91532  29.068  24.611   3.291
23115W        W91533  25.489   3.799  13.025
23116W        W91534  32.109   4.428   2.837
23117W        W91535  37.374  28.969  14.867
23118W        W91536  31.024   7.256   1.797
23119W        W91537  34.433   3.795   0.927
23120W        W91538  27.470  33.534  12.843
23121W        W91539  10.801  28.042  11.926
23122W        W91540  37.070   4.717   1.737
23123W        W91541  39.046  38.873  10.934
23124W        W91542  11.865  15.650   1.860
23125W        W91543  35.006   2.751   0.363
23126W        W91544  37.840  17.572  13.054
23127W        W91545  38.861   5.313  11.612
23128W        W91546   9.207   7.685  13.407
23129W        W91547  40.032  27.552  13.910
23130W        W91548  33.402  15.688   4.655
23131W        W91549   3.345  34.441   0.271
23132W        W91550  21.680   1.427   1.368
23133W        W91551  40.489   6.353  11.435
23134W        W91552  10.741   3.367  10.635
23135W        W91553  39.044  18.720  13.397
23136W        W91554  17.799  12.675  13.015
23137W        W91555  38.431  13.686   0.461
23138W        W91556  33.576  31.898  13.337
23139W        W91557  13.730  17.687   2.262
23140W        W91558  43.426  15.293  11.505
23141W        W91559  32.583   5.246   0.341
23142W        W91560  33.043  18.622  14.958
23143W        W91561  39.494  44.489  14.921
23144W        W91562  39.000  25.550  12.989
23145W        W91563  35.953  19.211  10.427
23146W        W91564  40.879   9.325   2.268
23147W        W91565  27.593   2.963   3.790
23148W        W91566  38.049   2.441   3.309
23149W        W91567   1.944  26.557   2.244
23150W        W91568   3.279  40.041  13.505
23151W        W91569   3.454   7.893   3.209
23152W        W91570  11.813  19.705   1.895
23153W        W91571  24.145  19.250  13.992
23154W        W91572  34.447  39.944  13.524
23155W        W91573  36.037   7.377  14.840
23156W        W91574  13.796  34.561   0.859
23157W        W91575  31.542  13.800   4.277
23158W        W91576   2.919  43.930   2.884
23159W        W91577  26.161  17.205   1.781
23160W        W91578   5.807  20.036  14.780
23161W        W91579   1.251   0.934  12.513
23162W        W91580  41.419  38.546  11.089
23163W        W91581  44.889  27.641  13.351
23164W        W91582  22.078   3.717  14.953
23165W        W91583  16.670   1.749   0.901
23166W        W91584  34.007   5.233   3.182
23167W        W91585   7.822  35.980   2.845
23168W        W91586  10.220  37.438   0.325
23169W        W91587  20.697   6.282  12.564
23170W        W91588  13.166  44.816  11.443
23171W        W91589  22.169   4.905  10.946
23172W        W91590  17.146   5.408   5.225
23173W        W91591  13.247  12.249  11.885
23174W        W91592  10.669  37.371   5.138
23175W        W91593   5.222  12.329  11.579
23176W        W91594  28.981   0.814  14.877
23177W        W91595  11.735  26.186   1.357
23178W        W91596   7.732   8.795   4.255
23179W        W91597  26.491  28.970   2.797
23180W        W91598  26.157   9.387  10.111
23181W        W91599  13.265   2.854  10.545
23182W        W91600  26.166  22.135   3.376
23183W        W91601  15.089  14.095  14.898
23184W        W91602  29.963  15.745   4.667
23185W        W91603  13.304   4.858   2.212
23186W        W91604   4.402   8.233   2.795
23187W        W91605  43.851  40.981  13.350
23188W        W91606  28.020   0.393   1.298
23189W        W91607  30.115   8.195   2.285
23190W        W91608  11.296  43.491   4.636
23191W        W91609  29.052  26.609  13.035
23192W        W91610  44.302   7.840  13.790
23193W        W91611   4.903  41.881  11.445
23194W        W91612  33.918  34.058   0.897
23195W        W91613  13.182  39.384   4.648
23196W        W91614   0.326   9.659  11.019
23197W        W91615   0.760   3.345  14.492
23198W        W91616  42.885  33.924  10.578
23199W        W91617  33.927  34.919   1.723
23200W        W91618  11.323  36.573  14.328
23201W        W91619  15.269  12.713  10.612
23202W        W91620   8.690  12.766   4.833
23203W        W91621   6.683  40.978  13.524
23204W        W91622  15.586  35.432  14.998
23205W        W91623  23.690  39.951  13.382
23206W        W91624  18.185  43.832  11.092
23207W        W91625  41.523  43.805  14.894
23208W        W91626  30.582  27.983   3.640
23209W        W91627   3.758   0.826   4.265
23210W        W91628   2.905  13.600  11.040
23211W        W91629  27.516  24.481  12.965
23212W        W91630  16.765   2.446   2.241
23213W        W91631  20.039  19.065  13.336
23214W        W91632  31.960  44.339  14.344
23215W        W91633   5.788  14.708   1.377
23216W        W91634   2.892  42.322  10.956
23217W        W91635  43.473  34.003   3.831
23218W        W91636  17.126   0.334   1.356
23219W        W91637  39.921   1.946   0.331
23220W        W91638   1.407  38.563   0.262
23221W        W91639  13.166  29.137   1.733
23222W        W91640  40.530  24.512  12.005
23223W        W91641  30.627  41.451  14.402
23224W        W91642  38.847  31.994   2.794
23225W        W91643  38.050   2.906   0.463
23226W        W91644  34.989   1.290   0.427
23227W        W91645  37.379  16.682   1.347
23228W        W91646  19.119  40.346  12.823
23229W        W91647  11.126  23.598  14.469
23230W        W91648  34.967  36.542   2.677
23231W        W91649  16.656   8.357   0.320
23232W        W91650   8.273   0.386  11.094
23233W        W91651  14.750  39.941  14.996
23234W        W91652  33.424  31.907  10.431
23235W        W91653   1.808  22.112   0.791
23236W        W91654  35.091  30.477   2.418
23237W        W91655  23.585  28.022   1.896
23238W        W91656  19.127  33.586  13.320
23239W        W91657  30.096  28.450   1.911
23240W        W91658  41.812  22.098  14.909
23241W        W91659  19.582  27.078   1.768
23242W        W91660   8.889  31.900   1.898
23243W        W91661   5.433  26.065  11.412
23244W        W91662  44.373  11.368   1.713
23245W        W91663   8.283  18.157   4.800
23246W        W91664   2.373  40.011  11.127
23247W        W91665  31.010   1.458   0.249
23248W        W91666  42.431  44.455   0.304
23249W        W91667   0.898  44.785  14.515
23250W        W91668   0.331   0.847   4.308
23251W        W91669   1.479  44.491  13.973
23252W        W91670  15.265   8.220  10.468
23253W        W91671  31.429  29.429   4.756
23254W        W91672   9.194  13.135  12.397
23255W        W91673  13.760   8.162   4.793
23256W        W91674   1.325  22.202   4.718
23257W        W91675   3.787  12.689   0.307
23258W        W91676  13.203  32.970   4.128
23259W        W91677  29.020  34.905  10.497
23260W        W91678  19.679  39.388   3.145
23261W        W91679  32.520  44.846  11.492
23262W        W91680  23.529  26.102  14.462
23263W        W91681  13.307  36.872   1.364
23264W        W91682  42.889  11.239   1.210
23265W        W91683  18.747   2.748   4.149
23266W        W91684   9.764   6.812  13.832
23267W        W91685  38.480  12.226  12.394
23268W        W91686  12.206  30.144  10.550
23269W        W91687  43.909  31.568   3.767
23270W        W91688   2.336   6.247   3.207
23271W        W91689   9.742  19.620  12.921
23272W        W91690  43.919   4.932  12.462
23273W        W91691  41.391  18.276  11.456
23274W        W91692  30.045  33.057   2.381
23275W        W91693  43.919  35.451   4.621
23276W        W91694  35.496  39.957   3.812
23277W        W91695  19.695  16.657  10.057
23278W        W91696   5.421  13.792   4.214
23279W        W91697  33.944  34.923  11.897
23280W        W91698  18.251  24.685  14.416
23281W        W91699  16.289   7.397  10.563
23282W        W91700   5.719  34.505  14.849
23283W        W91701   5.392  37.503  14.393
23284W        W91702  33.408  18.753  12.014
23285W        W91703   3.281  32.634   1.932
23286W        W91704   3.898   6.193   4.183
23287W        W91705   8.659   2.961   2.752
23288W        W91706  40.335   5.787   2.838
23289W        W91707  28.109  32.607  11.389
23290W        W91708  21.151  41.980   1.888
23291W        W91709  13.760   4.276  11.441
23292W        W91710   5.714  36.941   1.925
23293W        W91711  40.042  32.063   2.264
23294W        W91712  31.044  39.509   1.339
23295W        W91713  22.141  11.241   2.337
23296W        W91714  40.967  39.942   2.290
23297W        W91715  32.501   1.307  13.507
23298W        W91716  11.197  30.920   0.327
23299W        W91717   0.474  13.141   0.272
23300W        W91718  25.543   6.865   4.833
23301W        W91719  38.535  28.627   1.218
23302W        W91720   9.233  27.689  12.555
23303W        W91721  16.642  16.618   3.263
23304W        W91722   8.290  29.591  13.507
23305W        W91723  42.514  16.293  13.404
23306W        W91724  24.128  13.286  13.336
23307W        W91725  20.666   8.336   0.739
23308W        W91726  35.502  36.981   1.376
23309W        W91727  21.042  27.691  10.976
23310W        W91728  33.040  33.537  10.921
23311W        W91729   7.756  43.766  11.501
23312W        W91730  15.229  21.020  11.551
23313W        W91731   1.355  39.015  10.934
23314W        W91732  41.504  28.132  14.031
23315W        W91733  11.639  30.079  13.901
23316W        W91734  20.738  44.934   2.678
23317W        W91735  35.472   7.803  11.969
23318W        W91736  36.843  35.023  11.861
23319W        W91737   6.724   9.643  12.428
23320W        W91738  44.832  20.743  13.357
23321W        W91739  10.302   6.806   0.879
23322W        W91740  26.530  41.949   3.778
23323W        W91741  31.122  23.100   0.323
23324W        W91742  25.470  32.017  13.397
23325W        W91743  13.737  43.933   0.417
23326W        W91744  44.346  30.159  13.473
23327W        W91745  35.908  35.404   4.796
23328W        W91746  30.991  25.075   2.851
23329W        W91747  33.879  19.246   2.668
23330W        W91748  33.582  34.582   3.232
23331W        W91749  17.307   6.762   2.212
23332W        W91750  15.611  26.088  14.360
23333W        W91751  15.696  26.149   0.805
23334W        W91752  19.679  37.069   4.601
23335W        W91753  10.350  35.863   2.328
23336W        W91754  38.350  27.074  11.930
23337W        W91755   2.450  44.928   2.773
23338W        W91756   8.844  13.206   1.392
23339W        W91757  30.125  37.870   3.685
23340W        W91758  42.933  27.102  13.325
23341W        W91759  38.907  13.283   3.660
23342W        W91760  40.820  33.541   0.832
23343W        W91761   6.729  13.191  11.415
23344W        W91762  14.215   4.808  10.574
23345W        W91763   3.925  44.390   3.826
23346W        W91764  17.758   7.377   1.810
23347W        W91765  28.997  13.706   1.847
23348W        W91766  35.075  22.707   4.838
23349W        W91767  39.931  28.984  13.856
23350W        W91768  24.719  40.888   0.395
23351W        W91769   5.194  41.363  11.099
23352W        W91770  36.432  37.087   0.317
23353W        W91771  40.984   7.677   3.211
23354W        W91772  41.843   6.213  11.048
23355W        W91773  13.344   4.913  11.499
23356W        W91774   2.236  27.494  13.870
23357W        W91775  35.887  18.216   4.630
23358W        W91776  40.975   8.712  14.448
23359W        W91777   3.741   2.889  14.278
23360W        W91778  37.871  27.607   1.384
23361W        W91779  23.562  41.898   3.844
23362W        W91780  22.663   1.948   4.746
23363W        W91781  44.346  26.685  11.002
23364W        W91782  34.512  14.296  12.437
23365W        W91783  34.905  10.254   3.315
23366W        W91784  13.194   6.905   1.413
23367W        W91785  23.168   8.246  12.036
23368W        W91786  12.796  22.114   0.462
23369W        W91787  36.411  20.241  10.498
23370W        W91788  33.129   6.362   3.688
23371W        W91789  22.592  36.418   1.417
23372W        W91790  21.188  17.091   1.342
23373W        W91791   5.238   0.488  13.889
23374W        W91792   4.813  34.093  12.992
23375W        W91793   6.693  14.803   2.699
23376W        W91794  39.902  25.218  13.357
23377W        W91795  15.655  41.896   1.799
23378W        W91796  40.532  17.753   1.325
23379W        W91797  13.702  41.802  14.849
23380W        W91798  17.146  19.747  13.832
23381W        W91799  18.765  19.628  11.397
23382W        W91800  18.220   3.894  11.126
23383W        W91801  33.550  42.838  13.397
23384W        W91802  13.740  24.973   2.328
23385W        W91803  16.725  21.681   1.224
23386W        W91804  33.471  18.789  12.430
23387W        W91805  23.074  22.196  11.537
23388W        W91806  11.781  28.594  13.490
23389W        W91807  42.518  15.652  12.837
23390W        W91808  10.702  30.586  14.276
23391W        W91809   7.186  31.974  14.969
23392W        W91810  17.682  37.859   2.876
23393W        W91811  14.281   8.887   1.741
23394W        W91812  22.152  23.635   2.694
23395W        W91813  13.124   2.252  11.102
23396W        W91814   4.849  22.181  14.975
23397W        W91815  13.844  28.954   1.339
23398W        W91816  40.826  23.706   0.431
23399W        W91817  16.204  25.105   2.182
23400W        W91818  39.971  37.020  14.824
23401W        W91819  17.142  16.161  14.413
23402W        W91820  10.635  24.677  11.997
23403W        W91821  23.640  38.881  11.088
23404W        W91822  23.622  22.104   4.138
23405W        W91823   4.936   2.428  11.942
23406W        W91824  41.820  39.904   1.922
23407W        W91825  33.410  44.882  14.762
23408W        W91826  22.573  41.304  13.452
23409W        W91827  30.069   7.871  11.864
23410W        W91828  11.765   0.411  14.471
23411W        W91829   7.747  25.178  12.579
23412W        W91830  17.090  18.564   1.715
23413W        W91831   0.274  41.295   4.270
23414W        W91832  28.067   0.384   2.359
23415W        W91833  16.583   8.761   0.899
23416W        W91834   2.799  14.235   1.418
23417W        W91835  23.985  32.520  11.455
23418W        W91836   5.717  24.690  14.456
23419W        W91837  25.538  41.945  11.418
23420W        W91838   4.760   9.338  14.850
23421W        W91839  12.693   6.814   2.853
23422W        W91840   8.872   5.731   2.780
23423W        W91841  32.972  25.678  12.877
23424W        W91842   3.429  12.663  13.935
23425W        W91843   0.485  20.047   0.965
23426W        W91844   4.264  16.670   4.123
23427W        W91845  28.963  24.181  13.548
23428W        W91846   5.258  42.386   4.620
23429W        W91847   3.249  40.034   3.842
23430W        W91848   2.296  31.154   0.946
23431W        W91849  14.182  17.601  14.842
23432W        W91850  12.818   2.923   4.610
23433W        W91851  15.116   2.873  10.961
23434W        W91852   9.381  15.736   1.426
23435W        W91853  29.492  17.602  12.471
23436W        W91854  13.183  32.612   0.479
23437W        W91855  19.624   4.384   1.851
23438W        W91856  24.134  24.184  14.917
23439W        W91857  27.094   3.883  12.407
23440W        W91858   2.279  11.156  10.556
23441W        W91859  41.828  10.689   3.645
23442W        W91860  16.115   7.748   9.929
23443W        W91861  27.025  35.379  11.066
23444W        W91862  40.419   3.415   0.861
23445W        W91863  35.911   2.373   4.741
23446W        W91864   7.193  12.684  14.849
23447W        W91865  25.536   2.396  11.075
23448W        W91866  39.552  21.544   3.254
23449W        W91867  43.895  21.635  14.426
23450W        W91868   0.298  24.697   2.246
23451W        W91869   2.929  42.874  13.429
23452W        W91870  22.123  34.951   4.640
23453W        W91871   1.349  36.034  13.935
23454W        W91872  40.820   7.740   4.820
23455W        W91873  13.132  23.082   1.305
23456W        W91874   0.836  14.296   5.158
23457W        W91875  35.974  29.975   0.351
23458W        W91876   9.248  14.150  11.393
23459W        W91877  29.506  18.128   1.216
23460W        W91878  18.225  17.664   0.850
23461W        W91879   7.277  44.835   1.392
23462W        W91880  25.687  32.075  11.013
23463W        W91881  18.786  23.641   9.947
23464W        W91882  43.499  42.870  12.836
23465W        W91883  41.436  12.303   2.191
23466W        W91884  13.336   7.412   0.883
23467W        W91885  22.504  19.658  13.343
23468W        W91886  34.513  12.657  12.877
23469W        W91887   3.770  23.103  11.451
23470W        W91888  16.254  14.732  10.408
23471W        W91889  30.627  38.988  12.984
23472W        W91890  16.220  31.617   3.381
23473W        W91891  28.105  23.669   3.863
23474W        W91892  13.349  35.039  10.946
23475W        W91893  43.480  17.293  10.156
23476W        W91894   1.477   6.832  11.406
23477W        W91895  14.750   2.451  14.403
23478W        W91896  27.161  26.076   3.849
23479W        W91897  36.973  26.196   1.907
23480W        W91898  20.274  26.537   2.364
23481W        W91899  22.690  31.125   2.245
23482W        W91900   8.267  22.203   0.785
23483W        W91901  17.611  20.533  12.415
23484W        W91902   1.269  29.514  13.397
23485W        W91903  28.133  23.211  11.019
23486W        W91904  32.065  21.727   4.328
23487W        W91905   9.277   4.711  14.914
23488W        W91906  36.412  16.719  11.397
23489W        W91907  20.613  39.414  14.810
23490W        W91908  42.515  23.007  11.480
23491W        W91909  36.003  26.561  12.017
23492W        W91910  27.014  27.056  12.498
23493W        W91911  38.964  27.509  14.390
23494W        W91912  11.369  31.085  13.520
23495W        W91913  35.854   4.868  14.944
23496W        W91914  37.455  25.189   0.951
23497W        W91915  18.789   3.309  11.964
23498W        W91916  21.172   5.236  13.518
23499W        W91917   5.237  34.538   3.351
23500W        W91918  37.540   4.373   3.334
23501W        W91919  26.084  23.168  14.339
23502W        W91920  24.162  34.598   3.765
23503W        W91921   9.685  14.655  13.358
23504W        W91922   3.396  40.875  10.449
23505W        W91923   6.896  28.547   4.291
23506W        W91924   2.389   2.435  12.042
23507W        W91925   2.748  35.381   3.841
23508W        W91926   2.419  25.659   4.169
23509W        W91927   4.925  42.412  12.379
23510W        W91928  40.896  25.178  14.458
23511W        W91929  27.452  14.136   3.261
23512W        W91930  38.432  29.025   0.881
23513W        W91931  11.348  40.914   1.777
23514W        W91932  17.157  17.196  12.533
23515W        W91933  38.896  32.561  13.361
23516W        W91934  44.362  40.423  14.861
23517W        W91935  12.747   0.311   0.837
23518W        W91936  32.536  40.537   0.825
23519W        W91937   3.431  43.798  12.461
23520W        W91938   9.310  27.574   3.382
23521W        W91939  39.425  35.453   4.328
23522W        W91940  16.774  40.365  14.447
23523W        W91941  13.184  31.934   4.700
23524W        W91942  24.012  28.459   0.943
23525W        W91943  33.996  35.992   0.817
23526W        W91944  19.587  16.756  12.050
23527W        W91945  35.449  34.447  10.472
23528W        W91946  38.519  43.793  11.499
23529W        W91947  12.117   2.262  11.107
23530W        W91948   7.820   1.356   1.879
23531W        W91949  26.036   9.249  13.873
23532W        W91950  22.638  40.020   1.363
23533W        W91951  21.120  32.016   4.204
23534W        W91952  12.243   1.294  12.489
23535W        W91953   0.444  36.863   0.254
23536W        W91954  42.440  15.651  11.465
23537W        W91955  25.063  14.307   3.782
23538W        W91956  11.863   6.839  14.376
23539W        W91957  37.426  22.690  12.988
23540W        W91958   9.367  41.526  14.298
23541W        W91959   4.272  13.745  11.590
23542W        W91960  25.058  30.091  11.481
23543W        W91961  39.022   9.863   3.204
23544W        W91962   0.839  15.813   1.842
23545W        W91963  10.187  23.625  10.067
23546W        W91964   7.342  12.614   3.367
23547W        W91965  13.768  21.151  13.055
23548W        W91966  30.568   9.681  11.986
23549W        W91967  43.776  38.463   1.307
23550W        W91968  41.811  26.701  10.571
23551W        W91969  33.595  14.218  10.421
23552W        W91970  34.084  15.715  14.924
23553W        W91971  33.941  12.307  14.026
23554W        W91972   2.860  22.228   3.205
23555W        W91973  27.621  32.043  10.474
23556W        W91974   9.709  20.272   3.751
23557W        W91975  18.744  37.967   2.304
23558W        W91976  33.610  17.132   0.804
23559W        W91977  28.460   1.303  14.892
23560W        W91978  16.280   1.322   1.713
23561W        W91979   0.299  23.566  11.997
23562W        W91980  42.857  10.373   0.879
23563W        W91981  19.579  34.048   0.345
23564W        W91982   6.211  29.071  14.885
23565W        W91983   9.653  39.369   4.308
23566W        W91984  21.086  18.627   4.244
23567W        W91985  19.706  32.922   2.296
23568W        W91986  22.089  24.525   2.665
23569W        W91987  23.202  23.598   2.836
23570W        W91988  26.960  24.639  14.022
23571W        W91989  34.904  32.421  12.388
23572W        W91990  20.664  13.660  13.919
23573W        W91991  42.409  34.377   0.410
23574W        W91992  13.238  25.619  14.827
23575W        W91993   7.177  24.533  12.859
23576W        W91994  38.925  38.861  14.028
23577W        W91995   9.278   1.918  10.054
23578W        W91996   1.298  11.348   2.402
23579W        W91997  41.030   5.874   2.786
23580W        W91998   2.950  12.633   0.812
23581W        W91999  43.410  24.158   0.355
23582W        W92000  24.508  27.541   2.749
23583W        W92001  44.875  22.177   1.316
23584W        W92002  27.965  37.486   5.205
23585W        W92003   4.774  38.437   4.600
23586W        W92004  20.124  38.988   0.927
23587W        W92005  38.503   1.371   2.259
23588W        W92006   6.237  38.950   3.338
23589W        W92007  10.369  30.515  13.803
23590W        W92008  37.432  16.130  13.948
23591W        W92009  11.362  35.477   0.793
23592W        W92010  22.695  35.950   1.289
23593W        W92011  37.947  20.209  11.119
23594W        W92012   6.234  34.384  14.822
23595W        W92013  35.873  30.912   4.835
23596W        W92014  16.605  14.606   3.282
23597W        W92015  13.756  43.916   3.638
23598W        W92016  31.992  22.549  11.383
23599W        W92017  18.684  24.118  14.396
23600W        W92018  37.541   6.427   5.118
23601W        W92019   5.918   2.418   0.916
23602W        W92020   3.795  38.049  11.979
23603W        W92021  21.024   4.735  11.079
23604W        W92022  25.996  19.187   3.769
23605W        W92023  23.110  25.969  13.548
23606W        W92024   4.812  19.109   0.348
23607W        W92025  30.907   6.205  10.045
23608W        W92026  41.002   2.769  11.883
23609W        W92027  10.673  42.853  11.976
23610W        W92028  43.788  20.536  14.809
23611W        W92029  14.325  29.068  11.873
23612W        W92030   8.270  16.634  10.540
23613W        W92031  29.598  29.997  12.825
23614W        W92032  23.581  25.206  12.579
23615W        W92033  44.405  31.908   2.289
23616W        W92034  10.829  41.978   4.297
23617W        W92035   9.847  31.070  10.494
23618W        W92036  14.155  23.201   2.737
23619W        W92037  10.221  22.180   0.343
23620W        W92038  41.799  44.430  14.346
23621W        W92039  40.889   9.262  12.575
23622W        W92040  11.190  30.127  11.514
23623W        W92041  13.230   2.332   4.763
23624W        W92042  40.305  16.732  13.355
23625W        W92043  43.506   5.904   1.313
23626W        W92044  12.657  27.142   1.708
23627W        W92045  31.553  36.962   4.731
23628W        W92046  28.103  42.829   2.814
23629W        W92047   6.396  12.667  10.109
23630W        W92048  30.563  10.856  10.446
23631W        W92049  25.193   4.738   5.221
23632W        W92050   3.931  26.518   4.744
23633W        W92051  34.987  26.695   4.660
23634W        W92052  43.927  23.180   2.669
23635W        W92053  11.701  15.169   2.280
23636W        W92054  29.134  29.955   2.793
23637W        W92055  34.528  38.939   3.759
23638W        W92056  13.284  21.577   3.337
23639W        W92057   6.897   7.178   3.310
23640W        W92058  22.125   8.244  11.072
23641W        W92059  36.471  26.658  12.446
23642W        W92060  33.607  15.127   0.884
23643W        W92061  15.201  28.677   4.345
23644W        W92062   0.431  10.823   0.388
23645W        W92063  18.202  24.132  14.328
23646W        W92064  11.748   0.960   1.390
23647W        W92065  27.998  20.686   1.381
23648W        W92066   0.391  38.044   3.308
23649W        W92067   0.973  34.550   5.317
23650W        W92068  29.489   7.375  11.996
23651W        W92069  20.129  14.274  12.430
23652W        W92070   2.811   6.793  14.794
23653W        W92071  21.035  27.039  10.510
23654W        W92072   4.708   7.201  12.931
23655W        W92073  18.558  12.121  13.881
23656W        W92074  38.979  33.466  11.091
23657W        W92075  27.548  35.870  13.441
23658W        W92076  19.117  26.530  14.446
23659W        W92077  36.896  15.165  12.353
23660W        W92078  21.049  30.451  13.472
23661W        W92079  10.776   5.432  12.089
23662W        W92080  21.717  12.142   1.290
23663W        W92081  19.610  13.838  13.967
23664W        W92082  18.233   7.203  11.916
23665W        W92083  19.711  23.576   1.794
23666W        W92084   9.249  33.052   4.648
23667W        W92085  19.631  35.495  14.884
23668W        W92086  38.938   6.700   3.383
23669W        W92087  30.908  20.542   0.424
23670W        W92088   7.233  22.086   1.284
23671W        W92089   0.904   2.411  11.086
23672W        W92090  33.422  30.487  12.530
23673W        W92091  38.417  15.167  14.977
23674W        W92092  23.544  10.237  13.944
23675W        W92093  12.132  24.489   0.365
23676W        W92094  29.577  43.272  12.511
23677W        W92095  35.957  41.859  14.026
23678W        W92096  27.149  28.158   1.721
23679W        W92097   1.321  40.375   1.266
23680W        W92098  20.139  11.331  10.425
23681W        W92099  37.848  39.054   5.122
23682W        W92100   1.961  34.525   4.642
23683W        W92101  34.576  39.550   3.641
23684W        W92102  28.674  40.955   4.685
23685W        W92103   7.701   5.436   4.337
23686W        W92104  30.601  21.047  13.465
23687W        W92105  30.072  24.121   3.834
23688W        W92106  15.266  14.754  14.298
23689W        W92107  21.121  19.554  13.319
23690W        W92108  20.240  20.136  14.421
23691W        W92109  15.581   6.729  12.411
23692W        W92110   8.756  36.573  12.539
23693W        W92111  44.908   3.885  10.518
23694W        W92112  39.489   7.378  12.425
23695W        W92113  17.802   3.277   2.813
23696W        W92114  25.133  21.215  14.466
23697W        W92115  16.201   0.425   2.359
23698W        W92116  15.246  40.984  13.950
23699W        W92117   0.420  22.128  12.516
23700W        W92118  38.934  18.697  13.934
23701W        W92119   1.252  20.245   2.727
23702W        W92120  24.002   9.210   0.893
23703W        W92121   1.839  13.823  11.922
23704W        W92122  10.820  33.960  14.353
23705W        W92123  26.183  22.099   3.844
23706W        W92124  25.148  10.314   2.329
23707W        W92125  10.183  31.934   4.617
23708W        W92126   9.386  18.193  10.512
23709W        W92127   9.394  40.922   3.178
23710W        W92128  17.635  38.564  14.766
23711W        W92129  15.225   6.922   4.710
23712W        W92130  11.837   2.752  12.416
23713W        W92131  21.199  35.393   0.890
23714W        W92132  19.095  18.766  12.958
23715W        W92133  35.531  31.505  10.572
23716W        W92134  36.045  39.825  13.907
23717W        W92135   6.338   3.790  11.522
23718W        W92136  18.272  18.116  11.375
23719W        W92137   0.466   0.948  12.518
23720W        W92138   3.417  15.139   0.950
23721W        W92139  17.214   4.713  12.095
23722W        W92140  42.282   3.359  13.915
23723W        W92141  37.574  22.508   2.831
23724W        W92142  12.175  36.011  14.852
23725W        W92143  21.563   6.876  14.429
23726W        W92144  38.438  42.309   3.769
23727W        W92145   5.783  43.931  11.913
23728W        W92146  43.978  19.185  10.914
23729W        W92147  28.494  43.411   1.280
23730W        W92148   9.210  31.908   0.933
23731W        W92149  26.597   3.222  11.455
23732W        W92150   0.254  36.373  11.113
23733W        W92151   7.243   4.424  12.093
23734W        W92152  26.549  27.689   2.755
23735W        W92153  23.576  38.432  13.958
23736W        W92154  28.988  36.394  11.884
23737W        W92155  25.117   4.739  13.450
23738W        W92156  35.950   7.205   2.690
23739W        W92157   0.252  28.653  14.964
23740W        W92158  35.523   7.898  12.575
23741W        W92159  37.933  23.066  11.929
23742W        W92160  17.220  23.152   3.642
23743W        W92161  24.717   6.369  14.449
23744W        W92162  29.484   1.830  13.535
23745W        W92163  34.486  19.653   4.266
23746W        W92164  27.606  31.608   1.845
23747W        W92165  33.953  35.490  11.565
23748W        W92166  19.676  10.294   4.243
23749W        W92167  13.200  44.784  13.487
23750W        W92168  40.370  28.549   2.702
23751W        W92169  11.844  44.007  11.510
23752W        W92170  36.589  20.129   4.182
23753W        W92171   6.354  34.936   1.725
23754W        W92172  29.451  20.116   4.734
23755W        W92173  19.693  36.450   0.403
23756W        W92174  10.851  32.616   1.242
23757W        W92175   3.310  13.325   2.845
23758W        W92176  16.290  28.676  12.340
23759W        W92177  42.867  19.247  13.819
23760W        W92178  31.013  26.107   2.831
23761W        W92179  15.761  30.617  13.924
23762W        W92180   3.367  11.822   2.217
23763W        W92181  25.118  27.193   4.837
23764W        W92182  31.065  41.992   0.330
23765W        W92183  37.960   1.442   0.480
23766W        W92184  35.874  28.575   3.818
23767W        W92185   2.239  16.149   4.296
23768W        W92186  17.131  25.527   3.196
23769W        W92187  19.663  27.514  11.601
23770W        W92188  25.175  36.442   4.838
23771W        W92189  32.059  18.584   2.406
23772W        W92190  41.016  23.063   1.842
23773W        W92191  12.628  37.974   0.754
23774W        W92192  42.510  44.420  12.536
23775W        W92193  24.099   8.399  11.914
23776W        W92194   6.361  35.951   1.815
23777W        W92195   3.365  34.067   4.122
23778W        W92196  30.909  44.317  11.381
23779W        W92197  43.504  23.649   3.154
23780W        W92198  18.777   2.376   4.158
23781W        W92199  10.696  10.746  10.523
23782W        W92200  27.501   6.375   9.502
23783W        W92201  31.565   7.322  11.522
23784W        W92202  40.871   2.304   4.638
23785W        W92203  42.852  39.958  14.858
23786W        W92204  40.442  31.938   0.946
23787W        W92205  26.678  16.588   2.302
23788W        W92206  43.774  16.801   4.697
23789W        W92207  12.843  27.139  13.498
23790W        W92208  30.636   7.205   3.860
23791W        W92209  12.650  11.682  12.828
23792W        W92210   2.853  18.556  13.391
23793W        W92211  32.614  22.608   0.300
23794W        W92212  16.705  28.068  12.458
23795W        W92213  18.591  14.284   9.559
23796W        W92214  37.938   6.880  13.341
23797W        W92215  32.528   5.311  14.863
23798W        W92216  39.324  20.067   2.200
23799W        W92217  19.607  27.557  14.004
23800W        W92218  20.721  15.312  14.805
23801W        W92219  38.873   3.447  10.521
23802W        W92220  13.345  41.512  10.625
23803W        W92221  26.052  33.953   2.839
23804W        W92222  41.447  28.643  11.086
23805W        W92223  32.895   8.175   4.207
23806W        W92224  33.487  43.417   1.831
23807W        W92225  16.283  26.561  11.516
23808W        W92226  24.618   1.738  14.477
23809W        W92227  29.452  35.597  10.638
23810W        W92228  26.601  28.573  14.023
23811W        W92229   8.220  21.750  14.029
23812W        W92230  12.208   1.386  11.539
23813W        W92231  22.250  31.557   0.956
23814W        W92232  11.672  43.862  13.870
23815W        W92233  44.486   3.778   3.339
23816W        W92234  15.622  38.997  11.112
23817W        W92235  30.036  35.582   4.669
23818W        W92236  43.360  43.472  10.413
23819W        W92237  41.525  18.788  13.311
23820W        W92238   0.339   3.461   5.156
23821W        W92239  35.544  43.803   3.763
23822W        W92240   2.737  25.513  12.983
23823W        W92241  33.930  37.582  10.926
23824W        W92242  20.185  11.650   9.955
23825W        W92243  27.691  21.696   0.252
23826W        W92244  29.062  29.045  14.877
23827W        W92245  19.533  24.186   0.274
23828W        W92246  39.411  29.579  11.591
23829W        W92247  17.636  21.686   3.685
23830W        W92248   7.902  26.138  12.506
23831W        W92249   9.287  38.030  10.941
23832W        W92250  13.204   2.310  12.051
23833W        W92251  40.843  20.033   4.700
23834W        W92252  26.040  29.108   2.198
23835W        W92253  38.420   0.376  11.523
23836W        W92254  29.070  40.996  14.869
23837W        W92255  22.544  29.506   4.208
23838W        W92256  12.327  37.526  12.416
23839W        W92257   9.714   1.936  12.917
23840W        W92258  34.935  44.413   2.212
23841W        W92259  40.042  20.597  11.394
23842W        W92260  32.988  18.206   1.712
23843W        W92261  41.839  11.341  12.452
23844W        W92262  20.722   7.183   3.306
23845W        W92263  20.053   2.358  14.345
23846W        W92264  25.110  15.803   2.896
23847W        W92265   4.223  34.482  11.448
23848W        W92266   9.817  38.332  10.940
23849W        W92267   1.968  22.223   9.442
23850W        W92268   9.211  12.158  12.420
23851W        W92269  15.252  42.282   1.768
23852W        W92270   4.263  31.124   1.275
23853W        W92271  37.450  31.599   1.332
23854W        W92272  19.187   4.254  10.606
23855W        W92273   4.357  39.417   4.624
23856W        W92274   4.289  12.320   1.309
23857W        W92275  37.904  18.278  13.805
23858W        W92276  37.581  44.367   4.697
23859W        W92277  16.172   2.799  12.524
23860W        W92278   1.472  27.971   0.480
23861W        W92279  43.417   9.307  10.469
23862W        W92280  42.815  25.572   5.307
23863W        W92281  41.494  42.860   3.870
23864W        W92282   1.429  31.977   2.366
23865W        W92283   2.876  43.493  10.630
23866W        W92284  15.322   6.816  14.781
23867W        W92285  22.668  12.774  12.066
23868W        W92286  21.190  33.502  12.867
23869W        W92287  41.534  25.042  12.075
23870W        W92288  16.312   4.751  10.097
23871W        W92289  27.954  28.469  13.452
23872W        W92290  17.252  19.617  14.430
23873W        W92291   4.421   4.853   2.805
23874W        W92292  37.336  30.051   4.302
23875W        W92293   7.844  14.205  12.881
23876W        W92294   3.395  25.505   1.749
23877W        W92295  28.612  19.163   2.756
23878W        W92296  20.572  25.011  14.505
23879W        W92297  29.666  25.118   0.419
23880W        W92298  22.057   4.399  13.443
23881W        W92299  41.850  12.751   0.763
23882W        W92300   7.793  19.207  11.033
23883W        W92301   0.399   3.825  11.863
23884W        W92302  31.571  22.081   0.844
23885W        W92303   1.419  19.652  14.923
23886W        W92304  11.234  24.073   1.835
23887W        W92305   7.323  26.114   0.338
23888W        W92306  22.094   5.236   1.374
23889W        W92307  35.411   0.882  11.057
23890W        W92308   6.761  20.183  10.456
23891W        W92309   2.361  32.119  12.946
23892W        W92310   4.350   0.273   1.442
23893W        W92311  14.127  31.420  11.085
23894W        W92312  41.370  32.528   1.223
23895W        W92313   9.678   2.327  10.582
23896W        W92314  36.933   5.247   4.726
23897W        W92315  40.387  17.612   4.332
23898W        W92316   3.261   3.898   2.337
23899W        W92317  18.727  29.084  13.361
23900W        W92318  25.667   1.916  10.530
23901W        W92319  37.351   5.334   4.354
23902W        W92320  31.422  19.587   2.280
23903W        W92321  12.755  29.967  14.846
23904W        W92322  33.937  11.631  13.799
23905W        W92323  27.564  10.138   3.242
23906W        W92324  17.065  17.198   1.334
23907W        W92325   9.877  17.565   1.810
23908W        W92326  40.943  40.861   5.138
23909W        W92327  38.948  14.302   2.831
23910W        W92328   3.262  12.330  14.516
23911W        W92329   5.889  17.154   1.246
23912W        W92330   4.786   5.821  13.846
23913W        W92331   5.732  12.714   3.252
23914W        W92332  11.175   3.334   0.923
23915W        W92333   4.245  34.925  13.499
23916W        W92334  30.942  14.274  13.013
23917W        W92335   5.766   5.888   0.244
23918W        W92336  33.935   3.307   1.911
23919W        W92337  24.534   5.772  14.839
23920W        W92338  42.380  37.541  11.379
23921W        W92339  26.178  34.486  12.428
23922W        W92340  13.612  33.988  13.320
23923W        W92341  41.893   4.886  12.563
23924W        W92342  40.489  28.137  13.849
23925W        W92343  40.013  11.252   1.801
23926W        W92344  13.684  20.541  12.004
23927W        W92345  29.504  23.102   1.253
23928W        W92346   4.868  20.076  13.884
23929W        W92347  24.596  27.068  13.958
23930W        W92348   5.870   1.316   4.598
23931W        W92349  10.789  29.960   0.412
23932W        W92350   8.227  26.472   2.193
23933W        W92351  18.739  37.545  14.475
23934W        W92352   0.394   8.693   0.880
23935W        W92353   7.263  27.454   3.708
23936W        W92354  44.984  31.980   3.361
23937W        W92355   3.444  41.339  11.115
23938W        W92356  13.262  33.494  12.064
23939W        W92357   2.959  23.673   3.709
23940W        W92358  15.224  41.875   4.313
23941W        W92359  28.094  16.679  12.090
23942W        W92360   1.745   8.690  12.384
23943W        W92361  26.092  29.963   2.216
23944W        W92362  19.629  11.745   1.744
23945W        W92363   0.444  39.341  11.986
23946W        W92364  38.488   8.722  14.949
23947W        W92365  35.458   8.301   3.295
23948W        W92366  11.646  16.224  10.922
23949W        W92367  32.956  24.093  10.904
23950W        W92368  15.624  21.257  14.356
23951W        W92369  37.343  13.308  13.516
23952W        W92370  30.961   3.851  14.497
23953W        W92371  39.819   6.367  11.021
23954W        W92372  17.726  42.303  12.515
23955W        W92373   7.683   9.208   0.445
23956W        W92374   8.873  38.058  14.784
23957W        W92375  44.292   7.307  11.479
23958W        W92376  42.478  14.103  14.922
23959W        W92377  33.483  23.591  14.468
23960W        W92378  31.975  34.941   0.284
23961W        W92379  44.469  35.600  12.522
23962W        W92380  37.417  13.269   0.946
23963W        W92381   2.262  25.629  12.926
23964W        W92382  35.983  13.702   0.840
23965W        W92383  28.955  11.212  14.973
23966W        W92384  24.658   3.380  13.988
23967W        W92385   8.858   1.900   3.833
23968W        W92386  17.747  44.345   0.923
23969W        W92387   4.355  19.252   2.666
23970W        W92388   9.733  15.581  12.901
23971W        W92389  43.869  15.775   1.310
23972W        W92390  32.635   2.471   0.883
23973W        W92391  33.390  34.559  10.575
23974W        W92392  11.734  42.504  14.487
23975W        W92393  35.394  35.976  10.432
23976W        W92394   1.896  14.716  14.838
23977W        W92395   2.413  44.895  13.505
23978W        W92396  26.141  16.246  12.028
23979W        W92397  31.919  13.821  11.565
23980W        W92398  35.019   3.792   4.129
23981W        W92399  37.885  18.716   3.783
23982W        W92400   7.719  21.041   4.790
23983W        W92401  21.667  37.967  14.401
23984W        W92402  43.282  30.031  12.503
23985W        W92403  40.495  28.532   4.216
23986W        W92404  14.784  43.777  11.101
23987W        W92405  40.382  23.136   4.627
23988W        W92406  29.035  24.689   1.260
23989W        W92407  16.622  37.961  14.387
23990W        W92408   8.317  41.364  14.854
23991W        W92409  39.447  11.801  11.551
23992W        W92410   4.852  27.966   3.805
23993W        W92411  34.098  36.944  14.386
23994W        W92412  29.131  39.390  12.392
23995W        W92413  26.073  34.119   3.301
23996W        W92414   1.288  19.672   4.738
23997W        W92415  22.183  30.994   1.869
23998W        W92416  37.468  38.450  13.477
23999W        W92417  20.632  42.426   2.299
24000W        W92418  12.165  36.562   2.325
24001W        W92419  16.646  23.643   3.636
24002W        W92420   8.376  33.558  13.895
24003W        W92421   5.367  28.977  13.894
24004W        W92422  27.691  26.607   5.196
24005W        W92423  31.493   1.793   3.212
24006W        W92424  16.290  17.667   1.340
24007W        W92425  25.691  29.560  13.429
24008W        W92426  34.054  29.051   4.147
24009W        W92427  43.010  35.535  13.436
24010W        W92428  22.249  29.662  11.063
24011W        W92429  37.436   9.249   0.477
24012W        W92430  17.196   7.340   0.278
24013W        W92431  10.320  19.159   0.850
24014W        W92432  25.516  44.305  12.065
24015W        W92433  21.565  16.166  12.479
24016W        W92434   9.157  38.034   4.599
24017W        W92435   1.876  18.091  13.958
24018W        W92436  21.188  34.107   3.216
24019W        W92437  30.928  34.069   0.478
24020W        W92438  13.759  19.200  10.588
24021W        W92439  43.926  14.797   1.715
24022W        W92440   0.901  23.234   2.357
24023W        W92441   2.402  28.504  14.759
24024W        W92442   6.708   8.895   2.367
24025W        W92443  12.146   5.884  12.439
24026W        W92444  39.888  27.031  14.856
24027W        W92445   1.892   9.225   0.939
24028W        W92446   1.277   2.820   3.244
24029W        W92447  21.749  43.884  12.459
24030W        W92448   3.732  18.756  11.469
24031W        W92449  20.172  23.015   5.701
24032W        W92450  11.837  24.215  10.586
24033W        W92451  22.103   2.368  13.308
24034W        W92452  41.437  25.115  11.608
24035W        W92453   8.173  27.017  10.627
24036W        W92454  23.217  34.483   1.247
24037W        W92455  40.459  23.199   3.194
24038W        W92456  17.700  42.367  10.593
24039W        W92457  16.659  44.293  14.962
24040W        W92458  14.735  11.721  14.964
24041W        W92459   0.877  15.303   0.752
24042W        W92460   8.678  27.081   3.220
24043W        W92461   9.202  10.160   0.248
24044W        W92462   2.853   6.792   0.396
24045W        W92463   8.752   1.282   0.840
24046W        W92464  17.265  36.454   1.807
24047W        W92465   2.720  13.669   1.753
24048W        W92466  38.537  19.593  13.344
24049W        W92467  28.598   5.900   2.767
24050W        W92468  37.946   3.398  11.443
24051W        W92469  29.998  39.874   2.312
24052W        W92470  18.607   2.352  11.508
24053W        W92471  29.581  37.419   3.210
24054W        W92472   3.785  30.584  10.562
24055W        W92473  21.692  25.540  10.495
24056W        W92474   8.704  39.520   2.661
24057W        W92475  19.755  12.650  12.942
24058W        W92476  16.698  23.720  13.007
24059W        W92477  31.031  27.568   4.292
24060W        W92478   6.749   4.309  12.980
24061W        W92479  20.555  18.766  10.582
24062W        W92480   6.218  12.362   1.241
24063W        W92481  28.537  26.174   1.782
24064W        W92482  27.058  32.471  14.346
24065W        W92483  35.910  42.793  13.908
24066W        W92484  20.111  32.889   0.947
24067W        W92485  30.576  12.659   2.692
24068W        W92486  17.122  15.150  12.526
24069W        W92487  28.487  25.209   3.231
24070W        W92488  29.662  37.563  11.909
24071W        W92489   6.742  20.181   1.354
24072W        W92490  12.261  44.941  12.514
24073W        W92491  36.533  43.832   2.900
24074W        W92492  12.331  31.139   1.427
24075W        W92493  12.855  11.746  12.486
24076W        W92494  30.908  10.341   3.851
24077W        W92495  31.615   4.434   1.772
24078W        W92496  37.031  22.717  14.356
24079W        W92497  22.741   0.941  13.453
24080W        W92498  36.410  13.213  11.610
24081W        W92499  22.068   2.389   3.200
24082W        W92500  33.510  10.368  14.314
24083W        W92501  42.021  33.510   3.347
24084W        W92502   5.337  15.791   3.657
24085W        W92503   8.291   1.310  11.115
24086W        W92504   3.379   7.816   0.331
24087W        W92505  42.954  32.542  11.014
24088W        W92506  41.353   8.356   3.270
24089W        W92507   8.249  41.941   1.715
24090W        W92508   1.801  33.048   0.337
24091W        W92509  33.481   7.337   4.754
24092W        W92510  33.005  28.453  11.866
24093W        W92511  28.517  12.799  13.063
24094W        W92512  18.252  24.976   3.774
24095W        W92513  25.146   6.769   3.851
24096W        W92514   4.751  21.233   1.861
24097W        W92515   4.321  43.014  13.874
24098W        W92516  14.745  38.498  11.882
24099W        W92517  40.457   3.712   2.244
24100W        W92518  14.281  27.655  14.828
24101W        W92519   0.844  10.329  14.788
24102W        W92520  40.475   7.212  11.594
24103W        W92521   5.193   7.365  13.511
24104W        W92522  25.711  38.545  13.862
24105W        W92523  27.163   6.747   4.225
24106W        W92524  34.439  20.756  11.514
24107W        W92525  44.969  43.504   3.707
24108W        W92526  18.233  11.690   4.659
24109W        W92527  19.214  28.133  14.949
24110W        W92528  31.633  41.884   0.866
24111W        W92529  28.588  22.571   2.773
24112W        W92530   8.866   1.392  10.926
24113W        W92531   2.460   3.369   3.286
24114W        W92532  43.317  28.572   1.715
24115W        W92533  24.494   5.314  14.492
24116W        W92534  25.020  42.448  11.436
24117W        W92535  27.505  35.102   0.396
24118W        W92536  13.833  43.838   2.330
24119W        W92537  36.400  22.513   1.821
24120W        W92538   6.891   8.296  11.008
24121W        W92539  25.173   5.210   3.223
24122W        W92540  18.659  15.109   1.265
24123W        W92541  30.977  23.154  12.000
24124W        W92542  26.130  44.969   1.394
24125W        W92543  44.925   7.275   4.154
24126W        W92544  11.266  42.845   1.749
24127W        W92545  33.420  24.148   2.737
24128W        W92546  40.863  44.957  11.471
24129W        W92547   1.294  32.127   4.640
24130W        W92548  25.693   4.308   0.338
24131W        W92549   6.745  41.842   3.634
24132W        W92550  40.540  15.613  12.512
24133W        W92551  13.178  32.889  11.857
24134W        W92552  31.498  34.992  14.792
24135W        W92553  30.912  11.820   3.691
24136W        W92554   2.368  32.414   1.736
24137W        W92555   0.292  11.729   4.156
24138W        W92556   1.745  27.154   3.764
24139W        W92557   0.442  29.460  14.351
24140W        W92558  43.294  30.576   1.376
24141W        W92559  25.164   8.344   3.215
24142W        W92560  19.278  38.404  14.318
24143W        W92561  40.899   5.820  11.993
24144W        W92562  32.107  29.606  11.928
24145W        W92563  44.313   9.650   2.763
24146W        W92564  16.092  14.834   4.647
24147W        W92565  34.584  31.117  12.471
24148W        W92566   8.344   0.980   4.172
24149W        W92567   0.260  27.046  13.024
24150W        W92568  38.949  23.033  14.384
24151W        W92569  44.418  39.468   5.678
24152W        W92570  26.484  16.698  12.967
24153W        W92571  40.504   1.452  12.043
24154W        W92572  15.687   3.430   4.244
24155W        W92573  15.258  16.799  14.877
24156W        W92574  25.095   7.910  12.830
24157W        W92575  13.653   0.985  13.993
24158W        W92576   4.940  42.284   0.903
24159W        W92577  25.594  17.304   3.186
24160W        W92578  41.016  11.622  13.326
24161W        W92579  41.384  17.784  11.399
24162W        W92580   6.870  28.104   3.841
24163W        W92581  38.868  13.201  13.050
24164W        W92582   4.448  38.874   3.259
24165W        W92583  36.475  24.142  13.349
24166W        W92584  19.740  16.259   4.808
24167W        W92585  35.542  28.539   4.122
24168W        W92586  36.067   3.233  10.643
24169W        W92587   1.335  43.886   1.248
24170W        W92588  10.212  17.231  10.923
24171W        W92589   0.326  10.873  11.952
24172W        W92590  32.453   6.303  14.307
24173W        W92591  41.378   1.384   0.793
24174W        W92592   8.807  41.880   2.344
24175W        W92593   8.322  18.780   3.845
24176W        W92594   8.398  16.280  14.330
24177W        W92595  25.058  12.676  11.585
24178W        W92596   3.712  20.139  14.471
24179W        W92597  32.463   5.837  14.798
24180W        W92598  11.345  33.011   1.895
24181W        W92599  36.505   9.686   2.843
24182W        W92600  29.979  26.466  14.027
24183W        W92601  31.128  44.343   4.137
24184W        W92602  22.042  40.851  11.474
24185W        W92603  24.058  39.979   0.244
24186W        W92604  39.845  36.472   0.730
24187W        W92605  23.663   3.824   0.466
24188W        W92606   9.199  11.637  14.783
24189W        W92607  31.911  42.518   2.418
24190W        W92608  29.543  36.515   2.392
24191W        W92609   0.399  11.755  13.885
24192W        W92610  29.132  24.696  10.605
24193W        W92611   1.317  42.852  10.637
24194W        W92612  13.690   0.411   0.743
24195W        W92613  30.103   4.823  12.884
24196W        W92614  17.625   7.331   0.425
24197W        W92615  11.263   0.863  13.352
24198W        W92616   9.223   7.219  11.034
24199W        W92617  41.813  34.414   3.215
24200W        W92618  23.113  33.131   4.348
24201W        W92619  16.749  14.243  11.866
24202W        W92620  25.062  29.579   1.300
24203W        W92621  30.481  22.604  11.990
24204W        W92622  26.690   6.703   4.600
24205W        W92623  25.113  11.713   5.316
24206W        W92624   5.807   7.185   3.183
24207W        W92625  28.186  18.220  13.446
24208W        W92626  19.125  39.398  12.511
24209W        W92627  22.151  29.968  11.437
24210W        W92628  31.540   1.308  10.409
24211W        W92629  36.994   4.735  13.491
24212W        W92630  18.692  27.194   1.722
24213W        W92631  37.360  39.434   5.264
24214W        W92632  31.970  25.481  11.550
24215W        W92633  16.679  10.273   0.284
24216W        W92634  19.212  23.125   3.257
24217W        W92635  26.686  34.880   2.765
24218W        W92636  43.355  44.309  10.407
24219W        W92637  12.348   3.924   4.746
24220W        W92638  37.541  19.146   1.787
24221W        W92639  19.078  33.131  14.962
24222W        W92640   9.888  21.037  12.425
24223W        W92641  33.068  36.902   1.345
24224W        W92642   0.475  39.890  13.952
24225W        W92643   7.776  10.203  13.530
24226W        W92644  41.875   3.380   4.202
24227W        W92645  18.652  22.560  12.358
24228W        W92646   3.806  14.181  14.343
24229W        W92647  21.540   2.344   2.296
24230W        W92648  32.631  10.858  10.993
24231W        W92649  12.292  28.160  11.855
24232W        W92650   1.263  41.414  13.378
24233W        W92651  10.336   2.292   3.719
24234W        W92652  16.774   0.866  13.346
24235W        W92653  30.923  17.746   2.291
24236W        W92654  14.102  34.472  14.327
24237W        W92655  36.573  43.416  13.902
24238W        W92656  20.225   1.461   2.410
24239W        W92657  24.683  33.985  11.968
24240W        W92658  33.914   0.773   2.710
24241W        W92659  38.048  19.679   4.715
24242W        W92660  10.272  23.721  13.953
24243W        W92661  41.883   8.736   0.950
24244W        W92662  38.420  24.665   4.813
24245W        W92663  19.216  41.834   2.230
24246W        W92664  29.449  36.362  12.506
24247W        W92665  23.219  23.240  11.402
24248W        W92666   0.395  21.231  14.768
24249W        W92667   6.700   9.826  12.999
24250W        W92668  17.655   2.328   3.199
24251W        W92669  28.104  24.545   4.775
24252W        W92670   6.402  16.131  11.092
24253W        W92671  38.502  24.636   4.135
24254W        W92672   7.732  41.827  11.068
24255W        W92673  19.565  42.301  10.942
24256W        W92674   9.226  11.339  11.510
24257W        W92675  43.825  17.240  14.447
24258W        W92676  16.227  31.979  14.352
24259W        W92677  18.696   8.190   0.879
24260W        W92678   7.363  23.683   0.898
24261W        W92679   6.375  12.339  10.448
24262W        W92680   9.723   6.371   4.210
24263W        W92681  42.361  35.096  13.821
24264W        W92682   3.916   5.210  10.608
24265W        W92683   8.325  10.857  10.907
24266W        W92684  21.621  24.704  13.367
24267W        W92685   7.879  15.297   4.337
24268W        W92686  14.261  32.547   4.128
24269W        W92687   1.910  18.132  11.013
24270W        W92688  20.192   9.193  12.051
24271W        W92689  41.418  11.293   0.800
24272W        W92690  32.400  40.922  11.975
24273W        W92691  19.124   5.842   0.918
24274W        W92692  21.225  10.156  11.566
24275W        W92693  22.140  30.950   3.633
24276W        W92694  35.526  10.833  13.421
24277W        W92695   3.753  27.056  10.426
24278W        W92696  37.961   8.687   1.775
24279W        W92697  16.721  36.033  13.467
24280W        W92698  14.834  14.229   0.788
24281W        W92699  25.687  20.272   2.821
24282W        W92700  28.065  27.455   1.217
24283W        W92701   0.391   2.472  12.452
24284W        W92702  21.158   1.313   3.245
24285W        W92703   3.827   3.435  12.905
24286W        W92704   4.777  41.430  12.386
24287W        W92705  43.272   0.473   1.865
24288W        W92706   2.285  35.546  13.882
24289W        W92707  29.099  36.502   0.865
24290W        W92708  17.585   2.418   2.677
24291W        W92709  13.157  26.953  14.776
24292W        W92710  20.685  40.515  12.551
24293W        W92711  16.777  37.899   3.210
24294W        W92712  29.512  33.612  12.423
24295W        W92713  32.565  18.293   1.915
24296W        W92714  38.066  26.087  12.037
24297W        W92715   3.244   9.783  13.886
24298W        W92716  42.778   9.298   4.261
24299W        W92717   7.342  11.231  11.422
24300W        W92718  21.668   7.798   3.803
24301W        W92719  21.692  16.662   1.725
24302W        W92720  26.205  39.054   1.829
24303W        W92721  18.076  20.758   2.848
24304W        W92722  38.504  38.820   0.958
24305W        W92723  18.547  30.425   1.753
24306W        W92724  12.820  36.961  14.807
24307W        W92725  43.513   8.673   4.244
24308W        W92726  21.744   4.435   4.775
24309W        W92727  29.929  34.443  11.379
24310W        W92728  41.444  19.539  14.883
24311W        W92729   2.324   1.955  14.963
24312W        W92730  43.320  36.355   2.729
24313W        W92731  27.983  19.567   0.829
24314W        W92732   1.440   8.305  10.545
24315W        W92733  37.079  20.103  12.352
24316W        W92734  11.701  29.945  13.500
24317W        W92735  10.729  10.836  11.902
24318W        W92736  42.330  40.382  13.409
24319W        W92737  20.166  44.811  13.858
24320W        W92738   2.837  41.524   2.246
24321W        W92739  17.791  11.218   1.228
24322W        W92740  19.614  29.505   4.338
24323W        W92741  27.151  15.229  12.386
24324W        W92742  25.110  10.732  11.533
24325W        W92743  34.050   0.875  13.381
24326W        W92744   7.353  17.570   4.647
24327W        W92745   7.899  34.017   0.922
24328W        W92746  30.970  43.914  12.932
24329W        W92747   7.353   5.724  14.398
24330W        W92748   7.684  19.594   3.652
24331W        W92749  23.050   1.883   2.418
24332W        W92750  37.856  35.370   3.220
24333W        W92751  21.546  31.589  12.486
24334W        W92752  34.053   8.719  12.880
24335W        W92753  41.957  11.271  11.982
24336W        W92754   6.839  44.838  10.496
24337W        W92755   0.320  11.141   3.819
24338W        W92756   2.789   5.247  13.447
24339W        W92757  23.229  40.882   1.333
24340W        W92758   8.299  17.217   3.761
24341W        W92759   5.843  10.758  13.336
24342W        W92760   7.183  22.672  12.835
24343W        W92761  26.123  26.177   4.146
24344W        W92762   8.725  20.029  12.076
24345W        W92763  37.501  27.109   3.237
24346W        W92764   8.178  34.562  12.889
24347W        W92765  20.600  17.570   2.308
24348W        W92766  10.643  14.653   4.252
24349W        W92767   5.373  10.765   1.911
24350W        W92768  29.622  23.124  12.897
24351W        W92769  11.173  17.174   4.181
24352W        W92770  39.062  20.578  10.567
24353W        W92771  23.600  29.471  14.288
24354W        W92772  41.980  30.556  11.431
24355W        W92773  36.470  24.213  10.997
24356W        W92774  30.468  38.426   4.122
24357W        W92775  30.537   3.772   1.353
24358W        W92776  18.567  32.028  14.918
24359W        W92777  22.529  21.514  14.856
24360W        W92778  29.450  19.245   4.290
24361W        W92779  40.829   4.386  13.496
24362W        W92780  24.151  19.138   4.281
24363W        W92781  28.948   5.874   3.249
24364W        W92782  10.140   1.816  12.349
24365W        W92783  42.308  28.548   2.311
24366W        W92784   7.753   9.313   4.766
24367W        W92785   5.769  34.093  12.904
24368W        W92786  40.853  17.631  14.490
24369W        W92787  23.215  11.822   4.620
24370W        W92788   7.219  20.550   4.243
24371W        W92789  22.086  32.944   4.173
24372W        W92790  29.448   8.886  11.965
24373W        W92791  37.895  40.006   0.316
24374W        W92792  23.998  43.275   2.873
24375W        W92793  20.553  27.096   9.979
24376W        W92794  42.416  43.924   2.419
24377W        W92795   7.197  26.476  10.602
24378W        W92796  11.208  20.672  13.965
24379W        W92797  34.033  42.930   0.351
24380W        W92798   4.215   1.288   1.252
24381W        W92799  21.160  34.480  14.894
24382W        W92800   8.330   1.357   0.441
24383W        W92801  39.414   1.342  12.912
24384W        W92802  27.055  23.133  13.990
24385W        W92803  35.900  39.902   5.306
24386W        W92804  28.539  21.129   2.667
24387W        W92805  30.960   8.703  11.550
24388W        W92806   9.849  44.987   1.777
24389W        W92807  40.003  30.066  12.423
24390W        W92808   5.389  31.060   1.415
24391W        W92809   1.731  19.230  14.452
24392W        W92810  16.080  43.943  12.532
24393W        W92811  37.371  35.907  12.059
24394W        W92812  12.749  19.225   1.719
24395W        W92813  17.732  41.984   4.276
24396W        W92814  14.222  11.680  12.977
24397W        W92815  18.138   8.209   0.817
24398W        W92816  25.196   8.899   2.270
24399W        W92817   3.299  43.018  11.585
24400W        W92818   9.280   4.889  11.076
24401W        W92819  17.578  16.102  14.893
24402W        W92820  20.763  12.792   3.277
24403W        W92821  27.506  18.075   1.830
24404W        W92822  38.357  41.828  11.605
24405W        W92823  38.867  23.019   0.964
24406W        W92824  26.508   1.350   4.172
24407W        W92825  16.775  21.654  13.546
24408W        W92826  31.967  24.690  10.978
24409W        W92827  41.967  17.275   0.269
24410W        W92828  12.209  44.850  11.907
24411W        W92829  18.597  34.057  10.927
24412W        W92830  30.459   5.842  13.027
24413W        W92831  16.155  21.036   0.275
24414W        W92832  37.572   8.824  13.417
24415W        W92833  32.114  24.095  14.798
24416W        W92834  16.228  17.079   0.745
24417W        W92835   9.682  37.893  13.474
24418W        W92836  10.821   7.232  10.429
24419W        W92837  29.010   8.239  13.942
24420W        W92838  35.362   7.328   0.381
24421W        W92839  31.094  34.548   0.781
24422W        W92840   6.696  35.428  14.953
24423W        W92841  37.873   6.247   2.408
24424W        W92842  40.531  39.812  11.571
24425W        W92843  28.954   0.761   0.727
24426W        W92844  33.949  15.273  14.325
24427W        W92845  40.408  15.665  10.436
24428W        W92846  13.237  43.889   3.724
24429W        W92847  39.545   9.786   1.447
24430W        W92848  43.963  44.972   4.238
24431W        W92849  12.835   0.747   3.308
24432W        W92850  37.369  18.739  11.381
24433W        W92851  18.728  27.946   2.785
24434W        W92852   3.926  14.714   0.965
24435W        W92853   9.755  21.109   0.389
24436W        W92854  15.596  29.931   5.114
24437W        W92855   4.908   7.336  12.423
24438W        W92856  11.840  32.098  12.499
24439W        W92857  25.714  24.484   1.842
24440W        W92858  16.144  28.565  12.024
24441W        W92859  26.082   2.244  12.992
24442W        W92860  16.686   0.795  14.773
24443W        W92861  24.546   4.445   3.278
24444W        W92862  20.640  44.370  11.516
24445W        W92863  37.078  32.892  14.818
24446W        W92864  36.079  34.100  12.348
24447W        W92865   3.912   9.319   2.691
24448W        W92866  11.178  44.444  13.345
24449W        W92867  22.590  40.432  13.986
24450W        W92868   4.295  28.037  11.429
24451W        W92869   5.391   9.285   2.813
24452W        W92870  22.640  20.762  12.354
24453W        W92871  29.458  39.935   0.300
24454W        W92872   4.944  32.593   1.861
24455W        W92873  44.425  20.670   1.292
24456W        W92874  24.158  29.095   2.183
24457W        W92875  33.060  33.501   3.355
24458W        W92876  12.234  13.785   3.323
24459W        W92877  26.672  37.365   2.713
24460W        W92878   4.280  11.806  14.279
24461W        W92879  32.456   4.353   1.372
24462W        W92880  44.347   0.337   1.816
24463W        W92881  13.130  15.705   9.985
24464W        W92882   7.389  43.018   2.329
24465W        W92883  19.714  14.738  13.817
24466W        W92884  12.170   7.361   2.384
24467W        W92885   2.330  21.647   2.215
24468W        W92886  15.611   5.231  12.946
24469W        W92887  42.976  11.677  10.160
24470W        W92888  24.574   0.926   3.769
24471W        W92889  17.269  30.913   2.396
24472W        W92890  32.090  12.151   3.146
24473W        W92891  42.908  44.391  14.411
24474W        W92892  33.491  39.949   0.341
24475W        W92893   4.773  34.414   1.734
24476W        W92894   2.316  12.657   1.321
24477W        W92895  22.016  32.612   2.844
24478W        W92896  32.901  32.574   2.781
24479W        W92897  27.511  40.514   4.268
24480W        W92898   7.765  19.257  13.932
24481W        W92899   9.752  13.697   0.825
24482W        W92900  10.670   9.772   3.841
24483W        W92901   4.938   0.286  12.838
24484W        W92902  31.023  36.056   3.243
24485W        W92903  41.830  18.727  14.966
24486W        W92904  26.132  30.511   4.669
24487W        W92905  16.682   3.284   1.909
24488W        W92906  14.690   5.930   1.264
24489W        W92907  11.699   2.275  13.386
24490W        W92908  25.643  12.621   0.734
24491W        W92909  17.261  39.913   4.732
24492W        W92910  43.017  13.837   3.320
24493W        W92911   5.308  32.418  11.997
24494W        W92912  18.232  39.009  10.428
24495W        W92913  11.266  21.025   3.714
24496W        W92914  27.565   4.422  14.031
24497W        W92915  27.574  26.064  12.930
24498W        W92916   5.436   4.846   2.678
24499W        W92917  24.510  11.820  13.845
24500W        W92918  25.548   9.746  13.452
24501W        W92919  35.448   6.913  14.852
24502W        W92920  33.560  10.324  11.514
24503W        W92921  20.660  40.917  12.464
24504W        W92922  24.706  43.282  13.322
24505W        W92923  13.207   3.887  12.501
24506W        W92924   1.362  31.050  10.939
24507W        W92925   7.314  19.670  12.090
24508W        W92926  22.219   3.453  12.375
24509W        W92927  18.212  39.509   4.303
24510W        W92928  23.699  15.727   0.274
24511W        W92929  42.979  21.122   1.439
24512W        W92930  33.877  32.129  14.958
24513W        W92931  15.083  10.149  13.039
24514W        W92932  29.060  43.479  14.770
24515W        W92933  42.803  32.528  11.503
24516W        W92934   1.769  37.371   0.817
24517W        W92935  31.004  31.577   0.330
24518W        W92936  29.526  26.460  13.314
24519W        W92937  18.243   7.238  13.857
24520W        W92938  30.427   0.812   1.221
24521W        W92939  33.100  13.336   1.917
24522W        W92940  33.422  28.987  13.855
24523W        W92941  10.303  42.977  11.529
24524W        W92942  14.641  42.479   2.183
24525W        W92943   7.311  22.696   4.766
24526W        W92944  20.247   6.311  14.901
24527W        W92945  36.472  37.537  13.823
24528W        W92946  27.506   1.454  13.905
24529W        W92947  36.080  16.716   4.163
24530W        W92948   9.773  25.114  13.026
24531W        W92949   5.240  18.621   4.232
24532W        W92950  39.009   0.861  13.997
24533W        W92951  29.979  26.198  13.897
24534W        W92952   8.759  34.497  13.064
24535W        W92953  10.751   3.249  13.018
24536W        W92954  44.439  37.348   0.891
24537W        W92955  26.030   7.201   0.864
24538W        W92956  44.346  22.090   3.854
24539W        W92957  36.887   5.863   1.779
24540W        W92958  36.409  30.034   3.150
24541W        W92959  37.931   2.453   2.305
24542W        W92960  14.593  14.321   2.313
24543W        W92961  43.321  24.020   2.190
24544W        W92962  19.691  14.602  12.903
24545W        W92963  34.114  41.490  13.982
24546W        W92964   4.858  20.642  13.050
24547W        W92965   5.851  23.632   1.358
24548W        W92966  16.072  19.628  13.030
24549W        W92967  35.858  22.114   2.391
24550W        W92968  27.967   2.762   2.214
24551W        W92969   3.953  28.674  12.059
24552W        W92970   2.293  26.136  13.358
24553W        W92971   0.798  11.770  10.036
24554W        W92972  27.071  12.243  14.911
24555W        W92973   6.283   6.775  14.015
24556W        W92974  13.799  22.679   2.236
24557W        W92975  17.615  27.171  12.580
24558W        W92976  12.694  26.532   3.307
24559W        W92977  30.056   4.347  13.892
24560W        W92978   8.238  30.096  12.422
24561W        W92979  31.614  28.606  14.487
24562W        W92980  25.604  15.089   4.714
24563W        W92981  33.400   1.316  11.064
24564W        W92982  21.177  17.244   4.113
24565W        W92983  14.640  22.610  11.092
24566W        W92984  12.123  42.365   2.867
24567W        W92985  20.679   6.384  13.844
24568W        W92986   0.905  23.039   1.366
24569W        W92987  29.517  18.710  12.913
24570W        W92988  37.898  25.681  11.009
24571W        W92989  13.149  10.639  12.001
24572W        W92990  40.035  30.149  11.386
24573W        W92991  27.608  21.576  13.850
24574W        W92992  40.015  13.821  10.643
24575W        W92993  42.387  18.195  12.558
24576W        W92994  15.204   3.933  13.373
24577W        W92995   9.253  43.287   4.599
24578W        W92996  24.159  30.472  10.896
24579W        W92997  19.619  17.094   4.724
24580W        W92998   0.949  37.512  10.944
24581W        W92999   4.438  25.184   2.288
24582W        W93000  11.231   0.988   2.390
24583W        W93001  13.674  14.811  12.555
24584W        W93002   7.282  20.106   3.263
24585W        W93003   5.793  36.458   3.784
24586W        W93004   7.794   0.353   3.360
24587W        W93005   2.859   3.271  13.383
24588W        W93006  32.012   1.892  14.914
24589W        W93007  16.085  22.690   1.717
24590W        W93008  20.242  23.200   5.106
24591W        W93009   1.773   3.770  10.590
24592W        W93010   6.399  31.051   0.747
24593W        W93011   0.473   2.821  11.400
24594W        W93012  20.654  20.533   0.803
24595W        W93013  31.923  34.964  14.898
24596W        W93014  35.864  20.734  12.977
24597W        W93015  24.989  19.605   2.284
24598W        W93016  26.004   5.883   1.869
24599W        W93017  21.107   7.854  13.505
24600W        W93018  41.521  34.972   3.297
24601W        W93019  20.144  40.357  12.842
24602W        W93020  40.877   0.768   0.764
24603W        W93021  43.951  18.600  14.446
24604W        W93022  30.006  12.634  13.921
24605W        W93023  11.648  11.679   5.292
24606W        W93024  38.329  37.554   0.350
24607W        W93025  15.810  31.994  14.841
24608W        W93026   6.724   5.729   4.347
24609W        W93027  38.866  16.262  13.987
24610W        W93028   8.237  11.177  14.830
24611W        W93029  21.540  37.872   0.726
24612W        W93030  44.886   4.362  11.042
24613W        W93031  32.505  20.041   1.236
24614W        W93032  37.467   0.895   1.450
24615W        W93033  38.345  20.082  12.998
24616W        W93034  44.955  25.591   3.788
24617W        W93035   7.219  37.510  10.073
24618W        W93036  20.148  20.753  10.516
24619W        W93037  24.573   3.252  10.557
24620W        W93038  37.458   9.280   5.315
24621W        W93039  37.945  31.554   2.399
24622W        W93040  24.711  12.847  13.425
24623W        W93041  23.125   4.786  12.885
24624W        W93042   6.364  34.453   0.427
24625W        W93043  33.992  37.555   2.254
24626W        W93044   4.385  40.526  13.374
24627W        W93045  32.048  18.138  12.564
24628W        W93046  20.695  40.450  10.969
24629W        W93047  44.313  38.835   1.850
24630W        W93048  16.076  34.022  13.404
24631W        W93049  14.634  36.929  12.467
24632W        W93050  42.385  15.187   3.740
24633W        W93051  21.137  41.423  11.434
24634W        W93052  36.566  17.157  14.010
24635W        W93053  24.182  27.951   4.181
24636W        W93054  29.121   2.775   4.817
24637W        W93055  27.542   9.667  12.903
24638W        W93056   8.236  27.974   1.783
24639W        W93057  26.996  33.382   2.819
24640W        W93058   0.986  39.989   2.226
24641W        W93059  22.629  39.355  12.911
24642W        W93060  22.562  27.548   2.876
24643W        W93061   4.430  37.022  10.579
24644W        W93062  26.035  40.519  12.394
24645W        W93063   6.242   7.178   1.274
24646W        W93064  12.229   0.283   4.611
24647W        W93065   0.272  34.011  12.481
24648W        W93066  29.945  31.088   2.751
24649W        W93067  31.044  13.260   0.471
24650W        W93068  34.527   5.398  13.417
24651W        W93069   6.246  21.099   3.849
24652W        W93070  15.289  38.820   3.381
24653W        W93071  34.418  39.357  12.975
24654W        W93072  34.594  18.064   2.348
24655W        W93073   3.946  15.167  11.551
24656W        W93074  16.146  13.760  14.782
24657W        W93075   8.887   1.440   4.172
24658W        W93076  42.410  34.085   4.649
24659W        W93077  33.609  20.237  13.312
24660W        W93078  38.009  28.101  13.859
24661W        W93079  16.178   7.294   0.357
24662W        W93080  25.638   4.866  10.626
24663W        W93081   6.194  23.589  11.867
24664W        W93082  30.004   6.800   1.297
24665W        W93083  26.505  31.591  10.635
24666W        W93084  31.424  31.080  14.356
24667W        W93085  44.344  26.979   4.671
24668W        W93086  36.582  31.521   4.184
24669W        W93087  21.161  32.523   1.261
24670W        W93088  44.261  15.787   0.941
24671W        W93089  27.573  28.533   4.672
24672W        W93090  38.047  39.912  13.039
24673W        W93091   3.735   3.717   2.872
24674W        W93092  37.370  23.179  11.078
24675W        W93093   3.808   5.403  12.530
24676W        W93094  21.732   0.936   2.254
24677W        W93095  40.946   1.270   3.177
24678W        W93096  24.045   1.907  12.829
24679W        W93097  44.946  43.394   4.157
24680W        W93098  24.999   6.838  11.969
24681W        W93099  34.377  25.579  14.401
24682W        W93100  34.906  42.514  12.068
24683W        W93101   9.760  32.124   2.840
24684W        W93102  29.532  31.962  13.512
24685W        W93103  21.083   0.926  13.933
24686W        W93104  26.010  15.113  11.983
24687W        W93105   4.432  37.535  14.368
24688W        W93106  33.011   6.264   0.772
24689W        W93107  27.174   7.859   4.229
24690W        W93108   9.361  30.929   3.261
24691W        W93109  23.006  23.003  12.054
24692W        W93110  36.985   2.722  10.642
24693W        W93111   7.198   3.921  14.363
24694W        W93112  20.736  34.999  14.471
24695W        W93113  31.109  10.723  11.106
24696W        W93114  30.018  24.522  11.547
24697W        W93115   8.858  17.284   1.817
24698W        W93116  30.153  17.237  10.570
24699W        W93117   1.792  20.182  11.985
24700W        W93118  34.889   0.494   1.861
24701W        W93119   6.232  26.629  11.030
24702W        W93120  10.348  39.366   2.410
24703W        W93121  44.413  38.350  14.854
24704W        W93122   1.901  23.084   1.397
24705W        W93123  15.171   6.349  11.511
24706W        W93124  16.705  29.013   3.656
24707W        W93125  39.533  31.054  11.980
24708W        W93126  42.418   0.863  13.312
24709W        W93127  42.943   3.869   2.800
24710W        W93128   2.849  18.095  11.576
24711W        W93129  13.320  32.432   2.899
24712W        W93130   4.434  35.976  14.021
24713W        W93131  33.952  26.527  12.445
24714W        W93132  30.153  37.869  11.035
24715W        W93133   2.921  25.122  14.488
24716W        W93134  34.009   8.679  10.577
24717W        W93135  12.615  39.533   4.314
24718W        W93136   2.297  40.383   3.373
24719W        W93137  36.888  24.523   1.243
24720W        W93138  42.299  13.692  13.324
24721W        W93139  33.059  28.442   1.880
24722W        W93140  28.117   9.300  12.492
24723W        W93141  14.123  10.234   5.167
24724W        W93142   6.428  30.476   3.217
24725W        W93143   2.810  14.246  14.389
24726W        W93144  24.096  42.862   9.959
24727W        W93145   8.334  18.278  13.952
24728W        W93146  13.118  19.709  12.865
24729W        W93147  32.611   6.859  14.491
24730W        W93148  18.159   7.320  12.900
24731W        W93149   6.804   8.665  13.024
24732W        W93150   7.359   6.325   1.308
24733W        W93151  18.690  37.831  12.458
24734W        W93152  25.003  21.669   4.151
24735W        W93153  42.384  39.940  14.379
24736W        W93154  39.915  23.101   3.275
24737W        W93155   3.941  33.972   0.960
24738W        W93156  44.502  38.364   2.297
24739W        W93157  27.109  20.618  14.365
24740W        W93158  10.336  11.787  12.022
24741W        W93159   4.893  19.182  10.902
24742W        W93160   2.752   1.407   1.917
24743W        W93161   4.368  10.635  14.320
24744W        W93162   5.701  42.387  14.927
24745W        W93163  39.341   6.887   2.895
24746W        W93164  41.393  33.911   3.265
24747W        W93165   7.266   1.452   4.838
24748W        W93166  27.605  44.008  10.511
24749W        W93167  32.948  44.289   1.368
24750W        W93168  38.549  22.112  11.428
24751W        W93169  17.093  32.422   1.414
24752W        W93170   0.784  31.016  14.293
24753W        W93171  34.894  42.808   0.781
24754W        W93172  40.009  14.257   4.233
24755W        W93173   8.750  30.452  12.959
24756W        W93174  28.436  21.137  13.461
24757W        W93175   3.335  12.616   0.358
24758W        W93176   2.746  33.079  13.802
24759W        W93177  20.749  37.557  13.968
24760W        W93178  23.016  19.162   2.346
24761W        W93179  35.537   6.771  12.489
24762W        W93180  30.477  15.129   3.221
24763W        W93181  23.056  44.995   4.115
24764W        W93182   4.940  19.221  14.387
24765W        W93183   9.761   3.292   4.278
24766W        W93184  31.639  18.210  13.492
24767W        W93185  38.341  12.230   0.926
24768W        W93186  23.221  29.118  11.021
24769W        W93187  13.722  30.058  14.960
24770W        W93188  42.975  22.518   3.851
24771W        W93189  11.343  42.432  13.339
24772W        W93190  13.320  28.072  14.471
24773W        W93191  32.576  24.071   1.920
24774W        W93192   4.325  29.047  11.429
24775W        W93193  43.916  10.316   0.370
24776W        W93194  29.074  15.770   2.294
24777W        W93195  10.238  14.648   2.710
24778W        W93196  33.919  43.819   3.843
24779W        W93197   0.816  34.418  10.149
24780W        W93198  35.361  33.061   1.326
24781W        W93199  43.331   8.386   1.891
24782W        W93200  40.965   9.249   3.852
24783W        W93201  17.253  39.045  14.413
24784W        W93202  10.229  10.704   3.671
24785W        W93203  35.438  38.030  11.982
24786W        W93204   5.914  21.118   0.802
24787W        W93205  19.619  27.570   4.623
24788W        W93206  14.132   2.331  13.341
24789W        W93207  27.448  16.640   4.732
24790W        W93208  27.185  32.453  12.949
24791W        W93209   3.841  11.780  13.408
24792W        W93210  43.956   9.879   1.848
24793W        W93211   3.751   4.311  11.021
24794W        W93212   2.359  29.550   2.699
24795W        W93213  20.140  44.316  13.421
24796W        W93214  21.180   8.238   3.750
24797W        W93215  43.992  26.660   0.822
24798W        W93216  28.569   4.301  13.485
24799W        W93217  43.960   9.270   1.291
24800W        W93218  14.653  37.528  14.491
24801W        W93219  12.204  22.166  11.528
24802W        W93220  25.162  33.026  11.495
24803W        W93221  24.068   1.273   4.602
24804W        W93222   0.262   4.913  12.428
24805W        W93223  37.852   1.953   2.712
24806W        W93224  16.700  19.686  12.866
24807W        W93225  14.738  39.962  11.046
24808W        W93226  19.542  32.574  13.381
24809W        W93227  15.769  35.468   2.731
24810W        W93228  29.983  44.842  14.302
24811W        W93229  40.339  18.099  12.436
24812W        W93230   5.305  23.170   3.838
24813W        W93231  15.301   7.257   5.100
24814W        W93232  28.438   0.900  13.837
24815W        W93233  34.076  42.950  11.612
24816W        W93234  21.708  18.123   1.729
24817W        W93235   2.841   2.854  11.506
24818W        W93236   1.415  13.205  10.894
24819W        W93237  26.111  25.125  12.544
24820W        W93238   1.479  33.125  12.028
24821W        W93239  25.082  21.094  11.978
24822W        W93240  40.838   9.725  14.505
24823W        W93241  29.535  33.124   4.602
24824W        W93242  31.641   8.229   1.276
24825W        W93243  37.986  41.947  12.076
24826W        W93244  30.460  26.505  12.053
24827W        W93245  41.835  15.602  12.886
24828W        W93246  43.922  18.706   4.829
24829W        W93247  24.560  13.648   1.422
24830W        W93248  23.608  40.865  13.525
24831W        W93249  13.164  42.869  14.803
24832W        W93250   3.910  24.217  11.978
24833W        W93251  13.776  11.846   2.674
24834W        W93252  13.716   0.894   3.219
24835W        W93253   6.724   6.252   1.389
24836W        W93254  11.841   7.708   3.808
24837W        W93255  32.982  30.417   0.430
24838W        W93256  12.690   1.424   0.337
24839W        W93257   3.389  26.139  13.329
24840W        W93258  34.879  16.795  11.445
24841W        W93259   8.688  37.434  14.418
24842W        W93260  39.389  10.803  12.448
24843W        W93261   0.370  20.574   1.718
24844W        W93262  42.820  41.859  13.945
24845W        W93263   5.753   4.872  12.067
24846W        W93264  16.284  13.256   0.778
24847W        W93265  16.234  23.644   3.381
24848W        W93266  21.750  25.632   9.638
24849W        W93267  19.761  14.746   2.189
24850W        W93268  18.559  41.799   0.386
24851W        W93269   4.253  18.220   3.158
24852W        W93270  23.506  10.848  14.282
24853W        W93271   7.409  44.471   0.274
24854W        W93272  16.732   6.852  11.856
24855W        W93273   4.903  25.669   1.802
24856W        W93274  22.530  26.472  11.459
24857W        W93275  13.756  32.005   4.155
24858W        W93276  23.119   1.277  12.933
24859W        W93277  38.496  35.496   3.637
24860W        W93278  24.098  22.636  11.422
24861W        W93279  24.046  16.231  13.533
24862W        W93280  33.403   9.365   4.175
24863W        W93281  24.973  40.021   3.370
24864W        W93282  29.535  33.893  12.369
24865W        W93283  16.303  42.992  14.009
24866W        W93284  36.933  22.195   0.785
24867W        W93285   9.274  28.589   3.751
24868W        W93286   0.837  24.705   4.340
24869W        W93287  36.946  25.004   4.811
24870W        W93288   8.696  26.092   2.723
24871W        W93289   0.466   5.382   2.216
24872W        W93290  19.763   4.442   1.278
24873W        W93291  44.448  40.536  12.086
24874W        W93292  16.244  10.719  12.942
24875W        W93293  23.068  29.052   2.697
24876W        W93294   5.281   7.780   2.728
24877W        W93295  16.269  35.063   0.750
24878W        W93296  43.365  38.484  13.060
24879W        W93297   3.789  18.087   9.964
24880W        W93298  24.530   4.877   2.707
24881W        W93299   9.153   6.767  14.463
24882W        W93300  39.497  38.483   2.810
24883W        W93301  13.745  23.669  11.589
24884W        W93302  22.202  34.909   3.258
24885W        W93303  33.470  16.594  11.456
24886W        W93304  22.184  24.640  12.391
24887W        W93305  23.506   3.908   2.746
24888W        W93306   8.695  24.616  11.561
24889W        W93307  38.018  41.444  11.866
24890W        W93308  12.169  21.682  14.923
24891W        W93309  26.619  32.619  13.491
24892W        W93310  43.002  10.811   3.650
24893W        W93311   7.286  22.651   2.272
24894W        W93312  19.770  41.845  14.325
24895W        W93313  42.021  15.710  13.936
24896W        W93314  43.997  31.606  11.558
24897W        W93315  19.681   3.814  13.807
24898W        W93316   7.801   8.690  14.322
24899W        W93317  10.813  19.257   2.354
24900W        W93318  36.358  29.630  10.032
24901W        W93319  25.651  33.042   3.382
24902W        W93320  14.339   3.356  14.371
24903W        W93321   7.784  35.926   1.434
24904W        W93322  19.718   7.205   3.870
24905W        W93323  34.514  19.612  14.896
24906W        W93324  33.424   6.676  14.935
24907W        W93325  14.173  33.889   2.208
24908W        W93326  37.068   5.299   3.832
24909W        W93327  21.164   8.389   1.902
24910W        W93328  14.204  30.975  11.526
24911W        W93329  43.960   3.738  12.045
24912W        W93330  23.065  31.568  10.529
24913W        W93331   7.338  40.934   3.865
24914W        W93332  35.086   1.295   1.396
24915W        W93333  34.035   1.861   3.368
24916W        W93334   8.249  35.073   3.758
24917W        W93335  16.777   7.668   4.774
24918W        W93336  28.129   7.686  10.988
24919W        W93337  35.603   0.753   2.370
24920W        W93338  36.893   9.868   1.295
24921W        W93339  32.490   6.721   3.165
24922W        W93340   7.760   6.271  13.003
24923W        W93341   0.932   4.800   1.326
24924W        W93342   8.845  27.508   1.254
24925W        W93343  34.924   8.692   5.081
24926W        W93344   5.896  35.900   1.928
24927W        W93345   8.898   3.822  13.038
24928W        W93346  43.981  21.706   3.702
24929W        W93347  20.595  24.594   4.231
24930W        W93348   2.267  17.738   4.236
24931W        W93349  13.679  32.983   4.742
24932W        W93350   6.205  42.410  13.525
24933W        W93351  20.145   4.891   1.749
24934W        W93352   9.371   3.736   1.783
24935W        W93353   0.906  40.041  10.449
24936W        W93354  20.726  34.373   2.284
24937W        W93355  32.481  43.345   0.818
24938W        W93356  37.035  21.142  11.907
24939W        W93357  11.196  23.171  14.024
24940W        W93358  12.830  41.512   0.765
24941W        W93359  39.335  12.182   4.750
24942W        W93360  32.566   0.944  13.533
24943W        W93361  35.386  38.354   1.896
24944W        W93362  38.336  31.585  12.893
24945W        W93363  19.077   9.665   3.722
24946W        W93364  12.182   6.207  11.105
24947W        W93365   0.333   8.291  13.380
24948W        W93366  21.171  40.448   9.605
24949W        W93367   3.760  21.544  12.549
24950W        W93368  41.522  43.785   1.369
24951W        W93369   0.272  31.604  12.339
24952W        W93370  27.512  21.120   3.377
24953W        W93371  42.385  21.173  13.960
24954W        W93372   8.194  41.386   3.665
24955W        W93373  32.542  15.781   0.336
24956W        W93374  14.790  30.645   5.282
24957W        W93375  30.487  12.335   1.932
24958W        W93376  30.969   0.785   2.743
24959W        W93377  35.496  32.071  11.524
24960W        W93378  23.724   7.812   4.210
24961W        W93379  12.681  18.247  13.372
24962W        W93380   9.786  33.555   1.892
24963W        W93381  44.960  19.257   3.720
24964W        W93382   6.191  16.130  14.333
24965W        W93383   0.938  21.747  11.414
24966W        W93384  37.412  37.074   4.163
24967W        W93385  15.218  28.650   3.646
24968W        W93386   6.889   5.321  11.473
24969W        W93387   2.927  34.505  13.991
24970W        W93388  33.071  15.215  12.549
24971W        W93389  24.639  22.552   0.826
24972W        W93390  19.597  19.620   1.303
24973W        W93391  23.198  24.186   2.269
24974W        W93392   9.220   1.406   4.313
24975W        W93393  27.176   1.947  12.028
24976W        W93394  29.556  31.595   0.403
24977W        W93395  27.499  40.979   2.340
24978W        W93396  32.889  35.950  12.468
24979W        W93397  10.814  21.684  12.975
24980W        W93398  30.995  19.283   3.643
24981W        W93399   2.367  39.888  13.517
24982W        W93400  13.803  10.818  11.011
24983W        W93401  13.213  27.462  13.333
24984W        W93402  17.642   3.921  12.437
24985W        W93403  19.101  23.571  13.909
24986W        W93404  22.587  32.049  14.448
24987W        W93405  44.368  10.676  12.371
24988W        W93406   0.431  28.604   2.768
24989W        W93407   4.823  25.005   2.830
24990W        W93408  42.922  14.194   5.142
24991W        W93409  38.867  29.965   2.716
24992W        W93410  39.998   5.332   0.445
24993W        W93411  31.574  16.076  14.507
24994W        W93412   1.737   7.297   0.755
24995W        W93413  20.104  12.298   2.249
24996W        W93414   4.814  23.157   4.833
24997W        W93415  43.399  20.229  10.422
24998W        W93416  29.622  22.513   3.807
24999W        W93417   2.944  39.827  13.418
25000W        W93418  11.701  40.449   2.816
25001W        W93419   7.900  13.639  12.429
25002W        W93420  10.775  29.098   2.280
25003W        W93421  43.320  32.541  14.972
25004W        W93422  13.156  37.432  11.574
25005W        W93423  24.091   8.230   2.190
25006W        W93424  38.840   9.887   1.935
25007W        W93425  36.027  18.064   3.275
25008W        W93426   7.315  22.676   0.278
25009W        W93427   2.432   3.736  12.507
25010W        W93428  23.091  30.452  13.508
25011W        W93429  11.316  34.412  10.487
25012W        W93430  39.040   0.794   5.249
25013W        W93431  36.408   4.375  10.517
25014W        W93432   1.760  38.984  13.499
25015W        W93433  30.070  44.390  11.504
25016W        W93434  33.896   5.301  10.992
25017W        W93435  12.222   8.276  14.462
25018W        W93436  24.617  14.699  11.868
25019W        W93437  41.908  10.138  11.931
25020W        W93438  37.077  25.193  11.064
25021W        W93439   0.408  40.829   3.681
25022W        W93440  22.660  33.127   2.351
25023W        W93441  23.068  19.130   4.150
25024W        W93442  35.451  43.271  10.889
25025W        W93443  33.619  32.003  10.933
25026W        W93444  31.495   6.849   4.678
25027W        W93445  43.908   0.311   3.285
25028W        W93446  39.912   8.839   3.368
25029W        W93447  25.029  30.532  11.983
25030W        W93448   9.690  20.648   0.341
25031W        W93449  20.718  41.857   0.775
25032W        W93450  26.698  24.563  11.520
25033W        W93451  10.148   3.252  11.983
25034W        W93452   2.274  28.458   2.379
25035W        W93453  23.581  34.017  14.858
25036W        W93454   8.699  38.029  14.303
25037W        W93455  14.633  36.038   1.837
25038W        W93456  42.983  25.121  13.346
25039W        W93457   5.222   0.852  12.410
25040W        W93458   2.468   4.758  10.452
25041W        W93459  36.081  35.542  14.926
25042W        W93460  36.454  27.964  13.792
25043W        W93461  22.500  36.850  13.390
25044W        W93462  26.642   5.687   0.837
25045W        W93463  19.259  37.574  12.012
25046W        W93464  20.111  13.228   4.354
25047W        W93465  42.907  33.040   4.809
25048W        W93466  24.721  40.527   2.232
25049W        W93467  22.188   1.464  11.550
25050W        W93468   7.688  29.644  12.362
25051W        W93469  41.831  23.207   4.693
25052W        W93470   7.223   6.182   3.222
25053W        W93471  35.516  29.604   2.414
25054W        W93472  10.284   1.838  10.523
25055W        W93473  28.511   5.732  12.553
25056W        W93474  13.609  29.038   0.321
25057W        W93475  22.115  10.657   2.778
25058W        W93476  24.153  28.172  10.114
25059W        W93477  23.682  15.631   3.213
25060W        W93478  30.125  13.228   4.284
25061W        W93479   8.375   6.748   2.244
25062W        W93480  29.940  31.405   0.844
25063W        W93481   4.252   7.826  10.510
25064W        W93482  27.578  39.474  12.054
25065W        W93483  11.268  16.303  14.783
25066W        W93484  32.072  19.648  13.318
25067W        W93485  23.002  13.300   3.174
25068W        W93486  11.331  42.435  11.607
25069W        W93487  23.985  27.952   1.340
25070W        W93488  24.564  17.797  10.631
25071W        W93489  12.158  17.679   1.344
25072W        W93490  35.495  32.505   0.754
25073W        W93491  31.087  34.530  12.982
25074W        W93492  12.625   7.338  13.498
25075W        W93493   1.429  43.274  11.489
25076W        W93494  44.986  32.002   1.396
25077W        W93495  24.989   1.744  11.033
25078W        W93496   8.206  40.010   3.677
25079W        W93497  29.607  11.865  14.866
25080W        W93498   6.724  19.734   3.353
25081W        W93499  38.971  22.743  10.892
25082W        W93500  43.352  26.098   4.201
25083W        W93501   6.712  38.848   1.318
25084W        W93502  38.005  40.820  11.454
25085W        W93503  27.655   3.428   1.929
25086W        W93504   3.288  20.660   9.454
25087W        W93505  21.099  29.566  10.588
25088W        W93506  22.605  29.160  13.966
25089W        W93507  27.148   9.666  10.116
25090W        W93508  12.654  34.984  12.449
25091W        W93509   0.872  13.699   0.904
25092W        W93510   6.695  20.601  13.365
25093W        W93511  28.144  29.468  12.887
25094W        W93512  20.555  14.100  11.505
25095W        W93513  15.697  43.801  10.914
25096W        W93514  17.720  34.955   3.846
25097W        W93515  29.490  38.558  14.986
25098W        W93516   8.898  41.415  11.930
25099W        W93517  42.778  20.718   2.282
25100W        W93518  17.156  42.776   9.934
25101W        W93519   9.766  22.101   4.782
25102W        W93520  21.058   4.300  11.562
25103W        W93521  32.517  22.251   3.629
25104W        W93522  44.271  40.876  11.543
25105W        W93523  29.982  29.064   3.702
25106W        W93524   7.257   1.766  12.494
25107W        W93525  31.571  30.936  12.506
25108W        W93526  24.484   0.413  12.578
25109W        W93527  43.917   9.384  13.874
25110W        W93528  22.747  22.531   3.706
25111W        W93529  24.531  37.414  13.980
25112W        W93530  19.686  37.013  12.992
25113W        W93531  26.663  26.578  12.905
25114W        W93532  17.750  16.317   3.684
25115W        W93533  26.057  17.558   4.195
25116W        W93534  38.367  34.546   2.408
25117W        W93535  23.553   9.177   4.645
25118W        W93536  16.766  36.487  10.531
25119W        W93537  33.537   9.787   4.313
25120W        W93538  27.976  32.033  13.440
25121W        W93539  29.959  16.677  11.583
25122W        W93540   9.347   9.650   2.662
25123W        W93541  36.078   1.895  12.915
25124W        W93542  11.736  27.018   0.910
25125W        W93543  38.538   9.239  12.425
25126W        W93544  24.987  22.187   0.295
25127W        W93545   7.260   8.747  11.510
25128W        W93546  19.715  23.199   4.200
25129W        W93547  15.677  39.878   2.687
25130W        W93548   9.762  12.225  14.857
25131W        W93549  14.139  41.438  13.847
25132W        W93550  36.918  10.178   1.812
25133W        W93551   3.387  34.502   3.378
25134W        W93552   1.851  21.180   4.737
25135W        W93553  32.040  31.416   2.290
25136W        W93554  11.821   0.381   5.285
25137W        W93555  30.588  34.509   1.291
25138W        W93556  12.152  16.243   3.650
25139W        W93557  24.622  34.452   0.432
25140W        W93558  36.564  44.400  13.311
25141W        W93559  43.504   6.243   2.771
25142W        W93560   3.377  21.160   2.259
25143W        W93561  41.416   7.281   0.260
25144W        W93562  23.239  39.451  14.330
25145W        W93563  29.171   8.710  14.414
25146W        W93564  24.519  36.020   1.932
25147W        W93565  37.474  40.034  12.908
25148W        W93566  36.933   9.174  12.468
25149W        W93567  23.045  18.172   3.866
25150W        W93568  14.739  26.535  13.996
25151W        W93569  10.847  10.790   1.699
25152W        W93570  40.467  38.841   0.898
25153W        W93571  42.938   3.365   0.464
25154W        W93572  15.181  36.590  12.352
25155W        W93573   7.707  27.642  11.996
25156W        W93574  25.672  36.464   4.704
25157W        W93575  20.751  28.577   1.275
25158W        W93576  42.945  28.961  14.826
25159W        W93577  16.139   1.807  14.835
25160W        W93578  20.103  31.496   3.681
25161W        W93579  29.077   0.958  14.511
25162W        W93580  23.523  43.887  10.963
25163W        W93581  22.111  16.796  12.387
25164W        W93582  30.047   8.364   9.667
25165W        W93583  27.129  17.072   0.401
25166W        W93584   6.792  26.502   0.325
25167W        W93585  25.623  16.617  12.082
25168W        W93586  37.511  30.077  10.988
25169W        W93587  40.973   2.327  14.850
25170W        W93588  36.950  22.524   4.785
25171W        W93589  19.112  41.535   1.880
25172W        W93590  37.003  44.382  10.645
25173W        W93591   7.283  36.465  13.054
25174W        W93592   9.733   2.419  11.862
25175W        W93593  44.292   8.386   1.881
25176W        W93594  33.926  41.445  10.582
25177W        W93595  37.516   2.966  14.894
25178W        W93596  21.118   3.937   2.330
25179W        W93597   8.191  29.481   0.286
25180W        W93598   2.458  31.586  10.942
25181W        W93599  34.865   2.758  11.497
25182W        W93600  19.081  13.216   0.850
25183W        W93601  36.089  26.019  13.545
25184W        W93602  22.135   9.172   1.244
25185W        W93603  37.844  11.771  11.990
25186W        W93604  22.087  32.422  11.550
25187W        W93605  31.126   7.411  10.955
25188W        W93606   5.244  31.631  11.612
25189W        W93607   4.790  25.707   3.664
25190W        W93608  13.761   9.723  12.407
25191W        W93609  15.134   7.404   2.738
25192W        W93610  19.629  23.588  13.399
25193W        W93611  19.685  35.368   0.782
25194W        W93612   2.967  40.349  13.805
25195W        W93613   7.691  19.052   2.676
25196W        W93614  16.598  10.633  10.990
25197W        W93615  16.125  22.618  10.986
25198W        W93616  14.662  32.937  11.422
25199W        W93617  26.634   3.790   5.191
25200W        W93618   2.745   9.804   1.721
25201W        W93619   7.688  24.677  13.923
25202W        W93620  16.654  31.025   1.348
25203W        W93621  27.488  29.065   1.766
25204W        W93622  20.740  39.882   0.791
25205W        W93623  14.730  15.133  12.393
25206W        W93624  39.549  30.975   4.339
25207W        W93625  39.458  28.572  10.923
25208W        W93626  12.784  31.919   2.666
25209W        W93627   8.341  18.666   2.726
25210W        W93628  25.057  21.250  12.537
25211W        W93629  24.637  32.465   4.329
25212W        W93630  24.520   1.862   2.726
25213W        W93631  44.831   8.678  11.423
25214W        W93632  13.143  41.981   0.844
25215W        W93633   2.278   2.740   1.879
25216W        W93634  27.994   9.760  13.421
25217W        W93635  42.849  34.878   5.189
25218W        W93636   3.313   3.925   1.432
25219W        W93637   4.380  42.471  13.877
25220W        W93638   9.202  21.669   4.624
25221W        W93639  10.161  30.627  11.439
25222W        W93640  24.018   9.248  11.447
25223W        W93641  42.015   8.354  12.552
25224W        W93642   0.844  10.238   2.732
25225W        W93643   7.850  42.013   4.278
25226W        W93644   3.890  28.026  12.376
25227W        W93645  21.601   3.425  12.404
25228W        W93646  33.516  34.975   2.771
25229W        W93647  30.067  20.735  14.921
25230W        W93648  37.475  18.278   1.696
25231W        W93649  36.044  36.454   9.479
25232W        W93650  32.134  30.922  14.805
25233W        W93651   8.837  25.707  11.389
25234W        W93652  28.670  33.095  10.907
25235W        W93653  41.838  39.487   0.313
25236W        W93654  14.831   2.333   2.306
25237W        W93655   4.943  28.186  13.010
25238W        W93656  44.009  21.527   4.764
25239W        W93657  10.351   7.330  10.504
25240W        W93658  26.645  24.182   1.870
25241W        W93659  21.153  20.031   1.350
25242W        W93660   8.279   9.861   3.802
25243W        W93661  30.096  27.656  11.999
25244W        W93662  34.466  40.473  13.440
25245W        W93663   4.257  26.585  13.523
25246W        W93664  33.899   5.388  14.277
25247W        W93665  31.051  23.043  11.010
25248W        W93666   4.739   3.370   5.242
25249W        W93667  23.191  12.669   4.631
25250W        W93668  21.606  41.483  12.554
25251W        W93669   6.353  36.057  11.373
25252W        W93670  37.993  36.431  14.794
25253W        W93671   3.867  43.394  11.982
25254W        W93672  18.731   0.444   3.286
25255W        W93673  11.296   8.249   1.764
25256W        W93674  28.668  19.056  13.473
25257W        W93675   5.763  20.254   3.260
25258W        W93676  18.647  33.571   3.800
25259W        W93677  13.122  22.639   3.725
25260W        W93678   9.186  38.355   3.164
25261W        W93679  30.995  22.033   1.831
25262W        W93680  36.550  43.467  12.530
25263W        W93681  42.873  12.292   3.199
25264W        W93682  14.125   7.905  14.478
25265W        W93683  39.810   3.778  13.993
25266W        W93684  34.075  12.699   4.617
25267W        W93685  31.982  13.187  10.627
25268W        W93686   6.711  28.547   0.390
25269W        W93687  11.169   9.677  12.057
25270W        W93688  25.541  40.484  11.972
25271W        W93689  35.398  11.291   2.802
25272W        W93690   9.381   9.359  10.531
25273W        W93691  17.705  27.183   1.443
25274W        W93692  41.845  32.010   4.805
25275W        W93693  17.236  37.895   2.738
25276W        W93694  29.638  29.533  11.455
25277W        W93695  34.472  10.847  12.393
25278W        W93696  43.317  36.851  13.839
25279W        W93697  29.430  25.611   1.247
25280W        W93698   8.759  30.611   0.942
25281W        W93699  25.152   7.172   0.413
25282W        W93700   0.269  20.130  11.876
25283W        W93701   1.768  15.746   3.322
25284W        W93702  21.746  40.932   9.620
25285W        W93703  42.471  27.074  12.000
25286W        W93704  31.125  15.774  12.452
25287W        W93705  20.258  24.490  14.938
25288W        W93706  27.161  12.715  14.847
25289W        W93707  44.324  22.041   9.567
25290W        W93708  22.603  21.747   4.342
25291W        W93709   2.264  31.039  12.342
25292W        W93710  37.384  27.545   4.601
25293W        W93711  44.340  27.670  12.869
25294W        W93712  20.630   5.708   4.116
25295W        W93713  30.002   5.730   0.244
25296W        W93714  10.191  10.158   2.197
25297W        W93715  16.268  40.435   3.378
25298W        W93716  43.425  29.648  13.320
25299W        W93717  15.113   0.455  14.915
25300W        W93718  22.508   1.453   4.679
25301W        W93719   1.351  15.318   2.268
25302W        W93720  38.352  18.193  14.023
25303W        W93721  43.906  17.178  13.887
25304W        W93722   0.776   6.865  10.465
25305W        W93723  25.691  28.019  10.043
25306W        W93724  28.964  26.569  11.475
25307W        W93725  44.961  12.754   2.716
25308W        W93726   0.796  12.241   3.265
25309W        W93727  39.965  41.810   2.718
25310W        W93728  34.899  38.408   2.786
25311W        W93729  13.314  24.221   3.380
25312W        W93730  42.982  13.107   4.702
25313W        W93731  36.940   5.758   2.669
25314W        W93732   3.725   6.795  11.876
25315W        W93733  23.637  12.324   2.211
25316W        W93734   7.377  36.908  13.865
25317W        W93735  22.060  14.150  14.409
25318W        W93736  34.050  18.125  14.461
25319W        W93737  11.756   5.933   1.378
25320W        W93738  26.615  30.651   1.737
25321W        W93739  32.544  31.125   1.219
25322W        W93740  31.919   0.463   0.730
25323W        W93741  32.451  43.506  11.924
25324W        W93742  11.659  24.549   4.831
25325W        W93743  29.147  18.762   3.865
25326W        W93744   8.690  19.607   4.650
25327W        W93745   5.375   2.419  14.406
25328W        W93746  10.141  12.201   4.663
25329W        W93747  22.048  44.766   3.700
25330W        W93748   5.405  24.659   4.132
25331W        W93749  36.881  15.679  10.102
25332W        W93750  29.072  35.880   1.365
25333W        W93751   4.245  15.237  14.805
25334W        W93752  20.063  15.791  10.639
25335W        W93753  16.318  32.561  12.894
25336W        W93754  36.391   9.773  12.437
25337W        W93755  17.764  38.958   2.784
25338W        W93756   2.233   9.795  10.404
25339W        W93757  12.822  13.244  13.362
25340W        W93758   6.342  42.833   0.764
25341W        W93759  13.247   6.774   3.261
25342W        W93760  43.430  19.611   5.207
25343W        W93761   1.447  24.545  12.828
25344W        W93762  34.592  34.912   0.858
25345W        W93763  16.732   8.275   4.796
25346W        W93764   4.306  41.833   2.329
25347W        W93765  32.454  32.017   2.332
25348W        W93766   5.410  38.065  13.905
25349W        W93767   2.336  25.996   4.654
25350W        W93768  19.546  17.081   1.850
25351W        W93769  23.669   3.860  12.452
25352W        W93770  31.540  21.137  13.968
25353W        W93771  21.582  13.603   0.466
25354W        W93772  28.452  15.759  14.978
25355W        W93773   7.838  13.600   1.917
25356W        W93774  13.307  37.986  12.021
25357W        W93775  29.549   9.338  10.065
25358W        W93776   7.733  32.110   4.752
25359W        W93777  42.470  11.860   4.255
25360W        W93778   2.352  18.159   1.745
25361W        W93779  30.094   5.702  14.852
25362W        W93780  34.014  21.549   3.685
25363W        W93781   0.969  39.031   0.739
25364W        W93782  29.112  22.625  10.636
25365W        W93783  43.954  29.594  10.927
25366W        W93784  36.060   5.328   0.455
25367W        W93785  22.035  36.843  11.576
25368W        W93786  25.569  29.438   4.293
25369W        W93787  44.291  20.539   3.694
25370W        W93788  14.630   3.852  14.494
25371W        W93789  27.480  15.092   3.788
25372W        W93790  32.033  10.255   2.890
25373W        W93791  14.239  26.540  13.993
25374W        W93792   2.227   0.330  11.487
25375W        W93793  18.730  38.914  14.812
25376W        W93794  41.505  36.926  10.460
25377W        W93795  29.931   6.687  10.491
25378W        W93796  11.250  42.927   1.343
25379W        W93797  29.587  24.634   4.135
25380W        W93798   5.834  25.675   4.649
25381W        W93799  43.791  44.393   3.338
25382W        W93800  32.607  41.940  14.812
25383W        W93801  13.116  35.431   0.471
25384W        W93802   9.312  31.411   3.317
25385W        W93803  37.835  39.437   9.494
25386W        W93804  39.922   5.221   3.256
25387W        W93805   7.752   8.741   4.652
25388W        W93806  36.027  21.571  12.509
25389W        W93807  42.439   2.812   4.185
25390W        W93808  10.739  11.679  10.992
25391W        W93809   8.343  38.551  14.813
25392W        W93810  35.917   7.305  13.438
25393W        W93811  30.539  10.664   1.273
25394W        W93812   3.930   5.346   3.805
25395W        W93813  14.645   7.728   3.191
25396W        W93814  29.606  42.028   1.717
25397W        W93815  23.663  22.221   2.869
25398W        W93816  38.426  33.549  11.379
25399W        W93817  14.593  21.570   3.385
25400W        W93818  23.007  21.573  14.354
25401W        W93819  33.130  18.716   0.949
25402W        W93820  18.718  38.018   1.706
25403W        W93821  34.421   8.353  14.919
25404W        W93822  17.303  22.129  10.902
25405W        W93823  18.695  37.020  10.595
25406W        W93824  30.416  25.131  12.941
25407W        W93825  36.094  15.180  10.517
25408W        W93826  28.041  27.187  13.037
25409W        W93827  25.682   8.272  14.406
25410W        W93828  43.355  29.000  13.452
25411W        W93829   6.732  24.621  12.546
25412W        W93830   1.958  39.361  11.067
25413W        W93831  20.699   8.236  14.821
25414W        W93832  15.773  40.910  13.874
25415W        W93833   3.245  41.989   0.480
25416W        W93834   3.217  39.864  13.857
25417W        W93835  36.941   9.188  14.918
25418W        W93836  31.647  33.074   1.326
25419W        W93837  24.574  38.528   5.176
25420W        W93838  35.042  23.645  14.762
25421W        W93839   4.728  30.543   2.851
25422W        W93840  12.746   0.864  12.905
25423W        W93841  15.300  44.809   4.151
25424W        W93842   3.733  40.517   3.289
25425W        W93843  28.042  26.644  10.645
25426W        W93844  14.665   2.833  12.890
25427W        W93845   6.853  20.149   4.224
25428W        W93846   7.848  44.785   0.920
25429W        W93847  25.972  25.159  13.934
25430W        W93848  44.352  34.049   4.672
25431W        W93849  40.350   2.882  12.374
25432W        W93850  31.002  38.884  12.073
25433W        W93851  12.161  11.707  14.488
25434W        W93852  38.960  42.495  11.048
25435W        W93853  20.590  35.937   0.909
25436W        W93854  31.625  43.385   1.234
25437W        W93855  41.336   0.333   0.468
25438W        W93856  37.077  20.231   1.822
25439W        W93857  15.698  26.180  13.845
25440W        W93858  35.435  44.983  13.983
25441W        W93859  38.901  28.003   4.340
25442W        W93860  36.895  31.467   1.317
25443W        W93861  23.146   5.742  13.893
25444W        W93862  12.311   2.383   2.738
25445W        W93863  11.844  36.002   5.234
25446W        W93864  17.133   3.243  11.516
25447W        W93865  38.841  32.991  10.453
25448W        W93866   7.352   4.722   3.272
25449W        W93867  13.282  26.644  12.868
25450W        W93868  34.941   8.223  13.518
25451W        W93869  36.529  41.888   4.117
25452W        W93870   8.174  31.942   2.688
25453W        W93871   1.857   6.678   4.198
25454W        W93872  23.094  32.073  12.421
25455W        W93873  37.964  30.955  10.571
25456W        W93874  39.516  12.208  14.387
25457W        W93875  43.848  22.102   2.332
25458W        W93876  20.595  28.504  11.046
25459W        W93877  31.115  40.023   3.278
25460W        W93878  28.127  28.060  11.977
25461W        W93879  41.486  42.418  12.993
25462W        W93880  36.014  22.667   0.368
25463W        W93881  43.993  19.549   1.836
25464W        W93882  27.174  15.805   1.326
25465W        W93883   8.225  13.719   4.676
25466W        W93884   8.236  26.172   1.929
25467W        W93885  36.418  23.008  14.351
25468W        W93886  25.534  40.522   0.933
25469W        W93887  44.788  23.107  14.806
25470W        W93888  18.653  36.484   3.155
25471W        W93889  27.044   1.852   0.726
25472W        W93890  28.541   6.306   3.639
25473W        W93891  40.463   2.733  13.868
25474W        W93892  32.110  12.688   3.661
25475W        W93893   8.218  25.492   4.192
25476W        W93894  42.523  43.500   1.314
25477W        W93895  19.267  28.176   4.603
25478W        W93896   3.406  43.401  12.340
25479W        W93897   0.788  33.945  12.490
25480W        W93898  29.613  30.568   0.293
25481W        W93899  33.879  18.658   2.716
25482W        W93900   8.297  24.206  14.024
25483W        W93901  25.670  25.537   3.208
25484W        W93902   9.353  33.421   1.713
25485W        W93903  34.588  31.485  13.508
25486W        W93904  20.221  29.991   3.183
25487W        W93905   6.183   2.363  10.616
25488W        W93906   1.422  36.873  12.404
25489W        W93907  27.150  36.918   4.724
25490W        W93908  27.508  28.505  10.613
25491W        W93909  19.673  30.994  14.950
25492W        W93910  30.915  32.142   4.265
25493W        W93911  14.176   6.706   4.280
25494W        W93912   8.775  14.752  13.377
25495W        W93913  39.415  33.911   0.303
25496W        W93914  18.168  22.594   4.605
25497W        W93915  36.012  13.314   2.683
25498W        W93916   9.863   6.258   2.825
25499W        W93917  17.625  14.287   3.222
25500W        W93918  30.092  32.440  11.990
25501W        W93919  35.368  38.964   3.867
25502W        W93920   6.214  14.158   2.694
25503W        W93921  21.080  30.460  10.951
25504W        W93922  15.261   1.345   2.865
25505W        W93923  10.141  29.010   4.152
25506W        W93924  31.557  30.077   4.759
25507W        W93925  44.490  31.033   3.733
25508W        W93926   8.164  26.959   0.860
25509W        W93927   9.888  22.237  14.298
25510W        W93928  21.713  17.111   2.760
25511W        W93929  39.847  21.538  12.914
25512W        W93930  19.146   1.881   1.211
25513W        W93931   8.818   1.768  11.389
25514W        W93932  20.673   6.773  11.060
25515W        W93933  38.837  29.954   1.310
25516W        W93934  22.149  39.873  11.586
25517W        W93935   8.330  42.511   2.670
25518W        W93936  36.434  16.607   0.341
25519W        W93937  19.765  40.843  11.925
25520W        W93938   6.398   4.298   3.322
25521W        W93939   4.370  37.351   2.416
25522W        W93940  42.924  40.878   1.394
25523W        W93941  33.405  29.038  12.489
25524W        W93942  21.224  38.508   1.773
25525W        W93943   4.784   3.840   1.858
25526W        W93944   9.288   8.273  12.442
25527W        W93945  32.602  32.920   1.413
25528W        W93946   2.291  16.241   3.727
25529W        W93947  40.862  37.837  10.967
25530W        W93948   5.422   7.227   2.716
25531W        W93949  19.197  17.779   1.233
25532W        W93950  30.545  24.640  11.897
25533W        W93951  33.053  36.915  11.597
25534W        W93952  44.395  38.491   0.820
25535W        W93953   3.732  12.219  13.011
25536W        W93954  20.153   2.841  14.358
25537W        W93955  41.985  15.659   3.302
25538W        W93956  26.090  26.686   2.316
25539W        W93957  18.130  14.650  10.541
25540W        W93958   3.762  42.306  11.888
25541W        W93959  39.322  13.146  10.936
25542W        W93960  28.678  24.034  11.000
25543W        W93961   7.394   3.874  12.958
25544W        W93962  39.818   3.881  13.500
25545W        W93963   9.866  23.684   1.777
25546W        W93964   6.403  43.012   3.237
25547W        W93965  34.422  32.428  14.809
25548W        W93966  26.554  20.628   0.473
25549W        W93967  20.651  14.197  14.864
25550W        W93968   4.436  40.362   0.408
25551W        W93969  13.216   0.313   1.731
25552W        W93970  25.631  26.064  12.894
25553W        W93971  31.132  22.104   0.846
25554W        W93972   4.424  18.776   0.797
25555W        W93973  15.652  43.307  11.555
25556W        W93974  25.124  41.516   4.197
25557W        W93975   2.448  43.353   1.250
25558W        W93976  25.031  38.390  13.399
25559W        W93977   3.709  26.952  11.467
25560W        W93978  15.325   0.473  10.461
25561W        W93979  10.635  26.561   1.440
25562W        W93980  28.935  21.689  12.519
25563W        W93981  44.008  10.240   1.805
25564W        W93982  21.716   2.291   0.921
25565W        W93983  29.144  34.589   3.666
25566W        W93984  38.016  37.423   2.201
25567W        W93985   2.410  20.181   9.956
25568W        W93986  44.298   2.341   5.289
25569W        W93987  21.200  31.577   3.292
25570W        W93988   4.297  15.642   3.694
25571W        W93989  30.962  20.670  14.762
25572W        W93990  35.534   4.213   4.175
25573W        W93991   2.385  28.554   2.846
25574W        W93992   2.335   6.230  10.066
25575W        W93993   9.821  28.157  14.948
25576W        W93994  36.445   2.401   2.293
25577W        W93995  12.335  14.823  12.984
25578W        W93996  15.230  14.292  13.399
25579W        W93997  17.084  37.442   4.814
25580W        W93998  36.045  24.013   4.625
25581W        W93999  10.232   1.320   0.452
25582W        W94000  13.798  25.705   0.837
25583W        W94001  12.227   0.358   2.845
25584W        W94002  18.085  30.940   3.368
25585W        W94003   9.740   3.776  14.355
25586W        W94004  41.308  31.539  10.583
25587W        W94005  35.055  42.802   2.321
25588W        W94006  39.841  25.984   0.300
25589W        W94007  15.799  18.052   1.305
25590W        W94008   2.317  19.705   4.767
25591W        W94009  22.034   6.877   0.378
25592W        W94010   0.869  16.623   9.922
25593W        W94011  28.179  35.524  11.963
25594W        W94012  43.895  32.595   3.297
25595W        W94013  15.578  31.452   1.228
25596W        W94014  33.443  13.205   4.708
25597W        W94015  10.156  34.521  13.450
25598W        W94016  31.915  13.766  13.423
25599W        W94017  26.061   4.355  13.946
25600W        W94018   4.851  25.551  11.568
25601W        W94019  16.266  30.058   2.217
25602W        W94020  30.544  11.291   0.412
25603W        W94021   4.908  28.048   4.775
25604W        W94022  18.566  34.570   2.712
25605W        W94023   6.880  43.297   1.342
25606W        W94024  17.601  28.979  12.527
25607W        W94025  41.850  30.104   0.741
25608W        W94026  31.914  27.014   2.672
25609W        W94027  22.014  27.624   4.712
25610W        W94028  21.048  18.098   1.300
25611W        W94029  16.593  15.213   1.815
25612W        W94030  32.468   5.772  14.404
25613W        W94031  44.429  26.680   1.909
25614W        W94032  34.581   6.918  10.474
25615W        W94033  16.736  24.631  13.814
25616W        W94034  11.214  15.722   2.900
25617W        W94035  43.283  43.372   2.414
25618W        W94036  39.937  42.809  14.462
25619W        W94037  36.844   2.285  12.058
25620W        W94038   8.803   5.761  12.010
25621W        W94039  10.347  36.524  10.910
25622W        W94040  36.460  13.205   2.333
25623W        W94041  20.242  17.762  13.419
25624W        W94042   3.873  42.930  13.447
25625W        W94043   7.867  19.584  12.986
25626W        W94044  21.608  21.056  10.465
25627W        W94045  42.932   1.941  12.970
25628W        W94046  12.155   9.324   4.826
25629W        W94047  11.854  29.450   4.228
25630W        W94048   3.818  31.118  13.459
25631W        W94049  17.229  20.199  14.881
25632W        W94050  21.587  14.693  11.078
25633W        W94051  33.531  22.075  12.393
25634W        W94052  35.044  39.527  12.896
25635W        W94053  20.599  27.073   5.575
25636W        W94054  43.514  41.436   2.712
25637W        W94055  33.519  37.533   1.236
25638W        W94056  29.670  16.266  12.416
25639W        W94057  35.416  43.334   3.735
25640W        W94058   6.289  26.131   1.381
25641W        W94059  14.260   0.310  11.018
25642W        W94060  12.790  34.086  12.917
25643W        W94061  27.162   2.727   0.950
25644W        W94062  16.718  27.156  14.395
25645W        W94063  10.243  24.492   4.260
25646W        W94064   2.415  33.514  13.854
25647W        W94065  19.198  38.327  11.898
25648W        W94066  31.463  44.313   1.772
25649W        W94067  33.530  39.039   4.323
25650W        W94068  33.575   5.219   3.235
25651W        W94069  36.586  11.670  14.979
25652W        W94070   2.388  42.411  12.478
25653W        W94071  43.460   7.730   3.766
25654W        W94072  40.911  15.190  13.410
25655W        W94073  31.558   5.208   4.664
25656W        W94074  36.399  17.171  13.479
25657W        W94075   1.826   6.771   1.874
25658W        W94076  44.902  38.058  13.918
25659W        W94077  25.095  26.038   4.277
25660W        W94078   1.829   4.924  13.542
25661W        W94079   6.863  23.683   4.615
25662W        W94080  41.024  38.366  11.414
25663W        W94081   8.403  40.859   4.257
25664W        W94082  27.142  44.294  13.018
25665W        W94083  41.497   2.380   2.311
25666W        W94084  11.854  21.253   1.892
25667W        W94085  31.912  39.052  13.009
25668W        W94086  17.227   5.835   3.741
25669W        W94087  27.447  27.642  12.547
25670W        W94088   5.834  30.058   0.936
25671W        W94089  42.281  18.163   1.268
25672W        W94090   8.373  31.997  13.480
25673W        W94091  17.761  33.418   4.273
25674W        W94092  40.046  29.461   2.188
25675W        W94093  27.516  15.680  12.539
25676W        W94094   8.370  30.523   3.741
25677W        W94095  41.840  17.580   2.750
25678W        W94096  28.566  11.356   1.708
25679W        W94097   6.708  23.521   3.663
25680W        W94098  23.181  12.223  14.002
25681W        W94099  39.891  16.611   3.225
25682W        W94100  31.526  20.555   4.281
25683W        W94101  34.988  32.978  12.962
25684W        W94102  38.863   4.796  13.412
25685W        W94103  15.605  20.273  14.988
25686W        W94104  14.639  16.602   4.196
25687W        W94105  37.363  30.483  12.455
25688W        W94106   1.941  38.861  12.051
25689W        W94107  40.992   3.230  10.475
25690W        W94108   7.404   2.950  11.593
25691W        W94109   8.202  16.684   0.899
25692W        W94110  39.056  36.519  14.874
25693W        W94111  44.773  39.441   2.859
25694W        W94112  44.817   6.715   3.196
25695W        W94113  44.409  39.360   2.414
25696W        W94114   5.752  23.066   0.846
25697W        W94115   5.393   8.256   0.252
25698W        W94116  20.590  17.791  14.815
25699W        W94117  15.293   2.935   2.779
25700W        W94118  26.969  15.231  13.834
25701W        W94119  24.983   2.252   3.807
25702W        W94120  26.123   2.762  11.485
25703W        W94121  36.396   4.317  11.390
25704W        W94122  39.865   0.905   2.249
25705W        W94123  41.444  34.059  10.898
25706W        W94124  17.251  39.858   2.686
25707W        W94125  28.593  25.499   1.861
25708W        W94126   2.454  22.556   0.360
25709W        W94127   9.173  29.938   4.680
25710W        W94128  40.512  39.814   3.358
25711W        W94129  33.944   4.361  14.916
25712W        W94130  25.541  40.414  12.451
25713W        W94131   9.215   4.368  12.417
25714W        W94132  41.489  35.062   4.231
25715W        W94133  36.379  18.205   0.245
25716W        W94134  38.339  28.182   1.383
25717W        W94135  19.598  34.067  12.526
25718W        W94136  43.861  28.947   2.407
25719W        W94137   7.733  29.952  14.329
25720W        W94138  25.030  37.507   0.435
25721W        W94139  11.212  35.546   2.307
25722W        W94140  18.175  37.398  11.888
25723W        W94141   8.286   1.386  11.429
25724W        W94142   7.725   3.801  14.330
25725W        W94143  26.664  17.263  14.454
25726W        W94144   7.276   7.722   1.437
25727W        W94145  27.544  14.719   2.379
25728W        W94146  18.053  44.007   1.806
25729W        W94147  28.643  31.945   1.803
25730W        W94148   8.323  25.136  10.965
25731W        W94149   8.198  29.621   2.867
25732W        W94150  11.786  41.849  10.579
25733W        W94151  15.182  34.893  14.373
25734W        W94152  10.197  18.700   0.733
25735W        W94153   5.400   9.175  13.543
25736W        W94154  27.570  16.117   3.683
25737W        W94155   0.275  31.428   4.149
25738W        W94156   0.849  25.490  13.436
25739W        W94157   2.264   5.275   4.239
25740W        W94158  10.742  35.376  10.425
25741W        W94159  42.810  12.687   2.769
25742W        W94160   2.727  42.437  13.799
25743W        W94161  39.377   2.947   0.941
25744W        W94162  33.994   4.282  12.346
25745W        W94163  40.349  25.074   3.150
25746W        W94164  27.167  26.068  14.406
25747W        W94165  31.143  11.666   4.182
25748W        W94166  36.444  23.692  14.963
25749W        W94167  10.757  28.018  10.438
25750W        W94168  37.572  44.265   1.791
25751W        W94169  13.106  34.996  11.931
25752W        W94170  43.381  29.989   0.817
25753W        W94171  36.437  29.649  13.886
25754W        W94172  14.136   8.356  13.396
25755W        W94173  22.610  11.248   0.259
25756W        W94174  32.443   8.842   2.889
25757W        W94175   4.768  16.673   4.709
25758W        W94176  10.647   3.285   0.425
25759W        W94177   0.824  32.465   1.772
25760W        W94178  35.486  10.378   4.242
25761W        W94179  21.670  17.075  14.021
25762W        W94180  39.971  33.506   3.720
25763W        W94181  20.647  35.529   2.341
25764W        W94182  32.554  38.971  13.313
25765W        W94183  38.012  29.460  11.582
25766W        W94184  30.443   4.278  12.842
25767W        W94185  35.567  36.494  13.376
25768W        W94186  15.303  17.579   0.794
25769W        W94187   1.242  34.555   0.792
25770W        W94188  18.725  21.573  14.906
25771W        W94189   5.286  28.092  12.901
25772W        W94190  30.448  42.526   0.747
25773W        W94191   8.254   2.228   1.344
25774W        W94192  34.384  32.082  14.307
25775W        W94193  29.035  34.007  13.438
25776W        W94194  21.555   8.786   2.715
25777W        W94195   7.204  42.308  10.511
25778W        W94196  43.975  36.949   4.831
25779W        W94197  16.578  28.663  12.079
25780W        W94198   7.667  13.655   2.345
25781W        W94199  35.881  18.682   1.256
25782W        W94200  17.573  23.082   1.264
25783W        W94201  32.498   4.273  12.033
25784W        W94202   1.837  23.724   3.248
25785W        W94203   1.304   0.316   2.669
25786W        W94204  38.460  39.526   2.744
25787W        W94205  14.743  30.985  11.506
25788W        W94206  18.201  21.073   3.324
25789W        W94207  24.151  17.605   1.278
25790W        W94208  37.419   9.199  11.007
25791W        W94209   6.279  18.660   4.301
25792W        W94210  32.941  12.751  12.933
25793W        W94211  40.529  42.933  13.920
25794W        W94212  24.694  31.942   0.300
25795W        W94213  21.046  16.691  12.018
25796W        W94214  30.520  27.526  14.017
25797W        W94215  10.769  44.412   3.780
25798W        W94216   5.816  23.710  12.451
25799W        W94217   1.274  18.787  14.825
25800W        W94218  21.068  41.410  11.894
25801W        W94219  38.335  11.829   0.263
25802W        W94220  15.185   3.755   1.745
25803W        W94221  20.652  12.244   0.910
25804W        W94222   5.925  27.141   3.776
25805W        W94223  38.066  24.054   4.765
25806W        W94224   6.796  22.071   4.832
25807W        W94225  27.673  25.712  10.908
25808W        W94226   7.770  12.154   0.440
25809W        W94227  44.902  21.260  12.075
25810W        W94228  27.143  17.797   4.323
25811W        W94229   7.724   5.394  12.931
25812W        W94230  42.976  25.984  13.346
25813W        W94231   6.245  24.059  10.621
25814W        W94232  10.748  33.495  11.937
25815W        W94233  15.217   3.819   3.868
25816W        W94234   6.790  19.171   3.661
25817W        W94235  32.032  25.653  12.022
25818W        W94236  40.045  43.011  13.534
25819W        W94237   0.342  36.578  11.521
25820W        W94238  44.466   4.283  14.350
25821W        W94239  43.929  11.293   3.651
25822W        W94240   6.270   8.812   5.092
25823W        W94241  25.014   7.359  14.471
25824W        W94242  36.500   8.701  11.536
25825W        W94243  44.891  21.073   2.329
25826W        W94244   1.797   5.817  14.463
25827W        W94245  22.654  37.937   3.255
25828W        W94246  19.749  16.310   1.387
25829W        W94247   5.929  32.949   0.369
25830W        W94248  14.094  43.502  14.976
25831W        W94249  30.063  21.098  14.813
25832W        W94250  38.338  18.651   1.781
25833W        W94251  31.477  42.988   2.367
25834W        W94252  32.068  37.570   4.654
25835W        W94253  38.854  40.388  14.833
25836W        W94254   9.649  44.838  14.782
25837W        W94255   9.298  34.501  11.957
25838W        W94256  20.163  37.928   1.329
25839W        W94257  35.075   5.265  11.583
25840W        W94258  23.722  25.513   2.366
25841W        W94259  21.747  20.114   0.733
25842W        W94260  23.091  42.423   4.352
25843W        W94261  40.840  32.025   0.801
25844W        W94262  18.121  40.833  12.578
25845W        W94263  40.880   9.677   3.725
25846W        W94264  44.423   2.392   2.823
25847W        W94265  20.261  36.862  11.008
25848W        W94266  32.904  11.326  12.886
25849W        W94267  36.037   3.312   0.473
25850W        W94268   8.772  11.860   4.228
25851W        W94269  44.944  40.852   0.311
25852W        W94270  41.470  24.105   5.271
25853W        W94271  23.057  43.312  11.073
25854W        W94272   7.874   7.874  14.766
25855W        W94273  38.892   8.745  10.570
25856W        W94274  42.866   0.982  14.927
25857W        W94275  44.458  10.178   3.844
25858W        W94276  41.812   6.846   2.893
25859W        W94277  30.536  44.433  10.489
25860W        W94278  30.640   3.252   2.301
25861W        W94279  12.159   9.859  12.001
25862W        W94280  16.242  28.589   1.820
25863W        W94281   3.865  37.844   1.886
25864W        W94282  14.689  31.949  12.452
25865W        W94283  15.789   8.817  14.861
25866W        W94284  31.492  35.934  12.529
25867W        W94285  42.312  10.825  12.876
25868W        W94286   1.440  10.321   2.821
25869W        W94287  40.960   9.702  13.879
25870W        W94288  23.603  14.210   0.306
25871W        W94289  32.946  27.168  12.496
25872W        W94290   2.341  31.050  11.561
25873W        W94291  38.983  20.569   4.219
25874W        W94292   4.848  22.678  11.435
25875W        W94293  33.555  22.201  13.854
25876W        W94294  33.457   2.925  11.389
25877W        W94295  40.805  12.821  13.846
25878W        W94296   4.369  23.713   2.825
25879W        W94297  44.851  28.587   1.826
25880W        W94298  26.134  15.697  13.934
25881W        W94299  27.525  31.619  12.447
25882W        W94300  24.143  41.302  13.846
25883W        W94301  40.350  13.830   0.961
25884W        W94302  25.476   5.746   1.341
25885W        W94303  24.001  33.502  10.076
25886W        W94304  44.474  17.623   5.248
25887W        W94305  44.771  10.732   3.219
25888W        W94306  40.500  37.909  14.969
25889W        W94307   4.445  44.466   3.313
25890W        W94308   9.340  37.415  14.477
25891W        W94309   9.267  44.786   0.779
25892W        W94310   0.950  12.280  10.451
25893W        W94311  33.129  33.122  14.293
25894W        W94312  12.242  41.006   4.677
25895W        W94313   0.342  21.195   3.202
25896W        W94314  25.117  34.557   4.337
25897W        W94315  12.217   0.925   0.376
25898W        W94316  23.194  16.135   4.729
25899W        W94317  35.385  37.996   0.786
25900W        W94318  38.861  16.723  12.977
25901W        W94319  43.842  34.993  13.932
25902W        W94320  16.719  34.057  12.997
25903W        W94321  13.345  11.747  11.540
25904W        W94322  42.365   1.736   0.753
25905W        W94323  15.789  10.740  14.795
25906W        W94324   9.346   3.764   0.919
25907W        W94325   4.342   9.750  13.439
25908W        W94326  14.721  14.211   3.228
25909W        W94327  30.428  30.980  14.759
25910W        W94328  26.172  14.206   3.147
25911W        W94329  14.130  17.771   4.788
25912W        W94330  32.569  34.083   2.211
25913W        W94331  36.907  18.192   4.203
25914W        W94332  39.825  25.552  10.466
25915W        W94333   9.820  34.470   0.746
25916W        W94334  21.093  28.966  14.879
25917W        W94335  23.699  40.819  13.990
25918W        W94336  31.477  42.375   4.679
25919W        W94337   9.319   7.176   4.323
25920W        W94338  24.479  39.025   4.632
25921W        W94339  13.260   0.935   3.217
25922W        W94340   0.444  32.416   4.835
25923W        W94341  18.134  22.079  12.858
25924W        W94342   2.427   5.885   2.311
25925W        W94343  10.157  38.413   0.401
25926W        W94344  44.937  31.635  13.519
25927W        W94345  13.795  13.673  10.439
25928W        W94346  40.892  28.151  14.376
25929W        W94347  41.350  19.277  11.599
25930W        W94348  17.581  35.862  12.981
25931W        W94349  11.649   9.244  13.995
25932W        W94350  24.198  24.104  10.593
25933W        W94351   8.859  36.520  14.798
25934W        W94352  14.825  42.796  14.821
25935W        W94353  13.124   7.399   4.303
25936W        W94354  33.005  15.111  13.060
25937W        W94355  36.914  37.527   3.336
25938W        W94356  39.509  15.695  13.003
25939W        W94357  39.056  27.478   1.239
25940W        W94358  25.677  18.697   4.169
25941W        W94359  15.186  17.126   1.264
25942W        W94360   2.302  23.658  12.933
25943W        W94361   4.816  15.203   3.866
25944W        W94362   0.292  32.140  12.374
25945W        W94363  27.666   4.251  12.909
25946W        W94364  33.461  22.061   4.165
25947W        W94365  12.230  17.725  12.079
25948W        W94366  38.386   8.270   4.605
25949W        W94367   7.691  36.996   0.815
25950W        W94368   0.294  21.717  11.106
25951W        W94369  17.771  18.647   2.341
25952W        W94370  37.938  33.007  10.433
25953W        W94371  41.950  19.251   4.718
25954W        W94372  42.032  17.166  13.997
25955W        W94373  28.964  22.995  12.871
25956W        W94374  25.186  17.208   5.204
25957W        W94375  32.631  29.520  14.799
25958W        W94376   1.289  38.831  13.872
25959W        W94377  11.229   4.926  14.861
25960W        W94378  20.092  43.857   2.268
25961W        W94379   3.852  19.049   3.330
25962W        W94380  39.927  19.188  14.955
25963W        W94381  28.993  19.583   5.195
25964W        W94382  44.388   6.353  14.873
25965W        W94383  13.725  34.069   1.852
25966W        W94384   9.212  32.986  10.428
25967W        W94385   4.351  12.756  11.097
25968W        W94386   0.462   2.828   4.743
25969W        W94387  33.958  22.510  12.940
25970W        W94388  39.923  43.394   2.879
25971W        W94389  30.495  34.019  11.872
25972W        W94390  12.166  25.199   4.712
25973W        W94391  29.605  43.337  14.357
25974W        W94392  16.117  35.932   3.192
25975W        W94393   0.481   5.782   4.342
25976W        W94394   6.755  24.607   3.319
25977W        W94395   2.441  12.748  11.472
25978W        W94396  21.096  20.713  13.858
25979W        W94397  43.496  42.490   2.365
25980W        W94398   7.202  30.107  10.597
25981W        W94399  37.859   8.159  13.980
25982W        W94400  24.709  24.513   1.285
25983W        W94401  43.449  26.483  11.390
25984W        W94402  17.608  42.843   2.677
25985W        W94403  30.975   0.261  13.813
25986W        W94404  31.545  33.525  11.558
25987W        W94405  15.696  41.982  11.446
25988W        W94406   4.207  41.512   1.919
25989W        W94407  34.456  18.214  14.313
25990W        W94408   8.857   8.892  14.866
25991W        W94409  13.314  38.054  10.616
25992W        W94410  24.138   1.833   3.663
25993W        W94411  32.095  36.044   4.170
25994W        W94412  39.518  11.841  10.026
25995W        W94413  20.535  26.143  10.447
25996W        W94414   2.461   5.787  12.869
25997W        W94415  33.027  40.857   1.819
25998W        W94416  38.006  26.985  11.414
25999W        W94417  33.517  42.526  13.921
26000W        W94418  22.596  38.859   5.278
26001W        W94419  22.058  19.675   0.404
26002W        W94420   1.900  29.920  13.360
26003W        W94421  43.450  33.900  13.456
26004W        W94422  11.853  35.519  13.454
26005W        W94423  19.043  15.194   3.327
26006W        W94424  37.069   5.787   1.419
26007W        W94425  37.984   0.359   2.729
26008W        W94426  42.921   0.343   4.194
26009W        W94427   4.243  10.172  12.910
26010W        W94428  28.511   3.293   3.330
26011W        W94429   3.349   7.911   4.330
26012W        W94430  35.399  33.006  12.549
26013W        W94431  13.732  23.660  13.344
26014W        W94432   0.389  25.218  13.500
26015W        W94433  25.053  36.392  12.564
26016W        W94434  11.197  40.478  13.980
26017W        W94435  31.489  27.609   3.647
26018W        W94436   6.717  18.254   4.122
26019W        W94437  44.934   1.819  14.972
26020W        W94438  36.869  35.458   2.408
26021W        W94439  13.816   9.694   0.247
26022W        W94440  41.526  18.056  10.499
26023W        W94441  32.965   3.265  11.029
26024W        W94442  29.041  14.168  14.389
26025W        W94443  39.850  11.761  13.362
26026W        W94444   9.234  13.654  10.937
26027W        W94445  13.704   8.299   3.147
26028W        W94446  29.505  21.024  14.392
26029W        W94447  10.327   4.924  13.809
26030W        W94448  19.228  41.954   1.885
26031W        W94449  22.055  24.035   1.781
26032W        W94450  16.575  37.857   1.728
26033W        W94451   3.322  31.414   4.330
26034W        W94452  16.308  15.178  11.553
26035W        W94453  17.237   6.350  11.997
26036W        W94454  28.039  44.970   4.186
26037W        W94455  38.849   8.168  13.838
26038W        W94456  38.444   1.395  14.515
26039W        W94457  41.950  11.690  10.609
26040W        W94458  38.367  25.589   1.364
26041W        W94459  23.713   6.835   3.377
26042W        W94460  20.129  11.630  11.009
26043W        W94461  42.825  40.319  13.479
26044W        W94462  11.829  25.068  12.025
26045W        W94463  28.487   8.663  13.385
26046W        W94464   3.900  28.444   3.173
26047W        W94465  30.929  44.393  14.003
26048W        W94466  36.011  27.090   4.718
26049W        W94467  24.596  23.002  13.826
26050W        W94468   9.768  37.419   4.155
26051W        W94469  35.914  29.600   0.886
26052W        W94470  41.436   4.806  15.000
26053W        W94471  15.190  43.798   3.184
26054W        W94472   3.867  30.002   4.716
26055W        W94473  11.713  21.642   4.669
26056W        W94474  11.152  16.779   2.268
26057W        W94475  41.365  30.952  10.991
26058W        W94476  34.615  21.696  12.570
26059W        W94477  32.927  16.609  14.440
26060W        W94478   1.237  40.819   4.800
26061W        W94479   0.765  40.807   1.221
26062W        W94480  25.653  15.310   3.224
26063W        W94481  35.099  41.788   0.444
26064W        W94482  44.920  23.551  12.528
26065W        W94483  28.025   5.193   4.662
26066W        W94484  16.232  19.241  13.434
26067W        W94485  14.775  33.046  12.427
26068W        W94486  37.844   9.733  14.390
26069W        W94487  33.966  25.176  13.445
26070W        W94488  30.571  13.816  13.817
26071W        W94489  37.018  23.220  13.369
26072W        W94490  10.232  13.691   2.898
26073W        W94491  32.073  37.464   2.735
26074W        W94492  17.583   9.730   4.141
26075W        W94493   9.771  25.218  11.504
26076W        W94494   7.369  20.667  11.106
26077W        W94495  15.819  13.350   5.210
26078W        W94496   5.802  31.100   3.731
26079W        W94497   4.279  30.010  13.937
26080W        W94498   3.913  16.247   1.845
26081W        W94499  40.978  10.664  12.455
26082W        W94500  17.165  42.919   2.773
26083W        W94501   0.293  32.103  14.979
26084W        W94502  35.935  41.382   0.483
26085W        W94503  36.975  21.217  12.453
26086W        W94504  13.134  25.585   2.751
26087W        W94505   5.362   3.360   2.262
26088W        W94506  28.960  16.782  13.458
26089W        W94507  10.767  23.599  13.416
26090W        W94508  34.605  42.863  14.908
26091W        W94509  16.150   8.303   4.331
26092W        W94510  40.342  39.422   4.680
26093W        W94511  35.445  29.107   2.831
26094W        W94512  28.524  16.580  11.540
26095W        W94513  30.635  23.676   4.624
26096W        W94514  36.465   3.318   0.786
26097W        W94515   7.838  16.595  12.479
26098W        W94516  43.971   9.198   0.774
26099W        W94517  33.496  36.996   4.695
26100W        W94518  26.665  31.483   0.437
26101W        W94519  38.827  35.444   2.899
26102W        W94520  13.154  10.206   3.239
26103W        W94521  36.374  28.144  13.522
26104W        W94522   3.232  15.265   2.729
26105W        W94523  12.188   6.218  12.881
26106W        W94524  33.104  25.630  13.949
26107W        W94525  21.217   3.344   0.823
26108W        W94526   5.293  29.052  10.415
26109W        W94527  36.391   5.326  14.353
26110W        W94528  35.021  13.625  13.974
26111W        W94529  44.314  43.353  13.805
26112W        W94530  44.820  24.675  13.948
26113W        W94531  35.878   7.775   0.409
26114W        W94532  24.056  17.096   4.129
26115W        W94533   8.294  24.047  14.496
26116W        W94534  10.694  26.019  13.542
26117W        W94535  14.178  28.955   4.299
26118W        W94536  16.089  19.584   0.842
26119W        W94537  15.304  24.187  13.015
26120W        W94538   8.730   7.756   3.770
26121W        W94539  29.134  12.790  11.487
26122W        W94540  22.043  31.923   0.959
26123W        W94541  21.082  17.757   5.154
26124W        W94542  40.984   0.416   0.388
26125W        W94543   3.777  23.015   4.269
26126W        W94544  34.946   5.776  13.337
26127W        W94545  10.756  30.471  10.507
26128W        W94546   2.824   1.836  14.854
26129W        W94547  34.876   3.723  10.555
26130W        W94548   5.302   9.236   2.244
26131W        W94549  12.340  20.152  11.942
26132W        W94550  42.517  27.055  14.832
26133W        W94551   9.392  44.432   2.892
26134W        W94552  10.267   3.878   3.372
26135W        W94553   2.901   2.838  12.082
26136W        W94554  15.750  30.580   3.704
26137W        W94555   6.292  42.297   1.709
26138W        W94556   7.865   3.260  14.502
26139W        W94557  29.569  15.760   4.638
26140W        W94558  30.436  18.758   2.354
26141W        W94559  34.515   6.289  10.569
26142W        W94560  31.593  36.842  10.618
26143W        W94561  22.668  32.909  14.792
26144W        W94562  37.389  26.142   0.778
26145W        W94563  32.018  16.207  11.053
26146W        W94564  24.564  14.186   4.803
26147W        W94565  35.908   3.347   4.737
26148W        W94566  22.080   4.699   0.284
26149W        W94567  23.576  38.852   0.743
26150W        W94568  33.042  26.611  12.445
26151W        W94569  31.486   3.369  13.449
26152W        W94570  14.103  43.278  11.966
26153W        W94571  21.187  38.547  13.893
26154W        W94572  36.528   9.780   2.277
26155W        W94573   0.470  13.228  14.991
26156W        W94574   0.744  25.020  10.924
26157W        W94575  13.837  23.674  12.560
26158W        W94576  22.069  27.515   3.704
26159W        W94577   0.884  36.041  14.303
26160W        W94578  17.680  22.620   3.377
26161W        W94579  21.543   5.433  11.513
26162W        W94580  31.965  24.553  13.427
26163W        W94581  21.744   5.401   2.354
26164W        W94582  13.817  10.161  14.316
26165W        W94583  33.565  12.799   3.266
26166W        W94584   6.720  24.089  14.326
26167W        W94585  18.188  37.532  13.519
26168W        W94586  20.535  44.332   2.342
26169W        W94587   6.237  33.106   0.793
26170W        W94588   1.897   5.813   0.736
26171W        W94589  42.407  27.030  12.880
26172W        W94590   9.818  11.738   1.433
26173W        W94591  38.522   7.749   4.242
26174W        W94592   3.829  26.631  12.867
26175W        W94593  17.233  37.060  12.943
26176W        W94594  28.553   1.455   3.189
26177W        W94595  21.646   3.359   0.805
26178W        W94596  34.008  27.620   0.750
26179W        W94597  33.094   9.345   4.781
26180W        W94598  20.693  32.615  10.454
26181W        W94599   3.378  21.026   0.271
26182W        W94600  30.060  41.000   0.252
26183W        W94601  44.289  25.214  12.984
26184W        W94602  32.501  19.173   4.788
26185W        W94603  41.849  33.456   4.163
26186W        W94604  18.209  10.729   4.709
26187W        W94605  13.196   6.271  13.359
26188W        W94606  19.273  16.098  13.920
26189W        W94607  42.024  28.980   4.237
26190W        W94608  12.202  25.998   1.749
26191W        W94609   2.926  13.292   0.270
26192W        W94610  42.952  38.879  12.391
26193W        W94611   6.789  23.504  12.352
26194W        W94612   3.308  13.326  11.498
26195W        W94613   7.724  31.117  12.364
26196W        W94614  12.775  19.757  12.504
26197W        W94615  39.434   0.319   0.273
26198W        W94616  42.510  20.603   3.729
26199W        W94617  11.652   9.232  11.473
26200W        W94618  32.958  33.073  13.866
26201W        W94619  35.505  15.718  11.466
26202W        W94620  25.981  29.457   4.803
26203W        W94621  44.795  33.060  11.564
26204W        W94622   6.817  27.510   2.806
26205W        W94623   6.872  41.906  13.396
26206W        W94624  32.080  30.039   3.681
26207W        W94625  44.915  31.523   2.765
26208W        W94626   8.667  15.798   1.280
26209W        W94627  35.984  39.958  12.977
26210W        W94628  13.151  21.061  14.281
26211W        W94629  35.368  44.379   0.461
26212W        W94630  26.982  23.050  14.885
26213W        W94631  31.039  35.493  10.537
26214W        W94632  11.672  20.706  14.013
26215W        W94633  18.189  11.668  11.604
26216W        W94634   1.928  26.150  10.520
26217W        W94635  13.648  17.153   3.730
26218W        W94636   8.221  33.517   4.267
26219W        W94637  11.766  15.646   0.831
26220W        W94638   4.878  36.004   3.840
26221W        W94639   1.805  44.424   3.822
26222W        W94640  27.576  43.407  14.497
26223W        W94641  28.665  10.680  11.976
26224W        W94642  34.894   1.291  11.606
26225W        W94643  33.876  28.040  11.115
26226W        W94644   8.193  14.658  10.958
26227W        W94645  23.145  15.670  13.534
26228W        W94646  37.371   2.747   1.301
26229W        W94647   9.767  36.920  10.640
26230W        W94648   1.358  28.184  13.434
26231W        W94649  23.152  40.875   1.753
26232W        W94650  26.962  34.488   3.243
26233W        W94651  38.987  40.988  12.985
26234W        W94652  26.526  29.518   5.151
26235W        W94653   6.883  35.409  12.065
26236W        W94654  43.476  32.447   0.755
26237W        W94655  41.439  11.179   1.241
26238W        W94656  27.536  25.710  14.286
26239W        W94657   7.173  13.805  12.079
26240W        W94658  41.487  28.454  13.375
26241W        W94659  29.974   9.806  12.931
26242W        W94660   2.236  24.716  14.368
26243W        W94661  26.078  23.147  12.095
26244W        W94662   4.315  23.567  14.385
26245W        W94663  28.067  40.539   2.885
26246W        W94664   1.378  19.686  12.512
26247W        W94665  21.187  29.517   3.337
26248W        W94666  24.689  32.580  12.446
26249W        W94667  10.346  11.721  14.971
26250W        W94668  32.539  12.225   0.427
26251W        W94669  14.611  10.812  12.000
26252W        W94670  27.951  24.042   2.670
26253W        W94671  27.178  25.511   4.704
26254W        W94672  36.521  21.219  11.028
26255W        W94673  25.106   2.471  10.603
26256W        W94674   9.653   1.281   4.196
26257W        W94675   7.674  37.072   4.190
26258W        W94676   2.235  14.628   0.789
26259W        W94677   5.296  16.765  14.873
26260W        W94678  24.060  28.635   2.693
26261W        W94679  37.063  17.706   0.943
26262W        W94680  27.679  16.206  12.495
26263W        W94681  44.774  34.065  10.941
26264W        W94682  25.498  23.551   1.285
26265W        W94683  30.094  26.686   3.237
26266W        W94684  26.976  10.383  14.503
26267W        W94685  26.998  40.049   4.794
26268W        W94686   7.847  27.637  13.812
26269W        W94687  32.488  27.539  12.034
26270W        W94688  31.110  34.926  11.463
26271W        W94689  39.534   0.469   3.253
26272W        W94690  41.034  35.936  11.558
26273W        W94691   6.846  28.462   4.778
26274W        W94692  20.638  32.937  13.008
26275W        W94693  18.236   0.769  13.337
26276W        W94694  21.723  39.911  13.005
26277W        W94695  32.465  15.667  12.553
26278W        W94696  31.550  42.305  11.063
26279W        W94697  31.099   5.309   4.214
26280W        W94698  28.938  17.635  14.430
26281W        W94699  37.421  11.798   2.861
26282W        W94700  24.089  27.013  12.570
26283W        W94701  36.355   2.339  14.425
26284W        W94702  23.145  25.471  11.599
26285W        W94703   0.924  17.570   4.714
26286W        W94704  14.796  23.672  13.534
26287W        W94705  24.605  23.699  12.073
26288W        W94706  40.475  36.921   0.761
26289W        W94707  43.273   8.710   0.781
26290W        W94708  44.006  41.404   0.477
26291W        W94709   0.982  32.108  11.051
26292W        W94710  15.201   2.902   0.404
26293W        W94711  23.176  41.458   2.850
26294W        W94712  17.608  43.861   1.801
26295W        W94713  27.517   3.255  12.511
26296W        W94714  43.420  33.530  14.438
26297W        W94715   9.249  30.548   2.896
26298W        W94716  43.968  17.708   4.189
26299W        W94717  24.975  17.294  13.989
26300W        W94718   3.391   3.917  11.542
26301W        W94719  35.461  32.942   2.858
26302W        W94720   0.434  34.488   2.375
26303W        W94721   0.767  30.036  12.825
26304W        W94722  10.776   8.706   0.736
26305W        W94723  34.417  17.093   2.688
26306W        W94724  39.956  34.569   3.204
26307W        W94725  38.354  36.868   1.352
26308W        W94726  43.500   4.878   1.832
26309W        W94727  30.039  14.259  12.054
26310W        W94728  36.910  39.034   2.288
26311W        W94729  15.615   7.864  12.023
26312W        W94730  35.877  40.482   1.871
26313W        W94731   3.417  12.299  13.317
26314W        W94732  32.537  13.173  11.872
26315W        W94733  25.637  26.584   1.282
26316W        W94734  29.566  42.483  14.834
26317W        W94735   3.427  12.233   1.909
26318W        W94736  26.168  10.279   0.865
26319W        W94737  40.425  31.099   2.187
26320W        W94738   3.240  23.700  12.404
26321W        W94739  42.839  25.537   3.654
26322W        W94740   9.678  17.123  12.086
26323W        W94741  20.142  34.981  10.476
26324W        W94742  42.377  40.371  10.526
26325W        W94743  13.262   5.198   2.332
26326W        W94744  27.606  38.379   3.202
26327W        W94745   6.328   3.726  14.405
26328W        W94746  26.198  25.667  10.612
26329W        W94747   7.330  22.678   3.323
26330W        W94748  43.786  17.708   0.326
26331W        W94749  26.984  29.446   1.376
26332W        W94750   6.240  22.018  14.416
26333W        W94751   7.230  28.055   1.406
26334W        W94752   6.237   0.302   2.767
26335W        W94753   6.769  20.613   1.724
26336W        W94754  36.459  43.444   0.900
26337W        W94755  12.723  23.984   2.191
26338W        W94756  18.206  40.958   0.454
26339W        W94757  31.580  38.009   2.326
26340W        W94758  26.658  12.157   3.152
26341W        W94759  29.475  11.340   4.165
26342W        W94760  40.338  38.970   1.382
26343W        W94761  22.183  12.768  11.532
26344W        W94762  19.622  19.162   1.380
26345W        W94763   3.852  44.952  14.513
26346W        W94764  41.041  21.538   0.948
26347W        W94765  18.081  30.116  12.411
26348W        W94766   6.418  16.170  13.903
26349W        W94767  37.931   9.675   0.334
26350W        W94768  24.123  27.981  12.570
26351W        W94769  19.558  28.000  10.442
26352W        W94770   3.877   8.713  12.888
26353W        W94771  23.689  17.116  13.485
26354W        W94772  21.582  18.723  11.530
26355W        W94773  30.092   1.853   0.879
26356W        W94774  38.488  41.366  13.393
26357W        W94775  20.089  36.000  11.601
26358W        W94776  26.118  35.507  10.452
26359W        W94777  16.158  37.981   2.213
26360W        W94778  17.591   2.404   1.264
26361W        W94779  18.576  44.490  14.481
26362W        W94780  15.790  17.710  14.031
26363W        W94781  36.510   6.423  13.353
26364W        W94782  22.717  36.548   2.394
26365W        W94783  13.606  41.520  13.976
26366W        W94784  19.704  36.968   3.790
26367W        W94785  10.317  11.800   1.219
26368W        W94786  23.519   9.294   2.201
26369W        W94787  18.620  34.529  13.473
26370W        W94788   1.391   2.790   4.135
26371W        W94789  20.647  10.190   2.236
26372W        W94790  22.067  19.702   2.846
26373W        W94791  40.802   5.231  11.564
26374W        W94792  38.946  31.907   1.864
26375W        W94793  28.549   7.247   4.162
26376W        W94794  39.477  15.243  10.495
26377W        W94795  17.194  33.608   1.860
26378W        W94796  35.421   2.892  10.484
26379W        W94797  39.340  35.047  14.509
26380W        W94798   6.756  29.041  12.392
26381W        W94799  39.515  27.692   3.824
26382W        W94800  42.360   1.287   2.234
26383W        W94801  25.081   1.341   4.354
26384W        W94802  15.588  18.180  14.790
26385W        W94803  12.782   6.400  11.475
26386W        W94804  19.206  27.543  11.868
26387W        W94805   2.782   9.338   4.165
26388W        W94806  20.051  41.933   0.823
26389W        W94807  27.599  43.974  12.949
26390W        W94808  40.413  16.203   0.788
26391W        W94809   4.855  10.362  10.634
26392W        W94810  30.468  36.939   2.388
26393W        W94811   0.895  30.523   3.287
26394W        W94812  31.918  18.072  13.986
26395W        W94813   6.724  20.180   3.260
26396W        W94814  35.531  16.810   0.293
26397W        W94815   2.864   4.379   1.334
26398W        W94816   5.268  13.680  13.887
26399W        W94817  22.175  41.315   4.120
26400W        W94818  39.031  38.011  13.886
26401W        W94819  14.194   6.842  10.463
26402W        W94820  27.503  32.529  13.493
26403W        W94821   5.322  42.527   2.411
26404W        W94822  19.622  30.133  13.964
26405W        W94823   3.911  13.204   4.349
26406W        W94824  37.482   3.221  11.103
26407W        W94825  21.513  39.453  14.513
26408W        W94826  33.576  17.636  13.450
26409W        W94827   2.748  21.616  14.508
26410W        W94828  33.573  15.649   1.437
26411W        W94829   2.449   4.234   2.263
26412W        W94830   1.422   1.771   0.963
26413W        W94831  42.455  42.395  12.927
26414W        W94832  25.201   8.679  11.558
26415W        W94833  22.667  19.550  11.028
26416W        W94834   5.376  42.932  12.838
26417W        W94835  28.567  29.071  11.124
26418W        W94836   4.761  36.368   0.442
26419W        W94837  30.971  29.066  14.462
26420W        W94838  35.566  37.569  10.508
26421W        W94839  25.142   5.710  12.426
26422W        W94840  39.968  25.657   3.713
26423W        W94841  22.700  23.068   2.202
26424W        W94842  29.635  27.585  12.977
26425W        W94843  20.036  32.436   0.418
26426W        W94844  14.153  11.662  10.560
26427W        W94845  33.077  15.250  13.308
26428W        W94846  35.897  30.105   4.284
26429W        W94847  28.673  31.926   4.118
26430W        W94848  14.179  33.401  14.307
26431W        W94849   6.874   7.703   0.291
26432W        W94850   6.194  20.236   3.322
26433W        W94851  21.745  23.632   3.208
26434W        W94852  41.840   6.346   2.354
26435W        W94853   4.398  43.355   3.800
26436W        W94854  35.560   3.806   1.694
26437W        W94855  35.898  11.728   4.206
26438W        W94856   8.395  34.462  10.461
26439W        W94857  32.583  13.308   3.640
26440W        W94858  38.418  23.206   3.366
26441W        W94859   5.689  36.376   0.449
26442W        W94860   1.945  22.590   0.955
26443W        W94861   2.837  28.449   2.238
26444W        W94862  32.440  40.411   1.234
26445W        W94863  25.060  11.860  12.953
26446W        W94864  31.419   5.321   3.727
26447W        W94865   2.720  29.013   4.739
26448W        W94866  31.613  23.713  11.448
26449W        W94867  30.599  42.803   4.723
26450W        W94868  41.474  34.516  12.548
26451W        W94869  13.272  31.592  11.508
26452W        W94870  20.677  22.091   0.440
26453W        W94871  22.132  44.412   0.337
26454W        W94872  36.075  34.103   0.950
26455W        W94873  17.073  28.938   0.767
26456W        W94874  12.185   7.754   4.619
26457W        W94875  37.461  37.572   2.726
26458W        W94876  20.123  29.994   3.743
26459W        W94877  40.387  32.568  12.076
26460W        W94878  31.545  11.190   3.773
26461W        W94879  11.768  31.964   1.750
26462W        W94880   2.389  26.040   4.281
26463W        W94881  34.033  37.523   4.139
26464W        W94882  13.640   0.442  11.003
26465W        W94883  25.122  41.801   3.650
26466W        W94884   8.387  39.419  13.046
26467W        W94885   0.785   0.334  10.139
26468W        W94886  44.476   7.392  11.997
26469W        W94887  41.829  11.367   1.213
26470W        W94888  41.364  14.829   0.285
26471W        W94889  36.994  21.021   0.950
26472W        W94890   0.966  40.471  13.937
26473W        W94891  23.656  18.051  10.913
26474W        W94892  37.347  22.061   9.988
26475W        W94893  23.584  26.962  12.368
26476W        W94894  22.717   3.718  13.843
26477W        W94895   4.337  31.143  14.299
26478W        W94896  15.285   6.676  11.120
26479W        W94897   3.365  39.459  11.500
26480W        W94898  36.544  32.562   3.787
26481W        W94899  27.685  13.841  11.396
26482W        W94900  39.495  43.448  12.553
26483W        W94901  30.486  26.523   1.818
26484W        W94902  16.711  28.644   2.417
26485W        W94903  32.109  43.342  13.912
26486W        W94904  21.102   2.771  12.046
26487W        W94905  31.071  30.543   1.251
26488W        W94906   0.256   0.859  11.537
26489W        W94907  17.102  21.737  11.571
26490W        W94908   1.953  12.305  11.449
26491W        W94909  32.502  28.672   0.455
26492W        W94910  13.113  10.267  12.954
26493W        W94911  37.510   5.355   0.887
26494W        W94912  22.103  23.561  11.441
26495W        W94913  16.566  33.527  10.954
26496W        W94914  12.275   0.787  11.432
26497W        W94915  18.117  25.059  14.443
26498W        W94916  25.028  24.173  12.036
26499W        W94917  27.002   3.345  12.057
26500W        W94918  42.389  11.728   2.883
26501W        W94919  33.483  20.625  12.488
26502W        W94920  13.208  43.423   0.252
26503W        W94921  18.603  40.940  10.481
26504W        W94922  38.873  19.661  14.856
26505W        W94923  32.049  39.416  14.956
26506W        W94924  37.845   2.896  11.414
26507W        W94925  36.574  14.320  11.549
26508W        W94926  43.949  14.244   3.760
26509W        W94927  36.536   0.834   2.736
26510W        W94928  23.555  26.641  14.394
26511W        W94929  26.092  33.528  10.481
26512W        W94930  44.904  41.980   3.828
26513W        W94931  43.985  24.622  10.916
26514W        W94932  25.972  28.037  10.964
26515W        W94933  15.625  29.608  12.017
26516W        W94934  10.769  24.090   0.376
26517W        W94935  16.132  25.661  14.277
26518W        W94936  20.118  21.648  13.488
26519W        W94937  38.560   1.256  11.994
26520W        W94938  33.894  36.052  14.943
26521W        W94939  30.944  39.528  10.897
26522W        W94940   0.755  12.826  10.453
26523W        W94941  42.800  15.307  11.097
26524W        W94942  14.751  11.224   4.173
26525W        W94943   2.391  13.316  12.403
26526W        W94944  10.319  33.075   0.390
26527W        W94945  39.866  22.236  13.930
26528W        W94946  36.569  29.490   0.415
26529W        W94947  11.358  34.596   0.841
26530W        W94948  37.028  21.592  12.419
26531W        W94949  11.226  39.489  13.049
26532W        W94950  10.159   0.468  13.336
26533W        W94951  23.520   5.284  13.414
26534W        W94952  24.004  26.520  14.462
26535W        W94953  13.789   9.313   3.660
26536W        W94954  29.498  29.667   3.850
26537W        W94955  24.122  12.321  13.803
26538W        W94956  12.848  25.618  13.865
26539W        W94957  34.401  13.219   3.871
26540W        W94958  28.559  26.658  11.534
26541W        W94959  32.456  38.071   3.790
26542W        W94960   1.364  12.812   0.278
26543W        W94961   5.274   3.746  10.929
26544W        W94962  13.300  22.542   0.935
26545W        W94963   8.328  26.550  10.446
26546W        W94964  31.033  14.701   4.663
26547W        W94965  38.831  37.465  14.769
26548W        W94966   4.345  39.901   1.808
26549W        W94967   7.218  27.154   2.200
26550W        W94968  11.624  21.665  11.074
26551W        W94969  15.680  20.524  10.907
26552W        W94970   2.846  25.151   2.685
26553W        W94971  12.264  21.113   1.874
26554W        W94972  19.608  12.286  13.869
26555W        W94973   9.662  42.933  11.872
26556W        W94974  44.341  40.914  12.404
26557W        W94975  24.030  40.414   1.304
26558W        W94976  43.286  27.456   4.315
26559W        W94977  37.993   1.376  13.838
26560W        W94978   9.782  33.384  13.438
26561W        W94979  42.350  25.151  11.930
26562W        W94980  21.522  37.864   5.605
26563W        W94981  17.798  16.595   0.431
26564W        W94982   5.257  24.105  14.314
26565W        W94983   4.391  36.546  13.401
26566W        W94984  42.825  42.349   3.351
26567W        W94985  14.683  33.502   3.702
26568W        W94986   3.300  19.748   4.707
26569W        W94987  43.005  12.177  14.920
26570W        W94988  11.806   6.896   0.959
26571W        W94989  35.012  39.019   5.091
26572W        W94990  20.273   9.695  13.316
26573W        W94991   5.848  41.875  13.318
26574W        W94992  42.829  16.690  12.415
26575W        W94993  14.242  11.808  12.367
26576W        W94994  23.038  31.909   2.712
26577W        W94995   6.892   0.977   1.382
26578W        W94996  32.088  41.424  12.488
26579W        W94997  12.332   2.370  14.852
26580W        W94998  24.038   0.930   4.659
26581W        W94999  31.576  29.931   3.192
26582W        W95000  22.020  11.752   1.930
26583W        W95001  12.271   2.927   3.161
26584W        W95002  44.261  14.243   1.830
26585W        W95003  32.596  31.026  12.079
26586W        W95004  43.981  36.561   1.222
26587W        W95005  17.605  13.168   2.869
26588W        W95006  39.506   6.828   3.672
26589W        W95007  17.195   3.861   1.446
26590W        W95008  24.096  37.453   3.744
26591W        W95009  37.979  44.426  14.935
26592W        W95010  43.813   3.325   3.739
26593W        W95011  21.548  36.358   3.635
26594W        W95012  41.957  34.947   0.927
26595W        W95013  36.512  16.129   4.227
26596W        W95014   7.757  41.918  12.966
26597W        W95015  16.688   4.869   0.798
26598W        W95016   4.909   6.367   3.331
26599W        W95017  35.494  20.674   2.393
26600W        W95018  25.076  16.303  13.962
26601W        W95019  30.606  20.677   2.234
26602W        W95020  38.880  33.909   0.882
26603W        W95021  19.698  20.236  13.978
26604W        W95022  34.043  30.575  13.929
26605W        W95023   0.885  38.072  11.948
26606W        W95024  28.989  41.317   0.851
26607W        W95025  40.343  19.571   3.382
26608W        W95026   4.406  13.295   4.280
26609W        W95027   4.736  34.079   1.870
26610W        W95028  34.036  12.790   1.791
26611W        W95029   8.895  22.015  11.498
26612W        W95030  33.090  37.835   3.163
26613W        W95031  12.313   4.879   2.867
26614W        W95032   7.290  16.613   3.839
26615W        W95033  26.132  37.057   2.214
26616W        W95034  22.694   9.708  11.934
26617W        W95035  38.904  29.507  14.770
26618W        W95036  21.623  17.633   0.335
26619W        W95037   3.799  35.359  14.357
26620W        W95038   3.438  18.188   0.843
26621W        W95039  12.143  25.576  10.607
26622W        W95040  28.045  34.395   1.839
26623W        W95041  29.536  34.922  13.429
26624W        W95042  22.192   2.955  14.341
26625W        W95043  11.131  39.341  10.453
26626W        W95044  37.993  32.139   3.335
26627W        W95045  11.180   2.811  13.352
26628W        W95046  14.724   3.762   3.205
26629W        W95047  43.288  30.634  11.491
26630W        W95048  16.291   5.828  10.054
26631W        W95049  18.203  26.458  12.400
26632W        W95050  19.664  32.635   1.399
26633W        W95051  31.142  26.109  14.391
26634W        W95052  36.377  33.064   1.895
26635W        W95053  13.786  14.744  11.072
26636W        W95054  26.526   1.882  11.456
26637W        W95055  31.419  36.893   4.236
26638W        W95056   9.187  29.629  12.069
26639W        W95057  40.317  44.819   4.762
26640W        W95058  12.135  12.214   0.833
26641W        W95059  18.200  26.974  12.981
26642W        W95060  42.026   7.200  12.480
26643W        W95061  23.648  13.223  14.308
26644W        W95062  32.947  32.056   3.684
26645W        W95063   1.471  35.949  10.451
26646W        W95064   0.349  35.427  14.510
26647W        W95065  21.706  24.538   3.675
26648W        W95066  18.075  28.120  10.896
26649W        W95067  20.629  28.434   0.916
26650W        W95068  38.959  18.140   2.852
26651W        W95069  10.289  10.287  12.564
26652W        W95070   9.388   3.287   4.827
26653W        W95071  43.513  20.217   3.300
26654W        W95072  39.015  21.556  10.441
26655W        W95073  37.079  37.937   1.273
26656W        W95074  44.851  13.255   5.236
26657W        W95075   6.210  22.618  12.888
26658W        W95076  32.423  22.513   1.856
26659W        W95077   2.744  33.432   1.214
26660W        W95078  29.092  16.696   1.408
26661W        W95079   0.435  19.644   4.689
26662W        W95080  15.135   4.884  14.473
26663W        W95081  44.993  16.640  12.409
26664W        W95082  41.352  16.307   0.729
26665W        W95083  41.301   5.287   3.368
26666W        W95084  38.856  19.147   2.327
26667W        W95085  35.551  12.764  12.565
26668W        W95086  14.668  41.444   2.221
26669W        W95087  28.987  12.626   0.429
26670W        W95088  38.474  36.068  14.023
26671W        W95089  40.863  41.994   2.841
26672W        W95090  33.969  43.319  14.903
26673W        W95091  10.234  43.339   0.772
26674W        W95092  32.037   5.361   3.667
26675W        W95093  14.105  28.163  12.888
26676W        W95094  19.751  13.742  12.984
26677W        W95095  15.583  43.449   2.736
26678W        W95096  13.325  35.921  14.491
26679W        W95097   3.387  14.660   2.727
26680W        W95098   1.314  28.104   1.450
26681W        W95099   1.470  11.131   4.186
26682W        W95100  38.551   5.926   4.750
26683W        W95101  30.152  26.573  12.080
26684W        W95102  26.181  26.698   1.749
26685W        W95103  39.495  10.262   3.290
26686W        W95104  26.603  29.972  11.406
26687W        W95105   5.302  24.492   0.936
26688W        W95106  24.555  42.427   0.407
26689W        W95107  44.492  21.070  10.960
26690W        W95108  27.081  31.988  11.514
26691W        W95109   3.735  20.661   1.340
26692W        W95110  14.804  21.083   2.705
26693W        W95111   3.230  12.738   2.211
26694W        W95112   3.314  11.287  12.856
26695W        W95113  21.615  25.146   2.313
26696W        W95114   3.412   1.896   0.261
26697W        W95115  38.995  42.322   2.297
26698W        W95116  28.656  28.477  14.509
26699W        W95117  35.526   9.334  11.381
26700W        W95118   0.756  37.436  13.887
26701W        W95119   1.892  17.602   3.273
26702W        W95120  35.521  31.436   4.205
26703W        W95121  18.700   9.786   2.214
26704W        W95122   0.272  37.378   1.241
26705W        W95123  28.609   2.343  14.991
26706W        W95124  30.930  23.082  10.452
26707W        W95125  18.771  16.260  11.029
26708W        W95126  28.443  28.664   1.788
26709W        W95127   2.892  41.447  14.452
26710W        W95128  14.726   1.437  11.935
26711W        W95129  17.231   8.270  13.365
26712W        W95130   9.317  15.278   4.748
26713W        W95131  42.982   4.392   1.412
26714W        W95132  44.975  39.474  10.404
26715W        W95133  30.606   6.693   0.451
26716W        W95134   8.896   3.751   1.831
26717W        W95135  30.970   5.822  14.395
26718W        W95136  23.582  27.469   2.801
26719W        W95137  40.409   0.402  13.999
26720W        W95138   8.253  14.140   1.433
26721W        W95139   7.229  19.696  13.894
26722W        W95140  27.636  27.002   4.282
26723W        W95141  18.171  22.526  10.915
26724W        W95142  27.945   6.207   1.707
26725W        W95143  17.100  23.498   1.820
26726W        W95144  25.996  40.832  14.984
26727W        W95145  35.911  14.681   5.206
26728W        W95146  20.031  35.406   0.273
26729W        W95147   0.920  16.223  12.565
26730W        W95148   2.944  15.703  10.026
26731W        W95149  18.673  20.559  12.357
26732W        W95150  24.169  23.197  13.504
26733W        W95151  23.135  11.824   1.892
26734W        W95152   4.414  30.138  12.999
26735W        W95153  11.737  21.748  11.385
26736W        W95154  14.227  12.762  14.446
26737W        W95155  15.158  31.435   1.308
26738W        W95156  28.148  12.286  12.076
26739W        W95157   8.895   2.802  13.491
26740W        W95158  34.039  40.523   4.131
26741W        W95159  36.952   0.911   3.343
26742W        W95160  31.587  23.006   4.350
26743W        W95161  43.832   5.699   0.862
26744W        W95162   5.383   9.164  11.417
26745W        W95163  40.441   0.745   2.192
26746W        W95164  42.858  30.123  10.614
26747W        W95165   3.939  13.212  13.527
26748W        W95166   5.741  39.488  14.358
26749W        W95167   3.322  33.115   4.350
26750W        W95168   7.792  23.127   4.796
26751W        W95169  26.548  39.944   4.636
26752W        W95170  44.900  42.493   4.307
26753W        W95171  28.069  30.518  11.396
26754W        W95172  10.150  27.070   4.353
26755W        W95173  21.544   2.413   1.798
26756W        W95174  35.026  34.070  10.970
26757W        W95175  18.057  39.511   4.723
26758W        W95176  38.545  40.453   3.154
26759W        W95177   3.895  40.318  14.448
26760W        W95178  32.523   6.242  13.794
26761W        W95179   1.841  30.425   4.606
26762W        W95180  39.884   0.481   4.331
26763W        W95181   7.826  15.633   4.622
26764W        W95182  35.929  44.930  12.931
26765W        W95183  41.817  36.478  10.516
26766W        W95184   6.187  23.207  12.825
26767W        W95185  33.903  42.021  14.435
26768W        W95186  14.704  22.101   1.265
26769W        W95187   4.209  17.560  10.517
26770W        W95188  16.221  27.948   3.793
26771W        W95189  34.093   5.256   3.648
26772W        W95190  28.145  11.759  13.391
26773W        W95191  24.695   9.648   4.220
26774W        W95192   2.308  41.412   0.848
26775W        W95193  24.636  13.740   0.352
26776W        W95194   5.266  24.125   1.333
26777W        W95195  16.129   5.782   3.759
26778W        W95196  24.226  32.432   2.759
26779W        W95197  43.432  11.853  10.522
26780W        W95198  35.420   4.713  12.060
26781W        W95199  20.148  43.446  14.494
26782W        W95200  29.662  30.634   0.946
26783W        W95201   7.758  36.406  13.382
26784W        W95202  42.283  42.988   5.184
26785W        W95203  30.429  25.186  10.451
26786W        W95204  19.088   2.233   0.954
26787W        W95205  25.111  37.958  14.474
26788W        W95206  43.506  41.923  11.957
26789W        W95207  23.595  11.630   4.313
26790W        W95208   6.393  14.112  10.007
26791W        W95209  36.424  24.517   3.372
26792W        W95210   6.323  15.660   1.717
26793W        W95211  40.386   1.798  14.438
26794W        W95212  30.580  14.775   1.845
26795W        W95213   7.262  41.018   3.316
26796W        W95214  41.509   1.432  14.446
26797W        W95215  39.402  16.241   2.269
26798W        W95216  41.491  44.459  14.791
26799W        W95217  43.902  33.891   0.864
26800W        W95218  34.534  40.432  12.428
26801W        W95219  42.292  26.030   2.670
26802W        W95220   1.366  17.185   3.310
26803W        W95221  11.242  23.664  11.902
26804W        W95222  44.776  10.853  14.334
26805W        W95223  11.359   1.305  14.289
26806W        W95224  22.663  15.142  12.507
26807W        W95225  44.793  41.829   1.349
26808W        W95226  43.964   9.884  11.894
26809W        W95227  17.134  37.020   4.747
26810W        W95228  15.620  31.632   3.734
26811W        W95229  16.148  40.913  11.974
26812W        W95230  31.122  43.295   4.678
26813W        W95231   6.210  40.388  13.492
26814W        W95232   7.761   8.295  10.934
26815W        W95233  10.233  36.073   4.159
26816W        W95234  27.077  40.892   1.773
26817W        W95235   1.239  38.334  14.860
26818W        W95236  24.605  27.172   1.884
26819W        W95237  11.366  26.615  11.109
26820W        W95238   6.841  10.732   1.823
26821W        W95239  32.397  30.113  13.896
26822W        W95240   4.865  35.432  11.110
26823W        W95241   5.921  27.126  13.864
26824W        W95242  44.438  36.861  10.577
26825W        W95243  23.539  26.536   3.329
26826W        W95244  36.477  26.161   3.306
26827W        W95245  33.918   1.794   4.339
26828W        W95246  33.077  30.608  10.633
26829W        W95247   3.903  39.003  14.807
26830W        W95248   6.399  28.172   2.215
26831W        W95249  10.141  18.636   4.692
26832W        W95250  44.429  42.483   4.266
26833W        W95251  37.503  11.266   3.299
26834W        W95252  24.169  10.372   0.427
26835W        W95253  28.986   8.755  13.371
26836W        W95254  43.355  13.706   1.411
26837W        W95255  32.997  29.137   4.646
26838W        W95256  10.660  23.619  10.644
26839W        W95257   7.242  42.342  14.501
26840W        W95258  40.854  13.719  13.894
26841W        W95259   4.801  37.352   4.646
26842W        W95260  22.537  26.667   9.950
26843W        W95261   3.812   4.791   0.918
26844W        W95262  14.276  28.588  14.800
26845W        W95263   6.195  34.119   2.366
26846W        W95264  12.738  14.821   2.803
26847W        W95265  24.538  22.699   4.331
26848W        W95266  18.068  17.274  13.819
26849W        W95267  21.543  27.051  10.990
26850W        W95268  42.820  10.690  11.116
26851W        W95269  11.811  44.290  12.574
26852W        W95270  12.807  35.889   3.862
26853W        W95271  34.442  19.184   2.777
26854W        W95272  39.375  31.646   2.394
26855W        W95273  15.598  22.735  14.470
26856W        W95274  40.474   5.694   2.274
26857W        W95275  27.468  39.917   1.391
26858W        W95276  39.030  21.641   0.409
26859W        W95277  11.336  40.827  11.039
26860W        W95278   3.400  20.694   4.748
26861W        W95279  24.088  14.144  13.047
26862W        W95280  11.141  19.612  11.867
26863W        W95281  43.855  29.969  14.283
26864W        W95282  17.305   4.261  10.464
26865W        W95283  35.981   1.882   4.285
26866W        W95284  16.733  43.872   3.716
26867W        W95285  43.958  24.074   3.720
26868W        W95286  43.917  30.927  13.851
26869W        W95287   6.839   5.908  12.936
26870W        W95288  34.471  19.219  11.393
26871W        W95289  17.574  27.505   2.213
26872W        W95290  31.423  12.282   3.711
26873W        W95291  26.171  15.143  12.534
26874W        W95292   0.790   4.740   4.782
26875W        W95293   6.406  37.489  11.426
26876W        W95294  38.534  42.873  14.003
26877W        W95295  18.725  14.164   9.937
26878W        W95296  31.648  21.150  11.947
26879W        W95297   7.323  18.675  10.495
26880W        W95298   7.415  39.449  13.450
26881W        W95299  28.450  20.669  11.860
26882W        W95300  18.712  23.000   3.246
26883W        W95301  35.097  34.605  11.129
26884W        W95302  40.918  31.570   0.389
26885W        W95303   0.941   9.158  14.901
26886W        W95304  14.252  38.571  14.900
26887W        W95305  25.580   5.305   1.253
26888W        W95306  10.838  26.520   4.829
26889W        W95307  35.909  16.120  14.940
26890W        W95308  15.184  24.099   4.706
26891W        W95309  37.442  41.319  12.996
26892W        W95310  23.677  44.273  13.998
26893W        W95311  18.547   5.231  12.544
26894W        W95312  16.575  26.182  13.034
26895W        W95313   9.814  32.479   1.413
26896W        W95314  29.958  31.402   1.814
26897W        W95315  43.275  37.003  13.493
26898W        W95316   9.676  25.529   4.322
26899W        W95317   5.361   1.271   0.429
26900W        W95318   5.718  30.991  13.835
26901W        W95319  10.293   3.917   1.764
26902W        W95320  44.765  17.297   0.819
26903W        W95321   5.789  19.132  10.500
26904W        W95322  36.990  21.529  13.033
26905W        W95323   2.263  34.084   0.899
26906W        W95324  10.259  38.009   3.259
26907W        W95325  25.668  13.246   3.299
26908W        W95326  25.635  22.580  13.443
26909W        W95327   1.352  36.532  13.503
26910W        W95328  29.030  31.986   1.348
26911W        W95329  37.940  37.057   5.178
26912W        W95330   0.834  15.248   3.677
26913W        W95331  22.011  10.277  10.614
26914W        W95332  20.226  39.460  11.478
26915W        W95333   6.905  18.601  14.889
26916W        W95334  44.774  19.676   5.317
26917W        W95335  19.584  16.685  12.864
26918W        W95336  37.457  37.509   1.807
26919W        W95337  16.157   0.456   0.317
26920W        W95338   0.421  12.719   2.770
26921W        W95339  23.713   5.706  12.975
26922W        W95340  24.568  36.085  12.010
26923W        W95341  23.038  35.042  13.970
26924W        W95342   6.857  42.025  11.570
26925W        W95343  17.158   4.838   3.645
26926W        W95344  18.274  40.054   2.733
26927W        W95345   4.372  16.609  13.397
26928W        W95346  20.058  39.317  10.513
26929W        W95347  15.245  20.157  10.631
26930W        W95348  40.460   3.855   3.850
26931W        W95349  26.578  12.710  12.979
26932W        W95350   8.726   3.866  12.033
26933W        W95351   3.284  31.432  11.501
26934W        W95352  40.020   6.801   1.293
26935W        W95353  24.721  36.046   1.428
26936W        W95354  12.660  18.612  12.054
26937W        W95355  21.521  42.012  12.473
26938W        W95356   3.367  20.039  12.091
26939W        W95357  42.884  22.688  10.032
26940W        W95358  11.261  37.864   3.761
26941W        W95359  15.649   7.376   0.876
26942W        W95360  26.680   2.345  13.887
26943W        W95361  14.824  20.213  12.974
26944W        W95362  35.451  11.318   2.346
26945W        W95363  12.644  31.486   3.165
26946W        W95364  26.572  40.476   2.374
26947W        W95365  34.549  17.688  11.951
26948W        W95366   6.698  44.445  14.889
26949W        W95367  11.163  34.562   1.922
26950W        W95368  16.617  22.594  12.940
26951W        W95369   3.800  44.269  11.535
26952W        W95370  30.132  20.740   4.816
26953W        W95371  24.057  29.075  10.029
26954W        W95372   9.833   2.796  14.322
26955W        W95373  20.196  11.714  14.346
26956W        W95374  21.755  24.016   5.112
26957W        W95375  35.391   8.305   4.312
26958W        W95376   2.437  32.886  13.406
26959W        W95377   7.391  41.007   0.418
26960W        W95378  22.695  42.299  11.460
26961W        W95379  41.902  43.459  14.974
26962W        W95380   5.253   3.952  11.598
26963W        W95381  17.733  25.685   2.735
26964W        W95382  30.124   8.253  13.525
26965W        W95383  35.532  30.916  14.415
26966W        W95384  10.303  19.634   2.395
26967W        W95385  33.988  39.438   1.358
26968W        W95386  41.841  31.115  14.915
26969W        W95387   9.739   1.935  10.623
26970W        W95388  16.586  21.049   9.937
26971W        W95389  36.010  42.889  12.419
26972W        W95390  25.978  24.988   2.356
26973W        W95391  41.469   0.310  13.363
26974W        W95392   3.247  41.891  12.527
26975W        W95393   9.245  29.035   4.289
26976W        W95394  15.788  16.809  14.952
26977W        W95395  35.600  13.710   2.767
26978W        W95396  43.945  39.455   4.191
26979W        W95397   1.458  19.236  12.476
26980W        W95398  31.044   5.851  12.920
26981W        W95399  22.717  30.950  11.997
26982W        W95400  13.115  31.907  11.878
26983W        W95401   0.984  29.470   3.667
26984W        W95402  12.688  33.062   0.832
26985W        W95403  27.464   9.687  11.883
26986W        W95404  15.641  27.527   3.685
26987W        W95405  18.731  11.267  14.902
26988W        W95406  41.892  32.989   2.388
26989W        W95407  11.330  11.687   3.235
26990W        W95408  37.404  41.322  11.050
26991W        W95409  25.637  10.368  11.601
26992W        W95410  27.618  34.597   0.903
26993W        W95411  14.769  30.484   1.336
26994W        W95412  39.968  21.031   3.258
26995W        W95413   5.887   5.850  13.980
26996W        W95414  33.432  26.158   0.746
26997W        W95415  32.515  22.564  14.013
26998W        W95416  14.169  35.580   2.216
26999W        W95417  44.409  42.991   2.713
27000W        W95418  26.157  27.473   4.279
27001W        W95419  22.156  19.225   1.796
27002W        W95420  25.621  34.114  13.423
27003W        W95421  42.877  23.205   4.807
27004W        W95422  33.459   0.869  13.385
27005W        W95423  43.953  37.958   3.257
27006W        W95424   1.932  40.932  11.414
27007W        W95425  19.760   6.814   0.318
27008W        W95426  28.170  13.222   1.344
27009W        W95427   1.265   7.850  13.850
27010W        W95428  29.956  23.183   2.256
27011W        W95429  35.852  43.813   0.445
27012W        W95430  41.480   3.457  12.035
27013W        W95431  32.061  19.666  10.633
27014W        W95432  11.748  14.818  10.438
27015W        W95433  18.739  28.656  13.843
27016W        W95434   6.825  33.561  12.845
27017W        W95435  34.525  13.748  11.056
27018W        W95436  38.352  13.804  11.877
27019W        W95437  28.644  28.937  14.762
27020W        W95438  24.141  14.605   1.309
27021W        W95439   1.774  18.574  11.523
27022W        W95440   5.426  25.136  14.853
27023W        W95441  41.437   1.340   3.196
27024W        W95442  42.908  31.137  13.962
27025W        W95443  28.449  41.515  12.379
27026W        W95444  21.206  39.376   0.836
27027W        W95445  11.302  27.114   0.853
27028W        W95446  28.932  13.330  13.497
27029W        W95447   7.186  41.525   4.800
27030W        W95448  16.788   4.358  14.928
27031W        W95449  24.631  18.076   4.754
27032W        W95450  18.107  16.777  13.368
27033W        W95451   7.342   0.765  12.564
27034W        W95452  18.254  23.990  10.638
27035W        W95453  26.530  37.502   0.937
27036W        W95454  42.465  40.389  14.940
27037W        W95455  39.338  23.503   0.789
27038W        W95456  38.546  22.238   2.849
27039W        W95457  31.427  32.494  14.370
27040W        W95458  19.072  39.393   0.443
27041W        W95459  34.466   2.942  14.400
27042W        W95460  28.460  38.041  12.903
27043W        W95461   7.356  30.584  13.442
27044W        W95462  18.192  35.429  12.356
27045W        W95463  30.988  24.630  10.513
27046W        W95464  19.565   7.194   4.809
27047W        W95465  36.397  23.173   1.827
27048W        W95466  17.274  16.209   2.767
27049W        W95467  16.180  28.436  13.417
27050W        W95468   5.884   9.886   4.650
27051W        W95469  27.147  44.875   0.400
27052W        W95470  16.580  10.829   0.965
27053W        W95471  20.083   4.746  14.396
27054W        W95472  20.174  13.618  14.334
27055W        W95473  29.463  10.726   4.249
27056W        W95474  29.571  19.140   4.694
27057W        W95475  15.257  36.444   4.756
27058W        W95476  42.356   9.341   0.773
27059W        W95477  12.184  39.809  14.395
27060W        W95478  20.259  12.723  13.014
27061W        W95479   4.300  28.175  13.426
27062W        W95480  44.832  25.514  11.552
27063W        W95481   8.768  37.469  11.439
27064W        W95482  25.637  12.748  11.863
27065W        W95483  35.450  26.115  11.966
27066W        W95484  44.870  12.339  12.851
27067W        W95485   7.215  29.622  11.455
27068W        W95486  18.679  30.114  14.284
27069W        W95487   7.251  10.301   1.895
27070W        W95488  27.010  40.046   0.830
27071W        W95489  24.684   2.356   1.742
27072W        W95490   0.486   4.330   3.308
27073W        W95491  34.082  44.812  13.792
27074W        W95492   5.857   6.324  11.009
27075W        W95493  34.565  40.487   4.192
27076W        W95494  25.692  18.079  10.011
27077W        W95495  12.702  22.028  14.855
27078W        W95496  31.048  16.133  11.506
27079W        W95497   9.762  26.118  14.503
27080W        W95498   9.214  17.073  10.444
27081W        W95499  22.243  26.536  12.380
27082W        W95500  34.922  40.468   5.176
27083W        W95501  19.212  13.349   3.336
27084W        W95502  17.587   9.177  10.627
27085W        W95503  37.464  37.547  13.920
27086W        W95504  34.611  10.379   0.924
27087W        W95505  23.235  35.899  11.089
27088W        W95506  15.595  18.670   4.179
27089W        W95507  11.843  44.825  14.392
27090W        W95508   7.276   7.697  11.536
27091W        W95509  35.569  10.314  14.437
27092W        W95510  31.579   1.941   4.789
27093W        W95511  39.874  27.601  11.473
27094W        W95512   1.273  26.656  10.615
27095W        W95513   5.698  39.052   4.779
27096W        W95514  36.530  38.986  14.291
27097W        W95515  32.486  42.379   4.254
27098W        W95516   6.350   9.869   3.182
27099W        W95517  26.068   6.243   1.781
27100W        W95518  35.034  21.708   3.280
27101W        W95519  38.398  30.123  11.563
27102W        W95520  26.617   8.182   1.210
27103W        W95521   2.838  15.322  11.590
27104W        W95522   4.932  15.111   1.714
27105W        W95523   1.369  37.448  13.510
27106W        W95524   7.735  42.362   2.308
27107W        W95525  44.260  31.527   4.794
27108W        W95526  20.102   0.403   2.892
27109W        W95527  23.217  37.873   4.603
27110W        W95528   5.838  34.119   1.767
27111W        W95529  13.258  32.475   1.772
27112W        W95530   0.309  27.012   1.755
27113W        W95531  29.663  15.106  11.446
27114W        W95532   8.699  39.024   2.279
27115W        W95533  10.878   0.879   1.918
27116W        W95534  42.374  41.006   9.924
27117W        W95535   6.679  29.154  11.458
27118W        W95536  21.563  31.045   2.256
27119W        W95537   0.263   4.846   2.229
27120W        W95538  12.779  12.347  13.012
27121W        W95539   1.451  28.099  11.112
27122W        W95540  18.615   8.844  10.582
27123W        W95541   4.771  31.643   0.421
27124W        W95542   3.432  12.830   0.938
27125W        W95543  36.853  25.488  11.516
27126W        W95544  12.236  33.949  13.401
27127W        W95545  37.872   9.166  10.987
27128W        W95546   0.834  15.797  10.614
27129W        W95547  42.889  36.050   2.295
27130W        W95548   9.194  44.788  12.937
27131W        W95549  14.175   6.259   2.359
27132W        W95550   3.444  18.082  11.031
27133W        W95551  26.128  15.228  12.948
27134W        W95552  14.717   7.801  13.471
27135W        W95553  25.590  35.043   1.265
27136W        W95554  39.430  37.880   0.912
27137W        W95555  30.521  35.499   2.853
27138W        W95556  22.691   8.748  12.476
27139W        W95557  40.478   9.674   3.862
27140W        W95558  41.389  34.598   4.733
27141W        W95559  38.483  24.558  11.965
27142W        W95560  26.546  12.209  12.475
27143W        W95561   2.930   6.727   2.693
27144W        W95562   9.735  33.394   3.372
27145W        W95563  41.930  33.984   3.650
27146W        W95564   8.207  33.411   2.872
27147W        W95565  21.608  22.030  12.077
27148W        W95566   6.853  44.772  12.088
27149W        W95567  30.590  37.969  13.507
27150W        W95568  18.757  20.164  13.415
27151W        W95569   7.832   9.274  11.537
27152W        W95570  37.413  31.537  11.606
27153W        W95571  14.155   4.877   5.258
27154W        W95572  22.561  19.196   2.746
27155W        W95573   2.857  21.212  13.376
27156W        W95574  22.730  12.175  13.899
27157W        W95575  27.623  23.158   0.881
27158W        W95576  22.198  11.864  11.476
27159W        W95577  20.631  20.660  10.587
27160W        W95578  28.452  37.535  12.386
27161W        W95579  39.360  10.657   0.324
27162W        W95580  41.373   7.403   1.351
27163W        W95581  44.820   1.767  11.452
27164W        W95582  14.234  25.166  10.550
27165W        W95583  44.343  17.614   3.218
27166W        W95584  29.462  39.047   1.229
27167W        W95585  22.631  24.101  11.889
27168W        W95586  16.698  22.673   1.824
27169W        W95587   8.352  22.555  14.351
27170W        W95588  28.562  43.282   3.839
27171W        W95589  33.929   3.279   1.378
27172W        W95590  16.746  16.713   4.701
27173W        W95591  34.433  10.667   3.680
27174W        W95592  21.666  11.272  13.050
27175W        W95593  42.976  20.121   0.454
27176W        W95594  21.640  27.617   0.436
27177W        W95595  40.046   4.902  12.379
27178W        W95596   8.253  28.474  14.286
27179W        W95597  24.208   3.427   2.847
27180W        W95598  19.633  27.173  11.047
27181W        W95599  32.102  33.034  11.541
27182W        W95600  37.025   4.844  12.553
27183W        W95601   6.343  26.951   0.329
27184W        W95602   4.224  38.896   1.910
27185W        W95603  16.158  34.553   3.336
27186W        W95604  40.007  25.032  14.775
27187W        W95605  36.370  14.706  12.078
27188W        W95606  35.991   9.241   4.120
27189W        W95607  33.019  43.494  14.471
27190W        W95608   6.312  41.320  10.981
27191W        W95609  25.081   5.359  13.355
27192W        W95610  19.599  38.541   3.689
27193W        W95611  43.978  37.572  13.379
27194W        W95612  14.122   7.324   4.768
27195W        W95613  41.355  42.929   2.696
27196W        W95614  40.041  10.332   5.084
27197W        W95615   4.265  14.635   2.233
27198W        W95616  24.569  22.014  11.386
27199W        W95617  16.215  11.864   3.343
27200W        W95618   9.318   6.798   1.908
27201W        W95619  22.695  23.172   3.240
27202W        W95620  38.838  26.978  12.435
27203W        W95621  39.409  10.297  12.990
27204W        W95622   7.685  24.709   1.313
27205W        W95623  29.942  35.893  10.470
27206W        W95624  19.249  34.936  11.988
27207W        W95625   6.796   6.246  13.333
27208W        W95626  38.822   6.191   3.706
27209W        W95627  10.677  42.026  12.361
27210W        W95628  37.045  23.715  11.536
27211W        W95629  17.731  24.480   0.318
27212W        W95630   8.230  31.438  13.473
27213W        W95631  24.557  40.875  13.824
27214W        W95632  23.523  37.391  13.386
27215W        W95633   0.780  12.736  12.014
27216W        W95634  27.017   4.379  10.637
27217W        W95635  31.624  30.071  13.878
27218W        W95636   8.823  37.855   2.204
27219W        W95637   7.406  22.134   1.826
27220W        W95638  28.537  22.608  12.400
27221W        W95639   6.855   8.184   4.614
27222W        W95640  20.218  42.387   0.482
27223W        W95641  26.576  40.302   0.246
27224W        W95642  34.937  31.531   4.652
27225W        W95643  25.541  27.672  10.975
27226W        W95644   5.692   2.412  11.110
27227W        W95645  43.277  41.414  14.379
27228W        W95646   3.810  32.427  14.443
27229W        W95647  38.050  13.698   4.679
27230W        W95648  44.455  42.491  14.909
27231W        W95649  25.710  35.979  10.952
27232W        W95650  25.653  34.606   2.230
27233W        W95651  42.810   3.774   0.277
27234W        W95652  42.378  19.266   3.708
27235W        W95653  42.469  19.569   2.889
27236W        W95654  31.090  28.016  11.116
27237W        W95655  31.928  41.800  11.538
27238W        W95656  20.568  21.239  10.573
27239W        W95657  10.657  14.793  12.362
27240W        W95658  43.384  19.611   3.301
27241W        W95659  31.113  36.018   3.828
27242W        W95660  17.622   3.711   1.753
27243W        W95661  36.572  31.440  13.814
27244W        W95662  43.809  28.554  12.040
27245W        W95663  25.542   4.241  12.991
27246W        W95664  11.194  30.449   1.233
27247W        W95665  35.010  23.531  10.888
27248W        W95666  11.169  39.393  14.023
27249W        W95667  12.336  27.619   3.349
27250W        W95668  42.967  44.411   2.347
27251W        W95669  10.837  22.708   2.744
27252W        W95670   1.478  37.842  11.081
27253W        W95671  18.776  27.646   3.350
27254W        W95672  13.691  41.404  11.487
27255W        W95673  27.593  13.707   1.264
27256W        W95674  43.442  43.405   3.796
27257W        W95675   4.343  34.054  13.898
27258W        W95676  44.897  44.896   4.834
27259W        W95677   9.678   6.798   2.265
27260W        W95678   1.389  26.054  14.768
27261W        W95679  16.184  21.715  11.547
27262W        W95680  40.955  43.457   1.792
27263W        W95681  20.150  14.146   0.929
27264W        W95682  30.945   1.865  14.286
27265W        W95683  44.271  27.156   3.730
27266W        W95684  25.997   7.827   0.283
27267W        W95685  13.308   6.833   1.734
27268W        W95686  19.592   0.887  14.502
27269W        W95687   4.740  34.538  13.926
27270W        W95688   9.187  35.961  14.496
27271W        W95689  26.026  29.046  12.550
27272W        W95690  44.871  20.537  14.334
27273W        W95691  17.296  40.507  14.997
27274W        W95692  11.201  25.608  14.824
27275W        W95693  16.645   3.425  10.003
27276W        W95694  18.243  33.913   2.335
27277W        W95695  28.636   2.893  13.844
27278W        W95696  27.971  18.648   0.864
27279W        W95697  31.542  43.442   0.437
27280W        W95698  22.614  27.006   1.714
27281W        W95699  13.255  11.760   1.339
27282W        W95700  24.158  43.919  12.474
27283W        W95701   2.738  25.530   0.814
27284W        W95702   2.915  39.406   3.816
27285W        W95703   0.301   7.248   4.157
27286W        W95704  41.037  21.230   3.758
27287W        W95705  25.492  10.142   1.421
27288W        W95706  21.079  19.191  10.633
27289W        W95707  34.546  33.441  14.383
27290W        W95708  39.894  12.273  13.421
27291W        W95709  25.713  38.396   3.322
27292W        W95710  33.590  21.527  13.854
27293W        W95711   2.889  14.628   4.329
27294W        W95712  10.748   4.246  12.850
27295W        W95713   1.925  38.827   3.750
27296W        W95714   6.311  13.263  14.933
27297W        W95715  23.206  33.416  11.506
27298W        W95716  14.155  37.573  12.038
27299W        W95717  44.794   6.391   0.366
27300W        W95718   8.667   9.389   2.343
27301W        W95719  24.185  32.594  14.850
27302W        W95720  42.402  29.588  10.428
27303W        W95721  33.533  21.700   1.813
27304W        W95722  28.482   4.331   1.285
27305W        W95723  30.979   1.368   0.730
27306W        W95724   3.414   9.384   4.837
27307W        W95725  32.981  13.202  13.377
27308W        W95726   8.180  30.057   2.702
27309W        W95727  24.125  33.389   1.268
27310W        W95728  41.425  15.268  12.464
27311W        W95729  12.680  40.421   4.236
27312W        W95730  30.991  43.808   4.827
27313W        W95731   8.825  15.647  13.471
27314W        W95732  37.520   4.726   2.326
27315W        W95733   3.828   7.354  10.533
27316W        W95734  32.055  21.115  13.836
27317W        W95735   7.754  15.685  10.628
27318W        W95736  11.222  12.192  12.489
27319W        W95737  11.790  26.516   5.137
27320W        W95738  25.207  42.506   4.193
27321W        W95739   3.743  41.321   2.334
27322W        W95740   2.443  20.076   5.182
27323W        W95741  19.627   1.939  12.850
27324W        W95742  33.384  22.640  11.887
27325W        W95743  25.994  19.073  10.434
27326W        W95744  21.110  42.455   0.941
27327W        W95745  17.603  13.197   0.312
27328W        W95746  33.496  10.164   1.714
27329W        W95747  15.289  19.121   3.677
27330W        W95748  44.427  33.606  13.896
27331W        W95749  37.079  44.899   2.895
27332W        W95750   6.240  30.482   9.986
27333W        W95751  23.661   2.840   3.184
27334W        W95752  33.122   9.883   1.420
27335W        W95753  26.673   2.293   0.282
27336W        W95754  21.711   6.236  14.961
27337W        W95755  23.601  41.342   0.342
27338W        W95756   1.365  43.882   1.865
27339W        W95757  17.104   5.828   4.730
27340W        W95758   1.947  10.325   0.769
27341W        W95759  13.621  15.248  12.987
27342W        W95760  37.029  29.111   1.261
27343W        W95761  28.063  28.995  13.962
27344W        W95762  16.088  12.210  13.488
27345W        W95763  42.007  24.710  13.838
27346W        W95764  19.092  34.503   1.825
27347W        W95765  18.103   0.474  12.525
27348W        W95766  10.740   8.193   3.866
27349W        W95767  33.123  30.466  12.035
27350W        W95768  35.419  23.717  12.045
27351W        W95769  19.649  12.767  12.410
27352W        W95770  33.473  22.615   0.903
27353W        W95771   6.412  31.502   4.339
27354W        W95772  44.482  14.600   1.268
27355W        W95773  21.579  36.903  14.980
27356W        W95774  30.109  35.460  14.369
27357W        W95775  13.621  33.458  12.420
27358W        W95776  43.421   9.168  13.824
27359W        W95777  36.892  13.796   2.305
27360W        W95778  17.291  25.646  13.359
27361W        W95779  38.459  21.529  13.991
27362W        W95780   5.924  16.170   3.866
27363W        W95781  34.882  20.560  12.579
27364W        W95782  14.160   0.488  14.788
27365W        W95783  13.653   3.858   0.876
27366W        W95784  19.113  26.097   0.775
27367W        W95785  32.523  36.464   2.884
27368W        W95786  12.735  28.985   0.472
27369W        W95787  36.870  42.862   4.158
27370W        W95788  34.943  29.940  11.560
27371W        W95789  18.556   4.306  13.352
27372W        W95790  39.031  43.943   2.883
27373W        W95791   3.897  20.082   1.928
27374W        W95792   7.741  31.153  13.989
27375W        W95793   5.268  34.038  10.631
27376W        W95794  43.321  31.473  14.506
27377W        W95795   3.281  38.457   1.789
27378W        W95796   1.312   8.882   0.324
27379W        W95797  33.438  29.653   4.245
27380W        W95798  22.731   6.232  13.999
27381W        W95799  11.196  38.327   4.254
27382W        W95800  44.471  34.550  11.593
27383W        W95801  41.924  15.217   3.359
27384W        W95802  19.076  42.485   4.704
27385W        W95803  18.242  15.750   0.424
27386W        W95804  42.990  37.486   1.769
27387W        W95805  19.252  25.597  10.632
27388W        W95806  21.694  14.111   2.707
27389W        W95807  28.004  13.225  11.496
27390W        W95808  26.474  26.121   3.178
27391W        W95809  30.559  34.865  10.962
27392W        W95810  28.664  31.041  11.906
27393W        W95811   2.249  28.024   3.174
27394W        W95812  27.941  11.839  14.444
27395W        W95813  37.525   4.797  12.472
27396W        W95814  37.581  38.975   5.142
27397W        W95815  42.863  24.185  14.892
27398W        W95816   3.356  27.589  12.566
27399W        W95817  20.062  40.839   1.847
27400W        W95818  39.824  44.294  14.452
27401W        W95819  24.594  25.582   2.190
27402W        W95820  37.397   7.331  11.046
27403W        W95821  44.762   7.211  14.308
27404W        W95822  15.686  17.665  14.500
27405W        W95823  39.426  27.170  14.817
27406W        W95824  37.400  26.541   3.167
27407W        W95825   2.729  12.180  10.568
27408W        W95826  43.811  24.658  12.036
27409W        W95827  39.325  28.604  12.341
27410W        W95828  30.021  33.439   1.891
27411W        W95829  21.205  28.674  12.855
27412W        W95830  34.030  42.449   1.305
27413W        W95831  36.580  13.640  11.901
27414W        W95832   2.249  40.858   4.654
27415W        W95833  20.579   4.868   0.833
27416W        W95834  32.519  33.593  12.557
27417W        W95835  23.006  33.084   2.209
27418W        W95836   8.318  27.542  13.398
27419W        W95837  44.792   2.296  11.941
27420W        W95838  20.130  31.510   2.772
27421W        W95839  31.487  43.340  13.533
27422W        W95840  21.678  43.781   0.250
27423W        W95841  42.933   6.740  11.926
27424W        W95842  25.617  30.474  14.378
27425W        W95843  41.517   3.368  14.314
27426W        W95844   5.268  21.152  11.028
27427W        W95845  33.551   7.747  14.280
27428W        W95846  23.620  41.995   2.881
27429W        W95847  14.237  22.702   4.701
27430W        W95848   0.753  18.202  10.483
27431W        W95849  29.146  31.568  11.927
27432W        W95850  29.531  28.621   0.916
27433W        W95851  26.687  12.722   1.260
27434W        W95852   8.181  24.665   0.925
27435W        W95853  27.577  11.361  12.946
27436W        W95854  40.411  31.461  10.923
27437W        W95855   7.381  18.598   4.680
27438W        W95856  38.362  13.771  10.438
27439W        W95857  14.253  44.408  13.957
27440W        W95858  15.713  38.402   0.735
27441W        W95859  22.096   4.831  10.525
27442W        W95860  33.892  14.644  10.554
27443W        W95861   7.318  40.966  11.021
27444W        W95862  19.165  36.861  10.437
27445W        W95863  11.868  24.202   2.861
27446W        W95864   3.812  20.769  11.483
27447W        W95865  20.583  29.151   3.289
27448W        W95866  15.242  44.445   0.961
27449W        W95867  41.985  42.302  13.046
27450W        W95868  42.324  42.781  13.887
27451W        W95869  15.751   5.380  14.375
27452W        W95870  35.556  27.037   2.302
27453W        W95871  21.211  44.370  12.401
27454W        W95872  23.542  30.164   3.347
27455W        W95873  34.607  15.672   4.141
27456W        W95874  16.718   9.766   4.235
27457W        W95875  31.131  33.950  11.975
27458W        W95876  32.887  26.582   2.335
27459W        W95877  19.053  35.411  14.029
27460W        W95878  10.733  33.599  10.468
27461W        W95879  17.669  17.135   3.840
27462W        W95880   0.486   3.437  13.984
27463W        W95881   7.261  23.161   2.269
27464W        W95882  36.514  29.979   0.838
27465W        W95883  39.841  21.626  13.426
27466W        W95884  41.383  37.489  14.314
27467W        W95885  16.265  37.535  11.954
27468W        W95886  32.034  42.312  10.989
27469W        W95887   2.413   3.280  11.907
27470W        W95888  15.208  23.575   2.780
27471W        W95889  14.257  21.152  12.065
27472W        W95890  18.292  20.037   1.214
27473W        W95891  14.168  44.378   4.177
27474W        W95892   8.167   8.360  14.978
27475W        W95893   3.934   9.860  13.935
27476W        W95894  23.090  13.149  11.914
27477W        W95895  36.395   6.788   4.606
27478W        W95896  34.042  26.014  13.984
27479W        W95897  42.870  15.620   3.729
27480W        W95898  30.488  14.628   1.238
27481W        W95899  26.078  38.942   3.634
27482W        W95900   3.406  17.193   3.748
27483W        W95901  32.109  31.541  14.444
27484W        W95902  38.403  34.993  11.016
27485W        W95903  36.372  11.686   2.225
27486W        W95904   5.912  43.347   0.394
27487W        W95905  33.092  19.198  14.890
27488W        W95906  40.428  35.098   2.779
27489W        W95907  37.054  20.550  13.312
27490W        W95908  15.161  18.562   2.727
27491W        W95909   8.887  42.483   3.678
27492W        W95910  36.878   7.322   4.307
27493W        W95911  12.205  37.855   0.892
27494W        W95912  14.725   6.704  13.972
27495W        W95913  20.244   3.793   4.636
27496W        W95914  17.682  33.084  12.456
27497W        W95915  37.557  10.796   0.480
27498W        W95916  13.609   0.752   1.909
27499W        W95917  36.553  27.060  10.928
27500W        W95918  11.839  28.096   3.754
27501W        W95919  44.771  33.979   4.176
27502W        W95920  33.924  44.875   1.218
27503W        W95921  17.115  43.279  12.958
27504W        W95922  29.082  34.434   1.290
27505W        W95923  43.426  28.132   4.220
27506W        W95924  44.390  28.961  12.357
27507W        W95925  32.974  10.359   4.751
27508W        W95926  18.246  15.141   2.291
27509W        W95927  12.282  37.848   2.344
27510W        W95928  27.559  36.454   1.822
27511W        W95929   3.736   4.357  13.490
27512W        W95930  12.669  28.577  13.309
27513W        W95931  29.065  20.091  13.455
27514W        W95932  43.477  40.415  12.844
27515W        W95933  20.257   9.236   2.267
27516W        W95934   3.327   6.350  11.985
27517W        W95935   5.754  27.031  11.985
27518W        W95936   0.476  43.324   3.255
27519W        W95937   5.386  39.501  14.485
27520W        W95938  38.444  10.712  14.421
27521W        W95939  20.731   2.747  14.300
27522W        W95940  26.539   9.276   1.316
27523W        W95941  37.336  11.786  13.906
27524W        W95942  13.128  33.915   0.863
27525W        W95943  17.589  30.573  12.461
27526W        W95944  15.585  42.888  14.303
27527W        W95945   3.932  39.438  13.806
27528W        W95946  19.717   8.201   1.426
27529W        W95947   5.330   6.730  14.411
27530W        W95948  32.048  36.560  11.432
27531W        W95949  16.315  35.005   3.745
27532W        W95950  28.457  23.033  10.469
27533W        W95951  19.127  21.682   4.692
27534W        W95952  44.971   0.821   1.228
27535W        W95953  31.483   5.276  11.933
27536W        W95954   6.235  42.479   2.893
27537W        W95955  21.631  37.353  12.561
27538W        W95956  22.710   3.869  14.828
27539W        W95957  32.620   0.966  12.863
27540W        W95958  26.542   3.724  10.550
27541W        W95959  35.858  30.557  11.876
27542W        W95960  38.433  28.126   0.850
27543W        W95961   2.240  20.202  12.994
27544W        W95962   7.185  37.989   3.297
27545W        W95963  27.038   7.231  13.971
27546W        W95964  42.426   8.275   4.141
27547W        W95965  37.081  10.152   5.152
27548W        W95966   4.871   8.738  10.142
27549W        W95967  15.693   1.454   0.762
27550W        W95968  20.160  23.511   1.267
27551W        W95969   1.321  27.125  11.530
27552W        W95970  10.770  25.508   1.266
27553W        W95971  24.122  36.922  11.378
27554W        W95972   7.341  16.116  14.019
27555W        W95973  10.283   8.718  14.923
27556W        W95974  19.085  10.165  13.357
27557W        W95975   6.870  11.250   2.395
27558W        W95976  22.516  31.422   0.321
27559W        W95977   4.748  26.505  10.099
27560W        W95978   3.881  26.081  12.536
27561W        W95979  33.915  33.892   2.887
27562W        W95980  44.877  27.087  11.474
27563W        W95981  34.939  22.232  11.562
27564W        W95982  38.447  36.347  14.482
27565W        W95983  24.077  28.627   2.198
27566W        W95984   7.750   2.325   3.683
27567W        W95985  23.168  39.815  14.924
27568W        W95986  18.132  24.612  13.008
27569W        W95987   9.391  21.635  12.026
27570W        W95988  22.177  33.965  12.433
27571W        W95989  17.230  26.151  14.407
27572W        W95990  24.558  24.137   1.378
27573W        W95991  38.821  16.156   5.198
27574W        W95992  41.038  41.388  14.430
27575W        W95993  43.466   7.314  10.552
27576W        W95994  19.768   9.218  11.085
27577W        W95995   7.712   1.743   0.259
27578W        W95996  31.042   2.889  11.964
27579W        W95997  22.597   4.243   2.180
27580W        W95998  32.114  33.002   3.803
27581W        W95999  40.946  28.613  14.890
27582W        W96000  27.094  10.866   3.859
27583W        W96001  35.099   4.413   4.734
27584W        W96002   1.795   2.356   0.309
27585W        W96003  44.380   6.782  14.292
27586W        W96004  40.849  10.663   2.248
27587W        W96005  36.037   6.730  12.883
27588W        W96006  19.700  31.632  14.848
27589W        W96007  17.108  16.797  10.033
27590W        W96008   2.849  34.401  10.596
27591W        W96009  22.667  20.735   2.275
27592W        W96010  21.222  19.041   4.283
27593W        W96011  12.713  26.053  13.042
27594W        W96012   7.886   5.871   1.347
27595W        W96013   1.380   0.413   4.766
27596W        W96014   9.220  31.505   0.830
27597W        W96015  10.275  30.911   2.284
27598W        W96016  25.672  32.972   1.780
27599W        W96017   0.950  15.759   0.822
27600W        W96018   9.254  23.722  11.418
27601W        W96019  11.629   0.321  13.462
27602W        W96020  19.651  16.181   4.306
27603W        W96021  18.148   4.251  14.990
27604W        W96022  31.996  30.138   0.285
27605W        W96023  24.630  18.676  10.626
27606W        W96024  27.525  43.882   1.298
27607W        W96025  11.302  39.879   4.678
27608W        W96026  14.825  23.152   4.692
27609W        W96027   0.358  41.523  12.351
27610W        W96028   9.182  22.183  14.401
27611W        W96029  23.099  10.740   0.462
27612W        W96030  17.566   8.847   2.889
27613W        W96031  35.501  23.198  11.972
27614W        W96032  44.346  22.018  12.854
27615W        W96033  39.939  40.311  14.826
27616W        W96034  32.422  13.831   0.844
27617W        W96035   0.876   1.314  11.376
27618W        W96036  26.114  14.590  12.447
27619W        W96037  31.442  40.484   3.341
27620W        W96038  16.240  34.092   0.727
27621W        W96039  18.145  26.538  14.931
27622W        W96040  33.418  44.437   1.354
27623W        W96041  43.011  14.154   0.310
27624W        W96042  30.110  41.378  14.984
27625W        W96043   9.758  44.810  12.849
27626W        W96044  14.169  17.572  14.304
27627W        W96045  19.058   2.951   0.401
27628W        W96046   9.203  31.011   1.761
27629W        W96047  22.098   7.910  14.963
27630W        W96048   8.282  44.917  11.523
27631W        W96049  19.286  15.299   3.775
27632W        W96050  42.915  14.728   2.347
27633W        W96051  20.135  19.780   4.162
27634W        W96052  43.465   0.974   2.714
27635W        W96053   3.343  39.403  12.549
27636W        W96054   8.399   6.228   2.697
27637W        W96055  23.121  18.296   0.747
27638W        W96056  19.162  26.584   4.342
27639W        W96057  27.502  36.045   2.685
27640W        W96058   8.694  35.918   0.762
27641W        W96059  43.461  14.253  14.967
27642W        W96060  13.173  14.254  12.379
27643W        W96061  18.228  20.189  14.896
27644W        W96062   0.818  25.047   3.750
27645W        W96063   8.762  43.354  13.037
27646W        W96064  23.129   0.860  13.038
27647W        W96065  23.606  20.232  13.313
27648W        W96066  33.503   0.922   2.267
27649W        W96067  10.740  24.546   2.404
27650W        W96068  13.791  29.954   2.392
27651W        W96069  12.699  37.553   2.868
27652W        W96070  12.340  37.373  11.050
27653W        W96071  13.116   4.284   3.662
27654W        W96072  25.164   6.253  11.491
27655W        W96073  42.365   9.273  12.915
27656W        W96074  42.433  21.208   0.301
27657W        W96075  36.050  16.677  14.357
27658W        W96076  43.770  26.634  12.552
27659W        W96077  29.611  33.424  11.512
27660W        W96078  33.899  20.692  12.939
27661W        W96079  30.971   2.935  12.537
27662W        W96080  16.686  22.568  11.438
27663W        W96081  39.464  37.549   1.707
27664W        W96082  15.640  41.375   0.894
27665W        W96083  34.976   9.696   3.180
27666W        W96084  35.893   0.949   2.895
27667W        W96085   8.315   8.743   9.940
27668W        W96086  33.002  43.433  11.977
27669W        W96087  22.996  11.821   3.214
27670W        W96088  29.556  21.514  12.465
27671W        W96089  15.805  24.521   4.238
27672W        W96090  13.264  16.595   3.634
27673W        W96091  25.025  13.218   0.855
27674W        W96092   3.323   5.703   0.244
27675W        W96093  24.980   1.774   3.251
27676W        W96094  30.468   6.214  10.994
27677W        W96095   9.680  31.960  12.005
27678W        W96096  31.114  17.230  11.567
27679W        W96097   3.242  11.250   4.712
27680W        W96098   2.286  41.863   2.397
27681W        W96099  17.740  37.434   1.860
27682W        W96100  39.929  43.448   3.783
27683W        W96101  10.773   8.214  13.935
27684W        W96102  11.667  38.951   1.766
27685W        W96103  11.655  22.637  13.362
27686W        W96104   0.254  10.671   1.253
27687W        W96105  18.275   7.311  10.546
27688W        W96106  19.039  29.505  14.789
27689W        W96107  17.693   2.752   1.857
27690W        W96108  42.974  29.551  14.778
27691W        W96109  12.263  37.081   4.762
27692W        W96110  34.462  11.265  13.413
27693W        W96111  38.364  17.287  13.391
27694W        W96112   4.429  13.630  11.060
27695W        W96113  19.148  37.958  14.395
27696W        W96114  18.061  38.462   2.704
27697W        W96115  10.695   2.735  10.432
27698W        W96116  31.037  15.256   2.323
27699W        W96117  16.307  44.313   3.741
27700W        W96118  27.098  40.874  14.486
27701W        W96119  27.167  12.771   0.372
27702W        W96120  20.265  26.047   4.210
27703W        W96121  20.531  35.416  12.842
27704W        W96122   1.287  10.806   0.809
27705W        W96123  15.758  14.766  10.896
27706W        W96124  31.491  16.217   0.965
27707W        W96125  19.641  21.656   4.775
27708W        W96126   3.317  25.141   0.388
27709W        W96127   2.914  31.007  14.296
27710W        W96128  41.401  31.537   2.214
27711W        W96129  42.875  16.316   3.752
27712W        W96130  32.575  38.844   0.351
27713W        W96131  17.070  13.600   4.623
27714W        W96132  39.360   1.909   0.913
27715W        W96133  29.452  44.844  12.059
27716W        W96134  21.717  23.583  14.818
27717W        W96135  14.097  14.104   5.203
27718W        W96136   5.275  39.809  12.843
27719W        W96137  15.817  40.420  14.436
27720W        W96138  23.016  40.017   3.684
27721W        W96139  34.909  41.401   0.870
27722W        W96140  37.938  10.226  11.993
27723W        W96141  14.752  34.006  10.553
27724W        W96142  10.713  31.407  11.884
27725W        W96143  21.172  19.059  12.578
27726W        W96144   7.385  26.488   4.689
27727W        W96145   7.391   5.348   2.902
27728W        W96146   3.836  40.369  13.369
27729W        W96147  24.569  32.572   3.220
27730W        W96148   3.779  29.153  13.882
27731W        W96149  11.701  33.443  14.881
27732W        W96150   4.818  25.573  11.934
27733W        W96151   6.376  21.596   0.847
27734W        W96152   6.818  14.650   2.330
27735W        W96153  25.207  38.930   3.865
27736W        W96154  14.142  14.756  12.844
27737W        W96155  23.557  30.009   2.212
27738W        W96156   0.825  19.682   0.388
27739W        W96157   7.347  24.715   4.711
27740W        W96158  15.154  42.966  10.075
27741W        W96159   6.866  24.993   2.409
27742W        W96160  35.469  42.032   2.233
27743W        W96161  19.041   1.814   0.268
27744W        W96162   4.911  11.677  11.951
27745W        W96163   4.770   6.424   2.408
27746W        W96164   2.250  18.739   2.675
27747W        W96165   1.384   8.692  14.412
27748W        W96166  37.976  27.043   3.679
27749W        W96167  41.473  26.968  11.003
27750W        W96168  28.540   0.270   4.211
27751W        W96169  29.549  44.290  14.515
27752W        W96170  39.863  36.566  14.951
27753W        W96171  17.667  13.737  13.441
27754W        W96172  32.572   5.781  12.027
27755W        W96173  28.475  43.851  10.423
27756W        W96174  20.111  30.940   1.730
27757W        W96175  34.400  38.438   1.402
27758W        W96176  10.861  12.259   3.384
27759W        W96177  28.441  13.628   0.804
27760W        W96178  26.548  44.762  11.581
27761W        W96179  17.700  25.565  13.937
27762W        W96180  24.676   5.851  10.586
27763W        W96181   9.739  32.396   2.808
27764W        W96182  26.952   5.335  14.383
27765W        W96183  20.555  12.614   9.515
27766W        W96184  15.799  10.363   4.142
27767W        W96185  40.452  17.776   0.346
27768W        W96186  33.466  11.741  10.155
27769W        W96187   3.806  20.098  12.948
27770W        W96188  26.626  40.471  12.567
27771W        W96189  33.528   3.447   0.821
27772W        W96190  30.540  12.333  11.971
27773W        W96191   2.948  43.453  11.118
27774W        W96192  40.451  35.908  14.398
27775W        W96193  18.285  24.171   1.445
27776W        W96194  14.652  41.968  12.886
27777W        W96195   1.420   4.797   0.949
27778W        W96196  34.435  28.593   0.367
27779W        W96197  37.946  42.806  12.987
27780W        W96198  37.362  27.611   0.836
27781W        W96199  44.902  18.102  14.804
27782W        W96200  30.579   2.936  11.542
27783W        W96201   4.902   3.429   4.601
27784W        W96202  16.799  27.144  13.366
27785W        W96203  32.903  10.637   1.416
27786W        W96204  31.964  28.509   1.809
27787W        W96205   8.273  32.528  11.100
27788W        W96206  13.808  30.051  11.441
27789W        W96207   3.268   1.362  10.901
27790W        W96208  17.625  25.186   2.380
27791W        W96209  16.672  33.113   4.268
27792W        W96210   3.720  16.079   4.660
27793W        W96211  19.224  22.650  10.557
27794W        W96212  18.088  28.673   3.313
27795W        W96213   7.267  33.054   2.366
27796W        W96214   9.793  27.967   2.358
27797W        W96215  10.322  32.111   0.362
27798W        W96216  20.721  39.065  13.801
27799W        W96217  23.038   8.360   2.711
27800W        W96218  35.036  39.913   2.415
27801W        W96219  30.139  36.421  14.823
27802W        W96220  11.367  15.292  14.459
27803W        W96221   2.324   6.811  11.900
27804W        W96222  10.302  33.570  14.944
27805W        W96223  37.500  27.044  13.351
27806W        W96224   2.420  10.301  12.976
27807W        W96225  13.319  44.286   1.841
27808W        W96226  32.511   3.911  11.920
27809W        W96227  21.721  36.092   1.754
27810W        W96228  40.412   4.210   0.465
27811W        W96229  28.496  42.361   2.285
27812W        W96230  21.741  21.660  12.396
27813W        W96231  11.670  27.963  13.832
27814W        W96232  19.554  30.025   2.774
27815W        W96233  14.649  12.223   3.325
27816W        W96234  30.046  18.093  11.445
27817W        W96235  34.507  21.736   1.287
27818W        W96236  24.010  14.183  10.550
27819W        W96237   7.264  35.017   4.700
27820W        W96238  31.911   2.822   0.423
27821W        W96239  26.557  29.045   4.339
27822W        W96240  13.105  37.549   5.156
27823W        W96241  27.968  40.389  10.566
27824W        W96242  13.813  43.404   3.171
27825W        W96243  24.996  43.982  13.389
27826W        W96244  40.394  14.813   2.226
27827W        W96245  43.835  40.539  13.900
27828W        W96246   5.435  43.421   1.717
27829W        W96247   3.821  13.701   0.406
27830W        W96248  21.210  38.056  10.943
27831W        W96249   8.196   5.768  10.416
27832W        W96250   5.701  20.637  10.991
27833W        W96251  18.697  29.020   1.926
27834W        W96252  35.372  36.067   1.228
27835W        W96253   9.295   6.200   0.375
27836W        W96254  37.345   6.688  13.496
27837W        W96255  31.632   2.923  12.887
27838W        W96256   1.761  28.960   2.183
27839W        W96257  18.666  38.911   2.755
27840W        W96258  36.430  21.247  10.138
27841W        W96259   6.292  36.844  10.574
27842W        W96260  24.189   8.661  10.473
27843W        W96261   9.297  17.258   4.339
27844W        W96262  13.123  16.635  10.976
27845W        W96263  13.817  38.957  12.561
27846W        W96264  19.603  11.184   1.340
27847W        W96265  12.788   8.229  14.938
27848W        W96266   3.434  14.773   4.279
27849W        W96267  22.033  15.200   3.854
27850W        W96268  34.388  41.337   1.378
27851W        W96269   1.414  33.496  14.359
27852W        W96270   3.315  24.641  13.535
27853W        W96271  39.992  19.253  12.902
27854W        W96272  37.003  25.189   0.359
27855W        W96273  37.854  34.473  14.803
27856W        W96274  16.668  17.645   2.885
27857W        W96275  23.224  12.247  14.865
27858W        W96276  43.414   0.387  12.574
27859W        W96277  13.164  13.342  11.401
27860W        W96278  18.585  11.738   2.901
27861W        W96279  20.209  11.682  13.990
27862W        W96280  28.478   1.891   4.333
27863W        W96281  22.614  11.799  13.498
27864W        W96282  34.384  33.483   4.280
27865W        W96283  23.176  22.190   2.700
27866W        W96284   6.300  21.200   5.141
27867W        W96285  39.821  22.563  11.032
27868W        W96286  23.226  28.149   3.292
27869W        W96287  15.696  34.893  11.861
27870W        W96288  28.046  23.533  13.810
27871W        W96289  14.820  38.359  10.891
27872W        W96290  15.213   2.322  12.538
27873W        W96291  24.587   1.450  13.418
27874W        W96292  41.498  32.099  14.971
27875W        W96293  37.478  28.020   0.259
27876W        W96294  25.108  25.631   3.851
27877W        W96295  23.628  38.341   0.940
27878W        W96296  12.826  13.241  10.582
27879W        W96297  19.759  41.984   0.918
27880W        W96298   3.737  23.241   3.713
27881W        W96299   8.856   9.748   4.624
27882W        W96300   0.272  41.933  14.771
27883W        W96301  24.977  28.149  11.584
27884W        W96302  12.199  31.083  11.536
27885W        W96303   9.800  21.686   3.321
27886W        W96304   4.358  23.198  12.018
27887W        W96305   5.195  19.100  10.422
27888W        W96306  42.450  10.696   2.219
27889W        W96307  27.997  20.134   3.310
27890W        W96308  42.912  30.095  14.384
27891W        W96309  20.563  38.361   3.344
27892W        W96310  35.049  30.585  14.507
27893W        W96311   5.918  17.120   3.159
27894W        W96312   0.275   4.330   2.710
27895W        W96313  31.086   0.897  10.511
27896W        W96314  13.271  13.797  13.539
27897W        W96315  31.495  43.474  13.905
27898W        W96316  15.089  16.699  10.564
27899W        W96317  32.615  34.483   5.144
27900W        W96318  31.451  11.297   0.742
27901W        W96319  32.068   8.276   2.760
27902W        W96320   2.918  18.100  13.821
27903W        W96321  33.462  27.156   9.921
27904W        W96322  27.637  11.852   1.347
27905W        W96323  24.702   3.216   2.390
27906W        W96324  34.446   2.448  14.502
27907W        W96325  17.216  17.131  12.880
27908W        W96326  19.771  31.960   2.856
27909W        W96327  24.688  14.738   0.964
27910W        W96328  22.568   3.901  12.463
27911W        W96329  42.001  18.787   4.251
27912W        W96330   0.404  18.669  10.645
27913W        W96331  34.492  17.562  12.991
27914W        W96332  23.081  18.615   3.181
27915W        W96333   4.836  11.633   1.931
27916W        W96334   9.353  33.625   2.898
27917W        W96335  22.580  23.569  12.398
27918W        W96336  15.741   4.772   1.412
27919W        W96337  28.104  29.463   0.444
27920W        W96338  41.415  30.971   4.216
27921W        W96339  36.861  44.366  12.941
27922W        W96340  19.688   9.762   2.668
27923W        W96341   4.430   9.731  14.873
27924W        W96342  38.943   1.470  10.466
27925W        W96343   2.430  39.315   1.229
27926W        W96344   6.297  34.075   0.390
27927W        W96345  20.149   1.292  12.455
27928W        W96346  42.451   5.416  11.001
27929W        W96347  10.377   9.712   2.883
27930W        W96348  35.515  28.456  11.085
27931W        W96349  29.078  20.607   1.407
27932W        W96350  17.189  26.571  11.101
27933W        W96351  22.580  19.203   1.935
27934W        W96352  17.240  38.361   4.327
27935W        W96353  39.942  28.110   1.800
27936W        W96354  17.121  33.543   0.427
27937W        W96355  17.109  11.838   2.244
27938W        W96356  26.598  33.941   2.318
27939W        W96357  37.548  35.595   3.741
27940W        W96358  13.330  33.911  11.875
27941W        W96359   4.235  19.619  14.425
27942W        W96360   4.924  25.138  12.950
27943W        W96361  23.066  25.177  13.023
27944W        W96362  31.060  22.711  14.401
27945W        W96363  34.106  44.355  13.482
27946W        W96364  19.234  44.368   3.204
27947W        W96365  37.003  14.832   0.413
27948W        W96366  27.979  25.979   4.181
27949W        W96367  33.531  31.522   1.342
27950W        W96368  24.693  23.991   4.349
27951W        W96369  24.688   6.788   3.208
27952W        W96370  21.631  11.692   0.319
27953W        W96371   0.817  17.142  14.441
27954W        W96372  10.269  44.348  10.496
27955W        W96373  21.533  28.962  11.444
27956W        W96374  32.564  44.935  13.791
27957W        W96375  35.967  35.907   0.963
27958W        W96376  11.744  15.221   2.766
27959W        W96377  11.786  15.128   4.643
27960W        W96378  35.431  35.995   2.862
27961W        W96379  26.694  25.066   3.816
27962W        W96380  44.472  42.899   0.329
27963W        W96381  32.455  23.074  10.971
27964W        W96382  31.122   5.794   4.783
27965W        W96383  19.554  10.826   0.450
27966W        W96384  33.574   4.245   2.673
27967W        W96385   3.862  30.977   2.753
27968W        W96386  27.169  32.032   4.334
27969W        W96387  35.492  22.121  14.796
27970W        W96388  28.577  41.862  11.002
27971W        W96389  38.488  22.719   3.339
27972W        W96390  31.598  15.148  11.461
27973W        W96391  16.654  15.196   3.690
27974W        W96392  28.040   8.295  10.984
27975W        W96393  23.214   9.674   3.773
27976W        W96394  12.205  17.208  10.939
27977W        W96395  33.546  33.038   2.267
27978W        W96396   6.818  12.131   1.232
27979W        W96397   5.823  29.062   2.676
27980W        W96398  24.540  33.108  14.358
27981W        W96399  27.692   8.793   3.354
27982W        W96400  36.058  22.140   0.477
27983W        W96401   5.695  38.856   1.910
27984W        W96402  32.580  30.619   0.890
27985W        W96403  12.615  37.932   3.153
27986W        W96404  14.236  15.161  13.006
27987W        W96405  15.809  40.507   0.328
27988W        W96406   1.338  29.965   0.869
27989W        W96407  37.398   6.869   3.778
27990W        W96408  20.201  19.657   2.259
27991W        W96409  23.536   8.290   4.756
27992W        W96410  14.287   1.413   2.869
27993W        W96411  31.107   7.722   4.823
27994W        W96412   8.316  24.040   1.400
27995W        W96413  18.610  15.121   4.272
27996W        W96414  33.056  43.444  11.420
27997W        W96415  20.064   1.242   4.698
27998W        W96416  19.210  23.629   1.826
27999W        W96417   0.458   2.443  12.906
28000W        W96418  15.300  42.890   1.407
28001W        W96419   2.337  33.042   4.816
28002W        W96420   5.329  27.453   0.431
28003W        W96421  30.147  19.145   1.836
28004W        W96422  38.038  27.122   2.777
28005W        W96423  13.722  34.027   2.775
28006W        W96424   6.802  12.658  11.877
28007W        W96425  18.570  10.359   4.770
28008W        W96426   6.362  23.065   1.900
28009W        W96427  23.732   4.442  11.504
28010W        W96428  27.529  14.190   2.230
28011W        W96429  13.763  16.582  11.946
28012W        W96430  35.428  30.617   2.287
28013W        W96431  15.704  30.944  13.928
28014W        W96432  10.302  18.599   2.719
28015W        W96433  15.637  26.976  14.469
28016W        W96434   3.261  40.451   1.739
28017W        W96435  13.764   2.948   1.350
28018W        W96436  43.464   2.431   1.410
28019W        W96437  19.638  23.615  12.384
28020W        W96438  25.508  31.459   4.262
28021W        W96439   1.437  41.015   3.212
28022W        W96440  20.194  37.349   0.940
28023W        W96441  36.871  42.777   0.755
28024W        W96442  25.654  37.425   3.727
28025W        W96443  17.606  27.150   2.362
28026W        W96444  22.739  34.524   1.418
28027W        W96445  37.029  44.827   0.321
28028W        W96446   9.282   7.871   4.634
28029W        W96447  12.699  34.031  14.816
28030W        W96448  17.628  27.031   4.126
28031W        W96449  37.514  10.751  11.885
28032W        W96450  12.753   5.708   0.484
28033W        W96451  23.169  12.165  14.441
28034W        W96452  30.109  40.921   2.887
28035W        W96453  20.751   7.234  11.074
28036W        W96454  34.548  20.688  11.885
28037W        W96455  17.113  41.038   1.451
28038W        W96456  20.162  41.460   4.677
28039W        W96457  18.742  13.670   4.288
28040W        W96458  13.603  35.950   1.898
28041W        W96459  20.591  24.217   4.314
28042W        W96460  20.256  31.529  14.762
28043W        W96461  15.184  32.483  12.962
28044W        W96462   5.259  42.521  11.997
28045W        W96463  28.938   4.251  13.439
28046W        W96464  24.004  25.218   3.375
28047W        W96465  41.336   0.768   5.214
28048W        W96466  10.697  17.107  14.362
28049W        W96467   1.902  30.148   1.768
28050W        W96468  20.576  28.454   2.668
28051W        W96469   6.811  25.176  11.110
28052W        W96470  29.518   8.883   0.252
28053W        W96471   0.950  33.903   0.325
28054W        W96472  44.786  21.624   3.227
28055W        W96473  19.535  37.923   2.738
28056W        W96474   5.425  17.608  12.931
28057W        W96475  23.686  39.395   1.381
28058W        W96476  21.701  41.355   3.306
28059W        W96477  25.596  39.860   3.265
28060W        W96478  43.806  16.201  12.083
28061W        W96479  39.011  33.514  13.940
28062W        W96480  37.576  39.941   4.805
28063W        W96481  40.430  12.821  12.837
28064W        W96482  36.564  24.536  14.863
28065W        W96483  34.480   0.804   3.644
28066W        W96484  28.138   0.290  13.944
28067W        W96485  34.385  25.174   4.319
28068W        W96486  35.063   1.894   2.381
28069W        W96487  43.510  10.721  11.088
28070W        W96488   6.292  35.979  12.555
28071W        W96489  25.112  12.328   3.355
28072W        W96490   9.339  16.688  12.092
28073W        W96491  23.533  32.487  13.492
28074W        W96492  25.575   4.205  11.425
28075W        W96493  29.997  23.986   3.194
28076W        W96494  17.167  28.181   0.445
28077W        W96495   0.312  12.272   2.810
28078W        W96496  37.064  29.933   2.388
28079W        W96497   8.254  29.121  12.092
28080W        W96498  33.102   7.388  14.393
28081W        W96499   1.267  22.125   3.346
28082W        W96500  33.050  16.710   2.222
28083W        W96501  26.489   3.905  12.390
28084W        W96502  13.673  31.584   0.751
28085W        W96503  14.132  43.507  10.904
28086W        W96504   7.903  38.891   2.232
28087W        W96505   6.857  39.376  12.510
28088W        W96506   2.397  40.959   3.774
28089W        W96507  18.066   7.891   1.819
28090W        W96508   6.234  23.013   0.736
28091W        W96509   0.983  22.177   4.322
28092W        W96510  35.532  21.712  11.389
28093W        W96511  25.041  32.997   1.836
28094W        W96512  44.408  28.957  10.978
28095W        W96513  44.905  30.590  12.391
28096W        W96514  17.281  13.656   1.352
28097W        W96515   3.242  18.726   3.197
28098W        W96516  26.153  33.442   4.344
28099W        W96517   0.839  19.673  10.998
28100W        W96518  17.622  26.690  10.936
28101W        W96519  27.461  28.979   2.191
28102W        W96520  26.616  43.302   0.816
28103W        W96521  13.200  24.636  14.423
28104W        W96522  40.995  28.941   1.386
28105W        W96523  26.112  41.931  13.870
28106W        W96524   5.726  23.997  13.507
28107W        W96525  41.420  10.330  12.485
28108W        W96526  17.674  29.109  14.422
28109W        W96527  40.819   5.243   4.248
28110W        W96528  43.489  43.938   4.248
28111W        W96529  24.112   3.883   0.256
28112W        W96530  22.190   0.882   2.762
28113W        W96531  14.133   4.330   4.829
28114W        W96532  44.777  28.091   1.752
28115W        W96533  23.226  12.330  11.874
28116W        W96534  24.577   8.861  12.062
28117W        W96535  27.587  42.960  10.645
28118W        W96536  20.065  12.240  11.484
28119W        W96537  33.411  31.064  10.976
28120W        W96538  22.731   1.423  14.019
28121W        W96539   4.915  22.584  13.852
28122W        W96540   0.308   3.297   2.672
28123W        W96541  14.616   9.224   4.245
28124W        W96542   7.314   0.959  11.014
28125W        W96543  36.050   1.477   1.445
28126W        W96544  10.278   3.301   4.625
28127W        W96545  44.945  39.852   4.269
28128W        W96546  44.916  17.264  12.444
28129W        W96547  42.841  13.337  14.454
28130W        W96548  36.440  13.199  14.006
28131W        W96549  10.700  37.942   4.837
28132W        W96550  26.155  27.163  12.021
28133W        W96551  30.059  22.654   4.244
28134W        W96552  26.167  16.292  10.427
28135W        W96553   5.240  35.431  14.944
28136W        W96554  17.164   0.810   4.255
28137W        W96555  38.919  42.834   4.789
28138W        W96556  18.228  23.578  12.871
28139W        W96557  16.081  33.417   4.633
28140W        W96558  17.067  11.369   4.265
28141W        W96559  23.630  34.049   4.808
28142W        W96560   4.722  26.177   2.778
28143W        W96561   5.218  41.797   0.298
28144W        W96562  43.456  30.055  11.918
28145W        W96563  13.715  17.083   1.851
28146W        W96564  15.633  12.316  12.556
28147W        W96565  33.423   6.803  12.039
28148W        W96566  32.537  16.813  13.796
28149W        W96567   7.757  25.563   4.193
28150W        W96568   7.280  41.319   0.437
28151W        W96569  22.531   6.764  14.434
28152W        W96570  37.468  24.157  11.119
28153W        W96571  35.577  22.746   2.390
28154W        W96572  41.461  23.161   2.748
28155W        W96573  38.563  37.365   2.758
28156W        W96574   4.261  43.435   0.461
28157W        W96575  24.095  29.953   0.948
28158W        W96576  42.918   0.361   1.749
28159W        W96577  19.583   0.926   3.766
28160W        W96578  38.455  44.802  11.879
28161W        W96579  15.125   0.869   4.712
28162W        W96580  32.586  40.899  12.866
28163W        W96581  17.571   3.937  13.824
28164W        W96582   0.248   7.188  11.582
28165W        W96583  35.883  29.987  14.386
28166W        W96584  29.644  28.173   5.256
28167W        W96585   5.742  25.028   1.451
28168W        W96586  29.566   2.921   4.318
28169W        W96587   0.281  40.463  11.555
28170W        W96588  33.040  33.093  13.413
28171W        W96589  41.020  24.042   2.221
28172W        W96590  13.788  17.162  13.450
28173W        W96591  19.651  39.977  14.332
28174W        W96592  23.006   4.217  11.566
28175W        W96593  11.137  16.597   4.825
28176W        W96594  30.624  35.372  12.968
28177W        W96595  26.060  10.270   3.251
28178W        W96596  18.143  37.040   2.228
28179W        W96597  27.000  27.040  13.383
28180W        W96598  14.335  10.860  10.913
28181W        W96599  44.004  40.347   4.298
28182W        W96600  17.602  17.291  12.059
28183W        W96601  23.567  19.040   1.220
28184W        W96602   2.883  42.286  12.056
28185W        W96603  23.224  40.802  10.050
28186W        W96604  26.150  17.185   2.194
28187W        W96605  25.599  39.059  13.827
28188W        W96606   1.446  34.522   2.253
28189W        W96607  14.718  30.998   1.355
28190W        W96608  20.606  13.241   1.798
28191W        W96609   5.926   8.784   1.762
28192W        W96610  23.070  13.624  14.373
28193W        W96611   6.409  33.489  10.894
28194W        W96612  21.553  11.627   1.363
28195W        W96613  20.174  44.816   0.916
28196W        W96614  19.678  25.603  14.986
28197W        W96615  13.653  37.893   0.795
28198W        W96616  23.080   0.281   1.224
28199W        W96617  16.263  39.011   1.758
28200W        W96618  23.583  16.318  12.551
28201W        W96619   7.224  32.573  11.483
28202W        W96620   5.837  10.813  12.443
28203W        W96621  21.230  34.497   2.230
28204W        W96622   2.926  23.150  12.576
28205W        W96623   2.374  40.362   1.280
28206W        W96624   7.390  43.865  10.481
28207W        W96625   0.283  20.702   1.333
28208W        W96626  29.540  24.200  11.083
28209W        W96627   7.190   2.325   2.312
28210W        W96628   1.297   2.349  14.863
28211W        W96629  23.578   0.410   3.169
28212W        W96630  28.160   9.817   0.918
28213W        W96631  25.136  35.576  11.034
28214W        W96632   5.238  29.130   3.184
28215W        W96633   9.332  32.040   4.707
28216W        W96634  23.672   4.276   3.319
28217W        W96635  17.160   8.382   4.612
28218W        W96636  36.448  17.575   4.115
28219W        W96637  43.975  13.346   2.312
28220W        W96638  34.614  37.346  10.011
28221W        W96639  39.469  25.628  14.017
28222W        W96640   3.751  34.120   1.439
28223W        W96641  16.262   0.412   2.885
28224W        W96642   8.844  23.522   1.218
28225W        W96643   2.342  31.508   2.207
28226W        W96644  37.931  23.986  13.809
28227W        W96645  31.450  41.364   0.425
28228W        W96646   6.690   5.343   0.403
28229W        W96647  20.627   8.673   4.130
28230W        W96648  43.499  44.469  11.576
28231W        W96649   5.198  27.521  13.397
28232W        W96650   3.304  26.572   1.316
28233W        W96651  22.539  27.586  13.437
28234W        W96652  32.995  12.700  10.953
28235W        W96653   4.778  12.231   0.261
28236W        W96654  28.540  28.459  11.040
28237W        W96655  36.411   4.843   5.221
28238W        W96656  11.846  27.475  11.587
28239W        W96657  34.573  10.139   3.286
28240W        W96658  44.492  37.505  10.538
28241W        W96659  36.372  44.777  11.492
28242W        W96660  38.061  25.213  14.841
28243W        W96661  17.081  39.413   4.632
28244W        W96662   6.882   6.332   3.233
28245W        W96663  32.972   9.294  14.326
28246W        W96664  36.882  10.268  12.865
28247W        W96665  31.074  34.485   0.363
28248W        W96666   5.717   2.394  11.453
28249W        W96667  43.372  17.139  12.843
28250W        W96668  16.796   4.796  11.540
28251W        W96669  38.567  40.416  13.436
28252W        W96670  20.647  24.042  12.083
28253W        W96671  19.583  33.383   5.276
28254W        W96672  24.202  28.018  14.869
28255W        W96673  35.910  36.947  12.467
28256W        W96674  32.458   0.285   0.816
28257W        W96675  20.566  27.685  12.981
28258W        W96676  23.104   8.397  10.906
28259W        W96677   7.712  37.434   4.329
28260W        W96678  21.540  38.989   2.896
28261W        W96679   5.249  36.012   0.740
28262W        W96680   4.858  41.992   1.932
28263W        W96681  41.885  36.948   0.437
28264W        W96682  38.547  16.230   4.825
28265W        W96683   8.169  41.810   2.340
28266W        W96684  34.893  19.577   4.256
28267W        W96685   5.914  40.438  12.384
28268W        W96686  39.883  14.668  14.516
28269W        W96687  24.102  26.092   3.685
28270W        W96688   1.362   6.873  14.947
28271W        W96689  18.719  42.979  10.076
28272W        W96690  29.919  30.956  14.996
28273W        W96691  27.627   5.802  13.937
28274W        W96692  16.791  30.008   0.876
28275W        W96693   5.367  10.332   4.681
28276W        W96694   6.419  23.687  13.442
28277W        W96695  42.026  20.046  14.966
28278W        W96696  35.933  11.200   1.394
28279W        W96697  39.329  36.882  12.017
28280W        W96698  12.194  16.106   2.409
28281W        W96699  36.860  29.944   0.397
28282W        W96700  44.995  25.969  11.090
28283W        W96701  41.336  21.639  12.942
28284W        W96702  37.534   0.458   4.129
28285W        W96703  37.913   4.862  14.006
28286W        W96704   8.691  17.614  11.527
28287W        W96705  10.186  36.872   1.928
28288W        W96706  34.433  11.152   4.297
28289W        W96707  27.542  15.676  11.104
28290W        W96708  23.199   0.281  10.918
28291W        W96709   1.389  41.919   1.406
28292W        W96710  39.366  17.305   3.222
28293W        W96711  19.561  11.678  12.917
28294W        W96712  18.138  16.768  12.089
28295W        W96713  19.734  12.144  11.377
28296W        W96714  42.988  37.934  13.905
28297W        W96715  27.664  20.037   4.218
28298W        W96716  24.690  21.212   0.275
28299W        W96717  22.071  11.813   3.853
28300W        W96718  32.000   1.280   3.370
28301W        W96719  15.274  22.593  14.991
28302W        W96720  12.353  17.594   0.422
28303W        W96721   3.332  36.579   1.821
28304W        W96722   3.878  29.152  12.839
28305W        W96723  41.006  15.670  12.354
28306W        W96724  15.253  37.888   1.732
28307W        W96725  30.463  30.516   3.649
28308W        W96726  23.115  20.089  13.831
28309W        W96727  25.597  25.086   4.802
28310W        W96728  13.613  40.828   3.202
28311W        W96729   1.818  41.970   3.337
28312W        W96730   0.872  32.437  10.643
28313W        W96731  14.181  15.665  12.491
28314W        W96732  32.579  24.154   3.868
28315W        W96733  15.754  30.499  11.963
28316W        W96734  22.071  35.561  11.090
28317W        W96735  29.626  20.662   3.181
28318W        W96736  33.115   5.910  12.495
28319W        W96737  31.027  23.202  13.344
28320W        W96738  39.394  10.855  10.558
28321W        W96739   5.373   6.724   1.421
28322W        W96740  39.065  16.233   0.423
28323W        W96741  21.083  42.016   3.281
28324W        W96742  11.860  10.783   2.281
28325W        W96743  10.377  15.711   1.324
28326W        W96744  28.101  15.246  13.937
28327W        W96745   3.422   2.278  14.816
28328W        W96746  22.012  37.546   2.730
28329W        W96747   0.787  35.872  12.867
28330W        W96748  10.816  12.621   4.810
28331W        W96749  34.950  23.580  13.414
28332W        W96750   0.815  15.096  10.620
28333W        W96751  34.073  32.965   2.692
28334W        W96752  43.774  23.998   4.192
28335W        W96753  25.629  29.580  11.436
28336W        W96754  12.119  38.328   1.897
28337W        W96755  20.207   3.899  11.880
28338W        W96756  24.685  14.201  11.554
28339W        W96757  25.030  19.247   3.355
28340W        W96758   8.185   2.252  14.006
28341W        W96759  19.718  11.215  13.811
28342W        W96760  41.370  35.591  14.784
28343W        W96761  29.468  31.912  13.882
28344W        W96762   4.824  23.555  13.339
28345W        W96763  11.748  30.981   4.201
28346W        W96764  10.779   3.453   0.826
28347W        W96765  30.149  15.191  11.386
28348W        W96766  27.940  39.061   1.867
28349W        W96767  25.042  42.892  13.044
28350W        W96768  25.199  10.747  10.484
28351W        W96769  43.397  24.161   5.131
28352W        W96770  29.972   1.328  14.301
28353W        W96771  43.458   8.275   0.753
28354W        W96772   8.270  14.753  11.974
28355W        W96773   6.774  12.361   2.864
28356W        W96774  26.600  34.038  13.492
28357W        W96775  38.982   7.866  13.392
28358W        W96776  25.690   9.699   2.197
28359W        W96777  42.289   3.447  12.573
28360W        W96778  37.871  15.170   2.266
28361W        W96779  39.891  31.569  14.803
28362W        W96780   8.304  34.875  13.002
28363W        W96781  21.595  23.661  11.388
28364W        W96782  33.123  15.628  10.981
28365W        W96783   4.714  40.851   0.881
28366W        W96784  40.487  20.101   2.210
28367W        W96785  14.732  15.093   0.956
28368W        W96786  41.434  24.539  12.047
28369W        W96787  17.236  13.122  13.981
28370W        W96788  34.427  44.317   1.423
28371W        W96789   4.791  38.450  11.598
28372W        W96790  38.509  37.394  14.849
28373W        W96791  35.911   3.404   1.765
28374W        W96792  23.588  35.961  13.546
28375W        W96793   4.738  32.992   1.710
28376W        W96794  15.798  23.490   3.343
28377W        W96795   5.712  39.355   4.672
28378W        W96796  14.772   1.826  11.496
28379W        W96797  19.772  17.229   3.197
28380W        W96798   2.908  19.566  10.613
28381W        W96799  41.960   5.850  10.431
28382W        W96800   6.898  32.416   1.933
28383W        W96801  29.126  23.555   3.287
28384W        W96802  44.491   3.891  12.078
28385W        W96803  22.543  38.485  12.061
28386W        W96804   1.739   1.967   3.294
28387W        W96805  12.670  26.476  11.577
28388W        W96806   4.802   6.240   4.805
28389W        W96807  28.070  38.846   0.260
28390W        W96808   3.355  21.225   0.873
28391W        W96809  32.914   5.401   4.301
28392W        W96810  14.125  14.207  11.574
28393W        W96811  40.498  32.095   3.715
28394W        W96812  12.324  34.401   1.884
28395W        W96813  36.347  44.326  14.767
28396W        W96814  23.554  23.175  10.484
28397W        W96815  36.030  18.634  10.976
28398W        W96816  44.352  16.618   1.865
28399W        W96817  35.941  41.028   3.169
28400W        W96818  32.500   0.269  13.796
28401W        W96819  44.335  13.720  12.420
28402W        W96820  36.986  40.465  11.995
28403W        W96821   3.816  40.416  12.373
28404W        W96822  23.043   0.816   4.283
28405W        W96823  27.059   5.199  14.867
28406W        W96824   5.215  17.668   0.727
28407W        W96825  42.342  28.681   1.279
28408W        W96826  25.523   6.276   0.354
28409W        W96827  32.039  27.073   0.787
28410W        W96828  17.173  31.979  11.070
28411W        W96829  23.714  30.452   3.726
28412W        W96830  38.027   4.445   0.351
28413W        W96831  23.239   1.356   1.250
28414W        W96832  10.193  43.959   0.464
28415W        W96833  37.581  33.596  14.893
28416W        W96834  18.586  24.218   2.892
28417W        W96835   3.348  32.562   0.456
28418W        W96836   3.251  25.085   3.381
28419W        W96837   0.478   8.393   3.363
28420W        W96838  41.511  32.138  11.986
28421W        W96839   7.293  34.922   0.285
28422W        W96840   9.289  17.754   4.739
28423W        W96841  32.058  31.044  13.934
28424W        W96842  30.000  43.820   2.684
28425W        W96843  20.243  25.006  10.601
28426W        W96844  38.951   1.325  12.870
28427W        W96845   2.461   3.261  10.927
28428W        W96846  39.406   6.340   0.470
28429W        W96847  22.061  19.264  11.921
28430W        W96848  20.044  16.601   4.667
28431W        W96849   4.719  31.918  12.998
28432W        W96850   9.156  15.734   1.773
28433W        W96851  13.622   8.301  10.491
28434W        W96852  41.808   8.388   2.707
28435W        W96853  11.622   9.778  11.952
28436W        W96854  27.073   1.455   1.927
28437W        W96855  43.289  21.082   0.245
28438W        W96856   2.231  35.963  14.925
28439W        W96857   3.342  40.931   3.785
28440W        W96858  15.662  25.617  12.456
28441W        W96859  38.848  12.714  12.578
28442W        W96860  26.099  21.530   3.682
28443W        W96861  30.996   4.292   2.295
28444W        W96862  37.840   9.392   2.251
28445W        W96863   4.213  15.324   2.760
28446W        W96864  44.427  10.185   4.780
28447W        W96865  17.227   2.954  10.938
28448W        W96866  27.691  30.981  13.832
28449W        W96867  44.398  37.921  10.576
28450W        W96868  16.790  13.795  11.612
28451W        W96869   3.460   8.277   0.360
28452W        W96870  23.151  17.767   2.379
28453W        W96871  27.188  31.985   4.650
28454W        W96872  23.643  11.856  12.885
28455W        W96873   6.367  38.466   3.281
28456W        W96874  13.148  15.632   5.247
28457W        W96875  12.299  26.458   3.783
28458W        W96876  32.976  36.459   1.233
28459W        W96877   3.934  25.479   2.682
28460W        W96878   3.438  27.003   2.874
28461W        W96879   9.715  11.652  13.864
28462W        W96880  15.671  19.727  11.040
28463W        W96881  26.617  39.927  10.066
28464W        W96882  20.041  22.681  10.068
28465W        W96883  14.766   0.335   3.801
28466W        W96884   4.741  31.455   3.293
28467W        W96885  19.233   4.849   3.870
28468W        W96886  12.723   7.760   2.826
28469W        W96887   8.809   5.426  13.901
28470W        W96888  35.537   0.409   2.284
28471W        W96889   3.234  29.588   2.757
28472W        W96890  39.549  25.171   1.244
28473W        W96891  22.648  19.070   0.850
28474W        W96892  44.919  25.011  14.981
28475W        W96893  19.079  40.025  11.022
28476W        W96894  10.224  42.787  12.934
28477W        W96895  22.026  13.603   4.725
28478W        W96896   6.307   1.296  12.907
28479W        W96897  11.173  15.222  12.015
28480W        W96898  43.332  24.085   2.778
28481W        W96899  14.631  22.231  12.061
28482W        W96900  25.033  15.710  14.449
28483W        W96901  42.505  16.092  10.436
28484W        W96902  40.036  16.128   0.291
28485W        W96903  43.287  38.984   4.236
28486W        W96904  44.486  22.727   5.219
28487W        W96905  36.507   8.255  14.970
28488W        W96906  28.611  21.604   0.367
28489W        W96907  14.807  14.606  11.126
28490W        W96908  29.600  25.684  12.495
28491W        W96909  34.966   5.278   4.272
28492W        W96910  33.548   4.878  14.448
28493W        W96911  20.689  18.719  12.061
28494W        W96912   0.314   3.930   4.776
28495W        W96913  16.651   7.350   1.875
28496W        W96914  12.773  24.491  14.360
28497W        W96915  40.908   4.846  14.428
28498W        W96916  14.666  10.207   1.248
28499W        W96917  11.710  14.614  11.124
28500W        W96918   0.976   9.726  12.504
28501W        W96919  41.297  15.724  13.332
28502W        W96920  20.750  40.351   0.319
28503W        W96921  22.525  32.002   1.426
28504W        W96922  20.524  26.182  13.522
28505W        W96923  15.593  37.988   4.709
28506W        W96924  13.766  17.636   1.915
28507W        W96925   3.748  27.493  13.344
28508W        W96926   4.449  43.878  11.974
28509W        W96927  38.046  32.396  10.593
28510W        W96928  43.782  30.912  11.124
28511W        W96929  33.991  41.883   2.238
28512W        W96930   5.824  10.259   3.846
28513W        W96931  38.563  39.328  13.448
28514W        W96932  11.781  33.477  12.375
28515W        W96933   7.708   6.869  13.492
28516W        W96934  24.519   2.810  13.818
28517W        W96935  34.034  43.812  11.517
28518W        W96936  21.741  34.460  13.894
28519W        W96937   1.853  36.978  13.967
28520W        W96938  15.733  41.340   2.732
28521W        W96939  16.716  32.936  12.936
28522W        W96940   0.460  25.636   4.794
28523W        W96941  32.109  15.301   2.321
28524W        W96942   3.757  10.844  12.468
28525W        W96943  42.493   9.785  13.311
28526W        W96944  34.075  38.034   9.568
28527W        W96945  11.128   7.236  13.854
28528W        W96946   1.903  38.396   4.248
28529W        W96947  23.514  32.589   3.677
28530W        W96948  30.607   9.152  11.079
28531W        W96949   3.345  42.296   0.330
28532W        W96950  29.633  22.657   0.912
28533W        W96951  29.996  13.687  11.548
28534W        W96952  30.009  19.229   4.347
28535W        W96953  22.171  24.494  11.082
28536W        W96954  17.753  19.748  10.545
28537W        W96955  31.534   2.758  13.519
28538W        W96956  28.063   9.256   5.656
28539W        W96957  34.119   8.756   2.824
28540W        W96958  43.783  25.139  11.424
28541W        W96959  30.984  23.706   4.228
28542W        W96960  16.213   1.452  12.061
28543W        W96961  11.153  20.711   3.259
28544W        W96962  27.154   1.816  13.864
28545W        W96963  20.560   9.749  11.534
28546W        W96964   9.745  19.057  13.340
28547W        W96965  42.968  15.745   3.354
28548W        W96966  31.033   3.916  11.978
28549W        W96967  12.844  19.642   3.704
28550W        W96968  44.267  16.712  12.351
28551W        W96969  26.951  42.351   2.880
28552W        W96970   0.382  13.668   1.430
28553W        W96971  19.719   7.217  10.976
28554W        W96972  28.474   4.372   4.229
28555W        W96973  43.842  11.754   0.904
28556W        W96974  35.052  29.108  12.515
28557W        W96975  16.239  41.865   1.733
28558W        W96976  43.483  36.364  13.902
28559W        W96977  38.353   3.769   1.904
28560W        W96978  43.968  17.616  10.967
28561W        W96979  41.917  10.222  13.882
28562W        W96980  27.099  17.244   2.256
28563W        W96981  26.957  43.941   4.190
28564W        W96982  33.898  23.632  10.580
28565W        W96983  26.131  33.051   4.716
28566W        W96984  18.563  27.042  12.047
28567W        W96985  41.898  21.615  14.897
28568W        W96986   0.344  33.122  10.641
28569W        W96987   0.813  30.007   1.699
28570W        W96988   8.866  21.515   1.898
28571W        W96989   1.777  39.449   4.699
28572W        W96990  23.734  13.281  12.462
28573W        W96991  22.146  40.985  10.515
28574W        W96992  11.254  15.746  11.508
28575W        W96993  42.796  28.165   0.915
28576W        W96994  40.984  43.338  12.439
28577W        W96995  16.165   6.421  11.378
28578W        W96996  29.076   1.391  13.944
28579W        W96997  27.039  16.737   2.738
28580W        W96998  36.431  40.530  12.882
28581W        W96999  21.028  32.959   2.312
28582W        W97000  42.408  14.710   2.252
28583W        W97001  19.128  26.185  10.075
28584W        W97002  16.229  42.996  13.350
28585W        W97003  19.064  12.272   5.682
28586W        W97004  10.361  29.626   4.736
28587W        W97005   5.708  30.418  14.365
28588W        W97006  35.977   5.300   2.265
28589W        W97007  32.401  39.481  13.829
28590W        W97008   1.831  39.328  14.884
28591W        W97009  32.920  29.540  14.424
28592W        W97010  14.279  39.456  14.447
28593W        W97011  10.788  30.428   1.360
28594W        W97012   9.729  30.552  13.053
28595W        W97013  37.408  21.640  12.995
28596W        W97014  38.037   6.725  14.498
28597W        W97015  20.075  43.771  14.942
28598W        W97016  14.278  34.985   0.278
28599W        W97017   8.283  10.837   2.899
28600W        W97018  42.846   7.284  10.553
28601W        W97019   5.787  30.918   0.855
28602W        W97020  26.636  27.616  12.489
28603W        W97021  37.862  42.404  10.422
28604W        W97022  24.138   8.849  13.521
28605W        W97023  28.098   9.333  11.517
28606W        W97024   9.864  13.727  13.010
28607W        W97025   7.313  33.489  12.485
28608W        W97026  23.998  30.958  14.022
28609W        W97027   9.747  18.140   2.712
28610W        W97028  22.108  23.616  12.986
28611W        W97029  39.529  23.606   2.351
28612W        W97030   0.971  32.941   0.851
28613W        W97031  24.034  18.579  13.890
28614W        W97032  39.861  33.107  10.932
28615W        W97033  22.181  20.031  10.957
28616W        W97034  11.636  25.019  11.046
28617W        W97035  44.370  40.893   9.985
28618W        W97036  25.069  42.840  12.063
28619W        W97037  40.450  33.923  12.478
28620W        W97038  18.777  23.150  12.498
28621W        W97039  40.028  40.304   1.239
28622W        W97040  20.601  28.139  10.441
28623W        W97041   0.866   6.398  11.488
28624W        W97042   8.700  28.662   2.361
28625W        W97043  24.673  12.181  14.394
28626W        W97044  14.746  33.523  13.933
28627W        W97045  34.508   9.324  14.846
28628W        W97046  18.254  21.748   4.706
28629W        W97047  41.930  18.768   0.402
28630W        W97048  43.975   2.387  12.851
28631W        W97049  16.203  35.552  14.950
28632W        W97050  40.950  16.267   1.809
28633W        W97051   9.738   4.782   0.823
28634W        W97052  38.975  28.988  13.431
28635W        W97053  31.108   7.269   3.731
28636W        W97054  44.930   9.816   1.933
28637W        W97055  13.237  22.043  13.400
28638W        W97056  28.639   4.718   3.367
28639W        W97057   9.876  27.177  12.477
28640W        W97058  29.991  42.834  13.819
28641W        W97059  33.117  29.164   0.253
28642W        W97060  42.336   0.854   3.258
28643W        W97061  34.570  44.939  12.473
28644W        W97062   9.692   3.723   1.804
28645W        W97063  27.452   5.362  13.451
28646W        W97064  24.049  15.659   1.272
28647W        W97065  38.570  31.927   3.244
28648W        W97066  19.208  38.836   4.688
28649W        W97067  24.509   3.449   1.308
28650W        W97068  31.924  12.120  12.903
28651W        W97069  34.914   5.259   2.862
28652W        W97070  42.836  37.088  12.362
28653W        W97071   9.310  17.586   3.326
28654W        W97072  18.096  21.545  12.010
28655W        W97073   7.250   6.411   0.836
28656W        W97074  19.217  38.889   0.305
28657W        W97075  39.522  22.082   2.759
28658W        W97076  19.175  28.035  11.059
28659W        W97077  24.558  29.094  11.043
28660W        W97078  39.324  32.885  11.929
28661W        W97079  24.565  19.684   1.326
28662W        W97080   3.732  37.031   0.249
28663W        W97081  24.222  17.084  14.823
28664W        W97082   5.338  24.582   3.661
28665W        W97083  28.461  21.538   2.218
28666W        W97084   8.666   2.854   1.794
28667W        W97085  30.916  12.850  11.907
28668W        W97086   5.930  28.160   0.859
28669W        W97087  39.865  29.956  14.992
28670W        W97088  12.203  18.644   2.339
28671W        W97089   0.979  35.457  13.988
28672W        W97090  26.989   2.872   1.793
28673W        W97091  11.324  12.704  10.550
28674W        W97092  12.664  40.449   2.743
28675W        W97093   4.218  31.446  12.371
28676W        W97094   6.229  44.938  13.019
28677W        W97095   5.358  41.029   0.410
28678W        W97096  11.856  20.585   1.874
28679W        W97097  26.654   6.308  13.547
28680W        W97098  42.352  24.020   5.124
28681W        W97099  11.245  35.502  10.536
28682W        W97100   7.256  30.154   0.887
28683W        W97101  22.530  21.076   3.668
28684W        W97102  43.970  38.035  13.309
28685W        W97103  37.552  32.928   3.767
28686W        W97104  12.624  24.714  14.939
28687W        W97105   1.838  11.801  10.541
28688W        W97106  41.464   8.882   4.133
28689W        W97107  44.477   0.875   0.799
28690W        W97108  14.603   6.723  12.547
28691W        W97109  22.159  37.498   4.281
28692W        W97110  20.101   5.881   2.695
28693W        W97111  36.454  29.584   1.414
28694W        W97112   2.821   2.453   3.374
28695W        W97113  44.909  23.610   2.858
28696W        W97114  37.891  28.003   2.349
28697W        W97115  23.557   8.302  12.355
28698W        W97116  25.670  25.551  10.628
28699W        W97117   3.367  20.577  10.419
28700W        W97118  13.752  25.048  13.893
28701W        W97119  13.712  35.912   0.453
28702W        W97120  29.452  37.029   2.267
28703W        W97121  11.165  18.181  10.415
28704W        W97122  23.029  26.633  14.018
28705W        W97123  25.656  27.643  14.473
28706W        W97124  31.417   2.407   3.646
28707W        W97125  23.695   8.900  10.502
28708W        W97126  34.941   6.893   1.862
28709W        W97127  28.970   0.788   3.824
28710W        W97128  16.780  40.983   3.150
28711W        W97129   1.240   4.908  12.369
28712W        W97130  24.540   1.290  14.957
28713W        W97131   4.250  25.685  10.950
28714W        W97132  10.328  43.958  13.471
28715W        W97133  25.585  40.017  14.865
28716W        W97134  16.270  15.179   4.696
28717W        W97135  29.115  21.745   1.786
28718W        W97136  22.642  28.495   0.249
28719W        W97137  17.209   9.681   1.427
28720W        W97138  43.999  33.400   2.301
28721W        W97139   2.269  34.961   1.357
28722W        W97140  26.051  15.811  14.900
28723W        W97141   5.757  34.972   0.351
28724W        W97142  21.151  15.103   2.695
28725W        W97143  24.008  28.536  11.081
28726W        W97144  11.288  34.066  12.361
28727W        W97145  17.131  19.256  10.554
28728W        W97146   8.755  19.095  11.435
28729W        W97147  30.105  11.764  11.385
28730W        W97148  38.059  12.682   3.201
28731W        W97149  26.558  21.163  12.901
28732W        W97150  24.130  44.994   0.421
28733W        W97151  41.396  25.112  13.831
28734W        W97152  36.921  18.624   1.308
28735W        W97153  43.911  43.967   2.392
28736W        W97154  22.589  43.851   0.484
28737W        W97155   8.873  13.161  13.021
28738W        W97156  25.682   4.761   4.198
28739W        W97157  12.144   3.298   0.281
28740W        W97158   6.377  14.674  13.958
28741W        W97159  41.807  16.682   4.290
28742W        W97160  42.320   3.388   2.884
28743W        W97161  37.555  34.986   3.649
28744W        W97162   9.875  34.081   2.775
28745W        W97163  12.704  20.138   2.314
28746W        W97164  27.609  34.458   1.219
28747W        W97165  26.118  13.821  11.002
28748W        W97166  20.165  28.520   0.347
28749W        W97167  43.285   1.762  12.921
28750W        W97168  39.535  44.845  14.355
28751W        W97169  16.655  15.326  14.982
28752W        W97170  19.613  34.566  14.892
28753W        W97171   9.157   2.466  10.482
28754W        W97172  12.841  20.724  14.931
28755W        W97173  36.015  38.998  15.000
28756W        W97174  23.570  21.651  12.512
28757W        W97175  30.427  38.978   4.599
28758W        W97176   1.454  23.661  11.918
28759W        W97177  30.638  44.358   3.728
28760W        W97178  11.685  28.448  14.384
28761W        W97179  27.598  23.561   4.122
28762W        W97180   4.742  36.559   3.158
28763W        W97181  14.589  16.110  13.962
28764W        W97182  33.898  14.720  13.926
28765W        W97183  26.140  15.794  13.535
28766W        W97184  31.548  33.589  13.345
28767W        W97185  34.912  20.764   1.866
28768W        W97186  33.103  43.443   0.338
28769W        W97187   0.862  35.523  10.491
28770W        W97188  36.379  19.147   0.769
28771W        W97189  34.881  29.014   0.417
28772W        W97190  27.639   0.960  11.907
28773W        W97191  20.047  19.130   0.729
28774W        W97192  11.285  12.834   0.760
28775W        W97193  10.869   9.348   1.240
28776W        W97194   8.794   9.177   3.848
28777W        W97195   3.795   7.837  14.274
28778W        W97196  23.174  21.564  13.844
28779W        W97197   8.318  35.391  11.013
28780W        W97198  25.489  39.426   0.747
28781W        W97199  13.298   6.313   3.254
28782W        W97200   4.324  32.430  14.007
28783W        W97201  41.362  21.568   2.342
28784W        W97202  12.790  19.632  14.954
28785W        W97203  27.959  16.226  10.510
28786W        W97204  30.054  32.098  12.367
28787W        W97205  20.181  35.963   0.833
28788W        W97206  24.628  12.224  13.422
28789W        W97207  23.730  10.218   4.661
28790W        W97208  19.768  44.346   4.671
28791W        W97209  19.238  22.133   0.806
28792W        W97210  37.047   5.863   0.782
28793W        W97211   4.289  28.522   1.353
28794W        W97212  36.388   8.826   3.299
28795W        W97213   3.316   2.273  11.414
28796W        W97214   7.238   3.952   2.216
28797W        W97215  13.792   8.785  13.893
28798W        W97216  41.858  34.998  11.612
28799W        W97217  12.217  41.497  13.337
28800W        W97218  11.844  35.419  13.010
28801W        W97219  12.213   5.787   1.888
28802W        W97220  13.187   4.262  13.447
28803W        W97221   0.248  23.129   3.322
28804W        W97222   5.425  34.866  12.037
28805W        W97223  16.157   0.820   2.792
28806W        W97224  31.023  38.904  14.882
28807W        W97225  15.597  10.303   3.646
28808W        W97226  38.013   4.874   0.313
28809W        W97227  40.317  32.071  11.566
28810W        W97228  21.566  31.462   4.323
28811W        W97229  39.985   8.676  11.519
28812W        W97230  25.558  24.565   0.822
28813W        W97231  36.874  38.546  11.566
28814W        W97232  28.054  35.072   1.864
28815W        W97233  26.666  26.591  11.929
28816W        W97234   2.261   2.448  11.109
28817W        W97235  36.476  15.329  14.848
28818W        W97236   5.350  26.081   1.810
28819W        W97237  44.802   5.331   1.919
28820W        W97238  11.853  13.701   3.248
28821W        W97239  13.723  31.938   3.181
28822W        W97240   9.718  35.563  11.988
28823W        W97241   5.863  40.448  11.446
28824W        W97242  43.839  27.541   3.672
28825W        W97243  42.018  37.895  11.868
28826W        W97244  44.380  30.541   1.898
28827W        W97245  40.336  28.020  11.940
28828W        W97246  44.263   9.796  12.552
28829W        W97247   1.862  37.894   0.791
28830W        W97248   9.304  10.275  11.434
28831W        W97249  44.934  16.149  13.997
28832W        W97250  38.373  18.629   0.766
28833W        W97251  10.334  14.620  14.832
28834W        W97252  34.951  10.712   3.241
28835W        W97253  15.803  10.257  11.878
28836W        W97254   4.262  17.211   3.219
28837W        W97255   8.668  42.422   4.312
28838W        W97256  11.808   0.446   1.819
28839W        W97257  33.069  20.064   3.750
28840W        W97258   2.762  38.069   0.376
28841W        W97259   7.338  20.121  10.940
28842W        W97260  15.651  30.485   1.721
28843W        W97261  33.444  43.499   3.316
28844W        W97262   2.370  29.633  11.877
28845W        W97263   5.829  42.815  14.401
28846W        W97264  42.460  16.783   0.355
28847W        W97265  17.680  10.702   2.764
28848W        W97266   7.785  33.019   2.208
28849W        W97267  38.992  44.315  11.020
28850W        W97268  34.966  38.951  14.861
28851W        W97269  10.290  19.557  11.030
28852W        W97270  38.021  32.533  14.317
28853W        W97271  19.214  44.903   2.233
28854W        W97272   6.772  20.204   1.906
28855W        W97273   5.709  31.520  13.548
28856W        W97274  14.698  27.981  12.580
28857W        W97275   2.286  20.163   3.820
28858W        W97276   9.154  19.162   2.778
28859W        W97277  42.977  16.577   0.266
28860W        W97278  14.172  33.970  14.364
28861W        W97279   3.944  38.476  10.491
28862W        W97280  36.491  42.360   4.826
28863W        W97281  32.567  23.706  13.936
28864W        W97282   3.776  27.506  14.290
28865W        W97283  14.317   2.949   0.844
28866W        W97284   9.193  17.743  14.841
28867W        W97285  28.618  10.669  11.021
28868W        W97286  14.735  14.267   0.292
28869W        W97287  17.102  30.959   1.301
28870W        W97288  19.562   8.899   2.294
28871W        W97289  27.522  11.317  14.473
28872W        W97290  32.126  16.695  13.330
28873W        W97291  23.648  20.586   3.262
28874W        W97292  15.612  19.537  11.484
28875W        W97293  34.036   6.375   4.334
28876W        W97294  33.498   8.187  12.507
28877W        W97295   0.953  32.892   4.688
28878W        W97296  42.422  38.382  12.353
28879W        W97297  19.564   2.289  13.461
28880W        W97298  43.358  44.489  12.494
28881W        W97299  19.766  34.112   3.371
28882W        W97300  20.269  21.122  12.460
28883W        W97301  44.965  26.951   3.706
28884W        W97302  15.309  25.697  14.409
28885W        W97303  21.657  42.478  13.364
28886W        W97304  34.605  13.253   1.301
28887W        W97305  15.311  21.680   2.665
28888W        W97306  43.871  24.724  11.528
28889W        W97307  18.091  29.524  12.859
28890W        W97308  21.636  32.399  13.023
28891W        W97309  44.428  44.827  10.981
28892W        W97310  19.537  43.325  11.596
28893W        W97311  12.322  15.310  13.876
28894W        W97312  40.356  35.016  13.830
28895W        W97313  32.522   2.314   1.229
28896W        W97314  43.298  32.997   0.901
28897W        W97315  39.855  13.162   0.364
28898W        W97316  30.980  40.483   0.914
28899W        W97317  34.483  21.234   2.881
28900W        W97318  21.593  29.653   4.625
28901W        W97319  29.650  11.172   4.735
28902W        W97320   5.406  17.679  14.354
28903W        W97321  14.316   0.834  12.090
28904W        W97322  30.113   0.445  11.605
28905W        W97323   9.216  31.481  12.934
28906W        W97324  34.882   1.435   1.742
28907W        W97325  34.940   8.759   3.157
28908W        W97326   0.481  34.499  13.340
28909W        W97327  22.699  22.711   1.424
28910W        W97328  26.107   5.780   1.241
28911W        W97329  13.732  12.839  14.335
28912W        W97330  23.541  26.464   0.939
28913W        W97331  32.483   8.722   4.188
28914W        W97332  31.580  39.911   0.746
28915W        W97333  29.430   0.869   3.709
28916W        W97334   8.356   3.302  10.634
28917W        W97335  30.500  27.177   2.224
28918W        W97336   1.475  36.389  13.947
28919W        W97337  18.226   3.941   1.239
28920W        W97338   6.905  35.853   1.377
28921W        W97339  25.121  14.766   4.161
28922W        W97340  28.664  32.421  12.049
28923W        W97341   4.250   4.928   0.480
28924W        W97342   5.396  20.124  13.997
28925W        W97343  23.230  23.215   4.152
28926W        W97344  17.670   7.891  12.077
28927W        W97345  12.672  19.564  13.310
28928W        W97346  39.833   7.899  12.095
28929W        W97347  43.281  44.992   0.351
28930W        W97348  25.206  28.510   1.237
28931W        W97349  23.699   6.372   3.255
28932W        W97350  27.461  40.307   1.854
28933W        W97351  43.402  10.842   4.818
28934W        W97352  31.964  21.748  12.354
28935W        W97353  17.638  38.977   2.346
28936W        W97354   6.223  37.896  13.009
28937W        W97355  34.368  24.150   4.172
28938W        W97356  32.084  29.539  14.778
28939W        W97357  41.846  10.186   4.718
28940W        W97358   6.237  44.360   3.649
28941W        W97359   1.881  12.247  11.920
28942W        W97360  31.003  18.616   3.305
28943W        W97361   8.192  11.641  11.077
28944W        W97362  10.860  12.715   4.253
28945W        W97363  30.144  39.051   4.245
28946W        W97364   4.735  39.543   3.691
28947W        W97365  29.930   9.669  11.495
28948W        W97366   8.339  27.011  14.973
28949W        W97367  42.307  25.543  14.336
28950W        W97368  34.938  10.855   4.618
28951W        W97369  24.675   9.659   0.463
28952W        W97370  26.131  27.671   4.624
28953W        W97371  18.773  11.212   0.856
28954W        W97372  25.695  14.790  12.049
28955W        W97373  25.501  38.398  10.422
28956W        W97374  12.758  42.813  11.535
28957W        W97375  43.767  29.535  13.887
28958W        W97376  23.592  41.438  13.919
28959W        W97377  44.376   3.886  13.921
28960W        W97378  23.116   9.319  11.371
28961W        W97379   9.222  26.456  10.583
28962W        W97380  17.716  19.188   0.274
28963W        W97381  21.553  32.084  12.442
28964W        W97382  23.080  36.409   2.230
28965W        W97383  33.476  26.165  12.922
28966W        W97384   3.778  44.794   2.199
28967W        W97385   2.303  43.463  12.978
28968W        W97386  26.125  25.498  13.438
28969W        W97387  17.062  32.985  14.463
28970W        W97388  29.080  19.713   1.794
28971W        W97389  29.968  26.542  14.448
28972W        W97390  27.019   6.336  11.967
28973W        W97391  44.894  36.454  13.826
28974W        W97392  39.448  19.562  10.495
28975W        W97393  39.907  36.028  12.378
28976W        W97394  18.263  19.145  14.024
28977W        W97395  43.904   3.330  14.893
28978W        W97396   5.288   3.803   4.325
28979W        W97397  16.647  35.104  11.995
28980W        W97398  14.270  12.252   4.115
28981W        W97399   9.800  39.843  13.883
28982W        W97400  34.539  29.491   4.238
28983W        W97401  15.708  43.396  13.394
28984W        W97402  19.682  30.472   3.153
28985W        W97403   6.824  34.114  12.400
28986W        W97404   0.908   3.766  12.547
28987W        W97405   7.723  44.280   4.722
28988W        W97406  18.147   3.868  12.042
28989W        W97407  29.576   2.422  13.011
28990W        W97408   9.175  34.068   1.921
28991W        W97409   3.925  23.039   2.200
28992W        W97410  16.812  40.535   3.714
28993W        W97411  36.456  10.829   1.910
28994W        W97412  28.177  18.686   3.256
28995W        W97413  29.078  30.984   2.253
28996W        W97414   5.365  31.939  12.897
28997W        W97415  38.468  27.595   2.216
28998W        W97416  14.665  10.378  10.509
28999W        W97417  41.987   4.723   0.482
29000W        W97418  37.532   2.346   0.246
29001W        W97419  32.627   8.281  14.439
29002W        W97420  19.076   8.298   2.362
29003W        W97421  11.774  38.371   2.319
29004W        W97422  41.910  43.919  12.363
29005W        W97423  13.115  26.570   0.458
29006W        W97424  29.590   0.988  13.347
29007W        W97425  33.474  24.492  10.994
29008W        W97426  29.575  27.954  10.099
29009W        W97427  33.538   4.427   4.129
29010W        W97428  26.005  15.282  11.126
29011W        W97429  31.916  40.490   1.438
29012W        W97430  21.117  21.594  10.535
29013W        W97431   1.437  17.088   4.723
29014W        W97432   3.822  18.603   0.857
29015W        W97433  19.691  26.592  14.974
29016W        W97434  31.596  30.919   1.740
29017W        W97435  38.989  14.701   2.394
29018W        W97436   1.457  35.366  13.910
29019W        W97437  12.623  34.981  12.917
29020W        W97438   5.256   9.746   4.824
29021W        W97439  20.543  11.232  14.418
29022W        W97440  27.149  31.110  13.412
29023W        W97441  24.046  33.449   0.901
29024W        W97442  40.350  20.640  12.907
29025W        W97443   8.310  21.724  12.488
29026W        W97444   0.457   7.794  14.442
29027W        W97445  38.432  30.049  14.770
29028W        W97446   0.907  44.922  13.014
29029W        W97447  44.323  44.979   1.832
29030W        W97448  28.630  12.622  13.971
29031W        W97449  16.124   3.890  14.895
29032W        W97450  37.890  19.161   4.643
29033W        W97451  14.609  39.022  12.899
29034W        W97452  11.699  27.148  11.610
29035W        W97453  29.127  32.497   2.680
29036W        W97454  27.461  23.044  14.849
29037W        W97455  19.711  11.726  14.319
29038W        W97456  39.490  13.838   4.275
29039W        W97457  10.814  24.086  12.044
29040W        W97458  27.173  28.523  13.511
29041W        W97459  26.174  38.830   4.655
29042W        W97460   2.253  42.507  11.599
29043W        W97461  44.934   2.889   2.817
29044W        W97462  29.628   9.824   5.258
29045W        W97463   9.238  18.052  13.050
29046W        W97464   1.736   8.761  11.442
29047W        W97465   1.245   3.867  13.891
29048W        W97466  43.405  13.334   4.802
29049W        W97467  10.737  41.407   1.368
29050W        W97468  39.930  10.705   3.781
29051W        W97469  33.422  37.034   5.211
29052W        W97470  29.499  29.589   0.272
29053W        W97471   1.397   0.422  14.400
29054W        W97472   6.268   5.244  10.567
29055W        W97473  12.197  29.445  13.309
29056W        W97474  16.728  38.490  13.908
29057W        W97475  24.576   2.313   3.764
29058W        W97476  14.156  16.124   4.838
29059W        W97477  25.472  14.159   1.317
29060W        W97478  38.018  28.096  12.391
29061W        W97479  18.619  38.519  11.434
29062W        W97480   4.730  19.197  10.481
29063W        W97481  38.386  28.604  12.998
29064W        W97482   5.912  21.722  14.370
29065W        W97483  31.915   8.897   3.162
29066W        W97484  22.580  24.056  14.005
29067W        W97485  44.807  41.023  11.024
29068W        W97486  43.002  30.432  12.432
29069W        W97487  10.228  44.425   3.252
29070W        W97488  16.685   4.234   4.625
29071W        W97489  38.483  17.062  12.578
29072W        W97490  40.865   5.216  14.772
29073W        W97491  25.641  13.242   4.121
29074W        W97492  37.501  22.618   3.272
29075W        W97493  38.552  37.496  12.351
29076W        W97494  12.302  23.130   0.771
29077W        W97495   3.826  16.121   1.290
29078W        W97496  28.989  12.837  10.473
29079W        W97497  10.758   1.978   4.283
29080W        W97498   2.436   9.837  14.468
29081W        W97499  36.544   4.440  13.518
29082W        W97500  11.258  28.557  10.964
29083W        W97501   4.853  13.265   2.415
29084W        W97502  36.085  37.492  10.428
29085W        W97503   9.795  14.718   3.684
29086W        W97504   5.915  28.609   3.360
29087W        W97505  33.534  24.700   4.744
29088W        W97506   4.843   3.837  14.980
29089W        W97507   4.706  16.643   2.793
29090W        W97508   7.341  19.198   3.738
29091W        W97509  16.777  40.937  11.992
29092W        W97510  21.161  27.530   0.749
29093W        W97511  26.143  39.433   2.788
29094W        W97512  16.230   7.880   0.459
29095W        W97513  32.459  35.883   1.396
29096W        W97514   1.462  21.692   2.367
29097W        W97515  44.386  23.147  13.792
29098W        W97516  29.465  15.689  13.903
29099W        W97517  16.728  12.671  12.576
29100W        W97518  22.739  10.809  13.034
29101W        W97519  21.747   5.815  13.919
29102W        W97520  24.202  30.655  14.769
29103W        W97521  18.090   0.316  11.016
29104W        W97522  35.437   3.902  13.312
29105W        W97523  10.356  26.099  14.983
29106W        W97524  21.632  10.756   2.305
29107W        W97525  24.617  22.571   1.211
29108W        W97526  44.848  35.975  12.406
29109W        W97527  30.026   7.671   4.837
29110W        W97528  36.387  20.646   0.406
29111W        W97529   3.365  41.309   0.968
29112W        W97530  24.196  36.440  13.404
29113W        W97531  41.860   2.878  11.003
29114W        W97532  28.105  22.737   4.629
29115W        W97533   2.426  16.279  12.550
29116W        W97534  34.446  40.882   1.426
29117W        W97535  31.638   8.847  14.845
29118W        W97536  10.241  16.088  12.007
29119W        W97537   7.717  41.363  13.318
29120W        W97538  29.060  24.537  11.103
29121W        W97539  40.820  29.140  14.949
29122W        W97540  29.536  22.229   2.211
29123W        W97541   8.249  14.325   3.210
29124W        W97542  20.530  18.254   0.423
29125W        W97543   2.738  38.965  12.483
29126W        W97544  11.163  36.937  10.945
29127W        W97545  14.807  20.120   1.877
29128W        W97546  38.026   4.769  10.427
29129W        W97547  37.871  15.174   4.654
29130W        W97548  22.743  21.197  12.967
29131W        W97549  17.687   7.837   2.886
29132W        W97550  35.001  15.088   3.384
29133W        W97551   3.342  13.273   0.899
29134W        W97552  28.502  18.110   1.829
29135W        W97553  31.594   9.741  13.349
29136W        W97554   8.658   9.808  11.030
29137W        W97555   4.908  24.026   4.685
29138W        W97556   3.715  44.303  11.945
29139W        W97557  14.777  38.068   2.805
29140W        W97558   3.909  17.585  10.539
29141W        W97559  14.744  11.137   0.410
29142W        W97560  11.275   9.849   0.418
29143W        W97561   8.219  11.307   2.776
29144W        W97562  34.419  32.983  13.004
29145W        W97563   2.821  18.166   4.283
29146W        W97564  30.532   2.793   4.257
29147W        W97565  36.877  37.399   3.779
29148W        W97566  36.484  22.708   0.868
29149W        W97567  25.676  21.209   2.837
29150W        W97568   3.326  29.593  11.895
29151W        W97569   2.388  37.529   0.245
29152W        W97570  30.034  29.146   2.668
29153W        W97571   2.319  29.482   5.233
29154W        W97572  38.038   9.862   2.861
29155W        W97573  31.053  20.641   3.329
29156W        W97574  23.025   8.802  10.891
29157W        W97575   2.249  41.427   1.722
29158W        W97576   6.879  19.606   4.186
29159W        W97577  18.174  42.003   2.283
29160W        W97578  34.370  23.692  14.969
29161W        W97579  34.602  18.561   0.334
29162W        W97580  17.773  10.151  11.378
29163W        W97581   3.915  10.791  13.853
29164W        W97582  16.716  20.522  13.928
29165W        W97583  17.221  34.559  11.123
29166W        W97584   6.714  21.201   3.794
29167W        W97585  43.509  29.448   3.179
29168W        W97586  30.128  40.508  11.878
29169W        W97587  38.034   3.422  14.781
29170W        W97588   0.913  14.684   2.287
29171W        W97589   1.933  41.870   1.362
29172W        W97590  15.756  25.498   1.854
29173W        W97591  26.160  10.311   2.753
29174W        W97592  36.893  27.600   3.839
29175W        W97593   9.157  40.803  12.578
29176W        W97594  43.277  35.973  10.961
29177W        W97595  29.918  37.539   1.227
29178W        W97596  38.456   9.157   3.272
29179W        W97597  24.985  19.628  13.462
29180W        W97598  36.947  30.025   3.664
29181W        W97599  22.711  44.794   0.938
29182W        W97600   5.239  12.690   3.642
29183W        W97601  13.652  32.607  13.805
29184W        W97602  16.281  30.971  12.425
29185W        W97603  25.040  16.589  11.111
29186W        W97604   7.665  17.118   4.610
29187W        W97605  22.686   0.809   4.755
29188W        W97606  28.474  33.605  12.930
29189W        W97607   1.952  43.810  14.856
29190W        W97608  31.957  15.773   3.353
29191W        W97609  43.510  41.033  10.948
29192W        W97610  30.093  35.456   3.218
29193W        W97611  22.140  24.553   5.645
29194W        W97612  35.968  26.506   2.278
29195W        W97613  14.203  19.664   1.929
29196W        W97614  43.332  41.377   3.267
29197W        W97615  29.601  30.474   2.881
29198W        W97616  38.445  11.738  12.493
29199W        W97617   0.866  37.864  12.829
29200W        W97618  34.567   3.800   4.218
29201W        W97619  12.756  27.652  13.534
29202W        W97620  44.781  40.811   2.688
29203W        W97621  32.096  35.935  13.042
29204W        W97622  16.684  13.600  10.953
29205W        W97623   1.968  20.613  14.905
29206W        W97624   9.268  20.135  13.807
29207W        W97625  26.598  21.218  14.885
29208W        W97626  15.585  27.526   2.707
29209W        W97627   6.785  25.118   4.795
29210W        W97628   7.665  41.412  10.156
29211W        W97629  18.171   2.774   2.767
29212W        W97630  20.735  12.646   4.709
29213W        W97631  16.597   6.803   2.868
29214W        W97632  25.993  26.470  12.941
29215W        W97633  10.200  30.085   2.294
29216W        W97634  28.102   1.959   0.783
29217W        W97635  40.860  39.943   0.910
29218W        W97636  36.397  15.578   3.320
29219W        W97637  14.608  43.350  12.952
29220W        W97638   3.732  11.148  12.546
29221W        W97639  34.974  10.189  11.079
29222W        W97640  17.300  35.585   1.227
29223W        W97641  22.193  32.003   1.876
29224W        W97642  42.893   4.352   0.898
29225W        W97643  24.712  38.544  14.921
29226W        W97644  24.050  19.065   2.865
29227W        W97645  39.831  14.620   1.410
29228W        W97646  12.342  40.520   2.328
29229W        W97647  30.635   7.321   1.328
29230W        W97648   0.830   8.724   4.173
29231W        W97649  20.030   2.884  13.400
29232W        W97650  27.062  15.607   4.329
29233W        W97651  18.114  30.978   2.354
29234W        W97652   5.226  23.574  11.917
29235W        W97653  33.087  40.980  12.572
29236W        W97654  35.074  11.862   4.227
29237W        W97655  11.690  14.750  13.400
29238W        W97656  41.042  42.430   1.360
29239W        W97657  20.719  14.276   4.234
29240W        W97658  28.105  10.301   9.928
29241W        W97659  24.608   0.386   1.277
29242W        W97660  20.142   2.266   1.797
29243W        W97661  31.064  41.443   4.217
29244W        W97662   5.400  41.968  10.619
29245W        W97663  22.037   8.368   0.384
29246W        W97664  34.908  42.896   3.845
29247W        W97665  27.119  21.726   3.265
29248W        W97666  19.541   3.776   1.248
29249W        W97667  39.408  30.634   4.194
29250W        W97668  22.227  43.885   2.872
29251W        W97669  20.061   8.766  12.885
29252W        W97670  44.388  40.983  14.847
29253W        W97671  10.713  11.643  12.839
29254W        W97672  32.917  36.059   2.734
29255W        W97673  41.392  27.953   1.286
29256W        W97674   9.217  34.529   9.987
29257W        W97675  15.123   9.887  11.427
29258W        W97676   2.841  21.635   3.650
29259W        W97677  17.560  17.250  13.802
29260W        W97678  26.979  19.753   2.194
29261W        W97679  31.622  37.539   4.138
29262W        W97680  10.748  21.697   1.301
29263W        W97681  13.835   1.766  11.913
29264W        W97682  12.816  22.206  12.850
29265W        W97683  28.635   8.667   0.762
29266W        W97684  20.254  22.584   2.324
29267W        W97685  13.163  31.087   0.795
29268W        W97686  33.084  29.613  11.898
29269W        W97687  31.005  17.775  11.980
29270W        W97688  44.389  16.716  11.510
29271W        W97689   1.264  36.967   0.482
29272W        W97690  37.886  18.779   2.392
29273W        W97691   1.419  35.559   3.248
29274W        W97692   3.268  22.247  13.339
29275W        W97693  33.594  37.572  14.397
29276W        W97694  18.717   6.414  13.315
29277W        W97695  32.076   0.835   2.241
29278W        W97696  14.721  16.146   3.861
29279W        W97697  15.728  41.846   1.348
29280W        W97698  20.539  25.691  12.843
29281W        W97699  40.495  10.345  10.610
29282W        W97700  44.762  37.574  14.389
29283W        W97701  31.492   8.819  12.499
29284W        W97702  38.048  33.576   1.337
29285W        W97703  42.501  43.368   4.167
29286W        W97704  43.907  10.782  12.390
29287W        W97705  24.227  15.245   2.690
29288W        W97706  21.143   8.759   3.760
29289W        W97707   7.392   6.716   3.740
29290W        W97708  23.061  19.247  11.426
29291W        W97709  23.062  12.714   3.377
29292W        W97710   5.218  24.513   0.390
29293W        W97711  21.551  31.095   0.311
29294W        W97712  37.835   8.368   1.262
29295W        W97713  21.034  39.992  12.045
29296W        W97714  44.385   2.893   1.743
29297W        W97715  23.633   2.346  13.941
29298W        W97716  17.801  12.273  11.537
29299W        W97717  44.483   5.219   0.322
29300W        W97718  30.422  13.650  12.427
29301W        W97719  17.689   3.952  13.541
29302W        W97720  32.948  35.437  12.973
29303W        W97721  20.665  15.685  13.055
29304W        W97722  40.819   5.265   2.692
29305W        W97723   6.409  40.366  11.585
29306W        W97724  36.431  20.164   3.335
29307W        W97725   3.713  36.062  12.547
29308W        W97726  44.839  14.588  13.318
29309W        W97727  19.250  28.596   3.851
29310W        W97728  13.727  20.057  10.489
29311W        W97729  15.579  30.419  10.478
29312W        W97730  34.916  31.567  14.398
29313W        W97731  18.168  13.740   0.764
29314W        W97732  35.058  33.563   3.251
29315W        W97733  39.543  41.952   2.888
29316W        W97734  39.542  18.096  12.550
29317W        W97735  20.221  41.847   4.660
29318W        W97736   5.765  42.351   2.390
29319W        W97737  33.933  23.082   4.631
29320W        W97738   0.912   6.361   4.790
29321W        W97739  39.858  20.647   0.961
29322W        W97740  12.776  17.104   2.713
29323W        W97741  24.564  14.094   2.754
29324W        W97742   9.388  39.913   4.646
29325W        W97743  19.093  10.838   2.354
29326W        W97744  34.439  15.821   1.327
29327W        W97745  29.010  43.926  13.016
29328W        W97746  41.447  41.882   2.766
29329W        W97747   7.331  22.689  13.837
29330W        W97748  13.631  37.515   4.813
29331W        W97749  31.132   3.798   0.455
29332W        W97750  21.038  30.466   2.749
29333W        W97751  41.884  19.654  13.462
29334W        W97752  21.035  18.681  12.464
29335W        W97753  24.218  24.563  12.075
29336W        W97754  15.200   2.941  11.889
29337W        W97755  16.169  29.669  13.422
29338W        W97756  34.507  44.332  13.418
29339W        W97757  13.807  26.485   2.235
29340W        W97758  13.274  33.095   1.829
29341W        W97759   4.747  32.913  13.322
29342W        W97760   0.449  28.560  11.481
29343W        W97761  34.064   9.786   2.682
29344W        W97762   5.370   9.190  13.910
29345W        W97763  23.489  42.986  12.058
29346W        W97764  31.513   0.338   2.409
29347W        W97765  16.642  20.197  12.506
29348W        W97766  13.286  14.182   5.242
29349W        W97767  36.587  35.515   1.338
29350W        W97768  14.286  19.077  13.489
29351W        W97769   5.398  24.176  13.946
29352W        W97770  36.423  40.498  11.523
29353W        W97771  38.879   8.186   4.739
29354W        W97772   1.305  22.168  14.997
29355W        W97773  37.907   4.279   1.759
29356W        W97774  27.135  20.650   4.257
29357W        W97775   3.916  30.439  13.011
29358W        W97776  38.337   5.801  13.362
29359W        W97777  23.538  37.556  14.391
29360W        W97778  16.118  17.224   1.382
29361W        W97779  42.787  20.116  12.558
29362W        W97780  28.626  38.526  11.065
29363W        W97781  27.942  39.489   3.848
29364W        W97782  17.757  43.882  13.890
29365W        W97783  28.587  37.462  10.487
29366W        W97784  28.508   1.736   2.250
29367W        W97785  42.980  25.512   1.210
29368W        W97786  34.377  10.200  12.904
29369W        W97787   9.376  43.972  12.060
29370W        W97788  27.684  35.416  11.116
29371W        W97789   9.368   3.401   0.463
29372W        W97790  18.172  37.021  13.980
29373W        W97791  33.415  37.552   2.837
29374W        W97792  42.800  44.277   0.331
29375W        W97793  32.963  31.101   4.222
29376W        W97794  31.635  23.508   4.153
29377W        W97795  24.220  33.475   4.627
29378W        W97796   6.779  21.617   4.312
29379W        W97797   9.332   2.966   4.801
29380W        W97798  11.267  12.223   0.358
29381W        W97799  14.653  24.643   1.789
29382W        W97800  20.262  22.717   1.905
29383W        W97801  32.428  17.214   1.336
29384W        W97802   7.373  16.688  12.550
29385W        W97803  22.997   7.388  13.459
29386W        W97804  43.824  22.125   1.242
29387W        W97805  16.076   9.371   3.184
29388W        W97806  21.669  11.307   2.329
29389W        W97807   3.266   5.857   0.946
29390W        W97808  19.064   6.380   2.726
29391W        W97809  35.592  10.250   2.328
29392W        W97810   8.665  19.080  10.634
29393W        W97811   0.902  36.019   1.394
29394W        W97812  31.079  42.944   0.787
29395W        W97813  32.606  13.179  12.505
29396W        W97814   9.217   9.760  12.062
29397W        W97815   9.768  38.991  11.379
29398W        W97816  20.207  30.010   1.827
29399W        W97817   2.257  42.429   3.243
29400W        W97818  37.849   5.407  10.598
29401W        W97819  39.057  32.918   0.767
29402W        W97820  31.947  22.654   2.832
29403W        W97821   7.366  37.410   1.330
29404W        W97822  32.036  26.470   5.123
29405W        W97823  17.616  17.081  12.554
29406W        W97824   2.852   3.837  14.902
29407W        W97825  42.834  12.637  13.040
29408W        W97826  22.595  14.313  10.097
29409W        W97827  36.854  15.169  12.060
29410W        W97828  33.011  26.575   5.297
29411W        W97829  40.926   5.219  14.279
29412W        W97830  14.182   4.389  11.061
29413W        W97831  37.379  41.355   0.401
29414W        W97832  42.819  38.336  11.882
29415W        W97833  28.098  21.237  11.987
29416W        W97834  38.476  17.793   0.849
29417W        W97835  20.115  19.071  11.019
29418W        W97836  31.538  24.984   0.940
29419W        W97837  17.158   6.209   3.293
29420W        W97838  29.649   7.785   5.695
29421W        W97839  18.591  16.761   1.359
29422W        W97840  26.489  22.125  12.388
29423W        W97841  22.594   4.322   3.349
29424W        W97842  11.242  10.842   3.370
29425W        W97843   4.877   6.754   4.348
29426W        W97844   9.726  39.863   0.374
29427W        W97845  34.473   6.729  11.005
29428W        W97846  16.222  17.237  14.931
29429W        W97847  29.474  18.063   3.797
29430W        W97848  37.925  43.800  13.843
29431W        W97849  15.168  32.911  12.020
29432W        W97850  13.693  39.041  10.580
29433W        W97851  38.848  24.022   4.216
29434W        W97852  22.673  38.855  12.925
29435W        W97853  13.205  10.813  13.404
29436W        W97854  18.102  38.038  10.975
29437W        W97855   2.420  12.313   3.347
29438W        W97856  18.787   0.817   2.272
29439W        W97857   3.786  36.066  14.278
29440W        W97858  20.228  29.040   4.758
29441W        W97859  22.688   6.677   0.815
29442W        W97860  11.209  17.743  10.956
29443W        W97861  29.037   6.824  14.976
29444W        W97862  24.059  26.521   1.739
29445W        W97863   0.936  25.567  14.996
29446W        W97864  26.693  12.272  11.398
29447W        W97865  33.593  36.086  13.917
29448W        W97866  24.166  13.314   0.955
29449W        W97867  18.066  21.623   2.825
29450W        W97868  33.895  26.955  12.403
29451W        W97869  36.401   6.799  14.350
29452W        W97870   4.227   9.817   4.198
29453W        W97871  31.568  26.611   4.811
29454W        W97872  13.169   2.397   2.772
29455W        W97873   4.921  27.114   1.921
29456W        W97874  15.711  39.862   1.329
29457W        W97875  20.268  42.980   0.475
29458W        W97876  23.216  40.321   1.878
29459W        W97877  23.653  34.486  13.534
29460W        W97878  23.537   6.411  11.453
29461W        W97879  19.577  32.115  10.055
29462W        W97880  21.091   1.271   0.831
29463W        W97881  17.686  33.554   2.843
29464W        W97882  39.048   7.738  10.616
29465W        W97883  19.093  31.586  12.430
29466W        W97884   4.217  20.673  12.369
29467W        W97885  21.234  23.073   4.611
29468W        W97886  29.558   9.297   5.293
29469W        W97887  34.582   1.948  14.878
29470W        W97888  33.948  24.119   3.160
29471W        W97889  34.943  37.504   1.344
29472W        W97890   4.413  11.652  14.969
29473W        W97891   2.910   0.809  14.314
29474W        W97892  29.530  40.326  14.795
29475W        W97893   0.306  43.395   2.398
29476W        W97894  27.687   0.870   0.382
29477W        W97895  27.450  29.566   1.390
29478W        W97896   9.710   6.269  14.930
29479W        W97897   6.264  22.024  10.619
29480W        W97898  31.640  19.072   4.273
29481W        W97899   2.806   0.264  13.376
29482W        W97900  16.163   5.766  11.103
29483W        W97901  24.658  26.579  11.963
29484W        W97902  22.048   4.704  14.362
29485W        W97903  24.506  17.172  12.902
29486W        W97904  14.268  20.031   4.613
29487W        W97905  41.037  27.068   1.796
29488W        W97906  41.032  19.651   0.397
29489W        W97907  12.249  25.604   1.901
29490W        W97908  28.083  40.959  10.929
29491W        W97909  26.629  17.074   4.216
29492W        W97910  13.645   0.346   4.242
29493W        W97911  34.925  10.785   0.948
29494W        W97912  17.757   8.720  13.845
29495W        W97913  32.490  36.907  14.296
29496W        W97914  42.328  44.798  14.910
29497W        W97915  10.676   4.440  12.014
29498W        W97916   5.838   3.768  11.006
29499W        W97917  40.527   5.810  11.048
29500W        W97918  29.533  27.638  11.022
29501W        W97919  30.146  29.986  12.351
29502W        W97920  29.652  29.606  12.412
29503W        W97921  19.742  28.477  12.556
29504W        W97922  11.858  33.602   0.913
29505W        W97923  32.013  35.520   0.856
29506W        W97924  34.020  12.299  13.459
29507W        W97925  33.060  10.687  11.399
29508W        W97926  32.575  21.202   5.176
29509W        W97927  42.437  36.451   4.315
29510W        W97928  22.585  23.087   3.855
29511W        W97929  16.623  41.528  13.979
29512W        W97930   7.202  33.535  14.856
29513W        W97931  27.610  43.421   3.862
29514W        W97932  11.644   9.825  11.078
29515W        W97933  38.934  44.985   1.326
29516W        W97934  11.641  25.691   2.368
29517W        W97935  41.963  37.054  14.883
29518W        W97936  19.258  14.258  11.881
29519W        W97937   4.339  15.098  12.510
29520W        W97938   0.475  10.692   3.763
29521W        W97939  26.620  21.683   3.336
29522W        W97940  25.659   9.229  13.406
29523W        W97941   6.310  21.706   0.402
29524W        W97942  39.514  19.230   1.829
29525W        W97943  28.013  15.693   1.436
29526W        W97944  32.001  10.780   1.441
29527W        W97945   4.338   3.849  13.501
29528W        W97946   1.822  21.200   1.742
29529W        W97947  13.758   3.389  12.951
29530W        W97948  10.243  18.247  12.050
29531W        W97949   2.734  22.741  13.479
29532W        W97950   2.875  22.656  12.847
29533W        W97951   8.164  18.693  13.880
29534W        W97952  22.009  15.102   0.446
29535W        W97953  14.700  37.405   0.328
29536W        W97954  18.220  40.998  14.826
29537W        W97955  34.935  40.030   4.220
29538W        W97956   3.847  44.768   4.240
29539W        W97957  41.928  24.548  14.877
29540W        W97958  34.878  20.233  11.602
29541W        W97959   6.757  23.020   4.673
29542W        W97960  17.704  34.922  14.408
29543W        W97961  40.478  40.466   0.389
29544W        W97962  19.686  40.007  13.348
29545W        W97963  19.641  18.625   2.850
29546W        W97964  34.478  21.060   0.738
29547W        W97965  31.519  26.500  13.003
29548W        W97966  37.409   3.838   2.381
29549W        W97967   2.371  22.125  12.968
29550W        W97968  16.227  30.991   0.355
29551W        W97969  38.468  38.470  10.481
29552W        W97970  35.051  36.981  12.347
29553W        W97971   9.395  18.620  14.021
29554W        W97972   9.789  13.828  14.931
29555W        W97973  18.251  15.127   1.874
29556W        W97974  30.591  26.188   3.370
29557W        W97975  22.561  30.000   4.685
29558W        W97976  24.594  40.831  13.409
29559W        W97977  13.127  39.426   0.913
29560W        W97978  18.588   9.681  11.889
29561W        W97979   2.375  22.704   4.689
29562W        W97980  23.166  25.507  14.779
29563W        W97981  34.459  21.056   4.130
29564W        W97982  36.371  27.113  12.985
29565W        W97983  21.095  43.767  12.942
29566W        W97984  22.142  32.603  14.813
29567W        W97985  25.617  31.027   0.736
29568W        W97986  29.439  25.682   4.794
29569W        W97987  22.033  38.446   4.694
29570W        W97988  13.636   3.912   3.853
29571W        W97989  32.141   9.765   4.790
29572W        W97990  30.581  43.926   2.213
29573W        W97991  37.840  24.977  14.301
29574W        W97992   7.238  42.904   1.405
29575W        W97993   4.833   0.756   5.218
29576W        W97994  34.016  27.145   0.941
29577W        W97995  16.192  12.664  11.917
29578W        W97996  35.584   7.198  12.870
29579W        W97997  31.060  17.129  10.581
29580W        W97998  31.958  39.060  11.560
29581W        W97999  12.740  20.768  11.859
29582W        W98000   8.169   4.886   1.851
29583W        W98001  13.789  10.308  12.508
29584W        W98002  24.708  34.971   1.392
29585W        W98003  14.800   0.931   2.895
29586W        W98004  39.550  18.257  13.875
29587W        W98005  25.084  14.118  13.404
29588W        W98006   3.914  28.978   0.308
29589W        W98007  31.631  31.063  13.871
29590W        W98008  16.794  28.184  14.998
29591W        W98009  37.389  23.031   3.384
29592W        W98010  30.523  32.921  13.326
29593W        W98011  26.657   1.389  14.493
29594W        W98012   2.935   4.894  14.355
29595W        W98013  20.190  43.350  11.088
29596W        W98014  41.977  15.329   4.828
29597W        W98015  10.696   4.342   0.789
29598W        W98016  22.741  38.437  10.059
29599W        W98017  12.615  27.171  11.013
29600W        W98018  37.838  36.068  14.938
29601W        W98019  20.589   5.879   2.890
29602W        W98020  22.710  35.361   1.371
29603W        W98021  33.008  34.012   0.440
29604W        W98022  18.586  35.874  10.030
29605W        W98023  25.511   9.780   3.231
29606W        W98024  21.190  32.093   1.368
29607W        W98025  44.450  25.517  13.022
29608W        W98026  10.725  39.906   1.737
29609W        W98027  35.900  26.161   2.211
29610W        W98028   6.371  21.723  13.839
29611W        W98029  35.553   7.389   0.833
29612W        W98030   9.736  17.575  10.428
29613W        W98031  37.983  27.142   1.834
29614W        W98032  15.744  22.013  10.900
29615W        W98033  15.604  43.996  10.618
29616W        W98034  13.623   0.321  13.315
29617W        W98035  10.139   7.808  13.855
29618W        W98036  30.027   6.428   0.442
29619W        W98037  23.608  35.958   2.358
29620W        W98038   5.391  28.060  12.412
29621W        W98039   5.819  11.649   0.825
29622W        W98040  14.163  43.980  13.986
29623W        W98041  18.583   9.314   4.239
29624W        W98042  43.477  36.571  14.353
29625W        W98043   2.302   2.811   1.421
29626W        W98044  32.453  42.373  14.448
29627W        W98045  37.403  37.879   0.882
29628W        W98046  16.679  29.567  14.451
29629W        W98047  38.872  33.885  10.920
29630W        W98048   0.448  24.054   3.765
29631W        W98049   4.814  24.159  13.348
29632W        W98050  37.351  34.521  14.939
29633W        W98051   9.359   6.373  14.844
29634W        W98052   8.384  14.665   1.225
29635W        W98053  23.001  42.947  14.329
29636W        W98054   7.719   7.666  12.863
29637W        W98055  32.061  13.761   4.725
29638W        W98056  23.056  42.461   2.405
29639W        W98057  26.659  27.548   3.236
29640W        W98058   0.277  24.113   1.334
29641W        W98059  13.310  19.100  14.361
29642W        W98060  41.377  39.935   4.601
29643W        W98061  43.997   8.883  13.522
29644W        W98062  26.641  34.946  11.875
29645W        W98063  12.770  28.075  11.100
29646W        W98064  11.706   5.874  14.377
29647W        W98065  24.996  24.230   2.779
29648W        W98066  16.650  16.644   2.216
29649W        W98067  41.808  29.642   2.354
29650W        W98068  42.810  10.343   3.645
29651W        W98069   7.208  36.562   0.256
29652W        W98070  28.576  23.502  12.085
29653W        W98071  38.507  22.560  14.937
29654W        W98072  42.974  13.800  14.487
29655W        W98073  32.008  43.972   0.373
29656W        W98074  13.833  15.660  13.903
29657W        W98075   1.843  26.050  14.782
29658W        W98076  26.051  26.152   1.789
29659W        W98077  35.947   9.686   0.375
29660W        W98078  36.916  15.750   4.730
29661W        W98079  42.896   2.416  11.927
29662W        W98080  39.810   6.266  12.407
29663W        W98081  30.585   5.845  14.835
29664W        W98082   1.822  14.102   0.400
29665W        W98083  24.181  43.497   1.841
29666W        W98084  25.177  33.601  11.517
29667W        W98085  25.185  40.961  12.829
29668W        W98086   3.795  11.139   3.791
29669W        W98087  44.428  34.485  11.081
29670W        W98088  23.587  33.438  13.987
29671W        W98089  44.769  14.261   2.363
29672W        W98090  20.710  33.608  14.842
29673W        W98091  27.522  39.040   1.383
29674W        W98092  27.027   6.869   3.794
29675W        W98093   0.841  35.079   0.855
29676W        W98094  22.128  14.310  11.971
29677W        W98095  11.822  17.108   4.324
29678W        W98096  36.476  36.362  10.486
29679W        W98097  39.874  40.818  12.868
29680W        W98098  20.237   0.444  11.443
29681W        W98099  41.528   8.383  14.956
29682W        W98100   6.792  12.264  13.995
29683W        W98101  26.680  33.556   2.411
29684W        W98102   4.345  18.732  11.889
29685W        W98103  23.100  23.710   1.283
29686W        W98104  42.331  14.316   5.147
29687W        W98105  36.880  34.512  11.986
29688W        W98106  22.246  39.024   1.904
29689W        W98107   5.215   3.355   0.926
29690W        W98108  10.863   4.760   2.318
29691W        W98109   8.309  29.521  14.004
29692W        W98110  20.255  33.584  10.015
29693W        W98111  15.126   6.318   1.377
29694W        W98112  20.676  27.965  13.926
29695W        W98113   5.386  37.859  12.904
29696W        W98114  29.999   1.897   2.885
29697W        W98115   1.903  26.124  13.973
29698W        W98116  42.847  19.179  14.326
29699W        W98117  22.209  10.767   0.404
29700W        W98118  12.170   5.909   3.155
29701W        W98119   4.784  23.988  12.362
29702W        W98120  29.513  13.808   0.460
29703W        W98121  24.013  26.098   4.664
29704W        W98122  37.889  21.738   0.901
29705W        W98123  39.822   5.694  11.943
29706W        W98124  28.166  36.084  12.877
29707W        W98125  15.752  20.740   0.950
29708W        W98126  41.034   5.888  12.557
29709W        W98127  14.630  34.371  12.885
29710W        W98128  26.053  44.319   4.190
29711W        W98129  42.956  32.490   3.318
29712W        W98130  30.162  23.507  12.960
29713W        W98131  40.932   3.831  10.521
29714W        W98132   5.736  18.603   2.373
29715W        W98133  40.908  28.086  13.938
29716W        W98134   8.748   6.919   4.797
29717W        W98135  40.430  15.180   4.809
29718W        W98136   5.292  13.169   2.812
29719W        W98137  17.769   2.845   0.917
29720W        W98138   6.412   2.443  11.518
29721W        W98139   1.892  42.310  11.434
29722W        W98140   5.809  32.415  10.597
29723W        W98141  15.753   7.271  10.111
29724W        W98142   1.910  22.183  14.831
29725W        W98143  10.240  20.765  14.513
29726W        W98144  13.649  39.811  14.859
29727W        W98145   0.374  24.020   0.302
29728W        W98146   5.804   4.269   4.597
29729W        W98147   4.399  16.267  12.575
29730W        W98148   3.798  22.056  14.457
29731W        W98149  34.919  43.419  14.889
29732W        W98150  35.571  14.168  13.340
29733W        W98151  44.401  23.184   9.468
29734W        W98152  24.064  44.782   2.698
29735W        W98153  26.981  35.965  11.062
29736W        W98154  17.796   5.328  10.100
29737W        W98155   1.813   3.264   2.306
29738W        W98156  34.457  26.134   2.314
29739W        W98157  23.197  29.533  12.477
29740W        W98158   4.799   4.446  14.426
29741W        W98159   1.252  39.024   4.133
29742W        W98160  12.785  10.319  11.009
29743W        W98161  26.112  25.613  11.543
29744W        W98162  44.988  11.224  10.080
29745W        W98163  25.616  14.633  14.408
29746W        W98164  27.067  37.926   4.748
29747W        W98165  36.546  43.775  11.498
29748W        W98166  14.163   2.372   3.284
29749W        W98167  28.607   6.208  13.835
29750W        W98168   4.239  32.017   4.654
29751W        W98169  28.570   3.361   2.666
29752W        W98170  34.992  24.078  12.833
29753W        W98171  20.710  33.050  11.412
29754W        W98172  44.435   0.972  10.527
29755W        W98173  26.981  19.723   5.312
29756W        W98174   2.376  32.563  10.429
29757W        W98175   4.366  26.953   0.326
29758W        W98176  37.450  32.482  11.872
29759W        W98177  24.490  35.539   3.230
29760W        W98178  10.167   0.841   1.376
29761W        W98179   4.327  26.952   1.878
29762W        W98180   9.312   4.446  11.526
29763W        W98181  39.894  40.481   1.780
29764W        W98182  44.906  37.849  11.025
29765W        W98183  33.418  21.739   0.871
29766W        W98184  15.180  11.328   2.264
29767W        W98185  28.185   1.842  12.503
29768W        W98186   1.389  24.499  13.524
29769W        W98187  40.944   3.819  10.903
29770W        W98188  17.587  26.649   0.741
29771W        W98189  31.124   9.171  13.961
29772W        W98190  17.105   5.222   3.683
29773W        W98191  35.587  15.606   0.422
29774W        W98192  26.463  23.209  11.406
29775W        W98193   8.845   2.955  10.643
29776W        W98194  27.602  30.640  10.946
29777W        W98195  43.495  15.210   2.405
29778W        W98196   4.750  40.375   5.100
29779W        W98197  38.348  32.436  12.360
29780W        W98198  24.191  22.682   0.896
29781W        W98199  42.301  33.582  11.049
29782W        W98200  40.923  32.434  12.359
29783W        W98201  13.819  11.781  14.976
29784W        W98202   1.876  36.090   0.280
29785W        W98203   2.886  21.633  12.553
29786W        W98204  36.377  31.647   4.752
29787W        W98205  38.404  14.104   2.373
29788W        W98206   8.895  15.801   4.346
29789W        W98207  18.754  33.030   2.804
29790W        W98208   7.867  14.174  14.505
29791W        W98209  15.615  19.039  11.989
29792W        W98210  21.590  24.229   5.804
29793W        W98211  17.758  43.387  14.399
29794W        W98212   3.404  19.045   3.811
29795W        W98213  19.209   3.858  13.414
29796W        W98214  40.868  40.944   9.984
29797W        W98215  29.987  30.940  11.425
29798W        W98216  31.014  12.728   2.769
29799W        W98217  15.797  24.723   0.367
29800W        W98218  33.006   3.740   4.182
29801W        W98219  34.396  31.547   4.248
29802W        W98220  24.606  11.365   0.394
29803W        W98221  39.034  36.070  13.447
29804W        W98222  22.022  37.998  13.879
29805W        W98223  14.215  42.914  14.345
29806W        W98224  30.932  33.049  12.931
29807W        W98225  17.587   6.833   4.774
29808W        W98226  26.666  26.464   5.276
29809W        W98227  20.089  12.162  12.422
29810W        W98228  24.115  25.105  12.951
29811W        W98229  21.128  12.612   2.727
29812W        W98230  13.304   9.890  12.451
29813W        W98231  41.034  13.629   2.222
29814W        W98232  40.948   3.931  13.843
29815W        W98233  32.002  11.139   0.352
29816W        W98234  40.839  29.123   2.238
29817W        W98235  16.676  20.553  12.953
29818W        W98236  25.605   0.946   1.373
29819W        W98237  32.445   4.357  12.979
29820W        W98238  31.454   5.297  11.392
29821W        W98239  10.180  41.877   4.260
29822W        W98240   3.457  18.146   4.618
29823W        W98241   9.268  20.267   3.353
29824W        W98242  15.603   7.715  14.796
29825W        W98243   3.218  16.745   4.260
29826W        W98244  34.389  36.026   4.710
29827W        W98245   9.277  31.980  13.051
29828W        W98246   4.210  27.099  10.939
29829W        W98247   7.895  23.075  13.380
29830W        W98248   1.940  20.709   0.370
29831W        W98249  32.957  35.061   1.854
29832W        W98250  18.164  37.461   1.889
29833W        W98251  32.023  43.874   2.690
29834W        W98252  42.489  15.126   2.765
29835W        W98253  40.018  20.272   3.752
29836W        W98254  40.845  16.761   2.740
29837W        W98255  44.370  23.089   0.868
29838W        W98256  34.521  14.749  12.526
29839W        W98257  33.898   5.692  13.039
29840W        W98258  38.537  10.236  12.026
29841W        W98259  34.048  20.618   3.297
29842W        W98260  43.937  39.322   1.451
29843W        W98261  15.655  26.527   3.645
29844W        W98262  39.316  13.230  12.917
29845W        W98263   3.842  14.767   4.133
29846W        W98264  32.118   0.859  14.482
29847W        W98265   8.401  26.069  12.413
29848W        W98266  33.075  31.989   5.161
29849W        W98267  17.748  32.545  13.333
29850W        W98268   9.870  31.949   3.323
29851W        W98269  16.713  43.879   4.287
29852W        W98270   3.948  42.511   0.339
29853W        W98271  23.527  16.115   2.222
29854W        W98272  19.761  23.567  10.121
29855W        W98273  44.947  39.990   3.197
29856W        W98274  43.770  24.060  10.449
29857W        W98275  18.551  37.438   3.666
29858W        W98276  23.728  36.053  10.952
29859W        W98277  39.325  37.365  13.942
29860W        W98278   7.393  43.907   4.643
29861W        W98279  13.762  34.429  14.797
29862W        W98280  22.062   5.726   2.249
29863W        W98281  27.516   7.399  11.401
29864W        W98282  30.647  26.065  13.340
29865W        W98283  19.745  35.459   3.292
29866W        W98284   2.784  11.280   4.198
29867W        W98285  31.547  21.738  13.794
29868W        W98286  32.027  29.097   4.214
29869W        W98287  44.993   6.680  13.890
29870W        W98288  41.430  21.218   0.408
29871W        W98289  41.330  36.377   0.910
29872W        W98290   1.297  29.014  14.335
29873W        W98291  42.299  13.623   1.757
29874W        W98292  18.205   1.854  12.985
29875W        W98293  30.143  11.754  12.950
29876W        W98294   2.806   0.918   4.128
29877W        W98295   9.665  44.299  13.436
29878W        W98296  17.693  24.219  10.482
29879W        W98297   8.372   8.772   4.757
29880W        W98298  21.226  11.215  14.506
29881W        W98299   5.423  14.217   1.354
29882W        W98300  21.244  28.145   1.256
29883W        W98301   1.789  31.983   4.745
29884W        W98302  38.840  35.899   4.794
29885W        W98303  44.406  36.045  14.468
29886W        W98304  29.610  19.668   1.296
29887W        W98305  12.667  35.453  11.607
29888W        W98306  33.501  29.940  14.328
29889W        W98307  39.485  28.111   4.822
29890W        W98308   9.838  35.532   4.341
29891W        W98309   4.443  40.406   4.290
29892W        W98310  27.466  35.018   4.196
29893W        W98311  20.549  16.589   4.619
29894W        W98312  35.542  32.069  14.982
29895W        W98313   7.307  34.403  14.279
29896W        W98314  27.659  30.589   2.781
29897W        W98315  22.233  15.111  13.820
29898W        W98316  28.133   9.386  14.513
29899W        W98317  22.072  28.626  12.482
29900W        W98318  34.506   9.241  13.332
29901W        W98319   6.753  13.771   2.316
29902W        W98320  24.058   6.365  14.853
29903W        W98321  35.437   6.295   0.851
29904W        W98322  25.113  13.132  14.433
29905W        W98323  12.796   3.815   2.272
29906W        W98324  29.434   6.313  13.364
29907W        W98325  34.591  20.146   1.328
29908W        W98326  19.042  34.089   0.760
29909W        W98327   4.857  29.530   3.162
29910W        W98328  41.342  20.237   2.178
29911W        W98329  22.148  29.158  13.025
29912W        W98330  20.734  28.558   3.236
29913W        W98331  26.009  36.581   0.289
29914W        W98332  26.664   9.678  13.546
29915W        W98333  24.148  30.533  13.935
29916W        W98334  13.603   1.385   1.852
29917W        W98335  30.953  18.556  11.566
29918W        W98336  38.922  33.900   2.212
29919W        W98337   9.341  40.340  12.839
29920W        W98338  25.111   2.804   2.224
29921W        W98339  43.906   4.374  11.873
29922W        W98340  44.434  23.724   4.600
29923W        W98341  43.007  18.687  13.029
29924W        W98342   5.325  40.957  12.345
29925W        W98343  13.147  20.596  11.401
29926W        W98344  19.189  26.015  12.885
29927W        W98345  22.128  31.967  10.609
29928W        W98346  20.068  36.087   4.826
29929W        W98347  23.702  42.349   1.433
29930W        W98348  26.631   1.745   2.900
29931W        W98349  17.083   8.307   2.886
29932W        W98350  30.000  11.241  11.937
29933W        W98351  39.516   9.851  13.363
29934W        W98352  27.109  37.895  14.384
29935W        W98353  27.670  17.625  14.806
29936W        W98354  40.397  29.993   2.371
29937W        W98355  34.451   2.895  12.937
29938W        W98356  17.238   7.861   1.401
29939W        W98357  21.237  14.789   2.727
29940W        W98358  25.053  15.309   3.757
29941W        W98359   2.274  42.459   2.218
29942W        W98360  23.697  19.131   2.284
29943W        W98361  15.296  40.540   3.658
29944W        W98362   4.244  43.989  13.823
29945W        W98363  23.066   9.803   2.787
29946W        W98364  25.121   3.870  13.029
29947W        W98365  42.464  37.026  12.391
29948W        W98366  40.304  32.036   5.097
29949W        W98367  34.934   9.769  12.543
29950W        W98368  36.369  41.516   2.711
29951W        W98369   2.825  19.197  10.914
29952W        W98370  16.155   5.739  12.835
29953W        W98371  29.120   6.308  11.007
29954W        W98372  35.004  41.355  10.096
29955W        W98373   8.843  44.340  11.576
29956W        W98374  34.482   1.782  10.423
29957W        W98375  26.521  37.562  14.020
29958W        W98376  12.136  18.627  14.025
29959W        W98377  18.168  31.130  13.984
29960W        W98378  18.063  25.667  13.004
29961W        W98379   1.470  20.754  10.959
29962W        W98380   0.796  42.944   4.766
29963W        W98381  44.426  21.737  11.103
29964W        W98382   6.759  16.637   2.237
29965W        W98383  13.794  30.981   3.383
29966W        W98384  30.479   6.182   2.809
29967W        W98385  18.211  24.575  13.481
29968W        W98386  44.972  15.325  13.409
29969W        W98387  18.275  27.662   4.338
29970W        W98388  41.022   8.208  13.307
29971W        W98389  14.283  33.065  12.877
29972W        W98390  25.120  14.678  13.049
29973W        W98391  34.908  30.909  11.483
29974W        W98392  26.652  41.895  11.456
29975W        W98393  36.545  19.244  11.944
29976W        W98394   5.828  34.508   3.827
29977W        W98395  39.995  18.206  13.935
29978W        W98396  23.515   7.755  13.503
29979W        W98397  34.587   0.286  13.352
29980W        W98398   6.192   2.468   1.435
29981W        W98399   6.701   7.177  12.439
29982W        W98400  18.164  33.408   4.766
29983W        W98401  22.553  24.016   0.905
29984W        W98402  13.275  22.224   1.410
29985W        W98403   0.771  15.824   0.431
29986W        W98404  41.939  41.358   1.878
29987W        W98405  18.610   4.335  14.400
29988W        W98406   9.673   2.267   4.188
29989W        W98407   6.903  42.289   4.759
29990W        W98408  10.817   0.882  11.890
29991W        W98409   9.356  13.625  12.434
29992W        W98410  10.180   4.341   2.335
29993W        W98411   0.351  32.903  12.010
29994W        W98412   9.273   8.715  14.851
29995W        W98413   5.773  15.604   2.814
29996W        W98414  34.507  23.490   4.659
29997W        W98415  32.414  39.540   3.733
29998W        W98416   2.834  20.077  10.035
29999W        W98417  27.094  12.337   0.880
30000W        W98418  41.402  22.029   3.347
30001W        W98419  16.595  32.101  14.778
30002W        W98420   2.958  31.926   0.467
30003W        W98421  42.442   2.724  13.017
30004W        W98422  30.022   1.337   2.710
30005W        W98423  41.480   8.812   3.783
30006W        W98424   5.755  38.894   1.255
30007W        W98425   8.870  17.215  14.400
30008W        W98426   5.827  11.853   3.312
30009W        W98427  22.527  10.744   2.319
30010W        W98428   4.239  26.468   5.081
30011W        W98429   4.782   7.406  14.280
30012W        W98430   5.242  20.244  12.398
30013W        W98431  35.897   7.760   2.366
30014W        W98432  19.653  22.618   3.316
30015W        W98433  16.659  15.815  10.537
30016W        W98434   4.402  44.796   0.310
30017W        W98435   8.793  34.917   1.306
30018W        W98436   2.936  43.880   1.227
30019W        W98437  10.878   4.347  10.471
30020W        W98438  12.758  30.583  14.507
30021W        W98439  24.173   3.430   3.642
30022W        W98440  16.597   8.376   3.774
30023W        W98441  30.573   1.305   2.734
30024W        W98442  39.356  21.563   0.403
30025W        W98443  44.939  37.928  14.480
30026W        W98444  24.180  15.299  14.290
30027W        W98445   7.839  26.488  14.025
30028W        W98446  30.993   1.280  14.005
30029W        W98447  33.381  15.722  12.512
30030W        W98448  42.462  23.138  14.281
30031W        W98449  44.865  37.468  12.895
30032W        W98450  15.326  44.816   1.724
30033W        W98451  31.558  15.163   3.705
30034W        W98452  26.591  40.469   1.362
30035W        W98453   4.916  19.171   2.731
30036W        W98454  41.864  42.985  14.961
30037W        W98455  27.050  11.805  14.503
30038W        W98456  38.049  27.170  14.026
30039W        W98457  23.672  27.448  13.402
30040W        W98458  37.348   8.336   1.349
30041W        W98459  16.598  36.379   3.350
30042W        W98460  21.701  34.086   2.267
30043W        W98461  12.303  29.597   2.335
30044W        W98462   5.300  31.104   3.302
30045W        W98463  10.237   9.276  13.443
30046W        W98464  39.041  26.643  12.532
30047W        W98465  28.071  18.709   4.698
30048W        W98466  36.452  42.934   2.734
30049W        W98467   4.719  22.552   5.198
30050W        W98468   3.877  18.614   1.842
30051W        W98469  15.275  23.595   3.750
30052W        W98470  15.215  28.634   1.310
30053W        W98471  41.997  28.955   1.396
30054W        W98472  21.059  24.645  14.288
30055W        W98473  40.547  37.524  14.912
30056W        W98474  11.343   3.715  11.944
30057W        W98475  11.351  23.686   0.896
30058W        W98476   0.468  18.089   2.841
30059W        W98477  12.819  26.473  13.915
30060W        W98478  27.623   6.277  10.509
30061W        W98479  38.495  40.054  12.952
30062W        W98480  35.874   7.313  13.938
30063W        W98481  20.610  30.937   0.807
30064W        W98482   2.920  27.570  14.929
30065W        W98483  12.292   8.764   2.275
30066W        W98484  25.499  35.954   4.128
30067W        W98485  35.578  44.403   4.322
30068W        W98486  38.414  38.417  12.090
30069W        W98487  35.048  42.301  14.431
30070W        W98488   2.751  36.405  14.936
30071W        W98489  42.859   3.894  11.858
30072W        W98490  17.627   1.751  12.933
30073W        W98491  13.731   3.423   5.270
30074W        W98492   3.923  27.097  12.947
30075W        W98493  11.350  33.023  12.974
30076W        W98494  38.842   6.280   2.231
30077W        W98495  13.803   2.233   0.270
30078W        W98496  35.365  33.916  13.975
30079W        W98497   4.702  34.945  11.909
30080W        W98498  14.796  17.120   3.300
30081W        W98499  29.042  37.557  12.348
30082W        W98500  29.093  34.025   3.818
30083W        W98501  25.583  10.646   2.291
30084W        W98502  29.107  25.507   4.315
30085W        W98503  41.311  29.994   2.866
30086W        W98504  44.448  13.172   1.306
30087W        W98505  40.431  17.198  13.997
30088W        W98506  32.098  31.012  10.566
30089W        W98507  43.273  41.863   0.332
30090W        W98508  12.265  17.084  14.845
30091W        W98509  10.262  37.581  12.093
30092W        W98510  16.747  27.974   4.658
30093W        W98511   2.895  35.369   1.741
30094W        W98512  36.011  26.130   3.694
30095W        W98513  11.282   7.310   3.636
30096W        W98514  16.226  15.291  12.477
30097W        W98515  10.802  23.616  11.525
30098W        W98516  14.168  37.873   1.254
30099W        W98517  35.991   3.883  13.935
30100W        W98518  44.304   8.844   5.097
30101W        W98519   3.714   9.328   3.277
30102W        W98520  43.018  21.098   0.850
30103W        W98521  37.538   3.406   0.396
30104W        W98522   7.411  14.263  14.894
30105W        W98523  26.602  32.104  13.334
30106W        W98524  25.708  42.445   3.814
30107W        W98525  40.947  31.096   0.788
30108W        W98526  28.542  20.646   4.281
30109W        W98527  15.781  37.567   1.380
30110W        W98528  12.180   9.861   0.918
30111W        W98529   0.798  42.328   2.805
30112W        W98530  42.989  34.423  14.326
30113W        W98531  24.141  27.185   3.346
30114W        W98532  41.986  11.305  10.988
30115W        W98533  22.526  10.676   3.287
30116W        W98534   5.238  18.752  14.836
30117W        W98535  22.731  12.349   1.867
30118W        W98536   7.250  28.648  11.407
30119W        W98537   0.939   0.488  12.891
30120W        W98538  25.177   3.828  14.499
30121W        W98539  25.508  30.138  13.915
30122W        W98540  42.483  19.237  13.007
30123W        W98541  10.201  21.157  11.588
30124W        W98542  36.028  25.186   3.681
30125W        W98543  22.249  19.758   1.918
30126W        W98544  11.635  29.119  14.795
30127W        W98545   7.342  29.636   3.265
30128W        W98546  23.150  18.593   4.623
30129W        W98547   9.661  25.128   1.428
30130W        W98548  21.146  15.286  13.887
30131W        W98549  25.591  16.129   0.350
30132W        W98550  16.136  34.451   4.768
30133W        W98551  34.901  13.165  11.914
30134W        W98552  23.100  36.512   1.211
30135W        W98553  13.261  13.765  10.934
30136W        W98554  27.016  10.777   4.209
30137W        W98555  27.611  33.920   2.349
30138W        W98556  34.446  30.110  14.022
30139W        W98557  32.463  35.388   1.211
30140W        W98558  21.566  25.045   2.839
30141W        W98559  43.797   1.429  13.543
30142W        W98560  25.581  44.909   0.778
30143W        W98561   6.224  27.988  11.960
30144W        W98562   7.275   4.258   1.804
30145W        W98563  29.078  38.407   4.637
30146W        W98564  22.036  18.683   2.185
30147W        W98565  39.940  29.617  10.535
30148W        W98566  15.662  28.669  13.449
30149W        W98567   6.751  19.578  12.925
30150W        W98568  23.182  44.493   1.265
30151W        W98569  37.999  43.992   0.883
30152W        W98570  35.573  10.879  13.964
30153W        W98571  33.053  17.649  13.948
30154W        W98572  10.877   5.825  13.374
30155W        W98573  33.878  14.806  11.602
30156W        W98574  18.276  12.709  14.908
30157W        W98575  19.602  37.877  10.462
30158W        W98576  16.673  16.139   4.598
30159W        W98577   9.366  33.989   0.333
30160W        W98578  10.856  12.207   2.354
30161W        W98579   5.285  29.583   4.158
30162W        W98580  34.986  35.038   0.381
30163W        W98581   5.878  31.915   2.843
30164W        W98582  42.008  29.436  13.307
30165W        W98583  27.498   4.312   3.845
30166W        W98584  13.700  41.942  14.297
30167W        W98585  32.539  24.688   4.602
30168W        W98586  16.626  33.509  13.374
30169W        W98587  24.002  28.448  11.553
30170W        W98588  30.509  33.451  10.547
30171W        W98589   8.387  12.330   0.891
30172W        W98590  40.526   7.372  12.056
30173W        W98591  31.949  28.997  11.508
30174W        W98592   8.819  19.091   1.741
30175W        W98593  25.103  31.577  11.965
30176W        W98594  20.030   5.744   0.957
30177W        W98595   5.234  28.482   0.773
30178W        W98596  34.046  35.483   1.819
30179W        W98597  19.772  39.387  14.829
30180W        W98598   8.335   8.220   1.892
30181W        W98599  24.044  16.244   2.790
30182W        W98600  24.597  21.143   2.298
30183W        W98601  24.024  21.061  12.360
30184W        W98602   1.241   3.763  12.403
30185W        W98603  33.981  28.016  14.479
30186W        W98604   1.251  22.205   5.205
30187W        W98605  14.662  44.504  10.051
30188W        W98606  31.544  11.190  11.124
30189W        W98607  15.702  12.351   2.717
30190W        W98608  36.559  39.923   2.370
30191W        W98609   9.380   9.714  11.455
30192W        W98610  38.417  36.009   2.841
30193W        W98611  21.662  36.371  11.075
30194W        W98612   7.777  23.542   3.366
30195W        W98613  13.814   6.407  14.815
30196W        W98614  44.882  33.975  13.379
30197W        W98615  43.870  41.880   5.086
30198W        W98616  38.514   2.313  12.523
30199W        W98617   2.356  27.122  14.864
30200W        W98618   2.270  15.308   2.224
30201W        W98619   3.941  32.980   4.284
30202W        W98620  27.186  28.164  13.469
30203W        W98621  42.387  43.483  14.337
30204W        W98622  13.737  42.870   0.476
30205W        W98623  19.650  23.732  10.931
30206W        W98624  43.922  32.623  14.494
30207W        W98625   9.196  36.389   4.666
30208W        W98626  21.209  14.183  11.954
30209W        W98627  30.110  25.199   1.771
30210W        W98628  32.905  44.809   3.343
30211W        W98629  27.158  18.708   4.629
30212W        W98630  32.473  34.524   3.756
30213W        W98631  27.048  44.862  12.858
30214W        W98632   3.827  37.478   1.809
30215W        W98633   6.263  38.931  10.537
30216W        W98634  40.436  32.130  14.885
30217W        W98635  31.901  36.028  11.434
30218W        W98636  38.472   0.248   2.690
30219W        W98637  39.428  37.846  14.425
30220W        W98638  27.577  24.651   4.699
30221W        W98639   2.448  30.066  11.881
30222W        W98640   9.770  25.174  12.538
30223W        W98641   8.310  44.945   3.789
30224W        W98642  15.625   0.461  11.967
30225W        W98643  39.894  36.903  14.440
30226W        W98644  11.866   2.783   2.690
30227W        W98645  13.347   5.786  10.060
30228W        W98646  30.108   0.428  13.834
30229W        W98647   6.382  21.589   2.690
30230W        W98648  14.213   8.243  12.913
30231W        W98649  39.988   0.416  13.316
30232W        W98650   9.315  38.553   4.270
30233W        W98651  23.643  12.732   2.275
30234W        W98652   3.351   8.734  14.357
30235W        W98653  19.661  28.169   2.839
30236W        W98654  24.707  17.154  12.574
30237W        W98655  35.455  11.318  14.469
30238W        W98656  15.107  20.533  12.057
30239W        W98657  12.695   3.237  12.548
30240W        W98658  40.446   6.702  14.881
30241W        W98659   7.352  34.954  11.564
30242W        W98660  18.659  11.630  13.518
30243W        W98661  18.597  11.715   5.787
30244W        W98662  44.884   3.811  11.533
30245W        W98663  26.459  22.068   1.384
30246W        W98664  41.835  14.654  10.972
30247W        W98665  43.375  20.734  13.833
30248W        W98666   0.853  29.445   1.791
30249W        W98667   5.864  26.605  12.525
30250W        W98668  42.505  27.456   4.715
30251W        W98669  36.005   7.322   4.137
30252W        W98670  23.988  40.510  14.802
30253W        W98671  26.107  16.674   0.338
30254W        W98672  26.953  36.368  11.987
30255W        W98673  28.947   8.228  10.498
30256W        W98674   6.334  12.804  13.926
30257W        W98675  22.194  26.959   0.420
30258W        W98676  17.773  21.662   0.446
30259W        W98677  25.475   9.746  13.989
30260W        W98678   4.728  17.277   2.257
30261W        W98679  29.145  22.229  12.485
30262W        W98680   5.716  13.225   0.303
30263W        W98681  10.790  26.665   2.331
30264W        W98682   4.896  10.741   1.880
30265W        W98683  15.809  36.406   4.164
30266W        W98684  38.488   2.749  13.829
30267W        W98685  35.072  19.280   3.793
30268W        W98686  12.819  22.511  11.524
30269W        W98687  30.912  29.062   1.241
30270W        W98688  18.059  21.646   3.759
30271W        W98689  21.682  28.091   2.881
30272W        W98690  13.173  19.196   1.367
30273W        W98691  23.063  37.510   3.277
30274W        W98692  10.648   1.427   1.335
30275W        W98693  37.524   8.734  11.089
30276W        W98694   7.714   5.881   4.833
30277W        W98695  42.968  22.608   0.377
30278W        W98696   3.252  37.414  11.035
30279W        W98697  25.636  19.088  13.310
30280W        W98698   7.816  10.228   0.274
30281W        W98699   6.277   2.965  12.557
30282W        W98700  36.572  27.555   2.330
30283W        W98701  25.469  42.927   3.146
30284W        W98702  18.643  18.573   3.630
30285W        W98703  33.040  28.476  14.440
30286W        W98704  23.573   9.157  11.995
30287W        W98705  21.753  29.588   1.905
30288W        W98706  33.015  37.968  11.072
30289W        W98707  15.269  42.341   4.223
30290W        W98708  25.610  25.627  14.766
30291W        W98709  18.665   4.347  11.941
30292W        W98710  30.023  11.857   3.198
30293W        W98711  24.100  31.026   1.279
30294W        W98712   1.407  10.336  10.926
30295W        W98713  19.229   4.910   0.967
30296W        W98714  15.595   1.928  12.959
30297W        W98715  16.709  39.515  10.561
30298W        W98716  31.010  10.300  13.856
30299W        W98717  27.028  18.252  14.356
30300W        W98718  38.025  42.521  13.352
30301W        W98719  38.453   1.284  13.847
30302W        W98720  39.955  22.745  14.027
30303W        W98721  10.710  33.625   4.778
30304W        W98722  20.759  18.051   1.259
30305W        W98723  40.916  17.713  12.459
30306W        W98724   7.882  24.086  11.560
30307W        W98725  40.052  19.587  14.815
30308W        W98726  15.145  34.402  13.332
30309W        W98727   9.703   5.845  13.039
30310W        W98728  26.624   9.228   9.545
30311W        W98729  23.550  17.686  11.398
30312W        W98730  15.318   5.816   2.743
30313W        W98731  37.084   6.213   1.362
30314W        W98732  34.391  36.074   3.196
30315W        W98733   3.928  41.873  14.503
30316W        W98734   3.276  42.452   4.123
30317W        W98735  40.331   9.386  10.415
30318W        W98736  38.907   5.203  14.387
30319W        W98737   2.425   5.199  12.919
30320W        W98738   2.355  41.463  10.636
30321W        W98739  34.035  10.370  11.978
30322W        W98740   3.730  32.441   1.826
30323W        W98741  39.362  38.861   2.416
30324W        W98742  14.216  15.604   1.793
30325W        W98743  44.483  39.554  11.877
30326W        W98744  27.978  18.679  11.593
30327W        W98745  25.179  38.511  10.555
30328W        W98746   2.773  17.267  12.007
30329W        W98747  20.758   1.273   0.469
30330W        W98748  20.535  21.034  13.353
30331W        W98749  26.085  29.666  12.441
30332W        W98750  20.099  42.850  10.920
30333W        W98751  40.857  26.547   1.281
30334W        W98752  39.558  38.920  14.778
30335W        W98753  10.257  38.929   1.893
30336W        W98754  15.667  27.541   0.926
30337W        W98755  38.436  12.761   0.447
30338W        W98756  24.153   0.433  12.941
30339W        W98757  26.968   1.395   0.444
30340W        W98758  40.406   5.414  14.467
30341W        W98759  13.298  12.154  10.566
30342W        W98760  24.117  29.963   4.228
30343W        W98761  42.304  34.911  12.435
30344W        W98762  11.286  34.033   4.119
30345W        W98763  17.244  28.515  12.982
30346W        W98764  19.680  27.981  14.282
30347W        W98765   9.224  22.707   1.314
30348W        W98766  29.163  17.684  13.459
30349W        W98767  16.780  37.358   2.291
30350W        W98768  43.811  31.608  12.933
30351W        W98769  23.038  44.787  10.513
30352W        W98770  16.243  40.410  11.546
30353W        W98771  22.720  31.481  11.954
30354W        W98772  30.149   2.280  10.463
30355W        W98773   0.381  13.840   1.884
30356W        W98774  26.072   2.858   3.767
30357W        W98775  37.058   4.386  13.421
30358W        W98776  25.663   1.381   3.162
30359W        W98777  42.468  37.975   1.721
30360W        W98778  38.552  32.891  13.045
30361W        W98779  11.659  43.389  11.488
30362W        W98780  17.753  33.880   1.721
30363W        W98781   5.776  43.328  12.853
30364W        W98782   0.911  29.511  11.113
30365W        W98783  35.590  42.419  10.958
30366W        W98784  18.078  19.191   0.964
30367W        W98785   3.390  43.787  14.297
30368W        W98786  38.398  33.918   4.322
30369W        W98787  43.979  38.473  11.497
30370W        W98788  27.157  24.506   1.893
30371W        W98789  35.584  34.429   2.240
30372W        W98790  43.491  22.696  12.980
30373W        W98791  31.576   3.851  10.502
30374W        W98792  33.380  12.669  11.026
30375W        W98793  30.435  42.357  10.575
30376W        W98794  29.022  21.623  13.488
30377W        W98795  33.473   0.907   3.301
30378W        W98796   9.343  34.573  14.402
30379W        W98797  28.585   9.158  12.352
30380W        W98798  28.014   1.246   2.338
30381W        W98799  34.521  34.915   2.218
30382W        W98800  40.879  21.055   3.153
30383W        W98801   2.807  17.743  10.460
30384W        W98802  22.670  41.912   3.203
30385W        W98803  35.414  34.428   2.734
30386W        W98804   6.894  12.278  13.011
30387W        W98805  32.435  37.036  11.393
30388W        W98806   9.322  36.996   4.629
30389W        W98807  24.977   1.295   3.732
30390W        W98808  19.703  32.032  13.516
30391W        W98809  40.008  26.150   3.633
30392W        W98810  17.179  23.991  11.538
30393W        W98811  10.140  24.601   1.371
30394W        W98812   8.691  22.123  14.510
30395W        W98813  42.512  41.464   0.403
30396W        W98814  27.672  33.469   2.697
30397W        W98815  42.791   3.224  14.882
30398W        W98816  30.440   3.887  10.545
30399W        W98817   6.825  10.704   3.857
30400W        W98818   7.224  18.592  12.399
30401W        W98819   5.218  29.429  10.541
30402W        W98820  21.694  22.626  10.463
30403W        W98821  21.631   0.435  10.920
30404W        W98822   1.942  23.016  12.513
30405W        W98823  29.621  34.425   4.707
30406W        W98824  27.153   8.389  10.477
30407W        W98825  40.344  29.447   4.724
30408W        W98826  12.226  32.896   2.355
30409W        W98827  11.289   0.447  10.896
30410W        W98828  41.822  12.321  12.029
30411W        W98829  29.147  10.299   0.400
30412W        W98830   7.762  15.635  12.062
30413W        W98831  40.387  19.731  11.882
30414W        W98832  36.084  31.993  10.544
30415W        W98833  32.938   7.305   3.797
30416W        W98834   5.697  37.975   1.429
30417W        W98835   3.275  16.150   4.143
30418W        W98836  10.683  23.091  13.360
30419W        W98837  44.315  16.245  13.826
30420W        W98838   7.192  30.414  11.124
30421W        W98839   7.705  40.516  11.029
30422W        W98840   3.940  32.003   2.197
30423W        W98841   2.917  25.099   0.737
30424W        W98842  17.073  26.457   2.885
30425W        W98843  15.141  17.228  10.530
30426W        W98844  40.351  13.296   3.862
30427W        W98845  31.961  33.119  14.469
30428W        W98846  12.190   9.754   4.351
30429W        W98847  10.296  17.600  10.559
30430W        W98848  19.206  17.681   3.373
30431W        W98849  11.300  15.814   4.144
30432W        W98850  18.553  23.491   4.125
30433W        W98851  30.943  12.701  10.908
30434W        W98852   5.370  40.989  10.460
30435W        W98853   4.228  30.573  14.859
30436W        W98854  43.841  11.721   4.674
30437W        W98855  25.096  24.066   0.458
30438W        W98856  33.491   8.794   0.412
30439W        W98857  33.932  36.390   2.848
30440W        W98858   4.206  20.092   0.413
30441W        W98859  10.242  28.618  11.597
30442W        W98860  22.128  32.959   0.251
30443W        W98861  34.511  19.217  14.893
30444W        W98862   0.467  42.003   0.948
30445W        W98863   7.810  14.731   4.722
30446W        W98864  22.543  36.465  14.280
30447W        W98865  18.237   7.301  14.289
30448W        W98866  15.227  15.794  13.322
30449W        W98867  19.215  42.850  13.963
30450W        W98868  17.668  36.033  11.943
30451W        W98869  41.325   5.712   1.899
30452W        W98870  21.530  39.531  13.432
30453W        W98871  29.069  23.059   4.705
30454W        W98872  32.133  43.931  10.579
30455W        W98873  32.634   9.807  14.512
30456W        W98874  42.976  21.736   0.868
30457W        W98875  30.614  16.306  12.921
30458W        W98876  35.601  15.087  11.075
30459W        W98877  39.488  36.532  11.065
30460W        W98878  42.919  29.142  14.409
30461W        W98879  40.839  43.784  11.426
30462W        W98880  44.832  25.526  12.841
30463W        W98881   8.813  21.076  10.530
30464W        W98882  18.613  39.461  12.846
30465W        W98883   4.787  37.408   2.302
30466W        W98884  17.192  32.004   3.172
30467W        W98885  22.076   1.472  12.472
30468W        W98886  43.384   5.769   4.297
30469W        W98887  37.900  14.765   2.352
30470W        W98888  41.441  22.659   4.333
30471W        W98889  31.093  15.690   4.760
30472W        W98890  33.995  24.101   2.248
30473W        W98891  25.602  26.479  11.511
30474W        W98892  37.565   9.358   0.851
30475W        W98893  38.841  24.187   1.337
30476W        W98894  33.938  15.589  13.518
30477W        W98895  27.612  40.351   4.670
30478W        W98896  41.298   1.467   4.209
30479W        W98897  30.093  25.058  14.365
30480W        W98898   3.819  39.359  11.953
30481W        W98899   4.899  19.727   3.364
30482W        W98900  14.229  42.299  12.579
30483W        W98901  31.099   9.881  11.002
30484W        W98902  42.332  37.391   1.884
30485W        W98903  24.533  31.935  12.012
30486W        W98904  41.845  40.028  13.798
30487W        W98905   9.658   9.726  12.886
30488W        W98906  24.673  41.860   3.370
30489W        W98907  41.444   1.824   2.787
30490W        W98908   6.770   5.806   1.749
30491W        W98909  42.447  44.923   1.779
30492W        W98910  20.641   7.184  13.521
30493W        W98911  14.820   5.900   3.740
30494W        W98912  20.653  23.058   9.949
30495W        W98913  34.867  25.471   0.483
30496W        W98914  25.677  28.024   1.310
30497W        W98915  20.754  26.587  12.046
30498W        W98916  29.628  28.151  13.403
30499W        W98917  37.059  35.487  12.997
30500W        W98918  12.274   7.802   4.197
30501W        W98919  22.095  35.552   0.353
30502W        W98920  40.879  24.675  14.469
30503W        W98921  18.175  20.208  14.311
30504W        W98922   2.402  12.845   1.825
30505W        W98923  22.581   4.938   0.739
30506W        W98924  44.774  20.174  10.893
30507W        W98925  33.971  33.524   2.737
30508W        W98926  41.042  11.166  12.851
30509W        W98927  18.148  39.057  12.915
30510W        W98928  27.061  23.089   0.941
30511W        W98929  20.102  21.582   2.364
30512W        W98930  19.772  35.871   0.807
30513W        W98931  12.674  16.304   0.804
30514W        W98932   3.775  12.855   4.781
30515W        W98933  16.759  30.982   3.768
30516W        W98934  32.582  12.709  11.002
30517W        W98935   7.733  21.242   4.177
30518W        W98936  26.476   5.306  12.378
30519W        W98937  29.495  32.402  13.388
30520W        W98938   7.738  19.199  10.594
30521W        W98939   3.356  31.040  11.891
30522W        W98940   3.278  19.581  12.424
30523W        W98941  11.162  39.392  11.114
30524W        W98942  44.275   5.695   0.379
30525W        W98943  10.146  28.948  14.897
30526W        W98944  39.524  18.737   3.165
30527W        W98945  43.983  34.493   0.444
30528W        W98946   0.797  13.344  13.029
30529W        W98947   2.864  39.035  14.962
30530W        W98948  41.913  23.552   2.807
30531W        W98949  37.339  14.231  10.466
30532W        W98950  43.948  16.228   3.387
30533W        W98951   5.774  43.432   1.310
30534W        W98952   5.319  33.571  11.003
30535W        W98953  32.626  29.660   2.233
30536W        W98954  13.244  18.119  12.494
30537W        W98955  28.930  24.712   1.819
30538W        W98956   7.399  25.627  13.870
30539W        W98957  34.604  11.625  10.421
30540W        W98958  35.363  10.368   3.169
30541W        W98959  29.014  10.819  14.330
30542W        W98960  16.316  16.710   2.242
30543W        W98961  14.185  38.881  14.861
30544W        W98962  18.091  30.050  13.547
30545W        W98963  31.129  36.030   1.695
30546W        W98964  40.452   6.797   1.393
30547W        W98965  21.094  24.626  11.126
30548W        W98966   9.305  37.392  14.002
30549W        W98967  23.153  16.163  14.903
30550W        W98968   6.864  35.389   2.705
30551W        W98969  26.682   4.414   2.183
30552W        W98970  10.822   3.427   4.607
30553W        W98971  39.815  40.916   1.271
30554W        W98972  12.755  43.425   3.768
30555W        W98973  15.750  23.628  11.886
30556W        W98974  13.723  35.985   0.803
30557W        W98975  26.991  23.137   0.242
30558W        W98976  43.960  35.036   0.419
30559W        W98977  10.384   4.322  12.934
30560W        W98978  10.806  31.085  12.921
30561W        W98979  40.802  32.484  10.981
30562W        W98980   3.282   2.860  14.801
30563W        W98981  16.622   2.873  11.898
30564W        W98982  30.418  40.475  10.995
30565W        W98983  42.835  12.717  11.106
30566W        W98984  13.770  37.414   1.411
30567W        W98985  25.204  28.104  14.836
30568W        W98986  35.568   2.314   2.812
30569W        W98987  26.504   1.952   3.317
30570W        W98988  32.440   8.815   2.282
30571W        W98989  31.623  23.202   2.895
30572W        W98990  20.137  40.039  10.413
30573W        W98991  25.518  31.541  12.050
30574W        W98992  32.513  27.102  12.442
30575W        W98993  31.646  10.660   1.811
30576W        W98994  15.616  12.292  14.019
30577W        W98995  16.798   3.235   1.292
30578W        W98996  23.649   1.460   1.895
30579W        W98997  19.212   0.749   2.701
30580W        W98998  44.452  40.433  10.896
30581W        W98999  41.361  37.428   2.181
30582W        W99000  34.924  10.384  10.501
30583W        W99001  18.648   0.826  12.090
30584W        W99002   9.874  22.529   4.617
30585W        W99003  42.359  30.917   1.913
30586W        W99004   5.382  33.626   1.856
30587W        W99005  25.186  21.697   2.185
30588W        W99006  43.412   5.768  13.500
30589W        W99007  10.837  29.665  13.031
30590W        W99008  28.480   4.388  14.947
30591W        W99009  22.028  30.942   2.712
30592W        W99010  10.146  10.330  11.999
30593W        W99011  24.187  22.074   3.282
30594W        W99012   2.360  20.611  11.114
30595W        W99013   0.964  44.756   4.835
30596W        W99014  38.418  17.770  11.911
30597W        W99015  27.197  35.388  11.940
30598W        W99016   5.734  17.630   4.791
30599W        W99017  40.972  44.767   4.330
30600W        W99018  43.915   4.269   1.355
30601W        W99019   8.790  18.626   1.788
30602W        W99020  23.202  37.064  10.450
30603W        W99021  15.168  33.000   0.862
30604W        W99022  34.596  21.604   2.349
30605W        W99023  29.543  43.964   1.858
30606W        W99024   6.793  15.693   2.720
30607W        W99025  31.409  30.483  12.570
30608W        W99026   1.830  22.598   3.654
30609W        W99027  19.550  15.289  12.980
30610W        W99028  22.690  44.503   1.795
30611W        W99029  22.153  34.930  11.047
30612W        W99030  38.352   3.329   1.231
30613W        W99031  33.390  44.271   2.687
30614W        W99032  14.750  21.637  11.038
30615W        W99033   5.744  28.593  10.897
30616W        W99034   9.871  31.133   2.372
30617W        W99035  39.557  39.809   4.756
30618W        W99036  43.416  16.792  12.024
30619W        W99037  20.155  43.944   1.296
30620W        W99038  15.765   7.767  13.474
30621W        W99039  15.226   7.288  13.383
30622W        W99040  30.047  23.713   4.178
30623W        W99041  24.068  37.346   0.321
30624W        W99042  35.476   9.339   3.679
30625W        W99043  10.830  15.598  10.082
30626W        W99044  19.616   8.349   2.832
30627W        W99045   9.751   5.407  12.339
30628W        W99046   7.348   1.373   1.718
30629W        W99047  21.209  12.715   0.449
30630W        W99048  35.997  16.773   4.760
30631W        W99049  42.330  39.533   4.277
30632W        W99050  11.241   7.744  10.889
30633W        W99051  33.553  18.290   3.822
30634W        W99052   9.671  20.732  11.558
30635W        W99053  26.497   5.335   2.327
30636W        W99054  41.010  44.989   3.220
30637W        W99055  24.538  39.840  14.383
30638W        W99056  34.975   7.775  11.980
30639W        W99057   6.875  24.088   1.763
30640W        W99058  11.660  28.068   9.978
30641W        W99059  22.014  27.009   4.647
30642W        W99060  43.794  41.438  11.478
30643W        W99061  44.789  33.998   1.895
30644W        W99062  25.556   5.218   0.791
30645W        W99063  39.522  16.743   2.742
30646W        W99064   1.270  43.924  14.304
30647W        W99065  44.319  23.681  12.484
30648W        W99066  29.100   5.734   1.416
30649W        W99067  19.596  38.944   4.828
30650W        W99068   8.777   8.788  13.472
30651W        W99069  20.271  43.005   4.688
30652W        W99070   6.390   6.878  11.424
30653W        W99071  22.589   8.283   0.947
30654W        W99072  35.387   7.319  11.424
30655W        W99073  10.632  13.192  12.448
30656W        W99074  24.106  17.167   5.170
30657W        W99075  43.286  17.762  14.295
30658W        W99076   8.832  25.695   1.898
30659W        W99077  18.153  39.920  11.483
30660W        W99078  38.045  21.150   3.375
30661W        W99079  15.132  38.489  11.546
30662W        W99080  34.599  41.922   1.735
30663W        W99081   4.260   2.319  14.822
30664W        W99082  39.980  26.955  14.441
30665W        W99083  19.149   2.769   3.629
30666W        W99084  24.005   5.212  14.399
30667W        W99085   4.704  37.844   3.190
30668W        W99086  31.917  22.689   3.679
30669W        W99087  24.636  10.693  14.836
30670W        W99088  33.606  44.975  13.309
30671W        W99089  41.890   4.294   2.294
30672W        W99090  38.471  19.718   2.293
30673W        W99091  19.116  40.368   0.949
30674W        W99092   9.195   6.228  10.989
30675W        W99093  22.687  14.628   1.762
30676W        W99094  10.292  10.811  12.066
30677W        W99095  23.728  24.687  10.908
30678W        W99096  38.841  34.375   5.305
30679W        W99097  44.883   4.434  11.959
30680W        W99098  15.089   9.731   1.388
30681W        W99099  29.571  13.332   2.418
30682W        W99100  40.003  23.113  12.480
30683W        W99101  34.543  36.908   4.798
30684W        W99102  19.753   4.744   1.935
30685W        W99103  14.165  10.816   2.764
30686W        W99104   4.746  13.322   4.337
30687W        W99105  19.611  12.823   1.698
30688W        W99106   0.797   8.839   9.950
30689W        W99107  22.107  30.920  13.942
30690W        W99108  35.877  17.233   2.209
30691W        W99109   6.872  10.277  13.318
30692W        W99110  21.152  14.208   1.782
30693W        W99111   2.362  39.396   3.754
30694W        W99112  34.116  33.413  13.955
30695W        W99113  26.988  28.583  11.386
30696W        W99114  24.509  40.047  14.845
30697W        W99115  36.011  37.352   3.666
30698W        W99116  26.624  41.940   5.109
30699W        W99117  30.969  18.232  11.911
30700W        W99118   9.181  35.887  12.535
30701W        W99119  35.043   3.392  12.928
30702W        W99120  37.862  30.912  14.870
30703W        W99121  44.868  35.410   1.441
30704W        W99122  26.659   8.261  10.928
30705W        W99123  22.509   3.344   1.233
30706W        W99124  22.632   9.326  14.879
30707W        W99125   6.840  23.236  10.971
30708W        W99126  30.458  37.874   2.832
30709W        W99127   0.902   9.358  12.427
30710W        W99128   1.887  23.143  10.120
30711W        W99129  44.876  33.013   4.174
30712W        W99130  15.765  30.121   4.311
30713W        W99131  40.539  15.314  10.548
30714W        W99132   2.322  29.620   3.732
30715W        W99133  21.653   1.378  13.885
30716W        W99134   4.450  24.063  12.836
30717W        W99135  38.480  19.236  13.380
30718W        W99136  19.664  40.891   4.253
30719W        W99137   3.292  20.264  12.903
30720W        W99138  35.440   5.332  11.013
30721W        W99139  37.017  41.788  11.034
30722W        W99140   3.343  19.255  14.906
30723W        W99141  29.462  30.925  13.505
30724W        W99142  14.694  15.278  10.914
30725W        W99143   3.772  16.800  14.856
30726W        W99144  27.178  12.351   2.700
30727W        W99145  42.867   8.362   1.344
30728W        W99146  35.994  35.582   1.904
30729W        W99147  27.063  36.495   1.441
30730W        W99148  12.154  39.351   1.442
30731W        W99149  38.969  15.784  14.009
30732W        W99150  40.478  43.881  14.929
30733W        W99151   6.236  39.480   2.824
30734W        W99152  18.101  43.966   2.809
30735W        W99153  36.930  35.091   0.884
30736W        W99154  44.351  31.104  11.914
30737W        W99155  40.505  36.959   1.239
30738W        W99156  35.371   9.319   4.312
30739W        W99157   5.867  21.042   3.822
30740W        W99158   3.234   8.737   4.156
30741W        W99159  13.640  19.701  12.014
30742W        W99160  27.483  32.512   2.849
30743W        W99161   5.800  39.355  13.384
30744W        W99162  40.866  30.551  11.928
30745W        W99163  36.945  21.118   0.469
30746W        W99164  25.151  18.056   0.413
30747W        W99165   9.348  41.013  11.406
30748W        W99166   8.211  44.976  14.399
30749W        W99167  44.437  14.807   3.724
30750W        W99168  33.941  25.673  10.536
30751W        W99169   1.795  29.997   2.374
30752W        W99170  34.955  13.164   3.688
30753W        W99171  30.164  20.071   0.349
30754W        W99172  29.045  17.080   4.673
30755W        W99173   8.353  19.748   4.639
30756W        W99174  44.915   1.385   0.919
30757W        W99175   3.815  43.913   3.659
30758W        W99176  30.082  23.190  11.542
30759W        W99177   7.706   9.156  12.917
30760W        W99178  43.784  39.819   1.352
30761W        W99179  23.030  12.699  14.996
30762W        W99180  16.202  23.073  13.880
30763W        W99181  19.209  26.999   4.735
30764W        W99182  15.605  10.219  13.927
30765W        W99183  16.152  18.564   3.837
30766W        W99184  31.554  32.545  11.605
30767W        W99185  35.897  39.838   4.284
30768W        W99186  40.940  14.690   4.762
30769W        W99187   6.343  38.534  13.986
30770W        W99188   4.377  23.515  11.546
30771W        W99189  25.071  17.116   0.927
30772W        W99190  14.615   3.280   1.787
30773W        W99191  30.091  24.591  10.998
30774W        W99192  44.776  20.104   4.177
30775W        W99193   2.827  15.787   3.798
30776W        W99194  38.348  24.214   3.729
30777W        W99195  14.675  10.171   4.301
30778W        W99196  10.852  40.994  14.445
30779W        W99197  29.464  23.524  10.111
30780W        W99198  24.688  40.015  12.970
30781W        W99199   3.256  37.386  12.080
30782W        W99200  21.755   2.740   4.634
30783W        W99201  28.488  13.149   0.261
30784W        W99202  34.606   8.849   2.395
30785W        W99203  36.450  17.655  11.026
30786W        W99204  14.636   6.417  12.376
30787W        W99205   0.919  35.436  11.918
30788W        W99206  29.995  36.897   4.627
30789W        W99207  11.150   5.740  10.595
30790W        W99208  27.666   4.334   4.302
30791W        W99209  19.201  29.112  14.325
30792W        W99210  34.044  18.720   0.823
30793W        W99211  22.207  18.587  11.108
30794W        W99212   8.736  36.947  13.485
30795W        W99213  40.525  33.470   0.380
30796W        W99214   7.302   3.323  11.084
30797W        W99215  34.989   1.944   0.346
30798W        W99216  12.733   4.254   4.632
30799W        W99217  21.164  32.008  12.450
30800W        W99218   0.420  26.075  10.622
30801W        W99219  37.426  24.070   1.275
30802W        W99220  24.580  36.489   2.397
30803W        W99221  39.336  43.830  13.898
30804W        W99222   3.255   8.817   2.702
30805W        W99223   8.401  19.238   3.363
30806W        W99224  18.732   0.980  11.415
30807W        W99225  43.473   6.247  14.354
30808W        W99226  27.990   8.670   0.361
30809W        W99227   5.880  42.995  12.506
30810W        W99228  42.431  15.139   4.247
30811W        W99229  16.147  29.057   0.959
30812W        W99230  25.141  14.696  14.416
30813W        W99231  18.252   4.277   4.117
30814W        W99232  12.297  26.966   1.726
30815W        W99233  24.044  14.173   1.354
30816W        W99234  40.898  36.429   2.817
30817W        W99235  32.074   2.365   0.439
30818W        W99236  36.379  21.741   0.269
30819W        W99237   2.852  16.652  12.453
30820W        W99238  43.404  11.361  13.791
30821W        W99239   7.206   8.847   0.442
30822W        W99240  33.077  35.457   3.739
30823W        W99241   5.820  23.523  12.027
30824W        W99242  43.446  12.175   3.362
30825W        W99243  12.330  27.943   4.736
30826W        W99244  32.566  21.742   3.189
30827W        W99245  20.624  33.516   3.365
30828W        W99246  31.099  21.244  12.573
30829W        W99247  37.992   4.830   2.354
30830W        W99248  10.678  35.537   0.357
30831W        W99249  11.723   2.286  10.558
30832W        W99250   3.804   8.696  10.911
30833W        W99251  12.714   2.451  11.978
30834W        W99252  28.017  11.257   2.713
30835W        W99253  19.589  27.963   1.446
30836W        W99254  11.745  20.152   4.119
30837W        W99255  15.597  23.071   1.847
30838W        W99256  43.899  10.359  12.525
30839W        W99257   0.775  40.478   1.278
30840W        W99258   7.339   0.818   4.810
30841W        W99259  30.652  17.697  11.021
30842W        W99260  20.713  11.785  12.928
30843W        W99261   1.412  39.008  11.410
30844W        W99262  12.815   6.420  10.982
30845W        W99263  29.159  35.996  14.906
30846W        W99264   1.920  43.457  10.960
30847W        W99265  12.619  32.917   1.870
30848W        W99266   9.358  23.590   1.370
30849W        W99267  11.840  16.072  11.897
30850W        W99268  40.003  44.982  12.897
30851W        W99269  13.140  38.886  13.427
30852W        W99270  29.609  17.092  14.394
30853W        W99271  29.123  33.543  13.394
30854W        W99272   6.749  18.127   4.779
30855W        W99273  39.559  18.280   2.861
30856W        W99274  24.661  20.666   2.203
30857W        W99275  30.908  29.559   3.774
30858W        W99276  19.100  43.796  13.452
30859W        W99277   7.699  20.591   2.789
30860W        W99278  32.566  36.354  13.404
30861W        W99279  23.626  12.237   2.887
30862W        W99280  25.220  44.844   0.244
30863W        W99281  30.930  11.747   0.726
30864W        W99282  17.718  34.864  11.069
30865W        W99283  33.502  23.595   3.360
30866W        W99284  16.809  21.566   2.700
30867W        W99285   4.715  27.450   4.738
30868W        W99286  44.413  30.484   5.152
30869W        W99287   4.851  30.606  13.870
30870W        W99288   5.689  27.005   2.880
30871W        W99289  40.441  15.150  11.004
30872W        W99290  43.973   6.870   2.339
30873W        W99291  34.953  10.145  11.951
30874W        W99292  43.361  24.215   3.345
30875W        W99293  22.707  27.513   4.611
30876W        W99294   0.914  10.834  14.465
30877W        W99295  12.716  21.618  11.943
30878W        W99296  20.133  27.507  11.036
30879W        W99297   8.194  23.690   2.380
30880W        W99298  37.577  35.513   0.766
30881W        W99299   2.946  43.912   3.866
30882W        W99300  20.564  19.630   1.224
30883W        W99301   3.345  18.151  13.796
30884W        W99302  16.767  27.603   2.225
30885W        W99303  10.206  34.454  12.078
30886W        W99304  18.763   1.364  10.921
30887W        W99305  31.055   8.225   4.324
30888W        W99306  25.972  44.873   0.444
30889W        W99307  11.624  11.178  10.009
30890W        W99308  27.593  24.495   2.371
30891W        W99309  41.438  43.005   4.774
30892W        W99310  26.158  31.634  14.998
30893W        W99311  12.328  40.895   3.369
30894W        W99312  31.482   5.795   4.806
30895W        W99313  30.585  24.184  13.038
30896W        W99314  43.303   6.235   4.244
30897W        W99315  21.544  22.680  12.372
30898W        W99316  23.572  19.757   3.240
30899W        W99317  39.504   9.252  10.996
30900W        W99318  42.867  19.043   4.602
30901W        W99319  35.457  44.910  11.485
30902W        W99320  33.906  19.184  13.336
30903W        W99321  30.972   9.165   1.445
30904W        W99322  34.994  30.161  13.353
30905W        W99323  33.053  37.894  11.481
30906W        W99324  24.063  32.411   2.319
30907W        W99325  38.041  11.204  14.502
30908W        W99326   9.811  19.204   2.342
30909W        W99327   4.776  17.128  10.578
30910W        W99328  17.582  31.544   4.771
30911W        W99329   7.841  40.968  11.577
30912W        W99330  21.107  21.225   0.335
30913W        W99331  34.605   4.258  10.924
30914W        W99332  27.670  23.152   1.787
30915W        W99333   0.776  19.169   1.895
30916W        W99334  36.474  22.067  13.450
30917W        W99335  20.267  39.338   1.241
30918W        W99336  31.908  27.030  14.465
30919W        W99337  20.243   4.723  12.364
30920W        W99338  44.932   9.876   3.696
30921W        W99339  32.608  21.535   1.237
30922W        W99340   5.834   1.310   1.811
30923W        W99341  16.079  14.155   4.340
30924W        W99342  24.183  20.089  10.994
30925W        W99343   2.365  40.965   3.289
30926W        W99344  11.781  44.902  12.001
30927W        W99345   8.189   2.915  13.868
30928W        W99346  11.653  44.323   5.104
30929W        W99347  44.971  28.653   4.172
30930W        W99348  17.609   6.832  11.058
30931W        W99349  16.260  41.293  13.488
30932W        W99350  28.608  42.970   4.810
30933W        W99351  35.359   0.847  13.512
30934W        W99352   6.325  16.772  11.437
30935W        W99353  23.634  41.500   4.654
30936W        W99354  10.341  23.228  13.005
30937W        W99355  34.418   5.216   2.382
30938W        W99356   1.957  17.066   4.119
30939W        W99357  22.137  16.721  11.431
30940W        W99358  44.456  31.582  13.835
30941W        W99359  28.635  31.931  10.063
30942W        W99360  17.721  39.386  14.758
30943W        W99361  28.503  39.363  12.551
30944W        W99362  30.434  25.646   3.776
30945W        W99363  38.338  44.809  14.814
30946W        W99364  21.192  40.958   0.358
30947W        W99365  30.161   6.923  13.881
30948W        W99366  17.213   1.374   2.372
30949W        W99367  18.779  34.876   4.685
30950W        W99368  25.572   2.796  12.431
30951W        W99369   1.442  28.054  14.010
30952W        W99370  37.065  21.595  14.761
30953W        W99371  19.276  35.456   1.839
30954W        W99372  32.511   4.254  11.548
30955W        W99373  22.615  35.962  13.998
30956W        W99374  42.358   7.674   2.749
30957W        W99375   6.426  39.938  12.427
30958W        W99376   4.388  23.543   0.326
30959W        W99377  13.319  29.494   4.767
30960W        W99378  18.697  31.062   1.240
30961W        W99379  30.560   9.751   1.802
30962W        W99380   0.831   2.825  11.088
30963W        W99381  19.068  35.486  11.503
30964W        W99382   7.689   1.808  14.969
30965W        W99383  10.873  32.007  10.918
30966W        W99384  39.053  27.141  14.982
30967W        W99385  37.942  41.900   1.444
30968W        W99386  27.042  25.976   2.729
30969W        W99387  33.559  29.027   3.705
30970W        W99388   2.945  24.634  13.326
30971W        W99389  29.009  20.613   3.235
30972W        W99390  34.404   0.402   4.211
30973W        W99391  42.316  17.772  13.932
30974W        W99392  25.614  37.939   4.300
30975W        W99393  22.629  12.272  11.483
30976W        W99394  16.128  42.500   4.612
30977W        W99395  41.318  39.981   0.884
30978W        W99396  18.649  42.994  13.802
30979W        W99397   4.902  17.122   0.800
30980W        W99398  32.399  22.067  13.975
30981W        W99399  24.721   4.907   2.212
30982W        W99400  39.543  22.718  14.969
30983W        W99401  25.658  12.761   0.355
30984W        W99402   0.461  27.150   2.853
30985W        W99403   4.825  42.406   4.690
30986W        W99404  36.077   7.683  10.896
30987W        W99405  13.733  27.188   1.310
30988W        W99406  14.118  27.474   3.164
30989W        W99407  24.569  28.594   2.787
30990W        W99408  32.429  37.004  14.025
30991W        W99409  36.981  30.595  12.480
30992W        W99410  12.757  32.569   0.846
30993W        W99411   4.274  11.371   3.775
30994W        W99412  24.624  21.512   1.739
30995W        W99413  37.000  38.019  13.338
30996W        W99414   2.413  10.679  10.940
30997W        W99415  40.023  43.781   2.304
30998W        W99416   8.890   3.254  10.992
30999W        W99417  35.381  27.641  11.491
31000W        W99418  32.894  29.454  12.375
31001W        W99419  38.975  13.814   2.719
31002W        W99420  36.433  38.046   1.248
31003W        W99421  24.110  35.948   2.381
31004W        W99422  15.663  32.021   5.142
31005W        W99423   2.779   7.408   0.909
31006W        W99424  20.047  15.129   4.296
31007W        W99425  40.456   2.402  14.982
31008W        W99426  33.399  17.742   4.231
31009W        W99427   5.868  30.639   2.192
31010W        W99428  16.164   0.852  10.606
31011W        W99429  22.223  12.328  12.348
31012W        W99430  18.646  24.032   5.276
31013W        W99431  21.637   8.870  14.805
31014W        W99432  22.118  33.908  10.990
31015W        W99433  44.008  34.447  11.906
31016W        W99434  29.446  23.718   3.834
31017W        W99435   4.898  12.335   3.359
31018W        W99436  39.039  39.005  10.574
31019W        W99437  24.496  28.172  13.795
31020W        W99438  43.311   5.325  13.903
31021W        W99439  35.432  11.353   0.404
31022W        W99440  16.618  22.556  14.818
31023W        W99441  25.518  43.803   0.320
31024W        W99442  43.487  33.069  13.052
31025W        W99443   4.768   9.796  10.121
31026W        W99444   9.795  40.025  14.862
31027W        W99445  34.901  25.182  12.990
31028W        W99446  23.238   7.322  11.063
31029W        W99447  27.032  38.004  11.543
31030W        W99448  30.633  33.976   3.659
31031W        W99449  33.486   8.839   4.180
31032W        W99450  18.230  33.406  13.471
31033W        W99451   4.225   9.730  11.515
31034W        W99452  28.946  15.630  13.922
31035W        W99453  27.523  39.902  10.602
31036W        W99454  12.356   5.797   3.786
31037W        W99455   2.826  19.751  13.331
31038W        W99456  24.975  23.989   4.261
31039W        W99457  30.544  26.027  11.437
31040W        W99458  18.787  44.800  10.644
31041W        W99459  35.987   6.845   0.249
31042W        W99460  25.612  35.452   3.193
31043W        W99461  41.960  27.056  14.910
31044W        W99462  35.852   9.219  14.952
31045W        W99463  44.318  26.021   3.347
31046W        W99464  43.017  23.026   5.318
31047W        W99465  17.710  29.537   3.225
31048W        W99466  15.280  33.992   2.278
31049W        W99467  43.383  32.914  14.508
31050W        W99468  21.209  20.036   0.761
31051W        W99469  19.238  37.910   4.258
31052W        W99470  36.014   0.406   2.205
31053W        W99471  19.050  42.814  12.042
31054W        W99472  13.303  32.124  11.418
31055W        W99473  32.542  24.590   3.213
31056W        W99474   5.338  28.498  13.970
31057W        W99475   5.861  19.200  11.866
31058W        W99476  31.472  17.179   0.728
31059W        W99477  20.704  37.356   1.866
31060W        W99478   0.420  32.958   3.674
31061W        W99479   9.657  23.164  14.961
31062W        W99480  29.545   6.765  10.538
31063W        W99481  28.555  30.479   4.171
31064W        W99482  17.076  37.029  14.841
31065W        W99483  23.142  40.396  10.610
31066W        W99484  13.181  15.137  14.773
31067W        W99485  34.493  21.647  11.114
31068W        W99486  16.704  19.695  13.796
31069W        W99487  41.994  31.066   1.879
31070W        W99488  17.704  17.653   4.633
31071W        W99489   5.743  24.508   0.426
31072W        W99490  16.281  20.582  11.535
31073W        W99491   7.243  16.257   3.289
31074W        W99492   3.372  38.065  12.540
31075W        W99493  38.824  10.298   2.250
31076W        W99494  17.269  23.000  10.070
31077W        W99495  41.460  18.752  11.047
31078W        W99496  15.709  32.445  13.946
31079W        W99497   9.351   3.716   4.626
31080W        W99498  27.120  32.125  12.363
31081W        W99499  34.567  32.971   1.291
31082W        W99500  41.516   4.308  12.032
31083W        W99501  23.148  30.135  11.031
31084W        W99502   2.256  13.690  14.303
31085W        W99503  15.235  15.715   4.297
31086W        W99504  16.612  31.424   0.289
31087W        W99505  12.622  15.211   4.225
31088W        W99506  39.526   0.890  13.853
31089W        W99507  30.012  37.373  13.051
31090W        W99508  25.520  43.893   1.837
31091W        W99509  24.011   2.892  13.537
31092W        W99510  14.140  27.128   1.716
31093W        W99511   3.436  22.244  10.405
31094W        W99512  20.551  24.660  12.513
31095W        W99513   5.430  41.008   3.255
31096W        W99514  14.254  32.622  10.927
31097W        W99515   1.444  38.460   2.867
31098W        W99516  14.107  24.484  13.416
31099W        W99517  13.278  27.503  13.979
31100W        W99518   3.339  29.596   4.597
31101W        W99519  25.714  29.972   1.827
31102W        W99520   1.958  39.939  12.550
31103W        W99521  23.672  33.067  10.474
31104W        W99522  24.685  29.645   4.264
31105W        W99523   7.184   4.393  14.791
31106W        W99524  13.311  14.161  11.525
31107W        W99525  34.875  20.225   0.360
31108W        W99526  35.467  37.932  13.532
31109W        W99527  23.574  42.838   0.262
31110W        W99528  19.262  14.714   9.631
31111W        W99529  33.420  33.575   5.150
31112W        W99530  19.152  10.804   1.822
31113W        W99531  31.006  36.018  12.523
31114W        W99532  24.097  32.561  10.929
31115W        W99533  38.894   0.299  11.864
31116W        W99534  22.169  12.250   1.270
31117W        W99535   4.698   3.782   2.375
31118W        W99536  44.771  44.438   0.852
31119W        W99537  10.770  33.986  10.415
31120W        W99538  39.490   7.888   4.147
31121W        W99539   9.665  17.771  13.473
31122W        W99540  22.225  13.135   2.265
31123W        W99541  44.496  39.985  12.529
31124W        W99542   8.715  22.627   4.180
31125W        W99543  11.209  12.322   0.955
31126W        W99544   9.388  22.521  14.890
31127W        W99545  24.048   4.291  13.507
31128W        W99546  38.489  27.018   4.804
31129W        W99547   5.707  29.019   1.436
31130W        W99548  32.407   4.214   2.689
31131W        W99549  36.845   6.317  12.456
31132W        W99550   8.355  10.839   1.386
31133W        W99551   1.794  41.037  12.410
31134W        W99552   1.251   3.778   2.877
31135W        W99553  18.168  15.677  11.371
31136W        W99554   3.272  40.033   1.316
31137W        W99555  42.914  31.640   1.261
31138W        W99556  36.864  37.364   2.810
31139W        W99557  23.585  25.095  12.086
31140W        W99558   7.869  28.003   3.632
31141W        W99559  26.987  33.892   2.327
31142W        W99560  10.765  20.560   3.837
31143W        W99561  19.157   5.197   1.737
31144W        W99562  30.137  14.310   2.373
31145W        W99563  30.632   6.267   1.234
31146W        W99564  13.185   6.797  11.127
31147W        W99565  23.670  27.533  11.515
31148W        W99566  28.595   0.874  10.995
31149W        W99567  15.166  13.842   3.291
31150W        W99568  39.521  41.330   0.408
31151W        W99569   6.297  34.073   3.368
31152W        W99570  13.691  27.106   1.878
31153W        W99571  24.138  22.058  13.917
31154W        W99572   4.325  20.252   1.826
31155W        W99573  36.360  44.878  13.538
31156W        W99574  31.035  29.936  14.455
31157W        W99575  20.124   5.251  14.769
31158W        W99576  28.055  24.631  13.830
31159W        W99577  20.232  29.590   3.869
31160W        W99578   4.752  14.217   1.369
31161W        W99579  33.937   0.916  12.522
31162W        W99580  39.551  27.638   2.856
31163W        W99581   2.755  35.922  12.470
31164W        W99582   8.822   6.742  12.509
31165W        W99583  16.223   6.189   4.830
31166W        W99584  32.410   3.944   3.636
31167W        W99585  21.558   2.240  11.574
31168W        W99586  22.659   0.343   0.777
31169W        W99587  24.088  26.030  11.995
31170W        W99588  39.868  13.249   3.277
31171W        W99589  37.011  23.040   2.284
31172W        W99590   2.451  29.563  14.276
31173W        W99591  34.468  16.134  13.525
31174W        W99592  13.288  33.041  12.472
31175W        W99593  36.928  20.078  11.932
31176W        W99594  34.981  37.019  14.275
31177W        W99595  33.999  16.745  13.823
31178W        W99596  33.052   1.361  11.996
31179W        W99597  28.959  19.243   4.133
31180W        W99598  38.877  42.890  14.371
31181W        W99599  37.058   2.783  10.953
31182W        W99600   0.474  14.754  13.497
31183W        W99601  40.374  31.045  13.963
31184W        W99602  25.573  35.877   5.156
31185W        W99603   0.410  34.494  11.421
31186W        W99604  37.973  30.641   1.233
31187W        W99605  18.691   8.864   3.164
31188W        W99606  26.695  37.001  14.292
31189W        W99607  24.502  20.133   2.872
31190W        W99608  17.174  31.591   4.309
31191W        W99609  19.751  14.663  13.366
31192W        W99610   8.205  20.580   0.363
31193W        W99611   0.297  44.847   0.800
31194W        W99612  13.303  31.525  14.956
31195W        W99613  14.109  37.933  14.760
31196W        W99614  16.230   7.829  14.356
31197W        W99615  31.123  26.631  10.443
31198W        W99616  19.168  38.432   1.711
31199W        W99617  27.165   8.226  11.970
31200W        W99618  34.481  15.733  12.495
31201W        W99619  23.596  24.986  14.810
31202W        W99620  38.496  19.715   4.120
31203W        W99621  23.493  22.082  12.466
31204W        W99622  14.248   1.945   0.793
31205W        W99623  17.711  22.705  12.842
31206W        W99624  22.521  14.119  14.348
31207W        W99625  27.554   0.465  14.027
31208W        W99626   9.378  44.957  11.436
31209W        W99627  23.060   8.729   4.805
31210W        W99628   1.945  28.972  12.576
31211W        W99629  29.619   3.808  14.421
31212W        W99630  25.543  22.020  10.929
31213W        W99631  17.118  39.552  12.947
31214W        W99632  28.045  27.552   0.935
31215W        W99633   0.389  39.348  12.966
31216W        W99634  29.478  43.384  11.920
31217W        W99635  12.246  31.062   4.628
31218W        W99636  16.784  32.417  14.829
31219W        W99637  39.057  18.599  11.424
31220W        W99638  44.992  44.300   1.894
31221W        W99639  34.426  14.694   0.321
31222W        W99640  26.173  14.275   3.724
31223W        W99641  40.415  13.684   3.693
31224W        W99642   5.738  25.645   0.855
31225W        W99643  13.107  12.729   5.280
31226W        W99644  20.543  44.937  12.563
31227W        W99645   2.945  35.421   2.261
31228W        W99646  24.635  31.084   0.338
31229W        W99647   5.352   7.287   3.235
31230W        W99648  29.078  23.140  11.577
31231W        W99649   3.365  43.802   3.317
31232W        W99650  25.047   7.686  13.941
31233W        W99651  27.105  20.605  12.930
31234W        W99652  14.696   8.816   0.824
31235W        W99653  34.893   2.442  10.425
31236W        W99654  42.912   1.325   4.602
31237W        W99655   5.238   3.884   3.830
31238W        W99656   6.755  43.835  10.455
31239W        W99657  40.969  25.510  14.822
31240W        W99658  14.289  39.027   1.230
31241W        W99659  19.559  12.784  14.764
31242W        W99660  43.321  43.847   2.416
31243W        W99661   4.792  38.430   2.274
31244W        W99662  38.964  17.698   0.824
31245W        W99663   0.302  26.997   4.299
31246W        W99664  33.626   4.752  14.886
31247W        W99665  11.185   5.707   3.812
31248W        W99666  22.501  14.094   1.321
31249W        W99667   8.173  27.485   4.318
31250W        W99668  20.131   3.428  11.916
31251W        W99669  43.841  15.583  13.382
31252W        W99670  44.453   0.338  11.597
31253W        W99671  10.196   6.362   2.323
31254W        W99672  43.940  42.925   3.788
31255W        W99673  25.022  17.624   3.812
31256W        W99674  10.198  28.681  12.560
31257W        W99675  32.999  41.318   1.361
31258W        W99676  36.500  41.459  13.453
31259W        W99677   0.905  25.585   0.955
31260W        W99678  13.811  44.362  12.372
31261W        W99679  31.503  11.144  12.917
31262W        W99680  14.764  31.014   0.472
31263W        W99681  38.904  11.162  13.323
31264W        W99682  18.617  16.809  13.503
31265W        W99683   5.743  42.480  12.465
31266W        W99684  35.360  26.193   2.333
31267W        W99685  31.403  36.371  12.897
31268W        W99686  22.564   1.906   1.395
31269W        W99687  14.228  35.104   1.766
31270W        W99688  16.190   4.901  13.450
31271W        W99689   8.788   4.767  12.434
31272W        W99690   6.292  18.161  13.926
31273W        W99691  37.429  16.640   0.822
31274W        W99692  26.496  43.998   1.214
31275W        W99693   5.922  34.873   1.426
31276W        W99694  21.060  21.083   1.426
31277W        W99695  12.327  16.679   4.690
31278W        W99696  12.762   7.708   1.365
31279W        W99697  12.294  18.677  11.886
31280W        W99698  21.740  41.967  10.436
31281W        W99699  35.045  28.159   4.795
31282W        W99700  26.007  11.194   4.304
31283W        W99701  21.040  26.696  12.896
31284W        W99702   3.302  44.402   2.250
31285W        W99703  20.177  31.020   1.294
31286W        W99704  23.155  37.048   1.220
31287W        W99705  31.624  14.785  14.789
31288W        W99706   0.285   8.260   0.928
31289W        W99707  31.983  15.284   3.789
31290W        W99708  21.259  40.499   0.958
31291W        W99709  17.169   9.644  12.876
31292W        W99710  22.124   9.748  13.845
31293W        W99711  35.028   1.804  14.498
31294W        W99712   8.897  29.146  14.456
31295W        W99713  10.865  11.129  12.049
31296W        W99714  42.456   8.800  11.046
31297W        W99715  43.391  34.575  14.992
31298W        W99716  20.112  26.640   5.610
31299W        W99717  25.988   2.344  10.491
31300W        W99718  44.818  12.308  12.077
31301W        W99719   5.431  19.718  14.391
31302W        W99720   9.782  25.137   3.278
31303W        W99721  26.996   1.405   1.358
31304W        W99722  22.220  39.944  12.008
31305W        W99723   4.424  14.821  12.967
31306W        W99724  38.901  37.027  11.518
31307W        W99725  43.940   4.215  13.955
31308W        W99726   5.268  18.159   2.391
31309W        W99727  40.976  28.586  11.488
31310W        W99728  18.089  14.740  14.909
31311W        W99729  27.648  26.116  14.816
31312W        W99730  14.759  13.689  11.530
31313W        W99731  40.912  16.577   2.389
31314W        W99732  27.556  15.183  11.926
31315W        W99733  10.291  20.723   1.886
31316W        W99734  40.451  19.681  12.350
31317W        W99735  35.394  10.175  10.941
31318W        W99736   3.228  23.629   4.734
31319W        W99737  27.544  22.153   3.729
31320W        W99738   1.459  26.177   2.216
31321W        W99739   5.397   6.720  10.478
31322W        W99740   5.270  15.644   1.371
31323W        W99741  19.135  19.174   0.741
31324W        W99742   8.295  15.194   3.324
31325W        W99743   5.762  42.969   0.913
31326W        W99744   3.287  29.582   5.240
31327W        W99745  12.338  42.785   5.106
31328W        W99746  21.608  13.655   1.344
31329W        W99747  28.992  37.408   3.791
31330W        W99748  29.138  42.890   0.436
31331W        W99749  33.877  34.399   0.934
31332W        W99750  32.561  38.481  10.437
31333W        W99751  38.477  17.293   2.378
31334W        W99752  10.649  23.052   2.857
31335W        W99753  13.790  16.591  11.489
31336W        W99754  19.739  31.154   3.644
31337W        W99755  31.512   5.247  12.980
31338W        W99756  22.142  37.513  14.352
31339W        W99757  12.642  28.115  11.458
31340W        W99758  10.308  32.014   1.836
31341W        W99759  36.431  34.013   2.224
31342W        W99760  25.058  40.457   2.225
31343W        W99761   3.335  13.833  12.007
31344W        W99762  28.158  30.977  12.094
31345W        W99763   5.213   1.840   4.289
31346W        W99764  21.675  42.290   2.322
31347W        W99765  39.527   4.370  11.528
31348W        W99766   8.683  30.620  13.827
31349W        W99767  41.015  10.788   0.263
31350W        W99768  16.733  21.604   0.399
31351W        W99769  13.667  21.128  14.916
31352W        W99770   7.788  41.000   2.201
31353W        W99771  11.694  34.369   4.255
31354W        W99772   3.761  14.695   1.718
31355W        W99773  40.484   5.924   3.173
31356W        W99774  10.297  27.454   2.202
31357W        W99775   9.817  29.051   3.232
31358W        W99776  11.839  24.490  14.324
31359W        W99777   1.853  26.591  11.890
31360W        W99778  14.798  40.463   4.792
31361W        W99779  25.095  23.676  13.044
31362W        W99780  44.375  36.572  13.937
31363W        W99781  14.188  21.685   2.736
31364W        W99782  33.882  18.790  14.409
31365W        W99783  24.005  25.131  13.912
31366W        W99784  13.682  44.767  11.548
31367W        W99785  39.035  44.819   3.163
31368W        W99786   6.711  13.134  11.895
31369W        W99787  25.694  43.818   3.836
31370W        W99788  43.915  33.928   4.132
31371W        W99789  34.590  27.086   1.835
31372W        W99790  15.680  31.011   3.851
31373W        W99791   0.767   2.947   0.356
31374W        W99792  14.132  43.449   2.749
31375W        W99793   8.379   0.803   3.221
31376W        W99794  36.452   7.796   3.208
31377W        W99795  26.199  22.695  14.009
31378W        W99796  24.614  11.287   2.386
31379W        W99797  28.618   2.420  13.482
31380W        W99798  21.651  33.008   4.191
31381W        W99799  43.791   3.865   2.279
31382W        W99800  29.634  35.043   9.995
31383W        W99801   1.338  27.566   2.360
31384W        W99802  10.177  28.186  13.500
31385W        W99803  29.470  43.956   2.344
31386W        W99804   3.372   4.934  13.883
31387W        W99805  38.927  13.179  13.791
31388W        W99806  10.832  28.153  13.331
31389W        W99807  33.940  43.974  10.441
31390W        W99808   9.828  18.699  12.410
31391W        W99809  19.580  27.649   1.311
31392W        W99810  28.523   4.252  13.816
31393W        W99811  34.109   4.720   2.239
31394W        W99812  44.471  39.452   1.793
31395W        W99813  43.455  13.230  10.638
31396W        W99814  17.090  42.875  10.470
31397W        W99815   8.892  39.065  12.440
31398W        W99816  26.169  20.576   0.426
31399W        W99817   0.254  15.324   4.325
31400W        W99818  15.196  33.432   4.766
31401W        W99819  20.261  29.608  10.429
31402W        W99820  29.062   1.454  12.012
31403W        W99821  39.395  15.107  12.384
31404W        W99822  23.620  11.316   0.799
31405W        W99823   5.313  34.884   2.273
31406W        W99824  26.650   4.892   9.965
31407W        W99825   2.322   1.472   3.721
31408W        W99826   6.734  13.118   3.857
31409W        W99827   2.891  19.162   2.212
31410W        W99828  32.622  20.659   4.148
31411W        W99829  44.826  12.793  14.968
31412W        W99830  32.100  18.588  12.944
31413W        W99831  30.564  36.022   0.768
31414W        W99832  31.630  29.658  10.945
31415W        W99833  21.753  10.814  12.861
31416W        W99834  10.791   8.312   0.878
31417W        W99835  24.519  28.069  14.903
31418W        W99836  27.946  33.410  13.327
31419W        W99837  12.117  34.113  10.548
31420W        W99838  38.044  28.662   2.233
31421W        W99839  27.179  24.988  10.092
31422W        W99840  35.971  13.231  13.393
31423W        W99841  12.750   3.890  12.477
31424W        W99842  20.609  23.492  14.386
31425W        W99843  11.743   6.316  14.431
31426W        W99844  15.671  13.642   1.233
31427W        W99845  21.717   3.838   1.767
31428W        W99846  37.014  37.839  11.605
31429W        W99847  34.611  10.139   1.440
31430W        W99848   2.251  22.535   3.221
31431W        W99849  24.666   4.245  11.090
31432W        W99850  34.454  29.524   1.403
31433W        W99851  26.135  26.047   3.177
31434W        W99852   9.690   6.214  12.579
31435W        W99853  40.313  28.112  12.431
31436W        W99854  13.779  11.183  14.917
31437W        W99855  27.687  27.084  14.324
31438W        W99856  16.116  39.027  14.337
31439W        W99857   9.256  43.956  11.518
31440W        W99858   3.227  28.149  12.386
31441W        W99859   7.283   1.744   3.698
31442W        W99860   3.773  12.851  12.483
31443W        W99861   7.290  25.560  14.308
31444W        W99862  24.565  41.460  14.784
31445W        W99863   5.320  26.048  12.015
31446W        W99864  28.486   5.416   3.864
31447W        W99865  17.265  40.341  13.924
31448W        W99866   6.874  10.723  14.501
31449W        W99867  11.855  30.075   2.755
31450W        W99868  33.916  23.548  12.017
31451W        W99869  13.297  31.577  12.856
31452W        W99870  38.895  10.656   3.197
31453W        W99871  33.875  42.834   1.415
31454W        W99872  32.605   4.352   2.259
31455W        W99873  30.034  25.633   0.810
31456W        W99874   9.371   7.877   3.252
31457W        W99875   1.862  32.012  14.917
31458W        W99876  44.386  44.339   0.386
31459W        W99877  42.949  13.743   5.160
31460W        W99878  36.906  24.714  14.880
31461W        W99879  15.294   6.850  14.381
31462W        W99880  36.942  28.585   4.686
31463W        W99881  29.966  13.784   3.333
31464W        W99882  14.676  43.336  10.405
31465W        W99883  27.149   9.763  10.911
31466W        W99884  44.853  44.410  11.106
31467W        W99885   1.240  31.431  13.905
31468W        W99886  43.909  25.990  14.331
31469W        W99887  37.016  44.861   4.204
31470W        W99888   2.873  25.666  11.914
31471W        W99889  35.400  17.588  12.062
31472W        W99890  37.336   4.283  13.382
31473W        W99891   9.386   8.841   0.846
31474W        W99892  44.446  22.017   5.116
31475W        W99893  29.005  37.540  10.552
31476W        W99894  35.588  17.621  10.474
31477W        W99895  31.579  26.166  10.428
31478W        W99896  30.001  36.021  13.544
31479W        W99897  30.084  21.130   1.235
31480W        W99898  34.455  23.241   3.693
31481W        W99899   9.261  22.672   1.790
31482W        W99900  23.110  41.510   2.354
31483W        W99901  37.374  11.624  11.487
31484W        W99902   5.376   1.303  12.508
31485W        W99903  24.212   3.820  10.599
31486W        W99904  28.005   6.328   5.257
31487W        W99905  34.099  42.921   4.301
31488W        W99906   7.681  33.540  10.143
31489W        W99907   8.364  21.124  12.502
31490W        W99908  38.496   1.972  11.434
31491W        W99909  32.065  36.551  12.447
31492W        W99910  39.972  12.282  12.950
31493W        W99911  24.173  21.210   2.233
31494W        W99912  21.112  26.699  12.361
31495W        W99913  21.720   6.681  12.479
31496W        W99914  37.996  33.889  13.456
31497W        W99915  21.173  22.223  14.445
31498W        W99916  42.386  24.157   0.244
31499W        W99917  19.153  17.143  13.804
31500W        W99918  17.694  12.664  12.421
31501W        W99919  38.021  43.424   1.734
31502W        W99920   5.366   4.846   4.700
31503W        W99921   7.723  26.074  12.058
31504W        W99922  27.085  37.376  10.958
31505W        W99923  19.223  11.834   2.405
31506W        W99924  34.541   4.748  11.072
31507W        W99925   2.374  23.037  12.923
31508W        W99926  11.217   9.847  14.309
31509W        W99927  13.154  38.328   4.756
31510W        W99928  31.985  12.833   2.691
31511W        W99929  43.397  24.119  11.977
31512W        W99930  17.296   4.336   0.914
31513W        W99931  18.612  33.489  14.804
31514W        W99932   6.832   1.371   3.826
31515W        W99933  24.034  37.409  11.062
31516W        W99934  36.579  35.384  13.399
31517W        W99935  44.400  43.401   5.281
31518W        W99936  28.145  35.050   3.346
31519W        W99937  30.157  10.866  11.532
31520W        W99938  25.563  36.881  14.420
31521W        W99939  29.531   4.922  10.004
31522W        W99940  26.543  12.651   4.614
31523W        W99941  25.651  40.402   4.764
31524W        W99942  27.061  37.057   3.271
31525W        W99943   5.780  15.120  13.386
31526W        W99944  41.007  22.136   0.287
31527W        W99945  32.497  37.999  12.442
31528W        W99946   8.402  44.300  10.588
31529W        W99947  40.327   1.303  12.924
31530W        W99948  31.521   7.202  12.365
31531W        W99949  35.016   2.906  13.023
31532W        W99950  26.687  43.770  13.504
31533W        W99951  35.493  18.204   0.741
31534W        W99952  22.519  12.213  10.424
31535W        W99953  18.103  29.006   4.211
31536W        W99954  44.758  19.191  12.420
31537W        W99955  14.296  16.162  12.473
31538W        W99956   4.427   6.860   0.472
31539W        W99957  38.347  37.356  13.936
31540W        W99958  42.985  36.041   3.264
31541W        W99959  17.559  14.613   2.707
31542W        W99960  38.494  21.039   5.201
31543W        W99961  13.732  20.036  13.492
31544W        W99962   3.341  29.579  10.479
31545W        W99963  32.914  42.380  11.022
31546W        W99964  20.616  12.194   9.557
31547W        W99965  34.444   7.667   3.153
31548W        W99966   6.207   9.838  11.464
31549W        W99967  37.389  12.626  13.824
31550W        W99968  38.512  13.339   2.710
31551W        W99969  44.972  38.382  10.528
31552W        W99970  19.590  28.444   0.889
31553W        W99971  44.880  28.011   4.684
31554W        W99972  18.260  43.352   1.770
31555W        W99973  26.065  18.224   1.404
31556W        W99974  39.464  26.137   1.764
31557W        W99975  25.205  25.152  14.384
31558W        W99976  41.937  44.449   3.242
31559W        W99977  42.347  12.692   3.169
31560W        W99978  26.076  23.061   1.287
31561W        W99979  24.630  30.140  13.398
31562W        W99980  33.105   8.331  12.043
31563W        W99981   4.712  41.954   3.698
31564W        W99982   9.352  33.408   3.212
31565W        W99983   7.671  10.664  11.860
31566W        W99984  37.050  37.430   0.921
31567W        W99985  28.079  25.541  11.999
31568W        W99986  35.923   7.679   4.761
31569W        W99987  19.764  38.379   4.235
31570W        W99988  37.866   9.800   1.323
31571W        W99989  37.572  32.525   4.741
31572W        W99990  25.078  20.269   3.651
31573W        W99991  11.357   9.195   3.640
31574W        W99992  19.753   0.363  11.875
31575W        W99993  32.593  19.139   1.839
31576W        W99994  23.577  42.017   3.164
31577W        W99995   3.857  38.360  14.963
31578W        W99996  37.398   3.821  12.067
31579W        W99997  29.543  37.521  13.022
31580W        W99998  26.640  17.209   0.244
31581W        W99999  19.177   7.807   1.928
31582W        W    0  28.561  13.823  11.971
31583W        W    1  16.572  10.171  10.607
31584W        W    2   2.920   6.792  13.368
31585W        W    3   8.230  11.160  13.402
31586W        W    4  23.137  18.598   4.201
31587W        W    5  32.407  19.590   2.368
31588W        W    6   8.806  12.837   1.401
31589W        W    7  43.457   2.879   2.878
31590W        W    8  37.479   8.231  13.320
31591W        W    9  29.497   9.749   3.839
31592W        W   10  39.931  17.129   0.326
31593W        W   11  12.176  14.157  14.779
31594W        W   12  29.052   4.789   0.792
31595W        W   13  10.868  25.661   4.301
31596W        W   14  22.192  15.326  10.913
31597W        W   15  11.237  19.235  13.870
31598W        W   16   2.374  36.917  10.567
31599W        W   17  30.926  36.930   1.752
31600W        W   18  30.072   2.744  13.396
31601W        W   19  25.003  32.405   4.281
31602W        W   20   6.740   4.829   0.752
31603W        W   21  35.896  39.994   3.799
31604W        W   22  15.774  16.076   1.221
31605W        W   23  35.904   6.310  12.928
31606W        W   24   8.771   1.901   1.334
31607W        W   25  44.289  25.135   4.697
31608W        W   26   2.900  29.145  13.864
31609W        W   27  22.022  44.494  10.523
31610W        W   28   0.797  13.717  10.023
31611W        W   29   0.388   1.835   1.792
31612W        W   30   4.419  12.796   1.773
31613W        W   31   7.739  17.197  11.002
31614W        W   32   9.173  27.154  10.513
31615W        W   33  19.750  25.995  10.118
31616W        W   34  42.507  21.745  12.359
31617W        W   35   5.857   0.442   4.729
31618W        W   36  40.434  30.083  12.542
31619W        W   37  35.924  38.364   3.676
31620W        W   38  22.185  42.886   0.343
31621W        W   39   1.837   6.715   4.752
31622W        W   40  15.785  16.792   1.352
31623W        W   41  15.324  35.530   3.667
31624W        W   42  32.463  15.656   0.843
31625W        W   43  31.968  24.980   0.440
31626W        W   44   1.864  13.776  11.475
31627W        W   45   5.886  19.721  13.457
31628W        W   46  18.224  38.075   1.444
31629W        W   47  20.124  20.534  13.325
31630W        W   48  33.093  36.005   4.825
31631W        W   49  10.338  20.265  12.849
31632W        W   50  19.702   0.891  11.569
31633W        W   51  12.331   5.789  14.813
31634W        W   52  15.589   2.762  13.544
31635W        W   53  16.712  21.557  14.911
31636W        W   54  15.251   9.779   0.455
31637W        W   55  28.635  24.028  10.427
31638W        W   56  15.704  36.563   1.408
31639W        W   57  31.944   6.236   1.407
31640W        W   58  40.422  41.831  11.506
31641W        W   59   9.387  15.730  11.930
31642W        W   60  21.611  12.710  12.519
31643W        W   61  22.637  38.073  14.827
31644W        W   62  10.226  38.479   3.340
31645W        W   63  39.827  13.248   2.846
31646W        W   64   3.720  20.765   2.191
31647W        W   65  28.077  22.701   3.302
31648W        W   66  21.123  31.472   1.330
31649W        W   67  18.170  20.687   4.630
31650W        W   68  40.799  10.186   4.239
31651W        W   69   9.782  30.591   2.735
31652W        W   70  36.480  43.324   4.258
31653W        W   71  18.681  34.956  14.765
31654W        W   72  23.687  18.600   3.764
31655W        W   73  26.149   1.263  10.571
31656W        W   74   0.896  43.898   4.301
31657W        W   75  33.893  28.622  14.951
31658W        W   76  39.049  44.860  12.494
31659W        W   77  11.774  16.223  14.369
31660W        W   78  31.974  30.077  14.976
31661W        W   79  29.479  19.728   0.426
31662W        W   80   4.286  40.958  13.918
31663W        W   81  12.220  24.524  11.556
31664W        W   82  15.638  28.519  13.061
31665W        W   83  17.778  15.787   3.644
31666W        W   84  24.579  18.114  10.423
31667W        W   85  26.629  31.939  14.341
31668W        W   86  43.288  40.934  10.405
31669W        W   87  30.033   8.346   0.815
31670W        W   88  11.327  42.281  14.471
31671W        W   89  31.109  41.902   2.730
31672W        W   90  10.284   1.916  10.067
31673W        W   91  40.870  12.317  14.359
31674W        W   92  30.548   2.881   1.771
31675W        W   93  44.993  23.559   0.962
31676W        W   94  43.871  38.873  10.463
31677W        W   95  44.827  17.709   4.721
31678W        W   96  39.549  26.603  10.507
31679W        W   97  40.801  21.202  14.453
31680W        W   98  30.642  12.342   3.653
31681W        W   99  36.414   2.928  14.452
31682W        W  100  17.573  13.156  11.991
31683W        W  101  16.724   5.704   2.318
31684W        W  102  26.639  17.207  13.351
31685W        W  103  12.206  36.046   2.795
31686W        W  104  39.414  37.519  12.843
31687W        W  105  43.820  31.010   2.182
31688W        W  106  19.586  26.570   0.385
31689W        W  107  39.393   1.796  10.967
31690W        W  108  28.525   4.301  12.047
31691W        W  109  30.058  44.329  14.835
31692W        W  110  39.868  16.625  14.799
31693W        W  111   9.194  10.175  13.322
31694W        W  112  10.743  15.321  14.411
31695W        W  113  37.562   4.897   5.245
31696W        W  114  21.076  44.403   0.788
31697W        W  115  28.565  15.728   0.904
31698W        W  116  36.926  12.665  13.959
31699W        W  117  26.691   0.839  12.577
31700W        W  118  13.206  23.220   4.309
31701W        W  119  36.465  11.854   3.663
31702W        W  120  35.063  32.127   4.294
31703W        W  121  16.136  16.175   2.859
31704W        W  122  18.671  39.957   0.907
31705W        W  123  18.555  37.385  11.531
31706W        W  124  30.112  31.443   2.896
31707W        W  125  12.613  31.974  10.085
31708W        W  126  44.974  35.864  14.867
31709W        W  127  38.891   1.751   3.188
31710W        W  128  21.542  34.396   0.869
31711W        W  129   5.393  11.787  13.812
31712W        W  130  27.064   4.740  13.900
31713W        W  131  29.646  16.788   4.257
31714W        W  132   1.241  32.489  10.519
31715W        W  133  23.719   4.328  12.563
31716W        W  134  44.778  11.704  13.013
31717W        W  135  17.195  39.026   4.199
31718W        W  136  23.583   4.263   2.205
31719W        W  137   8.812   5.697   3.750
31720W        W  138  31.952   9.325  14.760
31721W        W  139  10.366   9.167   0.882
31722W        W  140  27.986  26.579   1.758
31723W        W  141  41.862  17.179   4.637
31724W        W  142   2.811  37.039  14.351
31725W        W  143  12.784   2.875   2.259
31726W        W  144  23.020   0.947  14.803
31727W        W  145   8.260  42.013  13.054
31728W        W  146  21.669  40.452   0.289
31729W        W  147  29.998  39.392   4.642
31730W        W  148  43.465   3.788  14.460
31731W        W  149  21.124  23.155   9.939
31732W        W  150  34.068  23.698  11.430
31733W        W  151  36.514  43.325  14.514
31734W        W  152  17.105  29.940  12.075
31735W        W  153  43.293   7.907   2.358
31736W        W  154  42.415  18.567   3.749
31737W        W  155  15.793  17.189  11.064
31738W        W  156   0.857   6.798  11.521
31739W        W  157  42.821   6.411  13.404
31740W        W  158   8.252  40.049  11.483
31741W        W  159  13.206  35.102  10.634
31742W        W  160  43.401  25.081   3.282
31743W        W  161  20.168   2.835   1.796
31744W        W  162  44.773  37.403   3.252
31745W        W  163   2.398  10.831   2.771
31746W        W  164  26.201   2.772  14.383
31747W        W  165  26.159  36.096   2.888
31748W        W  166  32.458  33.531   1.703
31749W        W  167   1.852  12.167   0.390
31750W        W  168   4.825  35.994   5.231
31751W        W  169  43.465  20.201  11.925
31752W        W  170  21.147  11.283  14.797
31753W        W  171   2.422  23.038   4.344
31754W        W  172  32.608  19.772   3.205
31755W        W  173  37.346  17.085   1.749
31756W        W  174  43.315  18.551   3.152
31757W        W  175  18.725  17.292  10.526
31758W        W  176  40.007   6.750   0.931
31759W        W  177  43.998   2.832  13.429
31760W        W  178  39.822  37.487   4.230
31761W        W  179  33.605  39.411   2.350
31762W        W  180  11.222  32.529  13.825
31763W        W  181   6.339   2.792   1.749
31764W        W  182   1.966   9.251  11.532
31765W        W  183   2.389  16.150   3.365
31766W        W  184  15.168   7.794   3.237
31767W        W  185  30.529  12.632   3.661
31768W        W  186  39.827  31.508   4.183
31769W        W  187  10.369  16.691  12.076
31770W        W  188  24.538  27.021   0.478
31771W        W  189  29.454  10.373  12.972
31772W        W  190   7.822  38.868   0.948
31773W        W  191  11.726  10.727  14.330
31774W        W  192  13.648  16.665   2.266
31775W        W  193  13.151  44.878   2.687
31776W        W  194  32.603  30.562   3.676
31777W        W  195  28.150  42.925  11.895
31778W        W  196   3.234  28.471   4.688
31779W        W  197  34.468  26.608  14.318
31780W        W  198  31.600  44.416   4.172
31781W        W  199  16.701  25.218   4.192
31782W        W  200  27.101  19.754  14.005
31783W        W  201  15.578   7.881   3.845
31784W        W  202  15.683  38.991  12.928
31785W        W  203   4.429  40.841  11.558
31786W        W  204  33.877  10.742   1.212
31787W        W  205   7.381  26.619  11.382
31788W        W  206  22.077  37.381   5.087
31789W        W  207  33.505  23.703  13.481
31790W        W  208  14.334  17.165   2.324
31791W        W  209  34.457  41.943  11.894
31792W        W  210   6.704  22.230  10.983
31793W        W  211  30.112  14.704   2.352
31794W        W  212   4.939   5.695  12.350
31795W        W  213  24.515  19.688  12.927
31796W        W  214  30.441  28.655  14.925
31797W        W  215  20.607  15.175  13.042
31798W        W  216  36.436  39.833   0.765
31799W        W  217  16.171   8.243   3.807
31800W        W  218  39.532  22.513   3.361
31801W        W  219   9.835  33.881   4.802
31802W        W  220   5.349  10.720   4.600
31803W        W  221  41.794  36.856  12.090
31804W        W  222  12.650  16.110   4.354
31805W        W  223  18.709  29.480   4.315
31806W        W  224  22.030  18.701   3.236
31807W        W  225   2.948   3.896  11.092
31808W        W  226  22.666  33.532   2.194
31809W        W  227  23.626  35.950   0.840
31810W        W  228  36.975  15.197   3.808
31811W        W  229  43.483  33.885  11.439
31812W        W  230   9.260  12.356  10.455
31813W        W  231  21.170   4.335  14.843
31814W        W  232  31.611  37.012   3.219
31815W        W  233  42.959  32.399  12.951
31816W        W  234  38.935  42.375  11.506
31817W        W  235  32.508  41.407  11.538
31818W        W  236  25.094  40.815   1.407
31819W        W  237  42.527  13.801   0.785
31820W        W  238  32.904  28.072  11.957
31821W        W  239  36.465  14.588  12.931
31822W        W  240  31.467  34.935  14.403
31823W        W  241  23.196  15.607  12.088
31824W        W  242   9.802  14.123  12.931
31825W        W  243  43.422  10.702   0.918
31826W        W  244  27.086   7.742  12.994
31827W        W  245  20.044   7.415   1.292
31828W        W  246  15.708  13.607   5.184
31829W        W  247  25.488  21.223   3.832
31830W        W  248  12.735  13.787   3.353
31831W        W  249  30.497  39.427  13.940
31832W        W  250  32.566  11.291   0.929
31833W        W  251  14.222  25.617  12.014
31834W        W  252  27.972  38.447  13.310
31835W        W  253  14.259  13.175   0.336
31836W        W  254  44.825  25.099   0.839
31837W        W  255  41.326   8.676  12.016
31838W        W  256  20.658  17.737   2.711
31839W        W  257   4.792  14.177   1.755
31840W        W  258  31.047   1.364   3.649
31841W        W  259  36.067  30.488   4.733
31842W        W  260  30.918  29.502  13.450
31843W        W  261   4.220  18.268   2.851
31844W        W  262  11.330  14.739  12.568
31845W        W  263   2.283  21.115  10.110
31846W        W  264  35.534  17.714   4.681
31847W        W  265  10.211  21.580  11.440
31848W        W  266  26.631  12.638  10.906
31849W        W  267  35.588  24.609   4.129
31850W        W  268  11.759  34.112   4.810
31851W        W  269  20.159  17.656  13.033
31852W        W  270  25.143   1.349  12.533
31853W        W  271  20.256  21.541   1.229
31854W        W  272  27.601   9.661   4.267
31855W        W  273  10.663   8.332   1.410
31856W        W  274  43.412  32.931  11.469
31857W        W  275  43.512  11.762  13.003
31858W        W  276  22.707  13.759  12.005
31859W        W  277  42.887  39.540   2.688
31860W        W  278  28.047   1.777  14.402
31861W        W  279  30.055  21.095  13.490
31862W        W  280   1.848  27.564   4.656
31863W        W  281  11.839  12.786  14.337
31864W        W  282   3.753  29.434  10.454
31865W        W  283  35.984   7.722  10.452
31866W        W  284  29.545  12.251  12.930
31867W        W  285   8.763  11.657   1.896
31868W        W  286  19.749  11.727   1.332
31869W        W  287   4.406  28.992  13.865
31870W        W  288  42.930  26.498  11.453
31871W        W  289   8.833  43.895   4.692
31872W        W  290  18.057  23.212  12.488
31873W        W  291  43.312  15.709   1.710
31874W        W  292  17.134  14.614  14.919
31875W        W  293  33.929   1.450   4.743
31876W        W  294  26.538  36.872  10.901
31877W        W  295  21.674   6.427  10.912
31878W        W  296  35.078  29.533   3.230
31879W        W  297   0.846   1.968  13.519
31880W        W  298  26.998  39.475  11.582
31881W        W  299   3.366  33.900  13.310
31882W        W  300  26.613  31.453  10.892
31883W        W  301  28.457   7.240  13.872
31884W        W  302   8.169  19.279   1.829
31885W        W  303  18.226  42.813  11.520
31886W        W  304  32.555  41.003   0.739
31887W        W  305  35.436   8.270   0.894
31888W        W  306  31.559   4.785   3.380
31889W        W  307   4.843  13.257   1.408
31890W        W  308  39.907  29.530  13.887
31891W        W  309   3.740  39.006  11.038
31892W        W  310  40.449  33.471   0.862
31893W        W  311   1.381  30.601  10.432
31894W        W  312   9.154  41.366   0.775
31895W        W  313   4.222  27.989   0.405
31896W        W  314  19.703  42.884  10.897
31897W        W  315  34.385  42.502  14.515
31898W        W  316  12.614  30.924   2.381
31899W        W  317  30.163   6.752   3.727
31900W        W  318  40.044  24.676   3.776
31901W        W  319  37.895  14.127  11.384
31902W        W  320  10.238  14.827   4.352
31903W        W  321  20.146  28.178  12.433
31904W        W  322  19.778  40.317   4.645
31905W        W  323  39.964  41.464  11.477
31906W        W  324   6.717  24.995  14.504
31907W        W  325  31.121   7.876  12.980
31908W        W  326  39.342  34.896  12.404
31909W        W  327   6.200  11.202   3.289
31910W        W  328   5.816  10.216   4.288
31911W        W  329  22.158  10.207   2.761
31912W        W  330   4.376  16.251  13.063
31913W        W  331   4.720  33.581   1.905
31914W        W  332  23.123  36.506  14.862
31915W        W  333  34.370  42.309  12.433
31916W        W  334  24.551   6.709  11.864
31917W        W  335  18.588  16.302  11.408
31918W        W  336  43.000  14.286  10.514
31919W        W  337  24.522  38.364  14.442
31920W        W  338  24.534  12.850   3.356
31921W        W  339  13.285  11.364  13.408
31922W        W  340   3.451   6.696  10.565
31923W        W  341  34.952  24.065   3.246
31924W        W  342   6.777  16.746   0.411
31925W        W  343  40.514  22.138   2.372
31926W        W  344  23.228  43.868  11.927
31927W        W  345  30.132  42.327  12.360
31928W        W  346  19.685  21.594  13.328
31929W        W  347  34.904  22.108  14.486
31930W        W  348  44.884  34.500   1.800
31931W        W  349  39.905   4.305  12.425
31932W        W  350  20.104  36.871   2.338
31933W        W  351  29.561  43.989  13.042
31934W        W  352  18.123  16.595   1.732
31935W        W  353  14.738   6.801   4.332
31936W        W  354  40.526  10.762  10.909
31937W        W  355  18.556  25.989   1.864
31938W        W  356  21.034  33.108   1.276
31939W        W  357  37.953  37.070  10.461
31940W        W  358  19.557   6.320  11.941
31941W        W  359   4.293  30.602  11.920
31942W        W  360  28.532  42.877  11.022
31943W        W  361  15.753  12.820  10.038
31944W        W  362   0.790  27.989   3.804
31945W        W  363  18.157  27.071  10.969
31946W        W  364   8.876  30.973   3.813
31947W        W  365  18.216  23.545  12.089
31948W        W  366  22.015   6.350   4.641
31949W        W  367  13.770  38.964  14.996
31950W        W  368  29.095  25.201   0.457
31951W        W  369  44.799  42.423  12.844
31952W        W  370   1.737  40.050   3.630
31953W        W  371  10.217   4.906   5.088
31954W        W  372  43.456  16.651  11.438
31955W        W  373  43.018  43.835  11.457
31956W        W  374  12.646  36.930  10.919
31957W        W  375  13.151  25.963   1.830
31958W        W  376  18.555  32.042  12.058
31959W        W  377   9.376  17.246  12.564
31960W        W  378  39.047  12.705  10.550
31961W        W  379  35.437  30.454  14.476
31962W        W  380  21.234  21.185  14.796
31963W        W  381  44.287  11.642  10.004
31964W        W  382  44.956  40.910  10.134
31965W        W  383  28.680  40.011   4.229
31966W        W  384  13.674  37.924   1.282
31967W        W  385  26.669  14.251   4.794
31968W        W  386   5.437   9.231   1.841
31969W        W  387  15.222  19.078   2.192
31970W        W  388  27.175  34.996  11.888
31971W        W  389  25.098  20.568  11.515
31972W        W  390  22.093  26.595   5.089
31973W        W  391  36.500  22.224   2.804
31974W        W  392  43.360  16.315   2.822
31975W        W  393  23.525  42.289  11.080
31976W        W  394  29.086   5.842  12.890
31977W        W  395  26.519   8.329  10.077
31978W        W  396   7.343   0.328  11.551
31979W        W  397  30.071  23.022  12.551
31980W        W  398  33.480  23.563  12.520
31981W        W  399  17.656  15.606  13.356
31982W        W  400  10.151  19.185   1.307
31983W        W  401  15.243  25.472   1.270
31984W        W  402  10.815  32.394   4.763
31985W        W  403  17.066   8.705   4.783
31986W        W  404  30.938  26.509  14.346
31987W        W  405   0.479  35.913   3.776
31988W        W  406   5.826  29.045  12.562
31989W        W  407  40.483  32.415  14.856
31990W        W  408  21.597  12.754  13.438
31991W        W  409  27.158   8.803  13.999
31992W        W  410  32.553   9.708   0.741
31993W        W  411  42.797  43.991  13.432
31994W        W  412   3.949  10.669  10.444
31995W        W  413  33.483  31.513  14.897
31996W        W  414  30.150  39.949  13.047
31997W        W  415  26.487   4.215  13.985
31998W        W  416  10.201  23.224   1.271
31999W        W  417  11.664  44.993   1.256
32000W        W  418  29.015  33.465  14.967
32001W        W  419  27.447  16.110  14.909
32002W        W  420  25.200  13.739  11.045
32003W        W  421  16.643   8.828   1.701
32004W        W  422  18.618  11.730   0.785
32005W        W  423  28.643  36.382   1.829
32006W        W  424  15.761  44.851   1.264
32007W        W  425  29.452  34.923   0.958
32008W        W  426  17.657   1.437  12.550
32009W        W  427  38.069  39.357   0.900
32010W        W  428  41.419  29.951   3.347
32011W        W  429  40.912  15.745   2.843
32012W        W  430  13.178  39.424   3.795
32013W        W  431  25.649   1.259   4.239
32014W        W  432  17.297  20.720  11.557
32015W        W  433  28.547  33.502  13.400
32016W        W  434  41.903  28.496  12.078
32017W        W  435  13.753  22.653   2.742
32018W        W  436  35.039  42.990  11.594
32019W        W  437   7.414  19.095   0.269
32020W        W  438  18.590  44.892   1.356
32021W        W  439  18.179  31.100  11.493
32022W        W  440  39.032  32.547   2.846
32023W        W  441  23.205  39.487   0.403
32024W        W  442   5.842  12.853  10.983
32025W        W  443  30.501  16.256   4.692
32026W        W  444  11.296   5.924  14.894
32027W        W  445  19.276  34.523   3.182
32028W        W  446   5.785  18.691  10.407
32029W        W  447  26.675   4.797   2.723
32030W        W  448  12.659   9.785   3.331
32031W        W  449  24.175  43.787   3.386
32032W        W  450  37.500  42.913   2.400
32033W        W  451  11.647   8.226  12.997
32034W        W  452  10.767   4.213  11.579
32035W        W  453  29.491  18.269  11.110
32036W        W  454  23.109   7.911  14.321
32037W        W  455   8.317  15.679  10.076
32038W        W  456  25.204  21.725  14.774
32039W        W  457  14.646   3.918   1.864
32040W        W  458   2.834  23.002  13.819
32041W        W  459  26.693  44.286   4.139
32042W        W  460  36.962  39.958  10.408
32043W        W  461   6.895  34.041  10.487
32044W        W  462  24.643   4.739   0.904
32045W        W  463  12.675  20.710   2.329
32046W        W  464  38.054   7.200  14.840
32047W        W  465   9.707  15.795  12.385
32048W        W  466  21.697   7.197  13.503
32049W        W  467  43.878  44.301  12.441
32050W        W  468  22.616  22.575   2.682
32051W        W  469  10.332  32.025   2.242
32052W        W  470  13.777  40.808  12.536
32053W        W  471  44.321   5.793   4.172
32054W        W  472   7.217  35.097   0.897
32055W        W  473  18.293  13.238  10.074
32056W        W  474  30.619  19.552   1.700
32057W        W  475  27.566  22.575   2.807
32058W        W  476   7.741  39.496   1.842
32059W        W  477   1.805  29.074   1.305
32060W        W  478  28.466   6.196   5.084
32061W        W  479   4.242  21.256  14.861
32062W        W  480  10.308   1.971  11.926
32063W        W  481  40.870  35.060   0.377
32064W        W  482  16.590   0.838   2.185
32065W        W  483   6.242   2.328   2.237
32066W        W  484   9.857  43.982  11.381
32067W        W  485  11.832  23.659  14.989
32068W        W  486   9.303   7.861   1.813
32069W        W  487  25.549  29.947  14.940
32070W        W  488  41.413  36.432  11.953
32071W        W  489  29.656  14.124  13.052
32072W        W  490  37.406  30.949  14.399
32073W        W  491  25.214  12.205  14.958
32074W        W  492  14.721  39.509  13.467
32075W        W  493  42.841  21.532   3.335
32076W        W  494  17.621  42.326  13.958
32077W        W  495   9.249   8.262  12.855
32078W        W  496  37.533   7.907   5.320
32079W        W  497  25.555  18.137   2.273
32080W        W  498   1.900  28.169  12.451
32081W        W  499  41.038  36.507  11.521
32082W        W  500  14.718  17.652  10.406
32083W        W  501  12.842   6.314   2.192
32084W        W  502  17.691  41.528   2.759
32085W        W  503   5.282  35.408   4.348
32086W        W  504  35.890  28.093  12.085
32087W        W  505   6.753   3.394  13.532
32088W        W  506  24.055   1.849   4.277
32089W        W  507  11.817  13.255  14.440
32090W        W  508  19.066  33.394  12.486
32091W        W  509  28.606  23.119  13.981
32092W        W  510   1.818  29.437  11.563
32093W        W  511   2.464  18.772   1.929
32094W        W  512  16.236  31.961  12.838
32095W        W  513  37.985   6.841   4.192
32096W        W  514  30.432  41.446  11.487
32097W        W  515  28.441   9.175   0.795
32098W        W  516  27.973  13.228  14.425
32099W        W  517  39.895  42.905  13.036
32100W        W  518  27.614  28.676   2.789
32101W        W  519  31.486  31.569   3.290
32102W        W  520   3.351   2.929   1.804
32103W        W  521  23.053   4.275  10.562
32104W        W  522   7.697  36.571  11.538
32105W        W  523  24.211  15.750   2.412
32106W        W  524  22.149  26.586  13.447
32107W        W  525  39.365  14.189   1.220
32108W        W  526  20.724  25.633  14.360
32109W        W  527  27.185  14.665   4.745
32110W        W  528   8.242  36.528   0.965
32111W        W  529  39.833  27.582   3.369
32112W        W  530  23.985  19.620  10.143
32113W        W  531  29.097  36.862  13.818
32114W        W  532  26.637   6.745  11.934
32115W        W  533   3.711  26.625   0.260
32116W        W  534  32.555  20.675   0.809
32117W        W  535  28.136   8.319   3.244
32118W        W  536  24.681  35.543   4.334
32119W        W  537   1.751  23.645  13.499
32120W        W  538  33.503  43.826  12.840
32121W        W  539   4.829  27.015  12.021
32122W        W  540   2.914   9.252   0.792
32123W        W  541  44.276  40.411  10.628
32124W        W  542  15.293  19.745   3.680
32125W        W  543   0.822   5.719   3.773
32126W        W  544  35.085   6.387   3.243
32127W        W  545  39.013   9.295  11.877
32128W        W  546  36.467  33.921  12.013
32129W        W  547  10.267  38.344   9.944
32130W        W  548  29.130   8.186   2.840
32131W        W  549  25.577  37.565   4.330
32132W        W  550  29.520  21.601   1.912
32133W        W  551  28.527  39.461   2.690
32134W        W  552  39.867  12.278  11.500
32135W        W  553  36.976  42.524  11.878
32136W        W  554  41.411   2.953  12.339
32137W        W  555  18.718   2.776   3.660
32138W        W  556  19.583  15.201  14.843
32139W        W  557  32.078  31.600   4.245
32140W        W  558  40.343  15.251   0.759
32141W        W  559  44.854  22.616  14.966
32142W        W  560   9.808  29.448   2.707
32143W        W  561  27.980  27.652  13.020
32144W        W  562  22.739  23.664  12.903
32145W        W  563  19.102  37.484  14.387
32146W        W  564  23.113  30.100  13.002
32147W        W  565  25.474  26.632   1.854
32148W        W  566  26.139  11.212   3.322
32149W        W  567  34.522   5.694  10.470
32150W        W  568  44.313  39.817   2.188
32151W        W  569  40.998  32.487   2.686
32152W        W  570  44.947  17.613  10.939
32153W        W  571  20.550  44.973  12.046
32154W        W  572  11.141  36.366   4.312
32155W        W  573  22.205  16.241  12.875
32156W        W  574  12.192  28.499   2.673
32157W        W  575  14.728  44.492   0.405
32158W        W  576  17.175   9.324   1.295
32159W        W  577  17.172  16.261   2.185
32160W        W  578  19.775  21.045  11.870
32161W        W  579  25.526  34.046   1.851
32162W        W  580  16.224   9.230  13.359
32163W        W  581   4.890  38.894   2.410
32164W        W  582  23.513  37.478   9.985
32165W        W  583   4.845  17.280  12.875
32166W        W  584  24.174  21.165   0.846
32167W        W  585   6.221  33.610  10.514
32168W        W  586   6.857  40.434   1.263
32169W        W  587  42.011  25.609   2.758
32170W        W  588  41.502  34.500   3.351
32171W        W  589  10.229  17.114   0.907
32172W        W  590  14.201  38.386  10.111
32173W        W  591  14.156   1.768   1.892
32174W        W  592   3.365  22.657   2.884
32175W        W  593  18.186   1.962  11.971
32176W        W  594  18.727  12.274   2.790
32177W        W  595  17.744  38.886   0.246
32178W        W  596  41.896  14.260  12.427
32179W        W  597  15.583   6.814  10.408
32180W        W  598  11.209   0.939   1.317
32181W        W  599  27.181  37.394  11.989
32182W        W  600  31.027  20.121  11.858
32183W        W  601  14.646   2.334   3.709
32184W        W  602  29.991   9.334   4.304
32185W        W  603  37.834  20.205   0.813
32186W        W  604  16.701  30.077   3.655
32187W        W  605  39.059  19.141   3.156
32188W        W  606  18.105  19.608  13.940
32189W        W  607   4.733  32.986  10.033
32190W        W  608  12.160  15.763  10.940
32191W        W  609   8.668  19.547  14.795
32192W        W  610  33.440  39.054  14.306
32193W        W  611  11.228   0.399  14.391
32194W        W  612  19.718  31.641   4.353
32195W        W  613   1.370  34.390  11.372
32196W        W  614  27.687   6.190   5.582
32197W        W  615  23.527  27.032  13.022
32198W        W  616  15.120  18.640   0.350
32199W        W  617  40.459  13.210  12.009
32200W        W  618  30.418  41.482  12.065
32201W        W  619  43.485  25.538  12.829
32202W        W  620   0.925   3.459  12.371
32203W        W  621  14.328  13.793   3.840
32204W        W  622  42.813  29.497   2.732
32205W        W  623   1.275  23.692  13.994
32206W        W  624  30.947  19.276  13.366
32207W        W  625  18.195  39.011  13.834
32208W        W  626   8.825  21.209   4.833
32209W        W  627  24.573   5.302   0.283
32210W        W  628  23.670  30.487  13.409
32211W        W  629  22.191  12.296   3.375
32212W        W  630  22.533  31.007   1.768
32213W        W  631  41.874   5.728   0.287
32214W        W  632  18.737   2.963   1.404
32215W        W  633  39.517  34.039  12.539
32216W        W  634   8.242  19.734   0.909
32217W        W  635  44.758  18.085   0.449
32218W        W  636  43.823  41.895  14.788
32219W        W  637  31.085  12.208   2.274
32220W        W  638  26.063   9.797  12.391
32221W        W  639  15.588  18.274   1.735
32222W        W  640  42.963  15.766  13.401
32223W        W  641  14.152   9.189  10.899
32224W        W  642  32.416  17.188  10.027
32225W        W  643  21.117  44.363   1.899
32226W        W  644  10.691  19.535  11.990
32227W        W  645  32.041  39.888  14.347
32228W        W  646  25.709  14.095   2.872
32229W        W  647  23.087  25.569   0.783
32230W        W  648  44.433  21.092  12.433
32231W        W  649   3.242  42.844  14.284
32232W        W  650  13.138   4.844  13.525
32233W        W  651  33.047  22.164   4.775
32234W        W  652  15.761  35.010  14.020
32235W        W  653   5.802  14.326  13.470
32236W        W  654  25.563  39.879  12.473
32237W        W  655   5.433  44.895  12.537
32238W        W  656   4.450  12.180  13.360
32239W        W  657  26.202  12.617  11.974
32240W        W  658  32.080  36.960  12.872
32241W        W  659  17.109   3.441  12.998
32242W        W  660   3.781  23.006  13.943
32243W        W  661  16.592  19.140  14.773
32244W        W  662  31.636  26.489   0.739
32245W        W  663  33.392  39.987   4.795
32246W        W  664   9.358  17.294  11.564
32247W        W  665  10.152  12.144   0.302
32248W        W  666   8.244  39.063  14.018
32249W        W  667  36.974  16.812  10.425
32250W        W  668   2.831   7.738   3.762
32251W        W  669  27.454  28.114   3.821
32252W        W  670  12.825  12.653   4.604
32253W        W  671  22.194  41.355   9.589
32254W        W  672  20.207  33.566   2.363
32255W        W  673  37.428   3.418   0.892
32256W        W  674   7.274   4.725  12.086
32257W        W  675  32.886  41.044  14.406
32258W        W  676  26.604  41.999   2.296
32259W        W  677  34.496  37.485  11.066
32260W        W  678  17.154  10.268  12.896
32261W        W  679  29.609  30.533  13.015
32262W        W  680   0.985  12.293   3.788
32263W        W  681  16.571  39.886   4.237
32264W        W  682   3.832   0.367   2.192
32265W        W  683   9.163  18.146   4.185
32266W        W  684  17.597  23.987   1.835
32267W        W  685  37.843   3.907  13.394
32268W        W  686  11.720   2.965  12.037
32269W        W  687  40.803  32.614   1.707
32270W        W  688  26.562  41.032   3.184
32271W        W  689  37.077  19.219   3.762
32272W        W  690  34.090  24.532   0.397
32273W        W  691   4.737  35.904  10.133
32274W        W  692   2.780   7.744  13.051
32275W        W  693  10.174  20.270  13.829
32276W        W  694   2.226  30.020   2.730
32277W        W  695  42.469  15.668  12.087
32278W        W  696   0.351   6.259  10.900
32279W        W  697   0.866   7.718  11.372
32280W        W  698  32.487   1.849  12.984
32281W        W  699  25.704  41.832   2.366
32282W        W  700   0.785   0.272   0.767
32283W        W  701  39.330  20.562  14.894
32284W        W  702  22.670  42.284  10.627
32285W        W  703   5.792  44.958  13.946
32286W        W  704  18.695  19.180   3.745
32287W        W  705  35.397  28.954  11.409
32288W        W  706   8.194   2.868   1.794
32289W        W  707  44.470  40.895   5.262
32290W        W  708   4.425   5.837  12.961
32291W        W  709  32.128  11.707  14.791
32292W        W  710  39.953  26.041   4.228
32293W        W  711   9.300  16.299   1.448
32294W        W  712   7.719   4.387  11.498
32295W        W  713  11.822  39.998   0.303
32296W        W  714   1.778   8.823   0.863
32297W        W  715  22.685  18.636  13.474
32298W        W  716  36.495  44.858   0.941
32299W        W  717  35.552  42.860  12.984
32300W        W  718   2.424  25.701   2.772
32301W        W  719  25.655   5.742  14.990
32302W        W  720  12.135  18.759  14.993
32303W        W  721  12.139  34.538   3.799
32304W        W  722  32.093  13.135   2.782
32305W        W  723  39.333  26.528   1.809
32306W        W  724  36.922  30.480  14.965
32307W        W  725   7.763  38.944  14.826
32308W        W  726  32.448  31.482   0.448
32309W        W  727   0.756  36.971   2.381
32310W        W  728  11.803   6.847  12.048
32311W        W  729   7.791  43.365  13.443
32312W        W  730   4.729  29.556  12.496
32313W        W  731  27.469  44.481  14.022
32314W        W  732   2.777  34.471   3.675
32315W        W  733  22.051  21.079  13.821
32316W        W  734  18.561  21.609  12.977
32317W        W  735  12.348  33.911  12.554
32318W        W  736   0.848  14.705   1.356
32319W        W  737  20.121  31.614   2.267
32320W        W  738  13.758   2.426  10.566
32321W        W  739   0.292  18.188  14.014
32322W        W  740  28.089  24.595  13.386
32323W        W  741  29.973  33.006  14.997
32324W        W  742  31.452   5.274   2.673
32325W        W  743  14.292  44.811   3.808
32326W        W  744  42.918  38.972  13.842
32327W        W  745  40.338  24.224   0.273
32328W        W  746   0.765  12.177   0.404
32329W        W  747  38.853  39.944   5.272
32330W        W  748  26.573  37.512  10.111
32331W        W  749  33.500   0.470   2.417
32332W        W  750  27.603   4.823   1.334
32333W        W  751  38.954  29.658   4.753
32334W        W  752  24.494   5.420  14.947
32335W        W  753  21.686  34.997   1.847
32336W        W  754  10.279  20.153   3.241
32337W        W  755  19.700  35.988  12.865
32338W        W  756   0.465  14.098  13.495
32339W        W  757  14.138  17.241  14.832
32340W        W  758  19.636   0.375   1.858
32341W        W  759  23.490  31.009  12.439
32342W        W  760  40.547  27.480   2.382
32343W        W  761   6.296  42.346  14.925
32344W        W  762  31.525  26.517   3.284
32345W        W  763  17.678  33.559   0.845
32346W        W  764   2.424  13.291  11.503
32347W        W  765  39.413  12.337   0.285
32348W        W  766  10.641  36.942  14.988
32349W        W  767  33.014  16.667   3.827
32350W        W  768  31.593  37.892  10.897
32351W        W  769   4.387  25.580   1.251
32352W        W  770  25.218  42.880   5.101
32353W        W  771  12.761  16.235   2.381
32354W        W  772  11.199  22.685  13.344
32355W        W  773  43.840   6.342  11.404
32356W        W  774  36.561   1.414   4.252
32357W        W  775   6.284  35.002  12.445
32358W        W  776  36.561  17.694  14.931
32359W        W  777  14.108   4.290  11.552
32360W        W  778  28.081  14.695  12.539
32361W        W  779   4.377  20.585  14.482
32362W        W  780  39.832  26.119   4.662
32363W        W  781  36.006  24.535   0.319
32364W        W  782  39.951   1.746  12.067
32365W        W  783  17.298   0.901  13.022
32366W        W  784   6.782  24.976   3.320
32367W        W  785  21.723  40.934   0.271
32368W        W  786  28.517  42.789  10.454
32369W        W  787  36.513   9.315   3.352
32370W        W  788  44.339   1.845   2.226
32371W        W  789   9.270  11.311   3.685
32372W        W  790  30.441  41.426   0.476
32373W        W  791  33.124  17.086  12.495
32374W        W  792  41.521   3.397   4.668
32375W        W  793  33.610  32.936   4.316
32376W        W  794  20.528  28.182  12.095
32377W        W  795  42.958  11.780  11.963
32378W        W  796   6.327   3.361   5.317
32379W        W  797  10.305  19.656   2.697
32380W        W  798   2.293  19.572   2.378
32381W        W  799  34.482  13.284  12.849
32382W        W  800   6.336  17.794  12.922
32383W        W  801  42.850  43.410   2.239
32384W        W  802  32.433   9.353   3.270
32385W        W  803  25.198  42.992  13.356
32386W        W  804   4.321  16.585   0.463
32387W        W  805  36.047  34.017  12.922
32388W        W  806  23.492  36.983  11.910
32389W        W  807   6.766   9.684   3.150
32390W        W  808   6.763   9.798   1.830
32391W        W  809  14.606  13.119  13.336
32392W        W  810   7.713  39.052  13.989
32393W        W  811  44.864  30.552  14.488
32394W        W  812  27.180   8.815  10.118
32395W        W  813  20.705   9.722  13.796
32396W        W  814   0.340   0.870  10.543
32397W        W  815  23.571  10.338  11.042
32398W        W  816  36.420  27.097  14.764
32399W        W  817  12.852  32.419  12.537
32400W        W  818  27.146  12.734  11.402
32401W        W  819   2.944  10.284   0.261
32402W        W  820   6.277  26.580  12.092
32403W        W  821   5.783  16.203   0.297
32404W        W  822   9.718  13.193  13.496
32405W        W  823  23.733  44.444   4.717
32406W        W  824  14.196  39.061   1.763
32407W        W  825  37.546   3.798  13.339
32408W        W  826   3.363  22.026  11.868
32409W        W  827   9.823  37.520  11.004
32410W        W  828  22.568  37.887  14.357
32411W        W  829  23.636  10.861   1.754
32412W        W  830  34.957   9.802   4.322
32413W        W  831  26.585   5.417   3.710
32414W        W  832   1.960   6.420   1.914
32415W        W  833  31.639  31.930   1.256
32416W        W  834  20.088  26.028  13.823
32417W        W  835  36.440  22.680  13.975
32418W        W  836  29.109  25.131  14.986
32419W        W  837  27.170   2.962   0.273
32420W        W  838  11.246  29.586  12.839
32421W        W  839  14.219  42.350  13.319
32422W        W  840  40.436  19.164  11.949
32423W        W  841  12.675  24.016   0.311
32424W        W  842  39.543  41.977   3.688
32425W        W  843  37.395  31.580   4.288
32426W        W  844  30.577  18.091   3.865
32427W        W  845  24.542  36.435   1.267
32428W        W  846  44.386  23.198  14.333
32429W        W  847  38.361  32.420   3.302
32430W        W  848   9.168   3.953   4.284
32431W        W  849  18.614   4.716  10.521
32432W        W  850  17.785  26.563   2.379
32433W        W  851  21.653   9.226  14.899
32434W        W  852  31.071  37.082  13.046
32435W        W  853  34.600  41.520  14.836
32436W        W  854  34.005  32.533  12.828
32437W        W  855  27.622   7.405  13.002
32438W        W  856  40.802  39.402  12.412
32439W        W  857  28.489  39.054  12.047
32440W        W  858  28.657  28.495   3.731
32441W        W  859  41.823  12.683  10.619
32442W        W  860  32.116   6.279  14.030
32443W        W  861   9.688  44.914  11.996
32444W        W  862  14.679  38.386   3.831
32445W        W  863  21.697  14.101  13.892
32446W        W  864  44.865  13.785   9.988
32447W        W  865   8.860  37.860  11.584
32448W        W  866  11.268  32.433   2.716
32449W        W  867  34.890  26.636   2.692
32450W        W  868  25.589  28.167   4.353
32451W        W  869  16.806  27.041   0.423
32452W        W  870  34.111   7.744  12.997
32453W        W  871  25.666  44.298  11.061
32454W        W  872  12.337  42.825   1.224
32455W        W  873  19.142  38.952   3.280
32456W        W  874  35.885  23.026  14.473
32457W        W  875  15.103  23.700  11.033
32458W        W  876  26.024  29.587   1.246
32459W        W  877  37.444  25.099   2.204
32460W        W  878  27.626  39.336   1.221
32461W        W  879   3.724  14.741   0.405
32462W        W  880  20.671  15.700   0.372
32463W        W  881  27.971  37.449   0.782
32464W        W  882   8.674  33.884  14.428
32465W        W  883  38.507   1.871  13.429
32466W        W  884  11.308  19.120  12.471
32467W        W  885  30.638  25.537   0.309
32468W        W  886  41.976   4.278  10.631
32469W        W  887  43.325  43.446  11.081
32470W        W  888  30.118  36.399  14.477
32471W        W  889  26.200  36.426  11.094
32472W        W  890  36.372  28.589   0.792
32473W        W  891  10.741  17.168  10.570
32474W        W  892  23.110  31.473   1.410
32475W        W  893  32.077  34.118  10.499
32476W        W  894  37.934  26.562   2.280
32477W        W  895  17.784   9.164   2.885
32478W        W  896  29.612   7.393   0.838
32479W        W  897  34.967  43.874  14.964
32480W        W  898  14.761  16.710   4.778
32481W        W  899   4.706   5.843   9.924
32482W        W  900  24.019  35.409   1.725
32483W        W  901  28.150  35.079   4.242
32484W        W  902  17.697  18.092  10.948
32485W        W  903   1.473  38.830  14.401
32486W        W  904   3.808  14.825  11.466
32487W        W  905  20.204  16.255   1.732
32488W        W  906  29.568  44.398  10.122
32489W        W  907  39.945  20.764  12.858
32490W        W  908  30.526  27.600  11.524
32491W        W  909  17.719  26.522   1.774
32492W        W  910  19.617  22.165   3.225
32493W        W  911  30.494  31.086   0.893
32494W        W  912  37.536  32.931   1.437
32495W        W  913  11.329   1.283  11.590
32496W        W  914   9.152  12.751   1.410
32497W        W  915  35.538  10.648  10.905
32498W        W  916  26.106  33.010  11.437
32499W        W  917  11.189  41.420  13.442
32500W        W  918  27.099  29.919  12.462
32501W        W  919  14.738   3.233  12.452
32502W        W  920  40.384  26.532   3.748
32503W        W  921  13.142  20.177  13.905
32504W        W  922   1.903  34.021  14.379
32505W        W  923  34.387   3.891   1.308
32506W        W  924  15.190  41.903   4.757
32507W        W  925  36.514  12.294  14.283
32508W        W  926   2.294  22.537   5.726
32509W        W  927   0.466  23.150   0.437
32510W        W  928  14.131  12.823   1.213
32511W        W  929   6.423  32.941   1.844
32512W        W  930  36.480  20.644  14.459
32513W        W  931  37.974  17.605  14.504
32514W        W  932   9.340  29.492  13.509
32515W        W  933  39.920  33.566   4.323
32516W        W  934   6.212  21.080   1.400
32517W        W  935  22.008  24.643  12.072
32518W        W  936   5.863  23.180  14.768
32519W        W  937  32.615  17.185  12.905
32520W        W  938  13.786   1.965  13.811
32521W        W  939  19.553  11.730  10.122
32522W        W  940  15.152   2.810  12.386
32523W        W  941  21.536  19.196   1.781
32524W        W  942  35.438  40.411   3.379
32525W        W  943  30.043  32.936   0.821
32526W        W  944  27.486  26.620   4.628
32527W        W  945   7.237  34.580   2.817
32528W        W  946  21.708  28.656   3.819
32529W        W  947  11.736  30.024  11.603
32530W        W  948  42.989  20.682   0.288
32531W        W  949  14.269  12.218   3.782
32532W        W  950  38.907  44.315  13.343
32533W        W  951   1.880  42.320   3.204
32534W        W  952  42.777  15.163  11.610
32535W        W  953  39.935  36.434  11.498
32536W        W  954  15.232   0.309   3.228
32537W        W  955  43.918  12.716  13.948
32538W        W  956   0.858   8.691  13.523
32539W        W  957  14.653  41.042   4.727
32540W        W  958  24.704  25.578  14.955
32541W        W  959  42.386  31.632   2.821
32542W        W  960  21.120  44.405  14.929
32543W        W  961  14.800  21.060   4.320
32544W        W  962  19.055   9.253  10.976
32545W        W  963  43.374  27.112   2.802
32546W        W  964  22.071  11.161   0.357
32547W        W  965  24.151  34.866  12.472
32548W        W  966  16.280  15.177   4.278
32549W        W  967  41.389  36.896  12.354
32550W        W  968  23.568  10.656   3.238
32551W        W  969   2.785  42.470   2.191
32552W        W  970  29.466  31.442  11.439
32553W        W  971  20.136   4.717   4.136
32554W        W  972   3.236  36.034   1.324
32555W        W  973  41.394   0.976  11.062
32556W        W  974  37.850  26.169  11.513
32557W        W  975   7.316   4.783   3.849
32558W        W  976  36.367  11.272  11.872
32559W        W  977  25.632  40.479   1.703
32560W        W  978  41.000  19.253  11.380
32561W        W  979  44.436   4.295   2.899
32562W        W  980  20.065   5.377   0.243
32563W        W  981  25.692  42.863  14.899
32564W        W  982  38.874   4.384  13.023
32565W        W  983  32.909  29.063   1.853
32566W        W  984  42.780  25.142  13.950
32567W        W  985  31.630  31.990   4.754
32568W        W  986   0.939  17.220  11.983
32569W        W  987  40.896   7.324  12.437
32570W        W  988   3.303  13.337   1.762
32571W        W  989  11.355  28.979  11.924
32572W        W  990  11.229   4.397   1.910
32573W        W  991  39.833  10.767  13.938
32574W        W  992  25.504  42.821  13.401
32575W        W  993  33.062  40.549   2.223
32576W        W  994  29.004  31.929  12.020
32577W        W  995  15.759  33.108   1.794
32578W        W  996  40.847   0.346   3.350
32579W        W  997  44.364   0.856  11.997
32580W        W  998  17.129   0.262   3.210
32581W        W  999   6.914  39.865  11.112
32582W        W 1000  12.803  13.148   0.295
32583W        W 1001  17.115  13.137   0.478
32584W        W 1002  41.925  27.500   3.171
32585W        W 1003  29.654  16.221  11.513
32586W        W 1004  30.421  18.584  13.383
32587W        W 1005   3.324   6.369  13.499
32588W        W 1006   9.327   5.386   4.730
32589W        W 1007  30.147  15.773  12.012
32590W        W 1008  32.632  25.200  10.607
32591W        W 1009  25.203  20.615  13.898
32592W        W 1010  38.556  20.724   2.320
32593W        W 1011   2.916  21.674   1.899
32594W        W 1012  38.463  18.249   4.248
32595W        W 1013  25.983  43.845  14.324
32596W        W 1014  20.192   2.887   1.273
32597W        W 1015  20.225  31.913   1.697
32598W        W 1016   0.484  32.400  13.832
32599W        W 1017  20.034  37.489  14.381
32600W        W 1018  18.783  32.518  12.400
32601W        W 1019  18.771  43.363  10.489
32602W        W 1020  15.710  19.191  14.297
32603W        W 1021   9.161  27.027   1.744
32604W        W 1022  37.969  15.748  11.444
32605W        W 1023   4.380  36.051  12.560
32606W        W 1024  12.144  38.967  12.007
32607W        W 1025  24.704  24.703   3.850
32608W        W 1026   1.781  40.931   3.681
32609W        W 1027  36.045  24.210   1.923
32610W        W 1028  17.637  28.597  10.445
32611W        W 1029  32.913  21.642   0.434
32612W        W 1030  10.141  10.382   3.164
32613W        W 1031  44.457   2.254  12.457
32614W        W 1032  36.435  42.857   3.675
32615W        W 1033  11.827  24.539   4.320
32616W        W 1034  37.515  10.767  11.090
32617W        W 1035  19.578   2.405   4.717
32618W        W 1036  13.201  33.410  11.572
32619W        W 1037  21.719  19.076   4.696
32620W        W 1038  31.128  23.496  14.374
32621W        W 1039  10.297  16.086   4.617
32622W        W 1040  23.147  17.637  14.890
32623W        W 1041  40.865  20.710  12.512
32624W        W 1042  13.159  24.646  11.981
32625W        W 1043  38.994   0.367  11.382
32626W        W 1044  15.241   3.322   1.903
32627W        W 1045   9.804  39.530  14.481
32628W        W 1046   9.306  31.641  12.039
32629W        W 1047  42.465   7.292  11.383
32630W        W 1048  34.412  20.562   3.695
32631W        W 1049  41.401  28.464   3.774
32632W        W 1050  33.084  10.323  13.854
32633W        W 1051  20.114  11.636   1.373
32634W        W 1052   6.257  18.161  11.520
32635W        W 1053   6.677   1.793   4.121
32636W        W 1054  40.507   0.961   1.838
32637W        W 1055  40.365  11.675   4.815
32638W        W 1056   7.668  27.076  10.554
32639W        W 1057   2.821  14.591  11.571
32640W        W 1058  40.995  38.983  13.462
32641W        W 1059  41.866  17.302  11.607
32642W        W 1060  15.602   2.884   0.250
32643W        W 1061  26.525  11.276   2.269
32644W        W 1062  40.473  36.022   2.726
32645W        W 1063   1.821  31.132  11.108
32646W        W 1064   7.277  40.480  13.332
32647W        W 1065  26.594   3.422  13.482
32648W        W 1066   0.884  23.051  10.018
32649W        W 1067  43.935   7.252   3.273
32650W        W 1068  13.275  30.027  10.518
32651W        W 1069   8.824  23.124  13.809
32652W        W 1070  43.909   9.651  11.535
32653W        W 1071  13.814  32.581  11.384
32654W        W 1072  42.307  43.352  11.536
32655W        W 1073  39.425   3.829   1.354
32656W        W 1074  43.915  11.286  12.893
32657W        W 1075   5.912  42.455  11.484
32658W        W 1076  28.623  23.561   3.210
32659W        W 1077  12.767  21.571   3.725
32660W        W 1078  27.033   8.168   4.797
32661W        W 1079  17.602   0.822  10.909
32662W        W 1080  35.365  38.929   1.429
32663W        W 1081  42.983  11.732  12.888
32664W        W 1082  36.515   9.214  11.565
32665W        W 1083  25.096  22.639   1.823
32666W        W 1084  28.962  16.270   0.317
32667W        W 1085  28.988  19.616  10.922
32668W        W 1086  17.212   9.289   1.713
32669W        W 1087  25.972  24.004  13.407
32670W        W 1088  33.475   5.696  10.942
32671W        W 1089  25.557  22.509   2.203
32672W        W 1090  30.462  23.089   4.746
32673W        W 1091  38.381  20.590   1.745
32674W        W 1092   6.832   5.242   2.410
32675W        W 1093   5.268  26.184   0.305
32676W        W 1094  27.518  14.637   4.317
32677W        W 1095   3.295  34.061  11.430
32678W        W 1096   4.223  24.605   3.304
32679W        W 1097  41.879  34.977  12.502
32680W        W 1098  13.335   1.752  11.472
32681W        W 1099   6.680  19.071   4.286
32682W        W 1100  18.148   7.362   3.268
32683W        W 1101  17.276  15.804  11.591
32684W        W 1102  38.942  27.647   2.215
32685W        W 1103  39.532   7.360  13.000
32686W        W 1104  30.440  40.992   4.713
32687W        W 1105  33.072   4.800  13.323
32688W        W 1106  10.313   0.851  12.531
32689W        W 1107  13.136   9.324  12.879
32690W        W 1108  24.558  18.193  10.960
32691W        W 1109   4.783  23.128   1.806
32692W        W 1110   8.359  36.966   2.861
32693W        W 1111  16.627  40.534   4.197
32694W        W 1112  23.661  35.566   4.743
32695W        W 1113  24.979  17.706   2.331
32696W        W 1114   4.434   4.708   3.807
32697W        W 1115  14.212  32.944  10.901
32698W        W 1116  32.103   7.302   2.683
32699W        W 1117   5.388  31.447   2.894
32700W        W 1118   0.272  30.045   2.756
32701W        W 1119  20.270  34.460   1.712
32702W        W 1120  10.190  38.918   2.693
32703W        W 1121  32.930  18.177  14.800
32704W        W 1122  23.589  26.567   2.892
32705W        W 1123   5.864  42.451   4.740
32706W        W 1124  20.051  42.841  11.596
32707W        W 1125  16.188  36.012   0.784
32708W        W 1126  32.987  35.053   0.915
32709W        W 1127  26.473  39.457  13.418
32710W        W 1128  29.004  12.253   0.255
32711W        W 1129  18.770  44.296   5.277
32712W        W 1130  22.511   3.781  11.450
32713W        W 1131  20.709  27.555  13.897
32714W        W 1132  21.656  43.400   0.285
32715W        W 1133  40.916  14.654   3.161
32716W        W 1134  15.098   4.207  12.399
32717W        W 1135  15.813  14.789  11.924
32718W        W 1136  43.367  38.983  11.939
32719W        W 1137  11.842  37.342  13.006
32720W        W 1138  11.154  15.614   1.447
32721W        W 1139  30.579  11.782   0.904
32722W        W 1140  36.057   3.950  10.560
32723W        W 1141  17.680  35.449  14.918
32724W        W 1142  30.606  44.284  13.947
32725W        W 1143  38.827  22.121   2.807
32726W        W 1144  36.396  42.518   3.848
32727W        W 1145  29.426  21.706  14.801
32728W        W 1146  44.306  14.289   1.307
32729W        W 1147   6.261   3.376   2.691
32730W        W 1148   8.871  44.755   3.823
32731W        W 1149   3.290   8.164  12.858
32732W        W 1150  41.925  10.666  12.439
32733W        W 1151  12.751   8.278   2.750
32734W        W 1152  32.397  24.005  13.430
32735W        W 1153  29.968  39.529  12.538
32736W        W 1154  20.071  40.825   3.726
32737W        W 1155   7.838   3.430  10.446
32738W        W 1156   6.277  37.498  14.915
32739W        W 1157   6.371  27.170   3.760
32740W        W 1158  28.986   4.427   2.350
32741W        W 1159  23.620   3.250   1.234
32742W        W 1160  26.640  11.322  13.541
32743W        W 1161  37.048  33.474  13.862
32744W        W 1162  41.353   2.365  13.958
32745W        W 1163  28.158  16.235  13.314
32746W        W 1164   9.725  15.303   0.382
32747W        W 1165  35.445  18.096   0.381
32748W        W 1166  28.060   7.408   4.680
32749W        W 1167  35.940  41.488   4.200
32750W        W 1168  41.515   7.879  10.624
32751W        W 1169  21.534  35.421   0.285
32752W        W 1170   1.256  13.145   0.740
32753W        W 1171  22.120  11.706  14.493
32754W        W 1172  35.019  15.232   1.715
32755W        W 1173  33.415  32.511  13.989
32756W        W 1174  27.624  30.544   4.818
32757W        W 1175   7.703  40.542  10.580
32758W        W 1176   3.351  37.838   4.324
32759W        W 1177  17.165  43.975   1.253
32760W        W 1178  33.550  35.877  10.142
32761W        W 1179  10.817  14.716  14.289
32762W        W 1180  36.893  15.269  12.928
32763W        W 1181   4.812  25.220   4.706
32764W        W 1182  25.019  31.955   4.692
32765W        W 1183  33.596  28.642   0.771
32766W        W 1184  43.276  26.575  14.785
32767W        W 1185  33.385  19.584   5.295
32768W        W 1186  41.829  27.967  10.015
32769W        W 1187  40.510  30.529   0.862
32770W        W 1188   6.854  23.995  13.357
32771W        W 1189  20.122  16.261   0.257
32772W        W 1190  41.384  39.938   0.342
32773W        W 1191  34.522  35.852   0.469
32774W        W 1192  36.427  23.736   4.114
32775W        W 1193  17.156  40.818   2.312
32776W        W 1194  37.577  11.357  14.906
32777W        W 1195  19.054  26.132  11.008
32778W        W 1196  11.732  32.573  11.401
32779W        W 1197  23.557  27.486   4.624
32780W        W 1198   2.233  40.322   3.741
32781W        W 1199  35.939  34.983  13.800
32782W        W 1200  28.999   6.910  12.458
32783W        W 1201  26.572  16.238   3.646
32784W        W 1202  15.690  29.058  10.996
32785W        W 1203  37.482  11.672  10.455
32786W        W 1204  42.429  27.494   0.408
32787W        W 1205  33.617  20.706   4.617
32788W        W 1206   0.350  14.303   1.817
32789W        W 1207  15.615  24.554   1.424
32790W        W 1208  41.012  39.542  11.920
32791W        W 1209  12.177  32.933   4.321
32792W        W 1210  19.095  37.517  12.836
32793W        W 1211  26.066  31.504   0.260
32794W        W 1212   6.413  36.056  13.435
32795W        W 1213  41.295  19.248  10.549
32796W        W 1214  13.309  37.951  11.489
32797W        W 1215  10.286  39.411   4.670
32798W        W 1216   1.311  32.050   0.467
32799W        W 1217  14.791  36.966  10.978
32800W        W 1218  30.052  20.734  13.527
32801W        W 1219  11.846   6.803  14.896
32802W        W 1220   8.303  24.140   3.231
32803W        W 1221  36.434  29.551  14.329
32804W        W 1222   8.216  32.567  12.533
32805W        W 1223  27.657  25.026   1.276
32806W        W 1224   4.775  22.242  13.403
32807W        W 1225  35.529  23.541  13.514
32808W        W 1226  12.194  19.650  12.059
32809W        W 1227  34.863  11.308  10.532
32810W        W 1228  37.552  22.694   0.821
32811W        W 1229   4.938   5.775  11.047
32812W        W 1230  39.409  33.448  12.986
32813W        W 1231  13.679  19.261   4.807
32814W        W 1232  38.444  42.021  14.406
32815W        W 1233  23.206  33.935   2.862
32816W        W 1234  35.513   3.314  12.891
32817W        W 1235  17.715  34.591  11.919
32818W        W 1236  34.960  26.682  10.931
32819W        W 1237   8.812  31.630   4.115
32820W        W 1238   3.802  43.860   2.897
32821W        W 1239  40.982  34.869  11.072
32822W        W 1240  22.511  42.308   0.326
32823W        W 1241  28.581  20.670   2.870
32824W        W 1242   3.217  34.612   4.201
32825W        W 1243  28.576  36.047   3.846
32826W        W 1244   3.938  19.566   2.244
32827W        W 1245  11.849  24.560   2.200
32828W        W 1246  41.014  29.652  14.512
32829W        W 1247  32.597  26.612  10.405
32830W        W 1248   8.396  11.285  11.566
32831W        W 1249  28.563  39.998   0.838
32832W        W 1250  32.498   9.757   4.678
32833W        W 1251  30.043  22.069   1.401
32834W        W 1252  41.364  28.118   4.638
32835W        W 1253  21.711  17.713   2.246
32836W        W 1254  41.852  26.150   0.849
32837W        W 1255  40.521  32.915   2.188
32838W        W 1256  36.047  24.572   1.250
32839W        W 1257  13.816  38.820   0.407
32840W        W 1258  29.615  14.664  12.556
32841W        W 1259  28.016  23.609  14.905
32842W        W 1260  41.330  22.220  14.024
32843W        W 1261   0.960   6.421  14.461
32844W        W 1262   4.321  35.427   0.390
32845W        W 1263  26.525   0.984  12.047
32846W        W 1264   8.318  27.146  10.999
32847W        W 1265  29.493  12.243   3.215
32848W        W 1266  24.200  17.689   2.218
32849W        W 1267  14.826  22.684  12.921
32850W        W 1268  18.645   8.374  12.390
32851W        W 1269  11.678   3.435   9.956
32852W        W 1270  18.707   1.477  12.535
32853W        W 1271  34.446  35.094  13.824
32854W        W 1272  30.910  20.114  14.848
32855W        W 1273  40.982  33.411  14.390
32856W        W 1274  35.563  37.357  12.991
32857W        W 1275  23.162  41.974   9.935
32858W        W 1276  39.822  42.366   3.283
32859W        W 1277  13.151   2.407  10.462
32860W        W 1278  36.892  17.249  11.901
32861W        W 1279  13.298  41.452   5.152
32862W        W 1280  10.720  34.023   4.293
32863W        W 1281  24.506  24.992   0.955
32864W        W 1282   5.238  34.406   3.703
32865W        W 1283  21.253  13.663  14.456
32866W        W 1284  39.817  39.057  14.327
32867W        W 1285  31.955  38.568   3.177
32868W        W 1286   4.881  21.745  14.414
32869W        W 1287  24.489  31.600  13.506
32870W        W 1288   0.323  29.136   4.731
32871W        W 1289  22.053  37.548   3.637
32872W        W 1290  29.051   6.259  12.016
32873W        W 1291  11.166  23.568  11.060
32874W        W 1292  27.072  14.203  13.436
32875W        W 1293  23.128  25.477   3.820
32876W        W 1294  42.891  16.618  10.618
32877W        W 1295  27.060  20.114  10.954
32878W        W 1296  18.137  23.701   5.102
32879W        W 1297  20.165  24.179  12.356
32880W        W 1298  22.248  40.838   1.865
32881W        W 1299  41.944   8.781  13.872
32882W        W 1300  17.740  28.649   2.737
32883W        W 1301  19.747  34.007  11.928
32884W        W 1302  11.354   3.815   3.269
32885W        W 1303  30.165   6.285   4.828
32886W        W 1304  32.941  29.636  14.800
32887W        W 1305  31.467   0.770  13.424
32888W        W 1306  39.333  23.170  14.349
32889W        W 1307  23.547  44.379   1.423
32890W        W 1308   2.965  37.931  14.300
32891W        W 1309  44.857  14.296  14.973
32892W        W 1310  15.656  24.027  13.832
32893W        W 1311  13.683  34.038  14.338
32894W        W 1312   1.352  14.698   4.755
32895W        W 1313  11.801   4.716  11.990
32896W        W 1314  36.428  11.862  14.373
32897W        W 1315  32.937  34.432  11.061
32898W        W 1316  22.220  26.008  12.565
32899W        W 1317  17.704  31.603  13.395
32900W        W 1318  15.220  23.012  12.406
32901W        W 1319  17.774  24.989   1.327
32902W        W 1320  39.003  23.183  11.001
32903W        W 1321  14.689   3.439   2.801
32904W        W 1322  16.110  17.298   3.305
32905W        W 1323  28.446   7.814   0.915
32906W        W 1324   6.920  23.012   2.854
32907W        W 1325   7.236  26.662   3.689
32908W        W 1326  17.596  21.069  11.896
32909W        W 1327  29.076  20.170   2.767
32910W        W 1328  43.945  18.238  10.406
32911W        W 1329  23.238   3.309  11.029
32912W        W 1330  38.435  26.203  11.478
32913W        W 1331  38.420  10.817  12.930
32914W        W 1332  22.047  42.322  10.958
32915W        W 1333  24.532  36.491  11.601
32916W        W 1334  24.044  26.463   4.325
32917W        W 1335  31.105  19.666  12.950
32918W        W 1336  27.052  44.330   2.251
32919W        W 1337  43.323   3.919   1.719
32920W        W 1338  25.511   3.746  12.094
32921W        W 1339  36.930  25.017  13.020
32922W        W 1340   7.370  28.477   0.473
32923W        W 1341  11.794  41.850  14.916
32924W        W 1342  13.127  37.445  13.498
32925W        W 1343  15.213  12.655  13.932
32926W        W 1344  13.201  21.188  14.808
32927W        W 1345  27.109   4.406   1.350
32928W        W 1346  33.992  31.912   1.873
32929W        W 1347  43.392  22.549  13.516
32930W        W 1348   5.398  31.564  13.003
32931W        W 1349   0.907   2.893   3.385
32932W        W 1350  28.075  33.000  10.458
32933W        W 1351  20.211   4.914   1.239
32934W        W 1352  40.972  43.911   3.791
32935W        W 1353  38.849  34.061  12.060
32936W        W 1354  24.643   9.349   1.378
32937W        W 1355  41.385  38.371   2.887
32938W        W 1356  17.739  43.318   3.677
32939W        W 1357  14.725  30.462   4.691
32940W        W 1358  41.475  34.540  12.841
32941W        W 1359  15.765  36.917   4.211
32942W        W 1360  27.622  37.502  12.361
32943W        W 1361   3.752  27.549  11.400
32944W        W 1362   8.383   7.379  14.338
32945W        W 1363  36.098  42.327   3.304
32946W        W 1364  22.538  28.062  10.458
32947W        W 1365  37.454  34.373   4.686
32948W        W 1366   7.235  23.623  12.432
32949W        W 1367  40.852  32.450   2.239
32950W        W 1368  17.636   1.363   2.766
32951W        W 1369   2.259  11.314  12.464
32952W        W 1370  16.209  25.990  11.577
32953W        W 1371  41.392  23.615   1.286
32954W        W 1372  25.198  27.538   2.375
32955W        W 1373  35.516   9.710   1.729
32956W        W 1374   1.740  42.878  14.514
32957W        W 1375  23.991  18.161   0.420
32958W        W 1376  22.995  16.228   0.879
32959W        W 1377   5.193  20.526  13.317
32960W        W 1378  27.535  36.888  13.456
32961W        W 1379  36.974   2.908  11.922
32962W        W 1380  22.119   4.339  12.028
32963W        W 1381  28.144  41.491  10.566
32964W        W 1382  12.642  36.974   0.751
32965W        W 1383  21.694  24.073   0.882
32966W        W 1384  42.392  38.903   0.341
32967W        W 1385  41.362   1.773   1.853
32968W        W 1386  36.906  13.804  12.094
32969W        W 1387  15.648  14.332   0.847
32970W        W 1388  37.937  13.602  11.060
32971W        W 1389   3.390  31.023   4.120
32972W        W 1390  28.595  25.602   1.261
32973W        W 1391  40.522  39.401   3.336
32974W        W 1392  20.073  39.911  11.386
32975W        W 1393  23.564  20.687   4.660
32976W        W 1394  44.857  36.885   4.212
32977W        W 1395  25.094  41.493  13.324
32978W        W 1396   1.388   7.193   1.796
32979W        W 1397   8.682  42.854   1.915
32980W        W 1398  23.133  39.037   2.693
32981W        W 1399   5.734   4.725  12.559
32982W        W 1400  44.949  13.179  11.074
32983W        W 1401  25.054  38.547  13.037
32984W        W 1402   3.856  18.731   3.863
32985W        W 1403  30.921  17.241  13.024
32986W        W 1404  14.153  30.129   0.925
32987W        W 1405  34.976  34.926  11.965
32988W        W 1406  40.917  17.161   4.822
32989W        W 1407  21.233  20.743  13.427
32990W        W 1408  29.577  10.238  13.398
32991W        W 1409   3.250  23.074  14.861
32992W        W 1410  41.358  21.660   4.793
32993W        W 1411  39.530  23.730  11.593
32994W        W 1412   3.263  28.105  11.912
32995W        W 1413  36.525  14.205  10.082
32996W        W 1414  41.933  42.400   0.817
32997W        W 1415  33.621  24.035  11.933
32998W        W 1416  27.633  34.915  13.913
32999W        W 1417   2.273   2.418   4.197
33000W        W 1418  31.549  14.635  13.399
33001W        W 1419  25.995  39.533   1.289
33002W        W 1420  41.337  10.792   1.852
33003W        W 1421  28.659  44.429   4.603
33004W        W 1422  34.921  26.525  12.065
33005W        W 1423  12.171  42.908  11.520
33006W        W 1424  19.231  39.416  11.082
33007W        W 1425  17.199  25.159   2.667
33008W        W 1426   3.747  35.934  12.881
33009W        W 1427  25.579  29.103  12.480
33010W        W 1428  37.921  29.114   4.659
33011W        W 1429  35.938  10.298   2.394
33012W        W 1430  18.115  40.961   0.923
33013W        W 1431   0.408  10.191   4.230
33014W        W 1432  21.737  31.527   4.766
33015W        W 1433  25.090  33.903  10.460
33016W        W 1434  42.884  35.921   1.804
33017W        W 1435   5.358  37.483  11.988
33018W        W 1436  23.236  43.004  13.514
33019W        W 1437  37.445  43.476  13.432
33020W        W 1438  18.651  10.283   4.173
33021W        W 1439  33.008  23.175  14.431
33022W        W 1440  22.199  32.054  11.967
33023W        W 1441   6.268  16.124   1.741
33024W        W 1442  39.982  27.666  13.324
33025W        W 1443  28.929  40.808  11.476
33026W        W 1444  42.032  39.535   1.360
33027W        W 1445  23.725   4.701   2.263
33028W        W 1446  11.648  44.317   2.259
33029W        W 1447  40.511  33.453   4.170
33030W        W 1448   2.243  26.205  14.323
33031W        W 1449  25.647  12.271  11.946
33032W        W 1450  14.775   8.863   1.705
33033W        W 1451  12.848   5.865   2.199
33034W        W 1452  35.583   0.283  13.358
33035W        W 1453  39.533  39.850   2.185
33036W        W 1454  24.550  37.929   1.828
33037W        W 1455   9.702   7.699   3.376
33038W        W 1456  24.212  37.870  11.957
33039W        W 1457  34.047  24.225  12.434
33040W        W 1458  24.492   3.748   1.756
33041W        W 1459  42.320  41.967   3.749
33042W        W 1460  24.694  10.186   1.344
33043W        W 1461  44.409  20.689   1.737
33044W        W 1462  20.123  24.493  13.415
33045W        W 1463   9.340  13.161  13.873
33046W        W 1464  31.491   8.400   2.354
33047W        W 1465   4.262  25.087  14.910
33048W        W 1466  24.156  15.656   1.808
33049W        W 1467  30.429  26.512  13.458
33050W        W 1468  26.081   4.352  14.773
33051W        W 1469   5.221   3.237  12.883
33052W        W 1470   3.289  19.547   0.789
33053W        W 1471  44.931   5.375   4.624
33054W        W 1472  25.712  15.657   1.220
33055W        W 1473  44.495   1.419   4.721
33056W        W 1474  38.566  35.929   1.213
33057W        W 1475  28.969   7.382  10.611
33058W        W 1476  31.460  13.180  11.026
33059W        W 1477  21.130  32.949   4.308
33060W        W 1478   1.933  40.440   1.217
33061W        W 1479  30.497  31.007   1.395
33062W        W 1480   4.702  18.102  13.836
33063W        W 1481  29.976  44.421   1.417
33064W        W 1482  12.271  18.146  14.942
33065W        W 1483  25.020  21.677  11.064
33066W        W 1484  12.842  34.610  14.326
33067W        W 1485  18.760  18.677  11.025
33068W        W 1486  43.934  38.566   5.693
33069W        W 1487   4.351  31.509  13.851
33070W        W 1488  26.674  40.465  11.858
33071W        W 1489  24.626  20.562  11.977
33072W        W 1490   5.790  12.817   0.833
33073W        W 1491  13.210  22.232  10.469
33074W        W 1492  40.827  21.678   4.256
33075W        W 1493  11.354  32.046   3.812
33076W        W 1494  23.717  28.057  13.825
33077W        W 1495   4.860  35.506   4.699
33078W        W 1496  43.386  28.561  14.481
33079W        W 1497  15.616  20.716   4.681
33080W        W 1498  22.237  42.477   1.857
33081W        W 1499  30.121  33.982  13.048
33082W        W 1500  29.544   0.800   3.329
33083W        W 1501  37.373  38.931   1.922
33084W        W 1502  25.632   0.466  14.796
33085W        W 1503  28.553  40.955   0.800
33086W        W 1504  40.997  24.097   2.888
33087W        W 1505   5.838  32.411   1.901
33088W        W 1506  35.856  39.503   9.991
33089W        W 1507  43.976  21.058   3.345
33090W        W 1508  44.781  28.461   2.674
33091W        W 1509  31.409  20.184   0.858
33092W        W 1510   9.722  33.007  14.920
33093W        W 1511   0.818   7.210  12.870
33094W        W 1512  21.582   2.838  14.011
33095W        W 1513   0.851  33.885   3.265
33096W        W 1514  43.951  34.585   3.322
33097W        W 1515   2.836  36.430  10.892
33098W        W 1516  29.622  30.637   5.225
33099W        W 1517   9.204  25.636  10.898
33100W        W 1518  32.537  33.575   0.431
33101W        W 1519   0.765  13.190  14.763
33102W        W 1520  19.750  37.444  10.440
33103W        W 1521   2.914  13.343   3.810
33104W        W 1522  23.660  42.374   0.366
33105W        W 1523   5.219  38.971   2.361
33106W        W 1524  39.004  44.386   3.282
33107W        W 1525  23.041  37.572   2.250
33108W        W 1526  22.170   9.157   2.311
33109W        W 1527  37.919  42.952   1.400
33110W        W 1528  10.156  20.637  12.973
33111W        W 1529   9.222  12.683   4.209
33112W        W 1530   0.869   8.380  14.864
33113W        W 1531  28.161  38.842  14.020
33114W        W 1532  10.159  21.559   1.235
33115W        W 1533  43.507   2.854   4.163
33116W        W 1534   4.740  34.598   4.161
33117W        W 1535  33.082  26.096   1.361
33118W        W 1536  30.638   9.177   1.825
33119W        W 1537  41.791  37.504   3.661
33120W        W 1538   3.441  14.098  11.540
33121W        W 1539  33.051  41.526   0.290
33122W        W 1540  28.650   7.771   1.389
33123W        W 1541  10.340  42.474   3.838
33124W        W 1542  18.659  16.674   1.889
33125W        W 1543   1.458   3.889  11.031
33126W        W 1544  44.425  44.351  10.084
33127W        W 1545   8.810  42.410  10.975
33128W        W 1546  41.503   8.372   0.387
33129W        W 1547   3.432  10.177   3.755
33130W        W 1548  35.909   9.871  13.328
33131W        W 1549  33.526  27.687  13.323
33132W        W 1550  42.305  14.642  12.036
33133W        W 1551  42.323  30.568  12.435
33134W        W 1552  10.319  33.404  11.467
33135W        W 1553  35.484  17.140   0.961
33136W        W 1554   4.335   4.309   3.274
33137W        W 1555  18.169  42.370   3.703
33138W        W 1556  37.009  30.456   1.342
33139W        W 1557  26.161  34.407  13.511
33140W        W 1558  28.140   5.806   2.419
33141W        W 1559  34.005   7.415  11.060
33142W        W 1560   8.865  16.297  10.488
33143W        W 1561  44.307  34.567  13.907
33144W        W 1562  32.104   5.871  10.984
33145W        W 1563  18.201  29.128  14.016
33146W        W 1564   3.399  36.444   4.219
33147W        W 1565  26.001  14.147  12.534
33148W        W 1566  39.441  17.621  14.329
33149W        W 1567  15.174  20.762  14.775
33150W        W 1568  12.778  31.947   4.220
33151W        W 1569  14.819  28.579  14.000
33152W        W 1570  33.543  32.637  11.926
33153W        W 1571  28.518  41.951  12.883
33154W        W 1572  27.001   4.311   0.737
33155W        W 1573   6.298   1.341   4.309
33156W        W 1574  32.074  29.523   1.754
33157W        W 1575  30.919   1.970   0.342
33158W        W 1576   7.752  25.648   1.881
33159W        W 1577  18.115  39.413   3.272
33160W        W 1578  26.066  33.440   2.759
33161W        W 1579  37.423  17.215  13.478
33162W        W 1580  24.634   6.282  11.081
33163W        W 1581  29.462  19.094  13.061
33164W        W 1582  33.597  41.845   5.103
33165W        W 1583  13.326   3.313   4.310
33166W        W 1584   2.234  35.026   1.836
33167W        W 1585  37.897   6.690  11.392
33168W        W 1586  12.850  21.179  12.902
33169W        W 1587   9.310  29.670  12.931
33170W        W 1588  20.709  12.163  14.473
33171W        W 1589  21.592  24.589   1.229
33172W        W 1590  25.577  23.500   9.972
33173W        W 1591  16.628   1.401  13.934
33174W        W 1592  39.990   0.925  12.506
33175W        W 1593  29.510  41.364   2.775
33176W        W 1594  33.425  28.182   2.347
33177W        W 1595  12.125  16.606  12.563
33178W        W 1596  25.580   7.414   4.305
33179W        W 1597  14.772  13.833  13.912
33180W        W 1598  21.068  44.488  12.890
33181W        W 1599  17.565  14.830  12.581
33182W        W 1600  24.184  43.494  12.912
33183W        W 1601   2.308  33.477   4.650
33184W        W 1602  17.729   1.882   0.764
33185W        W 1603  34.052  26.555  12.828
33186W        W 1604  32.935   0.293  14.821
33187W        W 1605  19.159  38.438   2.221
33188W        W 1606  35.418  27.949   3.677
33189W        W 1607  42.851  12.210  10.139
33190W        W 1608   8.219  29.979  10.542
33191W        W 1609  11.633  28.940  10.470
33192W        W 1610  21.086  17.572  12.928
33193W        W 1611  13.757   5.239   5.771
33194W        W 1612  42.009  21.037  12.942
33195W        W 1613  40.391   7.766   3.148
33196W        W 1614  33.474  19.118  14.843
33197W        W 1615  26.031  11.256  10.473
33198W        W 1616  23.030   1.896   4.651
33199W        W 1617  31.033  29.637  12.093
33200W        W 1618  43.437  39.378  12.918
33201W        W 1619  16.142  34.896  13.386
33202W        W 1620  33.496  23.999  13.368
33203W        W 1621   4.844  20.592  13.513
33204W        W 1622  24.058  11.672   5.303
33205W        W 1623   9.357  33.989   4.712
33206W        W 1624  44.341  25.657   0.892
33207W        W 1625  41.841   7.703  14.791
33208W        W 1626  42.950  12.781  12.347
33209W        W 1627  38.550  17.190   3.226
33210W        W 1628  43.913  17.728  11.997
33211W        W 1629  19.225   5.875  11.493
33212W        W 1630  15.158   3.293  10.448
33213W        W 1631  44.274  26.004  12.040
33214W        W 1632  15.143  16.633   2.895
33215W        W 1633  34.482  16.224  14.289
33216W        W 1634   3.227   4.749  14.852
33217W        W 1635  27.473   7.385   2.369
33218W        W 1636   6.208  36.017   5.191
33219W        W 1637  39.445  20.687  11.455
33220W        W 1638  12.855  25.618  10.491
33221W        W 1639  10.300  23.715  12.873
33222W        W 1640   2.893   8.759  13.898
33223W        W 1641  20.092   7.390  13.383
33224W        W 1642  33.098   1.970   1.907
33225W        W 1643  20.047   0.430   0.954
33226W        W 1644  12.812  17.721   2.415
33227W        W 1645  23.702  12.149   4.649
33228W        W 1646  44.821   8.171  14.376
33229W        W 1647  16.748  34.870  10.938
33230W        W 1648   9.340  42.511   4.142
33231W        W 1649  29.580   6.734  11.008
33232W        W 1650  21.716  37.976  11.915
33233W        W 1651  17.725  22.189   0.294
33234W        W 1652  19.557  39.926   2.839
33235W        W 1653   5.256  20.219  13.468
33236W        W 1654  28.651   9.684   2.405
33237W        W 1655  31.402   6.829   4.330
33238W        W 1656  32.030  30.919   3.857
33239W        W 1657  29.115  39.881   3.216
33240W        W 1658   6.778   9.230  14.784
33241W        W 1659   6.866  13.814   3.377
33242W        W 1660  16.774  22.596   0.277
33243W        W 1661  40.012   3.367   0.834
33244W        W 1662  34.959   2.423   1.330
33245W        W 1663   7.295  27.059  12.008
33246W        W 1664  12.841   2.785  11.029
33247W        W 1665   3.808  12.286  11.987
33248W        W 1666  11.370  32.950  13.453
33249W        W 1667  27.077  41.447   3.644
33250W        W 1668   3.252  22.676   4.637
33251W        W 1669  17.142  25.027   4.320
33252W        W 1670  11.162  43.891   2.355
33253W        W 1671  23.500  41.483   1.775
33254W        W 1672  13.135  41.529   1.393
33255W        W 1673  10.255  44.490  11.589
33256W        W 1674  13.712  38.400   0.464
33257W        W 1675  12.671   1.371   4.699
33258W        W 1676  20.688  15.598   3.206
33259W        W 1677  39.458   2.365  14.402
33260W        W 1678  41.484  14.594  13.984
33261W        W 1679  27.455  37.087  12.569
33262W        W 1680  14.255   3.377  13.314
33263W        W 1681   3.327  14.774   1.418
33264W        W 1682  32.955  11.730  14.898
33265W        W 1683  20.631  41.880   4.328
33266W        W 1684  15.681   0.293  14.904
33267W        W 1685  37.891  29.505  10.991
33268W        W 1686  32.608   6.236   1.296
33269W        W 1687  11.638  39.957  14.870
33270W        W 1688  42.349   6.838   1.323
33271W        W 1689  12.313  20.223   2.250
33272W        W 1690   4.395  42.338   1.840
33273W        W 1691  12.123   5.329  10.547
33274W        W 1692   6.765   9.174   2.887
33275W        W 1693  15.279   4.272   1.843
33276W        W 1694  44.923   5.318  11.948
33277W        W 1695  23.000  18.063  11.399
33278W        W 1696  44.464   7.238  13.516
33279W        W 1697  29.932  22.732   0.347
33280W        W 1698  12.267  14.329  10.424
33281W        W 1699   3.825  14.265   1.335
33282W        W 1700  44.424   6.883   3.378
33283W        W 1701   1.952   9.198   2.899
33284W        W 1702  37.366  13.729   3.365
33285W        W 1703   1.295  19.545   1.890
33286W        W 1704  40.464  15.819   3.640
33287W        W 1705  30.586  16.307  13.355
33288W        W 1706  32.901  35.863   0.383
33289W        W 1707  39.425  29.594  13.062
33290W        W 1708  38.007  14.658  12.928
33291W        W 1709  36.393  14.186   1.894
33292W        W 1710  41.023  10.319   1.801
33293W        W 1711  40.425  29.162   4.308
33294W        W 1712  26.065   5.362  13.920
33295W        W 1713  31.473   6.252   4.702
33296W        W 1714   6.224  28.967   2.181
33297W        W 1715  10.864  31.622  10.595
33298W        W 1716  20.589  26.955   5.083
33299W        W 1717  38.422  13.693  14.429
33300W        W 1718   4.231  29.991  11.571
33301W        W 1719  30.520  39.973   2.901
33302W        W 1720  17.717  19.103  14.487
33303W        W 1721  11.247  11.305   0.292
33304W        W 1722  38.549  21.555  14.982
33305W        W 1723  26.574  31.466  14.365
33306W        W 1724  17.692  29.996  13.845
33307W        W 1725   0.255  43.788  11.013
33308W        W 1726  25.087  40.381   0.305
33309W        W 1727   6.706  28.954   4.695
33310W        W 1728  38.904   2.327   3.381
33311W        W 1729  28.603   7.868  11.910
33312W        W 1730  32.900  11.187  14.401
33313W        W 1731  11.237   5.377  14.290
33314W        W 1732  32.074  29.014   2.885
33315W        W 1733  30.499  20.032  13.332
33316W        W 1734  43.778  25.582  14.923
33317W        W 1735  14.794  11.851   1.372
33318W        W 1736  28.532  27.497   3.285
33319W        W 1737   6.330  17.776  10.068
33320W        W 1738  21.710  10.221  12.475
33321W        W 1739  16.707  30.590  10.988
33322W        W 1740  36.923   4.269  11.867
33323W        W 1741  26.964  23.061   4.192
33324W        W 1742   0.321  39.386   3.657
33325W        W 1743  40.804  10.714   3.237
33326W        W 1744  31.510  24.096  13.321
33327W        W 1745  20.036  43.808   2.774
33328W        W 1746   1.479  15.148  14.509
33329W        W 1747   7.354   3.277   3.832
33330W        W 1748   3.460  31.416   3.702
33331W        W 1749  38.446   0.423   3.777
33332W        W 1750   5.820  39.485  13.920
33333W        W 1751  13.288  44.404  11.003
33334W        W 1752  42.343   3.768   2.789
33335W        W 1753  35.586   1.379   3.682
33336W        W 1754  10.238   8.794  12.446
33337W        W 1755  29.142  17.232  12.997
33338W        W 1756   5.205   2.393  11.069
33339W        W 1757  21.648  40.527   2.824
33340W        W 1758  39.395  17.253  14.440
33341W        W 1759  26.640   9.359   2.740
33342W        W 1760  44.817  14.160  11.915
33343W        W 1761   3.865   8.202   3.367
33344W        W 1762   7.871  14.594   2.759
33345W        W 1763  31.407  31.080   4.762
33346W        W 1764  22.091  35.378  13.394
33347W        W 1765   3.802  39.927  14.348
33348W        W 1766  33.413   0.877  13.832
33349W        W 1767  26.182  27.471  10.977
33350W        W 1768  23.005  41.384  14.911
33351W        W 1769  39.362  32.456  12.044
33352W        W 1770  34.475  41.470   2.301
33353W        W 1771   9.709  20.559   2.855
33354W        W 1772  13.633   8.822  14.394
33355W        W 1773  24.198  20.589   0.334
33356W        W 1774  13.638  28.940  12.988
33357W        W 1775  41.879  14.258   1.274
33358W        W 1776  32.913  19.164   4.777
33359W        W 1777  43.277  38.496  11.893
33360W        W 1778  24.648  39.054   4.243
33361W        W 1779  39.918  10.192   1.918
33362W        W 1780  38.442  25.546   0.828
33363W        W 1781  39.344   2.316   4.828
33364W        W 1782  39.556  16.164  13.929
33365W        W 1783  32.901  28.449  14.867
33366W        W 1784   6.266  35.567   3.655
33367W        W 1785  12.660  10.661   4.273
33368W        W 1786  33.429  43.501  12.089
33369W        W 1787  18.703   8.189   1.841
33370W        W 1788  42.921  22.163  13.519
33371W        W 1789  23.558   7.729   2.683
33372W        W 1790  37.342  41.492   2.257
33373W        W 1791  14.731  18.682  14.508
33374W        W 1792  14.811   9.865   4.338
33375W        W 1793  25.170  15.747   2.375
33376W        W 1794  28.484  12.146   2.346
33377W        W 1795  15.811  29.004  12.985
33378W        W 1796  44.268  29.524  13.525
33379W        W 1797   1.884   7.788  14.833
33380W        W 1798  33.991  22.090  11.476
33381W        W 1799  43.332  29.503  12.505
33382W        W 1800  35.870  28.982   3.236
33383W        W 1801  13.674  43.780   2.699
33384W        W 1802  27.960  19.276  12.400
33385W        W 1803  12.614  26.970   2.407
33386W        W 1804   8.390  34.614  12.532
33387W        W 1805   9.714  23.688  11.013
33388W        W 1806  18.561  11.315  13.895
33389W        W 1807  44.400   4.299  14.014
33390W        W 1808  24.142  32.081  11.473
33391W        W 1809   3.841  40.528  10.917
33392W        W 1810  14.302  44.494   1.313
33393W        W 1811  44.296  37.392  10.094
33394W        W 1812  36.457  29.468  14.813
33395W        W 1813  14.607  38.870  13.504
33396W        W 1814  26.092  15.236   3.381
33397W        W 1815  29.032  17.156  12.376
33398W        W 1816   0.858   5.713  11.046
33399W        W 1817  38.418  17.221   4.210
33400W        W 1818  11.266  43.388   3.258
33401W        W 1819   7.326   5.405  13.990
33402W        W 1820  24.628   9.743   1.283
33403W        W 1821  20.040  25.571  11.905
33404W        W 1822  16.085  26.674  13.534
33405W        W 1823  19.155  10.217  10.473
33406W        W 1824  12.343  39.028  12.864
33407W        W 1825  29.147   4.433  11.856
33408W        W 1826  25.713  27.950  12.852
33409W        W 1827   6.884   1.398  12.053
33410W        W 1828   0.776  17.136  13.024
33411W        W 1829  42.435  12.124  12.837
33412W        W 1830   2.939  12.702   0.467
33413W        W 1831  18.100   0.841  10.407
33414W        W 1832  44.789  29.929  14.931
33415W        W 1833  30.034   3.782  11.869
33416W        W 1834   4.896   8.655   4.246
33417W        W 1835  34.863  30.517   3.363
33418W        W 1836  24.993  42.010   2.334
33419W        W 1837  13.604  37.446  12.853
33420W        W 1838  31.515  18.236  12.068
33421W        W 1839  12.291  31.943  12.042
33422W        W 1840   5.403  39.409  13.970
33423W        W 1841  34.488  38.467  14.498
33424W        W 1842   8.404  41.936  14.027
33425W        W 1843  18.154  28.149   3.322
33426W        W 1844   3.348  41.799   4.832
33427W        W 1845  11.262  16.741  14.865
33428W        W 1846  19.103  39.932  12.879
33429W        W 1847  28.533  30.102  11.927
33430W        W 1848  13.190   7.391   5.250
33431W        W 1849   4.925   7.398   3.638
33432W        W 1850  15.207  40.864  12.387
33433W        W 1851  33.971   3.825  14.426
33434W        W 1852  11.373   5.302  12.410
33435W        W 1853  17.673  30.063  11.096
33436W        W 1854  44.919  14.786   2.807
33437W        W 1855  23.637  23.065  14.765
33438W        W 1856   0.392  20.598  11.378
33439W        W 1857  12.619  30.143  12.453
33440W        W 1858  20.260  42.519  14.777
33441W        W 1859   7.202  42.369  11.892
33442W        W 1860  40.484  31.093   3.830
33443W        W 1861  30.589  27.632   1.310
33444W        W 1862  19.645   6.824   0.897
33445W        W 1863  27.517  32.014   5.303
33446W        W 1864  17.290  28.078  13.541
33447W        W 1865   6.258  14.788  11.961
33448W        W 1866   6.804  40.000   4.808
33449W        W 1867   2.338  43.920  13.381
33450W        W 1868  40.883  32.065  14.995
33451W        W 1869  16.606  30.471   4.302
33452W        W 1870  16.145  36.521   0.820
33453W        W 1871  19.052  13.195  10.597
33454W        W 1872  42.807   7.907  11.891
33455W        W 1873  23.992  20.049   4.724
33456W        W 1874  24.205   3.229  11.079
33457W        W 1875  22.046  16.189   3.689
33458W        W 1876   2.920  16.652  13.796
33459W        W 1877  13.191  24.513   3.383
33460W        W 1878  21.715  30.122  13.521
33461W        W 1879  39.407  30.962  10.596
33462W        W 1880  25.143  21.725  11.374
33463W        W 1881  21.736  30.415  13.820
33464W        W 1882   4.330  41.353  14.369
33465W        W 1883  40.489   5.315   0.761
33466W        W 1884  36.438   7.693   2.363
33467W        W 1885  13.623   3.800  13.854
33468W        W 1886  42.421  22.207  13.020
33469W        W 1887   4.253  13.678   3.652
33470W        W 1888  29.947   2.907   1.722
33471W        W 1889  40.380   9.716   4.691
33472W        W 1890  20.645  23.155   5.662
33473W        W 1891   4.341  17.105  14.909
33474W        W 1892  20.569  21.076  10.989
33475W        W 1893  21.139  44.855   3.164
33476W        W 1894   2.929  14.676   3.321
33477W        W 1895  20.643   8.881  11.490
33478W        W 1896  43.797  20.638   1.377
33479W        W 1897   2.448  39.393  11.874
33480W        W 1898  38.523  18.054  11.597
33481W        W 1899  31.056  27.973  13.006
33482W        W 1900  31.111  37.453   2.188
33483W        W 1901  22.654   3.847   1.220
33484W        W 1902   9.217  43.508  14.308
33485W        W 1903  29.162  13.620   0.340
33486W        W 1904  37.336   9.168  14.810
33487W        W 1905  44.765  32.920  13.809
33488W        W 1906  23.237  34.424  12.519
33489W        W 1907  28.026  16.573   1.697
33490W        W 1908   6.799  13.281  10.412
33491W        W 1909  37.838  43.417   0.392
33492W        W 1910  22.165  28.602  11.080
33493W        W 1911   4.262   2.270  14.469
33494W        W 1912  37.559  39.483   4.734
33495W        W 1913  15.278  15.116  12.543
33496W        W 1914  32.903  31.033   4.770
33497W        W 1915  26.073  11.341  10.963
33498W        W 1916  40.832  26.610   4.600
33499W        W 1917  19.077  15.636  13.907
33500W        W 1918  12.798  38.998   0.879
33501W        W 1919  32.597  32.531   2.730
33502W        W 1920  35.053  40.504  12.412
33503W        W 1921  22.524  41.470  14.389
33504W        W 1922  26.491   8.728  13.973
33505W        W 1923  30.505  24.577   3.236
33506W        W 1924  42.503   0.399  13.819
33507W        W 1925  35.872  22.116  12.000
33508W        W 1926  24.068  29.525  13.356
33509W        W 1927  19.078  26.667  11.033
33510W        W 1928  43.892  23.604   1.771
33511W        W 1929   2.283  20.068   2.872
33512W        W 1930   1.391  10.241  13.526
33513W        W 1931   5.394  24.993   2.309
33514W        W 1932  10.281  28.145   1.340
33515W        W 1933  17.289  28.615   1.855
33516W        W 1934   3.216  42.506  11.528
33517W        W 1935  19.688  11.825  14.793
33518W        W 1936   6.413  44.874  10.508
33519W        W 1937  13.188  33.015  10.579
33520W        W 1938  11.659   9.714   1.750
33521W        W 1939  11.808  26.078  12.443
33522W        W 1940  10.242  34.949   5.136
33523W        W 1941  31.000   9.170   4.733
33524W        W 1942  19.130  18.190   3.166
33525W        W 1943  16.679  14.267  12.845
33526W        W 1944  27.949  22.196  14.784
33527W        W 1945  24.037  18.221  13.318
33528W        W 1946  41.037   0.819   1.861
33529W        W 1947   3.258  36.510  12.845
33530W        W 1948  33.971   1.817  12.347
33531W        W 1949  26.196  20.203   1.238
33532W        W 1950  34.034   0.424   1.361
33533W        W 1951  21.115  29.564  12.868
33534W        W 1952  40.466  32.498   2.826
33535W        W 1953  30.118  11.681  13.874
33536W        W 1954  28.045   2.764   0.462
33537W        W 1955  44.788   9.781   1.444
33538W        W 1956  13.624  42.521   4.350
33539W        W 1957   4.881  11.357   1.763
33540W        W 1958  24.183  11.226   3.226
33541W        W 1959   9.305  15.129  14.431
33542W        W 1960  31.601  28.059  13.861
33543W        W 1961  19.126  35.388   3.647
33544W        W 1962  32.022  40.970   3.654
33545W        W 1963  31.140  37.384  14.778
33546W        W 1964  18.187  18.573   2.243
33547W        W 1965  26.199  14.227   4.731
33548W        W 1966  25.192  41.979   4.265
33549W        W 1967  17.618  12.343   2.815
33550W        W 1968   1.431  38.935  12.967
33551W        W 1969  30.575   3.813   3.784
33552W        W 1970   3.857  36.458  11.045
33553W        W 1971  12.853  16.658   0.959
33554W        W 1972   4.393  28.120  14.811
33555W        W 1973   6.847   7.746  13.504
33556W        W 1974  19.270  17.567   2.700
33557W        W 1975  32.444  14.610   1.808
33558W        W 1976  27.103  17.672  11.064
33559W        W 1977  42.954  13.637  13.027
33560W        W 1978  41.007   8.694   4.116
33561W        W 1979  39.049   1.429   1.709
33562W        W 1980  33.898   3.288  13.959
33563W        W 1981  16.576  44.480   4.677
33564W        W 1982  18.660   1.731  12.376
33565W        W 1983  13.719  32.984   2.684
33566W        W 1984   7.872   0.449   2.780
33567W        W 1985  19.676  20.611   1.368
33568W        W 1986  15.286  19.156   0.761
33569W        W 1987  32.088  15.748   4.752
33570W        W 1988  31.965  40.481  13.050
33571W        W 1989  43.495  13.601   4.713
33572W        W 1990   2.897  21.721   5.310
33573W        W 1991  12.197  15.216  11.867
33574W        W 1992  34.464  38.349   0.325
33575W        W 1993  25.491  11.811  14.978
33576W        W 1994  43.810  27.990   3.673
33577W        W 1995  11.826   8.229   4.757
33578W        W 1996  23.698   6.332  10.909
33579W        W 1997  24.036  12.227   3.185
33580W        W 1998   3.340   1.928   0.887
33581W        W 1999  38.063  30.539   2.304
33582W        W 2000  16.725   1.839   0.419
33583W        W 2001  33.592  19.051   1.442
33584W        W 2002  28.675   4.408   1.876
33585W        W 2003   7.258  19.534   1.423
33586W        W 2004  31.405  41.835   3.732
33587W        W 2005  17.181   5.815   5.238
33588W        W 2006  22.224  38.828   1.358
33589W        W 2007   2.241  13.256   4.302
33590W        W 2008   8.749   5.874   1.225
33591W        W 2009  16.133  42.837   0.350
33592W        W 2010  30.633  10.350   4.694
33593W        W 2011  23.112  38.464   4.626
33594W        W 2012   0.381   5.706  11.476
33595W        W 2013  30.939   6.694   4.692
33596W        W 2014   5.367  20.653  11.110
33597W        W 2015  11.653   5.918   0.786
33598W        W 2016  35.452  21.165   3.242
33599W        W 2017  30.929  10.770   1.367
33600W        W 2018   8.804  19.115  13.325
33601W        W 2019  17.069  22.529   1.425
33602W        W 2020  20.087  37.441   0.354
33603W        W 2021   8.719  39.918  10.914
33604W        W 2022  32.565  16.667   3.670
33605W        W 2023  23.242  42.028  14.842
33606W        W 2024  11.299   5.788   1.227
33607W        W 2025  41.380  42.422   2.789
33608W        W 2026  17.598  35.896  14.391
33609W        W 2027  22.126  21.090   2.302
33610W        W 2028  18.253  29.627   1.888
33611W        W 2029  14.601  42.308  11.455
33612W        W 2030  15.640  14.708   2.902
33613W        W 2031   8.237  28.960   4.131
33614W        W 2032  44.918   1.321  11.611
33615W        W 2033  25.964  22.047  11.982
33616W        W 2034  35.065   6.738   4.798
33617W        W 2035  26.054  42.455   4.123
33618W        W 2036   2.799   5.260   0.951
33619W        W 2037  20.162   2.782   0.934
33620W        W 2038  13.760  23.502   0.746
33621W        W 2039  29.033  14.687   2.203
33622W        W 2040  44.261  25.187   0.456
33623W        W 2041  14.649  23.513  13.011
33624W        W 2042   0.395  30.065   1.852
33625W        W 2043  44.383   8.731  12.905
33626W        W 2044  36.851  26.183   3.177
33627W        W 2045  14.826   1.826  10.603
33628W        W 2046  38.470  39.821   0.419
33629W        W 2047  43.930   6.317  13.389
33630W        W 2048  21.598  23.134  11.541
33631W        W 2049   5.885  34.953  14.377
33632W        W 2050  24.983  15.174  13.833
33633W        W 2051  39.496  29.145   1.751
33634W        W 2052  38.455  30.548  11.999
33635W        W 2053  31.044  35.989  10.526
33636W        W 2054  30.092  36.585   2.722
33637W        W 2055   9.821  27.583  11.100
33638W        W 2056  43.844  26.654  14.293
33639W        W 2057  24.106  11.827  12.523
33640W        W 2058  13.142  34.896  13.920
33641W        W 2059   2.233   5.826   4.598
33642W        W 2060  43.987  30.151   3.354
33643W        W 2061  38.464  22.577   1.861
33644W        W 2062  33.130  25.096  12.856
33645W        W 2063  26.525  15.607  10.996
33646W        W 2064  33.559  39.516   1.929
33647W        W 2065   5.402  35.062   2.779
33648W        W 2066  18.058  31.978  10.122
33649W        W 2067  40.984  26.016   2.370
33650W        W 2068  29.460  33.479  13.498
33651W        W 2069  32.039  32.071  13.459
33652W        W 2070   3.283  38.558  10.610
33653W        W 2071  13.161  18.610  14.445
33654W        W 2072  21.220  23.664  11.078
33655W        W 2073  18.713  20.639  10.541
33656W        W 2074  11.644  34.902  14.368
33657W        W 2075  24.492   8.391   3.261
33658W        W 2076  15.205  21.554  10.606
33659W        W 2077   6.192  35.078   3.373
33660W        W 2078  37.456  23.179  10.442
33661W        W 2079   2.273  42.796  10.895
33662W        W 2080  29.118  32.529  10.554
33663W        W 2081  18.725  12.322   2.323
33664W        W 2082  16.267   0.958   1.216
33665W        W 2083   4.279  11.793  14.012
33666W        W 2084  18.147  30.654  13.381
33667W        W 2085  26.514   6.677  12.367
33668W        W 2086  13.771   3.933  10.904
33669W        W 2087  37.987  38.527   4.241
33670W        W 2088   1.453  23.668  14.933
33671W        W 2089  41.529   3.870   1.765
33672W        W 2090  34.056  32.502  14.282
33673W        W 2091  17.636  32.535  11.544
33674W        W 2092   7.910   3.438   2.372
33675W        W 2093  20.246  17.628  12.470
33676W        W 2094   5.412  24.567  10.616
33677W        W 2095  36.390   3.423  10.534
33678W        W 2096  34.885  34.994  11.109
33679W        W 2097  36.555  23.209   3.367
33680W        W 2098  43.313   5.886  14.008
33681W        W 2099   5.286  12.198   4.684
33682W        W 2100  22.694  35.361   0.893
33683W        W 2101  11.674  10.297  12.886
33684W        W 2102  16.281   8.825  13.407
33685W        W 2103  30.103   9.742   1.340
33686W        W 2104  37.454   6.351   1.429
33687W        W 2105   9.271   7.769  14.891
33688W        W 2106  36.407  33.603  12.397
33689W        W 2107   4.751  40.859  12.553
33690W        W 2108  22.047  29.543   1.926
33691W        W 2109  10.285  33.519  11.018
33692W        W 2110  12.172  22.547   1.796
33693W        W 2111  40.932  18.180  10.639
33694W        W 2112  23.576  40.874   1.885
33695W        W 2113  28.951  30.973  12.923
33696W        W 2114   6.784  38.523  11.037
33697W        W 2115  43.792   8.313   1.307
33698W        W 2116  24.155  22.587  12.921
33699W        W 2117  43.843  39.947  12.960
33700W        W 2118  14.122  42.443   0.736
33701W        W 2119   2.900   9.813  12.825
33702W        W 2120   4.414   9.207  11.109
33703W        W 2121   0.932  44.493  13.344
33704W        W 2122  24.573  24.581  12.486
33705W        W 2123  16.184  41.899   4.203
33706W        W 2124  42.450   6.388  12.425
33707W        W 2125  23.544   1.470   0.939
33708W        W 2126  39.500  42.481  14.328
33709W        W 2127  43.818  44.429  11.107
33710W        W 2128  20.081  23.005   0.868
33711W        W 2129  23.139  41.459   4.298
33712W        W 2130  14.751  32.130  11.974
33713W        W 2131  18.692   3.385  11.565
33714W        W 2132  40.437  37.942  12.537
33715W        W 2133  29.980  32.405   2.309
33716W        W 2134   7.241  26.488   3.351
33717W        W 2135  14.157   5.913   0.383
33718W        W 2136  39.860  38.380   3.694
33719W        W 2137   4.214  34.064   2.345
33720W        W 2138  10.776  23.022   1.764
33721W        W 2139   1.792  27.978  12.082
33722W        W 2140  40.860  20.590  12.937
33723W        W 2141  10.691  29.141  12.401
33724W        W 2142  14.271  33.073  14.292
33725W        W 2143  28.962   3.710  11.463
33726W        W 2144  26.051  37.401  10.941
33727W        W 2145  10.719   4.429   4.728
33728W        W 2146  11.676   6.813  13.449
33729W        W 2147  42.862  44.392   5.266
33730W        W 2148   7.225   9.242   0.848
33731W        W 2149  36.980   7.720  12.357
33732W        W 2150  41.317  10.208   0.890
33733W        W 2151  13.113  29.554   3.310
33734W        W 2152  32.981  36.876  13.965
33735W        W 2153  30.470   0.443  10.475
33736W        W 2154  33.921  44.913  14.366
33737W        W 2155   9.788  22.592   3.829
33738W        W 2156  23.019  15.685  13.035
33739W        W 2157  17.199  14.714  13.027
33740W        W 2158  31.640  39.416   1.308
33741W        W 2159  24.534   4.207  13.994
33742W        W 2160  40.326   6.695   4.714
33743W        W 2161  31.645  22.196   1.436
33744W        W 2162  30.917  13.105   3.809
33745W        W 2163  15.149   7.722   2.771
33746W        W 2164   3.841  24.163  11.066
33747W        W 2165   9.264  14.162  12.025
33748W        W 2166  31.003  20.733  13.038
33749W        W 2167   7.181  34.445  12.374
33750W        W 2168  22.228  32.544  11.868
33751W        W 2169  38.883  22.169   2.332
33752W        W 2170   7.204  23.528  13.439
33753W        W 2171   8.834  15.711  13.901
33754W        W 2172  42.004  32.574  10.442
33755W        W 2173  13.800   3.894   4.728
33756W        W 2174  38.408  23.658  10.579
33757W        W 2175  41.294  25.646  12.081
33758W        W 2176  12.339   2.755  12.975
33759W        W 2177  33.444  40.864   0.852
33760W        W 2178  13.708  15.266   4.301
33761W        W 2179  20.600  28.966   2.357
33762W        W 2180  15.097  35.857   2.300
33763W        W 2181  26.069   7.843  13.526
33764W        W 2182  24.525  31.995  10.031
33765W        W 2183  27.523  15.634   1.382
33766W        W 2184   7.194  38.427   4.798
33767W        W 2185  35.945   2.382  12.465
33768W        W 2186  12.167  35.066   0.847
33769W        W 2187  31.629  21.698   2.225
33770W        W 2188  20.740   4.698   1.232
33771W        W 2189  15.118  30.572  12.462
33772W        W 2190   3.300  30.649  10.621
33773W        W 2191  12.310  34.432   0.736
33774W        W 2192  11.843  34.053  14.922
33775W        W 2193  22.712   8.699   4.753
33776W        W 2194  36.587  34.580   3.830
33777W        W 2195  40.487   8.262   4.777
33778W        W 2196  19.145  18.203  11.506
33779W        W 2197  28.633  13.646   1.891
33780W        W 2198  29.440  43.987  13.475
33781W        W 2199  32.442  20.678   0.282
33782W        W 2200  35.862  37.988  12.896
33783W        W 2201  16.160   5.215   1.920
33784W        W 2202  40.996   8.160  11.490
33785W        W 2203  40.842   2.761  10.443
33786W        W 2204  29.015  43.366   2.248
33787W        W 2205   9.329  41.533  10.909
33788W        W 2206  14.628  37.987   4.333
33789W        W 2207   2.832  24.569  10.902
33790W        W 2208  33.960  13.613   0.306
33791W        W 2209  36.089  34.420  13.352
33792W        W 2210  25.037  13.760   3.172
33793W        W 2211  30.950  40.452  10.934
33794W        W 2212  16.693   4.204   5.644
33795W        W 2213   9.198  13.794   4.659
33796W        W 2214  42.314  27.167   0.759
33797W        W 2215  21.723   7.686   1.820
33798W        W 2216   7.176  12.229  12.093
33799W        W 2217  18.610  34.868  12.372
33800W        W 2218  26.048  30.532  14.309
33801W        W 2219  16.630  21.175   0.918
33802W        W 2220  27.493  26.613   3.669
33803W        W 2221   5.759  40.510   3.348
33804W        W 2222  27.164  13.306   1.824
33805W        W 2223   8.751   4.793   3.717
33806W        W 2224  20.650  40.499   0.893
33807W        W 2225  27.584   4.832   2.681
33808W        W 2226  27.652  37.474  14.825
33809W        W 2227  31.003  30.518  14.810
33810W        W 2228   4.312   6.895  12.548
33811W        W 2229  43.470  11.259   3.331
33812W        W 2230  34.880  26.048   2.693
33813W        W 2231  36.349   0.339  12.039
33814W        W 2232   3.221  13.605   2.311
33815W        W 2233   8.323  13.681  11.883
33816W        W 2234   4.773  38.071   3.747
33817W        W 2235  27.688   9.888  14.838
33818W        W 2236  31.942  17.627   4.686
33819W        W 2237   0.482  18.128   0.769
33820W        W 2238  25.531   1.810  12.065
33821W        W 2239  13.339   7.828   2.214
33822W        W 2240  44.463   0.454  10.553
33823W        W 2241  43.330  35.030   2.239
33824W        W 2242  31.056  40.469  13.457
33825W        W 2243  12.299  42.399  11.392
33826W        W 2244  18.067  20.164   4.698
33827W        W 2245  24.506   6.396  10.498
33828W        W 2246  35.438  40.367   0.814
33829W        W 2247   7.377  21.603  14.995
33830W        W 2248  32.587  38.012  14.768
33831W        W 2249  17.650  34.558   4.817
33832W        W 2250  13.259  16.098  13.008
33833W        W 2251   9.820   3.256  13.459
33834W        W 2252   8.734  38.862  11.888
33835W        W 2253   2.273  42.451  14.860
33836W        W 2254  11.261  20.261  11.126
33837W        W 2255  22.117   1.293  10.932
33838W        W 2256   4.273  22.632   1.351
33839W        W 2257  28.584   7.413   1.309
33840W        W 2258  39.023  22.125  13.474
33841W        W 2259   1.297   7.384  11.936
33842W        W 2260   0.294  17.758   4.838
33843W        W 2261  16.228  14.263  13.543
33844W        W 2262   5.757  16.634   0.955
33845W        W 2263  22.093  29.533  11.462
33846W        W 2264   9.772  44.933  13.374
33847W        W 2265   8.717   0.769   2.418
33848W        W 2266  39.480  18.158  13.433
33849W        W 2267  21.168  22.243   3.382
33850W        W 2268  30.930  18.196  11.467
33851W        W 2269  41.328  15.280   2.400
33852W        W 2270  33.960   1.770  12.011
33853W        W 2271   5.883  38.938  12.986
33854W        W 2272  15.130  27.039   2.262
33855W        W 2273  10.284  30.063  12.363
33856W        W 2274  43.414  31.517  13.350
33857W        W 2275   6.688   3.216   2.337
33858W        W 2276  12.196   9.772  14.848
33859W        W 2277  30.010  34.977   1.239
33860W        W 2278  42.356   1.270  14.821
33861W        W 2279  27.025  36.527  12.855
33862W        W 2280  32.889  28.973  14.498
33863W        W 2281   1.755  25.692   1.903
33864W        W 2282  14.672  26.072  11.923
33865W        W 2283  24.639  33.601   2.875
33866W        W 2284   4.251   5.823  11.003
33867W        W 2285  16.811  44.449   2.896
33868W        W 2286   6.389  22.518   2.304
33869W        W 2287   1.267   8.838   0.827
33870W        W 2288   4.357  22.089  10.487
33871W        W 2289   6.412  37.987  12.416
33872W        W 2290  31.061   6.882   2.773
33873W        W 2291  24.015  38.414   5.788
33874W        W 2292  28.010   5.792   5.791
33875W        W 2293  37.964  16.178   2.286
33876W        W 2294  41.898  36.871  14.311
33877W        W 2295  21.520  26.184   1.293
33878W        W 2296  32.966  44.424  14.363
33879W        W 2297  33.882  35.387   3.189
33880W        W 2298  37.066  24.535   3.164
33881W        W 2299  27.665  21.144  10.947
33882W        W 2300  23.735  12.830  14.365
33883W        W 2301  42.820  21.598  13.967
33884W        W 2302  28.667  30.434   2.274
33885W        W 2303  14.293   0.757  13.913
33886W        W 2304  41.911  37.939   2.882
33887W        W 2305  13.769   4.423  12.061
33888W        W 2306  43.353  12.651   1.833
33889W        W 2307  10.346  24.706   0.758
33890W        W 2308  36.439  10.199  10.154
33891W        W 2309  42.406  35.570   3.336
33892W        W 2310  29.116  10.784   4.738
33893W        W 2311  31.129  11.343   0.249
33894W        W 2312  37.842  23.687   2.751
33895W        W 2313   1.363   8.165  12.369
33896W        W 2314   1.343  26.477   4.187
33897W        W 2315  14.335  27.502  11.867
33898W        W 2316  15.101  37.051  11.898
33899W        W 2317   6.354  43.417   3.339
33900W        W 2318  26.023   1.313   3.776
33901W        W 2319  26.187  14.688  10.548
33902W        W 2320  13.621  27.475  13.516
33903W        W 2321  37.335  14.712   4.338
33904W        W 2322   5.404   1.931   2.380
33905W        W 2323  13.682  13.123  13.889
33906W        W 2324  37.435  22.023   1.448
33907W        W 2325   6.857  18.243   2.725
33908W        W 2326  29.670  19.772   4.649
33909W        W 2327  42.307  23.174   4.625
33910W        W 2328   4.943  35.867   2.750
33911W        W 2329  27.118  42.781  14.854
33912W        W 2330  14.639  31.092  14.370
33913W        W 2331  23.208  27.098   0.270
33914W        W 2332   0.772  19.070  14.306
33915W        W 2333  42.519  24.993   2.871
33916W        W 2334  27.513  24.700   4.226
33917W        W 2335  11.198  29.567  11.530
33918W        W 2336  41.787  14.110  12.993
33919W        W 2337  20.128  43.832  11.907
33920W        W 2338  37.512   7.835   4.189
33921W        W 2339  24.577  27.077  11.910
33922W        W 2340  33.527   6.294  11.012
33923W        W 2341   1.887  20.133  14.349
33924W        W 2342   5.796   9.291  11.910
33925W        W 2343  32.080  31.460  10.640
33926W        W 2344  17.604  40.803   4.763
33927W        W 2345  17.757   1.739  11.581
33928W        W 2346  44.491  35.865   5.265
33929W        W 2347  44.388  35.518   0.768
33930W        W 2348  33.596  22.067  11.877
33931W        W 2349   8.185  17.703   1.798
33932W        W 2350  36.868  41.439   0.315
33933W        W 2351   1.881  40.051   0.321
33934W        W 2352  32.478  24.497  11.575
33935W        W 2353   7.726  16.187   4.255
33936W        W 2354   7.769  35.975  13.466
33937W        W 2355  15.103  16.104  12.037
33938W        W 2356   9.693  20.679   3.165
33939W        W 2357  25.014   2.866   0.246
33940W        W 2358  22.116  35.034  14.808
33941W        W 2359  14.326  36.543  14.381
33942W        W 2360  35.065  36.082   2.383
33943W        W 2361   6.855  38.352  12.435
33944W        W 2362   7.405  24.062  13.823
33945W        W 2363  27.562   8.815  10.460
33946W        W 2364  41.969  37.415  14.896
33947W        W 2365  37.537   5.843   2.209
33948W        W 2366   5.749  15.805   0.820
33949W        W 2367  13.262   9.720   1.276
33950W        W 2368  38.381   3.926   0.952
33951W        W 2369   2.852  23.656   2.716
33952W        W 2370  23.229   3.307  12.524
33953W        W 2371  23.188  11.323   0.752
33954W        W 2372  24.212  20.737  14.468
33955W        W 2373  43.959   6.216   0.777
33956W        W 2374   8.372  28.004  14.348
33957W        W 2375   7.794  32.985  13.882
33958W        W 2376  33.616  34.545  11.392
33959W        W 2377   9.890  29.151  10.989
33960W        W 2378   4.424  37.374   0.482
33961W        W 2379   1.314   9.845  13.537
33962W        W 2380  27.011   5.428  12.880
33963W        W 2381  24.478  33.515  12.578
33964W        W 2382  20.697  29.160  14.935
33965W        W 2383  22.545   0.829  14.321
33966W        W 2384  19.046   6.413  10.894
33967W        W 2385  38.827  12.773   1.251
33968W        W 2386  44.007  36.842   1.868
33969W        W 2387   7.691  33.073   3.760
33970W        W 2388  24.006  33.532   2.271
33971W        W 2389  15.294  18.734  14.868
33972W        W 2390  36.562  33.582   0.399
33973W        W 2391  14.632  18.097   4.223
33974W        W 2392  41.412  33.561   3.816
33975W        W 2393  35.000  30.074   3.206
33976W        W 2394  40.870   3.275   5.316
33977W        W 2395  31.000  33.449  10.598
33978W        W 2396  35.538  11.706   2.867
33979W        W 2397  21.176  39.859  11.583
33980W        W 2398  16.239  35.878   0.425
33981W        W 2399  37.362  25.502   0.280
33982W        W 2400  28.064  40.849   1.786
33983W        W 2401   3.416  42.920  13.886
33984W        W 2402  34.871  29.429  11.889
33985W        W 2403  39.418   0.806  14.503
33986W        W 2404  25.013  18.579  12.878
33987W        W 2405  17.745  30.058   1.766
33988W        W 2406  39.354  17.208  13.022
33989W        W 2407   9.196  31.637   4.121
33990W        W 2408  25.646  26.181  13.522
33991W        W 2409   5.274   1.381  14.795
33992W        W 2410  34.995  25.555  11.894
33993W        W 2411   8.736  21.055  11.979
33994W        W 2412   3.402  10.318  10.977
33995W        W 2413  34.557  22.010   4.793
33996W        W 2414  27.052  21.697   1.442
33997W        W 2415  12.650  25.501  12.868
33998W        W 2416  11.774  26.621  14.815
33999W        W 2417  20.664   9.645   1.425
34000W        W 2418  38.451  34.932   0.306
34001W        W 2419  18.701  31.911  12.495
34002W        W 2420  17.238  23.701  13.383
34003W        W 2421  40.933  39.355   4.318
34004W        W 2422  33.079  30.001  13.439
34005W        W 2423   9.188  38.487  14.507
34006W        W 2424  13.257  30.629   0.945
34007W        W 2425  34.097  14.216   4.641
34008W        W 2426  33.455  44.393   2.275
34009W        W 2427  43.778   4.930   0.835
34010W        W 2428  23.499  24.204  10.920
34011W        W 2429  11.235  32.068  12.476
34012W        W 2430  20.271  40.517   2.412
34013W        W 2431   6.351   2.345  14.921
34014W        W 2432  13.147  38.049   1.271
34015W        W 2433   3.434   9.318   5.299
34016W        W 2434  29.446   2.271   1.329
34017W        W 2435  34.595  42.895  13.891
34018W        W 2436  34.120   8.684   2.227
34019W        W 2437  27.692   5.288  12.457
34020W        W 2438  40.545  24.097   4.836
34021W        W 2439   0.369  31.090  12.565
34022W        W 2440   3.276  30.619   4.176
34023W        W 2441  12.773  33.110  11.480
34024W        W 2442   5.747  32.468   2.722
34025W        W 2443  40.929  33.437  10.916
34026W        W 2444   6.748  39.347  13.047
34027W        W 2445  34.437  30.437   2.322
34028W        W 2446  21.244   8.723  14.462
34029W        W 2447  14.156  17.679   0.328
34030W        W 2448   3.370  10.795  11.903
34031W        W 2449  38.537   3.840  12.552
34032W        W 2450  19.281  19.660   4.232
34033W        W 2451  34.979   7.794  14.018
34034W        W 2452  23.575  27.507  14.816
34035W        W 2453  27.657  11.712  14.832
34036W        W 2454   4.416  23.687  13.906
34037W        W 2455   3.232  43.487  13.482
34038W        W 2456  17.622  33.555  13.049
34039W        W 2457  28.507  36.354  14.770
34040W        W 2458   7.900   6.292  14.891
34041W        W 2459   8.277   9.203  10.463
34042W        W 2460   5.348   8.809   4.680
34043W        W 2461  39.832  11.202   1.214
34044W        W 2462  28.663   5.294  13.410
34045W        W 2463  16.245  42.362  12.441
34046W        W 2464  14.677  26.567  14.427
34047W        W 2465   6.371   5.344  11.420
34048W        W 2466  25.665   2.227  13.808
34049W        W 2467  32.527  22.685   4.268
34050W        W 2468  20.105  26.073   5.184
34051W        W 2469   2.236  24.993   0.399
34052W        W 2470  20.527  34.877   1.341
34053W        W 2471   5.886  34.611  11.492
34054W        W 2472   0.391  39.332   0.292
34055W        W 2473  11.803  27.501   4.831
34056W        W 2474  34.435  26.625  12.375
34057W        W 2475  11.323  17.100   0.479
34058W        W 2476  37.923   4.910   3.741
34059W        W 2477  35.418   4.304  11.380
34060W        W 2478  32.512  20.653  14.768
34061W        W 2479  26.589   4.758   3.204
34062W        W 2480  11.360  20.636  14.462
34063W        W 2481  23.053  21.220  10.035
34064W        W 2482  18.244   4.928   2.752
34065W        W 2483  29.647   6.712   1.743
34066W        W 2484  37.994  24.004   3.639
34067W        W 2485  13.279  36.085  10.967
34068W        W 2486  41.036  32.122   2.380
34069W        W 2487  32.578  30.491  10.433
34070W        W 2488  19.220  24.686  12.369
34071W        W 2489   4.915  16.686   0.788
34072W        W 2490  34.440  36.374  10.538
34073W        W 2491   7.184  34.050  12.481
34074W        W 2492  21.708  22.109   1.432
34075W        W 2493  26.068  14.829  14.316
34076W        W 2494  28.522  18.623   4.721
34077W        W 2495  36.455  11.736   1.856
34078W        W 2496  21.183  26.019   2.288
34079W        W 2497  17.265   1.873   2.241
34080W        W 2498  27.503   1.953   3.835
34081W        W 2499  40.353   5.930  13.425
34082W        W 2500   3.943  13.333  12.963
34083W        W 2501  23.718  27.191   0.436
34084W        W 2502   3.411  15.771   5.173
34085W        W 2503  25.040  29.506  13.053
34086W        W 2504  11.756  27.494  14.770
34087W        W 2505  28.001  13.148  11.127
34088W        W 2506   9.744  41.808  10.418
34089W        W 2507  26.511  21.204  10.130
34090W        W 2508  26.655  12.624   4.260
34091W        W 2509  41.934  18.722   1.272
34092W        W 2510  28.458  22.687   4.679
34093W        W 2511  12.224  24.646  12.535
34094W        W 2512  31.012  19.541  10.899
34095W        W 2513   9.761  10.672  14.804
34096W        W 2514  44.356  13.195  12.090
34097W        W 2515  22.067  30.565   4.696
34098W        W 2516  16.222  26.637   1.430
34099W        W 2517  43.879  24.043  13.060
34100W        W 2518   2.736  42.329  14.857
34101W        W 2519  33.529  42.402   4.769
34102W        W 2520  21.597   5.690  12.864
34103W        W 2521  39.981  41.033   2.346
34104W        W 2522  21.061  44.897  10.558
34105W        W 2523  14.235   4.379  12.506
34106W        W 2524  23.074  23.590  11.462
34107W        W 2525  34.483   9.825   4.598
34108W        W 2526  21.548  33.024  12.364
34109W        W 2527  19.778  17.086  13.395
34110W        W 2528  42.890  44.882   0.280
34111W        W 2529  28.044  41.472  13.817
34112W        W 2530   0.846  12.718   5.163
34113W        W 2531   0.791   1.386  13.942
34114W        W 2532  37.471  17.580   1.328
34115W        W 2533  43.423  12.224   1.313
34116W        W 2534  42.296  39.956  11.569
34117W        W 2535   7.856  38.357   3.867
34118W        W 2536  33.585  23.711   0.289
34119W        W 2537  32.010   2.943  13.533
34120W        W 2538  39.927   1.820  14.787
34121W        W 2539  21.040  27.653  10.429
34122W        W 2540   2.950  35.881  11.995
34123W        W 2541  23.033   3.869  12.071
34124W        W 2542   7.381  41.846   4.236
34125W        W 2543   5.304   7.810   1.935
34126W        W 2544  28.575  28.513   0.842
34127W        W 2545  14.096  34.973  13.419
34128W        W 2546  34.614  10.730  13.961
34129W        W 2547  31.648  33.477  12.043
34130W        W 2548   5.340  42.912   0.356
34131W        W 2549  26.470  10.252  11.420
34132W        W 2550  17.755  23.205   4.781
34133W        W 2551  19.264  17.175   1.297
34134W        W 2552  13.697   6.393  10.436
34135W        W 2553  24.104  38.338  13.896
34136W        W 2554  17.306  16.105  13.053
34137W        W 2555  26.171  34.591  11.019
34138W        W 2556  27.067  38.406   1.778
34139W        W 2557  35.596  32.965  14.943
34140W        W 2558   1.911  26.552  14.485
34141W        W 2559   8.713  31.089  12.358
34142W        W 2560  38.331   6.228  10.949
34143W        W 2561   5.847  41.804  10.920
34144W        W 2562  27.191   0.439  10.961
34145W        W 2563  17.191  42.776   1.351
34146W        W 2564  44.917  21.662   0.409
34147W        W 2565   4.711  43.843  11.511
34148W        W 2566  17.790   4.435   4.126
34149W        W 2567  26.573  34.430  12.091
34150W        W 2568   0.902  22.211  10.125
34151W        W 2569  18.624  22.596  12.862
34152W        W 2570  23.538  25.647   3.222
34153W        W 2571  23.193  11.260   0.271
34154W        W 2572   0.482  44.363  13.478
34155W        W 2573  15.805  40.340   4.321
34156W        W 2574  36.578   4.842  10.144
34157W        W 2575  25.666  33.877  12.852
34158W        W 2576  29.998   7.871  14.819
34159W        W 2577   5.380  38.987  12.533
34160W        W 2578  41.364  35.080  13.382
34161W        W 2579  42.967  38.373  13.400
34162W        W 2580  18.206  26.699  10.531
34163W        W 2581  24.117   8.775  12.476
34164W        W 2582   6.883  36.958  13.489
34165W        W 2583  41.413  33.963   2.387
34166W        W 2584   3.916  15.265   4.638
34167W        W 2585  43.945  34.614   1.922
34168W        W 2586  23.521   1.892   0.798
34169W        W 2587  28.669  42.502   0.450
34170W        W 2588   7.702  26.688   0.804
34171W        W 2589  10.247   9.782   1.731
34172W        W 2590  14.105  19.250   0.462
34173W        W 2591  13.658  33.004  13.048
34174W        W 2592  44.401  13.290  14.350
34175W        W 2593   0.805   0.903  14.002
34176W        W 2594   9.882  33.466  12.581
34177W        W 2595   8.260  34.465  13.531
34178W        W 2596  31.993  36.357   0.289
34179W        W 2597  30.473   3.926  13.976
34180W        W 2598  43.868  40.980  12.047
34181W        W 2599   7.243  40.041   0.283
34182W        W 2600  37.846  11.349   3.697
34183W        W 2601  43.987   8.390   1.749
34184W        W 2602  32.951  14.602   4.219
34185W        W 2603  13.196  21.703   4.165
34186W        W 2604  11.371  41.372   4.197
34187W        W 2605  17.749  39.363   4.601
34188W        W 2606  37.507   3.903   0.478
34189W        W 2607  22.660  42.921   2.381
34190W        W 2608   1.239   7.192   0.947
34191W        W 2609  21.552  11.210  11.434
34192W        W 2610  24.014  11.315  14.794
34193W        W 2611  23.073  41.013   0.918
34194W        W 2612  40.016  27.653  11.059
34195W        W 2613  37.961  32.511   3.237
34196W        W 2614  23.997  39.477  13.942
34197W        W 2615  16.707  27.664  10.410
34198W        W 2616  13.676   4.897   2.748
34199W        W 2617  26.151  26.118   1.315
34200W        W 2618  18.100  39.027  10.959
34201W        W 2619  13.290  35.562  12.574
34202W        W 2620  16.073  24.984   1.777
34203W        W 2621  18.075   7.767  11.414
34204W        W 2622   6.370   9.735  12.997
34205W        W 2623  23.068  34.932   4.650
34206W        W 2624  33.456  29.923  12.481
34207W        W 2625   4.395  27.160   2.402
34208W        W 2626  16.257  35.360   4.800
34209W        W 2627  19.283  31.418   4.624
34210W        W 2628   6.709  27.061   1.266
34211W        W 2629  44.335  40.522  14.412
34212W        W 2630  27.108  18.721   2.376
34213W        W 2631   8.734  44.284  12.544
34214W        W 2632   4.803  43.435   4.738
34215W        W 2633  12.272  43.500  11.044
34216W        W 2634   5.896  34.966   1.779
34217W        W 2635  41.305   1.472   3.822
34218W        W 2636  44.472  13.270   2.238
34219W        W 2637   2.455   8.304   3.272
34220W        W 2638  44.898  18.573  13.883
34221W        W 2639  42.974  27.451  12.383
34222W        W 2640  41.463   9.165   0.919
34223W        W 2641  36.449  37.482  14.919
34224W        W 2642  22.698   1.444  11.882
34225W        W 2643   8.277  37.467  10.602
34226W        W 2644  32.912  43.352   4.769
34227W        W 2645  11.850   4.898  10.091
34228W        W 2646  29.129  34.496  12.043
34229W        W 2647  40.451  16.657  10.486
34230W        W 2648  33.447   8.787   2.393
34231W        W 2649  42.914  17.073   3.787
34232W        W 2650  11.703  41.888  14.412
34233W        W 2651  36.584   5.906   0.414
34234W        W 2652  13.213  40.377   5.153
34235W        W 2653  23.196  43.483   1.348
34236W        W 2654  29.623  27.022   0.964
34237W        W 2655  23.554  15.278  11.124
34238W        W 2656  41.929  23.988  13.981
34239W        W 2657  38.570  40.436   2.824
34240W        W 2658  27.160  40.398   4.829
34241W        W 2659  12.307   4.256   0.476
34242W        W 2660   7.785  25.713   0.931
34243W        W 2661   1.445   2.229  10.572
34244W        W 2662  15.694  32.102  13.970
34245W        W 2663  14.260  17.108  13.488
34246W        W 2664  25.023  44.385   3.362
34247W        W 2665  38.995   2.890   3.330
34248W        W 2666  31.442   9.364   2.371
34249W        W 2667  22.150   8.346  12.014
34250W        W 2668  21.040   0.494  12.832
34251W        W 2669  19.057  24.192  10.121
34252W        W 2670  35.973   9.773  10.572
34253W        W 2671  25.098  28.060   0.446
34254W        W 2672  26.598  12.363   4.310
34255W        W 2673  13.803  27.580   1.397
34256W        W 2674  23.664  19.089  10.907
34257W        W 2675   5.715  33.458  14.840
34258W        W 2676  39.881  34.960   3.673
34259W        W 2677  21.602  35.864  14.953
34260W        W 2678  20.688  11.840   1.794
34261W        W 2679  23.632   7.773  11.077
34262W        W 2680  13.213   9.277  11.405
34263W        W 2681  20.606  12.146  12.473
34264W        W 2682  36.926  36.524   4.317
34265W        W 2683  44.402  34.944  14.872
34266W        W 2684  27.157  34.951   0.382
34267W        W 2685   8.670  30.109  13.847
34268W        W 2686  37.950  22.204   3.324
34269W        W 2687  35.107  21.563   1.734
34270W        W 2688  34.073  43.939  14.958
34271W        W 2689  10.372  25.047   1.349
34272W        W 2690  12.661  10.637   1.376
34273W        W 2691  43.303  10.693   2.665
34274W        W 2692  29.434   2.807  13.934
34275W        W 2693  23.159  28.034   0.303
34276W        W 2694  36.482  40.969  11.003
34277W        W 2695  40.895  32.944   2.675
34278W        W 2696  41.435  29.592   3.680
34279W        W 2697  22.667  40.511   3.215
34280W        W 2698  29.036  42.851   0.744
34281W        W 2699  26.973  16.091   3.797
34282W        W 2700  31.608   0.355  11.545
34283W        W 2701  21.262  13.334   3.286
34284W        W 2702  31.092  33.960   1.412
34285W        W 2703  42.284  34.490  10.616
34286W        W 2704  32.999  41.315   4.615
34287W        W 2705   1.278   9.668   3.743
34288W        W 2706  21.566  40.334   1.430
34289W        W 2707  33.598  20.672  13.441
34290W        W 2708  40.859  39.317   0.821
34291W        W 2709   5.782  27.129  12.851
34292W        W 2710  29.083  17.116  10.446
34293W        W 2711  25.711   4.827   4.711
34294W        W 2712  10.161  43.792  10.145
34295W        W 2713  32.426   1.329  13.032
34296W        W 2714  38.982   4.344   4.713
34297W        W 2715  42.779  41.495  13.021
34298W        W 2716   4.831  42.979  14.841
34299W        W 2717   1.734  28.098   0.307
34300W        W 2718   5.195  15.621  11.878
34301W        W 2719  32.503  19.269  14.808
34302W        W 2720  16.568  10.785  14.378
34303W        W 2721  40.414  25.139   4.187
34304W        W 2722  38.928  21.224  14.994
34305W        W 2723  44.983  21.171  12.951
34306W        W 2724  33.381  36.573   3.291
34307W        W 2725  35.005   8.899   2.307
34308W        W 2726   7.221  15.295  11.019
34309W        W 2727  16.123   1.958  13.395
34310W        W 2728  27.550  22.612  12.892
34311W        W 2729  23.673  37.353   3.292
34312W        W 2730  35.959  36.414  10.902
34313W        W 2731  14.188   1.422  10.577
34314W        W 2732  20.554  19.184  12.826
34315W        W 2733  19.067  30.471   4.693
34316W        W 2734  40.357  38.046   0.313
34317W        W 2735   5.259  16.718  13.363
34318W        W 2736   5.233  22.174  11.947
34319W        W 2737  18.135  40.425   0.380
34320W        W 2738  22.040   0.307  11.957
34321W        W 2739  30.534  20.523   1.377
34322W        W 2740  38.922  29.093   3.759
34323W        W 2741  13.310   5.198   0.370
34324W        W 2742  21.061  43.871   1.833
34325W        W 2743  37.982   0.916   3.246
34326W        W 2744  40.414  16.723   4.338
34327W        W 2745  44.466  42.349  11.984
34328W        W 2746  34.084  31.138   4.320
34329W        W 2747  33.984  27.457  13.802
34330W        W 2748  34.561  13.211  11.042
34331W        W 2749  19.238  31.598   3.645
34332W        W 2750  43.905  22.108  13.854
34333W        W 2751  34.106  11.162   0.878
34334W        W 2752  21.589  44.347   2.877
34335W        W 2753   1.238   6.721   3.858
34336W        W 2754   4.282  21.691  13.013
34337W        W 2755   0.266  31.549  11.424
34338W        W 2756   5.302  18.661  11.002
34339W        W 2757  25.069  10.165   1.780
34340W        W 2758  20.064   3.933   3.161
34341W        W 2759  17.610   6.281   1.314
34342W        W 2760  35.510  37.380  11.912
34343W        W 2761  24.494  42.518  11.876
34344W        W 2762  39.985  44.767  12.563
34345W        W 2763   9.718   4.438   4.827
34346W        W 2764  31.541   7.787  12.528
34347W        W 2765  30.467  32.098  13.424
34348W        W 2766  44.499  44.980   2.787
34349W        W 2767  23.038  36.928  12.958
34350W        W 2768  23.618  25.467  10.606
34351W        W 2769   3.426  10.220   4.746
34352W        W 2770  25.585  20.260  12.400
34353W        W 2771  14.673  19.693   3.638
34354W        W 2772  37.050  27.646   0.461
34355W        W 2773  12.773   3.830   4.759
34356W        W 2774  41.362   5.743  13.544
34357W        W 2775  26.112  16.711   4.259
34358W        W 2776  15.218  30.092  11.055
34359W        W 2777  12.125  15.728  12.497
34360W        W 2778  42.928  35.400   4.144
34361W        W 2779   4.735   9.646  11.440
34362W        W 2780  38.486  36.568  10.415
34363W        W 2781  38.958  19.757  13.539
34364W        W 2782   5.884   6.755   2.225
34365W        W 2783  31.441  11.645  10.440
34366W        W 2784  22.626  16.622   2.177
34367W        W 2785  38.850   6.721   2.400
34368W        W 2786  22.582  23.518   2.770
34369W        W 2787   1.454  28.570  10.623
34370W        W 2788   6.745  23.071   1.329
34371W        W 2789  36.421   3.735   4.132
34372W        W 2790  25.155  37.417  11.545
34373W        W 2791   0.300  19.691   1.441
34374W        W 2792  28.110  33.479  14.910
34375W        W 2793   3.825  36.437   4.762
34376W        W 2794  22.739   7.829   4.235
34377W        W 2795  40.457   3.294  14.928
34378W        W 2796  33.051  25.703  10.421
34379W        W 2797  27.576  21.022  11.398
34380W        W 2798   1.350  28.559   2.771
34381W        W 2799  25.993  36.905   2.879
34382W        W 2800  14.769  20.637  10.909
34383W        W 2801   2.918  29.560  12.560
34384W        W 2802  37.946  39.821   2.230
34385W        W 2803  39.006  19.241   0.317
34386W        W 2804  28.133   2.789  13.842
34387W        W 2805  37.467  42.362   2.362
34388W        W 2806  29.534  15.790   3.635
34389W        W 2807  34.013  17.075  12.570
34390W        W 2808  25.514  16.251  11.923
34391W        W 2809  44.351  11.184   5.710
34392W        W 2810  16.149  23.173   1.742
34393W        W 2811  41.994  32.497   0.808
34394W        W 2812  44.849  32.064   2.408
34395W        W 2813  40.496  33.429  13.375
34396W        W 2814   9.879  21.647  12.472
34397W        W 2815   1.884  25.013   5.322
34398W        W 2816  42.858   5.417   4.313
34399W        W 2817  19.740   2.937   4.128
34400W        W 2818  43.287   7.772   0.922
34401W        W 2819  20.114  33.011  14.847
34402W        W 2820  42.315  26.611  13.500
34403W        W 2821   9.665  16.148   2.700
34404W        W 2822  34.891  21.594   4.824
34405W        W 2823  22.686   7.228  14.351
34406W        W 2824   9.243   6.205  12.016
34407W        W 2825  29.983  42.307   2.316
34408W        W 2826  18.257  26.001   0.317
34409W        W 2827  36.361  32.517   4.337
34410W        W 2828   3.417  22.714   4.322
34411W        W 2829  29.631  38.909   2.307
34412W        W 2830  15.661   9.190   4.831
34413W        W 2831  23.639  17.144   2.698
34414W        W 2832  11.824  35.441   1.800
34415W        W 2833  25.694  32.610  14.466
34416W        W 2834   5.729  26.698   3.747
34417W        W 2835  37.370  40.912  14.366
34418W        W 2836  22.504  10.834   9.994
34419W        W 2837   6.894   9.151   2.365
34420W        W 2838   8.799  14.829   0.325
34421W        W 2839  29.160  14.153   2.376
34422W        W 2840  15.778  12.177  11.041
34423W        W 2841  28.463  35.495  13.794
34424W        W 2842  44.810  41.534  12.401
34425W        W 2843  41.934  17.704   4.117
34426W        W 2844  19.260  35.093   2.387
34427W        W 2845  10.832   3.261  11.886
34428W        W 2846   8.405  35.586   4.625
34429W        W 2847  11.312  33.499   4.199
34430W        W 2848  22.741   9.678  12.354
34431W        W 2849  13.205  44.915   0.876
34432W        W 2850  37.380  16.747   1.878
34433W        W 2851   8.733  27.946  10.432
34434W        W 2852  38.325   8.675  13.447
34435W        W 2853  14.641  27.077   2.232
34436W        W 2854  16.583  14.648   0.288
34437W        W 2855  28.156  44.369   2.221
34438W        W 2856  38.414   4.839   3.316
34439W        W 2857  23.123  10.312   0.900
34440W        W 2858  27.535  14.185  14.485
34441W        W 2859  23.035  41.873   3.634
34442W        W 2860  16.297   7.195  10.993
34443W        W 2861  27.993   5.218  11.605
34444W        W 2862  42.525   2.243   1.850
34445W        W 2863   4.264  22.020  13.406
34446W        W 2864  33.514  10.298   4.831
34447W        W 2865  19.644  21.108  12.846
34448W        W 2866  40.932  14.614   3.767
34449W        W 2867  38.069  20.137   3.319
34450W        W 2868  11.779  39.454   3.827
34451W        W 2869  28.960   0.944   3.190
34452W        W 2870  32.437   7.800   1.361
34453W        W 2871  31.936  44.418   1.417
34454W        W 2872  26.966  41.807  11.875
34455W        W 2873   6.789  29.918  11.585
34456W        W 2874  32.957  29.606   3.654
34457W        W 2875   6.304  40.456  11.092
34458W        W 2876   9.180  40.864  14.873
34459W        W 2877  15.809  26.154  11.087
34460W        W 2878  30.089  17.205  13.536
34461W        W 2879  43.299   5.292  14.507
34462W        W 2880  40.304  24.198  14.010
34463W        W 2881  14.588   5.777  12.376
34464W        W 2882  33.620  17.168  12.472
34465W        W 2883  27.050  38.402   2.684
34466W        W 2884  35.991  28.650   1.787
34467W        W 2885   0.859  24.112  13.807
34468W        W 2886  20.144  32.947   3.362
34469W        W 2887  17.708  38.380   3.770
34470W        W 2888  32.041  28.930   4.820
34471W        W 2889  43.281  19.215   0.746
34472W        W 2890   6.923  19.718   3.811
34473W        W 2891  22.010  26.546   2.247
34474W        W 2892  31.112  16.581   1.900
34475W        W 2893   4.901  31.977   5.247
34476W        W 2894  12.717   3.347   3.267
34477W        W 2895   1.255  14.106  10.450
34478W        W 2896  25.093   4.275  12.068
34479W        W 2897   6.288  26.468   3.287
34480W        W 2898  14.821  34.609  14.995
34481W        W 2899  17.787  33.920  12.554
34482W        W 2900  39.013  44.435   4.660
34483W        W 2901  34.489   3.942   0.286
34484W        W 2902  17.795  34.438  13.958
34485W        W 2903  36.519  34.886   0.881
34486W        W 2904   8.700  26.094   0.378
34487W        W 2905  23.191  20.248  13.339
34488W        W 2906  10.323  12.233   2.820
34489W        W 2907  38.032  13.673   3.808
34490W        W 2908   4.430  22.074   1.424
34491W        W 2909   9.731  21.722  11.880
34492W        W 2910  33.121  31.064  14.848
34493W        W 2911  11.273  27.994   2.766
34494W        W 2912   2.920   8.781  11.092
34495W        W 2913  18.082  39.973  13.323
34496W        W 2914  36.570  14.833   1.265
34497W        W 2915  14.212  29.587   2.273
34498W        W 2916  15.177   1.379  11.869
34499W        W 2917   5.224  41.422  14.418
34500W        W 2918   7.793   5.898  12.088
34501W        W 2919  26.473  29.471   2.225
34502W        W 2920  40.412   8.679  12.359
34503W        W 2921   0.379  44.446   0.925
34504W        W 2922  30.163   9.850   4.163
34505W        W 2923  34.408  11.303   2.882
34506W        W 2924  24.513  13.642  11.127
34507W        W 2925   6.722  28.656  13.997
34508W        W 2926   1.263   5.244  14.923
34509W        W 2927  27.561  42.916  11.912
34510W        W 2928  24.717  34.422  13.447
34511W        W 2929  15.108  23.998  13.839
34512W        W 2930   4.914  35.097   3.209
34513W        W 2931   7.416  12.839  10.996
34514W        W 2932  28.172  19.086   2.228
34515W        W 2933  37.894  19.717   2.770
34516W        W 2934  23.539  14.265  13.483
34517W        W 2935  12.838  31.618  13.493
34518W        W 2936  11.202  21.204   4.203
34519W        W 2937  19.616  44.466   1.393
34520W        W 2938   6.416  29.513   1.766
34521W        W 2939  33.548   3.223   3.147
34522W        W 2940   7.404  22.137  11.979
34523W        W 2941  33.982  33.428   0.910
34524W        W 2942  40.332  25.518   4.166
34525W        W 2943  13.669  42.781  13.937
34526W        W 2944   5.346  16.096   4.192
34527W        W 2945  30.640  26.532   3.679
34528W        W 2946  12.207   8.406   4.649
34529W        W 2947  31.148   1.923  12.956
34530W        W 2948   9.332  24.997  12.026
34531W        W 2949  39.379   6.254   3.296
34532W        W 2950  36.367  33.402  12.084
34533W        W 2951  38.962   5.910  10.430
34534W        W 2952   1.375  14.310   2.770
34535W        W 2953  18.267  32.513  14.470
34536W        W 2954   6.875  30.437  13.525
34537W        W 2955  25.590  41.803  12.444
34538W        W 2956  24.180  20.695  13.868
34539W        W 2957  31.101  35.551   2.686
34540W        W 2958  37.065   9.227  14.461
34541W        W 2959  18.265  23.494  11.589
34542W        W 2960  24.670  17.632   3.220
34543W        W 2961  19.146   2.790   2.681
34544W        W 2962  41.820  42.285  11.571
34545W        W 2963  16.290  16.569  13.488
34546W        W 2964  18.568  44.838   0.959
34547W        W 2965  31.419   3.458  12.356
34548W        W 2966  10.636  32.985  11.884
34549W        W 2967  15.680  44.435  11.525
34550W        W 2968   3.809  25.032  10.429
34551W        W 2969  44.820   7.360   2.418
34552W        W 2970  25.084  10.666  14.819
34553W        W 2971   2.822  25.074  13.467
34554W        W 2972  41.822  25.555  14.367
34555W        W 2973  35.547  40.985  11.427
34556W        W 2974  11.359  10.835  10.982
34557W        W 2975  28.095  10.191  14.955
34558W        W 2976   7.201  15.580  11.973
34559W        W 2977  20.761  11.705   4.286
34560W        W 2978  41.422  11.701   3.228
34561W        W 2979  43.971  18.222  14.857
34562W        W 2980   9.780  25.656   2.285
34563W        W 2981  16.584  33.904   3.326
34564W        W 2982  29.547  39.382   2.291
34565W        W 2983  30.075  32.455  14.954
34566W        W 2984  11.692  27.537   3.653
34567W        W 2985  19.634   3.899   0.402
34568W        W 2986   9.333  10.279   4.290
34569W        W 2987  21.103   9.159  14.951
34570W        W 2988  17.647   0.360   2.784
34571W        W 2989  25.107  40.389  11.879
34572W        W 2990  33.891   9.334  13.307
34573W        W 2991  15.770  18.550  13.049
34574W        W 2992  19.179   7.676   4.278
34575W        W 2993   2.315   4.371   4.129
34576W        W 2994   1.940   1.898  14.924
34577W        W 2995  30.082   5.347  14.866
34578W        W 2996  41.016  44.945   1.723
34579W        W 2997   4.411  11.308   4.768
34580W        W 2998  13.665  22.134  13.808
34581W        W 2999  42.500  43.300   3.153
34582W        W 3000  23.699  33.124  12.873
34583W        W 3001  10.258  43.020   2.763
34584W        W 3002  30.009  29.986  14.961
34585W        W 3003  16.670  31.905  10.906
34586W        W 3004   9.668   4.216  11.119
34587W        W 3005  37.047  27.159   1.387
34588W        W 3006  32.415   3.239  11.047
34589W        W 3007  24.029  13.193  11.516
34590W        W 3008  28.040  39.446  11.566
34591W        W 3009  14.153  26.964  12.907
34592W        W 3010  38.443  25.007   4.268
34593W        W 3011  21.737  15.108  12.475
34594W        W 3012  16.181   1.817  10.507
34595W        W 3013  22.028  12.345  14.493
34596W        W 3014  35.547  10.213  14.814
34597W        W 3015  23.130  17.726   2.706
34598W        W 3016  10.859  31.044   2.803
34599W        W 3017  40.489  30.916   3.338
34600W        W 3018  21.163   5.304  13.875
34601W        W 3019  24.179   7.275   3.698
34602W        W 3020  23.556  33.033  12.028
34603W        W 3021  36.847  35.062   3.821
34604W        W 3022  38.886  21.603  12.421
34605W        W 3023  37.555  12.199  14.351
34606W        W 3024  34.076  26.676   0.727
34607W        W 3025  11.231  10.763  13.861
34608W        W 3026  20.755   6.349   2.839
34609W        W 3027  34.607  22.664  10.624
34610W        W 3028  10.772  39.333   1.315
34611W        W 3029  22.065  32.134   2.263
34612W        W 3030   9.390  22.051   3.674
34613W        W 3031  29.662  21.055   1.290
34614W        W 3032  32.405  38.561   2.266
34615W        W 3033  30.604   9.864   2.248
34616W        W 3034  11.363  25.619  14.011
34617W        W 3035  13.341   2.434  14.798
34618W        W 3036  25.528  23.530  12.090
34619W        W 3037  38.394  11.371   3.649
34620W        W 3038  31.600  14.318  14.425
34621W        W 3039  35.016  36.467  14.989
34622W        W 3040  44.334  21.089  11.983
34623W        W 3041  19.679  44.004  14.898
34624W        W 3042  40.835  13.237  13.382
34625W        W 3043  24.500  13.211  10.974
34626W        W 3044  10.176  22.086  13.527
34627W        W 3045  32.578  13.182   4.598
34628W        W 3046  16.648  28.948   1.756
34629W        W 3047  10.370   8.722  10.099
34630W        W 3048  30.971  36.074  13.407
34631W        W 3049  33.032   5.331   2.286
34632W        W 3050  10.326   1.480  10.901
34633W        W 3051   5.771  32.128  13.378
34634W        W 3052  35.376   6.402  14.366
34635W        W 3053   7.851  35.865   0.324
34636W        W 3054  20.039  29.952  10.936
34637W        W 3055  31.904  10.791   2.788
34638W        W 3056  14.659   0.796   1.238
34639W        W 3057  17.632  35.418  13.036
34640W        W 3058  13.333   8.403   0.272
34641W        W 3059  24.663   1.754  10.485
34642W        W 3060  32.554   1.246  14.369
34643W        W 3061  30.132   5.802   2.797
34644W        W 3062   8.284   6.710   2.789
34645W        W 3063  43.415  16.279  14.008
34646W        W 3064   9.290  26.101   4.725
34647W        W 3065   0.383  28.049   2.189
34648W        W 3066  20.693   4.900  10.957
34649W        W 3067  26.008  44.967   1.775
34650W        W 3068  43.854  26.138   3.799
34651W        W 3069   4.926  17.600  13.910
34652W        W 3070   9.803  26.072   0.745
34653W        W 3071  43.773  13.228   2.693
34654W        W 3072  33.921  25.500   1.723
34655W        W 3073  35.891  26.972  12.963
34656W        W 3074  41.979  22.011   3.210
34657W        W 3075  31.058   6.742  12.489
34658W        W 3076  25.591  16.236  12.984
34659W        W 3077  44.984   7.740  14.357
34660W        W 3078  40.434  18.579   5.173
34661W        W 3079  26.553  25.537  11.905
34662W        W 3080   6.863  25.581  14.319
34663W        W 3081  32.466  23.195  14.763
34664W        W 3082  43.413  11.658   2.689
34665W        W 3083  10.737   7.250  12.030
34666W        W 3084  31.121   5.728  14.872
34667W        W 3085  18.592  27.494  14.506
34668W        W 3086   6.190   9.829  12.501
34669W        W 3087  16.189  41.836  12.490
34670W        W 3088   6.693  22.154  11.435
34671W        W 3089  17.259   9.851  12.420
34672W        W 3090  42.366   6.907  13.379
34673W        W 3091   9.345  30.113  10.565
34674W        W 3092  23.718  24.979  11.472
34675W        W 3093  10.189  24.059  14.005
34676W        W 3094  13.796  40.442   4.329
34677W        W 3095  34.491  32.068   4.810
34678W        W 3096  28.583  14.132  13.972
34679W        W 3097  34.885   0.755   3.784
34680W        W 3098  42.823   4.392  10.639
34681W        W 3099  39.344   3.759  14.998
34682W        W 3100   4.440  14.244   4.291
34683W        W 3101  39.417  14.264   1.861
34684W        W 3102  14.187  18.760   2.720
34685W        W 3103  39.556  32.959  10.407
34686W        W 3104   8.310  32.633   1.876
34687W        W 3105  36.934   5.243  13.506
34688W        W 3106   7.860   8.251  10.560
34689W        W 3107  10.362  24.140  13.457
34690W        W 3108  32.015  23.042  12.979
34691W        W 3109  26.206  16.214   2.296
34692W        W 3110  12.801  44.360  12.852
34693W        W 3111  38.913  23.500  12.828
34694W        W 3112  22.129   2.279   2.865
34695W        W 3113  29.926  27.952  10.514
34696W        W 3114  33.487  44.430  12.963
34697W        W 3115  16.278  17.567  10.956
34698W        W 3116  21.021  19.692   3.209
34699W        W 3117  39.974  18.243  10.504
34700W        W 3118   5.274  23.241  12.454
34701W        W 3119   1.856  26.528   1.929
34702W        W 3120  12.233  19.103  11.989
34703W        W 3121  38.065  18.615   3.284
34704W        W 3122   4.708  12.118   2.709
34705W        W 3123  36.051  14.790   1.705
34706W        W 3124  21.198  13.776   1.423
34707W        W 3125  42.005   6.703  11.513
34708W        W 3126  41.964   8.290   3.201
34709W        W 3127  15.803   8.805   0.453
34710W        W 3128  37.437  22.608  12.403
34711W        W 3129  42.471  30.953  11.866
34712W        W 3130  42.287   6.388  11.505
34713W        W 3131  15.216  20.255   0.412
34714W        W 3132  41.472  14.749  12.554
34715W        W 3133  24.021   0.369  14.508
34716W        W 3134  38.349  14.813   4.219
34717W        W 3135   6.273  29.021  14.448
34718W        W 3136  25.113  10.294  10.957
34719W        W 3137  43.297  40.960  12.026
34720W        W 3138  39.399   2.965  10.617
34721W        W 3139  40.525  41.512  12.528
34722W        W 3140  44.830  20.715  12.092
34723W        W 3141   0.297  31.428   2.834
34724W        W 3142  32.617  41.851  11.400
34725W        W 3143  25.533  32.408  10.608
34726W        W 3144   8.347  20.642  11.937
34727W        W 3145   6.273  42.817   5.090
34728W        W 3146  26.045   0.835  11.068
34729W        W 3147  32.987  42.004  10.414
34730W        W 3148  36.052   3.432  14.427
34731W        W 3149  40.958  42.302  12.392
34732W        W 3150   1.759  24.702  13.407
34733W        W 3151  20.205   2.263  11.529
34734W        W 3152  31.495  27.076   4.343
34735W        W 3153  39.035  34.598   4.225
34736W        W 3154  32.481  18.628   2.747
34737W        W 3155  11.698   4.226   1.903
34738W        W 3156  19.239  30.545   2.390
34739W        W 3157  24.559  37.364  12.049
34740W        W 3158  34.603   3.446  14.401
34741W        W 3159  13.115  38.032  13.807
34742W        W 3160  42.340  21.097   1.250
34743W        W 3161   0.853   7.783  10.552
34744W        W 3162  23.107  26.104   2.839
34745W        W 3163  33.109  42.472  13.864
34746W        W 3164   4.826  32.532  14.444
34747W        W 3165  44.338  38.364  13.848
34748W        W 3166  22.742  19.154  12.403
34749W        W 3167  41.812   1.886   1.364
34750W        W 3168  22.531  19.546   2.733
34751W        W 3169  34.989  15.790  11.081
34752W        W 3170  10.233  17.203  13.483
34753W        W 3171  43.001  43.409  10.494
34754W        W 3172  15.708  40.012   0.752
34755W        W 3173   1.365  33.423  14.849
34756W        W 3174   0.774   3.930   4.234
34757W        W 3175   9.670  33.569   1.325
34758W        W 3176  20.695  13.700  14.471
34759W        W 3177  35.998  35.012   0.356
34760W        W 3178  19.544  43.446   2.836
34761W        W 3179  31.932   8.803  11.544
34762W        W 3180  25.576   4.450   4.150
34763W        W 3181   4.298  28.971  14.423
34764W        W 3182  14.808  40.313   1.350
34765W        W 3183  21.116   2.357   2.366
34766W        W 3184  20.724  26.094   2.279
34767W        W 3185  40.540  37.413  13.811
34768W        W 3186  15.649  30.991   0.353
34769W        W 3187  14.793  16.709   3.295
34770W        W 3188  34.099   0.370   0.465
34771W        W 3189   9.817  27.648   2.255
34772W        W 3190  14.101  43.296  10.550
34773W        W 3191  16.134   9.830  13.334
34774W        W 3192  39.036  15.713  14.289
34775W        W 3193  39.345  16.711  13.490
34776W        W 3194  19.180  39.877   3.338
34777W        W 3195  15.131   8.296   3.318
34778W        W 3196  27.637  41.888   2.818
34779W        W 3197  43.893  11.348   4.643
34780W        W 3198  12.155  30.468  13.941
34781W        W 3199   6.253   3.834   4.199
34782W        W 3200  29.137  24.669  11.406
34783W        W 3201  34.029  17.567  14.791
34784W        W 3202  43.302  42.930   2.716
34785W        W 3203  23.042  38.908   3.181
34786W        W 3204  27.588   8.697  11.479
34787W        W 3205  12.684   6.801   4.351
34788W        W 3206   4.787  42.415   3.149
34789W        W 3207  37.497  39.493   1.853
34790W        W 3208   6.245  24.085  12.996
34791W        W 3209  12.270  21.662  12.917
34792W        W 3210  17.662  29.494   3.747
34793W        W 3211  18.260  32.965   1.228
34794W        W 3212  36.944   5.915   3.776
34795W        W 3213  15.722  35.383   0.266
34796W        W 3214   2.847  20.710   1.735
34797W        W 3215  40.805  16.585  14.370
34798W        W 3216  24.179  28.437  14.984
34799W        W 3217  35.920   8.406  13.870
34800W        W 3218  39.831  24.557  13.343
34801W        W 3219   9.731   7.307  10.431
34802W        W 3220  24.631  35.482  13.316
34803W        W 3221  28.640  13.221   0.818
34804W        W 3222  19.696  20.708  13.343
34805W        W 3223   6.280  25.011   1.416
34806W        W 3224   1.948  31.022   2.822
34807W        W 3225  43.369  19.168  12.518
34808W        W 3226  42.292  11.196   4.784
34809W        W 3227   7.801  18.628   4.809
34810W        W 3228  11.213  19.620   2.202
34811W        W 3229  32.963  27.640   1.285
34812W        W 3230  13.326  28.484   3.369
34813W        W 3231   9.752  24.650  12.401
34814W        W 3232  17.065  21.182   3.177
34815W        W 3233  37.424  30.117  11.456
34816W        W 3234  32.115  36.455  11.955
34817W        W 3235   3.755   2.901   2.828
34818W        W 3236   3.873  33.570   1.701
34819W        W 3237   2.277  11.706  12.057
34820W        W 3238  40.022  25.161   3.160
34821W        W 3239  23.183  42.830   4.632
34822W        W 3240  38.862  15.823  10.635
34823W        W 3241  15.748  20.710  12.524
34824W        W 3242  32.057   2.319   4.750
34825W        W 3243   4.866  28.011  13.844
34826W        W 3244  32.545  19.115  14.446
34827W        W 3245  16.586   3.330   3.236
34828W        W 3246   2.412  34.885  13.452
34829W        W 3247   2.343  22.206   3.362
34830W        W 3248  10.690  12.324   0.902
34831W        W 3249  35.033   9.733  14.278
34832W        W 3250  33.928  26.508   3.734
34833W        W 3251  25.625   3.809  14.304
34834W        W 3252  29.166  12.629  13.312
34835W        W 3253  19.759  25.525   3.343
34836W        W 3254  12.848  40.330  12.026
34837W        W 3255  17.301  13.679   9.573
34838W        W 3256   8.397   0.432  11.423
34839W        W 3257   7.734  26.150   2.895
34840W        W 3258  15.688  37.530   4.653
34841W        W 3259  28.497  41.340   0.855
34842W        W 3260  17.304   8.895  13.043
34843W        W 3261  31.647  23.714   1.438
34844W        W 3262  35.549  32.618   2.269
34845W        W 3263  12.279  19.061  14.291
34846W        W 3264   6.388  12.791  11.467
34847W        W 3265  30.006  29.063  10.943
34848W        W 3266  30.120  20.656   1.781
34849W        W 3267  22.520   3.746  13.525
34850W        W 3268  44.399  25.520   2.222
34851W        W 3269  15.640  37.845  10.092
34852W        W 3270   9.385  31.930   3.660
34853W        W 3271  41.957  10.809   0.259
34854W        W 3272  15.792  20.562   2.758
34855W        W 3273  14.293  37.034   0.323
34856W        W 3274  21.109  43.492  12.470
34857W        W 3275   9.313  10.655   3.214
34858W        W 3276  34.558  13.686  14.432
34859W        W 3277  28.034  30.978  13.010
34860W        W 3278  42.833  33.488   2.334
34861W        W 3279  39.821   7.832   2.807
34862W        W 3280  17.609  27.157  11.568
34863W        W 3281  38.973  21.232   0.921
34864W        W 3282  41.923  31.022  10.460
34865W        W 3283  33.595  25.498  12.986
34866W        W 3284  29.114  24.014  14.857
34867W        W 3285   7.750  28.171  10.919
34868W        W 3286   9.198  40.012   0.430
34869W        W 3287  30.045  40.472   3.788
34870W        W 3288  16.664  41.478  13.379
34871W        W 3289   8.749   6.243  12.412
34872W        W 3290  15.639   3.426  12.967
34873W        W 3291  32.474   7.398  13.046
34874W        W 3292  42.896  14.601  13.475
34875W        W 3293   9.791  33.443   0.748
34876W        W 3294   0.969   7.380  11.517
34877W        W 3295  41.438  20.630   2.335
34878W        W 3296   1.940  40.990   0.919
34879W        W 3297   7.725  23.989  12.000
34880W        W 3298  40.971   0.864   3.210
34881W        W 3299  21.121  42.910   2.349
34882W        W 3300   3.815   6.714   1.413
34883W        W 3301   3.239  36.578  13.871
34884W        W 3302  38.491  32.064  12.912
34885W        W 3303  39.541  37.962  10.925
34886W        W 3304  21.150  20.129  11.871
34887W        W 3305  41.878   0.810   0.830
34888W        W 3306  41.819  20.545   0.404
34889W        W 3307  40.982  40.823  12.054
34890W        W 3308  21.235  12.809  12.985
34891W        W 3309  42.381  40.053  14.898
34892W        W 3310  23.590  39.327  11.126
34893W        W 3311  18.057  29.565   1.422
34894W        W 3312  15.747   6.279   1.782
34895W        W 3313   7.368  32.043  13.430
34896W        W 3314  22.738  38.390  14.952
34897W        W 3315  40.308  26.525  14.389
34898W        W 3316   5.794   3.345   1.710
34899W        W 3317  41.515   0.263  14.821
34900W        W 3318  42.444  13.269   1.920
34901W        W 3319  13.756   7.267  14.031
34902W        W 3320  32.057  37.036  11.381
34903W        W 3321   1.918  41.453   1.372
34904W        W 3322  39.967  39.870  13.899
34905W        W 3323   1.379  26.624  13.035
34906W        W 3324  35.890  35.376  13.444
34907W        W 3325  39.418  12.321   2.306
34908W        W 3326   7.861  20.031  12.430
34909W        W 3327   5.927  14.143   0.442
34910W        W 3328   5.902  23.490   3.191
34911W        W 3329  21.221  40.448  13.316
34912W        W 3330  21.195   1.483  13.388
34913W        W 3331  11.346  43.830  12.047
34914W        W 3332  15.316  13.331  13.530
34915W        W 3333  13.247  16.637   0.375
34916W        W 3334  10.276   0.411  12.871
34917W        W 3335  35.870  39.005   5.756
34918W        W 3336  18.741  38.835  14.346
34919W        W 3337  20.732  26.086   9.629
34920W        W 3338  14.312  28.573  12.535
34921W        W 3339  37.575  40.847  12.958
34922W        W 3340  30.600  20.522  11.875
34923W        W 3341  12.838  36.849   0.266
34924W        W 3342  26.148  26.463   0.813
34925W        W 3343  29.972  33.559   1.326
34926W        W 3344  16.289   4.342   4.660
34927W        W 3345  24.046  26.623   1.353
34928W        W 3346  17.229  38.521   1.862
34929W        W 3347   0.892   8.208   2.211
34930W        W 3348  22.746  12.817  11.523
34931W        W 3349  40.358  19.596   5.287
34932W        W 3350  16.713  18.156   2.402
34933W        W 3351  24.184  22.672  12.493
34934W        W 3352  35.083  36.024   2.714
34935W        W 3353  11.190  39.340   4.314
34936W        W 3354   6.244  11.776  13.413
34937W        W 3355  32.093   7.775   2.740
34938W        W 3356  17.585  35.935   2.826
34939W        W 3357  10.760  24.058   4.352
34940W        W 3358  38.364  31.494   0.887
34941W        W 3359  15.204  15.311  11.390
34942W        W 3360  22.232  41.424   3.239
34943W        W 3361  39.906   9.653   0.447
34944W        W 3362  24.141  42.300  11.982
34945W        W 3363  22.720  29.148   0.296
34946W        W 3364  15.740  25.618  13.496
34947W        W 3365  30.436   8.752   2.396
34948W        W 3366  27.608  10.703  14.958
34949W        W 3367   4.866  26.112   1.767
34950W        W 3368  36.074  27.616   1.411
34951W        W 3369  21.072  40.965  12.491
34952W        W 3370  17.172  17.216   0.263
34953W        W 3371  37.504  21.676  13.524
34954W        W 3372   5.436  31.538  13.907
34955W        W 3373  29.076  23.733  14.026
34956W        W 3374   3.398  27.617   3.679
34957W        W 3375  19.574  14.814   0.456
34958W        W 3376  35.471   1.969  11.976
34959W        W 3377  27.121  17.758  11.948
34960W        W 3378   4.290  39.432   3.639
34961W        W 3379   9.306  34.599   3.707
34962W        W 3380  35.390  27.024  10.629
34963W        W 3381   0.269   0.975   1.763
34964W        W 3382  17.686   9.267  13.399
34965W        W 3383   1.402  41.826   2.875
34966W        W 3384  15.102  29.983  14.845
34967W        W 3385  10.712  18.634  14.416
34968W        W 3386  18.240  10.155   1.791
34969W        W 3387  18.717   4.318  10.535
34970W        W 3388  20.560   8.668   2.735
34971W        W 3389  37.415  33.018  14.021
34972W        W 3390  13.313  44.983  14.859
34973W        W 3391   8.175   3.373  14.881
34974W        W 3392  19.221   9.193   3.726
34975W        W 3393   0.468  15.092  14.839
34976W        W 3394  38.038  40.534  11.378
34977W        W 3395  36.957  28.124  13.534
34978W        W 3396  24.691  17.123  13.526
34979W        W 3397  11.334  23.652   3.338
34980W        W 3398   9.203  19.231   2.283
34981W        W 3399  26.486  15.776   1.216
34982W        W 3400  33.612  37.448  11.523
34983W        W 3401  44.366  15.789   2.382
34984W        W 3402  12.271  33.905   0.283
34985W        W 3403  14.192  25.480  14.003
34986W        W 3404  36.967   6.216   2.307
34987W        W 3405  21.566   1.331   2.857
34988W        W 3406   2.755  24.184  13.320
34989W        W 3407  28.085  25.689  10.583
34990W        W 3408  29.112  35.900   3.775
34991W        W 3409   1.347  34.558   0.345
34992W        W 3410   2.287  32.566  14.844
34993W        W 3411  35.424  20.730   2.839
34994W        W 3412  42.361  33.474   3.697
34995W        W 3413   3.364  41.293  11.396
34996W        W 3414  14.833  33.571  10.064
34997W        W 3415  26.518  26.071  13.901
34998W        W 3416   0.932  26.952   0.252
34999W        W 3417  11.129  37.961   0.354
35000W        W 3418  28.498  22.679   3.701
35001W        W 3419  23.647  38.520   4.143
35002W        W 3420  15.251  39.909   2.196
35003W        W 3421   5.819  16.225   2.275
35004W        W 3422  34.592  38.385  11.562
35005W        W 3423  23.725  18.117   4.723
35006W        W 3424   1.803  28.138  13.445
35007W        W 3425   6.298   8.278  10.512
35008W        W 3426  37.029  32.562   3.243
35009W        W 3427  38.556  19.555  14.764
35010W        W 3428  34.417  24.607  14.430
35011W        W 3429  40.863  35.057   2.859
35012W        W 3430  29.934  17.696  10.978
35013W        W 3431  26.010  18.113  14.822
35014W        W 3432  14.118  29.971  11.916
35015W        W 3433  10.869   5.420   4.757
35016W        W 3434  44.394  39.966   3.852
35017W        W 3435  14.130  20.705  12.484
35018W        W 3436  21.167   7.217   0.295
35019W        W 3437  37.888   9.714  12.858
35020W        W 3438  24.634  28.165  11.407
35021W        W 3439  19.246  30.908   4.330
35022W        W 3440   6.312  21.190   2.689
35023W        W 3441  29.645  30.937  12.831
35024W        W 3442  39.399  10.824   3.199
35025W        W 3443  36.420  41.848  11.527
35026W        W 3444  24.200  36.064   1.313
35027W        W 3445  27.990  37.491   2.716
35028W        W 3446  30.046  25.057   1.449
35029W        W 3447   3.366  14.661  13.487
35030W        W 3448   9.698  27.092  10.530
35031W        W 3449  17.609   6.795  14.402
35032W        W 3450  41.919  11.793  14.806
35033W        W 3451  34.956  35.050  14.991
35034W        W 3452  34.565  21.209   4.760
35035W        W 3453   3.424   0.951   1.331
35036W        W 3454  38.849  15.119   3.820
35037W        W 3455  37.077   5.292  12.958
35038W        W 3456  25.512  32.996   3.828
35039W        W 3457  44.827  10.724  13.488
35040W        W 3458   8.282   9.673   2.380
35041W        W 3459  37.418  38.051   4.816
35042W        W 3460  31.065  34.444  11.106
35043W        W 3461  24.037  37.065   1.800
35044W        W 3462  15.195  43.432  10.972
35045W        W 3463  10.178  20.699  13.917
35046W        W 3464  29.469  10.719  13.987
35047W        W 3465   8.207  38.369   4.165
35048W        W 3466   9.828  42.018  12.840
35049W        W 3467  10.149   1.469  14.335
35050W        W 3468  41.412  24.147   1.389
35051W        W 3469   4.379   3.461  13.946
35052W        W 3470  26.128  15.601   2.725
35053W        W 3471  25.560  11.342   2.271
35054W        W 3472   7.887  29.936   1.359
35055W        W 3473   4.362  22.631  11.966
35056W        W 3474  42.298  38.415   1.715
35057W        W 3475  15.724  44.350   0.949
35058W        W 3476  32.896  35.098   1.409
35059W        W 3477  13.137  27.531   3.780
35060W        W 3478   0.477   0.851  13.828
35061W        W 3479  14.332  41.371  10.602
35062W        W 3480  37.529  25.035   3.320
35063W        W 3481  35.494  21.125   2.188
35064W        W 3482  12.185   1.731   3.866
35065W        W 3483  32.923  22.144   1.813
35066W        W 3484   5.889  12.153   3.851
35067W        W 3485  44.001  24.188   2.836
35068W        W 3486  26.035  17.174   0.307
35069W        W 3487  33.595   3.437   5.286
35070W        W 3488  29.509   5.822  14.876
35071W        W 3489  29.570  24.532   1.756
35072W        W 3490   4.804  22.110   4.688
35073W        W 3491  11.169  18.564   4.238
35074W        W 3492  15.225  28.991  13.320
35075W        W 3493  23.035  14.218  10.992
35076W        W 3494  36.511  21.188   0.766
35077W        W 3495   0.327  16.197   4.792
35078W        W 3496   4.886  42.300   2.806
35079W        W 3497  26.695  44.949  13.042
35080W        W 3498  26.162  37.373   0.309
35081W        W 3499  12.309  29.621   2.757
35082W        W 3500   1.906  38.976  12.920
35083W        W 3501  30.974   0.930   1.788
35084W        W 3502   6.427  18.165   1.927
35085W        W 3503  30.501   5.220   2.674
35086W        W 3504   9.821  39.438  14.871
35087W        W 3505  31.896  32.908  12.421
35088W        W 3506   4.788  28.588  11.116
35089W        W 3507  28.100  31.016   1.790
35090W        W 3508  24.995  38.965  11.524
35091W        W 3509  17.299  42.385   4.600
35092W        W 3510  30.526  16.708   3.378
35093W        W 3511   2.908  26.693   4.323
35094W        W 3512  33.606  16.192   4.288
35095W        W 3513  34.402  26.681   3.233
35096W        W 3514   7.343  22.707  13.402
35097W        W 3515   6.321  12.651   3.638
35098W        W 3516  13.651  35.919   4.621
35099W        W 3517   8.693  30.651  10.991
35100W        W 3518  30.548  13.651  12.094
35101W        W 3519  18.158  40.545  14.469
35102W        W 3520  43.891  38.534  11.894
35103W        W 3521   3.872  44.305  14.337
35104W        W 3522  15.251  19.752  12.498
35105W        W 3523   0.301  19.576   9.939
35106W        W 3524  39.485   5.305  12.404
35107W        W 3525  34.553  36.083  11.401
35108W        W 3526   1.771  17.305   2.732
35109W        W 3527  43.390  35.489  13.825
35110W        W 3528  43.314  37.832   2.803
35111W        W 3529  30.964  26.594  12.968
35112W        W 3530  31.442   3.298   0.745
35113W        W 3531  15.821  15.581   4.279
35114W        W 3532  12.133  25.089   4.311
35115W        W 3533  42.886  24.685   2.745
35116W        W 3534  12.627  36.428   3.277
35117W        W 3535  26.483  38.827   2.311
35118W        W 3536  28.029   4.317  12.895
35119W        W 3537  38.036  11.236   4.625
35120W        W 3538  34.065  24.068  10.982
35121W        W 3539  39.991  15.817   4.799
35122W        W 3540  31.951  40.840  14.970
35123W        W 3541  27.157  28.939   1.217
35124W        W 3542  37.993  44.831   2.785
35125W        W 3543  27.043   7.347  11.005
35126W        W 3544  14.602  23.622   4.205
35127W        W 3545  43.329   2.461   1.835
35128W        W 3546  43.508  39.362  13.874
35129W        W 3547   0.426  18.751   1.911
35130W        W 3548   8.168  34.069  13.337
35131W        W 3549  38.564  35.026   4.758
35132W        W 3550  15.615  11.737   3.287
35133W        W 3551  34.530  18.731   1.361
35134W        W 3552   3.794  23.600  11.092
35135W        W 3553  44.327  20.648  12.462
35136W        W 3554  25.152  38.000  13.353
35137W        W 3555   8.861  12.746  14.444
35138W        W 3556  29.018   2.342   3.643
35139W        W 3557  11.698  38.033   4.268
35140W        W 3558  22.619  35.541  12.477
35141W        W 3559  17.585  39.415   1.843
35142W        W 3560  22.551  22.501   0.840
35143W        W 3561  21.705  20.068  11.967
35144W        W 3562  23.714  33.548   3.227
35145W        W 3563  26.177  29.590   0.844
35146W        W 3564  17.191  11.320   3.185
35147W        W 3565  42.962   5.906  11.454
35148W        W 3566  29.090  19.073  11.074
35149W        W 3567   0.289  38.526  14.901
35150W        W 3568  30.625  14.750  11.990
35151W        W 3569  40.341  33.071  14.384
35152W        W 3570  26.002  42.942   3.788
35153W        W 3571  31.441  25.084   2.192
35154W        W 3572   4.309  25.489   2.416
35155W        W 3573  28.115  37.354  13.526
35156W        W 3574   0.264  26.036   3.242
35157W        W 3575  41.906  12.360  14.941
35158W        W 3576   8.841  14.341   1.442
35159W        W 3577  29.434  31.080   1.257
35160W        W 3578  33.072  32.591  13.856
35161W        W 3579  16.177  43.958   2.229
35162W        W 3580   9.232  13.176   3.728
35163W        W 3581  20.083  32.055   0.878
35164W        W 3582  10.802  25.165  12.835
35165W        W 3583  17.568  40.446  12.361
35166W        W 3584   1.842   0.403   4.141
35167W        W 3585   1.926   4.347  11.476
35168W        W 3586  43.376  38.976  14.298
35169W        W 3587  21.229  42.910   2.856
35170W        W 3588   6.350  26.618  14.508
35171W        W 3589  43.330  40.411  10.458
35172W        W 3590  26.988  42.906  10.950
35173W        W 3591  35.975  25.655   2.380
35174W        W 3592  30.927  44.500  14.510
35175W        W 3593  21.746  20.639  12.011
35176W        W 3594   6.186   5.899   4.326
35177W        W 3595  29.630  13.731   1.757
35178W        W 3596  42.345  35.874  11.054
35179W        W 3597  21.171  18.074  10.988
35180W        W 3598  10.242  10.715   2.880
35181W        W 3599  44.381   3.790   4.134
35182W        W 3600  14.158  22.223  14.372
35183W        W 3601  13.824  13.256   1.286
35184W        W 3602  44.451   8.888   2.212
35185W        W 3603  10.298  13.657   4.196
35186W        W 3604  18.765  36.916   1.879
35187W        W 3605  12.223  33.445   2.668
35188W        W 3606  38.824  11.646   4.779
35189W        W 3607  42.794   3.345  12.470
35190W        W 3608   9.693  14.311   4.723
35191W        W 3609  28.613  34.390   4.122
35192W        W 3610   4.405  31.639   2.417
35193W        W 3611  18.239  30.920   3.707
35194W        W 3612   4.244   5.319  10.471
35195W        W 3613  27.669   7.297  11.929
35196W        W 3614   3.732  18.120  13.990
35197W        W 3615   7.893  20.616   3.230
35198W        W 3616  38.848  36.972  13.443
35199W        W 3617  13.727  10.761   0.949
35200W        W 3618  40.507  24.492   4.289
35201W        W 3619  44.938   3.239   4.819
35202W        W 3620  42.942  15.215   2.316
35203W        W 3621  33.383  11.216  12.405
35204W        W 3622  44.483  21.612   4.724
35205W        W 3623  31.997  20.704   0.348
35206W        W 3624  22.700  43.280  14.282
35207W        W 3625  28.489  33.618  11.379
35208W        W 3626  28.662  33.936  14.340
35209W        W 3627  41.304  21.653   4.351
35210W        W 3628  22.108  12.290  11.898
35211W        W 3629  21.180  36.370   0.324
35212W        W 3630  20.205   7.889  14.931
35213W        W 3631  12.233  21.626   2.281
35214W        W 3632  43.831  13.244   1.415
35215W        W 3633  19.265  39.886  11.976
35216W        W 3634  43.309  36.067   1.308
35217W        W 3635  33.982  27.447   3.665
35218W        W 3636  21.655  10.676   2.847
35219W        W 3637  27.962   5.699  11.882
35220W        W 3638  33.399  27.683   0.363
35221W        W 3639   1.941  26.176  11.878
35222W        W 3640  39.994  43.883   2.686
35223W        W 3641  38.571  12.308   4.246
35224W        W 3642  10.206  22.095  12.867
35225W        W 3643  25.590   2.925   0.284
35226W        W 3644  21.082  31.950  10.482
35227W        W 3645   3.907  43.464   2.392
35228W        W 3646  27.651  24.593   1.357
35229W        W 3647  21.697   2.463  12.396
35230W        W 3648  11.150  29.058  14.801
35231W        W 3649   2.357   8.794   4.251
35232W        W 3650  37.505  35.904  12.441
35233W        W 3651  38.420   7.221   3.787
35234W        W 3652  10.772  22.149   0.855
35235W        W 3653  33.577  21.169  11.454
35236W        W 3654  33.510  10.291   2.197
35237W        W 3655  14.167  23.097  13.327
35238W        W 3656   0.818  44.466   5.302
35239W        W 3657   4.410  19.044   1.327
35240W        W 3658  13.154  20.611   2.780
35241W        W 3659  12.651  19.703  14.006
35242W        W 3660  23.490  15.248   0.838
35243W        W 3661  27.139   9.774   3.771
35244W        W 3662  23.707  27.481  10.980
35245W        W 3663  43.791  37.560  12.949
35246W        W 3664  10.286  24.033   4.215
35247W        W 3665  36.025  16.588  13.963
35248W        W 3666  24.212  33.396   2.842
35249W        W 3667  22.170  43.368   3.225
35250W        W 3668   4.421  13.706   2.273
35251W        W 3669   0.811  22.029   3.867
35252W        W 3670  30.006  14.681   2.876
35253W        W 3671  42.375  22.639   4.805
35254W        W 3672  41.929  41.028   0.837
35255W        W 3673  27.538   6.239   4.291
35256W        W 3674  40.373  42.994  14.469
35257W        W 3675  35.050  40.033   3.648
35258W        W 3676  29.603   7.205   2.418
35259W        W 3677  37.360  22.577   0.379
35260W        W 3678  43.279  39.935  11.097
35261W        W 3679   7.911  34.578   1.274
35262W        W 3680  38.475  10.832  10.449
35263W        W 3681  30.460  32.430   4.664
35264W        W 3682  36.457  24.981   4.697
35265W        W 3683  17.722   0.942  11.967
35266W        W 3684  40.511  44.871   2.901
35267W        W 3685  32.573  12.765  12.526
35268W        W 3686  17.601   6.836  12.389
35269W        W 3687  24.161   5.904   0.803
35270W        W 3688   5.752  19.553  12.347
35271W        W 3689  22.112  29.939   3.850
35272W        W 3690   9.757  11.718  12.921
35273W        W 3691  42.490  18.545   3.367
35274W        W 3692  38.940   9.364   4.129
35275W        W 3693  27.516  20.033  14.895
35276W        W 3694  11.837  43.324  14.311
35277W        W 3695   0.924  34.374   3.833
35278W        W 3696  35.970  26.063  14.300
35279W        W 3697  33.979  43.506  13.986
35280W        W 3698  16.156  26.042   1.849
35281W        W 3699  37.405  36.883   0.855
35282W        W 3700  22.514  10.271  14.914
35283W        W 3701  14.595  42.353  14.794
35284W        W 3702  25.971  19.684   0.821
35285W        W 3703  20.200   1.471  13.511
35286W        W 3704   8.229  12.149  13.991
35287W        W 3705  42.870  30.973  12.069
35288W        W 3706  18.285  24.638  11.373
35289W        W 3707  26.600  26.106  11.486
35290W        W 3708  25.613  17.247   2.374
35291W        W 3709  23.036  10.821   0.858
35292W        W 3710  27.098  23.717  11.377
35293W        W 3711  34.033   7.220  13.870
35294W        W 3712  29.565  33.464   2.806
35295W        W 3713  18.292  29.652  14.894
35296W        W 3714  41.294  19.121  13.427
35297W        W 3715  31.900   2.890   0.968
35298W        W 3716   3.881  18.586   1.358
35299W        W 3717   8.770  41.859   0.793
35300W        W 3718  27.002  28.986  14.932
35301W        W 3719  18.644  22.247   4.354
35302W        W 3720   9.267  30.099   3.824
35303W        W 3721   9.155  28.494   3.356
35304W        W 3722  35.042  17.122  13.421
35305W        W 3723  29.619  14.668   1.293
35306W        W 3724   3.434  39.995   2.227
35307W        W 3725   8.679  29.463  11.078
35308W        W 3726  11.298   9.686   4.624
35309W        W 3727  38.458  17.658  13.826
35310W        W 3728  30.940   0.938  13.992
35311W        W 3729  16.611  20.250   0.483
35312W        W 3730   0.331  13.810  12.948
35313W        W 3731  11.302  32.615  11.866
35314W        W 3732  25.090  31.499   0.741
35315W        W 3733  40.018   8.159   0.901
35316W        W 3734  25.096  31.617  10.593
35317W        W 3735  15.612  18.756   0.761
35318W        W 3736  25.090  12.351   4.321
35319W        W 3737  42.429  23.645   3.176
35320W        W 3738   7.745   1.821   2.211
35321W        W 3739  13.188  18.265  10.982
35322W        W 3740  26.076  44.935   4.215
35323W        W 3741  19.123  38.487   1.365
35324W        W 3742  39.970   7.372   0.890
35325W        W 3743  32.105  42.796  14.420
35326W        W 3744  36.571  30.645  11.511
35327W        W 3745   2.946   1.425   3.172
35328W        W 3746   5.873  21.541  12.088
35329W        W 3747  29.994   8.302  11.035
35330W        W 3748  15.764  41.039   4.740
35331W        W 3749  43.822  13.764   1.724
35332W        W 3750  31.042  44.267   2.846
35333W        W 3751  43.339  30.425  13.924
35334W        W 3752  25.608  15.294   2.901
35335W        W 3753  17.230  23.508   0.890
35336W        W 3754  15.147  44.932  12.092
35337W        W 3755  21.090  31.599  12.375
35338W        W 3756  26.114   0.405  14.347
35339W        W 3757  40.049  31.610   0.304
35340W        W 3758  24.172  38.537   2.215
35341W        W 3759  24.541  17.244  10.907
35342W        W 3760  19.584  16.308  10.415
35343W        W 3761   0.815  16.736  12.503
35344W        W 3762  35.055  20.153   3.379
35345W        W 3763   9.164  25.969   2.349
35346W        W 3764  21.024   8.266   4.637
35347W        W 3765  18.679  26.977  10.549
35348W        W 3766   0.986  20.581   3.372
35349W        W 3767  33.500  29.963   0.394
35350W        W 3768  14.786  37.566  10.617
35351W        W 3769  28.952  18.273  13.367
35352W        W 3770  23.536  28.557   2.268
35353W        W 3771  26.507  24.124  12.365
35354W        W 3772  23.675  33.092   0.393
35355W        W 3773  17.191  26.694  14.289
35356W        W 3774  22.693  23.121  13.450
35357W        W 3775  40.857  13.780   0.750
35358W        W 3776   0.780   1.941  14.306
35359W        W 3777  43.344  24.609   9.453
35360W        W 3778  34.047  41.827  13.034
35361W        W 3779  20.155  10.303   9.928
35362W        W 3780  44.378  26.649   2.753
35363W        W 3781  44.772  17.629   3.201
35364W        W 3782  38.388   9.350   0.779
35365W        W 3783  19.681  41.413   3.162
35366W        W 3784  19.066  16.767   3.860
35367W        W 3785  31.997   5.842   2.199
35368W        W 3786  16.571  35.513  12.998
35369W        W 3787  18.618   4.776   0.243
35370W        W 3788  14.707  22.526   1.392
35371W        W 3789  23.206  41.426   3.304
35372W        W 3790  40.975  18.693   1.235
35373W        W 3791   8.341  39.486   1.729
35374W        W 3792  37.526  15.678   1.412
35375W        W 3793   3.866  36.472  13.497
35376W        W 3794  17.286   4.443   3.820
35377W        W 3795  15.227  35.864   0.262
35378W        W 3796   3.899  31.146  12.846
35379W        W 3797   3.244  11.332  12.407
35380W        W 3798  15.218  14.715   4.293
35381W        W 3799  31.634   9.644   4.307
35382W        W 3800  42.403  28.654  11.514
35383W        W 3801  18.121   4.377  13.313
35384W        W 3802  12.195  19.128   4.769
35385W        W 3803  21.719  40.523   4.649
35386W        W 3804  28.525  34.933  13.983
35387W        W 3805   1.458  10.703   1.814
35388W        W 3806  32.440  18.085   4.627
35389W        W 3807  11.680   4.274  10.887
35390W        W 3808  13.122  40.818  13.505
35391W        W 3809  30.465  31.645  14.482
35392W        W 3810  20.665  26.960  14.900
35393W        W 3811  44.435  28.533   2.419
35394W        W 3812  18.201  20.688  14.471
35395W        W 3813  37.068  42.827  12.371
35396W        W 3814  16.811  38.358  11.085
35397W        W 3815  35.091  38.535  12.498
35398W        W 3816  17.153  17.582   2.839
35399W        W 3817  26.698  28.450   1.340
35400W        W 3818  32.005  36.070   0.456
35401W        W 3819  21.245  21.748   1.412
35402W        W 3820   6.198  13.294  12.933
35403W        W 3821  14.175  30.633   1.817
35404W        W 3822  44.457   7.739   3.855
35405W        W 3823  31.152  40.539   4.271
35406W        W 3824   7.872  42.522  12.957
35407W        W 3825  13.667   5.779   1.903
35408W        W 3826  44.773  34.475  12.390
35409W        W 3827   6.357   3.820   2.396
35410W        W 3828  41.862  29.031  14.474
35411W        W 3829  40.353   4.749  11.888
35412W        W 3830  29.036  23.066   1.433
35413W        W 3831   5.413  30.428   0.758
35414W        W 3832  12.720  14.336   2.187
35415W        W 3833  14.141  11.726  11.897
35416W        W 3834  31.430  18.103  11.493
35417W        W 3835  25.584  17.134   0.892
35418W        W 3836  18.170   9.166   0.456
35419W        W 3837   9.317   6.681  12.982
35420W        W 3838   9.663  44.893   4.798
35421W        W 3839  14.180  24.088  12.023
35422W        W 3840  26.136  26.962   0.441
35423W        W 3841  15.691   7.678   0.765
35424W        W 3842  31.945  32.584   3.707
35425W        W 3843   4.844   6.337   0.941
35426W        W 3844  28.614   3.246   0.857
35427W        W 3845  35.560  24.060   0.396
35428W        W 3846  26.953  27.054   1.275
35429W        W 3847  16.100  18.606   4.183
35430W        W 3848  18.706  25.022  11.938
35431W        W 3849  35.529  34.596  12.035
35432W        W 3850  37.890  19.726  12.540
35433W        W 3851  11.204  35.604   4.166
35434W        W 3852  26.474  44.756   2.869
35435W        W 3853  29.535   8.751  12.877
35436W        W 3854  34.893  29.058   1.312
35437W        W 3855  28.608  24.084   3.736
35438W        W 3856  35.108  21.688   4.115
35439W        W 3857  28.674  19.714   1.906
35440W        W 3858  32.133  16.249   3.381
35441W        W 3859  35.948   1.344  11.560
35442W        W 3860  21.181  14.719   2.391
35443W        W 3861  15.766  15.668   4.830
35444W        W 3862  20.654  42.341   3.159
35445W        W 3863  29.456   9.326   4.292
35446W        W 3864  38.819  28.472   0.333
35447W        W 3865  29.948  21.082   3.348
35448W        W 3866  27.966  43.351   4.775
35449W        W 3867  11.860  16.185   2.770
35450W        W 3868  44.823   1.947   2.413
35451W        W 3869  30.631  34.944  11.446
35452W        W 3870   3.407   1.446  13.849
35453W        W 3871  20.086  24.028   4.751
35454W        W 3872  16.750  22.568  14.449
35455W        W 3873  19.214  16.106   2.335
35456W        W 3874   5.380  20.699   1.902
35457W        W 3875  13.300  30.567  10.430
35458W        W 3876  36.362  31.039   4.821
35459W        W 3877  29.167   9.745   9.515
35460W        W 3878  35.575   9.666  14.005
35461W        W 3879  26.618  44.394  10.486
35462W        W 3880  12.281  10.335  13.928
35463W        W 3881  39.853  38.874  11.974
35464W        W 3882  23.597  41.951   0.871
35465W        W 3883   3.401  28.113  12.892
35466W        W 3884  21.654   0.870  14.891
35467W        W 3885  24.510  33.440  13.936
35468W        W 3886  31.069  40.851  13.451
35469W        W 3887   8.805   0.403   1.900
35470W        W 3888  36.392  32.105  10.048
35471W        W 3889  38.495   5.800  14.771
35472W        W 3890  36.571  13.219   1.263
35473W        W 3891  40.841  10.349  13.049
35474W        W 3892  15.769   7.178  13.395
35475W        W 3893  40.854  39.537  11.398
35476W        W 3894  34.372  15.304   4.691
35477W        W 3895   0.340   9.220   2.252
35478W        W 3896  39.350   9.316   3.307
35479W        W 3897   4.291  17.763   2.180
35480W        W 3898  38.868  35.552   0.907
35481W        W 3899   2.253  18.757  11.537
35482W        W 3900  29.092  23.704  10.965
35483W        W 3901  40.336  22.702  14.889
35484W        W 3902  44.478  10.651  14.511
35485W        W 3903  17.633   7.256   4.690
35486W        W 3904  12.727  11.194   2.366
35487W        W 3905  38.057  29.061  14.279
35488W        W 3906  29.501  15.708   1.782
35489W        W 3907   9.275  18.288  12.575
35490W        W 3908  12.823  34.498  13.995
35491W        W 3909  44.895  12.116  11.457
35492W        W 3910  28.583   7.187  13.404
35493W        W 3911  32.436  18.782   3.663
35494W        W 3912  34.875   9.815   2.840
35495W        W 3913  37.846  28.025  11.433
35496W        W 3914   1.298  17.127  11.508
35497W        W 3915  10.369  20.121  10.958
35498W        W 3916  29.482   4.213  12.051
35499W        W 3917  42.425   2.949  11.940
35500W        W 3918  41.504  26.527  14.898
35501W        W 3919  18.056  36.883  13.463
35502W        W 3920  35.004  37.471   2.838
35503W        W 3921  11.319  13.661   3.646
35504W        W 3922  20.084   6.285  11.420
35505W        W 3923  43.336   2.364   4.650
35506W        W 3924   0.904  33.547   4.613
35507W        W 3925  12.674  34.007   4.748
35508W        W 3926  11.136  41.968  12.390
35509W        W 3927  27.941  25.482   1.242
35510W        W 3928  25.017  35.374   1.833
35511W        W 3929  34.484  23.701  13.503
35512W        W 3930  24.679   4.319  13.494
35513W        W 3931  21.235  29.488  14.961
35514W        W 3932  24.175  36.937  12.347
35515W        W 3933  14.223  21.095   1.228
35516W        W 3934  32.963  34.047   1.728
35517W        W 3935  29.920  30.105   1.905
35518W        W 3936  30.614   6.740  14.339
35519W        W 3937  22.554   4.336   2.783
35520W        W 3938  34.005  25.562   3.306
35521W        W 3939  40.916  19.269  13.957
35522W        W 3940  17.230  25.675  10.060
35523W        W 3941  42.900  23.166  10.086
35524W        W 3942  37.853  10.792   0.912
35525W        W 3943  18.614  31.149   2.865
35526W        W 3944   2.244  33.561  11.544
35527W        W 3945  34.410  21.052  13.332
35528W        W 3946  11.356  12.769   4.714
35529W        W 3947  22.017  32.435   1.391
35530W        W 3948  38.938  15.283   1.766
35531W        W 3949  16.230  44.306  11.583
35532W        W 3950  17.284  14.754   0.475
35533W        W 3951   9.833  30.470  10.974
35534W        W 3952   4.938  39.047  12.844
35535W        W 3953  10.184  30.990   3.363
35536W        W 3954  20.168  13.836   3.319
35537W        W 3955  14.129  19.105  11.521
35538W        W 3956  30.567  35.485   4.331
35539W        W 3957  32.917  21.184   2.840
35540W        W 3958  26.148  22.606   2.843
35541W        W 3959  26.551   7.820   1.934
35542W        W 3960  25.967  20.676  10.918
35543W        W 3961  13.724  21.219  13.470
35544W        W 3962  21.046  41.038  13.807
35545W        W 3963  37.470   2.245  11.859
35546W        W 3964  22.534  40.366   9.458
35547W        W 3965  33.385  11.718   2.695
35548W        W 3966   1.976  18.666   0.366
35549W        W 3967  11.246  30.559   3.305
35550W        W 3968  21.562  22.221  14.883
35551W        W 3969   3.422   7.896   2.687
35552W        W 3970   0.304  42.508   1.309
35553W        W 3971  19.228  17.670  14.829
35554W        W 3972  18.172  40.409  13.479
35555W        W 3973  41.911  34.093   0.441
35556W        W 3974  10.731  11.866  14.337
35557W        W 3975   5.429  38.541  11.571
35558W        W 3976  29.604  12.189  14.353
35559W        W 3977  12.281  16.746  14.779
35560W        W 3978  42.450  14.241  13.914
35561W        W 3979  41.992  17.561  13.038
35562W        W 3980  42.927  15.288  14.425
35563W        W 3981  37.412  25.674   4.326
35564W        W 3982  41.954  22.583   2.178
35565W        W 3983  30.945  35.438   1.296
35566W        W 3984   7.872  29.079   4.299
35567W        W 3985   1.404   8.177   3.225
35568W        W 3986  10.210  34.074  12.963
35569W        W 3987   2.390  33.973   2.694
35570W        W 3988  10.752  38.835  11.985
35571W        W 3989   7.228  30.054  14.897
35572W        W 3990  25.028  39.917  11.421
35573W        W 3991  22.193  23.528   4.770
35574W        W 3992   2.371  37.854   1.801
35575W        W 3993  29.161   6.838   1.793
35576W        W 3994   9.330  33.932  13.832
35577W        W 3995  16.173  16.313   1.812
35578W        W 3996  12.298  20.759  14.354
35579W        W 3997  14.253  24.157   5.297
35580W        W 3998  15.217  17.572   2.871
35581W        W 3999  14.299   7.906  14.791
35582W        W 4000  19.744  36.407  14.796
35583W        W 4001  39.873  42.865   1.399
35584W        W 4002  43.495  14.762   0.361
35585W        W 4003  31.627   0.805  12.001
35586W        W 4004  25.151   5.820  13.412
35587W        W 4005  16.305  24.506   3.235
35588W        W 4006  17.242  25.544   0.754
35589W        W 4007  42.347   2.259   1.330
35590W        W 4008   3.298   1.287  14.977
35591W        W 4009  25.040  14.741  12.415
35592W        W 4010   5.239  24.137   3.194
35593W        W 4011   3.284  43.918  10.602
35594W        W 4012   7.728  10.259   1.402
35595W        W 4013  13.793  11.253   1.857
35596W        W 4014  12.181  11.249   2.741
35597W        W 4015   0.906  22.006  10.409
35598W        W 4016  20.033  35.557   2.254
35599W        W 4017  25.680  34.483   1.743
35600W        W 4018   7.351  33.038   1.854
35601W        W 4019  34.601  34.062  12.536
35602W        W 4020   3.371   4.767  12.908
35603W        W 4021   5.296  29.095  14.499
35604W        W 4022  25.543  13.258   3.741
35605W        W 4023  16.074  18.193   2.784
35606W        W 4024  24.142   3.899   0.858
35607W        W 4025  36.920  38.979  11.611
35608W        W 4026  43.418  24.522  10.905
35609W        W 4027  26.073  26.597   4.245
35610W        W 4028  14.608  19.626   1.215
35611W        W 4029  11.723  14.279   9.961
35612W        W 4030  44.363   4.329   3.689
35613W        W 4031   5.862  16.789  13.048
35614W        W 4032  26.092   4.361  14.313
35615W        W 4033   6.224  12.127  12.560
35616W        W 4034  23.598   1.893   4.272
35617W        W 4035   9.236  21.720   3.649
35618W        W 4036  33.589  16.759   4.809
35619W        W 4037  22.520  34.490   2.299
35620W        W 4038  11.239   4.349   2.779
35621W        W 4039  33.020  19.717  11.079
35622W        W 4040  40.318  41.514   2.412
35623W        W 4041  25.119  43.883  10.108
35624W        W 4042  42.393   6.749   2.221
35625W        W 4043  23.207  34.066   4.311
35626W        W 4044  26.977  31.107   2.804
35627W        W 4045   2.394  25.483  13.374
35628W        W 4046  23.713  27.059   2.316
35629W        W 4047   3.344  20.249  13.442
35630W        W 4048  42.386   3.777  11.518
35631W        W 4049   6.813  30.112  13.000
35632W        W 4050  15.180  24.629  10.645
35633W        W 4051  36.058   8.817  10.935
35634W        W 4052  12.344  32.949  12.418
35635W        W 4053   3.265  23.518  14.951
35636W        W 4054   9.266  36.944   3.640
35637W        W 4055  24.170  36.374   4.653
35638W        W 4056  35.977  42.804   4.796
35639W        W 4057  35.482  42.489  12.844
35640W        W 4058  25.095  43.009   4.764
35641W        W 4059  25.533  15.191   1.244
35642W        W 4060  22.738  20.132  12.861
35643W        W 4061  36.492  41.040  12.832
35644W        W 4062  40.342  31.595  13.006
35645W        W 4063   8.790  36.851   1.361
35646W        W 4064  19.249  18.296   4.254
35647W        W 4065  22.574  27.450   2.398
35648W        W 4066   4.767  42.824  12.046
35649W        W 4067  30.463  16.787  14.491
35650W        W 4068  23.169  24.994   2.399
35651W        W 4069  31.076  29.086   4.120
35652W        W 4070  21.136  23.593   5.628
35653W        W 4071  21.556  24.575   0.471
35654W        W 4072   9.644  40.924   4.263
35655W        W 4073   4.909  17.264  13.934
35656W        W 4074  41.424  40.834  11.553
35657W        W 4075  24.147  15.718  13.023
35658W        W 4076  39.537  23.563   3.349
35659W        W 4077  21.613   3.855  13.363
35660W        W 4078   4.343  17.799  14.786
35661W        W 4079  16.108  38.912   3.831
35662W        W 4080  41.008  25.087   1.251
35663W        W 4081  44.428  30.090  12.344
35664W        W 4082  18.660  33.526  13.792
35665W        W 4083  42.799  34.932  13.377
35666W        W 4084   9.809  29.943   4.659
35667W        W 4085  29.505  21.617  13.428
35668W        W 4086   5.850   4.885   0.451
35669W        W 4087  14.135  38.504  13.879
35670W        W 4088  15.143  18.058  11.533
35671W        W 4089  30.571  38.939   3.733
35672W        W 4090  37.900   7.896  11.933
35673W        W 4091  12.673  27.164  13.009
35674W        W 4092  25.547  21.694   3.373
35675W        W 4093  34.392   4.358   0.381
35676W        W 4094  11.368  33.100  10.559
35677W        W 4095  38.943   9.281  12.363
35678W        W 4096  13.223  16.660  14.787
35679W        W 4097  29.659  10.230   4.832
35680W        W 4098  31.543  12.217   0.796
35681W        W 4099  30.585  29.614   2.778
35682W        W 4100  35.011   1.406   2.760
35683W        W 4101  43.370  44.787   1.860
35684W        W 4102  22.193  22.114   1.258
35685W        W 4103  31.127   4.787  12.855
35686W        W 4104   5.377  10.690  12.455
35687W        W 4105  15.607  12.855  13.920
35688W        W 4106  28.130  21.257  10.573
35689W        W 4107  35.402  34.981  14.800
35690W        W 4108  34.007   2.300  10.466
35691W        W 4109  33.422  37.461  13.409
35692W        W 4110  34.440  38.532  10.901
35693W        W 4111  26.698  34.388   4.679
35694W        W 4112   0.287  41.388  13.455
35695W        W 4113  16.303  13.705   4.283
35696W        W 4114  40.846  28.667   1.277
35697W        W 4115   2.256  30.659  10.157
35698W        W 4116   2.344  28.034  11.396
35699W        W 4117  27.607  19.724   2.321
35700W        W 4118   5.867   4.241   2.797
35701W        W 4119  30.431  19.574   0.918
35702W        W 4120   6.891  22.163   1.910
35703W        W 4121  21.661  19.727  13.834
35704W        W 4122   8.277  33.414   2.283
35705W        W 4123  38.461   8.393  10.622
35706W        W 4124   5.731  21.704   0.434
35707W        W 4125   4.303  41.389   1.291
35708W        W 4126  19.201  41.939   2.748
35709W        W 4127  44.296  35.877   4.612
35710W        W 4128  37.000  27.629  12.516
35711W        W 4129  34.439  14.220  13.812
35712W        W 4130  15.682   4.344   9.476
35713W        W 4131  12.798  33.064   2.200
35714W        W 4132   5.783  38.392   4.797
35715W        W 4133  15.689  36.886  11.375
35716W        W 4134  32.985   0.367   2.266
35717W        W 4135  12.170  24.143  14.848
35718W        W 4136  13.845  41.349  11.957
35719W        W 4137  30.479  16.111   1.881
35720W        W 4138  29.923  41.843   3.792
35721W        W 4139  42.021  29.985   2.268
35722W        W 4140  20.256  27.553   4.803
35723W        W 4141  23.176  37.997  14.939
35724W        W 4142  32.946  22.633   1.837
35725W        W 4143  33.453   6.853  11.400
35726W        W 4144  12.306  25.568  11.492
35727W        W 4145  21.075   0.801  11.922
35728W        W 4146  19.660  21.174  13.899
35729W        W 4147   0.426  18.176   0.395
35730W        W 4148  16.168  43.487  10.942
35731W        W 4149  21.512  14.185   1.893
35732W        W 4150  26.538  13.626  12.456
35733W        W 4151  42.418   6.397   3.219
35734W        W 4152  24.615  11.274  12.500
35735W        W 4153  36.574  17.733   3.637
35736W        W 4154  33.093   5.395  11.501
35737W        W 4155  34.547   7.702   2.708
35738W        W 4156  41.794  38.946  10.040
35739W        W 4157  36.028  17.171   0.943
35740W        W 4158  21.592  43.342   4.727
35741W        W 4159   5.868  33.911  13.902
35742W        W 4160  32.613  15.758   3.341
35743W        W 4161  23.565  37.467  10.628
35744W        W 4162  31.454  30.042  12.412
35745W        W 4163   6.894   2.828  11.081
35746W        W 4164   8.729  14.236   3.741
35747W        W 4165  10.239  37.956   1.354
35748W        W 4166   6.336   5.933  10.517
35749W        W 4167  30.513  41.820  12.432
35750W        W 4168  31.420  39.445  14.500
35751W        W 4169   0.293  22.596   2.362
35752W        W 4170  38.947  37.507   4.128
35753W        W 4171  15.650  24.071   5.140
35754W        W 4172  29.624  29.612  13.975
35755W        W 4173  11.678   3.287  14.006
35756W        W 4174  41.429   8.314  13.391
35757W        W 4175   9.217  31.956  11.984
35758W        W 4176  29.042   4.928  12.839
35759W        W 4177  14.703  15.271  13.820
35760W        W 4178  31.028  37.905   2.854
35761W        W 4179  44.843  22.628  11.950
35762W        W 4180  14.299  11.369   1.715
35763W        W 4181  36.551  21.097   3.269
35764W        W 4182  15.787  29.052   0.416
35765W        W 4183   5.357  42.413  11.379
35766W        W 4184   2.336  21.576  14.807
35767W        W 4185  14.170   2.266   1.731
35768W        W 4186   0.929  37.987   0.364
35769W        W 4187  15.267  18.620   0.887
35770W        W 4188   7.345   8.264   0.863
35771W        W 4189  27.555  11.316  14.903
35772W        W 4190  25.006  16.158  13.520
35773W        W 4191  28.037  24.165  12.465
35774W        W 4192  33.581  35.387   3.177
35775W        W 4193  23.137  39.455  13.942
35776W        W 4194  31.925  11.746   0.761
35777W        W 4195  26.967  22.577  10.413
35778W        W 4196  37.555  37.339  11.459
35779W        W 4197   6.805  38.563  12.047
35780W        W 4198  34.549  29.100   4.700
35781W        W 4199   1.822  13.784   3.290
35782W        W 4200  10.342  36.864   1.396
35783W        W 4201  40.865  36.089  14.477
35784W        W 4202  20.532   1.773   4.285
35785W        W 4203  43.906  39.385  12.966
35786W        W 4204  21.625  38.462  11.066
35787W        W 4205  10.261  37.927   1.713
35788W        W 4206  18.774   0.437   2.870
35789W        W 4207   5.377  39.317  12.377
35790W        W 4208   4.705  30.047  12.914
35791W        W 4209  11.833  27.678  12.075
35792W        W 4210   0.977  43.437   2.317
35793W        W 4211  23.656  21.713  13.509
35794W        W 4212  23.114  25.476   2.223
35795W        W 4213  14.305  25.143  14.842
35796W        W 4214  41.944   2.878   2.185
35797W        W 4215  29.576  17.290  13.441
35798W        W 4216  33.060  33.408   0.794
35799W        W 4217  31.493  40.852  14.351
35800W        W 4218  27.568  13.649   2.777
35801W        W 4219  24.081   0.295   3.225
35802W        W 4220  38.966  10.279  14.786
35803W        W 4221  19.748  18.123   0.834
35804W        W 4222  24.099  25.491   2.324
35805W        W 4223  38.899  20.646  14.448
35806W        W 4224   6.340  22.528  12.448
35807W        W 4225  29.036   8.202  12.020
35808W        W 4226  37.436  33.445  12.831
35809W        W 4227  13.254  21.149   2.771
35810W        W 4228  39.974  40.357  11.993
35811W        W 4229  32.057   5.699  12.850
35812W        W 4230  30.908   4.698   4.793
35813W        W 4231  34.988  16.222   2.783
35814W        W 4232  31.020  22.100   2.701
35815W        W 4233  12.739  25.175  12.398
35816W        W 4234  27.488  43.975   3.663
35817W        W 4235  41.007  12.205  11.020
35818W        W 4236   6.803  26.615   0.796
35819W        W 4237  28.636  19.756  12.407
35820W        W 4238  27.456   9.679  11.577
35821W        W 4239  16.770  40.809   1.399
35822W        W 4240  11.697  12.359   4.695
35823W        W 4241   8.885  21.653   0.327
35824W        W 4242  36.527  39.910   1.352
35825W        W 4243   3.930  18.257   3.666
35826W        W 4244  42.830  41.913   1.269
35827W        W 4245   2.243  43.482  11.012
35828W        W 4246  39.499  28.073  14.333
35829W        W 4247   0.392  40.875  12.448
35830W        W 4248   3.853  44.267   1.226
35831W        W 4249  23.072  10.694   4.621
35832W        W 4250  35.469  11.692  13.344
35833W        W 4251  35.066  13.228   0.463
35834W        W 4252  40.962  25.166  12.341
35835W        W 4253  38.414  27.109  13.971
35836W        W 4254  19.275  42.468   3.690
35837W        W 4255  13.231   2.895   4.832
35838W        W 4256   8.826  38.928  14.892
35839W        W 4257  43.834   6.336   2.189
35840W        W 4258  18.649  31.948   1.277
35841W        W 4259  43.977  40.974  11.585
35842W        W 4260  38.999  23.619  11.420
35843W        W 4261  33.124  30.446   0.840
35844W        W 4262  21.135   8.197   0.439
35845W        W 4263  32.450  30.605   1.818
35846W        W 4264   4.386  35.061   0.891
35847W        W 4265  36.373   7.843  10.509
35848W        W 4266  33.418  23.699  11.052
35849W        W 4267  13.240  10.862  13.863
35850W        W 4268  25.212  21.688   2.685
35851W        W 4269  10.667   1.818   4.650
35852W        W 4270  43.943  44.979   0.791
35853W        W 4271  20.529  34.449  11.581
35854W        W 4272  21.512   4.382  13.869
35855W        W 4273   4.881  30.058  10.912
35856W        W 4274  12.653   9.737   1.928
35857W        W 4275  24.221   1.744  11.046
35858W        W 4276  25.988  40.966   3.703
35859W        W 4277   4.354   3.932  12.458
35860W        W 4278  42.792   0.368  10.576
35861W        W 4279  11.762  14.788   1.322
35862W        W 4280  38.429  36.995   2.294
35863W        W 4281  25.520  14.162  14.401
35864W        W 4282   5.733  38.903  14.309
35865W        W 4283  15.708  25.128   4.817
35866W        W 4284  30.949  21.617   4.299
35867W        W 4285  30.647   4.294  14.332
35868W        W 4286  23.701  25.473   4.291
35869W        W 4287  40.931  29.651   2.341
35870W        W 4288  40.470  21.027  10.550
35871W        W 4289   1.794  38.415  10.475
35872W        W 4290  27.947   2.385  13.950
35873W        W 4291  44.415  21.597  10.569
35874W        W 4292   8.796  26.005  13.838
35875W        W 4293  38.520  42.402  13.991
35876W        W 4294  44.865  21.251  11.459
35877W        W 4295   2.275  44.410  13.327
35878W        W 4296  21.178  36.423   3.640
35879W        W 4297  25.635  30.652  11.104
35880W        W 4298   9.223  15.284   1.317
35881W        W 4299  10.306  26.604   2.669
35882W        W 4300  33.580  20.055   1.792
35883W        W 4301   5.933  10.384   0.362
35884W        W 4302  23.490  42.324  11.992
35885W        W 4303  29.543  26.647   0.365
35886W        W 4304  18.282   8.859  14.443
35887W        W 4305  16.098   0.962  11.458
35888W        W 4306   8.860  41.308  13.384
35889W        W 4307  26.542   5.200   4.334
35890W        W 4308   8.395  35.000  13.904
35891W        W 4309  18.669  12.290   3.634
35892W        W 4310  34.015   9.795  12.513
35893W        W 4311  37.086  16.197   0.334
35894W        W 4312  26.139  32.915   0.384
35895W        W 4313  37.889   6.423   3.335
35896W        W 4314  27.125  38.450  12.340
35897W        W 4315  44.411   5.218   0.811
35898W        W 4316  36.927  19.763  13.958
35899W        W 4317  42.445   1.822   4.767
35900W        W 4318  44.391   0.871   4.310
35901W        W 4319  15.699  25.712   3.768
35902W        W 4320   5.687  14.710   1.722
35903W        W 4321   4.874  21.729  11.374
35904W        W 4322  19.536   1.481   4.304
35905W        W 4323  15.774  22.160   3.645
35906W        W 4324  44.397  26.018  10.445
35907W        W 4325  33.421   2.797   3.819
35908W        W 4326   9.863  42.903  13.057
35909W        W 4327  37.567  27.068  14.002
35910W        W 4328   4.861  11.311  10.538
35911W        W 4329  18.195  28.591  12.525
35912W        W 4330  12.187  13.201   2.680
35913W        W 4331  26.467  30.960   3.687
35914W        W 4332  12.293   8.721  13.313
35915W        W 4333  17.155  39.961  11.481
35916W        W 4334  23.702  42.481   4.159
35917W        W 4335  20.731  13.244   2.736
35918W        W 4336  44.418  23.691  13.458
35919W        W 4337  18.580  40.527  11.440
35920W        W 4338  25.131   6.181  13.516
35921W        W 4339  28.504  29.096   1.926
35922W        W 4340  18.632  24.048   5.578
35923W        W 4341  35.565  11.675   3.696
35924W        W 4342  23.512  10.314   1.451
35925W        W 4343  30.120  25.546  11.021
35926W        W 4344  27.607   1.333   3.343
35927W        W 4345  18.610  19.185   0.943
35928W        W 4346  15.660  17.771   2.676
35929W        W 4347  29.152  14.251  11.552
35930W        W 4348  23.731   2.875  14.004
35931W        W 4349  16.305   0.955  12.570
35932W        W 4350  32.968  39.810  12.843
35933W        W 4351   7.762  17.122  10.604
35934W        W 4352  15.603  35.415   4.664
35935W        W 4353  29.172  27.089   3.262
35936W        W 4354  12.836   9.376   4.688
35937W        W 4355  14.163  39.007   2.837
35938W        W 4356  38.961  16.722  12.563
35939W        W 4357  36.490  14.263   3.187
35940W        W 4358  35.892  25.053  11.891
35941W        W 4359  44.980  42.004   0.775
35942W        W 4360   8.221  33.088   1.865
35943W        W 4361  41.370  20.160  10.556
35944W        W 4362   0.304  21.595   1.741
35945W        W 4363  42.995  38.051   2.238
35946W        W 4364  10.291  30.989  13.378
35947W        W 4365  15.174  31.512   2.334
35948W        W 4366  17.302  26.551  10.492
35949W        W 4367  25.980  11.721   4.301
35950W        W 4368  25.140   1.297  13.846
35951W        W 4369   8.773  41.830  12.565
35952W        W 4370  33.497  26.567  10.559
35953W        W 4371   7.729  35.015   4.264
35954W        W 4372   6.371  36.057   1.262
35955W        W 4373  42.809  40.053  12.946
35956W        W 4374  21.057   4.339   0.414
35957W        W 4375  38.934   4.923  11.961
35958W        W 4376  42.336  20.116   4.150
35959W        W 4377   0.801  41.417  11.442
35960W        W 4378   9.781  26.125   2.869
35961W        W 4379  19.542  11.311  12.385
35962W        W 4380   0.339   0.494   2.284
35963W        W 4381  16.725   1.448   3.859
35964W        W 4382  13.186  28.584   4.696
35965W        W 4383  32.119  44.388   4.600
35966W        W 4384  26.604  38.426   1.400
35967W        W 4385  15.265   1.248   4.745
35968W        W 4386  24.040  30.927  14.912
35969W        W 4387  20.693  43.002   2.705
35970W        W 4388  34.099  20.049  12.458
35971W        W 4389  36.403  17.666   3.310
35972W        W 4390  17.611  39.862  10.954
35973W        W 4391  19.155  19.039   4.210
35974W        W 4392  13.175  10.140   5.150
35975W        W 4393  37.088  16.670  14.759
35976W        W 4394  32.579  18.737  14.320
35977W        W 4395   0.957   8.188   4.229
35978W        W 4396  43.510  20.612   4.803
35979W        W 4397  24.151  24.219   4.718
35980W        W 4398  34.089  31.617   1.905
35981W        W 4399  31.425  13.182   3.310
35982W        W 4400  17.261   7.320  13.464
35983W        W 4401  16.143  13.313   3.659
35984W        W 4402  34.602   3.769  14.883
35985W        W 4403  40.048  20.558   3.750
35986W        W 4404  39.016  10.289   4.178
35987W        W 4405   7.185  26.593  14.418
35988W        W 4406  26.479  34.471  10.919
35989W        W 4407   9.717   2.232  14.003
35990W        W 4408  23.620  34.031   1.368
35991W        W 4409  11.355  12.795  10.951
35992W        W 4410   1.312  43.381   4.784
35993W        W 4411  31.526  16.700  14.396
35994W        W 4412  19.162  41.328  12.418
35995W        W 4413  13.658  30.481  13.318
35996W        W 4414  15.314  28.031  13.540
35997W        W 4415  16.271  20.234  11.887
35998W        W 4416  27.960   4.913   5.250
35999W        W 4417   0.434  28.104   3.153
36000W        W 4418  39.890   4.368   1.438
36001W        W 4419  39.808  15.253   0.782
36002W        W 4420  36.542  14.730  13.958
36003W        W 4421  33.886  44.373  14.927
36004W        W 4422  38.508  42.488  12.972
36005W        W 4423  23.549  11.705  11.570
36006W        W 4424  11.793   4.421  11.952
36007W        W 4425  21.523  37.440   5.247
36008W        W 4426  15.668  16.297   2.371
36009W        W 4427   6.835  32.490   2.835
36010W        W 4428   5.817  32.050  14.328
36011W        W 4429   0.826   6.261  13.357
36012W        W 4430  19.180  30.917  11.091
36013W        W 4431  44.806  39.048  14.016
36014W        W 4432  38.019  26.076   4.301
36015W        W 4433  25.041  26.654  14.916
36016W        W 4434  12.725  30.584  14.940
36017W        W 4435  39.321  36.417   4.838
36018W        W 4436  41.401  31.621  12.028
36019W        W 4437  16.093  27.652   3.663
36020W        W 4438  39.460  32.531  14.897
36021W        W 4439  36.455  32.510   0.312
36022W        W 4440  44.936  12.758   3.311
36023W        W 4441  14.179  11.779   1.751
36024W        W 4442  14.593   8.772  13.037
36025W        W 4443  33.535  33.985  11.605
36026W        W 4444   0.881  36.054  13.312
36027W        W 4445  23.702  33.974   2.248
36028W        W 4446  22.032   6.230   2.336
36029W        W 4447  18.174   0.830   3.284
36030W        W 4448  28.520  16.115   1.735
36031W        W 4449  38.828  35.879  14.957
36032W        W 4450  34.504  29.921   0.289
36033W        W 4451   2.291  23.119   3.843
36034W        W 4452  10.276  31.442   4.332
36035W        W 4453  29.974   0.887  12.836
36036W        W 4454  42.466   9.653  10.606
36037W        W 4455  38.920  26.703  12.087
36038W        W 4456  41.899  35.576   1.708
36039W        W 4457  44.456  33.490  12.578
36040W        W 4458  28.677   8.176   2.330
36041W        W 4459  35.905  14.236  14.908
36042W        W 4460  40.825   6.412  14.984
36043W        W 4461  32.017   4.420   0.419
36044W        W 4462  41.350   7.721   3.738
36045W        W 4463   6.875  18.704  11.424
36046W        W 4464  17.194  18.716  12.919
36047W        W 4465  44.310  11.626   5.703
36048W        W 4466  13.190  26.206  14.472
36049W        W 4467  26.163  13.779  13.802
36050W        W 4468  34.993  40.447   1.785
36051W        W 4469  44.435  39.967  12.939
36052W        W 4470  36.954  32.885   1.299
36053W        W 4471  36.481  29.478  12.021
36054W        W 4472  18.102  15.718   0.910
36055W        W 4473  23.184  13.838   3.247
36056W        W 4474   2.961  33.460   1.902
36057W        W 4475  15.813  37.884   3.239
36058W        W 4476  33.884  41.331  13.457
36059W        W 4477  42.376  44.948  11.931
36060W        W 4478   3.841  42.980   0.783
36061W        W 4479  36.047  25.161  12.538
36062W        W 4480  38.400  21.641   1.930
36063W        W 4481  24.141  41.497   4.286
36064W        W 4482   5.435  28.443  14.407
36065W        W 4483   1.421  35.446  11.567
36066W        W 4484  34.120   6.219   3.240
36067W        W 4485  25.136  21.757   0.954
36068W        W 4486   8.673  44.384  14.986
36069W        W 4487   3.371  12.152  11.585
36070W        W 4488  24.138  41.932  12.877
36071W        W 4489  38.840  10.319   5.270
36072W        W 4490  16.587  16.241   0.875
36073W        W 4491  21.580  26.503   5.276
36074W        W 4492  37.878  12.685  11.413
36075W        W 4493  22.064  14.290   0.403
36076W        W 4494  21.227  17.648   3.788
36077W        W 4495  38.915  26.574   1.367
36078W        W 4496  32.564  20.040  12.505
36079W        W 4497  29.508   8.243   9.525
36080W        W 4498  14.595  29.532  11.528
36081W        W 4499  29.979  16.643  14.321
36082W        W 4500  31.923   9.718  11.445
36083W        W 4501  14.725  23.002  12.059
36084W        W 4502   8.750  12.263   3.671
36085W        W 4503  23.167  39.061  14.949
36086W        W 4504  33.048   7.822   4.125
36087W        W 4505  18.709  15.114  14.339
36088W        W 4506   5.212  26.055  12.453
36089W        W 4507   9.211  33.115   0.802
36090W        W 4508  23.090  17.735  10.531
36091W        W 4509  21.127   6.221   3.754
36092W        W 4510  21.687  33.391  13.863
36093W        W 4511  12.291   9.280   2.755
36094W        W 4512   0.818  33.617  11.427
36095W        W 4513  43.485  41.891   2.862
36096W        W 4514  10.734  36.999  10.481
36097W        W 4515  25.499  31.470   4.631
36098W        W 4516  42.387   6.676   0.938
36099W        W 4517  15.102  28.471   4.633
36100W        W 4518  34.939  12.851   2.742
36101W        W 4519  42.779  30.953   0.822
36102W        W 4520  11.696   0.743  10.991
36103W        W 4521  29.586  35.870  14.974
36104W        W 4522  14.236   4.438   2.751
36105W        W 4523   0.428   5.430  14.503
36106W        W 4524   0.802  33.414   4.227
36107W        W 4525   9.257  16.599  14.959
36108W        W 4526   9.192  13.782  14.340
36109W        W 4527  13.244  21.144  10.904
36110W        W 4528  20.233  19.768   4.684
36111W        W 4529  22.149  23.053  10.592
36112W        W 4530  35.869   2.419   1.725
36113W        W 4531  17.273  31.512  12.927
36114W        W 4532  23.636  10.380  13.402
36115W        W 4533   3.423   0.784   0.759
36116W        W 4534   2.451  28.484  12.578
36117W        W 4535  14.704  23.525  10.512
36118W        W 4536   9.690  25.983   3.383
36119W        W 4537   4.931  17.268  11.373
36120W        W 4538  27.050  44.480   3.372
36121W        W 4539  14.810   3.758   0.898
36122W        W 4540  26.534  27.025  11.120
36123W        W 4541  34.913  38.531   1.808
36124W        W 4542  23.199  11.750   0.459
36125W        W 4543  11.858  18.243   4.205
36126W        W 4544  11.277  25.524  11.484
36127W        W 4545  12.649  27.537   3.257
36128W        W 4546  27.654  14.676   0.750
36129W        W 4547  44.449  33.608  14.359
36130W        W 4548  15.727  38.920   0.884
36131W        W 4549   9.178  38.465  11.099
36132W        W 4550  11.863  29.526  11.085
36133W        W 4551  29.936  44.894   3.217
36134W        W 4552  43.847  13.707  10.151
36135W        W 4553  33.573  14.827   2.203
36136W        W 4554  15.086  31.609  11.409
36137W        W 4555  28.600   2.810   1.300
36138W        W 4556  18.620   6.837   2.733
36139W        W 4557  33.392   8.807   1.335
36140W        W 4558   5.401  29.648  11.966
36141W        W 4559   1.437  26.564  14.316
36142W        W 4560  17.097  28.047  11.982
36143W        W 4561  30.599  15.693   0.458
36144W        W 4562  40.858  33.912   3.727
36145W        W 4563  43.446  10.332  12.029
36146W        W 4564  41.788   0.980  12.012
36147W        W 4565  27.116  20.529  14.800
36148W        W 4566  37.518  34.435   1.429
36149W        W 4567   2.469  20.163  14.964
36150W        W 4568  20.720  44.387  13.043
36151W        W 4569  33.979  21.165  11.005
36152W        W 4570  13.341  14.718  12.978
36153W        W 4571  30.545   4.765   4.653
36154W        W 4572  33.968   5.342  11.483
36155W        W 4573  35.394   5.194   3.739
36156W        W 4574  20.716   8.886   4.746
36157W        W 4575  12.333  15.699  14.812
36158W        W 4576   9.216  22.136  11.433
36159W        W 4577  39.851  17.255   2.382
36160W        W 4578   2.253  19.125  14.305
36161W        W 4579  12.340  42.823   3.796
36162W        W 4580  15.125  17.283   2.844
36163W        W 4581  30.461  35.949   1.739
36164W        W 4582   6.211  29.011  11.372
36165W        W 4583  44.847  16.126   0.412
36166W        W 4584  29.588   7.403  12.340
36167W        W 4585  40.869  12.621  10.972
36168W        W 4586  22.207   7.885  11.974
36169W        W 4587  17.166   0.373  11.446
36170W        W 4588  33.402  42.830   4.115
36171W        W 4589   8.815   9.873  13.801
36172W        W 4590  41.946  10.692  10.976
36173W        W 4591  42.452  42.969  10.584
36174W        W 4592  11.775  16.717   4.616
36175W        W 4593  24.607  40.027  11.556
36176W        W 4594  20.603  41.293  14.992
36177W        W 4595  13.614  33.601   1.346
36178W        W 4596  36.552  25.199  14.411
36179W        W 4597   2.232  34.535   4.277
36180W        W 4598  10.705  24.708   3.775
36181W        W 4599  16.764  11.210  12.003
36182W        W 4600  15.084  28.647  12.343
36183W        W 4601  31.935  20.546   4.201
36184W        W 4602  23.716   4.219  14.846
36185W        W 4603  39.452   3.257   4.692
36186W        W 4604  10.788  24.150  13.887
36187W        W 4605  36.039  32.617  13.464
36188W        W 4606   6.742  25.991  12.560
36189W        W 4607  16.305  29.034  10.605
36190W        W 4608   1.274  32.508   2.326
36191W        W 4609   4.368  44.311  13.363
36192W        W 4610  31.016   9.745   2.412
36193W        W 4611  24.605  38.848   3.742
36194W        W 4612   0.986  31.910   4.181
36195W        W 4613  16.807  37.347  14.477
36196W        W 4614  33.556  33.475   3.328
36197W        W 4615  16.295  27.029  14.016
36198W        W 4616  22.525  29.996   2.409
36199W        W 4617  36.009  16.768  10.414
36200W        W 4618  32.065  24.638  14.289
36201W        W 4619  35.945  10.227  10.420
36202W        W 4620   7.850  10.724   2.681
36203W        W 4621  10.752  11.710  13.971
36204W        W 4622  14.599  26.518   1.858
36205W        W 4623  14.723   2.844  11.091
36206W        W 4624  26.466  44.277  10.964
36207W        W 4625   3.417  40.880   0.914
36208W        W 4626  28.603  27.591  10.555
36209W        W 4627   7.811  10.810   1.319
36210W        W 4628  14.702  26.070  12.852
36211W        W 4629  10.190  11.288   9.962
36212W        W 4630  42.967  24.521   3.705
36213W        W 4631  32.034  35.499   2.304
36214W        W 4632  27.586  33.962  14.479
36215W        W 4633  23.523   2.831  11.923
36216W        W 4634  21.037   0.917  12.922
36217W        W 4635  32.440   4.844   2.664
36218W        W 4636   2.821   1.849   3.853
36219W        W 4637  27.577  13.783  13.455
36220W        W 4638  29.967  26.497  12.509
36221W        W 4639  31.053  26.652   5.228
36222W        W 4640  26.010  38.073  12.005
36223W        W 4641  26.610  19.710   3.869
36224W        W 4642  14.726  18.068  10.638
36225W        W 4643  29.563  14.778   3.182
36226W        W 4644  18.057   6.840  14.416
36227W        W 4645  10.827   4.211   3.321
36228W        W 4646  13.202   8.237  12.545
36229W        W 4647   2.469  28.677   1.747
36230W        W 4648   2.469  15.697   4.657
36231W        W 4649  37.414  21.736  14.849
36232W        W 4650  20.671  38.069   0.881
36233W        W 4651   5.738   0.318  13.048
36234W        W 4652  13.138  34.509   0.363
36235W        W 4653  23.529  30.101  13.935
36236W        W 4654  20.722  16.578   2.897
36237W        W 4655  36.937  15.737  10.461
36238W        W 4656  12.622  16.748  11.998
36239W        W 4657  23.158  31.931   1.896
36240W        W 4658  27.056  11.365  11.023
36241W        W 4659  17.584  23.551   0.293
36242W        W 4660  34.009  32.074   5.109
36243W        W 4661  12.849   9.809   2.672
36244W        W 4662  33.523  23.059   5.306
36245W        W 4663  15.248  16.159   4.123
36246W        W 4664  37.353   3.229  11.486
36247W        W 4665  34.508  23.647   1.321
36248W        W 4666  35.581  26.014   3.351
36249W        W 4667  42.791  32.116  12.008
36250W        W 4668   7.853  30.050   4.684
36251W        W 4669  31.610  14.647   0.340
36252W        W 4670  26.070  36.016  11.571
36253W        W 4671  41.822  43.443   1.427
36254W        W 4672  14.717   2.318  14.921
36255W        W 4673  25.143  17.096  10.600
36256W        W 4674  21.727   4.223   0.948
36257W        W 4675   3.271  35.433   3.802
36258W        W 4676  24.716  33.966  12.918
36259W        W 4677   0.483  16.203  12.049
36260W        W 4678  15.210   6.847   1.930
36261W        W 4679  14.628  27.472   0.455
36262W        W 4680  34.434  11.818   0.294
36263W        W 4681  34.112   6.284  14.781
36264W        W 4682  26.589  17.118  11.390
36265W        W 4683  44.779  27.136  12.508
36266W        W 4684   2.244  24.620   4.283
36267W        W 4685  16.245  37.419   0.922
36268W        W 4686  42.477  27.556   3.372
36269W        W 4687  42.781  37.421  14.981
36270W        W 4688  22.580  17.783   4.732
36271W        W 4689   7.891  15.163   1.234
36272W        W 4690   7.397   8.772  12.907
36273W        W 4691  21.606  41.012   2.400
36274W        W 4692  14.627  17.111  11.973
36275W        W 4693   9.346  32.563   0.816
36276W        W 4694  13.149  23.237  11.124
36277W        W 4695  29.499  26.193   4.664
36278W        W 4696  17.762   5.269  11.017
36279W        W 4697   6.775  30.646   4.606
36280W        W 4698   4.763  38.528  11.964
36281W        W 4699  30.933  24.007   0.418
36282W        W 4700   1.356  33.558   4.160
36283W        W 4701  41.480  15.679  12.057
36284W        W 4702  33.529  12.213  12.894
36285W        W 4703  43.856   3.305  13.408
36286W        W 4704   6.229   1.815   4.239
36287W        W 4705  26.207  42.317   1.412
36288W        W 4706  22.600  18.101  14.875
36289W        W 4707  28.496   0.352  14.398
36290W        W 4708   0.748  29.654  12.071
36291W        W 4709   0.462   6.289  14.304
36292W        W 4710  37.504  22.153   1.881
36293W        W 4711  13.222   4.844  14.825
36294W        W 4712   9.162  13.139   2.407
36295W        W 4713   9.151  21.242   4.748
36296W        W 4714  24.032  14.595  14.312
36297W        W 4715  36.942  20.717   2.316
36298W        W 4716  20.146  23.513   5.303
36299W        W 4717   1.975  43.005  14.885
36300W        W 4718   7.876  37.863  11.428
36301W        W 4719  40.514  24.558  11.026
36302W        W 4720  33.073  21.645   1.890
36303W        W 4721  38.957   8.832   0.808
36304W        W 4722  31.593  36.871  12.505
36305W        W 4723  16.280  41.833  11.566
36306W        W 4724  43.814  39.454   3.802
36307W        W 4725  44.297  36.399   0.467
36308W        W 4726  35.473  11.772  10.967
36309W        W 4727  36.512  34.910   2.385
36310W        W 4728  27.540  39.341  13.813
36311W        W 4729  16.177  26.667  12.567
36312W        W 4730  25.559   9.358  10.964
36313W        W 4731   2.727  44.286  12.947
36314W        W 4732   5.272   1.237   1.805
36315W        W 4733  35.507  10.857  12.845
36316W        W 4734  16.130  17.561  13.896
36317W        W 4735  41.373  40.414   4.623
36318W        W 4736  26.557  30.554   3.634
36319W        W 4737  44.355  34.498  12.349
36320W        W 4738  21.240  44.785  13.954
36321W        W 4739  13.329  14.252   3.267
36322W        W 4740  33.993  14.631   2.210
36323W        W 4741  29.133   4.260  11.461
36324W        W 4742  22.677   7.722   3.640
36325W        W 4743  25.491  12.263  13.821
36326W        W 4744  31.921  40.330   0.769
36327W        W 4745  42.808  24.706   0.459
36328W        W 4746  32.126  21.020  14.334
36329W        W 4747  30.610  24.507  14.022
36330W        W 4748   6.726  23.692   0.420
36331W        W 4749   7.171  15.257  13.844
36332W        W 4750  33.384  37.450  12.898
36333W        W 4751  42.391   2.332  10.493
36334W        W 4752  24.656   2.841  11.090
36335W        W 4753  36.849  31.495  10.406
36336W        W 4754  38.822  23.101   3.763
36337W        W 4755  21.548  21.123   0.333
36338W        W 4756   2.301  19.155  13.382
36339W        W 4757  24.582  30.145  14.002
36340W        W 4758  11.711   3.830   2.316
36341W        W 4759  18.267  42.891  12.826
36342W        W 4760   2.267  38.884  11.953
36343W        W 4761   1.426  32.921  13.934
36344W        W 4762   6.411  21.149  11.092
36345W        W 4763  21.619  44.272   4.306
36346W        W 4764  43.952  37.476  10.597
36347W        W 4765   3.220  24.040   1.216
36348W        W 4766  32.528  31.445   3.236
36349W        W 4767   5.693  20.675   2.274
36350W        W 4768  39.520  12.276  13.850
36351W        W 4769  19.274  32.511   2.272
36352W        W 4770  28.597  17.610   3.151
36353W        W 4771  29.618   3.925  12.855
36354W        W 4772  23.512  42.816  13.516
36355W        W 4773  39.985  30.651  12.465
36356W        W 4774   3.458  17.290   1.723
36357W        W 4775  36.504  10.819  12.488
36358W        W 4776   8.823  15.739   5.158
36359W        W 4777   1.338  29.661  11.611
36360W        W 4778  30.474   6.341   0.426
36361W        W 4779  34.443   5.888  12.519
36362W        W 4780  36.462  22.633   3.220
36363W        W 4781  29.008  28.988  11.965
36364W        W 4782  39.529  30.934   3.171
36365W        W 4783  42.854   7.746   1.821
36366W        W 4784  24.663  26.100   2.875
36367W        W 4785   9.160   4.754   1.858
36368W        W 4786  31.480  14.288   3.186
36369W        W 4787  19.585  24.562   5.255
36370W        W 4788   8.864   6.720   4.343
36371W        W 4789  29.559  41.522   0.433
36372W        W 4790  11.171  15.166   4.837
36373W        W 4791  22.027  32.580  12.905
36374W        W 4792   8.310  39.500   2.894
36375W        W 4793  19.228  42.462  13.379
36376W        W 4794   1.304  44.307   2.210
36377W        W 4795  11.668   1.948   5.206
36378W        W 4796  20.065  16.592  11.128
36379W        W 4797  22.104  21.744   0.805
36380W        W 4798  32.908  33.560  12.580
36381W        W 4799  29.978   3.745   3.284
36382W        W 4800  18.114  10.212   2.818
36383W        W 4801  39.941  27.981   3.242
36384W        W 4802  16.583  24.973  11.127
36385W        W 4803  24.141   1.305  12.092
36386W        W 4804   8.316   7.331   0.964
36387W        W 4805  27.449  44.369   2.685
36388W        W 4806  39.909  26.649  11.975
36389W        W 4807  27.045  16.143   2.725
36390W        W 4808  38.449  10.874  10.898
36391W        W 4809  29.557  43.475   1.903
36392W        W 4810  32.397  41.473   5.144
36393W        W 4811  35.079  25.143   1.329
36394W        W 4812  18.254  16.260  13.034
36395W        W 4813  28.533  19.650   4.600
36396W        W 4814   5.841  41.998   1.771
36397W        W 4815  18.209  44.840  12.935
36398W        W 4816  24.006   8.300  10.519
36399W        W 4817   4.713   6.342   1.442
36400W        W 4818  26.509  25.996  11.061
36401W        W 4819  32.953  15.153   1.401
36402W        W 4820  19.123  18.788   2.789
36403W        W 4821  38.027  29.149   4.204
36404W        W 4822   3.215   4.805   5.207
36405W        W 4823  25.208   3.314   4.211
36406W        W 4824  17.585  25.643   0.914
36407W        W 4825  40.937  21.123   1.435
36408W        W 4826  11.629  23.040  10.908
36409W        W 4827   1.330  21.257  12.427
36410W        W 4828  23.677  16.713   0.929
36411W        W 4829  28.545  34.514  11.572
36412W        W 4830  17.308  30.985  10.048
36413W        W 4831   2.948  31.025   4.695
36414W        W 4832  41.946  25.970  14.930
36415W        W 4833  25.973  17.774   1.815
36416W        W 4834  43.352  16.189  12.868
36417W        W 4835  31.547  18.187  14.958
36418W        W 4836  24.115   9.389   3.329
36419W        W 4837  13.756  25.102   1.379
36420W        W 4838   4.224  24.215   4.154
36421W        W 4839  29.008  22.045   1.695
36422W        W 4840  27.603   2.395  11.419
36423W        W 4841  11.780  13.735   3.635
36424W        W 4842  42.392  38.015   3.218
36425W        W 4843   9.183  32.428  12.033
36426W        W 4844  30.019  25.025   3.834
36427W        W 4845  22.160  26.989   2.287
36428W        W 4846   1.958  10.843   1.821
36429W        W 4847  42.418   4.448   0.307
36430W        W 4848  30.415  18.086   3.199
36431W        W 4849  27.012  16.650  13.832
36432W        W 4850  17.618   7.737   4.297
36433W        W 4851  41.320  28.956   0.376
36434W        W 4852  28.625  13.615   1.372
36435W        W 4853  23.593  33.035   1.717
36436W        W 4854  29.627  31.635   2.360
36437W        W 4855  44.348  40.420  13.899
36438W        W 4856  40.307  24.660   1.434
36439W        W 4857  30.958  17.250   5.182
36440W        W 4858  13.156  12.218   0.254
36441W        W 4859  36.518  21.728  10.939
36442W        W 4860   4.373  40.050  12.949
36443W        W 4861  19.542  38.915  11.001
36444W        W 4862  31.576  21.722   4.820
36445W        W 4863  40.390  25.704  12.923
36446W        W 4864  16.695  36.587   4.333
36447W        W 4865  10.836  29.918   4.614
36448W        W 4866   5.431  37.974   4.183
36449W        W 4867   4.823   1.437  14.810
36450W        W 4868  28.444  34.490  10.947
36451W        W 4869  38.384   7.342  13.054
36452W        W 4870  26.209  36.866   0.457
36453W        W 4871  27.592   2.342   3.205
36454W        W 4872  15.695  35.005  14.449
36455W        W 4873   2.228  22.666  13.485
36456W        W 4874  40.937  40.910   2.759
36457W        W 4875  35.475  41.503   4.632
36458W        W 4876   3.798  44.950  10.467
36459W        W 4877  38.946   3.215   1.324
36460W        W 4878  10.742  24.991   4.700
36461W        W 4879  31.997  31.540  12.903
36462W        W 4880  10.875  40.957  11.524
36463W        W 4881  13.311   3.805  14.871
36464W        W 4882  12.248  30.564   1.736
36465W        W 4883  34.516  16.625  10.635
36466W        W 4884  28.590  38.540  12.921
36467W        W 4885  28.670  21.594   4.748
36468W        W 4886  34.069  23.559   3.773
36469W        W 4887  11.205  11.640  14.908
36470W        W 4888  29.513  17.148   1.929
36471W        W 4889  31.435  34.078  12.486
36472W        W 4890  19.123  33.485   0.867
36473W        W 4891  32.514  42.012   1.718
36474W        W 4892  34.029   3.809   1.901
36475W        W 4893  32.603   8.247  13.506
36476W        W 4894   5.715  16.737   4.284
36477W        W 4895   9.767  17.705   1.323
36478W        W 4896  15.111  41.949  14.775
36479W        W 4897  36.517   5.288  11.419
36480W        W 4898  15.686  33.451   3.161
36481W        W 4899  15.602  35.003   0.750
36482W        W 4900  42.409  27.132   1.302
36483W        W 4901  21.621   4.380   1.369
36484W        W 4902  32.598  43.499  14.503
36485W        W 4903  34.005   9.791   3.719
36486W        W 4904  23.053   5.898  11.991
36487W        W 4905  27.028  26.078  11.107
36488W        W 4906  35.005  20.568   2.255
36489W        W 4907  13.621  40.427   0.769
36490W        W 4908   2.413  19.707  12.998
36491W        W 4909  18.168  19.734   3.365
36492W        W 4910  18.253  11.351  10.999
36493W        W 4911  30.079  30.000   3.789
36494W        W 4912   3.776  15.779  14.004
36495W        W 4913  44.459  37.469   1.868
36496W        W 4914  25.535  44.769   4.212
36497W        W 4915  10.352   8.251   0.478
36498W        W 4916  23.697  12.823   3.715
36499W        W 4917  28.058  38.511  14.928
36500W        W 4918  27.560  30.606   3.764
36501W        W 4919  39.981  43.959   1.424
36502W        W 4920  37.922   5.317  11.407
36503W        W 4921   5.360  19.568   1.920
36504W        W 4922  30.098  43.367   1.264
36505W        W 4923  11.248  24.574  12.011
36506W        W 4924  32.105  32.015  14.960
36507W        W 4925   6.192  21.515  12.505
36508W        W 4926  37.005  25.012  14.015
36509W        W 4927   2.225   8.168   1.918
36510W        W 4928   0.917  13.655   3.318
36511W        W 4929  12.758  10.671   1.785
36512W        W 4930  38.903   8.246   1.734
36513W        W 4931  15.195  23.104  10.633
36514W        W 4932  27.011   9.784  12.397
36515W        W 4933  32.948  30.477   2.267
36516W        W 4934  27.109  42.810   2.850
36517W        W 4935  36.007  23.700  14.805
36518W        W 4936  10.758  18.588  12.563
36519W        W 4937  35.006   6.720  10.465
36520W        W 4938   6.921  25.567   3.211
36521W        W 4939  22.580  10.717  14.333
36522W        W 4940  44.369  22.031  12.362
36523W        W 4941   8.393  12.714  14.968
36524W        W 4942   5.330  37.964   3.662
36525W        W 4943  33.897  28.020   3.279
36526W        W 4944  16.257  30.422  12.977
36527W        W 4945  39.400  42.346  11.497
36528W        W 4946  25.660  13.307  12.449
36529W        W 4947  39.849  30.475  12.935
36530W        W 4948  21.108  23.008   5.213
36531W        W 4949  30.631  18.548  12.888
36532W        W 4950  31.978   4.714  10.026
36533W        W 4951  11.834  29.102  12.529
36534W        W 4952  41.346   2.864   2.403
36535W        W 4953  28.086  40.519   4.316
36536W        W 4954   4.302  20.165   3.206
36537W        W 4955  33.452  41.316   0.378
36538W        W 4956  30.488  26.466   5.223
36539W        W 4957  10.208  25.593   2.801
36540W        W 4958  28.056  29.038  14.292
36541W        W 4959  19.697  28.585  11.383
36542W        W 4960  27.115  10.237  12.484
36543W        W 4961  35.574  36.432   0.757
36544W        W 4962  34.420  24.227   0.395
36545W        W 4963   9.331  33.081   0.316
36546W        W 4964  34.094  18.203   2.375
36547W        W 4965  19.779  20.540   3.707
36548W        W 4966  15.325  12.347   0.484
36549W        W 4967   8.394  26.627   3.656
36550W        W 4968  29.130  34.055  11.042
36551W        W 4969  36.959  30.971   4.273
36552W        W 4970   4.749   8.234   5.248
36553W        W 4971   8.780   7.854   0.243
36554W        W 4972  36.017  34.061  14.421
36555W        W 4973   6.722  29.433   2.335
36556W        W 4974  40.549  16.670   1.722
36557W        W 4975  23.726  12.310  13.981
36558W        W 4976  37.371   3.319  12.023
36559W        W 4977   3.769  21.584   2.253
36560W        W 4978  20.659  15.749  12.503
36561W        W 4979  15.257  35.034   0.919
36562W        W 4980   2.872  40.944   1.922
36563W        W 4981  22.243  24.015   3.376
36564W        W 4982  18.767  12.782   3.315
36565W        W 4983  37.500  26.685  11.393
36566W        W 4984  16.567  38.368   2.189
36567W        W 4985   8.795  27.024  12.945
36568W        W 4986   2.250  40.010   4.247
36569W        W 4987  28.593  16.173  13.411
36570W        W 4988  11.311   8.204  10.421
36571W        W 4989  25.538  22.543  11.920
36572W        W 4990  35.429   0.958   4.706
36573W        W 4991  27.612  13.283   0.737
36574W        W 4992   5.247   8.370   2.238
36575W        W 4993  35.368   4.899   2.222
36576W        W 4994   0.964  41.410   2.362
36577W        W 4995   5.783   8.164   2.242
36578W        W 4996  43.930  35.061   3.650
36579W        W 4997  36.565  18.173   0.857
36580W        W 4998  32.922   8.397  11.021
36581W        W 4999  30.454  36.377  14.516
36582W        W 5000  24.715  17.643   4.332
36583W        W 5001  17.647  24.594  13.415
36584W        W 5002  44.438  32.106  13.451
36585W        W 5003  26.141  44.378  12.435
36586W        W 5004  16.213  33.581  12.051
36587W        W 5005  28.638  28.185  11.009
36588W        W 5006  40.854  23.552   1.363
36589W        W 5007  21.721  26.139   4.610
36590W        W 5008  26.043  19.148  12.446
36591W        W 5009   7.874   2.963  13.978
36592W        W 5010  22.728  26.692   1.893
36593W        W 5011  32.528   9.835  13.347
36594W        W 5012   8.828  35.852   0.249
36595W        W 5013  29.651  37.413   9.957
36596W        W 5014  40.361  17.692   2.689
36597W        W 5015   1.771  11.257   3.259
36598W        W 5016   9.863  14.767   0.772
36599W        W 5017  28.489  29.647  13.472
36600W        W 5018   8.757  39.061  11.405
36601W        W 5019  21.686   2.895  13.540
36602W        W 5020  22.705  17.661  13.457
36603W        W 5021  42.974  14.122   9.628
36604W        W 5022   0.374  21.683  13.842
36605W        W 5023   7.741  17.780  11.948
36606W        W 5024  35.067  15.213  11.406
36607W        W 5025  11.327   4.367   1.374
36608W        W 5026   8.728  23.218  11.436
36609W        W 5027  39.999  29.602   0.251
36610W        W 5028  31.147   3.871   4.808
36611W        W 5029  17.122  38.920  11.081
36612W        W 5030  44.388  20.675   2.232
36613W        W 5031  43.894   6.804   1.254
36614W        W 5032  14.195  39.370   2.191
36615W        W 5033  19.617  15.241  13.910
36616W        W 5034  35.874  30.161  13.538
36617W        W 5035   0.474  35.396  12.972
36618W        W 5036  11.243   3.455  13.525
36619W        W 5037  21.255  22.660  13.401
36620W        W 5038   3.856  28.929  12.401
36621W        W 5039  35.500  21.219   9.972
36622W        W 5040   7.299  17.093  14.023
36623W        W 5041  44.399  19.695  12.424
36624W        W 5042  36.550  16.769   0.945
36625W        W 5043  30.059   3.776   1.916
36626W        W 5044  33.997  26.089  13.333
36627W        W 5045  18.762  38.425   1.407
36628W        W 5046  43.916  37.513  13.935
36629W        W 5047  44.782  20.576   1.930
36630W        W 5048  44.364  29.652  10.899
36631W        W 5049  11.756  21.078   3.222
36632W        W 5050  18.206   1.477  14.881
36633W        W 5051  22.611  39.831  14.798
36634W        W 5052  14.323  22.592  13.919
36635W        W 5053  29.602  22.165   4.249
36636W        W 5054  26.010   6.208   2.414
36637W        W 5055  26.072  44.886   4.787
36638W        W 5056  43.922  43.995   1.430
36639W        W 5057  29.631   4.434  13.874
36640W        W 5058   0.378  32.395   1.355
36641W        W 5059   0.445  39.042  11.528
36642W        W 5060  30.036  11.348   2.758
36643W        W 5061  14.740  17.296  12.889
36644W        W 5062  12.134  25.100  11.074
36645W        W 5063   1.832   1.419   1.743
36646W        W 5064   2.265  43.496  11.482
36647W        W 5065  32.126  24.620  11.469
36648W        W 5066   9.244  27.614  13.390
36649W        W 5067   7.253  27.627   2.895
36650W        W 5068  36.392  37.450  12.996
36651W        W 5069   6.260  36.422  12.511
36652W        W 5070   7.809  37.946   0.441
36653W        W 5071  25.622  18.242  10.564
36654W        W 5072   4.247  43.764  14.334
36655W        W 5073  34.070   7.722  13.973
36656W        W 5074  31.935  28.608  12.024
36657W        W 5075   5.747  12.716  13.397
36658W        W 5076  43.865   3.277  14.493
36659W        W 5077  23.209  36.917  11.580
36660W        W 5078  31.427  34.575  12.831
36661W        W 5079  15.771  44.462   5.233
36662W        W 5080   5.400   6.900  11.022
36663W        W 5081  26.698   7.183  12.354
36664W        W 5082  20.156  28.940  14.394
36665W        W 5083   8.238  15.624  10.576
36666W        W 5084  26.110  10.639  13.307
36667W        W 5085  28.504  37.832  12.342
36668W        W 5086  34.946  11.761  11.872
36669W        W 5087  28.122  11.794   1.766
36670W        W 5088  19.625  35.012   0.481
36671W        W 5089  42.482  33.007  13.040
36672W        W 5090  26.695  26.626   2.689
36673W        W 5091  43.365   5.228   0.829
36674W        W 5092  28.623  37.481  11.898
36675W        W 5093  36.440   0.912  13.498
36676W        W 5094  42.991  34.491   0.399
36677W        W 5095   3.284  23.713   1.707
36678W        W 5096   2.946   2.769   0.942
36679W        W 5097  40.371  14.323  10.054
36680W        W 5098  31.423  44.273  12.354
36681W        W 5099  15.156  34.027  12.986
36682W        W 5100   9.831  37.010   4.700
36683W        W 5101   2.950   8.796   2.312
36684W        W 5102   2.799   5.279  10.415
36685W        W 5103  19.542  41.357   1.439
36686W        W 5104   7.332  27.537   4.313
36687W        W 5105  32.573  40.870  10.964
36688W        W 5106  39.855  33.912  12.408
36689W        W 5107  36.999  42.304  13.862
36690W        W 5108  24.166   9.862  12.510
36691W        W 5109  42.974  32.464  13.515
36692W        W 5110  32.498  40.890   0.349
36693W        W 5111  34.418   9.230   2.413
36694W        W 5112  32.600  25.161  14.415
36695W        W 5113  12.290  17.119   1.822
36696W        W 5114  23.058   3.275   1.245
36697W        W 5115  14.591  18.235   1.257
36698W        W 5116  42.837   3.862  14.952
36699W        W 5117   9.780   6.292  14.030
36700W        W 5118   4.212  35.869  14.314
36701W        W 5119  32.054  32.554  13.505
36702W        W 5120   8.305  25.685  14.027
36703W        W 5121  13.705  25.508  14.020
36704W        W 5122  25.064  41.986  13.467
36705W        W 5123  28.169  34.524   3.712
36706W        W 5124  37.565  13.175   4.734
36707W        W 5125  40.342  19.750  13.456
36708W        W 5126   0.969  20.103   3.299
36709W        W 5127  21.544  15.118   0.323
36710W        W 5128  30.565   8.712   3.163
36711W        W 5129  13.825   6.225   2.857
36712W        W 5130  32.933  35.527   1.260
36713W        W 5131   3.353   2.835  13.419
36714W        W 5132  10.294  10.370   0.393
36715W        W 5133   8.899  23.064  10.406
36716W        W 5134  14.283  11.828   3.637
36717W        W 5135  25.022  13.325  13.315
36718W        W 5136  38.562  36.989  11.118
36719W        W 5137   4.893  26.965   0.358
36720W        W 5138  28.635   0.372  10.428
36721W        W 5139  21.525  15.603  12.434
36722W        W 5140  38.978   2.964  13.794
36723W        W 5141  13.182   4.899   0.399
36724W        W 5142  32.582  22.533  14.873
36725W        W 5143  38.023  32.084  14.031
36726W        W 5144   4.257  31.038   2.671
36727W        W 5145  37.015  13.162   2.787
36728W        W 5146  15.133  40.800   4.338
36729W        W 5147  37.415  27.501   0.346
36730W        W 5148  28.477   7.218  12.436
36731W        W 5149   3.303  36.084   2.392
36732W        W 5150   9.153  24.996  14.959
36733W        W 5151  10.223   6.859   1.715
36734W        W 5152   7.821  28.065  11.872
36735W        W 5153  36.372  21.697   1.846
36736W        W 5154  31.977  13.269   3.739
36737W        W 5155  20.658   2.328  12.497
36738W        W 5156  44.004  23.162  12.846
36739W        W 5157  10.747   9.324   0.442
36740W        W 5158  29.112   8.868   0.386
36741W        W 5159  27.519  23.014   2.223
36742W        W 5160  34.943  15.616   3.319
36743W        W 5161  27.043   3.308   3.660
36744W        W 5162  38.445  43.842   0.779
36745W        W 5163   8.323  31.470   1.362
36746W        W 5164  38.834   2.829   4.727
36747W        W 5165   2.357   2.900  11.863
36748W        W 5166  18.077   7.749  12.349
36749W        W 5167  28.935  14.591  14.017
36750W        W 5168  42.483  37.546   4.155
36751W        W 5169  36.406  10.847   4.787
36752W        W 5170  42.935  28.139   2.861
36753W        W 5171  33.554  42.373  12.026
36754W        W 5172  18.671  43.285   2.854
36755W        W 5173  41.443   2.759  14.456
36756W        W 5174   8.195  29.495  11.087
36757W        W 5175  12.651  28.154  14.300
36758W        W 5176   2.769   8.800  13.359
36759W        W 5177   2.855  38.908  14.321
36760W        W 5178   2.388  31.978  13.424
36761W        W 5179  12.640  14.237   3.353
36762W        W 5180   9.367  20.573  13.470
36763W        W 5181  11.711  43.340   0.857
36764W        W 5182  15.635  41.334   3.309
36765W        W 5183   8.209  31.624  10.523
36766W        W 5184   1.319  37.422  10.507
36767W        W 5185   5.206  44.434   1.213
36768W        W 5186  19.714   2.392   1.364
36769W        W 5187  40.438  14.237  12.984
36770W        W 5188  24.131  28.624   1.739
36771W        W 5189  32.539  15.731   1.799
36772W        W 5190   5.827  29.485   2.386
36773W        W 5191  14.318  36.041  13.847
36774W        W 5192  25.574  24.146  13.333
36775W        W 5193  37.051  13.755  14.878
36776W        W 5194  35.037  41.316  11.505
36777W        W 5195  12.641  31.987  12.007
36778W        W 5196  39.893  41.951  11.946
36779W        W 5197  24.165  15.149   0.800
36780W        W 5198  20.591  33.588   0.456
36781W        W 5199  15.245  25.188  14.794
36782W        W 5200  41.450   5.757   4.198
36783W        W 5201   5.439  32.949   0.252
36784W        W 5202  30.048  43.350   4.157
36785W        W 5203  40.810  24.553   1.708
36786W        W 5204  44.822   9.188   1.401
36787W        W 5205   6.216  38.381  10.545
36788W        W 5206  37.947  31.456  11.385
36789W        W 5207   4.871  18.070   0.274
36790W        W 5208  21.617  13.781  13.506
36791W        W 5209  17.291  16.796   4.731
36792W        W 5210  39.938  11.730  11.605
36793W        W 5211  11.844  34.913  14.913
36794W        W 5212   4.699   0.921   4.672
36795W        W 5213  34.013   2.249  12.027
36796W        W 5214   9.305  30.109   1.211
36797W        W 5215  23.048  32.905  11.088
36798W        W 5216  33.104   5.883   4.806
36799W        W 5217   5.421  33.113  14.783
36800W        W 5218  31.485  18.777   1.751
36801W        W 5219  36.854  25.701   4.321
36802W        W 5220  13.614  42.913   3.791
36803W        W 5221   7.307  39.987  10.480
36804W        W 5222  30.157  25.676  11.983
36805W        W 5223  23.188   0.856   2.702
36806W        W 5224   9.645  24.184  11.878
36807W        W 5225   4.941   4.862   0.778
36808W        W 5226  44.783  29.488  12.912
36809W        W 5227  34.445   4.788   1.282
36810W        W 5228  23.673   7.292   0.793
36811W        W 5229   4.876  41.489   4.654
36812W        W 5230  18.561  20.523  14.980
36813W        W 5231  38.958  41.851  14.336
36814W        W 5232  17.688   4.410  12.840
36815W        W 5233  39.862  31.453  11.459
36816W        W 5234   7.820  16.280   2.810
36817W        W 5235   6.308   3.376  10.610
36818W        W 5236  41.962  30.925  11.572
36819W        W 5237   2.786  18.664  13.904
36820W        W 5238  20.589  43.451  10.474
36821W        W 5239  13.291  27.520   1.231
36822W        W 5240  44.411  18.655   0.900
36823W        W 5241  12.679   3.729  10.421
36824W        W 5242  43.921  31.972   4.221
36825W        W 5243  18.589  21.748   2.746
36826W        W 5244  20.232  44.275  14.476
36827W        W 5245   4.762   2.461   4.749
36828W        W 5246  21.563  14.829  12.873
36829W        W 5247  42.508   3.899  11.891
36830W        W 5248  14.620   3.945   4.317
36831W        W 5249  10.248  42.421  14.388
36832W        W 5250   8.190  21.572   4.149
36833W        W 5251  24.670  26.586  11.066
36834W        W 5252  16.568  13.281  14.469
36835W        W 5253  33.559  39.846   1.310
36836W        W 5254  44.983  17.127   0.320
36837W        W 5255  37.436   2.835  13.864
36838W        W 5256  32.502  29.153  10.537
36839W        W 5257  20.175  10.220   1.398
36840W        W 5258  12.848  27.568  14.420
36841W        W 5259  28.115   0.887   0.341
36842W        W 5260  28.116  44.302  12.899
36843W        W 5261  24.050  25.108   2.285
36844W        W 5262  30.122  22.137   1.748
36845W        W 5263  21.239  31.922  13.413
36846W        W 5264  15.295  24.614  13.028
36847W        W 5265  35.060  22.594   3.379
36848W        W 5266  38.461  11.303  14.888
36849W        W 5267   8.180  13.317  12.858
36850W        W 5268  42.508  36.848   4.119
36851W        W 5269  12.644   2.384  10.593
36852W        W 5270  30.424  23.672  10.484
36853W        W 5271  12.344  39.054   0.331
36854W        W 5272  13.115  39.957  12.532
36855W        W 5273  10.296  17.214   0.366
36856W        W 5274  32.611  12.247   4.632
36857W        W 5275  22.151  35.059   1.859
36858W        W 5276  17.204  36.989  11.392
36859W        W 5277  23.005  17.662  13.943
36860W        W 5278  10.362   3.345   3.650
36861W        W 5279  12.663  18.191  13.853
36862W        W 5280   2.841  14.221   3.698
36863W        W 5281  12.766  28.554  11.953
36864W        W 5282   3.412  28.604   2.371
36865W        W 5283  16.665  25.968  14.302
36866W        W 5284  26.530  24.118  11.471
36867W        W 5285  27.954  26.093   3.677
36868W        W 5286  18.078  24.551   3.274
36869W        W 5287  24.098  28.680   4.831
36870W        W 5288  39.903  39.531  12.531
36871W        W 5289  23.051   6.906   2.229
36872W        W 5290  19.280  14.755  12.387
36873W        W 5291  12.220   8.326  13.821
36874W        W 5292  36.021  32.575   3.815
36875W        W 5293  10.676  28.094   3.717
36876W        W 5294  42.782   9.343   2.802
36877W        W 5295  14.145  14.102   0.457
36878W        W 5296  44.409   4.243   0.322
36879W        W 5297  32.432   8.671   3.311
36880W        W 5298  40.440  40.355  13.845
36881W        W 5299   9.351  34.120  10.887
36882W        W 5300  18.706  40.844  13.051
36883W        W 5301   4.250  14.800  13.424
36884W        W 5302  37.480  12.734  14.857
36885W        W 5303  29.444  34.465   1.796
36886W        W 5304  28.668  22.227  12.000
36887W        W 5305   1.238  38.028  11.461
36888W        W 5306  21.247  37.541  12.486
36889W        W 5307  21.710  28.102   2.219
36890W        W 5308  18.106  38.005   3.242
36891W        W 5309   1.749   0.756   2.704
36892W        W 5310  33.455  32.009   5.083
36893W        W 5311   4.240  39.550   4.330
36894W        W 5312   2.310   9.795   1.242
36895W        W 5313   9.322   2.939   1.791
36896W        W 5314   3.288  17.759   1.877
36897W        W 5315  15.766  10.872  12.042
36898W        W 5316  35.401  23.671   2.372
36899W        W 5317  31.104  31.495  10.942
36900W        W 5318   0.250   7.204  13.397
36901W        W 5319   3.338   1.399  12.985
36902W        W 5320   2.298  23.541  13.851
36903W        W 5321  19.062  35.463   4.679
36904W        W 5322   9.337  15.176  12.840
36905W        W 5323  27.510  12.268   3.301
36906W        W 5324  11.650  29.657  10.089
36907W        W 5325   4.802   2.424   2.800
36908W        W 5326  15.632  32.442  10.992
36909W        W 5327  31.068   2.898  10.540
36910W        W 5328   0.333  34.031  14.762
36911W        W 5329  29.438  38.043   4.274
36912W        W 5330  18.548  18.113  10.435
36913W        W 5331   9.813   5.708  13.855
36914W        W 5332  12.760  18.615  13.356
36915W        W 5333  21.184  33.465  12.373
36916W        W 5334  20.630  40.832   3.661
36917W        W 5335  19.696  25.634  11.442
36918W        W 5336  44.262  15.087   0.476
36919W        W 5337  42.835  21.650  13.510
36920W        W 5338  21.018   4.277  13.914
36921W        W 5339  41.340  44.478  11.386
36922W        W 5340  33.609   0.844  10.442
36923W        W 5341  30.419  19.686   2.358
36924W        W 5342  10.792  42.401  10.412
36925W        W 5343   2.396  44.900   0.454
36926W        W 5344  17.133  23.575  14.278
36927W        W 5345  13.778  16.566   1.904
36928W        W 5346  38.886  32.066  10.548
36929W        W 5347  22.244  36.526  14.305
36930W        W 5348  17.607   3.937  14.439
36931W        W 5349  24.149  40.381   0.752
36932W        W 5350  28.552  17.218  12.840
36933W        W 5351   2.729   5.229  12.049
36934W        W 5352  27.526  31.464   0.834
36935W        W 5353  32.956   1.741  11.885
36936W        W 5354  11.268  12.752  13.949
36937W        W 5355  11.303  28.477   2.339
36938W        W 5356   0.817  20.079   0.790
36939W        W 5357  27.942  40.961   4.302
36940W        W 5358  44.880   8.736   3.810
36941W        W 5359  44.905   2.456  10.439
36942W        W 5360   1.900  17.705   2.876
36943W        W 5361  24.571  16.735  11.893
36944W        W 5362   9.768  22.661  10.995
36945W        W 5363  23.062  27.544  12.853
36946W        W 5364  18.544  27.946   2.210
36947W        W 5365  34.608   9.878  14.354
36948W        W 5366  18.136  11.194  11.987
36949W        W 5367   1.956  27.476   1.314
36950W        W 5368  15.246  30.912  10.469
36951W        W 5369  21.019  35.529  10.943
36952W        W 5370  43.347   2.364  10.511
36953W        W 5371   6.422  14.766  11.446
36954W        W 5372  17.160  20.093   4.664
36955W        W 5373  41.494  16.634   0.878
36956W        W 5374  35.092  12.697  12.910
36957W        W 5375  28.169  26.495  11.573
36958W        W 5376  18.268  42.857   0.320
36959W        W 5377  35.398  17.598  13.392
36960W        W 5378  23.115  38.016   2.707
36961W        W 5379  27.480  19.603   2.779
36962W        W 5380  44.983   1.846  12.887
36963W        W 5381  30.499  25.682  10.586
36964W        W 5382   9.804  39.988  12.952
36965W        W 5383  40.354  38.854   9.976
36966W        W 5384  20.549   6.750   4.683
36967W        W 5385  33.426  28.585  13.433
36968W        W 5386   4.848  42.894  10.915
36969W        W 5387  13.216   9.166  12.092
36970W        W 5388  32.524   2.242  14.484
36971W        W 5389  22.060  24.098   5.142
36972W        W 5390  40.821  26.571   0.737
36973W        W 5391  41.317  41.810  13.448
36974W        W 5392   1.250  44.886   2.698
36975W        W 5393   5.794   4.869   3.258
36976W        W 5394   8.658  44.760   4.153
36977W        W 5395  19.699  31.929  14.494
36978W        W 5396  11.842   0.931   4.702
36979W        W 5397   4.416  29.546  13.495
36980W        W 5398   0.856  29.044  14.489
36981W        W 5399  10.784  22.085  13.818
36982W        W 5400  16.730  10.266  12.090
36983W        W 5401  38.821  28.101   2.314
36984W        W 5402   3.340  13.777   0.260
36985W        W 5403   8.368  14.272  13.462
36986W        W 5404  24.212  40.825   2.805
36987W        W 5405   7.780  28.475   0.379
36988W        W 5406  38.544  35.558  14.817
36989W        W 5407  30.099  19.553  14.345
36990W        W 5408  37.856  43.902   0.334
36991W        W 5409  13.207  32.583  14.358
36992W        W 5410   4.930  38.392   1.214
36993W        W 5411  42.416  31.028   4.794
36994W        W 5412   7.302  30.061  12.885
36995W        W 5413  16.310  31.124  13.354
36996W        W 5414  37.582  21.081   3.808
36997W        W 5415  28.960  19.672   3.632
36998W        W 5416   5.900  12.142  11.078
36999W        W 5417  21.669  20.131  12.471
37000W        W 5418   4.446   7.775  13.919
37001W        W 5419  38.350   4.337  12.478
37002W        W 5420  28.947  13.635   4.733
37003W        W 5421  13.656  39.940   0.477
37004W        W 5422  44.755  11.866  13.440
37005W        W 5423  40.854  23.125  11.075
37006W        W 5424  32.578  42.923   2.845
37007W        W 5425  40.937   8.821   1.305
37008W        W 5426   9.697   9.339  12.456
37009W        W 5427  30.985   5.212  10.618
37010W        W 5428  11.688  20.091   1.267
37011W        W 5429  22.676  29.603  10.404
37012W        W 5430  18.271   7.795   2.405
37013W        W 5431  39.526  14.675   4.651
37014W        W 5432  40.394  29.646   0.742
37015W        W 5433  30.483  36.865   3.301
37016W        W 5434   6.267  10.790  14.483
37017W        W 5435  32.634   8.669  11.476
37018W        W 5436  24.691  32.003  11.116
37019W        W 5437  43.774  10.672  11.976
37020W        W 5438  12.631   1.929   0.761
37021W        W 5439  32.573  27.562   2.270
37022W        W 5440  44.906  43.271   0.881
37023W        W 5441  32.501  26.156   4.788
37024W        W 5442  24.157  41.458   1.917
37025W        W 5443   7.412  34.604   3.315
37026W        W 5444  18.065   6.821   3.158
37027W        W 5445  18.638  10.710  12.441
37028W        W 5446  28.580  32.054  14.306
37029W        W 5447  32.409  12.816  14.932
37030W        W 5448   6.381  30.575  13.424
37031W        W 5449  19.095  41.980   3.204
37032W        W 5450  36.003  31.426  11.423
37033W        W 5451  30.011  27.638   3.777
37034W        W 5452  21.665   9.200   3.829
37035W        W 5453  13.253  19.227   2.225
37036W        W 5454  40.452   7.876  13.443
37037W        W 5455  14.779  19.697   3.174
37038W        W 5456  26.979  43.386   1.866
37039W        W 5457  14.123  15.300  11.460
37040W        W 5458  32.103  15.146   4.809
37041W        W 5459   7.396  21.227  13.006
37042W        W 5460  28.578  40.919   0.332
37043W        W 5461  18.656  33.489   0.445
37044W        W 5462  14.219  28.510  13.373
37045W        W 5463  12.784  38.872  11.961
37046W        W 5464  10.218  21.719  11.993
37047W        W 5465  14.244   5.830  12.045
37048W        W 5466  38.855  11.704   0.325
37049W        W 5467   1.817  24.620   2.733
37050W        W 5468  21.260   7.756   2.856
37051W        W 5469  16.683  38.380   1.839
37052W        W 5470   8.723  36.056  12.421
37053W        W 5471  38.448  43.327  12.877
37054W        W 5472  14.682  41.839   1.910
37055W        W 5473   8.172  35.404  11.545
37056W        W 5474  35.068  19.269  12.436
37057W        W 5475  41.524  43.431  12.012
37058W        W 5476  40.337  24.004  14.473
37059W        W 5477  30.461   6.332  13.952
37060W        W 5478  43.897  39.384  14.933
37061W        W 5479  15.728  12.614  12.067
37062W        W 5480  34.978  11.333  11.556
37063W        W 5481  36.922  23.616   3.637
37064W        W 5482  34.611  34.565  10.549
37065W        W 5483   4.787  36.479   2.398
37066W        W 5484  36.552   3.919  10.986
37067W        W 5485  17.655  42.995  14.812
37068W        W 5486  40.024   0.464   1.827
37069W        W 5487  36.976  18.787  11.969
37070W        W 5488  24.545  32.422   4.667
37071W        W 5489  42.926  44.410   1.238
37072W        W 5490  20.574   5.395   0.896
37073W        W 5491   2.388   7.745   1.353
37074W        W 5492  26.539  29.534   0.795
37075W        W 5493  28.497  19.046   0.411
37076W        W 5494  17.108  24.160  14.869
37077W        W 5495  15.600  30.125  10.960
37078W        W 5496  13.690  30.009   4.217
37079W        W 5497  21.051  33.484   5.162
37080W        W 5498   1.342  11.342   3.186
37081W        W 5499  15.822   8.224  10.497
37082W        W 5500  21.235  34.080   1.838
37083W        W 5501  42.508  20.646   1.428
37084W        W 5502   3.755  18.771   4.625
37085W        W 5503  42.802  28.138   1.341
37086W        W 5504  31.034  41.997  10.584
37087W        W 5505  39.933  23.990  12.075
37088W        W 5506  18.255  41.788   4.345
37089W        W 5507  28.472  37.938  14.431
37090W        W 5508  14.228  20.156   3.838
37091W        W 5509   4.327   6.375   0.739
37092W        W 5510  10.744  22.230   4.668
37093W        W 5511   1.419  41.908  12.847
37094W        W 5512  18.600  31.910  11.035
37095W        W 5513  33.486   1.282   1.700
37096W        W 5514  42.957  16.309  13.857
37097W        W 5515   5.687   8.860  14.446
37098W        W 5516  11.366  42.941   4.670
37099W        W 5517  23.134   8.185  14.488
37100W        W 5518  22.234  18.600   0.300
37101W        W 5519  20.074  38.055   4.183
37102W        W 5520   9.158  17.624   0.253
37103W        W 5521  19.547   6.227  12.339
37104W        W 5522  19.592  39.047  11.587
37105W        W 5523   3.934  16.143  10.577
37106W        W 5524  39.412  15.605  10.495
37107W        W 5525  40.930  39.323  12.951
37108W        W 5526  22.152  40.512  11.083
37109W        W 5527  31.060  12.228  14.430
37110W        W 5528  26.669  17.746  12.435
37111W        W 5529   8.660  35.552   0.309
37112W        W 5530   9.356  32.442   4.205
37113W        W 5531  24.528  38.483  11.386
37114W        W 5532  42.311  43.978   4.778
37115W        W 5533  22.565   1.374   2.318
37116W        W 5534  43.004  15.740   2.396
37117W        W 5535   2.406  27.104   3.643
37118W        W 5536   1.420  27.108   3.150
37119W        W 5537  40.400  27.503  14.876
37120W        W 5538  34.563  25.636   2.277
37121W        W 5539   4.330  39.399  10.644
37122W        W 5540  34.410  31.997   1.344
37123W        W 5541   2.793  15.314   3.367
37124W        W 5542  28.567  21.716  11.076
37125W        W 5543   6.873  27.548  14.474
37126W        W 5544  28.502   7.246  10.541
37127W        W 5545  38.009  33.440  11.452
37128W        W 5546  41.513  18.559   3.202
37129W        W 5547   1.471  24.508   0.373
37130W        W 5548   5.286  28.007   4.293
37131W        W 5549  24.498  33.096   0.388
37132W        W 5550  37.854  36.072  11.043
37133W        W 5551  36.401   5.389   2.752
37134W        W 5552  29.444  29.981  14.345
37135W        W 5553  32.108   7.346  10.448
37136W        W 5554  42.832   4.297   3.822
37137W        W 5555   1.247  43.341   3.783
37138W        W 5556   8.361  41.342  13.396
37139W        W 5557  11.842   7.900   1.855
37140W        W 5558  39.870   6.825  12.536
37141W        W 5559  12.359  21.130  13.956
37142W        W 5560  27.029  37.340  14.345
37143W        W 5561  29.174  20.767  13.848
37144W        W 5562  31.409  20.680  12.574
37145W        W 5563  33.939  21.547  11.599
37146W        W 5564  14.314  11.857  11.420
37147W        W 5565  11.783  42.870  14.453
37148W        W 5566   0.773  15.635  11.448
37149W        W 5567  23.645  32.945   4.312
37150W        W 5568  26.570  39.906  12.377
37151W        W 5569  26.201   6.277   4.227
37152W        W 5570  35.881  11.820  12.829
37153W        W 5571  14.296  31.410  14.831
37154W        W 5572  11.781  32.465   2.824
37155W        W 5573  39.536  34.483   0.763
37156W        W 5574  14.222  28.651   2.879
37157W        W 5575  31.410   9.324   1.358
37158W        W 5576   9.867  21.207  11.026
37159W        W 5577  28.148  34.021   2.804
37160W        W 5578  43.381  12.779   2.754
37161W        W 5579  23.705  35.550  13.918
37162W        W 5580  26.463  22.691  11.443
37163W        W 5581   0.808  23.719   2.371
37164W        W 5582   5.781  15.817  11.531
37165W        W 5583  25.660  37.048  11.083
37166W        W 5584  17.119  33.898  12.392
37167W        W 5585  17.116  16.266  10.932
37168W        W 5586  15.584  21.580  12.967
37169W        W 5587  44.769  43.432  12.019
37170W        W 5588  34.607  32.626   0.479
37171W        W 5589   7.893   8.220  12.477
37172W        W 5590  18.548  13.312   4.787
37173W        W 5591   0.809  31.459  14.777
37174W        W 5592  27.078   1.435   2.871
37175W        W 5593  39.497   5.829   4.783
37176W        W 5594  42.812  28.957  11.544
37177W        W 5595  12.211  16.088  10.958
37178W        W 5596   3.753  42.843  11.524
37179W        W 5597  39.342  40.535   1.754
37180W        W 5598  28.485   9.800  12.825
37181W        W 5599  16.805  15.698   2.811
37182W        W 5600  13.230  36.037  11.961
37183W        W 5601  31.019   5.380   1.335
37184W        W 5602  13.249   6.412   4.307
37185W        W 5603  26.681  11.320   3.250
37186W        W 5604  44.405  20.702  13.471
37187W        W 5605  33.423  43.507   2.849
37188W        W 5606  12.696  35.562  13.479
37189W        W 5607   8.772  29.120   4.329
37190W        W 5608  24.001   8.258  11.579
37191W        W 5609  29.587  20.568  12.565
37192W        W 5610   5.294  17.598  13.814
37193W        W 5611  14.254  36.526   4.301
37194W        W 5612  20.694  22.656   2.182
37195W        W 5613  35.863  43.339  14.961
37196W        W 5614  33.943  12.623   0.479
37197W        W 5615  26.497  33.501  14.378
37198W        W 5616  24.065  25.988  12.461
37199W        W 5617  21.108  26.506  11.380
37200W        W 5618  41.506  28.477   1.444
37201W        W 5619  32.567  44.881   0.792
37202W        W 5620   0.818   3.384   2.845
37203W        W 5621  23.699  31.492   1.777
37204W        W 5622  33.973  27.009   4.118
37205W        W 5623   3.854  19.133  11.966
37206W        W 5624  26.168  18.135  13.049
37207W        W 5625   9.162  28.621   4.337
37208W        W 5626  20.195  30.983  13.839
37209W        W 5627  44.375  33.946  14.866
37210W        W 5628  30.088   5.827   1.890
37211W        W 5629  38.981   7.397  12.423
37212W        W 5630  18.287  31.460   1.244
37213W        W 5631  21.755  30.925  11.090
37214W        W 5632  10.216  23.634  14.374
37215W        W 5633  38.829  34.936  14.444
37216W        W 5634   3.825  44.001   3.366
37217W        W 5635  21.638  43.008  13.348
37218W        W 5636  39.054   2.922  11.031
37219W        W 5637  44.912  10.381  12.542
37220W        W 5638  26.636   6.196   4.305
37221W        W 5639   9.799  10.649   2.795
37222W        W 5640  21.041  20.708  11.609
37223W        W 5641  44.999  28.156   3.232
37224W        W 5642  10.279  20.171   1.749
37225W        W 5643  19.100   8.381   1.226
37226W        W 5644  38.940   4.936   0.858
37227W        W 5645  18.210  40.947   3.266
37228W        W 5646  40.818  41.443   1.892
37229W        W 5647   8.861  26.124  11.443
37230W        W 5648  40.441  17.297   2.265
37231W        W 5649  22.509  33.115  13.040
37232W        W 5650   2.803  26.468   3.271
37233W        W 5651  40.510  34.051  10.578
37234W        W 5652   8.281  30.470   0.746
37235W        W 5653  27.024  19.559  11.002
37236W        W 5654  24.609  13.345  11.515
37237W        W 5655  10.303   6.705   0.277
37238W        W 5656  14.321   1.409   3.851
37239W        W 5657  14.686  21.073   3.354
37240W        W 5658   9.233  43.910   3.279
37241W        W 5659  12.664  14.609  12.064
37242W        W 5660  25.582  13.165   2.274
37243W        W 5661  33.620  15.777   5.131
37244W        W 5662  25.179   3.282   1.841
37245W        W 5663  42.899  39.903  10.585
37246W        W 5664  26.564  44.945   0.369
37247W        W 5665  21.112  44.971   4.747
37248W        W 5666  41.886  35.422  12.515
37249W        W 5667  11.174  32.041   4.231
37250W        W 5668  18.545  13.794   0.329
37251W        W 5669  13.746  33.003  13.517
37252W        W 5670   6.749   4.870   1.789
37253W        W 5671  21.531  22.174   3.864
37254W        W 5672  14.760  11.347   4.801
37255W        W 5673  42.818   8.756   2.698
37256W        W 5674   4.246  17.235   1.836
37257W        W 5675  20.576   7.186  12.566
37258W        W 5676  35.046  22.648   2.729
37259W        W 5677  25.183   7.748  10.474
37260W        W 5678  23.207  15.298  14.961
37261W        W 5679  30.041  17.747   3.788
37262W        W 5680   7.724  43.853   4.765
37263W        W 5681   3.448   9.789   2.388
37264W        W 5682   2.724  28.602  13.523
37265W        W 5683  34.965  12.312  12.368
37266W        W 5684  34.068  14.786   2.893
37267W        W 5685   1.294  28.080  14.791
37268W        W 5686  19.242  14.128  12.836
37269W        W 5687  30.619  40.318  11.921
37270W        W 5688  42.495   4.355  13.812
37271W        W 5689  32.601  11.164  11.523
37272W        W 5690  16.277  36.997  10.525
37273W        W 5691  40.889   9.185  14.354
37274W        W 5692  36.491  10.203   4.775
37275W        W 5693  20.251  27.638  14.973
37276W        W 5694   5.795  11.661  13.314
37277W        W 5695  35.034   8.201   2.236
37278W        W 5696  31.954  34.902   2.245
37279W        W 5697  20.646  25.523  12.054
37280W        W 5698   6.773  42.515  13.465
37281W        W 5699  11.285   2.439   4.178
37282W        W 5700   4.282  44.478  10.914
37283W        W 5701  27.104  32.003  10.516
37284W        W 5702  32.096   4.444  10.486
37285W        W 5703  22.084   0.304  11.033
37286W        W 5704  20.650  40.870   1.353
37287W        W 5705  15.738   6.423   2.391
37288W        W 5706  27.966  43.469   0.737
37289W        W 5707  33.559  16.226   1.931
37290W        W 5708  23.566  14.825   1.402
37291W        W 5709  20.213  28.019   2.721
37292W        W 5710  26.512  37.435  12.523
37293W        W 5711  31.483  14.757   2.877
37294W        W 5712   6.230  40.971   3.355
37295W        W 5713   3.883  22.534   3.302
37296W        W 5714  24.504  10.836   4.117
37297W        W 5715  16.693  17.764  14.348
37298W        W 5716  37.514  21.607   0.313
37299W        W 5717  34.055  42.921   1.719
37300W        W 5718  29.517  28.504   2.847
37301W        W 5719  10.736  24.049   3.666
37302W        W 5720   3.873  14.833   2.263
37303W        W 5721  30.125   2.249   0.354
37304W        W 5722  14.701  23.562  14.851
37305W        W 5723  18.544  29.511   2.305
37306W        W 5724  36.991  10.243   3.634
37307W        W 5725  39.331  39.529  13.453
37308W        W 5726  42.420   7.341   3.342
37309W        W 5727  17.218  13.347   9.579
37310W        W 5728   5.797   9.783   3.704
37311W        W 5729  12.636  28.623  12.528
37312W        W 5730   2.357  40.355   1.842
37313W        W 5731  44.313   7.298   4.819
37314W        W 5732  44.941  10.741   4.699
37315W        W 5733  26.984  38.324   0.736
37316W        W 5734  33.445  40.007   5.177
37317W        W 5735  12.846  11.668   0.787
37318W        W 5736  44.331  26.516   0.863
37319W        W 5737   9.662  39.378  12.014
37320W        W 5738  31.526  23.553  11.026
37321W        W 5739   4.875   9.654   3.198
37322W        W 5740  34.425  19.084   0.334
37323W        W 5741  36.022  38.020   4.275
37324W        W 5742  39.971  15.800  13.428
37325W        W 5743  31.589  35.520   1.746
37326W        W 5744  27.097   2.384   3.306
37327W        W 5745  14.224  18.691  11.011
37328W        W 5746  32.989  20.639   2.811
37329W        W 5747  12.696  42.819   1.349
37330W        W 5748  30.652   7.869   0.846
37331W        W 5749  35.058   5.817   1.797
37332W        W 5750  10.660  13.612   2.901
37333W        W 5751   5.726   5.777   2.685
37334W        W 5752   5.887  39.463   1.931
37335W        W 5753  40.900  30.088   3.849
37336W        W 5754  13.278  11.760   0.437
37337W        W 5755  20.567  14.759   3.659
37338W        W 5756  42.835  28.016  11.565
37339W        W 5757  18.099  41.458  14.437
37340W        W 5758  36.428  24.692   2.243
37341W        W 5759  33.494   0.892   1.316
37342W        W 5760  24.619  17.718  13.913
37343W        W 5761  29.123  13.328   3.343
37344W        W 5762  34.391  41.804   2.777
37345W        W 5763   5.328  25.510  14.333
37346W        W 5764  42.887  38.358  10.092
37347W        W 5765  25.001  42.807  10.065
37348W        W 5766  37.854   2.782   3.254
37349W        W 5767  28.609  43.358   4.713
37350W        W 5768  39.041  43.321   0.442
37351W        W 5769  42.873  36.960  11.604
37352W        W 5770   1.454   6.222   2.417
37353W        W 5771  43.990  23.144  14.501
37354W        W 5772  34.894  24.190   1.234
37355W        W 5773  32.443  31.930  11.988
37356W        W 5774  30.452   0.291  10.986
37357W        W 5775  11.860  35.052  10.006
37358W        W 5776  30.000   5.809   0.778
37359W        W 5777  11.798  34.963   2.383
37360W        W 5778  37.398  28.958  11.968
37361W        W 5779  37.522  24.656  14.477
37362W        W 5780  35.002  32.413  14.463
37363W        W 5781  26.640  33.564  11.888
37364W        W 5782   0.473  13.190   3.301
37365W        W 5783  24.564   2.884   3.213
37366W        W 5784   0.914  21.036   4.145
37367W        W 5785  30.442   4.814  13.849
37368W        W 5786  17.636  23.090  14.514
37369W        W 5787  22.586  26.186  13.407
37370W        W 5788  22.537  25.012  11.514
37371W        W 5789  40.018  36.987   4.696
37372W        W 5790  41.395  32.899  14.482
37373W        W 5791  24.704   3.450  13.535
37374W        W 5792  15.197   8.285  14.818
37375W        W 5793  11.224  19.724  13.369
37376W        W 5794  34.954  26.533   2.356
37377W        W 5795  37.365   0.804   2.775
37378W        W 5796  29.582  10.188   1.916
37379W        W 5797  27.112  13.234  11.912
37380W        W 5798  28.027   1.312   3.712
37381W        W 5799   3.735  30.417   3.299
37382W        W 5800  21.680  20.613   4.699
37383W        W 5801  27.059  39.548  10.563
37384W        W 5802  33.448  37.846  14.432
37385W        W 5803  25.496  21.024  11.002
37386W        W 5804  37.877  33.022   1.310
37387W        W 5805  32.129  43.992   1.863
37388W        W 5806  21.696  34.524   1.714
37389W        W 5807  25.202   1.403   0.291
37390W        W 5808  32.556  16.602   1.269
37391W        W 5809  32.916  33.518   0.311
37392W        W 5810   3.899  16.612  11.883
37393W        W 5811   2.354  29.524  14.904
37394W        W 5812  27.104  33.042   2.834
37395W        W 5813  44.304  44.376  13.822
37396W        W 5814  10.744  26.645   4.156
37397W        W 5815  15.101  35.598  13.955
37398W        W 5816  28.993  40.320   4.319
37399W        W 5817  43.446  40.988   0.966
37400W        W 5818  13.184  43.916   4.178
37401W        W 5819  11.272  38.036   2.687
37402W        W 5820   4.842   1.424   3.329
37403W        W 5821  11.211  40.806  10.581
37404W        W 5822  24.637  12.783  10.448
37405W        W 5823  18.148   8.866   3.753
37406W        W 5824  10.321  41.368   2.361
37407W        W 5825  16.115  39.019   0.321
37408W        W 5826  41.827  33.920  10.441
37409W        W 5827  21.023  25.603   2.373
37410W        W 5828  43.373  12.717  14.763
37411W        W 5829  22.657  36.467   3.147
37412W        W 5830  25.142  15.255   2.801
37413W        W 5831  14.628  38.445   0.870
37414W        W 5832   7.704   6.199   0.312
37415W        W 5833  40.902  10.719  12.875
37416W        W 5834  20.745  17.290   4.302
37417W        W 5835  12.343  11.805   3.151
37418W        W 5836  33.061  21.639  10.416
37419W        W 5837  41.472  38.941   2.182
37420W        W 5838  40.891  16.752   0.403
37421W        W 5839   2.376  11.798  13.450
37422W        W 5840  37.508  35.970   4.188
37423W        W 5841  11.697  35.443  11.549
37424W        W 5842  35.027   6.680  13.510
37425W        W 5843   5.897  18.057   2.765
37426W        W 5844  28.135  11.852   2.370
37427W        W 5845  27.987  11.202   3.745
37428W        W 5846   7.353  27.590   0.415
37429W        W 5847  26.971   9.208   5.161
37430W        W 5848  17.241  11.218  12.926
37431W        W 5849  32.510  44.463  12.484
37432W        W 5850  16.073  18.296   4.296
37433W        W 5851  32.592  14.708  10.588
37434W        W 5852   2.392   7.366   1.275
37435W        W 5853  29.946  30.120   3.379
37436W        W 5854  16.312   5.363   3.732
37437W        W 5855   7.290  26.188  14.008
37438W        W 5856  41.307  40.321  14.764
37439W        W 5857  34.075  12.734  13.970
37440W        W 5858   6.697   4.942  14.852
37441W        W 5859   5.857  14.816  12.951
37442W        W 5860  29.534  12.789   0.364
37443W        W 5861  38.412  22.212  14.022
37444W        W 5862  38.886  20.198  10.915
37445W        W 5863  34.927   4.324   1.904
37446W        W 5864   4.403   4.798  12.015
37447W        W 5865  22.049  27.587   1.914
37448W        W 5866  44.281  20.662  11.909
37449W        W 5867  27.609  26.144   4.766
37450W        W 5868  31.480  12.735   3.229
37451W        W 5869  26.550  14.740  14.962
37452W        W 5870   3.859  14.233   5.104
37453W        W 5871  25.126  32.028  14.944
37454W        W 5872  30.996  18.281   4.260
37455W        W 5873   0.845  28.007   0.374
37456W        W 5874  31.017  33.452  12.573
37457W        W 5875  37.959  33.461  13.407
37458W        W 5876  35.011  28.582  14.892
37459W        W 5877   2.334   8.676   5.286
37460W        W 5878  44.789  16.590   0.323
37461W        W 5879  23.506  21.262  10.579
37462W        W 5880  11.783   4.359   0.863
37463W        W 5881   8.318  19.214  11.926
37464W        W 5882  13.124  30.954   2.194
37465W        W 5883  29.953  12.713  10.522
37466W        W 5884  34.462  10.681   4.267
37467W        W 5885  16.681  12.795   5.148
37468W        W 5886   5.834   5.701  11.942
37469W        W 5887  38.042  38.546  10.468
37470W        W 5888  23.575  14.812  10.633
37471W        W 5889  34.488  12.665   0.389
37472W        W 5890   7.175  21.603   2.674
37473W        W 5891  16.794  24.616  12.477
37474W        W 5892  38.477  31.418   2.715
37475W        W 5893  16.796   6.244   1.758
37476W        W 5894  13.840   6.382  11.927
37477W        W 5895  36.544  28.078   2.388
37478W        W 5896  28.168  17.113  12.389
37479W        W 5897   0.395  36.026   4.329
37480W        W 5898   4.335  40.955   3.185
37481W        W 5899  11.622   2.852  10.450
37482W        W 5900  43.443  21.197  11.074
37483W        W 5901  41.902  38.869   0.316
37484W        W 5902   3.890   5.300   2.821
37485W        W 5903  30.957   7.831  11.374
37486W        W 5904  12.237  16.781   2.393
37487W        W 5905  28.104  34.469  11.422
37488W        W 5906  38.387  36.489  11.499
37489W        W 5907  38.465  16.099   3.673
37490W        W 5908   2.958   7.744   2.311
37491W        W 5909  40.911  18.575  13.960
37492W        W 5910  23.731   4.939  11.868
37493W        W 5911   2.357  17.090   3.206
37494W        W 5912  44.796  42.376   1.403
37495W        W 5913  25.670  37.039   4.725
37496W        W 5914  13.232   3.727   2.776
37497W        W 5915  20.718   9.388  13.415
37498W        W 5916  33.459  34.867   1.752
37499W        W 5917  35.036  24.709  10.967
37500W        W 5918  12.180  17.740   1.760
37501W        W 5919  32.577   8.884  14.502
37502W        W 5920  33.472   4.865   9.946
37503W        W 5921  32.937  40.970  11.545
37504W        W 5922  30.947  39.313   3.659
37505W        W 5923   6.840  32.634   2.374
37506W        W 5924  25.198  12.135  13.511
37507W        W 5925  12.319  10.755  10.933
37508W        W 5926  12.804   7.900   0.951
37509W        W 5927  38.944  25.695  11.599
37510W        W 5928   0.748  10.877   4.740
37511W        W 5929   5.363  29.435   1.735
37512W        W 5930   0.796  18.770   1.276
37513W        W 5931  14.654  29.660   1.811
37514W        W 5932  26.133  14.819  10.957
37515W        W 5933   3.338  21.017  13.846
37516W        W 5934   1.892   0.432   0.783
37517W        W 5935  38.404  25.009   2.371
37518W        W 5936   7.755  20.234   2.333
37519W        W 5937  13.704  24.599   0.908
37520W        W 5938  36.924   3.357   0.843
37521W        W 5939  33.910   7.876   1.893
37522W        W 5940  43.330   0.840  13.944
37523W        W 5941  44.500  19.257  13.957
37524W        W 5942  12.183  22.113   0.845
37525W        W 5943  40.004  35.539   4.790
37526W        W 5944  28.155   2.781  12.058
37527W        W 5945   4.312   8.823   4.759
37528W        W 5946  17.136   9.290  10.415
37529W        W 5947  44.330   0.469   3.859
37530W        W 5948   5.267  33.437  10.610
37531W        W 5949   0.452  16.700  13.927
37532W        W 5950  30.514  41.904   5.166
37533W        W 5951  15.604  10.865   4.685
37534W        W 5952  17.273  43.392   4.149
37535W        W 5953   8.899  26.674  14.781
37536W        W 5954  24.006  43.469  14.802
37537W        W 5955  27.595  28.080  11.394
37538W        W 5956  26.576  42.430   0.853
37539W        W 5957  12.813  31.147  13.921
37540W        W 5958  31.960  25.696   0.733
37541W        W 5959  31.012   4.325  14.463
37542W        W 5960  29.472  14.242  10.051
37543W        W 5961  18.177   4.847  12.953
37544W        W 5962  12.725  19.209   1.358
37545W        W 5963  21.715  12.242  10.915
37546W        W 5964  29.590  32.049   5.272
37547W        W 5965  17.155  37.902  11.122
37548W        W 5966  28.653  38.963  14.344
37549W        W 5967  10.163   0.347  10.496
37550W        W 5968  21.163  20.588   1.227
37551W        W 5969   8.291  26.663  12.416
37552W        W 5970  19.285  29.000  10.549
37553W        W 5971  36.039  17.564  11.482
37554W        W 5972  35.459  38.447   3.257
37555W        W 5973  38.934  22.096  10.506
37556W        W 5974  41.859  38.994  11.061
37557W        W 5975  44.282  32.482  14.883
37558W        W 5976  14.776  44.375   3.245
37559W        W 5977   3.955  20.744  12.566
37560W        W 5978  33.441  44.998  12.376
37561W        W 5979   0.969  26.107   2.203
37562W        W 5980  44.278  22.232   5.625
37563W        W 5981  27.681  12.848   1.875
37564W        W 5982  31.535   1.277   2.685
37565W        W 5983  25.494   4.893   0.859
37566W        W 5984   6.326  10.709  10.504
37567W        W 5985  16.727  10.874  11.974
37568W        W 5986  18.162  24.072  13.952
37569W        W 5987  28.183  33.942   1.865
37570W        W 5988  29.441  18.635   0.426
37571W        W 5989  33.504  25.988   3.172
37572W        W 5990  10.803   3.796  14.326
37573W        W 5991  25.508  36.020  13.885
37574W        W 5992   6.824   0.937  13.957
37575W        W 5993  43.448  32.575  14.484
37576W        W 5994  20.667  15.271  10.573
37577W        W 5995  44.427  38.456   1.354
37578W        W 5996  12.734  37.024  11.448
37579W        W 5997  24.059  10.762  13.343
37580W        W 5998  44.851  19.695   1.899
37581W        W 5999  28.991  38.926  14.420
37582W        W 6000  36.034   5.420  13.976
37583W        W 6001   7.869  11.795  14.339
37584W        W 6002   8.379  22.197  14.930
37585W        W 6003  42.400   3.283  10.595
37586W        W 6004  35.555  40.845  10.553
37587W        W 6005  21.209  33.893   0.331
37588W        W 6006   6.683  40.354  11.520
37589W        W 6007  21.144  31.462  12.981
37590W        W 6008  37.861   0.324  14.897
37591W        W 6009  39.995  23.558  11.452
37592W        W 6010  27.148   1.878  11.413
37593W        W 6011  29.121  36.078   1.856
37594W        W 6012  29.619  25.089  13.866
37595W        W 6013  38.906  25.198   1.286
37596W        W 6014   8.797  40.434   0.442
37597W        W 6015  41.040   5.753   4.732
37598W        W 6016   2.423  35.491   1.921
37599W        W 6017  40.477  21.123  11.410
37600W        W 6018  26.615   3.850  13.322
37601W        W 6019  23.179  40.317   4.348
37602W        W 6020  18.144  27.028   3.211
37603W        W 6021  43.903  37.854  13.823
37604W        W 6022  35.005  20.110  14.835
37605W        W 6023  14.786   1.829  10.018
37606W        W 6024   5.703  27.187   1.934
37607W        W 6025  27.602  12.734   3.657
37608W        W 6026  37.911  11.247   1.326
37609W        W 6027  18.124  38.464  13.430
37610W        W 6028  20.709  27.453  10.463
37611W        W 6029  29.171  12.331  14.376
37612W        W 6030  15.690  43.469   4.159
37613W        W 6031  42.358  44.383  13.934
37614W        W 6032  32.420  44.779   2.388
37615W        W 6033  13.319  16.151   3.804
37616W        W 6034  32.576  38.432  11.489
37617W        W 6035  40.435  10.752   0.415
37618W        W 6036  44.459  30.554  13.373
37619W        W 6037  21.666  14.214  13.435
37620W        W 6038  29.169  27.107  12.496
37621W        W 6039  38.052  40.431  13.828
37622W        W 6040  20.220  16.604   3.688
37623W        W 6041  14.177  23.177   0.346
37624W        W 6042  11.358  21.576  12.510
37625W        W 6043  38.904  25.034  14.284
37626W        W 6044  36.522   4.256   0.965
37627W        W 6045   6.797  20.207  14.486
37628W        W 6046  15.093  43.820   4.684
37629W        W 6047  36.077  34.378  14.793
37630W        W 6048  27.080   6.830   5.688
37631W        W 6049  26.547  21.573  11.052
37632W        W 6050  25.615  33.380  11.557
37633W        W 6051   3.326  20.643   3.775
37634W        W 6052  21.059  36.351   0.825
37635W        W 6053  30.153  18.787  14.380
37636W        W 6054  26.611  34.035   3.817
37637W        W 6055  41.411  33.509  13.793
37638W        W 6056  17.556  44.951  12.528
37639W        W 6057  24.102  41.491   0.954
37640W        W 6058   1.336  31.624   2.687
37641W        W 6059   4.841   8.162   1.744
37642W        W 6060   3.279  35.867   4.637
37643W        W 6061  24.205  22.515  14.359
37644W        W 6062  12.815  40.865  11.862
37645W        W 6063  44.895   6.891  10.468
37646W        W 6064  17.635  18.564   2.692
37647W        W 6065  34.606  43.393   4.295
37648W        W 6066  16.135  27.170  11.982
37649W        W 6067  22.045  41.519  12.832
37650W        W 6068  14.754  35.372  13.535
37651W        W 6069  27.991   7.368  13.537
37652W        W 6070  37.418  35.994   0.949
37653W        W 6071  43.422  44.764  12.048
37654W        W 6072  32.498  26.001  13.517
37655W        W 6073  44.804  41.434   1.774
37656W        W 6074  25.130  37.427  10.933
37657W        W 6075  17.637  15.604   0.253
37658W        W 6076  17.120  42.777  12.023
37659W        W 6077  43.401  32.589   1.329
37660W        W 6078   1.902  15.676   4.769
37661W        W 6079  37.919   6.386  13.973
37662W        W 6080  22.197   6.421  11.975
37663W        W 6081  27.588  28.661   2.280
37664W        W 6082   0.461  16.204   0.897
37665W        W 6083  19.586  30.068  11.945
37666W        W 6084  20.109   0.795   4.683
37667W        W 6085  34.952   9.351   4.625
37668W        W 6086  21.220  17.167  14.323
37669W        W 6087  23.079   7.301   1.889
37670W        W 6088  38.885  43.285   0.813
37671W        W 6089   8.878  16.245  14.891
37672W        W 6090  37.346  40.435   1.394
37673W        W 6091  26.593  14.240  12.085
37674W        W 6092  10.165  26.487  11.513
37675W        W 6093  19.073  18.196   1.443
37676W        W 6094   4.737  34.468   5.207
37677W        W 6095  12.302  33.108   1.451
37678W        W 6096  40.852   7.671   2.700
37679W        W 6097  29.069  19.104   4.732
37680W        W 6098  20.087  12.775  14.860
37681W        W 6099  11.354  40.538  13.444
37682W        W 6100  43.910  22.503  10.562
37683W        W 6101   4.939  38.325   3.732
37684W        W 6102  18.577  11.209  12.949
37685W        W 6103  23.689  22.745  12.475
37686W        W 6104  29.630  16.642  10.611
37687W        W 6105  12.266  13.126  11.542
37688W        W 6106  21.107  27.143  10.990
37689W        W 6107  12.805  14.273  14.387
37690W        W 6108   5.205   0.912   0.464
37691W        W 6109  42.000  20.639  11.003
37692W        W 6110  42.968  11.707   3.655
37693W        W 6111  24.517  37.918   4.764
37694W        W 6112  41.825  37.452   4.820
37695W        W 6113  15.092  27.609   2.341
37696W        W 6114  32.421  10.835   0.329
37697W        W 6115  28.113  33.435  12.005
37698W        W 6116  40.877  25.653  10.589
37699W        W 6117  12.645  16.587   3.664
37700W        W 6118  40.477  11.851   2.180
37701W        W 6119  30.164  30.141   0.800
37702W        W 6120  19.156  10.670   4.333
37703W        W 6121   8.365  23.559  11.504
37704W        W 6122   5.763  34.967  14.942
37705W        W 6123  16.160  38.567   2.711
37706W        W 6124  37.027  42.781   2.396
37707W        W 6125  32.419  24.549  13.441
37708W        W 6126  23.512   9.262  13.441
37709W        W 6127   9.836  42.365  11.055
37710W        W 6128  11.810  36.383   1.704
37711W        W 6129  17.197  28.156   3.693
37712W        W 6130  16.583  10.783  13.949
37713W        W 6131  41.460  33.483  14.497
37714W        W 6132   7.216  41.963   2.789
37715W        W 6133  24.675  43.007   2.212
37716W        W 6134  13.263  26.514  11.973
37717W        W 6135  19.685   7.401  13.376
37718W        W 6136  20.536  29.010  10.531
37719W        W 6137  22.701  12.242   0.921
37720W        W 6138  37.040  30.484   2.331
37721W        W 6139  21.208  33.042   0.937
37722W        W 6140  37.357  30.922  10.935
37723W        W 6141  20.754  12.820  12.018
37724W        W 6142  22.635  11.177  12.415
37725W        W 6143  16.249   7.830  12.863
37726W        W 6144   4.823  15.198   0.292
37727W        W 6145  13.605  37.967  12.845
37728W        W 6146  14.138   8.796  14.293
37729W        W 6147  39.873  16.811  14.029
37730W        W 6148  20.732  43.818   4.838
37731W        W 6149  43.305   5.834   4.652
37732W        W 6150  30.951  23.643  13.337
37733W        W 6151  36.992  39.323   1.269
37734W        W 6152  14.113   0.797  12.928
37735W        W 6153  16.223  40.430  13.990
37736W        W 6154  10.167   6.400   1.255
37737W        W 6155  33.440  40.023  14.989
37738W        W 6156  27.495  32.896  10.615
37739W        W 6157  24.016   7.874  13.455
37740W        W 6158   9.305  36.030  10.559
37741W        W 6159   9.299   3.442  14.433
37742W        W 6160   9.298  11.294  13.479
37743W        W 6161  24.707   2.451  13.476
37744W        W 6162  42.982   2.447   3.367
37745W        W 6163   3.410  29.620  13.472
37746W        W 6164   5.380  12.758  14.328
37747W        W 6165  37.525  16.677  13.829
37748W        W 6166  11.786   5.291  13.403
37749W        W 6167  22.061  22.079  10.453
37750W        W 6168  41.404  42.442  13.406
37751W        W 6169  41.935  21.141  14.299
37752W        W 6170  35.430  34.020  12.570
37753W        W 6171  43.349   1.967  14.851
37754W        W 6172  34.379  25.546  11.979
37755W        W 6173   6.245  15.251  13.921
37756W        W 6174   0.961  26.099   1.299
37757W        W 6175  11.320  26.042  13.047
37758W        W 6176  36.071  37.536  11.468
37759W        W 6177  26.132  20.150   4.683
37760W        W 6178  41.867   6.348  13.319
37761W        W 6179  13.348  41.906   2.347
37762W        W 6180  32.578  36.076   4.142
37763W        W 6181  25.505   4.741   3.372
37764W        W 6182  22.714   4.907  13.881
37765W        W 6183   7.681  37.473   2.301
37766W        W 6184  30.427  22.615  12.557
37767W        W 6185  25.679  35.570  14.501
37768W        W 6186   0.836  21.120   2.825
37769W        W 6187   9.849  10.793   1.839
37770W        W 6188   3.218  42.944  11.021
37771W        W 6189  35.436   9.178   3.282
37772W        W 6190  16.623  19.192  11.479
37773W        W 6191   4.306  21.258  12.415
37774W        W 6192  27.467  35.430  14.973
37775W        W 6193  21.675  27.003   3.721
37776W        W 6194  37.378  12.343   2.285
37777W        W 6195  41.893  31.031   3.716
37778W        W 6196   9.290  17.714   4.165
37779W        W 6197  13.319  38.074  11.079
37780W        W 6198  19.155  44.760  12.089
37781W        W 6199   4.894  20.174  12.040
37782W        W 6200  41.447  21.261  10.980
37783W        W 6201  36.445  30.421   0.305
37784W        W 6202  12.324  22.652  12.927
37785W        W 6203   8.357  17.743   1.274
37786W        W 6204   5.742  20.753   0.833
37787W        W 6205  30.449   4.865   2.879
37788W        W 6206   2.823  17.194  14.010
37789W        W 6207  43.880  10.193   1.311
37790W        W 6208   0.769  17.752  12.004
37791W        W 6209  14.795  36.960   2.668
37792W        W 6210  39.430   8.893  10.488
37793W        W 6211  35.488   8.366   1.879
37794W        W 6212  11.352  13.620   1.837
37795W        W 6213  11.156   9.719  10.471
37796W        W 6214  31.614  26.186  14.976
37797W        W 6215   6.768  35.860   2.723
37798W        W 6216  35.378  29.578   4.786
37799W        W 6217  18.072  22.042  10.999
37800W        W 6218  44.781  22.530   5.313
37801W        W 6219  26.157  42.307  13.841
37802W        W 6220  13.181  33.508   0.893
37803W        W 6221  17.801  14.129   5.190
37804W        W 6222  39.479  27.139   3.679
37805W        W 6223  32.480   4.369  12.432
37806W        W 6224  13.786  19.193   3.261
37807W        W 6225  23.586  15.261  13.399
37808W        W 6226   8.731  41.343  14.485
37809W        W 6227  21.755   8.378  13.998
37810W        W 6228  42.331  20.556  13.023
37811W        W 6229  13.728  14.625  10.439
37812W        W 6230  37.931  34.108   1.238
37813W        W 6231  12.269  37.549   4.282
37814W        W 6232  23.185  38.522  10.921
37815W        W 6233  18.718  40.497   1.816
37816W        W 6234  42.479  26.162  12.510
37817W        W 6235   9.886  25.681  11.411
37818W        W 6236  23.533   8.232   4.215
37819W        W 6237   6.198   4.761  12.938
37820W        W 6238  15.320  40.879   0.893
37821W        W 6239   7.402  24.177  13.525
37822W        W 6240  12.639  35.974   0.810
37823W        W 6241  15.802  39.387  13.826
37824W        W 6242  29.007  15.321  14.782
37825W        W 6243  11.164  31.128   3.200
37826W        W 6244  19.662  20.143   1.270
37827W        W 6245  39.993   0.973   1.273
37828W        W 6246  17.219  41.910  10.592
37829W        W 6247  14.281  10.679  14.919
37830W        W 6248  17.788  41.308  11.062
37831W        W 6249  40.867  31.534   2.399
37832W        W 6250  27.451  13.736  11.017
37833W        W 6251   6.274  28.622   2.752
37834W        W 6252  43.328  38.859  13.889
37835W        W 6253  19.606  25.637   4.787
37836W        W 6254  31.616  32.115   1.749
37837W        W 6255  14.260   6.188  13.400
37838W        W 6256   8.693  23.195  12.960
37839W        W 6257  41.906  28.494  12.857
37840W        W 6258  21.615  30.008  12.572
37841W        W 6259  18.247  19.183   4.149
37842W        W 6260   2.845  36.525  13.452
37843W        W 6261  15.235   2.283   1.283
37844W        W 6262   6.299  31.637   3.751
37845W        W 6263  21.599  13.608  14.405
37846W        W 6264  27.035  39.560   0.834
37847W        W 6265  18.674  33.519   2.392
37848W        W 6266  19.279  43.977  12.946
37849W        W 6267   3.827  19.633  13.316
37850W        W 6268  35.103  30.127  12.411
37851W        W 6269   7.279  40.338   4.176
37852W        W 6270  35.887  28.067  10.091
37853W        W 6271  35.371  29.171   2.227
37854W        W 6272  11.624  21.511  12.858
37855W        W 6273  37.411  19.722  14.984
37856W        W 6274  35.897  19.125  14.342
37857W        W 6275  12.296  41.415  14.956
37858W        W 6276  39.898  37.403   1.419
37859W        W 6277   5.920   5.736   3.690
37860W        W 6278  13.169  35.108  14.450
37861W        W 6279  21.577   8.178   1.419
37862W        W 6280  36.987  36.499  12.969
37863W        W 6281  41.920  40.395   4.121
37864W        W 6282  35.924  23.215  13.516
37865W        W 6283   3.279  11.291  14.341
37866W        W 6284  18.115  14.247   1.927
37867W        W 6285  30.458   8.658  11.385
37868W        W 6286   7.749  28.631  14.515
37869W        W 6287  27.619  37.571   4.801
37870W        W 6288   8.673  11.699  11.902
37871W        W 6289   3.839  24.195  13.532
37872W        W 6290  13.338   3.713   3.261
37873W        W 6291  18.756  12.850   5.201
37874W        W 6292  43.326  39.420   1.842
37875W        W 6293  27.623  29.080  13.056
37876W        W 6294   6.359   1.860  12.578
37877W        W 6295  31.613  38.569   2.765
37878W        W 6296  11.347   3.382   2.307
37879W        W 6297  27.190   5.779  12.886
37880W        W 6298  37.386  14.790  13.057
37881W        W 6299   6.745  29.166   1.804
37882W        W 6300   2.271  14.657  11.435
37883W        W 6301  26.030  42.930   1.837
37884W        W 6302   9.655  41.922   4.255
37885W        W 6303  43.318  36.853   1.726
37886W        W 6304   3.852  24.981  12.925
37887W        W 6305  28.466  10.288   2.758
37888W        W 6306  11.783  20.210  11.867
37889W        W 6307  41.466   7.805   0.797
37890W        W 6308   4.912  15.744   4.178
37891W        W 6309  24.524   3.905  10.924
37892W        W 6310  43.357  20.226  14.854
37893W        W 6311  19.145   4.360  11.877
37894W        W 6312  18.250  17.260  10.512
37895W        W 6313  17.200  22.059  13.791
37896W        W 6314  42.828   6.242  11.907
37897W        W 6315   4.837  28.180   4.129
37898W        W 6316  10.188  26.170  11.981
37899W        W 6317   0.843  29.094   2.813
37900W        W 6318  10.234  43.423  12.987
37901W        W 6319  14.639  30.601  11.421
37902W        W 6320   0.342  28.579   3.247
37903W        W 6321  19.623  21.058  11.489
37904W        W 6322  20.163  41.531  12.397
37905W        W 6323  12.832  33.081  14.031
37906W        W 6324   7.380  31.569   2.194
37907W        W 6325   5.256  34.034   0.445
37908W        W 6326  18.133   1.324  10.508
37909W        W 6327  34.532  15.162   0.343
37910W        W 6328   9.772  41.042   1.266
37911W        W 6329   3.314  27.481  14.500
37912W        W 6330  44.002  14.207   4.675
37913W        W 6331  30.471   4.718   0.257
37914W        W 6332   6.344  13.131   3.827
37915W        W 6333  40.414  41.537   1.748
37916W        W 6334  19.167  28.092  11.529
37917W        W 6335  17.754   6.305   0.482
37918W        W 6336  29.102  14.599   4.114
37919W        W 6337  23.014  10.293  12.882
37920W        W 6338  12.691  18.255   2.310
37921W        W 6339  30.599  32.119   3.383
37922W        W 6340   3.436  10.304  13.323
37923W        W 6341   8.821  26.480  11.584
37924W        W 6342  30.997   5.735  10.919
37925W        W 6343  41.956   5.929  13.365
37926W        W 6344  22.521  33.956  12.442
37927W        W 6345  42.838   2.341   4.240
37928W        W 6346  44.880  10.856  12.443
37929W        W 6347  18.175  21.167   4.725
37930W        W 6348   1.751  41.416  11.550
37931W        W 6349  23.174  21.664  12.886
37932W        W 6350  15.704  16.771  10.610
37933W        W 6351  44.331  35.987   2.870
37934W        W 6352  43.405  34.589  14.031
37935W        W 6353   7.304  41.406   1.284
37936W        W 6354  11.189  25.116   4.710
37937W        W 6355  35.420  16.761   2.258
37938W        W 6356  12.134  36.580  14.969
37939W        W 6357  24.614  16.136   3.785
37940W        W 6358  14.641   5.391  10.464
37941W        W 6359  27.538  18.201  11.410
37942W        W 6360  43.861  24.613   1.223
37943W        W 6361   9.675  37.458   1.342
37944W        W 6362   2.429   5.255   3.295
37945W        W 6363   8.324  29.448   4.262
37946W        W 6364   7.679  39.947  11.485
37947W        W 6365  10.377  18.582   4.212
37948W        W 6366   2.905  32.050  11.117
37949W        W 6367   1.777  27.445  12.445
37950W        W 6368  26.163  43.779  12.996
37951W        W 6369   6.241  18.740  12.984
37952W        W 6370   4.739  18.749   1.284
37953W        W 6371  41.892  43.375   2.696
37954W        W 6372  38.981   7.867  12.001
37955W        W 6373  14.201  26.683   9.920
37956W        W 6374   3.399  22.734  14.969
37957W        W 6375  40.369   3.863   3.251
37958W        W 6376  37.872   7.341   2.281
37959W        W 6377  15.687  35.430  13.836
37960W        W 6378  25.168  11.634   0.269
37961W        W 6379  28.036   9.391   1.240
37962W        W 6380  22.503  21.679  10.903
37963W        W 6381  13.320   8.861   4.740
37964W        W 6382  10.752  40.849  13.387
37965W        W 6383   9.198  35.359   1.424
37966W        W 6384  11.773   1.960  13.029
37967W        W 6385  41.863  31.405   3.678
37968W        W 6386  38.535  19.611  11.443
37969W        W 6387  18.550  33.486  11.494
37970W        W 6388   9.316   4.925   0.891
37971W        W 6389   4.776  39.009   0.861
37972W        W 6390   7.352  11.868  12.932
37973W        W 6391  28.046  23.490   2.839
37974W        W 6392  32.922  16.132   4.188
37975W        W 6393  16.310  27.587  11.047
37976W        W 6394   2.355  15.757   0.822
37977W        W 6395  16.592  19.120   4.745
37978W        W 6396   0.336  27.122  11.508
37979W        W 6397  20.603   3.299  10.546
37980W        W 6398  14.113   9.665   2.801
37981W        W 6399  30.572  31.103   1.831
37982W        W 6400  14.762  16.578  13.953
37983W        W 6401  23.060   9.393   3.860
37984W        W 6402  16.195  17.793  12.041
37985W        W 6403   9.670  22.211   3.787
37986W        W 6404  37.342  31.419  14.500
37987W        W 6405   2.919   6.202  12.991
37988W        W 6406  26.159   0.754  14.464
37989W        W 6407  25.078  18.132   4.770
37990W        W 6408  37.967  15.746   3.148
37991W        W 6409   6.427  11.329   2.369
37992W        W 6410   2.820   8.377   4.304
37993W        W 6411  21.248  18.198  14.431
37994W        W 6412  14.659  30.574  10.068
37995W        W 6413  18.745  14.187  10.585
37996W        W 6414  25.161   1.351  11.967
37997W        W 6415  42.930   4.233   3.246
37998W        W 6416  17.699   7.904   1.336
37999W        W 6417  33.955  18.559   1.443
38000W        W 6418  43.515  41.369  11.401
38001W        W 6419   0.292  35.884  12.427
38002W        W 6420  14.220  24.223   4.772
38003W        W 6421  11.141  21.514   2.266
38004W        W 6422   0.361  24.501   3.366
38005W        W 6423   9.719   0.894   4.748
38006W        W 6424   5.336  23.605   1.909
38007W        W 6425  40.892  18.610   3.835
38008W        W 6426  36.042  39.530   9.517
38009W        W 6427  30.995  39.459   2.709
38010W        W 6428  21.624  21.191   1.238
38011W        W 6429  21.084   2.794   2.856
38012W        W 6430  18.051  25.650  14.830
38013W        W 6431  35.422  22.692   4.348
38014W        W 6432  35.867   5.803  13.506
38015W        W 6433  38.052  40.038  14.896
38016W        W 6434  41.389  15.118   3.642
38017W        W 6435  38.997  43.302  11.983
38018W        W 6436  20.263   5.361   4.185
38019W        W 6437  13.134  19.758   4.736
38020W        W 6438  19.623  12.312  14.407
38021W        W 6439  39.316  41.383   4.836
38022W        W 6440  40.054  12.774   0.480
38023W        W 6441   3.918  33.035   3.180
38024W        W 6442  35.897  22.561   2.396
38025W        W 6443  14.653  12.802  11.536
38026W        W 6444  35.466  27.070  13.029
38027W        W 6445  31.073   8.331   1.345
38028W        W 6446   4.338  30.977  14.967
38029W        W 6447  16.285   7.260  11.605
38030W        W 6448  31.575  34.519  12.013
38031W        W 6449   5.919  25.702   2.674
38032W        W 6450  35.999  25.560   4.637
38033W        W 6451  14.189  36.563  11.556
38034W        W 6452  35.957  44.327   4.626
38035W        W 6453  16.100   1.888   3.300
38036W        W 6454  17.281  42.973  13.533
38037W        W 6455  40.436   7.317   2.373
38038W        W 6456  27.574  16.701   1.827
38039W        W 6457  36.074  20.030   1.926
38040W        W 6458  27.156  23.181   2.222
38041W        W 6459   7.846  25.118  11.934
38042W        W 6460  40.315  27.624   4.267
38043W        W 6461  44.428  10.204   2.248
38044W        W 6462   7.912  31.587  11.126
38045W        W 6463   9.826  11.626   4.118
38046W        W 6464  26.983   8.803  13.053
38047W        W 6465  14.177  13.732  10.627
38048W        W 6466  20.757  24.158  10.421
38049W        W 6467  17.771  43.464   1.902
38050W        W 6468  14.144  21.019   2.190
38051W        W 6469   2.811  26.148  13.985
38052W        W 6470   2.317   9.669   1.898
38053W        W 6471   1.291   3.719   1.302
38054W        W 6472   2.255   9.803   3.369
38055W        W 6473   0.792   3.867  14.825
38056W        W 6474  22.747  18.185   2.755
38057W        W 6475   6.353  26.156  13.450
38058W        W 6476   9.312  14.245  13.834
38059W        W 6477  11.850  33.558  13.896
38060W        W 6478   4.876  30.653  13.309
38061W        W 6479  29.541  44.295   3.666
38062W        W 6480  27.497  15.176   4.240
38063W        W 6481  12.791  35.100  10.963
38064W        W 6482   7.261  16.739  11.584
38065W        W 6483  25.705  21.225  12.421
38066W        W 6484  22.524   7.368   2.699
38067W        W 6485  44.994  30.648  11.388
38068W        W 6486  14.665  33.563  12.959
38069W        W 6487  24.608  37.969  13.348
38070W        W 6488  31.136  40.549   3.842
38071W        W 6489  40.012  37.950   1.314
38072W        W 6490  32.511  35.566   3.153
38073W        W 6491  35.464  15.694   4.206
38074W        W 6492  25.164  21.742   4.763
38075W        W 6493  42.419  37.850   4.666
38076W        W 6494  12.786   0.807  13.791
38077W        W 6495  27.684  23.720   4.695
38078W        W 6496  19.643  16.614   2.221
38079W        W 6497  21.650   0.450   0.395
38080W        W 6498  44.442  23.622   3.631
38081W        W 6499  32.958  16.787  12.470
38082W        W 6500  20.653  41.376  11.476
38083W        W 6501  43.998  28.118   1.800
38084W        W 6502  42.356  23.077  10.985
38085W        W 6503  14.622   7.199  10.571
38086W        W 6504   2.923  39.818   4.621
38087W        W 6505  38.985   7.742   0.259
38088W        W 6506  20.669  43.382  14.503
38089W        W 6507   9.294  22.536   0.297
38090W        W 6508   9.812  11.366   2.299
38091W        W 6509   0.856  36.983   1.243
38092W        W 6510  32.908   9.792  14.979
38093W        W 6511  37.344  44.006  12.495
38094W        W 6512  24.480  12.288  11.555
38095W        W 6513   0.262  21.603   5.700
38096W        W 6514  29.021  29.991  14.406
38097W        W 6515  25.551   3.845  10.487
38098W        W 6516  25.138  30.912  10.406
38099W        W 6517  39.866  43.953  10.588
38100W        W 6518  24.159  41.819  11.912
38101W        W 6519  43.981  17.195   0.323
38102W        W 6520  26.467  19.548   2.741
38103W        W 6521  36.413   5.688  11.532
38104W        W 6522  40.381  35.476   1.356
38105W        W 6523  42.454  19.740   3.300
38106W        W 6524  18.292  17.563   4.690
38107W        W 6525  12.781  15.106  11.594
38108W        W 6526  13.154   9.691   2.366
38109W        W 6527  14.229  15.802  11.110
38110W        W 6528  34.413  13.609   4.314
38111W        W 6529   8.716  39.454   1.774
38112W        W 6530  13.288  21.682   3.676
38113W        W 6531  28.587  20.201   0.907
38114W        W 6532   3.905  38.014  11.504
38115W        W 6533  15.184  25.610  13.064
38116W        W 6534  17.172   5.415  10.948
38117W        W 6535   8.788  12.201  14.280
38118W        W 6536  21.655  43.308  11.609
38119W        W 6537  43.484  20.255  13.975
38120W        W 6538  29.171  11.734   3.765
38121W        W 6539  41.344  12.724   0.939
38122W        W 6540  21.630   0.969   4.192
38123W        W 6541   0.934  43.852  11.043
38124W        W 6542  23.504  21.226   0.453
38125W        W 6543  44.890   7.681  13.388
38126W        W 6544  35.912  14.334  11.127
38127W        W 6545   9.709  12.184   2.359
38128W        W 6546  20.239  13.291  11.568
38129W        W 6547  15.146  33.495   4.170
38130W        W 6548  42.786  18.230   3.317
38131W        W 6549  36.356  19.267  14.776
38132W        W 6550  22.670  31.460   2.257
38133W        W 6551  43.835  31.402  14.354
38134W        W 6552  38.846  29.012   0.748
38135W        W 6553  33.613  22.067   1.403
38136W        W 6554  14.689  16.625  14.869
38137W        W 6555  42.833  39.826  14.483
38138W        W 6556  19.121  20.580   3.270
38139W        W 6557  43.440  17.291   4.299
38140W        W 6558  30.440   1.819   4.281
38141W        W 6559  25.098  40.424  10.899
38142W        W 6560  38.075  42.407   4.313
38143W        W 6561  28.026  19.254  14.370
38144W        W 6562  36.872   6.320   1.770
38145W        W 6563  38.980  38.962   5.125
38146W        W 6564  37.001   5.237   0.424
38147W        W 6565  14.193  36.518   3.328
38148W        W 6566  23.490   3.409  11.883
38149W        W 6567  40.021  38.927   9.989
38150W        W 6568  44.966  11.623  10.153
38151W        W 6569  16.599  37.887  10.610
38152W        W 6570  21.212  28.482  10.524
38153W        W 6571   4.217  26.583  13.835
38154W        W 6572  42.009  16.276  13.922
38155W        W 6573  43.970  14.247  12.462
38156W        W 6574  30.646  17.129   3.823
38157W        W 6575  11.259  25.661   0.757
38158W        W 6576   1.465  43.342   0.365
38159W        W 6577  26.532   8.900   1.907
38160W        W 6578  18.671  12.163  11.549
38161W        W 6579  26.003  20.594   2.813
38162W        W 6580  19.615   0.965   0.286
38163W        W 6581  36.385  43.419  13.028
38164W        W 6582  24.076   2.824   1.769
38165W        W 6583   1.761  38.063   2.707
38166W        W 6584  20.524   7.669   3.230
38167W        W 6585  21.654  18.727   3.657
38168W        W 6586  41.439  42.285   4.736
38169W        W 6587  34.106  17.607   2.279
38170W        W 6588  25.630  26.090   3.690
38171W        W 6589   1.250  36.405  10.512
38172W        W 6590  44.966  44.466   3.633
38173W        W 6591  22.151   9.815   1.260
38174W        W 6592  27.586  34.554  11.856
38175W        W 6593  27.688  37.935   2.736
38176W        W 6594  40.011  14.768   0.317
38177W        W 6595  22.010  23.111   1.431
38178W        W 6596  41.464  36.434  12.438
38179W        W 6597  28.646   1.952  10.550
38180W        W 6598  30.570  31.594   2.788
38181W        W 6599  11.760  43.366   1.297
38182W        W 6600  22.702  14.145   2.288
38183W        W 6601  42.360  17.640  10.893
38184W        W 6602   2.262  40.383  13.447
38185W        W 6603   3.859  11.757   3.293
38186W        W 6604  23.058   8.713   1.212
38187W        W 6605  39.541  15.654   2.895
38188W        W 6606   4.800  33.428   2.285
38189W        W 6607   4.394  12.225   1.930
38190W        W 6608  24.112  30.412  14.278
38191W        W 6609   6.701   5.760  13.399
38192W        W 6610  43.879  19.192   2.203
38193W        W 6611  16.796  19.207  11.986
38194W        W 6612  30.613  27.578  10.466
38195W        W 6613   4.797  43.315  14.805
38196W        W 6614  40.508  26.176  11.561
38197W        W 6615  12.146  10.633  13.880
38198W        W 6616  34.537  16.271   3.334
38199W        W 6617  34.609  28.569  11.008
38200W        W 6618  27.645   8.768  10.115
38201W        W 6619  13.194   3.266  11.108
38202W        W 6620  16.302  30.543  11.439
38203W        W 6621  32.586  28.456   0.926
38204W        W 6622  27.474  17.603  12.409
38205W        W 6623  38.527   0.888   2.417
38206W        W 6624  11.786  10.772  11.094
38207W        W 6625  22.079  38.561  14.806
38208W        W 6626  44.871  13.149   3.361
38209W        W 6627  44.956   1.846   0.425
38210W        W 6628  19.046  40.333   4.823
38211W        W 6629   2.895  26.105   4.230
38212W        W 6630  24.611  41.012   1.423
38213W        W 6631  14.276  33.070   1.869
38214W        W 6632  36.508  30.448  10.138
38215W        W 6633  23.114  39.505  10.495
38216W        W 6634  29.965   8.886  12.094
38217W        W 6635  34.998  34.925   2.731
38218W        W 6636  24.124  17.680   4.827
38219W        W 6637  38.040  36.065  13.894
38220W        W 6638  19.058   6.218  13.037
38221W        W 6639  34.080  22.054   2.290
38222W        W 6640  23.525   7.220  10.580
38223W        W 6641   8.754  23.073   4.281
38224W        W 6642  36.092  31.584  10.437
38225W        W 6643   6.326  20.154  11.863
38226W        W 6644  17.114  19.254   3.668
38227W        W 6645  20.151  27.453  13.841
38228W        W 6646  11.779   6.377  11.991
38229W        W 6647  16.237  31.994  14.924
38230W        W 6648  29.523  33.487   0.863
38231W        W 6649   5.927  41.935  12.473
38232W        W 6650  14.717   3.753  12.529
38233W        W 6651  17.558  20.571  14.995
38234W        W 6652   8.165  18.732   0.839
38235W        W 6653   2.313   7.710  14.291
38236W        W 6654   9.157  29.507   3.645
38237W        W 6655  40.923   8.237  11.007
38238W        W 6656   9.174  44.428  12.470
38239W        W 6657  37.873   4.875  10.924
38240W        W 6658  21.648   6.267  13.448
38241W        W 6659  36.881  26.671   1.242
38242W        W 6660  28.078  21.518  14.403
38243W        W 6661  12.672   2.954   0.396
38244W        W 6662  24.520   5.212   1.210
38245W        W 6663  30.013  32.605  10.442
38246W        W 6664  17.571  20.711  11.454
38247W        W 6665   5.213  22.048  13.361
38248W        W 6666  11.255  13.690   0.949
38249W        W 6667   9.313  16.745  12.562
38250W        W 6668   3.721  16.248   0.900
38251W        W 6669  15.777   6.754  14.292
38252W        W 6670  28.669   7.707   3.644
38253W        W 6671  26.997  31.498   1.808
38254W        W 6672  16.591  34.119  10.425
38255W        W 6673  21.051  23.544   4.135
38256W        W 6674  12.122   7.355   1.386
38257W        W 6675   0.941  11.260  12.380
38258W        W 6676  32.976   8.305  13.355
38259W        W 6677  38.435  14.772  13.373
38260W        W 6678  29.072  19.653   2.667
38261W        W 6679  30.600  23.128  14.384
38262W        W 6680  38.459   3.321  13.836
38263W        W 6681  28.177   3.288  10.463
38264W        W 6682  11.255  11.811  11.988
38265W        W 6683  35.903  31.637   1.717
38266W        W 6684   8.745  13.129  14.367
38267W        W 6685  31.501  21.153   3.817
38268W        W 6686  15.275  19.590  13.986
38269W        W 6687  41.923   3.225   5.147
38270W        W 6688  22.018  22.068   2.224
38271W        W 6689  43.324   0.786   4.768
38272W        W 6690  14.659  36.551  14.846
38273W        W 6691  13.242  14.701  11.893
38274W        W 6692  33.381  36.455   1.230
38275W        W 6693  19.282  37.366  14.811
38276W        W 6694  28.561  37.929   4.646
38277W        W 6695  21.564  30.986   4.697
38278W        W 6696  10.753  39.038   3.200
38279W        W 6697  39.811  27.028  11.054
38280W        W 6698   7.749  37.516  11.521
38281W        W 6699  40.969   7.695  12.467
38282W        W 6700  14.262  29.016   0.897
38283W        W 6701  10.862  26.179  11.024
38284W        W 6702  29.615  43.920  10.531
38285W        W 6703  37.353   1.451  10.989
38286W        W 6704  18.226  21.605   0.408
38287W        W 6705  38.413   2.866   0.747
38288W        W 6706   4.822  32.432  12.095
38289W        W 6707  29.041   5.780   0.249
38290W        W 6708  26.652  34.936  13.034
38291W        W 6709  12.798  35.908  10.563
38292W        W 6710  30.629   7.351   2.795
38293W        W 6711  35.097  32.580  14.831
38294W        W 6712   9.866  11.235  13.474
38295W        W 6713  24.599  39.375  14.468
38296W        W 6714  17.649   6.852  13.006
38297W        W 6715  25.068   6.761   4.179
38298W        W 6716  44.426  37.030  11.495
38299W        W 6717  19.759  23.687  14.289
38300W        W 6718   4.325  10.209   3.725
38301W        W 6719  23.158  18.222   1.386
38302W        W 6720  30.498  16.230   1.342
38303W        W 6721  33.935  43.783   1.232
38304W        W 6722   8.350  20.760   1.227
38305W        W 6723  31.983  21.622   3.670
38306W        W 6724  40.894  22.736  11.389
38307W        W 6725   5.752  18.732  11.438
38308W        W 6726  37.502  14.240   1.883
38309W        W 6727  19.563  30.980   2.218
38310W        W 6728  19.125  20.168  12.843
38311W        W 6729  42.932  30.000   3.359
38312W        W 6730  34.936  41.883   3.173
38313W        W 6731   6.251   6.684   4.178
38314W        W 6732  30.465  30.097   2.183
38315W        W 6733  27.474   3.722   2.775
38316W        W 6734  10.288  35.871   4.655
38317W        W 6735  30.567   1.945   2.416
38318W        W 6736  41.947  11.274  13.813
38319W        W 6737  14.596  39.508   4.643
38320W        W 6738  29.565  25.150  14.328
38321W        W 6739  10.247  39.011   2.360
38322W        W 6740  24.658  29.657  11.999
38323W        W 6741  15.739  27.992   1.439
38324W        W 6742  23.051   0.948  12.528
38325W        W 6743  29.108  31.497   4.656
38326W        W 6744  26.129  23.127  11.085
38327W        W 6745  12.801  20.719   2.676
38328W        W 6746  41.485  24.519   2.377
38329W        W 6747  14.319   8.294   3.689
38330W        W 6748  23.994   8.823   4.151
38331W        W 6749  36.935  12.238  11.413
38332W        W 6750   3.435   7.899  14.869
38333W        W 6751   8.394  22.663   4.146
38334W        W 6752  19.285  15.603   4.244
38335W        W 6753  31.994  41.521   1.224
38336W        W 6754  26.984   7.850  11.888
38337W        W 6755   8.766  10.840   1.419
38338W        W 6756  29.950  38.876  12.504
38339W        W 6757  39.815  25.974   2.768
38340W        W 6758  43.950  31.148  13.385
38341W        W 6759  10.357  26.480   3.695
38342W        W 6760  29.667   5.844   0.732
38343W        W 6761  38.851  12.822  13.455
38344W        W 6762  39.516   7.677  13.471
38345W        W 6763  22.078  12.814  12.944
38346W        W 6764   2.288  12.346  13.369
38347W        W 6765  22.563  13.633   2.801
38348W        W 6766  39.948  38.910  11.529
38349W        W 6767  40.843   3.811   2.413
38350W        W 6768  31.470  33.411   4.640
38351W        W 6769  33.128  40.483  10.949
38352W        W 6770  14.786  43.937  10.596
38353W        W 6771  22.519   6.871   3.321
38354W        W 6772  27.533  31.003  14.291
38355W        W 6773  15.661  37.880  14.511
38356W        W 6774  12.217   0.890   1.216
38357W        W 6775  18.635  31.466   0.940
38358W        W 6776  21.153   7.301   3.214
38359W        W 6777  33.951   6.698   4.160
38360W        W 6778   3.885   0.307   3.659
38361W        W 6779  43.315  31.096   2.317
38362W        W 6780  39.515  21.590  13.807
38363W        W 6781   6.312  12.135  14.449
38364W        W 6782  41.869   8.667  14.281
38365W        W 6783  23.534   0.835  14.032
38366W        W 6784  28.569   8.226  12.050
38367W        W 6785  12.128  41.032  10.556
38368W        W 6786   3.900  43.283  11.049
38369W        W 6787  33.070   3.274   2.718
38370W        W 6788  11.170  35.571   3.313
38371W        W 6789   1.470   7.732   3.222
38372W        W 6790   5.276   7.205   0.805
38373W        W 6791   4.919  38.499   4.324
38374W        W 6792  34.030  22.055   3.690
38375W        W 6793  36.863  36.575  10.980
38376W        W 6794  23.144   5.806  11.035
38377W        W 6795  17.155  23.534  14.952
38378W        W 6796  12.658  14.212   1.808
38379W        W 6797  21.029  35.388   3.818
38380W        W 6798  16.118  35.512  10.583
38381W        W 6799  22.577  31.412  11.078
38382W        W 6800  15.672  19.092   1.878
38383W        W 6801   3.911  23.598  14.925
38384W        W 6802  39.853  28.027   3.686
38385W        W 6803  36.982  41.034  13.385
38386W        W 6804  10.865  12.276  14.339
38387W        W 6805  34.046  38.955   1.225
38388W        W 6806  23.190  32.618   3.681
38389W        W 6807  12.688  37.578  14.336
38390W        W 6808  18.067  32.998   2.326
38391W        W 6809  30.423  12.789  10.424
38392W        W 6810  44.469  21.162  12.940
38393W        W 6811  19.257  44.400  11.094
38394W        W 6812  39.003  34.933   0.828
38395W        W 6813  26.096  18.060  12.504
38396W        W 6814  20.111  43.013  13.000
38397W        W 6815  41.994  25.672  13.307
38398W        W 6816   8.787  34.498  14.816
38399W        W 6817  15.609  25.160   3.357
38400W        W 6818  17.280  17.725  13.897
38401W        W 6819  21.690  25.171   0.726
38402W        W 6820   8.721  15.193  11.127
38403W        W 6821  20.239  14.262  13.539
38404W        W 6822  13.827   1.921  10.927
38405W        W 6823   4.404  13.795   0.275
38406W        W 6824   2.418  26.954  14.276
38407W        W 6825  42.961   2.885   4.814
38408W        W 6826   1.735  41.903   3.801
38409W        W 6827  13.210  27.154   0.396
38410W        W 6828  11.800   0.426   3.707
38411W        W 6829  25.044  10.264  13.841
38412W        W 6830  37.020  11.326   0.375
38413W        W 6831  30.551  40.328  14.963
38414W        W 6832  24.067  43.791   3.734
38415W        W 6833  33.127  21.234   5.214
38416W        W 6834  41.816  26.524  14.424
38417W        W 6835  14.805  26.103   2.249
38418W        W 6836   8.406  33.489  10.999
38419W        W 6837   3.913  33.422  14.316
38420W        W 6838  38.891  31.529   0.816
38421W        W 6839   2.263  24.060   3.703
38422W        W 6840  24.202   3.901  13.024
38423W        W 6841  11.733  40.896   0.822
38424W        W 6842  38.849  35.890  13.843
38425W        W 6843  15.807   2.362   1.320
38426W        W 6844  39.821   6.897  11.445
38427W        W 6845  24.571  42.332   2.714
38428W        W 6846  18.055  18.651  11.998
38429W        W 6847  17.786  13.691  14.306
38430W        W 6848  27.053  36.492   4.598
38431W        W 6849   7.370   3.869  11.096
38432W        W 6850   7.732  21.038  11.855
38433W        W 6851   5.256   8.749   2.694
38434W        W 6852  22.617  39.503   3.321
38435W        W 6853   8.375  40.975   3.807
38436W        W 6854   9.164   2.934  11.481
38437W        W 6855  28.629  21.220   1.754
38438W        W 6856  34.047  10.218   4.658
38439W        W 6857  37.441  18.129   1.219
38440W        W 6858  10.840  19.622   3.670
38441W        W 6859  17.111   2.301   3.356
38442W        W 6860  20.532  41.962  12.047
38443W        W 6861  35.107  19.236  14.911
38444W        W 6862  23.011  31.473   2.244
38445W        W 6863   4.783   4.709  12.559
38446W        W 6864   4.802  38.971   1.240
38447W        W 6865  20.747  32.592  14.513
38448W        W 6866  18.061  39.513   0.737
38449W        W 6867  25.999  44.480   2.395
38450W        W 6868  26.008  33.930  10.635
38451W        W 6869  35.011  26.151   4.125
38452W        W 6870   9.748  44.402  12.455
38453W        W 6871  40.431  30.041  11.525
38454W        W 6872  18.253   1.240   2.254
38455W        W 6873   2.332   1.956   0.755
38456W        W 6874  20.693  32.549   0.474
38457W        W 6875  33.618  42.499   1.850
38458W        W 6876  17.070  20.245  13.056
38459W        W 6877  37.481  37.988   4.169
38460W        W 6878  36.558   0.258   0.816
38461W        W 6879  38.356   8.261  13.833
38462W        W 6880  39.815  16.239  13.420
38463W        W 6881  26.086  13.700   2.284
38464W        W 6882  20.275  39.534  12.025
38465W        W 6883  10.836  16.777  12.442
38466W        W 6884  31.411  20.667   1.920
38467W        W 6885   1.354  37.412   1.770
38468W        W 6886   6.331  25.126   3.160
38469W        W 6887  20.624  26.004   4.751
38470W        W 6888  13.819  21.697   3.239
38471W        W 6889   4.923  17.654   1.429
38472W        W 6890  26.987  41.306   1.334
38473W        W 6891   9.377  13.238   4.658
38474W        W 6892   1.389  33.889  10.449
38475W        W 6893  33.504  33.885   3.262
38476W        W 6894   2.967  31.902  13.898
38477W        W 6895  32.439  18.189  12.084
38478W        W 6896  23.514  40.378   2.209
38479W        W 6897  26.186  24.076   1.845
38480W        W 6898  15.622  43.382  14.801
38481W        W 6899   8.252  20.039   1.761
38482W        W 6900  17.062  35.882  11.412
38483W        W 6901  28.162  42.828  11.015
38484W        W 6902   6.416  23.576   2.363
38485W        W 6903   7.903  13.715  14.444
38486W        W 6904  13.149  14.810  14.311
38487W        W 6905  12.638   8.789   1.322
38488W        W 6906  20.677  25.199   4.235
38489W        W 6907  16.783  29.033  10.434
38490W        W 6908  15.793  19.538   5.280
38491W        W 6909  20.068  27.146  10.949
38492W        W 6910  22.174  25.656   9.586
38493W        W 6911  12.276  37.027  13.020
38494W        W 6912  44.490   3.414   1.695
38495W        W 6913  20.207  23.235   2.784
38496W        W 6914  19.186   7.199  14.877
38497W        W 6915  27.600  37.056   4.606
38498W        W 6916  22.047  26.959   3.282
38499W        W 6917  11.702   5.914   0.294
38500W        W 6918  39.029   1.863   5.276
38501W        W 6919  11.273  40.363  11.033
38502W        W 6920   6.248  35.546  12.572
38503W        W 6921  40.499   2.835   1.732
38504W        W 6922   3.889  37.529   2.403
38505W        W 6923   8.730   2.916   1.349
38506W        W 6924  30.082   6.221   3.158
38507W        W 6925  16.584   0.881   4.719
38508W        W 6926  44.997  38.876  14.869
38509W        W 6927  19.064  36.853   1.848
38510W        W 6928  43.805  27.169  12.033
38511W        W 6929  32.988  41.343  12.073
38512W        W 6930  38.453  25.115   1.321
38513W        W 6931  44.903  38.520  11.083
38514W        W 6932  15.660   2.764   3.283
38515W        W 6933  44.846  13.267  11.575
38516W        W 6934  14.687  15.110   1.821
38517W        W 6935  42.434  28.086   3.293
38518W        W 6936   0.980  16.259  10.585
38519W        W 6937  20.571  36.421   2.675
38520W        W 6938  42.296  11.298   1.916
38521W        W 6939  35.420  12.773   2.834
38522W        W 6940   8.391  11.722  14.793
38523W        W 6941   3.423   7.870   2.324
38524W        W 6942   1.395   2.319  11.987
38525W        W 6943  28.945   9.218  13.469
38526W        W 6944  11.130  37.032  14.024
38527W        W 6945  12.178   5.853  11.926
38528W        W 6946  10.659  44.864  10.540
38529W        W 6947   4.715   4.204   0.472
38530W        W 6948  24.517  33.054  12.418
38531W        W 6949  31.923  10.183  12.942
38532W        W 6950  29.038  31.912   0.429
38533W        W 6951  42.289  17.242   1.792
38534W        W 6952  28.099   8.851   3.250
38535W        W 6953   1.836  30.622  11.592
38536W        W 6954   6.415  29.105  10.141
38537W        W 6955  10.361   7.237  12.886
38538W        W 6956  30.037  28.643   4.190
38539W        W 6957  43.358  27.673  10.467
38540W        W 6958  24.153  32.079   0.350
38541W        W 6959  29.016   7.672   3.639
38542W        W 6960  16.141  11.717  13.442
38543W        W 6961  22.249   8.753  12.375
38544W        W 6962  19.621  34.081   4.164
38545W        W 6963   5.740  29.128  14.383
38546W        W 6964   2.743  41.918   4.239
38547W        W 6965  28.097   1.865   3.325
38548W        W 6966  27.659  44.990  11.556
38549W        W 6967  20.656  16.748   4.182
38550W        W 6968  17.274   3.398   0.293
38551W        W 6969   9.715  41.905  11.082
38552W        W 6970  33.448  23.193  12.953
38553W        W 6971  42.961  30.645  14.950
38554W        W 6972  35.557  19.714   2.901
38555W        W 6973   7.306  24.116   0.347
38556W        W 6974   8.720  36.574  10.422
38557W        W 6975  40.835  37.359   3.775
38558W        W 6976  12.143  40.036   4.824
38559W        W 6977  32.905   6.264  13.448
38560W        W 6978  37.569  39.465   9.575
38561W        W 6979  12.357   6.894  10.510
38562W        W 6980  37.486  18.147  12.453
38563W        W 6981   9.755  29.623  12.994
38564W        W 6982  41.356  16.269   0.363
38565W        W 6983  15.599  37.931  12.992
38566W        W 6984  24.088  37.567  14.499
38567W        W 6985   0.950  32.603   0.889
38568W        W 6986   0.321  33.447  11.064
38569W        W 6987  36.556  18.612  10.979
38570W        W 6988  28.000  36.095   0.799
38571W        W 6989  31.614  22.668   1.725
38572W        W 6990  31.087  18.253   0.903
38573W        W 6991  39.883  33.974   1.445
38574W        W 6992  27.122  19.052   2.331
38575W        W 6993  26.474  15.769   5.212
38576W        W 6994  13.758  10.221   2.817
38577W        W 6995  25.534  25.563   2.804
38578W        W 6996  37.065  13.115  10.629
38579W        W 6997  10.253  34.500  12.358
38580W        W 6998  29.151   6.387  14.941
38581W        W 6999  25.623  23.051  11.376
38582W        W 7000  28.067  36.931  11.545
38583W        W 7001  11.788  33.943  10.413
38584W        W 7002   8.358  13.631  14.397
38585W        W 7003   1.328  16.791   2.791
38586W        W 7004  21.055   6.835  13.991
38587W        W 7005   7.788  26.461   1.316
38588W        W 7006  29.167   7.761   0.385
38589W        W 7007  16.671  33.576   0.317
38590W        W 7008  37.914   0.802  13.478
38591W        W 7009   7.810  18.117  12.501
38592W        W 7010  43.299  20.747   2.230
38593W        W 7011  34.120  15.674  14.499
38594W        W 7012  42.868  44.965  14.451
38595W        W 7013  20.596   6.814   4.270
38596W        W 7014  23.237  15.240  13.904
38597W        W 7015  12.316   8.894  13.971
38598W        W 7016  43.437  21.739   0.925
38599W        W 7017  10.681   1.756   3.347
38600W        W 7018   4.742  14.291  11.044
38601W        W 7019  33.062   0.757   4.790
38602W        W 7020  18.273  11.735   2.734
38603W        W 7021  42.334  12.307  12.349
38604W        W 7022  19.769  38.478   1.809
38605W        W 7023  20.580  32.035  12.046
38606W        W 7024  36.559  34.580  14.835
38607W        W 7025  32.013  23.554   3.173
38608W        W 7026  11.862  43.376  10.531
38609W        W 7027   5.312  44.376   3.665
38610W        W 7028  11.304  21.257  14.310
38611W        W 7029  36.059  13.180  12.380
38612W        W 7030  38.564   3.396   0.818
38613W        W 7031   0.882  35.410  13.052
38614W        W 7032  17.280  16.604   4.231
38615W        W 7033   8.800  26.966  12.448
38616W        W 7034  11.263  43.808  14.463
38617W        W 7035  11.140   0.743  14.774
38618W        W 7036  13.286  39.349  10.937
38619W        W 7037  31.099  20.249   4.674
38620W        W 7038  32.936  25.648  14.335
38621W        W 7039  37.527   4.717  12.865
38622W        W 7040  29.572   0.791  13.972
38623W        W 7041  38.930  40.396   1.857
38624W        W 7042  34.514  19.274  12.345
38625W        W 7043  22.065  36.971   4.169
38626W        W 7044   5.857   9.220  10.471
38627W        W 7045  26.674  33.934   1.832
38628W        W 7046  35.402  42.842  13.892
38629W        W 7047  21.562  43.449  13.402
38630W        W 7048  25.135  36.865   4.637
38631W        W 7049  13.133  12.164   3.839
38632W        W 7050  14.654   7.666   0.813
38633W        W 7051  38.908  13.292   4.241
38634W        W 7052  17.592  44.481  12.339
38635W        W 7053  28.651   9.163  13.992
38636W        W 7054  40.409   9.184   2.348
38637W        W 7055  38.405   1.335  12.388
38638W        W 7056  30.126  36.917  12.989
38639W        W 7057  21.642  23.583   5.746
38640W        W 7058  30.929  10.857  11.446
38641W        W 7059  20.189  43.859  13.487
38642W        W 7060  14.651  12.700   3.787
38643W        W 7061  39.456   5.370  13.955
38644W        W 7062  20.261   0.864   2.394
38645W        W 7063  23.492   6.903  13.790
38646W        W 7064  10.822   7.675  11.451
38647W        W 7065   0.749   1.433   3.330
38648W        W 7066  19.263  18.680   0.874
38649W        W 7067  11.726  39.522  13.350
38650W        W 7068  30.017   6.205   1.799
38651W        W 7069  14.805  36.010  10.452
38652W        W 7070   7.675  30.525  10.519
38653W        W 7071  37.374  15.749  10.563
38654W        W 7072  13.247  38.943   1.887
38655W        W 7073  27.112   1.267   3.630
38656W        W 7074  12.277  14.745  12.408
38657W        W 7075  21.084  31.058  12.078
38658W        W 7076   7.323  30.081   1.292
38659W        W 7077   0.405   8.206  10.404
38660W        W 7078  28.952  40.357  13.920
38661W        W 7079  15.234  37.967  13.434
38662W        W 7080  34.394  19.223   4.782
38663W        W 7081  15.189  33.394   2.809
38664W        W 7082  43.431  11.737   0.343
38665W        W 7083  25.218   6.757  11.104
38666W        W 7084  15.243  17.557  11.556
38667W        W 7085   8.229   2.963   2.276
38668W        W 7086   2.373  17.759  14.321
38669W        W 7087  12.346  17.800  14.428
38670W        W 7088  38.374  26.152  14.850
38671W        W 7089  42.886  43.287   2.802
38672W        W 7090   5.285  24.647  13.819
38673W        W 7091  35.522  39.849   5.752
38674W        W 7092  28.623  14.721   0.752
38675W        W 7093  43.840  15.754   4.820
38676W        W 7094   6.396  35.062  11.457
38677W        W 7095  32.428  24.977   1.876
38678W        W 7096  33.554  38.503   1.887
38679W        W 7097  26.166   2.903  11.962
38680W        W 7098  11.336  43.015  13.408
38681W        W 7099  14.805  34.076  11.012
38682W        W 7100   7.834  25.548  14.961
38683W        W 7101   8.224  23.034  14.907
38684W        W 7102  37.364  34.546   3.690
38685W        W 7103  42.844  29.660  12.825
38686W        W 7104   0.804  34.596   2.333
38687W        W 7105  28.065  28.123   3.819
38688W        W 7106  27.453  37.340  11.539
38689W        W 7107   9.386   7.294  11.597
38690W        W 7108  23.152  42.015   5.136
38691W        W 7109  36.973   1.732   4.663
38692W        W 7110  37.582  22.600  14.464
38693W        W 7111  12.206  28.600  11.961
38694W        W 7112   4.853   4.411  12.859
38695W        W 7113  44.861  34.436   0.815
38696W        W 7114   3.310  34.975  13.874
38697W        W 7115  17.097  19.702   0.268
38698W        W 7116  42.393  12.746  12.401
38699W        W 7117  34.109  38.948  11.474
38700W        W 7118  33.091   8.257  13.882
38701W        W 7119   0.345  38.375   0.887
38702W        W 7120  12.306  27.942  11.077
38703W        W 7121  15.126  22.531  13.011
38704W        W 7122   4.361  26.113  14.852
38705W        W 7123   3.345  23.699   2.313
38706W        W 7124  44.959  17.745   2.843
38707W        W 7125  26.129  21.214   4.160
38708W        W 7126  22.528  39.436  11.582
38709W        W 7127  27.117   9.340   0.842
38710W        W 7128  39.874  26.178  12.886
38711W        W 7129  10.253   5.838   1.915
38712W        W 7130  26.957  41.499   0.480
38713W        W 7131  24.496  42.993   0.768
38714W        W 7132  24.590   7.343   2.316
38715W        W 7133   7.191  41.433  12.525
38716W        W 7134  27.042   9.781  10.606
38717W        W 7135  23.721  31.511  10.598
38718W        W 7136  11.817   6.428  10.452
38719W        W 7137  30.497  18.118  10.547
38720W        W 7138   4.363  22.178   2.217
38721W        W 7139  28.478  30.947   0.935
38722W        W 7140  23.728   6.739  11.000
38723W        W 7141  36.434  36.949  12.374
38724W        W 7142  21.247  20.055  13.504
38725W        W 7143  32.557  30.510   0.432
38726W        W 7144  42.007  35.417   0.809
38727W        W 7145  15.690  40.429   1.250
38728W        W 7146  19.049   7.834   2.417
38729W        W 7147   1.474  23.566   4.258
38730W        W 7148   6.226  39.854  11.061
38731W        W 7149   4.719  36.398   4.344
38732W        W 7150  32.563  38.875  10.950
38733W        W 7151  19.543  38.909  13.336
38734W        W 7152  16.629  31.128  11.916
38735W        W 7153  24.540  30.626   0.475
38736W        W 7154  21.658   1.343   1.895
38737W        W 7155  39.818  18.580  10.453
38738W        W 7156  42.854   0.925  14.027
38739W        W 7157  44.930   9.666  11.377
38740W        W 7158  32.941  41.298  14.389
38741W        W 7159  20.062   3.356  12.850
38742W        W 7160  19.676  18.711  13.010
38743W        W 7161  11.172   2.294  10.510
38744W        W 7162  16.074   0.874  14.853
38745W        W 7163  22.037  17.678   2.841
38746W        W 7164  20.082   3.359  13.965
38747W        W 7165  24.193  30.541   2.704
38748W        W 7166   9.656  15.635   3.668
38749W        W 7167   1.412  15.762  11.500
38750W        W 7168  25.010  23.143  10.542
38751W        W 7169   5.365   4.342   1.812
38752W        W 7170  24.629   0.449   4.239
38753W        W 7171   1.423  16.792   3.368
38754W        W 7172   2.284  26.473  10.086
38755W        W 7173  36.421  31.500   1.799
38756W        W 7174  42.775  24.199   5.569
38757W        W 7175  29.450   5.885   4.246
38758W        W 7176   2.294   1.764   0.398
38759W        W 7177  10.693  36.443  13.854
38760W        W 7178  11.265  43.278   0.450
38761W        W 7179  27.607  18.204   3.371
38762W        W 7180  41.913  39.901  11.105
38763W        W 7181   5.800   1.946  11.571
38764W        W 7182   2.844  44.336   3.383
38765W        W 7183  16.587  44.798  13.323
38766W        W 7184  30.449  27.533   2.397
38767W        W 7185   6.230   9.803  10.432
38768W        W 7186  30.493   1.240  13.525
38769W        W 7187  21.202  26.671   4.353
38770W        W 7188   1.397  40.034  11.004
38771W        W 7189  16.226  16.614  11.449
38772W        W 7190  37.934  32.600   4.184
38773W        W 7191  11.194  11.242  12.397
38774W        W 7192  18.292  24.658   2.276
38775W        W 7193  18.583  33.124   0.427
38776W        W 7194   5.874   5.723  12.475
38777W        W 7195   8.708  36.913   2.834
38778W        W 7196  32.603  10.175   3.775
38779W        W 7197  23.128  43.994   0.781
38780W        W 7198  12.217   8.313   2.251
38781W        W 7199   6.800  19.534   1.727
38782W        W 7200  18.696  20.628   1.910
38783W        W 7201   3.337  11.143   4.138
38784W        W 7202   1.402  39.501  11.498
38785W        W 7203  31.012  16.603   0.816
38786W        W 7204  36.985  40.538   4.253
38787W        W 7205   4.304  42.460  13.448
38788W        W 7206  15.693  41.980  13.435
38789W        W 7207  37.879   1.365  11.865
38790W        W 7208  17.120  20.233  10.464
38791W        W 7209  42.332  43.859   0.881
38792W        W 7210  23.139  21.738  10.615
38793W        W 7211  16.600  27.124   4.644
38794W        W 7212  19.249   3.258  14.821
38795W        W 7213  27.169  29.152  12.888
38796W        W 7214  27.132   0.426   1.294
38797W        W 7215   5.298  27.002   2.343
38798W        W 7216  38.895   0.884  10.482
38799W        W 7217  20.257  34.015  12.986
38800W        W 7218  28.632  40.021   2.901
38801W        W 7219  26.602   3.907  10.903
38802W        W 7220  16.601  26.152   2.716
38803W        W 7221  40.911  41.372  14.891
38804W        W 7222  20.647  40.924  12.911
38805W        W 7223   8.688   2.391   0.415
38806W        W 7224  40.354   8.232  11.475
38807W        W 7225   4.887  28.474   4.806
38808W        W 7226  39.997  34.604  11.976
38809W        W 7227  11.641  22.029  13.541
38810W        W 7228   2.262  13.632  13.519
38811W        W 7229  18.783  28.951  14.448
38812W        W 7230  33.590  11.160  11.010
38813W        W 7231  18.180  25.050   0.846
38814W        W 7232  28.534  27.532  12.962
38815W        W 7233  43.998  34.527   3.764
38816W        W 7234  31.467  38.429  13.960
38817W        W 7235   7.671  27.542   2.736
38818W        W 7236   2.358   4.743  13.823
38819W        W 7237  10.377   7.732   1.715
38820W        W 7238  28.181   6.363  10.412
38821W        W 7239  33.440  27.146  13.361
38822W        W 7240  12.311  26.140  11.872
38823W        W 7241   8.874  32.990   0.262
38824W        W 7242  12.795   6.203   1.820
38825W        W 7243   9.365  18.685  12.009
38826W        W 7244  10.836  10.312   3.357
38827W        W 7245  35.032  44.447  10.937
38828W        W 7246  11.155  32.499  13.360
38829W        W 7247   3.393  38.910   0.948
38830W        W 7248  24.608  34.019   3.228
38831W        W 7249  23.161   9.217  12.478
38832W        W 7250  33.500  21.030   3.794
38833W        W 7251  16.781  19.667   3.732
38834W        W 7252  30.532   5.835  11.495
38835W        W 7253  26.597   0.365   2.314
38836W        W 7254  29.665   9.723   4.675
38837W        W 7255  44.420  40.902   1.775
38838W        W 7256  13.292   4.378   2.278
38839W        W 7257  40.845   8.760   1.779
38840W        W 7258  11.653  19.604  12.375
38841W        W 7259  39.935  15.790  14.396
38842W        W 7260  14.793   5.722   4.220
38843W        W 7261   0.451  41.924  14.441
38844W        W 7262  21.588  26.044   3.336
38845W        W 7263  26.063   4.317   4.824
38846W        W 7264   8.851  32.063  14.858
38847W        W 7265  36.512  19.657  12.077
38848W        W 7266  44.302  29.146  13.522
38849W        W 7267  24.998   1.862   4.804
38850W        W 7268   3.292  15.632  11.863
38851W        W 7269  34.527  44.475   0.452
38852W        W 7270  35.010  15.099   3.842
38853W        W 7271  17.078  39.860  13.791
38854W        W 7272   6.394   8.187  11.504
38855W        W 7273  25.659  36.501  14.277
38856W        W 7274  21.742  23.729   1.812
38857W        W 7275   0.282  19.724  10.487
38858W        W 7276  21.588  30.432  13.396
38859W        W 7277  26.117   4.823   2.217
38860W        W 7278  22.593   1.768  11.031
38861W        W 7279  18.554  12.699   1.777
38862W        W 7280  40.398  31.931   3.204
38863W        W 7281  17.156  35.475  12.065
38864W        W 7282   4.912  36.544   4.758
38865W        W 7283  14.744  41.925   3.241
38866W        W 7284   0.448  25.008  14.028
38867W        W 7285  28.466  17.738  11.031
38868W        W 7286  27.103  19.056   1.449
38869W        W 7287  44.463  19.662   3.234
38870W        W 7288  36.566  24.056   3.713
38871W        W 7289   7.900  12.716  14.428
38872W        W 7290  34.957  39.475  14.789
38873W        W 7291  36.358  21.027   0.324
38874W        W 7292  29.504  29.448  10.961
38875W        W 7293   0.880  10.196  11.097
38876W        W 7294   0.763   5.279   1.757
38877W        W 7295  44.974  25.039   3.769
38878W        W 7296  12.353  11.160   3.719
38879W        W 7297  23.064  28.010   1.343
38880W        W 7298  36.965  15.647   0.819
38881W        W 7299   7.291   7.683  14.835
38882W        W 7300  28.080  34.602  12.502
38883W        W 7301  13.817  31.945   0.408
38884W        W 7302  33.103  21.643  14.904
38885W        W 7303   7.184  32.966  12.574
38886W        W 7304  18.721   4.944   4.351
38887W        W 7305  11.353  39.348   1.312
38888W        W 7306  23.066  43.275   3.354
38889W        W 7307  39.995  36.582  14.434
38890W        W 7308  35.580  31.105   1.400
38891W        W 7309  43.497  35.944  13.910
38892W        W 7310  26.588  16.797   4.180
38893W        W 7311  27.136   9.814   0.382
38894W        W 7312  23.077   9.293  13.346
38895W        W 7313  29.559  22.647   1.890
38896W        W 7314  30.450  34.603   0.304
38897W        W 7315  20.103  11.739  13.516
38898W        W 7316  43.958  40.929   1.351
38899W        W 7317  41.333  35.878  13.978
38900W        W 7318   5.197  19.631   0.872
38901W        W 7319  39.895  25.157  11.590
38902W        W 7320  17.216   4.745   2.378
38903W        W 7321   0.935  17.167   2.783
38904W        W 7322   9.862  29.570  14.921
38905W        W 7323  29.586  12.254   1.221
38906W        W 7324   4.282  41.869   0.833
38907W        W 7325  34.936  27.986  14.832
38908W        W 7326  17.646  39.061  14.788
38909W        W 7327  42.925  39.999   1.904
38910W        W 7328  13.306   0.367  13.962
38911W        W 7329  17.724  25.034  13.492
38912W        W 7330   4.918  25.640  13.391
38913W        W 7331  39.481   9.341   4.618
38914W        W 7332  32.627   9.773  12.904
38915W        W 7333  44.377  27.102  11.429
38916W        W 7334  22.217  14.701   1.402
38917W        W 7335  23.224   8.896   0.408
38918W        W 7336  20.677  38.477   2.698
38919W        W 7337  41.042  13.120  12.472
38920W        W 7338  15.119  28.619  13.442
38921W        W 7339  16.677  44.780   0.933
38922W        W 7340  11.131  38.961  10.508
38923W        W 7341  32.924   3.418   1.336
38924W        W 7342  32.423  40.352   2.760
38925W        W 7343  15.587  40.897  11.090
38926W        W 7344  27.607  19.170   3.663
38927W        W 7345  26.616  26.102  10.066
38928W        W 7346  22.630  15.735  13.545
38929W        W 7347  27.640  41.293   0.456
38930W        W 7348  23.233  28.973   3.759
38931W        W 7349  35.945  12.703   4.325
38932W        W 7350  23.648  14.217  11.473
38933W        W 7351  39.986   8.696   1.922
38934W        W 7352  37.016  14.327  13.902
38935W        W 7353  11.355  14.819  12.872
38936W        W 7354  39.020  37.058   0.929
38937W        W 7355  23.012   3.447   0.898
38938W        W 7356   2.276  32.939   2.761
38939W        W 7357  19.145  17.631   0.371
38940W        W 7358   6.240  25.010   2.700
38941W        W 7359  40.395   2.931   2.255
38942W        W 7360  13.606  18.277  11.473
38943W        W 7361  39.415   2.796  10.921
38944W        W 7362  25.094   4.851  13.892
38945W        W 7363   9.155  14.658  12.907
38946W        W 7364  24.511  19.608   4.247
38947W        W 7365  17.600  27.184   0.792
38948W        W 7366   0.973  25.152   0.812
38949W        W 7367  14.248  22.657   5.320
38950W        W 7368  20.755  25.535   3.234
38951W        W 7369  17.671  11.213  13.009
38952W        W 7370   2.352  42.889  14.031
38953W        W 7371   6.712  15.096   0.379
38954W        W 7372   5.397  30.101  11.124
38955W        W 7373  29.588  36.358  12.828
38956W        W 7374  13.624  37.448   2.715
38957W        W 7375  40.344  44.499   9.949
38958W        W 7376  40.484   5.847  14.422
38959W        W 7377  26.136   4.824   0.731
38960W        W 7378  28.500  43.770   0.957
38961W        W 7379  44.426  22.505  14.790
38962W        W 7380  33.058  19.179  12.965
38963W        W 7381  32.897   8.775  13.944
38964W        W 7382  41.950   0.392   0.251
38965W        W 7383  29.978  39.986   1.237
38966W        W 7384  22.525  15.750   1.330
38967W        W 7385  42.876  30.421   9.952
38968W        W 7386  30.100  26.040  14.775
38969W        W 7387  35.517  14.639   2.273
38970W        W 7388  32.940  11.180   2.320
38971W        W 7389  24.655   2.408  14.275
38972W        W 7390  14.328   5.329   4.167
38973W        W 7391  11.655  10.708   2.751
38974W        W 7392  18.685  20.553  11.965
38975W        W 7393  21.125  40.840   5.268
38976W        W 7394  30.990  31.002  11.938
38977W        W 7395  42.821  38.059   3.225
38978W        W 7396  44.404  39.432  12.969
38979W        W 7397  40.916   4.341  12.429
38980W        W 7398  43.875  13.723   9.502
38981W        W 7399  32.897  26.067  13.968
38982W        W 7400  11.204  37.434  10.953
38983W        W 7401  16.719  12.619   4.783
38984W        W 7402   2.822  34.542   1.328
38985W        W 7403  42.521  27.542  14.312
38986W        W 7404  21.751   7.684  12.413
38987W        W 7405  17.655   7.313  10.952
38988W        W 7406   1.476  25.494   0.255
38989W        W 7407  44.470  13.669  11.466
38990W        W 7408  29.065  35.934   4.136
38991W        W 7409  15.206  38.459  13.965
38992W        W 7410   9.777   3.312  14.374
38993W        W 7411  12.332  29.134   1.383
38994W        W 7412  38.468   1.274  11.084
38995W        W 7413  24.565   9.250   4.639
38996W        W 7414  21.076  39.425   5.299
38997W        W 7415   5.261   1.368  10.901
38998W        W 7416  27.116   2.303   2.316
38999W        W 7417  31.133  30.589  10.499
39000W        W 7418   7.691  27.174   1.254
39001W        W 7419  27.943  23.090   0.747
39002W        W 7420  25.998  24.170   4.767
39003W        W 7421  35.589  33.566  13.862
39004W        W 7422  29.019  43.793   3.295
39005W        W 7423  27.100  39.533   3.765
39006W        W 7424  41.872   0.328   2.280
39007W        W 7425  13.223  15.737   2.360
39008W        W 7426  41.817  29.449   5.281
39009W        W 7427   5.916   9.735  11.020
39010W        W 7428   5.777   0.816   1.304
39011W        W 7429   7.807   1.850  14.460
39012W        W 7430   3.252   1.761  11.482
39013W        W 7431  22.663  35.070   1.844
39014W        W 7432  44.899  16.664  11.888
39015W        W 7433  22.604  24.152   5.276
39016W        W 7434   5.397   2.353   3.234
39017W        W 7435  18.076  25.088  11.963
39018W        W 7436  43.279  19.064  12.050
39019W        W 7437   2.389  37.463   4.183
39020W        W 7438  42.889  17.652  11.527
39021W        W 7439  26.016  31.583   4.813
39022W        W 7440  36.571  24.019   3.247
39023W        W 7441  36.933   9.873   2.687
39024W        W 7442  31.068   5.232   0.804
39025W        W 7443  31.061  15.674   0.340
39026W        W 7444  35.484   1.327   0.274
39027W        W 7445   2.407   8.857  10.100
39028W        W 7446  22.625  37.342   2.305
39029W        W 7447  31.094  29.125  10.057
39030W        W 7448  37.038   0.391   0.295
39031W        W 7449   7.203  39.873   0.764
39032W        W 7450  19.095  30.035  11.039
39033W        W 7451  23.603  41.360  10.528
39034W        W 7452  23.194  27.627  14.370
39035W        W 7453  31.131  18.259   4.755
39036W        W 7454  36.936  44.771   3.251
39037W        W 7455  13.331  32.548  11.075
39038W        W 7456  33.562  16.234   4.783
39039W        W 7457   1.830   6.802   3.260
39040W        W 7458  18.293   5.868  13.315
39041W        W 7459  24.653   1.777  11.898
39042W        W 7460  27.575  18.579   2.700
39043W        W 7461   3.252   6.752  13.813
39044W        W 7462  21.060  22.093   4.265
39045W        W 7463  14.694   3.955  11.371
39046W        W 7464  39.428  21.652   3.832
39047W        W 7465   6.238  29.636   5.103
39048W        W 7466  44.844  39.849  11.480
39049W        W 7467   3.938  15.577  11.503
39050W        W 7468   3.880  13.134  11.545
39051W        W 7469   9.845  14.699   1.851
39052W        W 7470  19.590  41.818   4.647
39053W        W 7471  31.120  25.656   3.632
39054W        W 7472   6.196   3.295  10.926
39055W        W 7473  38.536  10.717  12.376
39056W        W 7474   8.199  29.063  14.391
39057W        W 7475  19.725  19.535  12.921
39058W        W 7476  14.823  17.777  12.921
39059W        W 7477  14.099  23.229  10.636
39060W        W 7478  22.093  18.077   1.861
39061W        W 7479  26.528  42.891  12.441
39062W        W 7480   6.204   0.273  10.143
39063W        W 7481  21.652  11.858   1.712
39064W        W 7482  19.098  43.935  12.064
39065W        W 7483  38.530  39.412   2.232
39066W        W 7484  37.854  18.681  11.522
39067W        W 7485   7.322  24.563  14.308
39068W        W 7486  27.147  22.103  14.909
39069W        W 7487  38.073   2.900  14.367
39070W        W 7488   0.285   5.363  11.594
39071W        W 7489  14.328  29.175  10.462
39072W        W 7490  15.144   6.296   0.472
39073W        W 7491  25.518  43.878   3.184
39074W        W 7492  20.604  23.552  10.065
39075W        W 7493  37.417  12.278   1.271
39076W        W 7494  16.175  14.608   4.323
39077W        W 7495   4.348  10.331   2.415
39078W        W 7496   2.267  44.499  14.781
39079W        W 7497  26.151   8.339  12.049
39080W        W 7498  14.654  31.578   2.234
39081W        W 7499  31.550  16.788   0.912
39082W        W 7500  21.596  22.113   0.750
39083W        W 7501  26.629  28.987  10.561
39084W        W 7502   9.192  43.947  14.839
39085W        W 7503   6.717  42.300  10.441
39086W        W 7504  33.535  32.432   0.895
39087W        W 7505  15.136  31.987  14.506
39088W        W 7506  25.538  33.971  14.985
39089W        W 7507  27.529  31.992   1.280
39090W        W 7508  41.351   7.257  12.910
39091W        W 7509  23.202  32.085   4.690
39092W        W 7510  12.337  29.008  12.355
39093W        W 7511   0.423   8.350   0.473
39094W        W 7512  14.173  21.601   2.356
39095W        W 7513   6.293  12.226   1.842
39096W        W 7514  44.424  12.235  13.923
39097W        W 7515  27.968  33.482   1.364
39098W        W 7516  28.180  32.418  11.017
39099W        W 7517  15.203  26.538  13.952
39100W        W 7518  13.669  32.493  11.858
39101W        W 7519  38.995  27.007   4.185
39102W        W 7520  15.665  24.177  14.864
39103W        W 7521   6.304  22.182  11.462
39104W        W 7522   3.395   7.268  10.594
39105W        W 7523  16.218  30.587   1.412
39106W        W 7524  10.239  22.733   0.447
39107W        W 7525  21.577  11.676   3.236
39108W        W 7526  10.731  41.791  14.412
39109W        W 7527   0.352  19.088  11.046
39110W        W 7528  20.661  13.824   0.279
39111W        W 7529  32.035  14.283  11.510
39112W        W 7530  15.657  31.012  11.984
39113W        W 7531   8.755  12.666   3.210
39114W        W 7532  35.528  44.946  12.940
39115W        W 7533  28.014   2.386  10.473
39116W        W 7534  44.803  15.272  14.996
39117W        W 7535  10.169   5.715   0.413
39118W        W 7536  11.240  14.675   4.339
39119W        W 7537  23.118  44.367  12.050
39120W        W 7538  35.095  40.406  10.927
39121W        W 7539  16.092  38.528  13.440
39122W        W 7540  30.910  42.867  10.479
39123W        W 7541  14.620   9.659   2.875
39124W        W 7542  19.648  23.544  12.901
39125W        W 7543  24.635  36.589  12.060
39126W        W 7544  37.862  27.659  10.980
39127W        W 7545   9.245  38.955   0.743
39128W        W 7546  13.690  39.815   4.790
39129W        W 7547  44.810   0.803  13.410
39130W        W 7548   6.730  34.047  14.934
39131W        W 7549   2.449  35.941  12.927
39132W        W 7550  20.181  38.902  10.440
39133W        W 7551  23.199  30.134  11.448
39134W        W 7552   1.831  24.225  13.490
39135W        W 7553  17.674  23.609  14.838
39136W        W 7554  10.241  35.358  14.480
39137W        W 7555  22.691  13.192   3.648
39138W        W 7556  18.628   9.308   0.745
39139W        W 7557  38.952   3.247  11.590
39140W        W 7558   4.895  18.559   4.665
39141W        W 7559   3.447  27.459  10.581
39142W        W 7560  22.152  41.467   1.217
39143W        W 7561  36.088  34.092  13.308
39144W        W 7562  27.476  37.454   4.205
39145W        W 7563  32.984  37.911   2.270
39146W        W 7564  26.479  16.767  13.493
39147W        W 7565  28.006  16.809   4.748
39148W        W 7566  31.613  12.667   1.396
39149W        W 7567  32.527  14.805   4.621
39150W        W 7568  36.398  23.121  13.536
39151W        W 7569  40.440  40.379   1.418
39152W        W 7570   1.787  26.054   0.253
39153W        W 7571  34.394  40.504  11.427
39154W        W 7572   4.845  19.161  12.960
39155W        W 7573  10.145   7.766   4.691
39156W        W 7574  26.521  44.498   3.817
39157W        W 7575  11.356  23.985   0.325
39158W        W 7576  24.131  11.324  11.527
39159W        W 7577  24.033  26.580   5.159
39160W        W 7578  19.657   3.444  12.832
39161W        W 7579  44.874   9.367  13.424
39162W        W 7580   4.367   3.873   3.246
39163W        W 7581  38.002  23.636   3.188
39164W        W 7582  15.782  37.033  14.031
39165W        W 7583  38.044  30.034  11.589
39166W        W 7584  15.696  42.820   5.149
39167W        W 7585  20.207  28.447   3.834
39168W        W 7586   4.724  43.348   3.665
39169W        W 7587   8.751   7.752  14.927
39170W        W 7588  43.019  40.869   0.759
39171W        W 7589   3.918  39.915   2.415
39172W        W 7590  13.818   3.430   3.199
39173W        W 7591  20.126  41.850  11.418
39174W        W 7592  24.988  26.472  12.363
39175W        W 7593  12.715  16.792   2.751
39176W        W 7594  42.374  21.617  12.979
39177W        W 7595   1.268  27.123   1.365
39178W        W 7596  24.613  13.187  14.959
39179W        W 7597  43.809  11.830   2.727
39180W        W 7598  14.595  20.576   4.275
39181W        W 7599  31.620  42.008   4.192
39182W        W 7600   4.376  28.977  10.439
39183W        W 7601  42.444  37.393  10.489
39184W        W 7602  35.458  28.977  14.501
39185W        W 7603   3.877  39.529   3.870
39186W        W 7604  27.529  20.663   3.835
39187W        W 7605  12.746  38.400   4.669
39188W        W 7606  36.856  21.117   3.323
39189W        W 7607  11.725   4.436   2.682
39190W        W 7608  40.021  13.330   3.791
39191W        W 7609  17.566  30.973   1.886
39192W        W 7610  21.560  33.597  13.494
39193W        W 7611  24.678  20.553   2.696
39194W        W 7612  20.655  35.101  12.846
39195W        W 7613   4.707  14.118   0.947
39196W        W 7614  42.956  26.517   1.758
39197W        W 7615  33.124  42.019   4.117
39198W        W 7616  34.495   4.765  12.557
39199W        W 7617  43.313  40.958   5.155
39200W        W 7618  29.470   1.481  10.485
39201W        W 7619  22.017  10.701  14.419
39202W        W 7620   7.381   7.862  11.878
39203W        W 7621  42.832  43.906  14.851
39204W        W 7622  17.081  29.034  11.443
39205W        W 7623   5.717   8.877  14.935
39206W        W 7624   3.282  18.626   1.851
39207W        W 7625  37.850   5.249  14.305
39208W        W 7626  17.225  34.371   3.231
39209W        W 7627  25.206  22.211  10.985
39210W        W 7628   6.728  19.552   0.252
39211W        W 7629  26.997  29.995  14.429
39212W        W 7630  26.059  27.608   3.792
39213W        W 7631  16.112  17.736   2.853
39214W        W 7632  22.729  27.510  12.360
39215W        W 7633  42.024   5.353   2.268
39216W        W 7634  28.947  31.541   1.860
39217W        W 7635   7.871  44.444  13.537
39218W        W 7636   3.746  35.895  10.444
39219W        W 7637  36.057  20.721   1.748
39220W        W 7638  24.974   7.210   1.449
39221W        W 7639  28.666  40.366  14.878
39222W        W 7640  34.928   9.772  13.049
39223W        W 7641  38.417  29.028  10.960
39224W        W 7642   7.880  28.641   3.654
39225W        W 7643  25.984  17.557  11.388
39226W        W 7644   4.236  15.127  10.466
39227W        W 7645  31.453  25.671   0.257
39228W        W 7646  44.768   3.909   0.879
39229W        W 7647  40.851  39.845   2.663
39230W        W 7648  33.955   1.767  10.449
39231W        W 7649  19.214  36.509  13.860
39232W        W 7650  33.060   6.220   2.209
39233W        W 7651  30.954  37.387   3.684
39234W        W 7652  24.184  14.299   1.862
39235W        W 7653   2.811  14.182   5.182
39236W        W 7654  36.876   1.901  13.930
39237W        W 7655  16.128  37.943   0.963
39238W        W 7656  36.447  40.340   3.653
39239W        W 7657   8.703  21.608  12.520
39240W        W 7658  16.198  44.959   2.344
39241W        W 7659  21.669  28.552   2.267
39242W        W 7660  15.270  34.380  10.943
39243W        W 7661  16.626   4.258   1.263
39244W        W 7662   3.835   5.319   1.432
39245W        W 7663  25.192   4.855   0.316
39246W        W 7664  34.064  15.660   0.479
39247W        W 7665  27.988  37.021   0.889
39248W        W 7666  30.125  13.816  13.989
39249W        W 7667  10.199  40.904   1.842
39250W        W 7668   1.975   7.856   4.692
39251W        W 7669   6.733   2.953   1.922
39252W        W 7670  11.834  38.424  12.383
39253W        W 7671  30.644  15.223   1.923
39254W        W 7672  22.590  10.161   0.878
39255W        W 7673  19.182  30.590  12.500
39256W        W 7674  19.712   7.340  10.469
39257W        W 7675   2.725   4.289   2.826
39258W        W 7676  38.023  18.645  10.933
39259W        W 7677  33.559  41.802  14.899
39260W        W 7678   1.376  44.954  12.512
39261W        W 7679  21.521  43.017   0.371
39262W        W 7680  30.490  13.115  13.032
39263W        W 7681  16.639  30.595  14.433
39264W        W 7682  14.690  30.469  12.496
39265W        W 7683  37.865  28.965   0.275
39266W        W 7684  15.787  25.156  12.950
39267W        W 7685  12.821  26.660  13.063
39268W        W 7686  42.007  32.595  14.935
39269W        W 7687  23.584  39.393  14.964
39270W        W 7688  32.416   4.793   0.756
39271W        W 7689  19.630   5.382   3.286
39272W        W 7690   0.890  23.534   3.757
39273W        W 7691  39.527  23.650   0.321
39274W        W 7692  21.673   1.777  12.425
39275W        W 7693   4.916   5.306  14.861
39276W        W 7694   4.773   6.259   5.094
39277W        W 7695  24.488  33.502  13.448
39278W        W 7696   3.932  43.494   0.955
39279W        W 7697   8.833  38.462  10.462
39280W        W 7698  30.519  20.095   2.306
39281W        W 7699  29.953  18.220  10.949
39282W        W 7700  28.613  11.731   3.751
39283W        W 7701   0.392  38.467  11.025
39284W        W 7702  18.689   8.672   2.222
39285W        W 7703  14.740  42.432  13.962
39286W        W 7704  15.654   5.432  14.799
39287W        W 7705  22.579  18.127  11.915
39288W        W 7706  36.486   9.302   1.410
39289W        W 7707  11.347   4.885  11.610
39290W        W 7708  37.540  27.566   3.213
39291W        W 7709  25.541   0.282   0.285
39292W        W 7710  30.024   0.880   2.764
39293W        W 7711  12.716  10.697   4.748
39294W        W 7712  25.555   0.978  11.877
39295W        W 7713  21.197  43.965  13.391
39296W        W 7714  33.937   6.376  11.916
39297W        W 7715  12.119  10.715   4.148
39298W        W 7716   5.408  10.703  10.474
39299W        W 7717  27.083  43.951   3.225
39300W        W 7718  29.558  21.183   0.471
39301W        W 7719  43.875  22.007   2.773
39302W        W 7720  39.002  35.089  12.556
39303W        W 7721   1.317  25.569   3.156
39304W        W 7722  29.523  18.709   1.331
39305W        W 7723  16.612   7.691   2.221
39306W        W 7724  27.122  17.196  10.960
39307W        W 7725  29.625   1.240  14.812
39308W        W 7726  16.109  44.780  12.521
39309W        W 7727   0.449  26.605   3.630
39310W        W 7728  28.099   0.936   0.894
39311W        W 7729  40.879  19.224   2.877
39312W        W 7730   4.931  24.194   3.727
39313W        W 7731  22.043  43.281  13.911
39314W        W 7732  12.652  22.084  11.008
39315W        W 7733  20.597  43.859  11.457
39316W        W 7734  37.982  25.008   2.337
39317W        W 7735  33.966  28.099  13.417
39318W        W 7736  23.692  31.047   1.738
39319W        W 7737  36.561  22.185   3.711
39320W        W 7738  42.510  18.278  14.806
39321W        W 7739  26.991  35.518  12.888
39322W        W 7740  28.956  41.888   2.766
39323W        W 7741  34.873  42.435   3.374
39324W        W 7742  42.885  16.080   3.345
39325W        W 7743   3.865   1.441   1.235
39326W        W 7744  42.801  20.703   1.778
39327W        W 7745  41.385  29.165   4.717
39328W        W 7746  42.804  20.554   1.258
39329W        W 7747  24.174  32.001   3.801
39330W        W 7748   2.268   2.351  12.444
39331W        W 7749  12.190  14.278   2.699
39332W        W 7750   8.844  34.958   3.211
39333W        W 7751  34.534  41.979  11.452
39334W        W 7752  41.358   4.708  13.972
39335W        W 7753  14.827  23.499   5.226
39336W        W 7754   4.718  33.875  10.602
39337W        W 7755  44.438   7.810  10.413
39338W        W 7756  20.681  24.097  11.029
39339W        W 7757  28.050  28.460  10.427
39340W        W 7758  30.931  25.210  14.009
39341W        W 7759  31.918  38.827   1.896
39342W        W 7760  33.493  18.119  13.399
39343W        W 7761  14.831  33.101  13.944
39344W        W 7762  12.782  32.103   2.290
39345W        W 7763  24.478  43.438   3.249
39346W        W 7764  39.964   3.345  10.405
39347W        W 7765  22.666   5.931   1.421
39348W        W 7766  10.783   4.911  13.530
39349W        W 7767  33.583  14.252  12.927
39350W        W 7768   5.898  15.266   2.383
39351W        W 7769  30.653  10.361  13.441
39352W        W 7770  43.822  18.233  12.483
39353W        W 7771  23.123   7.871   4.333
39354W        W 7772  34.955   4.800  12.026
39355W        W 7773  26.131  26.071   0.366
39356W        W 7774   1.475   8.263   2.269
39357W        W 7775   0.370  32.024   3.263
39358W        W 7776  37.863  29.133   1.314
39359W        W 7777  23.025  16.754  14.426
39360W        W 7778  40.453  26.953  12.527
39361W        W 7779  41.813  33.511  10.142
39362W        W 7780  31.897   1.318  12.556
39363W        W 7781  40.026  30.020   0.341
39364W        W 7782  25.515   4.745  13.377
39365W        W 7783  43.892  31.548   2.840
39366W        W 7784  34.489  12.734   3.334
39367W        W 7785  14.153   8.788   4.156
39368W        W 7786   9.739  37.872  12.548
39369W        W 7787   6.218  29.540  10.627
39370W        W 7788   3.253   8.364   3.286
39371W        W 7789  20.542  33.889   2.234
39372W        W 7790  21.528  34.076   1.333
39373W        W 7791  36.881  22.595   2.783
39374W        W 7792   5.770  31.444   2.184
39375W        W 7793  42.891  28.674  14.506
39376W        W 7794  23.178  36.386  10.994
39377W        W 7795   5.200   6.396   3.716
39378W        W 7796  19.204  24.612   1.216
39379W        W 7797   2.431   1.353  11.089
39380W        W 7798  25.589  10.357  10.075
39381W        W 7799  13.244   1.357  13.450
39382W        W 7800  40.908   4.711   4.165
39383W        W 7801  31.140  40.491   0.440
39384W        W 7802  33.442   9.156  14.969
39385W        W 7803  20.605  18.744  13.415
39386W        W 7804  26.517  24.021  13.819
39387W        W 7805  28.627  36.956  13.042
39388W        W 7806  43.913  28.940   1.756
39389W        W 7807   3.890  23.176  14.300
39390W        W 7808   9.378  38.055  12.095
39391W        W 7809   2.230  20.140  10.541
39392W        W 7810   0.831  23.097  12.579
39393W        W 7811  19.190   5.841  10.888
39394W        W 7812  21.263  28.093  11.575
39395W        W 7813  29.535  29.088  11.914
39396W        W 7814  41.883  27.470  14.513
39397W        W 7815  27.161  27.445  12.947
39398W        W 7816   8.167  27.017   3.217
39399W        W 7817  40.473  10.318  10.953
39400W        W 7818  21.620  31.475   3.822
39401W        W 7819  41.948  23.710  11.900
39402W        W 7820  40.384  28.963  11.609
39403W        W 7821  18.112  41.334  14.872
39404W        W 7822  12.238  30.540   3.203
39405W        W 7823  22.640  11.767   4.306
39406W        W 7824   4.738  32.973  14.383
39407W        W 7825  30.119  38.434   0.325
39408W        W 7826  23.717  16.740   4.144
39409W        W 7827  29.514  29.062   3.371
39410W        W 7828  22.718   3.220   3.689
39411W        W 7829   9.320  24.048  11.951
39412W        W 7830  40.415  23.509  10.006
39413W        W 7831  19.241  32.095   5.299
39414W        W 7832   3.914  25.004   4.830
39415W        W 7833   7.776  12.149   0.941
39416W        W 7834  34.054  39.901  10.468
39417W        W 7835  33.968  12.195  13.006
39418W        W 7836  21.019  33.595  14.516
39419W        W 7837  27.135  40.318   1.326
39420W        W 7838  25.151   4.341   3.339
39421W        W 7839  28.476  35.013   3.820
39422W        W 7840  27.647   5.274   3.273
39423W        W 7841  17.790  20.675  11.094
39424W        W 7842  12.794   8.703  11.469
39425W        W 7843  44.452  31.597   4.184
39426W        W 7844  15.640   7.352  12.039
39427W        W 7845  19.233  12.355   2.836
39428W        W 7846  25.013   9.197   1.739
39429W        W 7847  22.622  41.914   1.808
39430W        W 7848  12.157   6.763  12.039
39431W        W 7849   5.920  26.576   0.884
39432W        W 7850  20.746   9.818   0.256
39433W        W 7851  23.184  11.283  10.471
39434W        W 7852   6.298  39.405  12.093
39435W        W 7853  36.062   0.786   1.436
39436W        W 7854   3.925   7.291  14.296
39437W        W 7855  24.228  20.036   1.418
39438W        W 7856  25.619  28.437  11.010
39439W        W 7857   8.313  16.753  13.362
39440W        W 7858  44.908   7.313  10.529
39441W        W 7859  21.524  44.854   4.133
39442W        W 7860   8.834  32.567   3.309
39443W        W 7861   2.798  32.520   3.864
39444W        W 7862  12.779  36.876  14.495
39445W        W 7863   7.346   2.441   0.445
39446W        W 7864  35.503  25.477   2.841
39447W        W 7865  10.758  40.013  13.924
39448W        W 7866  33.489   5.700  13.938
39449W        W 7867  32.939   6.813   2.698
39450W        W 7868  34.970   7.378   5.320
39451W        W 7869   9.716  22.170  13.462
39452W        W 7870   7.363  14.804   3.337
39453W        W 7871   9.359  41.429  11.919
39454W        W 7872  34.073  44.458  11.087
39455W        W 7873  39.972   7.404   4.764
39456W        W 7874  23.634  28.540  11.597
39457W        W 7875  17.556  21.522  12.859
39458W        W 7876  37.048  41.882  11.441
39459W        W 7877  23.985   4.903  13.330
39460W        W 7878  41.307  32.925   1.935
39461W        W 7879  31.052   6.772   4.114
39462W        W 7880   9.275  13.320  14.980
39463W        W 7881  42.297   9.708  11.887
39464W        W 7882  38.861  27.597  10.456
39465W        W 7883  13.212  32.635   4.771
39466W        W 7884   6.687  18.251   0.870
39467W        W 7885  30.161   4.204  11.039
39468W        W 7886  19.557  31.558  14.438
39469W        W 7887   2.932   1.344  14.506
39470W        W 7888  24.594  31.629   1.877
39471W        W 7889  30.036   2.946  10.488
39472W        W 7890   7.334   3.456   1.754
39473W        W 7891  17.303  11.143  14.794
39474W        W 7892  41.993  18.103   2.417
39475W        W 7893  22.206  24.660  12.848
39476W        W 7894  42.864   0.458  13.508
39477W        W 7895  10.220  24.534  14.867
39478W        W 7896  12.626   1.240   1.916
39479W        W 7897  29.077  41.308  14.474
39480W        W 7898  38.028   0.429  13.983
39481W        W 7899   6.821  36.387  13.933
39482W        W 7900  38.941  32.436   2.246
39483W        W 7901   4.316  44.773   1.405
39484W        W 7902  26.074  22.728  11.074
39485W        W 7903  16.769  35.527   4.647
39486W        W 7904  31.433  11.766   4.138
39487W        W 7905  31.416  15.301   0.763
39488W        W 7906  24.658   9.332  11.568
39489W        W 7907  19.240  38.449   4.203
39490W        W 7908  20.120  38.915  11.903
39491W        W 7909  34.918   9.287  14.311
39492W        W 7910   0.434  41.012  11.504
39493W        W 7911   4.286  42.867   3.724
39494W        W 7912  33.128   2.316  14.997
39495W        W 7913  12.686  15.724   4.687
39496W        W 7914  25.029   4.725   3.783
39497W        W 7915  23.130  39.017   2.376
39498W        W 7916  33.885  11.813  12.967
39499W        W 7917   0.463   9.736  11.860
39500W        W 7918  16.590   0.273  12.573
39501W        W 7919  40.874  36.476  11.913
39502W        W 7920  21.527  39.517   2.220
39503W        W 7921  24.585  19.184  11.388
39504W        W 7922  44.486  32.547  10.955
39505W        W 7923  21.642  44.835  11.080
39506W        W 7924  43.952  35.503  10.409
39507W        W 7925  16.726  35.492  10.990
39508W        W 7926  36.351   7.238  14.892
39509W        W 7927  42.020  17.638   4.697
39510W        W 7928  40.357  11.856   0.453
39511W        W 7929   6.874  35.072   2.761
39512W        W 7930  23.539  12.785  11.397
39513W        W 7931  34.099   2.284   1.891
39514W        W 7932  43.339  44.259  14.917
39515W        W 7933  16.596  13.829   9.454
39516W        W 7934   6.302  20.732  13.002
39517W        W 7935  43.383  37.536   1.442
39518W        W 7936  37.994  12.749  10.962
39519W        W 7937  43.776  25.606  14.381
39520W        W 7938  11.359  25.616   1.275
39521W        W 7939  29.655  11.180  12.425
39522W        W 7940  17.744  34.077   3.680
39523W        W 7941  38.040   1.439   1.754
39524W        W 7942  23.213   1.471  11.488
39525W        W 7943  15.690   7.379   2.675
39526W        W 7944  40.376  29.519   1.825
39527W        W 7945  38.966  10.247   0.870
39528W        W 7946  29.106   2.926   1.432
39529W        W 7947  25.191   6.222   4.313
39530W        W 7948  44.288  29.621   2.203
39531W        W 7949  16.794  24.581   1.823
39532W        W 7950  14.724  18.556  11.610
39533W        W 7951  29.455   9.774  14.367
39534W        W 7952  10.232  12.222  14.482
39535W        W 7953  10.294   2.301   1.847
39536W        W 7954  35.529  13.623   4.139
39537W        W 7955  12.245  35.471   1.344
39538W        W 7956  37.372  38.367  12.965
39539W        W 7957  13.289  25.579   3.266
39540W        W 7958   6.389  18.122  12.399
39541W        W 7959   8.270   2.288  12.884
39542W        W 7960  20.232  12.251   1.740
39543W        W 7961   4.353  33.098   2.294
39544W        W 7962  23.645  26.116   2.314
39545W        W 7963  30.597  11.656   4.186
39546W        W 7964  26.618  12.350   2.263
39547W        W 7965   9.269  35.950   0.959
39548W        W 7966  23.159  14.136   2.366
39549W        W 7967  38.557  43.369  10.952
39550W        W 7968  12.843  20.254   1.871
39551W        W 7969  11.865  12.203   0.416
39552W        W 7970  28.127  14.304  10.478
39553W        W 7971  22.092  32.031   1.331
39554W        W 7972  13.673  26.977   3.726
39555W        W 7973  37.840  23.038  13.400
39556W        W 7974  11.752  18.231   4.728
39557W        W 7975  29.974  28.667  13.000
39558W        W 7976   7.380  15.783  12.364
39559W        W 7977   4.815   0.847  11.874
39560W        W 7978  38.880  14.178   1.861
39561W        W 7979  39.462  11.186  11.461
39562W        W 7980  33.606   1.866   3.353
39563W        W 7981  23.658  15.120   2.337
39564W        W 7982  30.036  30.978  11.043
39565W        W 7983  36.562  34.102   0.895
39566W        W 7984  28.043  28.949   4.814
39567W        W 7985  19.063  35.438  12.901
39568W        W 7986   7.239  28.510   1.264
39569W        W 7987  44.361   9.301  12.057
39570W        W 7988   3.259  18.663  10.899
39571W        W 7989  30.622  34.600  14.341
39572W        W 7990   0.423  29.435   2.733
39573W        W 7991  39.460  43.858   4.258
39574W        W 7992  17.688  31.043   3.230
39575W        W 7993  17.200  11.215  11.575
39576W        W 7994  35.948  30.632  10.513
39577W        W 7995  27.180  41.027  11.064
39578W        W 7996  12.276  35.445   4.794
39579W        W 7997   7.191  40.453  13.992
39580W        W 7998  10.312  13.735   1.386
39581W        W 7999  20.620   3.357  13.508
39582W        W 8000  44.791  34.922   0.367
39583W        W 8001  13.275  12.626  10.416
39584W        W 8002  15.173  39.974  14.316
39585W        W 8003  16.222  34.395   1.767
39586W        W 8004   6.315  18.778  11.039
39587W        W 8005  24.696  30.044   3.837
39588W        W 8006  21.172  26.023   1.238
39589W        W 8007  44.841  41.376   2.897
39590W        W 8008  33.070  34.113   3.733
39591W        W 8009  24.203  30.536   5.266
39592W        W 8010  13.714   2.227   2.313
39593W        W 8011  34.964  40.820   4.707
39594W        W 8012   0.781  19.212  12.408
39595W        W 8013  42.369   7.339  11.016
39596W        W 8014  27.981   0.770   3.299
39597W        W 8015  25.595  25.021  10.490
39598W        W 8016  21.647  21.052  11.427
39599W        W 8017  30.926   9.315  10.503
39600W        W 8018  11.823  19.678  14.489
39601W        W 8019  37.422  40.466   2.405
39602W        W 8020  35.424  37.376  11.571
39603W        W 8021  34.377  12.296   1.328
39604W        W 8022  13.810  36.479   0.765
39605W        W 8023  11.787  29.447  11.894
39606W        W 8024   6.304  15.592   3.833
39607W        W 8025  44.906   4.404   4.333
39608W        W 8026  11.625  23.597   4.209
39609W        W 8027  43.351   8.405  12.980
39610W        W 8028  42.435  37.406   3.811
39611W        W 8029  27.589  44.264   0.282
39612W        W 8030  18.087  22.573  13.449
39613W        W 8031  16.618  33.598   4.670
39614W        W 8032  25.686  35.939   4.783
39615W        W 8033  11.797   7.259   4.767
39616W        W 8034  28.099  24.673  11.423
39617W        W 8035   0.440  31.441  14.379
39618W        W 8036   3.728   5.882  13.884
39619W        W 8037  25.626  15.608   2.710
39620W        W 8038  21.520  34.411  10.566
39621W        W 8039  34.872  16.213   2.232
39622W        W 8040  30.132   1.977  11.607
39623W        W 8041  33.076  36.520   4.331
39624W        W 8042  36.411  34.086  12.361
39625W        W 8043  21.035  44.817   1.723
39626W        W 8044   5.770   2.250  14.356
39627W        W 8045  22.611  23.038  11.867
39628W        W 8046  44.937  14.713  12.963
39629W        W 8047  18.659  17.292   1.819
39630W        W 8048   6.240  20.742  13.422
39631W        W 8049  16.604  27.941  12.980
39632W        W 8050   3.300  32.049   2.386
39633W        W 8051  30.104  23.027   1.918
39634W        W 8052  34.546  36.515   1.221
39635W        W 8053  24.686  33.077  10.491
39636W        W 8054  23.659   8.366  13.335
39637W        W 8055   7.385   2.965   1.296
39638W        W 8056  29.937  29.166  14.465
39639W        W 8057  27.950  44.386  12.530
39640W        W 8058  14.684   9.880  14.845
39641W        W 8059  41.842  10.802   2.260
39642W        W 8060   8.803  13.345   3.735
39643W        W 8061  41.450  42.995   3.351
39644W        W 8062  28.481  12.195  12.036
39645W        W 8063   5.350  23.200  14.290
39646W        W 8064  16.242   0.908  12.051
39647W        W 8065  10.364  19.053   1.804
39648W        W 8066  43.500  38.457   5.285
39649W        W 8067  20.255  31.109  14.997
39650W        W 8068  16.773   6.701  10.479
39651W        W 8069   1.752  11.860   2.665
39652W        W 8070  21.537  41.390  11.072
39653W        W 8071  19.702   1.891   0.452
39654W        W 8072   2.765  44.402  10.615
39655W        W 8073   7.230  44.995  12.515
39656W        W 8074  28.143  35.471   1.789
39657W        W 8075  12.142  36.924   0.412
39658W        W 8076  16.641  42.314  12.369
39659W        W 8077   2.287  17.090   0.901
39660W        W 8078  11.825  31.617  12.063
39661W        W 8079  34.076  34.009  12.914
39662W        W 8080  30.164  26.980  11.947
39663W        W 8081  41.988  24.723  10.511
39664W        W 8082  15.687  42.462   2.714
39665W        W 8083  42.506  21.737   3.386
39666W        W 8084  39.379   7.770  10.461
39667W        W 8085  40.547  36.959   3.689
39668W        W 8086  15.806  36.392   2.726
39669W        W 8087  36.401   1.849  14.478
39670W        W 8088  21.118  11.352   1.324
39671W        W 8089   4.911  23.561   2.190
39672W        W 8090  18.658  41.359  13.337
39673W        W 8091   3.320   5.348   0.757
39674W        W 8092   2.737  33.401  14.277
39675W        W 8093   9.358   3.955  14.329
39676W        W 8094   7.665   1.347  10.591
39677W        W 8095  18.710  14.623  11.403
39678W        W 8096  17.711  42.444   4.120
39679W        W 8097  26.070   3.923  12.051
39680W        W 8098  31.978  27.655   2.813
39681W        W 8099  18.260   5.757  13.857
39682W        W 8100  13.305  10.328   2.192
39683W        W 8101   7.303  37.062  10.941
39684W        W 8102  44.394  24.043  13.927
39685W        W 8103   4.440  27.559  11.418
39686W        W 8104  25.164   6.814   2.323
39687W        W 8105   0.491  17.183  12.951
39688W        W 8106  12.292  36.976  11.027
39689W        W 8107  29.124  26.698   1.368
39690W        W 8108   1.938  38.916   4.649
39691W        W 8109  28.028  30.450   1.348
39692W        W 8110  38.559  15.588  14.425
39693W        W 8111  32.019  40.816  11.478
39694W        W 8112   0.756  33.059   4.214
39695W        W 8113  24.689  23.140  12.899
39696W        W 8114  18.640  18.616   3.267
39697W        W 8115  15.315  12.142  10.600
39698W        W 8116  26.687  29.563  13.512
39699W        W 8117  44.272  11.810  10.460
39700W        W 8118  21.618  30.473   0.271
39701W        W 8119  44.403  38.953   2.244
39702W        W 8120  23.494   2.319  13.418
39703W        W 8121   4.716  25.688  12.858
39704W        W 8122   6.756  11.317  14.801
39705W        W 8123  39.427   6.386   2.341
39706W        W 8124  42.499   8.404  13.501
39707W        W 8125   9.654  44.471   4.658
39708W        W 8126  14.128   2.428  11.561
39709W        W 8127  37.957  36.348  13.539
39710W        W 8128  16.186  13.310   1.823
39711W        W 8129  13.699  43.471  13.014
39712W        W 8130  39.513  27.975  12.543
39713W        W 8131  12.782   2.248  13.310
39714W        W 8132  10.659  21.225  14.009
39715W        W 8133  15.260  12.117  14.941
39716W        W 8134   6.341  34.949   4.192
39717W        W 8135  13.178  15.101   3.182
39718W        W 8136  18.749  39.029   1.763
39719W        W 8137  15.618  30.907   9.940
39720W        W 8138  11.627  27.570  13.501
39721W        W 8139  40.525   5.319  13.530
39722W        W 8140   4.351  22.551   2.264
39723W        W 8141  20.530  13.656  11.053
39724W        W 8142  12.640  22.636   2.418
39725W        W 8143  40.844   1.309   3.690
39726W        W 8144  14.264  33.421   2.671
39727W        W 8145  35.585  39.831   4.659
39728W        W 8146   5.876  14.184   2.369
39729W        W 8147   6.238  41.027   1.249
39730W        W 8148  41.886  26.030  13.880
39731W        W 8149  26.486   0.318   1.228
39732W        W 8150  18.701  15.760   4.242
39733W        W 8151  14.589  13.336   2.892
39734W        W 8152  22.213  10.230   4.126
39735W        W 8153  42.932   9.188  13.965
39736W        W 8154  31.483   3.891  13.795
39737W        W 8155  44.948  22.060   2.870
39738W        W 8156  42.935   6.819  12.373
39739W        W 8157   8.403  39.030   2.405
39740W        W 8158  29.066  19.708   0.934
39741W        W 8159  10.245  25.561  14.291
39742W        W 8160  27.646   8.396   4.830
39743W        W 8161  44.980  13.636  12.950
39744W        W 8162  35.429  25.036   3.842
39745W        W 8163  29.622  37.960   2.814
39746W        W 8164  42.028  34.950  13.929
39747W        W 8165  28.650  40.835   2.872
39748W        W 8166  42.311   9.880  14.800
39749W        W 8167  20.250  41.942  11.065
39750W        W 8168  32.556  12.818  11.595
39751W        W 8169  41.395  27.487  12.482
39752W        W 8170  25.039  39.381   2.874
39753W        W 8171  34.435  25.994   0.786
39754W        W 8172  34.485  30.492  13.501
39755W        W 8173  11.318  37.542   0.734
39756W        W 8174  10.657  22.179  10.590
39757W        W 8175   6.389  36.536   4.253
39758W        W 8176  27.603  15.744  10.061
39759W        W 8177  35.406  33.522   2.760
39760W        W 8178  41.337   0.326  10.522
39761W        W 8179   0.278  11.266   1.844
39762W        W 8180  12.352  22.142   0.284
39763W        W 8181  33.042  14.667   4.617
39764W        W 8182  30.931  37.500   4.202
39765W        W 8183   4.897   0.900  14.896
39766W        W 8184  21.523  26.556   0.935
39767W        W 8185  44.405   0.351  13.452
39768W        W 8186  23.490  30.951   4.348
39769W        W 8187  11.707   5.322   3.180
39770W        W 8188  31.027  33.874   2.835
39771W        W 8189  42.487  35.882   1.808
39772W        W 8190  29.585  27.161   1.884
39773W        W 8191  24.605  34.070  14.028
39774W        W 8192  11.300  21.704  14.319
39775W        W 8193  18.723  24.592   1.782
39776W        W 8194  11.353  38.559  14.338
39777W        W 8195  32.632  27.552  13.380
39778W        W 8196  30.961  16.240   2.685
39779W        W 8197  29.167  15.306  10.558
39780W        W 8198  16.319  44.354  13.828
39781W        W 8199  15.256   6.396   4.739
39782W        W 8200  14.746   4.939  12.430
39783W        W 8201  21.211   4.710   3.680
39784W        W 8202  13.725  32.924  14.353
39785W        W 8203  38.560  14.184   3.767
39786W        W 8204  22.089  37.435  11.900
39787W        W 8205   3.857  25.983   4.724
39788W        W 8206  44.827  18.278  14.331
39789W        W 8207  14.172   2.437  12.985
39790W        W 8208   0.285  39.490  14.826
39791W        W 8209  39.315  17.625   0.452
39792W        W 8210  15.663   6.427  13.885
39793W        W 8211  41.429  13.227  12.989
39794W        W 8212   8.882  19.227   2.902
39795W        W 8213  43.351  37.884  11.594
39796W        W 8214   4.339  40.468  10.923
39797W        W 8215  41.999  37.406  14.495
39798W        W 8216  34.415  35.060  11.118
39799W        W 8217  11.681  18.581   3.684
39800W        W 8218  41.328  24.667  14.846
39801W        W 8219  40.936   3.733  12.062
39802W        W 8220   3.370   9.217  12.840
39803W        W 8221  39.033   8.328   3.749
39804W        W 8222  14.138  44.443   0.941
39805W        W 8223  26.531  21.697  11.555
39806W        W 8224  34.099  29.538  13.394
39807W        W 8225  36.082   4.851   2.197
39808W        W 8226  22.026  36.092   4.157
39809W        W 8227   6.742  32.102   3.193
39810W        W 8228  15.310  34.981   1.756
39811W        W 8229  18.200  34.372  12.063
39812W        W 8230   9.732  32.409   3.832
39813W        W 8231  32.034  10.376  13.887
39814W        W 8232  28.678  36.996   0.925
39815W        W 8233  36.386   0.940  13.998
39816W        W 8234  36.591  13.179  12.365
39817W        W 8235  26.034  23.543   4.185
39818W        W 8236  25.593  14.249  11.000
39819W        W 8237  35.080  26.505  13.409
39820W        W 8238  43.458  15.301   1.772
39821W        W 8239  43.315  38.542   2.324
39822W        W 8240  33.384   8.666   4.643
39823W        W 8241  17.155  26.461   3.235
39824W        W 8242   9.296  10.753   4.196
39825W        W 8243  10.309  44.281   0.357
39826W        W 8244  42.880   4.852   2.821
39827W        W 8245  38.827  41.359   1.401
39828W        W 8246  29.114  16.285  10.643
39829W        W 8247  20.131  22.215   3.149
39830W        W 8248  23.611  10.694  13.371
39831W        W 8249  26.649   3.277  14.920
39832W        W 8250   9.300  33.952   2.754
39833W        W 8251  13.680   6.405  14.422
39834W        W 8252   7.373  30.982  11.919
39835W        W 8253  24.210  44.337   4.253
39836W        W 8254  38.524  29.655   3.328
39837W        W 8255  29.600  22.613  12.049
39838W        W 8256  43.939  12.679   0.291
39839W        W 8257  17.607  27.590  12.453
39840W        W 8258   3.810  28.511  14.422
39841W        W 8259  29.662  22.073   2.772
39842W        W 8260  15.773   5.911  14.809
39843W        W 8261  23.985  36.063  14.892
39844W        W 8262  25.081   0.894  14.306
39845W        W 8263  32.031  38.065   5.223
39846W        W 8264  41.862  40.952   1.212
39847W        W 8265  31.086  36.993   0.475
39848W        W 8266  10.194   1.418  12.425
39849W        W 8267  21.713  37.436   1.269
39850W        W 8268  13.780  20.217   4.139
39851W        W 8269  39.435  32.473  14.418
39852W        W 8270  29.029  34.395  14.412
39853W        W 8271  17.258  37.382   3.254
39854W        W 8272   6.833  27.592  10.488
39855W        W 8273   1.406  33.617  14.028
39856W        W 8274  41.424  29.146  13.941
39857W        W 8275  32.995  16.169  11.110
39858W        W 8276  25.181   4.287   1.745
39859W        W 8277  37.961   1.911  13.899
39860W        W 8278  39.862  14.832   3.825
39861W        W 8279  14.336  33.084  13.835
39862W        W 8280  12.648   5.347  13.012
39863W        W 8281   5.862  18.641   2.683
39864W        W 8282  42.781  31.094  10.531
39865W        W 8283  14.683  12.260  11.427
39866W        W 8284  43.407  14.292  10.150
39867W        W 8285  25.067  44.412   0.956
39868W        W 8286   7.887  33.546   4.795
39869W        W 8287  36.990  39.949   0.452
39870W        W 8288  29.515  18.744   3.254
39871W        W 8289  25.496  27.082  12.069
39872W        W 8290  17.080   0.956  14.835
39873W        W 8291   3.757  39.324  14.862
39874W        W 8292  37.445  24.595  11.550
39875W        W 8293  18.250  15.798  14.378
39876W        W 8294  29.448  38.560  13.861
39877W        W 8295  43.992  25.126   2.784
39878W        W 8296   5.934  34.601   2.761
39879W        W 8297  17.190   0.393  11.975
39880W        W 8298   2.285  30.096  14.344
39881W        W 8299  39.910  10.800  10.434
39882W        W 8300  41.312  25.525  11.539
39883W        W 8301  31.488   3.902   1.727
39884W        W 8302  29.154   6.756   3.283
39885W        W 8303  18.593  36.893   2.329
39886W        W 8304  17.633  34.068   4.320
39887W        W 8305  38.948  21.746   1.705
39888W        W 8306  27.180  28.103  14.957
39889W        W 8307  40.842  30.487   3.172
39890W        W 8308  35.602   5.209  14.443
39891W        W 8309  40.359  38.435   0.750
39892W        W 8310  41.381  44.416  10.944
39893W        W 8311  42.424   9.875   3.712
39894W        W 8312   2.467  18.559  10.560
39895W        W 8313  35.859  25.187   4.192
39896W        W 8314  23.689  23.059  10.936
39897W        W 8315   3.227  21.247  13.328
39898W        W 8316  26.196  38.954   1.392
39899W        W 8317   2.857  32.925   4.308
39900W        W 8318  41.795  18.069   0.470
39901W        W 8319   0.765  31.593  11.508
39902W        W 8320  32.446  12.307  14.345
39903W        W 8321  31.505  44.416  13.489
39904W        W 8322  36.878  44.882   1.793
39905W        W 8323  20.169  35.971  14.339
39906W        W 8324  21.243  13.762   0.300
39907W        W 8325  30.049  27.667  14.300
39908W        W 8326  44.369  18.715   2.793
39909W        W 8327  10.234  39.981   3.379
39910W        W 8328  39.339  42.985  10.975
39911W        W 8329  11.198  23.732  12.515
39912W        W 8330  24.119  29.120  10.933
39913W        W 8331   2.341  20.614   1.266
39914W        W 8332  17.175  17.692  13.415
39915W        W 8333  39.037  20.163  10.529
39916W        W 8334  19.082  37.035  12.939
39917W        W 8335  35.378  30.476  11.034
39918W        W 8336  34.888  39.860  12.044
39919W        W 8337  34.472  10.874   1.368
39920W        W 8338  38.912   6.312  13.489
39921W        W 8339  37.459   0.912   5.172
39922W        W 8340  24.191   1.818  11.869
39923W        W 8341  24.485  43.890  13.347
39924W        W 8342  28.009  18.667   1.355
39925W        W 8343  29.143  26.157   0.276
39926W        W 8344  23.509  28.089   2.723
39927W        W 8345  27.143  10.866  10.938
39928W        W 8346  27.033  39.502  10.961
39929W        W 8347  10.159  10.138   3.791
39930W        W 8348  20.102  40.402   4.804
39931W        W 8349  20.743  16.125   4.701
39932W        W 8350   2.759   3.726   3.822
39933W        W 8351   7.233   2.828  13.832
39934W        W 8352  30.969  22.185   0.332
39935W        W 8353  10.335  38.402  11.395
39936W        W 8354   8.831  16.594   2.669
39937W        W 8355  41.861   6.349   3.261
39938W        W 8356  28.475  42.864  12.920
39939W        W 8357   7.211   0.362   1.367
39940W        W 8358  38.046  29.933   4.287
39941W        W 8359   9.860  16.784  13.347
39942W        W 8360  25.172  33.886  11.973
39943W        W 8361  38.977  12.721  14.514
39944W        W 8362  28.950  15.296   1.233
39945W        W 8363  11.853  16.144   1.805
39946W        W 8364  42.000  28.464   3.636
39947W        W 8365  26.081  31.936  14.428
39948W        W 8366   6.214  12.630   4.765
39949W        W 8367  39.834  18.220   3.844
39950W        W 8368   3.266  31.123   1.762
39951W        W 8369  36.452  29.088   1.308
39952W        W 8370   3.243  15.191  13.055
39953W        W 8371  19.102   6.408  10.418
39954W        W 8372  20.730  44.960   3.375
39955W        W 8373  19.544  30.647   4.332
39956W        W 8374   5.287  19.155   0.292
39957W        W 8375  21.129  34.041  11.055
39958W        W 8376  10.705  28.668  11.872
39959W        W 8377  36.969   8.849   2.791
39960W        W 8378  27.447  35.388   1.763
39961W        W 8379  41.393  36.059  11.520
39962W        W 8380  44.946  30.152   4.172
39963W        W 8381  37.944  20.048  14.902
39964W        W 8382   4.930  32.056  11.101
39965W        W 8383   4.214  41.897   3.788
39966W        W 8384  41.371   5.801   3.695
39967W        W 8385   8.692  21.718   2.702
39968W        W 8386  35.446  24.720   1.278
39969W        W 8387  40.815   3.914   4.321
39970W        W 8388  18.054  44.322  13.987
39971W        W 8389  16.307  42.833  12.045
39972W        W 8390  24.041  40.422  14.387
39973W        W 8391  44.962   6.865   4.681
39974W        W 8392  26.162  18.119  14.457
39975W        W 8393  22.683  32.032  12.985
39976W        W 8394  24.577  11.829   1.904
39977W        W 8395  15.092  11.276  13.980
39978W        W 8396  11.233  10.293  14.918
39979W        W 8397  15.667   0.781  10.458
39980W        W 8398  39.474   5.218   1.220
39981W        W 8399  24.572  37.046   2.277
39982W        W 8400  10.854  14.681   1.718
39983W        W 8401  12.825   0.311   3.309
39984W        W 8402  11.795  20.080  14.982
39985W        W 8403  42.392   6.287  11.031
39986W        W 8404   9.166   9.644  10.567
39987W        W 8405  14.263  13.132   2.726
39988W        W 8406   3.358  28.970  10.438
39989W        W 8407  30.491  39.031  14.000
39990W        W 8408  12.675   6.315   4.630
39991W        W 8409  34.534  35.052   3.637
39992W        W 8410   0.319   6.217   0.930
39993W        W 8411  31.977  38.073  13.425
39994W        W 8412  39.407  11.675  14.781
39995W        W 8413   0.814  37.469   2.352
39996W        W 8414   0.457  35.871   4.642
39997W        W 8415  25.560  31.907   1.722
39998W        W 8416   9.878  23.084   0.345
39999W        W 8417  17.801   0.887   3.223
40000W        W 8418  36.966   9.824   4.764
40001W        W 8419  44.985  36.036  13.544
40002W        W 8420  38.371  26.483  11.407
40003W        W 8421   4.377  36.888   3.379
40004W        W 8422  24.704   0.854   2.206
40005W        W 8423  30.641   1.450   4.772
40006W        W 8424  18.289  33.931   2.825
40007W        W 8425  17.589   9.669  10.412
40008W        W 8426  40.468  39.045   5.178
40009W        W 8427   9.714  35.902   4.760
40010W        W 8428  41.964   9.186   3.300
40011W        W 8429   3.839  40.378   1.791
40012W        W 8430  16.604  23.150   2.207
40013W        W 8431  44.963  12.119  13.891
40014W        W 8432   6.688  20.150  12.984
40015W        W 8433  31.045  24.598   0.857
40016W        W 8434  35.009  36.404  10.933
40017W        W 8435  43.382   3.420   3.304
40018W        W 8436  16.317   4.840  11.921
40019W        W 8437   5.835  19.767   4.701
40020W        W 8438  14.736  30.637  11.070
40021W        W 8439   6.720  14.175  11.434
40022W        W 8440  38.044  22.616   3.700
40023W        W 8441  20.660  43.925  13.001
40024W        W 8442  13.713   4.861  12.838
40025W        W 8443  14.201  25.692  12.453
40026W        W 8444   6.407  34.114  11.877
40027W        W 8445  43.293  28.014  11.042
40028W        W 8446  21.021  26.053   5.787
40029W        W 8447  13.717  14.109   0.797
40030W        W 8448  39.367  16.150  14.403
40031W        W 8449  44.312  15.127  14.934
40032W        W 8450  36.545  20.719  12.039
40033W        W 8451  28.670   9.394  10.518
40034W        W 8452   6.713  27.986   1.290
40035W        W 8453  38.949  17.241   1.298
40036W        W 8454   0.780   8.367  14.354
40037W        W 8455  21.158   8.814  11.865
40038W        W 8456  32.932  42.906  12.514
40039W        W 8457  30.563  37.830   3.381
40040W        W 8458  28.016   0.887   1.801
40041W        W 8459  21.651   2.392   4.706
40042W        W 8460  38.481  25.036   3.732
40043W        W 8461  31.117  28.494  13.965
40044W        W 8462  26.982  25.218  11.466
40045W        W 8463  13.242  27.626  12.915
40046W        W 8464   8.333  36.371   1.900
40047W        W 8465   1.757  34.976   4.124
40048W        W 8466  28.614  22.693  12.884
40049W        W 8467  35.973  33.082   4.599
40050W        W 8468   1.268  35.390   4.690
40051W        W 8469  25.581  42.322   1.826
40052W        W 8470   7.901   1.434   4.282
40053W        W 8471   9.342  12.235  14.855
40054W        W 8472   0.950  40.916  13.473
40055W        W 8473  31.136  38.336   4.332
40056W        W 8474  12.151  37.908  11.989
40057W        W 8475  20.123  26.968   1.228
40058W        W 8476  10.831  10.637   3.243
40059W        W 8477  25.590  41.970  11.980
40060W        W 8478   6.399  14.184  11.003
40061W        W 8479  39.446   8.190  14.344
40062W        W 8480  26.659  42.977  10.442
40063W        W 8481  12.245  39.470   2.803
40064W        W 8482  15.640  14.114   1.750
40065W        W 8483  23.068  38.063   3.299
40066W        W 8484  40.355  22.525   4.827
40067W        W 8485  10.176   4.889  10.938
40068W        W 8486   1.433  32.455  11.593
40069W        W 8487  18.738  27.139   1.388
40070W        W 8488   0.492  23.098  12.518
40071W        W 8489  28.525  20.742  13.980
40072W        W 8490  20.681  12.192  13.961
40073W        W 8491  11.639   5.784   2.790
40074W        W 8492  38.865   2.733  13.309
40075W        W 8493  26.043  11.280   0.379
40076W        W 8494  29.532   9.302   3.354
40077W        W 8495  21.697  42.938  11.515
40078W        W 8496  28.559  28.498   1.245
40079W        W 8497   1.770  36.452  14.937
40080W        W 8498  15.632  36.566  12.499
40081W        W 8499  20.251   8.811  14.345
40082W        W 8500  35.572  20.609   4.814
40083W        W 8501  26.608  38.432  11.423
40084W        W 8502   8.681  34.390   0.859
40085W        W 8503  38.880  23.003   1.408
40086W        W 8504  16.763   4.799   4.342
40087W        W 8505   7.294  37.903   4.769
40088W        W 8506  31.484  25.015   4.641
40089W        W 8507  17.560  32.635   0.339
40090W        W 8508  18.581  37.060  14.958
40091W        W 8509  10.683   6.238  12.567
40092W        W 8510  11.654  42.829   5.154
40093W        W 8511  36.881   5.432  11.400
40094W        W 8512  14.639   0.392  12.057
40095W        W 8513  29.556   5.395   4.148
40096W        W 8514  10.206  18.123   2.236
40097W        W 8515  30.415  24.001   1.738
40098W        W 8516  41.858  44.419  10.129
40099W        W 8517  20.207  35.597  10.610
40100W        W 8518  11.650  18.761  12.004
40101W        W 8519  23.513  43.844   4.263
40102W        W 8520  18.083  30.444  10.497
40103W        W 8521  28.581   8.707  13.943
40104W        W 8522  15.230  39.022   1.805
40105W        W 8523  26.625  26.649   0.897
40106W        W 8524  38.505   7.819  10.443
40107W        W 8525  20.097  12.154  12.851
40108W        W 8526  43.349  10.371   0.905
40109W        W 8527  11.312  37.469   4.133
40110W        W 8528   5.340   1.344   2.829
40111W        W 8529  32.077  22.557  11.063
40112W        W 8530   0.419  42.016   4.173
40113W        W 8531   7.758  37.422  10.923
40114W        W 8532  23.731  39.344   0.903
40115W        W 8533  36.353  31.901  12.402
40116W        W 8534  15.730  41.522   4.296
40117W        W 8535   1.478   5.748   1.879
40118W        W 8536  26.046   7.736  12.442
40119W        W 8537   8.807   8.849   3.360
40120W        W 8538  37.516  18.619   0.818
40121W        W 8539  21.185  40.975  10.539
40122W        W 8540  43.418  25.176  14.912
40123W        W 8541  39.346   5.249  11.035
40124W        W 8542   9.846  22.132  11.576
40125W        W 8543   4.289   7.698  14.777
40126W        W 8544  15.720  19.215  14.764
40127W        W 8545  22.151  12.693   0.858
40128W        W 8546  18.731   8.245  14.926
40129W        W 8547   2.413  24.049   2.796
40130W        W 8548  17.595  15.819  10.960
40131W        W 8549  18.222  12.308   3.858
40132W        W 8550  10.363   6.253   4.189
40133W        W 8551  23.653   4.220   0.284
40134W        W 8552  22.662  41.899   5.738
40135W        W 8553  16.623   4.888  14.302
40136W        W 8554  15.164  44.416   3.167
40137W        W 8555  26.537   2.254   4.264
40138W        W 8556  27.022  24.984   4.350
40139W        W 8557  43.369   2.457  13.870
40140W        W 8558  27.163   1.950  12.368
40141W        W 8559  41.536  43.454   0.347
40142W        W 8560  11.793  23.644   2.329
40143W        W 8561  13.780  18.767   4.300
40144W        W 8562  34.939  17.207  12.096
40145W        W 8563   9.840  38.519  13.993
40146W        W 8564  28.534  13.711   3.339
40147W        W 8565  34.020   3.247   0.900
40148W        W 8566  15.192  33.431  11.967
40149W        W 8567  28.023  17.256  14.944
40150W        W 8568  16.078  42.901   3.310
40151W        W 8569  43.354  42.888  11.033
40152W        W 8570  22.015  28.124  13.863
40153W        W 8571   9.782  19.062   0.950
40154W        W 8572  43.498   9.866   4.833
40155W        W 8573  44.877  40.996  11.497
40156W        W 8574  44.959  13.135   9.614
40157W        W 8575   2.826  15.598  12.935
40158W        W 8576   7.172  15.619  13.930
40159W        W 8577  40.845   2.909  12.840
40160W        W 8578   6.844  21.517  13.466
40161W        W 8579  23.502  38.874  14.008
40162W        W 8580  14.698  12.229   2.313
40163W        W 8581   1.359  36.842   3.757
40164W        W 8582  40.961  23.104  14.456
40165W        W 8583  42.917  30.421  13.951
40166W        W 8584   5.272   8.189  11.464
40167W        W 8585  21.188  29.042  12.092
40168W        W 8586  41.804  21.553  13.347
40169W        W 8587  25.065   0.410   1.824
40170W        W 8588  34.575  36.929   2.188
40171W        W 8589   2.306  36.582   1.821
40172W        W 8590  11.646  29.160  10.066
40173W        W 8591   7.267   0.297   0.365
40174W        W 8592  20.624   9.783  13.413
40175W        W 8593  35.891  29.585   0.456
40176W        W 8594  31.585   1.759  10.590
40177W        W 8595  23.519  22.563   3.766
40178W        W 8596  11.822  25.098  10.060
40179W        W 8597  23.082  16.762   3.665
40180W        W 8598  19.157  12.226   1.728
40181W        W 8599  12.829  23.666   0.880
40182W        W 8600   1.926  36.550   1.711
40183W        W 8601  15.810  34.543   3.641
40184W        W 8602   4.353   3.858   2.899
40185W        W 8603   1.400  30.576   4.790
40186W        W 8604   0.952  38.954   2.682
40187W        W 8605  13.608  32.480   0.285
40188W        W 8606  20.546  42.856  13.018
40189W        W 8607   5.423  10.143   3.340
40190W        W 8608  35.361  42.784  13.386
40191W        W 8609  30.559  18.108   2.367
40192W        W 8610  43.981   6.275  12.570
40193W        W 8611  37.524  35.375   2.200
40194W        W 8612   9.369  19.215  12.089
40195W        W 8613  23.554  21.632   0.457
40196W        W 8614  17.644  26.472   2.897
40197W        W 8615   4.920  17.167   3.282
40198W        W 8616  23.076  24.696  13.321
40199W        W 8617   0.967   0.402  13.851
40200W        W 8618  38.546   7.876   3.309
40201W        W 8619   3.894  39.857   3.225
40202W        W 8620  32.921  33.115   0.793
40203W        W 8621  29.152   6.839  13.944
40204W        W 8622   0.853  25.146  14.514
40205W        W 8623   1.736  15.176   3.287
40206W        W 8624  10.806   0.334  12.027
40207W        W 8625  25.079  43.010  14.780
40208W        W 8626   8.898  10.810   2.888
40209W        W 8627   6.724  33.020   1.830
40210W        W 8628  40.908  35.101  12.095
40211W        W 8629  41.414  39.480  14.292
40212W        W 8630   4.783   6.887   3.647
40213W        W 8631   4.917   4.830  10.931
40214W        W 8632  35.981   4.878   1.323
40215W        W 8633  32.983  19.558  13.542
40216W        W 8634  21.183  41.855   3.764
40217W        W 8635  22.708  36.991   1.848
40218W        W 8636   2.724  11.741  13.316
40219W        W 8637  43.380   3.391   0.368
40220W        W 8638  12.668  11.777  11.966
40221W        W 8639  26.700  30.934   2.761
40222W        W 8640   1.337   4.739  10.495
40223W        W 8641  31.970  20.057   4.790
40224W        W 8642  23.081  44.363  14.285
40225W        W 8643  16.611   7.790  14.417
40226W        W 8644  25.633  42.350  10.895
40227W        W 8645  13.674  24.091   2.796
40228W        W 8646  42.907  34.113  11.391
40229W        W 8647   2.375  35.938  10.132
40230W        W 8648  43.869  24.022   0.473
40231W        W 8649   4.832  42.957   3.740
40232W        W 8650  27.579   6.296   0.789
40233W        W 8651  13.772  41.846   0.403
40234W        W 8652  41.991  34.489   2.783
40235W        W 8653  43.513  34.015   2.343
40236W        W 8654   2.813  19.061   4.641
40237W        W 8655  44.931  38.902   4.162
40238W        W 8656   8.373   0.474  12.043
40239W        W 8657  41.959   1.450   1.919
40240W        W 8658  34.428  16.683  11.586
40241W        W 8659  20.578  22.069  14.890
40242W        W 8660  39.551  24.520   3.173
40243W        W 8661  10.325  40.852   4.214
40244W        W 8662  39.982  21.106  13.545
40245W        W 8663   6.425   1.940  11.062
40246W        W 8664   0.477  21.526   3.212
40247W        W 8665  33.001  39.015   0.335
40248W        W 8666   6.202  22.712   0.273
40249W        W 8667  26.200  23.732  13.382
40250W        W 8668   6.198  20.700   3.284
40251W        W 8669   3.732   1.415   0.435
40252W        W 8670   1.945  20.581   0.772
40253W        W 8671   2.896   5.310   2.251
40254W        W 8672  19.089  40.543   0.343
40255W        W 8673  29.098   7.260   2.406
40256W        W 8674  25.655  29.080   4.151
40257W        W 8675  42.872  34.561  10.459
40258W        W 8676   9.665   7.389   0.256
40259W        W 8677   2.952  41.039  11.992
40260W        W 8678  25.571  40.980   0.730
40261W        W 8679  23.230  28.631  10.504
40262W        W 8680  20.218  17.293   4.130
40263W        W 8681  25.141  30.558  10.537
40264W        W 8682   2.249   3.389   4.219
40265W        W 8683   6.349  38.878  12.951
40266W        W 8684   1.369  30.060   0.461
40267W        W 8685  19.137  15.590  12.399
40268W        W 8686  20.228  37.394  11.038
40269W        W 8687  35.090  33.500   2.313
40270W        W 8688  39.049   8.227  13.064
40271W        W 8689  32.540  22.574  13.382
40272W        W 8690  34.525  11.224   2.264
40273W        W 8691  16.683  16.688  12.014
40274W        W 8692   2.834  26.594  12.495
40275W        W 8693  12.786  36.491  14.504
40276W        W 8694  39.994  20.197   1.875
40277W        W 8695  26.963  33.127  12.478
40278W        W 8696  37.946  33.891   0.268
40279W        W 8697  38.334  32.535  12.072
40280W        W 8698  11.126  20.604  11.054
40281W        W 8699  31.583   7.186  11.991
40282W        W 8700  41.870   5.434  11.597
40283W        W 8701  31.033  35.541   0.269
40284W        W 8702  39.832   0.907   4.699
40285W        W 8703  12.635   2.739   4.235
40286W        W 8704  11.219  18.720  14.850
40287W        W 8705   9.291  31.402   0.358
40288W        W 8706  42.861  23.040   4.144
40289W        W 8707  26.460  43.907   4.789
40290W        W 8708  11.838   6.390   2.352
40291W        W 8709  13.724   1.318  14.946
40292W        W 8710  10.228  42.500  10.487
40293W        W 8711  16.281  31.970   3.338
40294W        W 8712  15.756  32.927  14.382
40295W        W 8713  15.182  25.565  11.886
40296W        W 8714   5.193  25.208  11.876
40297W        W 8715  23.503  40.361  10.919
40298W        W 8716  15.323   8.384  11.048
40299W        W 8717  39.545  31.417   3.850
40300W        W 8718  29.043  16.795  14.796
40301W        W 8719   8.819   0.362   2.742
40302W        W 8720  36.435  42.289  13.848
40303W        W 8721  32.500  20.167  13.830
40304W        W 8722  43.771  26.121   0.365
40305W        W 8723  23.209  16.677   0.355
40306W        W 8724  27.985  13.179  14.974
40307W        W 8725  33.432  21.597  11.427
40308W        W 8726  30.124  19.554   5.198
40309W        W 8727   7.695  26.052   0.464
40310W        W 8728  26.464   7.296   2.836
40311W        W 8729  27.176   7.792  13.354
40312W        W 8730  38.909  22.067  12.572
40313W        W 8731  13.826  39.438  13.892
40314W        W 8732  34.564  28.160   2.223
40315W        W 8733  24.093  17.769  14.436
40316W        W 8734  12.246   7.896  11.096
40317W        W 8735  29.139  31.507  13.372
40318W        W 8736   4.296   5.396   0.914
40319W        W 8737  40.535   8.208  10.927
40320W        W 8738   6.702  32.053   1.309
40321W        W 8739  30.627   4.257  10.455
40322W        W 8740  34.420  36.461   0.743
40323W        W 8741  17.273  33.114  12.388
40324W        W 8742   4.752  38.857  11.022
40325W        W 8743  11.735  40.993  10.473
40326W        W 8744  27.180  36.542   0.249
40327W        W 8745  14.829  21.526   0.334
40328W        W 8746  37.534  11.211  13.851
40329W        W 8747  24.165  32.944  10.576
40330W        W 8748  22.133  41.959  14.781
40331W        W 8749  16.720   2.378  10.921
40332W        W 8750  36.437  16.716  13.958
40333W        W 8751  24.213  31.559  13.376
40334W        W 8752  31.642  12.712   1.708
40335W        W 8753  43.513   4.238  11.497
40336W        W 8754  15.631  36.990   2.887
40337W        W 8755  30.610   8.728   4.616
40338W        W 8756   8.807  12.134  13.345
40339W        W 8757  39.526  12.704   4.307
40340W        W 8758   1.388  26.987   2.397
40341W        W 8759  20.042  39.530   0.790
40342W        W 8760  19.048  36.444   2.839
40343W        W 8761  11.153   2.356  11.380
40344W        W 8762  23.027  21.598   0.471
40345W        W 8763  33.468  34.549   3.849
40346W        W 8764  17.151   1.782   0.909
40347W        W 8765  30.936  43.486   2.231
40348W        W 8766   6.405  27.616   4.273
40349W        W 8767  28.160  42.779   0.246
40350W        W 8768  17.067  35.428   2.882
40351W        W 8769  26.493  36.475  13.406
40352W        W 8770  13.222  26.027  10.926
40353W        W 8771   6.224   6.769  11.114
40354W        W 8772  44.942  36.567  11.028
40355W        W 8773  26.650  10.730   2.702
40356W        W 8774  34.987  15.768  10.558
40357W        W 8775  34.398  18.269   0.766
40358W        W 8776  10.845   5.347   2.864
40359W        W 8777  44.929  22.631   9.483
40360W        W 8778  36.936  28.474  14.881
40361W        W 8779  20.613  36.075   0.379
40362W        W 8780  41.292   4.853   2.804
40363W        W 8781  24.211  17.087  10.493
40364W        W 8782  16.231  21.027  12.384
40365W        W 8783   8.691  19.575   3.814
40366W        W 8784  13.229   6.698   3.637
40367W        W 8785   8.169  14.604   3.211
40368W        W 8786  21.186  13.183   3.684
40369W        W 8787   3.420  21.604   4.276
40370W        W 8788  22.501   2.908  13.837
40371W        W 8789  12.297  40.944   1.315
40372W        W 8790  10.324  42.854   1.416
40373W        W 8791  14.771  23.084  14.396
40374W        W 8792  25.635  34.951   3.203
40375W        W 8793  31.421  15.697   4.760
40376W        W 8794  11.862  11.637   0.915
40377W        W 8795  41.818   4.757  12.923
40378W        W 8796  43.017   1.310   2.787
40379W        W 8797  17.118  17.677   2.275
40380W        W 8798   4.942  41.836   1.257
40381W        W 8799  24.048   5.870   1.241
40382W        W 8800   5.733  43.433   2.762
40383W        W 8801  15.729   7.240  14.407
40384W        W 8802   8.776  30.064   1.737
40385W        W 8803  10.718   2.268   1.784
40386W        W 8804  41.026  20.764   4.282
40387W        W 8805  18.695  37.955   1.366
40388W        W 8806  20.040  36.869   0.466
40389W        W 8807  26.160   5.822  11.579
40390W        W 8808  15.667   4.922  13.005
40391W        W 8809  23.219  40.451  14.476
40392W        W 8810  29.136   0.402  11.576
40393W        W 8811  24.649  42.302  14.393
40394W        W 8812  35.408   1.335  13.508
40395W        W 8813  20.216  39.497  13.539
40396W        W 8814   4.303  41.962  14.492
40397W        W 8815  13.696  42.385   2.770
40398W        W 8816   6.318  11.778   4.125
40399W        W 8817  10.797  17.608   2.884
40400W        W 8818  15.314   9.264  11.398
40401W        W 8819  31.148   3.219  13.436
40402W        W 8820  25.967  21.044  10.477
40403W        W 8821  33.453  33.926  12.082
40404W        W 8822   1.735   2.839  11.518
40405W        W 8823  29.170  23.513   3.733
40406W        W 8824  40.870  22.504  12.989
40407W        W 8825  17.685  25.991  12.906
40408W        W 8826   1.896   7.250   2.286
40409W        W 8827  24.199  32.534   1.869
40410W        W 8828  23.154  14.148   1.415
40411W        W 8829  16.762  44.482  12.394
40412W        W 8830  30.612  23.536  12.443
40413W        W 8831  25.016  10.231   1.428
40414W        W 8832  16.274  10.834  13.308
40415W        W 8833  10.753  38.427   3.755
40416W        W 8834  41.984  13.237   4.350
40417W        W 8835   3.717  43.488   3.198
40418W        W 8836  26.670   3.358  12.552
40419W        W 8837  25.150  19.285  13.983
40420W        W 8838   1.464  11.775   2.233
40421W        W 8839  41.319   5.910  14.836
40422W        W 8840  12.160   0.458   1.249
40423W        W 8841   5.312  40.520   1.213
40424W        W 8842  16.285  17.799   0.445
40425W        W 8843   3.362   2.369   4.827
40426W        W 8844  35.914   9.231  13.307
40427W        W 8845  24.529  37.469   2.390
40428W        W 8846   9.774  35.439  11.510
40429W        W 8847  10.750   7.316   5.216
40430W        W 8848   2.262  40.389   2.308
40431W        W 8849  41.005  38.510   4.746
40432W        W 8850  34.506   8.754   4.663
40433W        W 8851  36.493  30.654  14.799
40434W        W 8852   0.811  36.520  11.921
40435W        W 8853  22.112  12.135   1.735
40436W        W 8854   4.779   6.855  13.448
40437W        W 8855  39.881  35.869   2.681
40438W        W 8856  16.618  19.662   4.658
40439W        W 8857  36.437  25.188   0.357
40440W        W 8858   5.217  30.491   2.256
40441W        W 8859  42.776   9.837  12.010
40442W        W 8860  42.935  41.008  14.298
40443W        W 8861   8.787  21.073   1.760
40444W        W 8862  30.936  31.490  11.560
40445W        W 8863  23.547  36.854   3.810
40446W        W 8864  18.250  39.039  14.504
40447W        W 8865  25.587  14.659   3.227
40448W        W 8866  17.658  42.979   5.122
40449W        W 8867  38.018  37.558  11.958
40450W        W 8868  31.499  33.603  12.403
40451W        W 8869  11.838  36.845  10.942
40452W        W 8870  42.972  34.118  13.811
40453W        W 8871  10.818  42.869   0.805
40454W        W 8872  32.610  31.128   3.265
40455W        W 8873  37.067  43.337   1.213
40456W        W 8874  43.451  15.297   3.151
40457W        W 8875  32.502   5.868  10.891
40458W        W 8876  10.283  22.687  11.483
40459W        W 8877   5.693  11.256  11.576
40460W        W 8878   0.331  37.572   1.806
40461W        W 8879  33.960  23.180  14.986
40462W        W 8880  27.107  36.989  13.377
40463W        W 8881   2.837   8.696  11.903
40464W        W 8882  23.118  38.486  14.939
40465W        W 8883   1.846  25.646   1.244
40466W        W 8884  19.760  44.375  13.985
40467W        W 8885  40.540  17.742  10.995
40468W        W 8886  12.827  11.261   1.847
40469W        W 8887  12.711  35.878   2.735
40470W        W 8888  28.124   5.284  13.012
40471W        W 8889  13.623   4.729  14.881
40472W        W 8890  14.125  26.193   3.756
40473W        W 8891  35.466  35.588   0.395
40474W        W 8892  10.832  10.819   4.151
40475W        W 8893  18.685  17.303   4.345
40476W        W 8894  37.367  28.593  10.965
40477W        W 8895  29.014  40.997  13.909
40478W        W 8896  29.981  31.103  12.426
40479W        W 8897  37.559  25.136  10.100
40480W        W 8898   9.261  34.116  12.547
40481W        W 8899   0.466   1.391  14.805
40482W        W 8900   7.707  35.416  13.453
40483W        W 8901  13.642   3.287  11.022
40484W        W 8902  40.034  42.801  14.787
40485W        W 8903  42.290  33.529   4.648
40486W        W 8904  39.338  29.659   3.186
40487W        W 8905  42.387  31.617   3.156
40488W        W 8906  16.767  20.750  11.601
40489W        W 8907  44.785  24.481  14.873
40490W        W 8908  16.673  28.058   4.132
40491W        W 8909  33.397   8.221  12.942
40492W        W 8910  27.122  31.983  11.942
40493W        W 8911  14.644  18.697   2.238
40494W        W 8912  14.833  40.903   1.803
40495W        W 8913  21.262   7.822   1.782
40496W        W 8914  28.530  29.444  14.875
40497W        W 8915  33.880  12.253  11.969
40498W        W 8916  22.602  17.265   0.403
40499W        W 8917  38.029  10.857   2.378
40500W        W 8918  26.988  23.641   0.879
40501W        W 8919   8.833  11.287  10.033
40502W        W 8920   6.255  36.083  10.058
40503W        W 8921  31.902  13.769   3.195
40504W        W 8922  18.271   5.418   2.703
40505W        W 8923  10.331   3.399  12.466
40506W        W 8924  38.406  12.624   4.196
40507W        W 8925  10.656  43.784   1.333
40508W        W 8926  11.270  13.172  14.025
40509W        W 8927  13.608  36.994   1.736
40510W        W 8928  27.659  35.951  12.867
40511W        W 8929  18.273  13.698  10.159
40512W        W 8930  27.460  25.689   2.854
40513W        W 8931  11.806  29.544  13.377
40514W        W 8932   6.904  40.045  11.484
40515W        W 8933   8.900  10.169   2.215
40516W        W 8934  19.607  39.372  10.461
40517W        W 8935  14.783  39.041  12.483
40518W        W 8936  22.625  39.872   4.176
40519W        W 8937  35.576   1.834  14.344
40520W        W 8938  13.286  17.071  14.363
40521W        W 8939  23.667  33.496   1.902
40522W        W 8940   4.356  37.845  12.092
40523W        W 8941  19.570  34.410   2.361
40524W        W 8942  25.977  38.861  13.035
40525W        W 8943  12.275   5.368  12.445
40526W        W 8944  11.832  15.647   2.842
40527W        W 8945  37.439   1.927  13.979
40528W        W 8946   8.855   5.768   2.194
40529W        W 8947   0.465  42.008  10.900
40530W        W 8948   6.408  12.700  10.510
40531W        W 8949  11.303  40.817  13.385
40532W        W 8950  35.483  37.971   2.897
40533W        W 8951  26.538  24.986  14.434
40534W        W 8952   7.858  18.684   3.162
40535W        W 8953  21.624   5.700   3.273
40536W        W 8954  29.918  36.372  12.428
40537W        W 8955  17.573  38.023  12.339
40538W        W 8956  12.657  41.984  13.948
40539W        W 8957  26.136  39.348   3.731
40540W        W 8958  27.050  39.020   2.377
40541W        W 8959  36.082  26.195   0.247
40542W        W 8960  37.381  11.180   4.786
40543W        W 8961  34.038   4.402  11.102
40544W        W 8962  23.668  13.747  10.437
40545W        W 8963   2.758  27.077   3.764
40546W        W 8964   6.204  33.933   3.786
40547W        W 8965  34.058  12.335   4.279
40548W        W 8966  37.350  41.878  14.378
40549W        W 8967  10.313  41.972   1.820
40550W        W 8968  39.348   2.266   3.347
40551W        W 8969   8.894  17.772  11.094
40552W        W 8970  14.787  34.413  13.928
40553W        W 8971  12.693  13.621   1.411
40554W        W 8972  11.822  34.529   3.339
40555W        W 8973  18.755  10.848   4.800
40556W        W 8974  32.020  19.147  13.413
40557W        W 8975  16.090  28.022  10.993
40558W        W 8976  34.570   6.401  10.904
40559W        W 8977   1.861  32.097   4.116
40560W        W 8978  44.482  37.991   2.366
40561W        W 8979  21.017  19.219  12.995
40562W        W 8980  21.060   4.921   4.213
40563W        W 8981  33.948  12.713  10.440
40564W        W 8982  34.436  38.907   0.965
40565W        W 8983  34.943  15.175  13.499
40566W        W 8984   5.779  30.616   1.749
40567W        W 8985   6.395  40.881  13.867
40568W        W 8986  44.487   0.314  14.002
40569W        W 8987  13.836  11.740  12.090
40570W        W 8988  12.220  43.406   2.756
40571W        W 8989  10.285  40.942  12.899
40572W        W 8990   1.258   2.460  12.831
40573W        W 8991  42.397  18.135  12.824
40574W        W 8992  42.938   4.223  11.082
40575W        W 8993   0.257  27.620  14.330
40576W        W 8994  32.471  35.375  14.000
40577W        W 8995   7.838  42.520  14.449
40578W        W 8996  31.613  44.412  13.893
40579W        W 8997  43.423  32.449   1.729
40580W        W 8998  15.291   8.398   4.174
40581W        W 8999  28.090  38.417  12.361
40582W        W 9000   2.965  17.627   3.278
40583W        W 9001  21.054  16.659   9.925
40584W        W 9002  36.389  40.864   0.468
40585W        W 9003   2.261  23.059   5.158
40586W        W 9004  31.410  38.519   4.628
40587W        W 9005  29.658  40.481   2.680
40588W        W 9006  35.411  36.406  14.947
40589W        W 9007  43.844  11.294  10.006
40590W        W 9008  11.820  41.295  12.013
40591W        W 9009  38.890   9.276  10.561
40592W        W 9010   1.464  13.232   2.667
40593W        W 9011   9.771  14.189  11.099
40594W        W 9012  14.590   6.684  10.135
40595W        W 9013   2.819   9.258  13.540
40596W        W 9014  15.678   5.808   3.332
40597W        W 9015  31.586  21.057  10.600
40598W        W 9016   4.806  36.944  12.401
40599W        W 9017  28.437   3.359  14.840
40600W        W 9018  13.278  15.582  11.562
40601W        W 9019  37.978  29.096  13.354
40602W        W 9020   5.884  32.439  11.962
40603W        W 9021  21.634  29.126  11.128
40604W        W 9022  44.816  33.042   2.397
40605W        W 9023  37.367   6.334   1.930
40606W        W 9024  33.421  38.850  12.453
40607W        W 9025  43.951   0.281   0.911
40608W        W 9026  44.865  27.593  13.022
40609W        W 9027  42.996  35.990  11.502
40610W        W 9028  31.965  37.944   4.773
40611W        W 9029  16.579  13.247   2.339
40612W        W 9030   0.756  41.861   0.332
40613W        W 9031  42.385  17.243  12.464
40614W        W 9032  10.792  28.648  11.011
40615W        W 9033  26.582  38.520   1.853
40616W        W 9034  23.718  36.492   2.869
40617W        W 9035   7.183  14.322  10.485
40618W        W 9036   3.244  37.998   1.921
40619W        W 9037  19.099  11.194  13.837
40620W        W 9038  13.146  20.669   3.677
40621W        W 9039  41.894  31.014   3.148
40622W        W 9040  40.411   7.214  13.896
40623W        W 9041  24.155  32.969  14.004
40624W        W 9042  20.172  42.301  10.507
40625W        W 9043  34.924  20.756  14.917
40626W        W 9044   1.858  27.996   3.191
40627W        W 9045  10.810  28.130  11.380
40628W        W 9046  26.606  41.396  12.524
40629W        W 9047   0.335  40.903   3.178
40630W        W 9048  19.551  30.484   5.261
40631W        W 9049  29.575  33.411  14.806
40632W        W 9050  31.920   1.363  13.386
40633W        W 9051  14.138  36.906  14.886
40634W        W 9052  33.619  43.844   4.226
40635W        W 9053  28.035  22.204  12.914
40636W        W 9054  15.145  42.460   4.657
40637W        W 9055  33.394  19.220  12.370
40638W        W 9056  24.205  10.340   5.172
40639W        W 9057  43.854  11.684  10.617
40640W        W 9058  41.926  21.164   4.812
40641W        W 9059  43.391  15.790   0.926
40642W        W 9060  25.616  29.478   2.669
40643W        W 9061  15.721  30.935  11.521
40644W        W 9062  22.100  14.294  13.888
40645W        W 9063  10.301  34.567  12.918
40646W        W 9064   3.769  35.863  14.839
40647W        W 9065  43.339  17.182   4.716
40648W        W 9066  41.961  17.219  10.943
40649W        W 9067  12.637  34.487   0.766
40650W        W 9068  24.715  14.196  13.428
40651W        W 9069  22.188  12.620  12.521
40652W        W 9070  23.631   6.391  13.400
40653W        W 9071  33.966   3.394   3.661
40654W        W 9072   8.702  28.037  11.488
40655W        W 9073   5.834  16.599   4.796
40656W        W 9074  41.331  14.215   0.839
40657W        W 9075   1.910  23.697  11.079
40658W        W 9076   8.870  27.678   1.804
40659W        W 9077  12.132  36.439   4.148
40660W        W 9078  30.490  10.348   3.743
40661W        W 9079  36.520  41.952   2.304
40662W        W 9080  38.538  32.511   1.738
40663W        W 9081  36.359  36.022   5.259
40664W        W 9082  42.298  40.304  12.872
40665W        W 9083  44.824  36.549  11.961
40666W        W 9084  10.351  10.762  12.354
40667W        W 9085   7.248  28.574  12.933
40668W        W 9086  44.933  29.148  12.992
40669W        W 9087  17.644   0.325   3.146
40670W        W 9088  16.788  24.180   4.662
40671W        W 9089   7.858  16.641   3.702
40672W        W 9090  32.435   9.709  14.768
40673W        W 9091  18.113   7.904   1.355
40674W        W 9092  35.937  30.596   0.413
40675W        W 9093  26.114  25.968   2.684
40676W        W 9094  35.865  30.140  11.954
40677W        W 9095  15.323  35.509  12.086
40678W        W 9096  28.504   3.407  13.017
40679W        W 9097  24.160  27.583  11.391
40680W        W 9098  24.090  21.537  14.841
40681W        W 9099  38.464  24.185  13.795
40682W        W 9100  22.107  21.524   0.478
40683W        W 9101  38.921  21.652  14.301
40684W        W 9102  16.739  20.543   3.336
40685W        W 9103   0.856  28.051  10.120
40686W        W 9104   3.425  15.179   1.724
40687W        W 9105  23.500   8.860  11.512
40688W        W 9106   8.298   8.175   2.337
40689W        W 9107   4.896  22.608  12.476
40690W        W 9108  29.633  14.733   0.359
40691W        W 9109   6.240  10.176   2.718
40692W        W 9110  11.657  27.034  14.429
40693W        W 9111  29.608  25.649   4.154
40694W        W 9112  26.097  32.458  12.956
40695W        W 9113  13.698   8.895   5.271
40696W        W 9114   4.737  31.522   2.880
40697W        W 9115   7.392  15.794  14.969
40698W        W 9116  28.152  30.576  10.900
40699W        W 9117  42.405  34.513   1.759
40700W        W 9118  40.944   4.766   2.414
40701W        W 9119  14.802  38.379  10.418
40702W        W 9120  27.641   1.444   4.652
40703W        W 9121  22.188   8.224   1.885
40704W        W 9122  42.361  31.968   2.393
40705W        W 9123  20.642   6.916  13.310
40706W        W 9124  20.540  27.566   3.257
40707W        W 9125   6.258  25.529  14.890
40708W        W 9126   9.279   1.916   1.857
40709W        W 9127  39.316  19.136   3.723
40710W        W 9128  15.323   4.776   5.802
40711W        W 9129  12.735  25.965  14.955
40712W        W 9130  12.282  10.829  11.477
40713W        W 9131  36.943  23.647  12.494
40714W        W 9132  27.023   3.290   2.196
40715W        W 9133  43.852  19.068  11.388
40716W        W 9134  26.168  29.158  11.061
40717W        W 9135  20.652  19.221  12.339
40718W        W 9136   8.313  32.461   4.186
40719W        W 9137  10.635  22.157   2.882
40720W        W 9138  35.381  28.658  12.571
40721W        W 9139   6.332   5.227   0.468
40722W        W 9140  12.796   8.732   3.659
40723W        W 9141  24.083   8.207   4.786
40724W        W 9142  31.411  21.624   1.854
40725W        W 9143  13.206  21.032  12.396
40726W        W 9144  41.354  24.193  14.987
40727W        W 9145  39.986  39.372   2.186
40728W        W 9146   7.700  20.108   1.320
40729W        W 9147   6.817  14.622  11.587
40730W        W 9148  39.497   7.298  10.942
40731W        W 9149  12.261  28.158   0.942
40732W        W 9150  37.832  16.082  14.355
40733W        W 9151  36.401   7.680   3.760
40734W        W 9152  39.404  41.520  11.500
40735W        W 9153  13.644  32.593   3.847
40736W        W 9154  29.629   9.651  14.909
40737W        W 9155  23.580  33.512  14.973
40738W        W 9156  36.585  44.266   4.649
40739W        W 9157  21.512   8.376  13.450
40740W        W 9158  19.662  25.133   3.232
40741W        W 9159  12.742  16.306  13.438
40742W        W 9160   9.845  21.182   4.217
40743W        W 9161  40.318  18.217   1.390
40744W        W 9162  31.574  22.550  12.493
40745W        W 9163  37.364   4.788   2.849
40746W        W 9164  16.777   6.317  12.374
40747W        W 9165  44.363  42.874   2.316
40748W        W 9166  36.562   3.231  10.028
40749W        W 9167  11.689   4.921  13.053
40750W        W 9168  15.666  30.160   0.961
40751W        W 9169  44.444  37.922   2.751
40752W        W 9170  35.964  25.132  11.414
40753W        W 9171  28.171  11.170  10.513
40754W        W 9172  43.935  17.664   1.704
40755W        W 9173  31.423   7.772   1.380
40756W        W 9174  26.525  42.934  11.005
40757W        W 9175  20.273  14.684   3.720
40758W        W 9176  19.736  33.949   3.734
40759W        W 9177   9.680  11.127   3.844
40760W        W 9178  21.038  14.157  12.379
40761W        W 9179   7.675  23.688   0.747
40762W        W 9180  40.804   7.744   1.902
40763W        W 9181   4.750  43.273   2.224
40764W        W 9182  38.965  27.450   3.785
40765W        W 9183  23.240   3.830  12.939
40766W        W 9184  11.779  42.452  13.307
40767W        W 9185  37.875   5.257   2.876
40768W        W 9186   4.827   2.818   3.775
40769W        W 9187  26.987   7.377   2.772
40770W        W 9188  21.613  13.140  13.922
40771W        W 9189  30.028  37.916  11.480
40772W        W 9190  18.561  13.776   2.263
40773W        W 9191  39.414   5.259   3.214
40774W        W 9192  21.584  30.430   0.780
40775W        W 9193  32.521   2.943   1.343
40776W        W 9194  43.982  31.912  13.945
40777W        W 9195   6.746  14.783  13.327
40778W        W 9196  24.980  14.188  12.010
40779W        W 9197   1.950   7.182  11.548
40780W        W 9198  20.108  39.392   1.781
40781W        W 9199  11.332  34.379  13.851
40782W        W 9200  23.002   5.842   1.230
40783W        W 9201  26.506  10.683   1.344
40784W        W 9202  39.830  31.900  10.618
40785W        W 9203  13.778  29.643  12.012
40786W        W 9204   5.927  34.520   3.216
40787W        W 9205   2.319  12.309  10.409
40788W        W 9206  17.211  17.256  11.122
40789W        W 9207  13.691   0.916   4.670
40790W        W 9208  13.725   4.412   3.655
40791W        W 9209  41.364   5.882   2.805
40792W        W 9210  13.747  28.025   2.307
40793W        W 9211  30.589  11.162  13.408
40794W        W 9212  19.238  44.952   0.758
40795W        W 9213  39.931  41.360   1.700
40796W        W 9214  21.587  12.277  13.002
40797W        W 9215  10.160  39.530   3.817
40798W        W 9216  30.059   7.831   9.552
40799W        W 9217  20.716   5.729  14.322
40800W        W 9218   1.424  30.527   0.309
40801W        W 9219  34.933   7.393  10.013
40802W        W 9220  36.003  34.482  12.067
40803W        W 9221  26.013   6.788  12.883
40804W        W 9222  44.265  31.925  10.105
40805W        W 9223  20.628   8.842  10.911
40806W        W 9224  19.241  40.891  10.626
40807W        W 9225   5.809  35.496   1.922
40808W        W 9226  31.019   0.282  11.907
40809W        W 9227  43.768  32.629   1.895
40810W        W 9228   0.412  33.109   1.212
40811W        W 9229  27.992  32.602  13.059
40812W        W 9230  33.571  25.188   1.749
40813W        W 9231  32.927  32.562   2.412
40814W        W 9232  28.624  30.950   1.883
40815W        W 9233  14.202  14.785  11.078
40816W        W 9234  39.005  14.802  14.003
40817W        W 9235  37.013  22.548  11.888
40818W        W 9236  10.179  21.045  13.837
40819W        W 9237  42.936  15.666   2.826
40820W        W 9238  30.947  10.869   3.642
40821W        W 9239  26.135   4.939  12.031
40822W        W 9240   5.923  27.472   1.233
40823W        W 9241  39.009  39.551  14.020
40824W        W 9242   2.925  29.077  12.368
40825W        W 9243  26.524  15.204  14.969
40826W        W 9244  11.236  36.042  11.966
40827W        W 9245  42.442  23.119  12.435
40828W        W 9246  18.767  30.424   2.747
40829W        W 9247   3.263  14.627  12.986
40830W        W 9248  18.123  40.460  12.553
40831W        W 9249  15.590  28.960  14.970
40832W        W 9250   1.736  14.693  11.524
40833W        W 9251  22.038  38.017   0.883
40834W        W 9252  39.886  31.089  12.962
40835W        W 9253  38.004  40.372   2.320
40836W        W 9254   8.820   9.346  14.849
40837W        W 9255  41.343  11.775   2.392
40838W        W 9256  31.936   4.741   0.395
40839W        W 9257  27.507  27.480   3.195
40840W        W 9258  14.125  12.181  12.417
40841W        W 9259  41.442  30.512  11.599
40842W        W 9260  11.225  42.372  12.979
40843W        W 9261  27.506  10.841   0.729
40844W        W 9262  38.023   4.783   3.327
40845W        W 9263  39.369  37.546   4.131
40846W        W 9264   9.186  34.005  13.392
40847W        W 9265   4.295   8.819   4.143
40848W        W 9266   6.822  30.959  13.335
40849W        W 9267  25.474  33.425  13.827
40850W        W 9268  25.485  41.434  12.069
40851W        W 9269  37.845  38.505   0.773
40852W        W 9270  12.698  39.491   2.208
40853W        W 9271  34.409  29.964   1.772
40854W        W 9272   3.456   2.806   0.882
40855W        W 9273  16.310  35.542   1.443
40856W        W 9274   5.309  10.158  14.900
40857W        W 9275  27.991  32.141  10.543
40858W        W 9276  43.509  17.569   0.470
40859W        W 9277  13.170  22.712   9.942
40860W        W 9278   3.407  26.200   3.710
40861W        W 9279  22.127  36.858  12.998
40862W        W 9280  44.386   2.395   3.826
40863W        W 9281  13.161  32.081  10.126
40864W        W 9282  44.436  42.457  10.923
40865W        W 9283  31.933  44.346   1.919
40866W        W 9284  12.846   7.774  14.997
40867W        W 9285  24.646  33.616  14.487
40868W        W 9286  32.114  44.357  12.416
40869W        W 9287  31.593   9.851   4.602
40870W        W 9288  20.232  40.894  13.320
40871W        W 9289   4.746  28.625   3.825
40872W        W 9290   6.824   8.228  11.536
40873W        W 9291  36.008  24.664   2.790
40874W        W 9292  31.588  37.413  13.027
40875W        W 9293   6.869  12.838  12.522
40876W        W 9294   0.834  33.119  11.011
40877W        W 9295  31.567  13.346   2.414
40878W        W 9296  24.587  16.147  12.889
40879W        W 9297  22.721  41.421   5.578
40880W        W 9298  21.057   9.337   4.697
40881W        W 9299   8.827  40.000  11.481
40882W        W 9300  20.082  11.791  11.589
40883W        W 9301  17.663  18.127   2.666
40884W        W 9302  21.633  28.527  14.462
40885W        W 9303   0.325  15.322   4.686
40886W        W 9304   0.769  35.894  12.010
40887W        W 9305  29.968  32.463  11.530
40888W        W 9306  23.577  39.348   9.996
40889W        W 9307   4.415  26.093   1.737
40890W        W 9308  38.530  27.957  11.896
40891W        W 9309  15.116   3.406  10.927
40892W        W 9310  27.684  24.011  10.996
40893W        W 9311  14.750   0.804  13.044
40894W        W 9312  39.932  18.712   1.303
40895W        W 9313   7.266  10.352  11.050
40896W        W 9314  24.088  10.139   3.277
40897W        W 9315   8.856  34.943  11.608
40898W        W 9316  11.158  40.827  11.490
40899W        W 9317  22.660   8.160   3.348
40900W        W 9318   6.829  43.494  12.012
40901W        W 9319  31.611  25.695   1.899
40902W        W 9320   0.772  18.069   3.360
40903W        W 9321  42.790  40.379  12.066
40904W        W 9322  37.954  23.599   3.645
40905W        W 9323  33.594   5.330   1.279
40906W        W 9324  15.690  20.615   1.766
40907W        W 9325   1.756  32.109   5.198
40908W        W 9326  43.428  38.050   4.193
40909W        W 9327  11.675  40.479  13.900
40910W        W 9328   2.895  19.254   1.290
40911W        W 9329  43.872  12.244  14.806
40912W        W 9330  23.546  43.981   2.891
40913W        W 9331  21.565   4.761  11.443
40914W        W 9332  22.027   8.209  12.552
40915W        W 9333  42.809  34.480   0.808
40916W        W 9334   7.407  20.562   0.413
40917W        W 9335  44.884  38.848  10.997
40918W        W 9336  23.174  27.525   1.697
40919W        W 9337  20.222  37.085   3.284
40920W        W 9338  38.881  12.189   1.694
40921W        W 9339  28.111   3.744  11.974
40922W        W 9340  21.022  39.388  14.761
40923W        W 9341  14.669   4.831   2.794
40924W        W 9342  30.464  21.514  11.004
40925W        W 9343  20.055  14.782  13.343
40926W        W 9344  23.129  27.467  10.900
40927W        W 9345  11.850  41.297   2.357
40928W        W 9346  38.887  44.814  11.444
40929W        W 9347   6.367  17.281  13.054
40930W        W 9348  38.468  37.031   3.274
40931W        W 9349  21.097   2.387  12.379
40932W        W 9350  40.024  29.172  14.802
40933W        W 9351  26.148  16.092  13.324
40934W        W 9352  24.143  27.072  11.394
40935W        W 9353  18.185  39.063   2.717
40936W        W 9354  20.525  12.729  14.762
40937W        W 9355  38.560   5.316   0.863
40938W        W 9356  30.468  38.422  11.942
40939W        W 9357   9.249  41.423   4.778
40940W        W 9358  38.899  27.029  10.060
40941W        W 9359  40.353  19.690  13.794
40942W        W 9360  42.906  42.480  12.875
40943W        W 9361  40.011  27.948   0.938
40944W        W 9362  43.879  32.095  11.559
40945W        W 9363  28.095  15.816  11.950
40946W        W 9364  35.882  32.476  12.044
40947W        W 9365  29.523   6.771   3.850
40948W        W 9366  23.676  43.392   0.907
40949W        W 9367  22.684  34.438   4.264
40950W        W 9368  35.533   4.930  14.369
40951W        W 9369  36.022   7.747   1.718
40952W        W 9370   7.831  34.531  14.831
40953W        W 9371  29.458   9.654  12.555
40954W        W 9372  36.911  39.941   0.768
40955W        W 9373   2.435  32.463   2.679
40956W        W 9374   8.366   9.761   0.733
40957W        W 9375  39.859  21.631   4.776
40958W        W 9376   7.724  30.105   2.263
40959W        W 9377  41.012  44.957  13.919
40960W        W 9378  33.910  18.221  13.853
40961W        W 9379   0.849  23.219   4.688
40962W        W 9380  38.956   7.177  14.310
40963W        W 9381   1.765   4.339  13.802
40964W        W 9382  19.625  13.807   1.802
40965W        W 9383  10.384  41.462   1.227
40966W        W 9384  24.046   7.756  13.907
40967W        W 9385  34.404  40.956   4.772
40968W        W 9386   1.334   5.238  13.381
40969W        W 9387  19.058   0.280   3.330
40970W        W 9388   0.954   7.790   0.274
40971W        W 9389   9.726  28.173   4.622
40972W        W 9390  29.066  19.650   4.606
40973W        W 9391  16.605  18.239   4.113
40974W        W 9392  27.579  18.068   2.381
40975W        W 9393  27.071  12.661  11.961
40976W        W 9394  14.721  11.760  10.458
40977W        W 9395  22.186   3.307  11.115
40978W        W 9396  41.531  15.643  12.843
40979W        W 9397  42.845  20.713   4.290
40980W        W 9398  12.619  24.022  11.449
40981W        W 9399  10.641   3.810  11.394
40982W        W 9400   3.316  26.653   3.843
40983W        W 9401  37.053  16.316  14.905
40984W        W 9402  15.119  26.684  14.483
40985W        W 9403  14.177  30.152   2.230
40986W        W 9404   9.261  28.091   5.127
40987W        W 9405   1.451   5.360  11.979
40988W        W 9406  41.844  44.272  12.992
40989W        W 9407  10.270  33.601   5.149
40990W        W 9408  43.451  20.699  11.095
40991W        W 9409  15.153  17.649  13.404
40992W        W 9410   9.380  43.997   3.741
40993W        W 9411  32.405  25.669  12.917
40994W        W 9412  33.113  18.192   4.253
40995W        W 9413  41.401  10.370   1.833
40996W        W 9414   4.924  35.878   1.266
40997W        W 9415  22.571  15.119   1.716
40998W        W 9416  32.045  22.609  14.889
40999W        W 9417  22.109   0.391  13.944
41000W        W 9418  37.377  17.260  14.395
41001W        W 9419  19.041  44.463  13.790
41002W        W 9420  23.515  41.841  11.936
41003W        W 9421  39.395  32.908  14.508
41004W        W 9422   8.768  11.795  14.016
41005W        W 9423  29.111  24.986   2.743
41006W        W 9424  25.637  34.873  11.912
41007W        W 9425  38.349  38.866   4.243
41008W        W 9426  11.841   0.817   0.444
41009W        W 9427  27.680  28.039  14.496
41010W        W 9428  27.948  25.588   3.796
41011W        W 9429  31.595  32.414   3.283
41012W        W 9430  25.488  10.746   0.400
41013W        W 9431  32.890   8.728  12.462
41014W        W 9432  25.674   5.417  10.937
41015W        W 9433   3.729  10.330  10.905
41016W        W 9434  38.521  10.693   2.835
41017W        W 9435  23.529  24.208   1.216
41018W        W 9436  36.975  25.623  13.480
41019W        W 9437   7.197  28.020  11.113
41020W        W 9438  11.304  29.052   2.880
41021W        W 9439  42.350  14.140  10.634
41022W        W 9440  11.277  41.996  14.485
41023W        W 9441  17.073  19.645  11.910
41024W        W 9442  10.782  26.565  13.843
41025W        W 9443  41.292  23.660   5.266
41026W        W 9444  35.450  24.631   4.608
41027W        W 9445  22.553  17.190  12.451
41028W        W 9446  41.445  17.732  10.602
41029W        W 9447   2.899  20.074   9.480
41030W        W 9448   8.376  23.040   3.272
41031W        W 9449  38.529  18.625  12.059
41032W        W 9450  21.034  39.953  14.397
41033W        W 9451  24.706  33.412   4.143
41034W        W 9452   7.718  36.383   1.867
41035W        W 9453  26.186  25.474   2.372
41036W        W 9454  17.796   8.791   4.204
41037W        W 9455  15.738  21.576  14.814
41038W        W 9456   0.332  38.405   0.310
41039W        W 9457  36.455  12.709  12.029
41040W        W 9458   0.362   9.232   4.266
41041W        W 9459  30.529   5.750   4.146
41042W        W 9460  18.749  27.983   3.681
41043W        W 9461  27.062  33.928   0.888
41044W        W 9462  17.792  36.380   0.873
41045W        W 9463  29.166  43.884  11.075
41046W        W 9464  39.410  39.515  10.627
41047W        W 9465  43.017   7.306  11.455
41048W        W 9466  21.211  13.255  14.387
41049W        W 9467  12.710  31.416  14.801
41050W        W 9468  38.956  34.063   1.346
41051W        W 9469  36.082  27.039   2.724
41052W        W 9470  43.800  14.112  14.763
41053W        W 9471   3.920  11.829   2.875
41054W        W 9472  17.616  17.197  13.341
41055W        W 9473  39.965  25.568  13.377
41056W        W 9474  12.335  41.418  12.046
41057W        W 9475  14.142   4.713  13.361
41058W        W 9476  23.136  37.946   5.298
41059W        W 9477  26.048  12.844  13.535
41060W        W 9478   0.329  24.126  10.586
41061W        W 9479  12.288  16.178  14.840
41062W        W 9480   3.737  26.026   2.193
41063W        W 9481  36.863  40.450   1.847
41064W        W 9482   3.276  36.538   4.680
41065W        W 9483  20.753  17.307  12.907
41066W        W 9484  12.778  12.154  12.471
41067W        W 9485  20.198  18.183   1.920
41068W        W 9486  17.257  10.280   4.766
41069W        W 9487  27.667  11.351   0.336
41070W        W 9488  36.376  39.473   2.202
41071W        W 9489  23.140  10.230  12.052
41072W        W 9490  23.230  28.965   1.226
41073W        W 9491  24.001  10.184  12.488
41074W        W 9492   9.723  28.605   1.728
41075W        W 9493  17.215  31.471   4.683
41076W        W 9494  17.703  39.499  11.527
41077W        W 9495  44.927  21.158  10.027
41078W        W 9496  29.630   0.884  11.016
41079W        W 9497   9.268   7.312   0.290
41080W        W 9498  13.680   9.321  13.483
41081W        W 9499  38.335   6.375   3.349
41082W        W 9500  40.006  39.903  14.973
41083W        W 9501  39.979   8.333  14.335
41084W        W 9502  36.368  31.111  11.085
41085W        W 9503  37.518  17.209  10.927
41086W        W 9504  36.871   2.422  14.480
41087W        W 9505   5.931  31.122  14.842
41088W        W 9506  27.947  11.635  13.929
41089W        W 9507  43.458  23.136   2.851
41090W        W 9508  31.941  31.105  13.528
41091W        W 9509  42.388  21.683   4.792
41092W        W 9510  12.788  40.430  13.538
41093W        W 9511  42.475  37.502  13.829
41094W        W 9512  34.098   6.708  12.951
41095W        W 9513   7.748  11.189  12.422
41096W        W 9514  30.573  21.021   3.381
41097W        W 9515  30.920  21.613  13.024
41098W        W 9516  41.505   3.920   4.280
41099W        W 9517  40.044  14.301   4.749
41100W        W 9518  23.206  13.249  14.889
41101W        W 9519   6.741  11.692  10.570
41102W        W 9520  30.647  13.636  14.436
41103W        W 9521  15.099  31.462   1.701
41104W        W 9522  16.169  39.422  13.348
41105W        W 9523  44.774  17.663  13.017
41106W        W 9524  22.147  14.732   0.730
41107W        W 9525  27.639  28.530  10.927
41108W        W 9526  30.639  31.603  12.003
41109W        W 9527  10.841  26.589   3.858
41110W        W 9528  27.173  21.058   4.789
41111W        W 9529  39.328  19.762  14.874
41112W        W 9530  21.156  18.050  11.896
41113W        W 9531  16.146  17.769  12.430
41114W        W 9532  20.245  22.143   3.827
41115W        W 9533  42.525  12.226   1.439
41116W        W 9534  25.117  43.987   2.718
41117W        W 9535   1.372  10.637   2.801
41118W        W 9536  39.354  18.707   3.766
41119W        W 9537  26.050   2.294   3.168
41120W        W 9538  39.373  41.036  10.980
41121W        W 9539   3.420  30.492   0.476
41122W        W 9540  23.528  18.087   1.446
41123W        W 9541  43.436  28.094   3.215
41124W        W 9542  27.185   3.371  11.435
41125W        W 9543  17.615  43.803  11.461
41126W        W 9544  34.997  15.251  12.859
41127W        W 9545  29.633  35.079  13.852
41128W        W 9546  26.006  24.138   3.784
41129W        W 9547  28.104   4.936  13.321
41130W        W 9548  19.585   2.894  14.824
41131W        W 9549  20.756  11.232  12.432
41132W        W 9550  27.495  41.347   2.303
41133W        W 9551  24.538  16.094  10.954
41134W        W 9552   9.320   8.286   0.253
41135W        W 9553   6.688  39.046   3.150
41136W        W 9554  33.490  40.844  12.387
41137W        W 9555  29.106  43.339   2.740
41138W        W 9556  19.074  15.268  13.945
41139W        W 9557  39.349   5.733  14.842
41140W        W 9558  28.932  38.367   2.786
41141W        W 9559  28.933   7.882   1.709
41142W        W 9560  17.143  43.972   3.845
41143W        W 9561  25.475  13.154   4.742
41144W        W 9562  22.510  12.341   4.217
41145W        W 9563  19.680  43.778   2.892
41146W        W 9564  19.143  15.641   1.327
41147W        W 9565  22.657  23.129  12.474
41148W        W 9566   1.303  38.485  13.513
41149W        W 9567  16.288  40.511  10.910
41150W        W 9568  17.076  41.043  14.357
41151W        W 9569  17.135  40.491  12.435
41152W        W 9570  25.993  14.200  13.918
41153W        W 9571  18.244  44.375   0.246
41154W        W 9572  13.612   2.311  14.393
41155W        W 9573  23.220   8.843  11.543
41156W        W 9574   5.202  44.923  14.884
41157W        W 9575  38.344  15.691  11.127
41158W        W 9576  21.646   3.712   0.335
41159W        W 9577  12.120  24.639   4.265
41160W        W 9578  28.587  44.965  10.465
41161W        W 9579   9.364   6.386   3.739
41162W        W 9580  43.881  17.762  11.418
41163W        W 9581  11.825  14.303  12.021
41164W        W 9582  14.721  11.730   2.709
41165W        W 9583  39.873   9.742  14.023
41166W        W 9584  44.760  41.397   2.279
41167W        W 9585   0.826   4.307  11.554
41168W        W 9586  16.149  17.736   3.260
41169W        W 9587  16.711  32.098   1.794
41170W        W 9588  42.322  19.192   0.330
41171W        W 9589  26.629  33.101  10.423
41172W        W 9590  22.132  23.680   2.345
41173W        W 9591  34.560  22.739  11.433
41174W        W 9592  39.466  22.619  11.494
41175W        W 9593   1.799   7.302  14.435
41176W        W 9594  24.698   5.282  12.378
41177W        W 9595  27.066  11.785   3.187
41178W        W 9596  28.652  44.871  14.852
41179W        W 9597  14.291   4.843  13.953
41180W        W 9598   8.831  12.139  13.967
41181W        W 9599  11.165  39.463   2.242
41182W        W 9600   6.839  23.691  11.525
41183W        W 9601  16.141  10.736   3.707
41184W        W 9602  33.531  37.077  10.909
41185W        W 9603  44.877  28.038  13.792
41186W        W 9604  13.225   3.353   3.329
41187W        W 9605  32.088  44.909  13.849
41188W        W 9606   2.439  43.470   1.833
41189W        W 9607  25.205  40.517   1.896
41190W        W 9608  19.757   2.890   2.230
41191W        W 9609  11.834  43.513   2.263
41192W        W 9610  39.962  20.719   4.244
41193W        W 9611   9.344   9.807  14.003
41194W        W 9612  39.438  33.966  11.973
41195W        W 9613  43.957  28.018  12.043
41196W        W 9614   9.348  43.790   2.227
41197W        W 9615  12.656  20.201  13.370
41198W        W 9616  22.213  12.849   3.785
41199W        W 9617   3.803  26.010  11.054
41200W        W 9618  38.376   3.236  14.952
41201W        W 9619   3.272  35.451   4.212
41202W        W 9620  20.243  40.944  11.410
41203W        W 9621  36.429  14.736  13.419
41204W        W 9622  34.945  42.348   4.642
41205W        W 9623  39.040  35.970   0.803
41206W        W 9624  13.323  31.093  14.815
41207W        W 9625  40.537  44.912   2.323
41208W        W 9626  26.546  30.926  10.976
41209W        W 9627  42.938  39.542  10.633
41210W        W 9628  42.421  12.851   2.363
41211W        W 9629  16.259  39.490  12.889
41212W        W 9630  43.333  39.364   3.383
41213W        W 9631   9.279  29.078  12.421
41214W        W 9632   9.181  30.602   1.806
41215W        W 9633  10.746  39.921  12.835
41216W        W 9634  28.505   1.322  12.513
41217W        W 9635  43.958  33.991   1.820
41218W        W 9636  31.963  41.500   2.855
41219W        W 9637  38.964   2.261   2.677
41220W        W 9638  22.632  18.724  12.079
41221W        W 9639  11.719  32.395  10.510
41222W        W 9640  16.605  25.153   0.382
41223W        W 9641  40.932  18.149   3.230
41224W        W 9642   3.392   7.737  11.515
41225W        W 9643  27.530  27.066  13.026
41226W        W 9644   1.857  27.166  11.448
41227W        W 9645  39.923   8.345  11.934
41228W        W 9646  41.870  34.891  12.954
41229W        W 9647  44.499  43.911   2.283
41230W        W 9648  24.692  39.482  13.851
41231W        W 9649  16.791  44.490   1.251
41232W        W 9650  21.529   0.356   3.631
41233W        W 9651  12.736   2.863  11.916
41234W        W 9652   9.871  27.509   4.760
41235W        W 9653  25.088  19.043   1.243
41236W        W 9654   0.327  24.596   1.748
41237W        W 9655  13.207   1.821  10.999
41238W        W 9656  31.040  42.826  12.410
41239W        W 9657  12.643   3.750   0.404
41240W        W 9658  27.067  16.129  12.027
41241W        W 9659  43.971  14.725   5.718
41242W        W 9660  40.962  42.291   3.738
41243W        W 9661  28.058  25.968  11.433
41244W        W 9662   0.963  38.455  13.463
41245W        W 9663  21.627  28.629   2.833
41246W        W 9664  15.275  38.421  11.941
41247W        W 9665   0.420   0.742   3.641
41248W        W 9666  34.500  25.577   0.863
41249W        W 9667   9.820  24.640  13.428
41250W        W 9668  10.152   1.862  13.948
41251W        W 9669  16.607  30.960  13.900
41252W        W 9670  24.495  15.256  14.030
41253W        W 9671  12.201  38.362   4.793
41254W        W 9672  30.081  36.441  13.942
41255W        W 9673   7.865   9.817  10.423
41256W        W 9674   2.835   3.928  11.990
41257W        W 9675   1.793  38.847  14.457
41258W        W 9676   2.896  16.786   2.203
41259W        W 9677   5.264  42.955  11.373
41260W        W 9678   1.825  14.603   4.149
41261W        W 9679  23.115  11.686  13.404
41262W        W 9680  42.924  37.411  12.543
41263W        W 9681  17.262  40.802   4.630
41264W        W 9682  23.508  26.103   2.834
41265W        W 9683   2.846  18.741  12.467
41266W        W 9684  28.641   5.713   4.254
41267W        W 9685   3.948  12.246   2.808
41268W        W 9686  41.925  20.614   3.816
41269W        W 9687  21.512  41.498   1.298
41270W        W 9688  30.969   8.685  14.966
41271W        W 9689   8.399   5.386   0.924
41272W        W 9690   2.966  14.246  10.619
41273W        W 9691  30.572   9.375   0.810
41274W        W 9692  11.848  26.552  11.125
41275W        W 9693   9.795   8.666  12.470
41276W        W 9694  43.866   7.288   1.742
41277W        W 9695  22.071  30.658  10.419
41278W        W 9696  15.268  22.104  14.330
41279W        W 9697  34.866  28.181   3.850
41280W        W 9698  36.947  38.373   4.256
41281W        W 9699   7.717  23.072  10.967
41282W        W 9700  42.404  41.850   0.374
41283W        W 9701  23.088  41.970   4.265
41284W        W 9702  29.526  43.470  10.428
41285W        W 9703  43.938  13.700  12.961
41286W        W 9704  44.440  34.908   3.655
41287W        W 9705  38.556  14.304   1.428
41288W        W 9706  19.223   2.228   4.290
41289W        W 9707  32.957  25.503   0.300
41290W        W 9708  33.585  20.579   4.200
41291W        W 9709  40.483   9.763  13.837
41292W        W 9710  42.903  10.792   1.715
41293W        W 9711  44.767  21.557  13.852
41294W        W 9712  41.835  36.007   1.371
41295W        W 9713  42.971  18.270   1.443
41296W        W 9714  34.494  31.992   2.297
41297W        W 9715  43.897  29.455   3.807
41298W        W 9716  38.330  12.341   0.255
41299W        W 9717  11.837  43.511  14.876
41300W        W 9718  35.483  35.521   3.246
41301W        W 9719  41.394  27.977  11.920
41302W        W 9720  17.649  15.763   2.760
41303W        W 9721   9.174  28.173  10.975
41304W        W 9722  40.420  24.125   1.708
41305W        W 9723  20.524  38.075  12.549
41306W        W 9724   7.794  44.766  10.441
41307W        W 9725   7.692  29.555   3.199
41308W        W 9726   0.758  18.266   3.785
41309W        W 9727   0.812  25.467   0.430
41310W        W 9728  16.079  39.385   2.837
41311W        W 9729  22.136   9.367  14.339
41312W        W 9730  11.736  32.989   1.844
41313W        W 9731   6.424  18.750  10.565
41314W        W 9732  31.997  42.380   1.364
41315W        W 9733  26.057  19.723   2.286
41316W        W 9734   6.204  29.600   0.886
41317W        W 9735  27.045  34.104  11.900
41318W        W 9736  31.104   4.863  11.087
41319W        W 9737  35.405  41.883   0.734
41320W        W 9738  37.079  28.147   2.333
41321W        W 9739  29.515  23.078  12.517
41322W        W 9740  30.979  17.164  13.392
41323W        W 9741  34.881   8.186   1.405
41324W        W 9742  19.625  15.200   0.921
41325W        W 9743   2.432   0.483  13.854
41326W        W 9744  39.448   7.256   4.261
41327W        W 9745  41.320   0.899   4.731
41328W        W 9746  39.444  35.562  12.026
41329W        W 9747   3.845   2.422   3.809
41330W        W 9748  37.417  27.995  11.593
41331W        W 9749  17.255  20.150  12.357
41332W        W 9750  27.474  22.635   0.306
41333W        W 9751   8.369   6.750   1.763
41334W        W 9752  20.530  30.069   4.282
41335W        W 9753  19.626  12.292  12.071
41336W        W 9754  27.564  14.111   1.755
41337W        W 9755  11.284   1.316   2.314
41338W        W 9756  31.588   5.433   0.967
41339W        W 9757  10.844   5.813   4.323
41340W        W 9758  19.161  35.025  14.281
41341W        W 9759  38.889  14.217  13.901
41342W        W 9760  32.547  25.526   1.256
41343W        W 9761  34.955  40.994  12.368
41344W        W 9762  25.128  17.693   4.732
41345W        W 9763  25.164  24.604  11.996
41346W        W 9764  12.171  34.468  10.636
41347W        W 9765  12.218  24.549   1.702
41348W        W 9766  26.470  42.815   3.278
41349W        W 9767   9.200  44.282  11.399
41350W        W 9768  42.779  36.937  13.355
41351W        W 9769  21.018  25.473   0.367
41352W        W 9770  18.719  38.863   2.396
41353W        W 9771  13.831   8.380   0.476
41354W        W 9772   0.411  34.375  13.047
41355W        W 9773   5.414  21.612   2.307
41356W        W 9774  35.982  41.994  14.366
41357W        W 9775  35.047   0.753   4.709
41358W        W 9776  34.607  30.552   4.119
41359W        W 9777  19.743  25.174   4.282
41360W        W 9778   6.307  18.069  10.448
41361W        W 9779  27.000  21.753   3.751
41362W        W 9780  13.279  44.292  11.612
41363W        W 9781  41.464  19.090   4.768
41364W        W 9782   8.242   5.725   1.795
41365W        W 9783  40.897  38.008  14.282
41366W        W 9784   4.216  12.296  10.569
41367W        W 9785  35.022  17.208   5.110
41368W        W 9786  38.030  21.695  10.608
41369W        W 9787   7.322  16.797   4.793
41370W        W 9788  26.626  22.503   5.303
41371W        W 9789  42.471  34.559   4.182
41372W        W 9790  18.121  20.090   1.892
41373W        W 9791  35.944   7.374   2.242
41374W        W 9792  20.042  13.646   5.101
41375W        W 9793  32.087  11.774   3.250
41376W        W 9794  10.286   9.655   0.339
41377W        W 9795  39.869  22.639  13.489
41378W        W 9796  22.669   7.269  14.926
41379W        W 9797  39.421  14.326  10.559
41380W        W 9798  42.022  42.905   1.896
41381W        W 9799  33.438   9.799   3.222
41382W        W 9800  14.753  16.296   4.287
41383W        W 9801   6.339  38.050   4.209
41384W        W 9802  11.320  29.620   0.809
41385W        W 9803  26.520  18.075   1.406
41386W        W 9804  17.287  10.658   0.332
41387W        W 9805   9.150  10.314  12.938
41388W        W 9806  29.108  31.058  11.927
41389W        W 9807  30.516  31.618   4.240
41390W        W 9808   1.760  21.087  11.060
41391W        W 9809  42.893  38.837  12.989
41392W        W 9810   4.407  32.004   1.328
41393W        W 9811  34.563   0.317   1.372
41394W        W 9812  30.640  33.436   3.383
41395W        W 9813  41.329   4.403  12.411
41396W        W 9814  16.789   2.386  12.540
41397W        W 9815   7.343   9.732   3.288
41398W        W 9816  23.187  42.798   4.300
41399W        W 9817  42.497  32.124   1.300
41400W        W 9818  18.557  17.619   1.352
41401W        W 9819  23.655   7.375  11.440
41402W        W 9820  32.889  11.242   1.388
41403W        W 9821  20.594  16.290   2.335
41404W        W 9822  21.030   4.910  11.893
41405W        W 9823  10.317  34.543   2.186
41406W        W 9824  44.785  12.287   0.938
41407W        W 9825  31.102  39.998  14.802
41408W        W 9826   3.221   7.859   3.871
41409W        W 9827  26.700  19.178  12.493
41410W        W 9828  20.112   8.816  11.039
41411W        W 9829  20.028  12.360   2.705
41412W        W 9830  36.530  40.935  13.870
41413W        W 9831  41.971   0.295  14.330
41414W        W 9832  25.990  35.572   1.748
41415W        W 9833  28.110  37.479  11.411
41416W        W 9834   0.352  36.854   2.665
41417W        W 9835  23.580  15.638  11.886
41418W        W 9836   0.480  27.500   0.912
41419W        W 9837   7.791  35.405   1.306
41420W        W 9838  25.644  41.448   1.907
41421W        W 9839  28.057  24.152  14.315
41422W        W 9840  32.093  36.002  14.451
41423W        W 9841   4.236  43.395   2.663
41424W        W 9842  44.898  34.443   1.363
41425W        W 9843  24.569  33.384   3.791
41426W        W 9844  17.275  40.459   2.779
41427W        W 9845  23.149   3.756   1.279
41428W        W 9846  37.991   8.392  14.776
41429W        W 9847   8.825   6.355   0.912
41430W        W 9848   4.238  20.728   3.372
41431W        W 9849  35.912   2.355   2.897
41432W        W 9850  34.402  35.067  12.558
41433W        W 9851   4.728  16.651  13.064
41434W        W 9852  26.613  31.039  14.291
41435W        W 9853  26.037   3.863   0.351
41436W        W 9854  11.836  20.608   0.930
41437W        W 9855  30.085  11.271   1.260
41438W        W 9856  16.796  35.451  14.008
41439W        W 9857  42.455  30.615   2.221
41440W        W 9858  33.089  38.542   1.803
41441W        W 9859  31.466  28.048  11.969
41442W        W 9860  27.192  22.683  10.950
41443W        W 9861  43.396  34.509  11.461
41444W        W 9862   8.391   0.933   4.819
41445W        W 9863  43.504   1.390   4.339
41446W        W 9864   1.890  10.179  14.421
41447W        W 9865  21.044  26.155  14.835
41448W        W 9866   5.218  17.095  13.521
41449W        W 9867  12.233  17.147   4.147
41450W        W 9868  30.949  43.879  11.420
41451W        W 9869  23.135  30.600  14.482
41452W        W 9870   7.687  44.362   2.341
41453W        W 9871   3.271  42.782  10.457
41454W        W 9872  19.041  15.175  11.973
41455W        W 9873   5.901  33.130   4.284
41456W        W 9874  10.645  21.247   0.817
41457W        W 9875  12.677  12.187   0.343
41458W        W 9876   0.428  23.553   3.357
41459W        W 9877  27.997  19.046   0.894
41460W        W 9878  26.103   0.273   1.261
41461W        W 9879  26.033  12.711   1.915
41462W        W 9880   7.729  31.956   2.358
41463W        W 9881  23.021  22.714   4.767
41464W        W 9882   8.385  37.840  14.502
41465W        W 9883  41.293  13.188   0.278
41466W        W 9884  29.991  21.562   1.798
41467W        W 9885  40.992  31.503  13.432
41468W        W 9886  32.040   4.817  12.560
41469W        W 9887  12.763  28.002  12.934
41470W        W 9888  24.504  10.331   1.757
41471W        W 9889  38.400  28.490  13.979
41472W        W 9890   0.970  32.004   3.657
41473W        W 9891  24.655  25.474   2.823
41474W        W 9892  12.851  10.724   2.219
41475W        W 9893  22.610  29.173  12.403
41476W        W 9894   9.248  44.001  13.505
41477W        W 9895  21.140  32.418  14.892
41478W        W 9896   1.272  37.901  14.456
41479W        W 9897  36.404   0.922   0.802
41480W        W 9898  42.503   3.764  14.306
41481W        W 9899  31.535   0.278  12.518
41482W        W 9900  32.417  23.029   0.272
41483W        W 9901  32.538  27.163  11.478
41484W        W 9902  33.526  38.031   2.899
41485W        W 9903  14.279  22.112   3.707
41486W        W 9904  34.035  22.543   4.254
41487W        W 9905  32.397   5.783  10.568
41488W        W 9906  37.980   1.903  10.535
41489W        W 9907   5.756  33.478   3.351
41490W        W 9908   2.308   3.292   2.311
41491W        W 9909  11.214  25.153  10.534
41492W        W 9910   1.358  10.674  11.016
41493W        W 9911  30.507  17.150   4.183
41494W        W 9912  26.164   8.315   9.631
41495W        W 9913  16.639  42.919   4.298
41496W        W 9914  14.783   3.826   3.799
41497W        W 9915  39.480  42.343   3.725
41498W        W 9916  16.182  15.311   0.882
41499W        W 9917  23.986  30.913  10.487
41500W        W 9918  30.083  19.723   4.704
41501W        W 9919  42.800   5.275   0.905
41502W        W 9920   8.771  25.987  10.021
41503W        W 9921  21.088  41.369  12.496
41504W        W 9922  12.812  42.970   2.812
41505W        W 9923  21.219  20.669   3.828
41506W        W 9924  40.523  31.584   4.191
41507W        W 9925  10.275   3.910   0.937
41508W        W 9926  36.461  35.546   0.736
41509W        W 9927  19.719  39.857   4.697
41510W        W 9928   8.272  33.883   3.835
41511W        W 9929  34.946  13.168   4.247
41512W        W 9930  15.780  11.251   2.226
41513W        W 9931   8.202  39.920  14.301
41514W        W 9932   3.332  18.120   1.933
41515W        W 9933  30.591  13.745  13.348
41516W        W 9934  21.611  16.586  12.084
41517W        W 9935  17.137  15.149   1.383
41518W        W 9936  21.086  16.260   1.850
41519W        W 9937   1.274  12.196   3.382
41520W        W 9938  31.562  35.898  10.522
41521W        W 9939  17.570  30.431   0.406
41522W        W 9940  27.054   5.373   4.260
41523W        W 9941  39.524  23.202   2.269
41524W        W 9942  29.129  37.029   1.927
41525W        W 9943   7.324   1.784   2.891
41526W        W 9944  16.082  20.142  13.384
41527W        W 9945  23.087   1.801   2.884
41528W        W 9946  37.449  43.963  10.963
41529W        W 9947  29.592  21.162   0.902
41530W        W 9948   4.360  27.994   1.751
41531W        W 9949  27.598  23.077   0.366
41532W        W 9950   7.174  16.210  13.427
41533W        W 9951  15.762   1.873   2.703
41534W        W 9952  43.995  14.609  11.429
41535W        W 9953   5.301  13.320   4.213
41536W        W 9954  15.326   1.800   0.473
41537W        W 9955  24.152   0.976   1.281
41538W        W 9956  22.605  36.592  12.341
41539W        W 9957  28.545   2.802  10.598
41540W        W 9958  10.813  33.568   2.678
41541W        W 9959  35.359  39.825  10.592
41542W        W 9960  10.224   1.382  12.009
41543W        W 9961   4.803  14.097  14.455
41544W        W 9962   3.903   9.663   2.710
41545W        W 9963   8.790   5.928   4.127
41546W        W 9964  12.642   4.738   1.869
41547W        W 9965   7.666   9.281  14.865
41548W        W 9966   0.764  44.775  12.028
41549W        W 9967  26.661  21.677  14.478
41550W        W 9968  39.321  11.231   4.636
41551W        W 9969  24.556  26.171  12.449
41552W        W 9970   1.376  32.566  12.836
41553W        W 9971   5.790  39.490   2.820
41554W        W 9972   1.323   1.447  10.438
41555W        W 9973  37.917  36.447  11.880
41556W        W 9974  28.026   1.954   4.262
41557W        W 9975   3.884  20.534  10.503
41558W        W 9976   9.371   5.341  12.483
41559W        W 9977   5.274  13.615  12.065
41560W        W 9978  36.868   2.434   2.322
41561W        W 9979  14.628  36.517   1.770
41562W        W 9980   5.268   8.347   1.433
41563W        W 9981  24.226   9.229  12.484
41564W        W 9982  16.263   6.763   0.421
41565W        W 9983   2.398   6.249  10.909
41566W        W 9984  10.858  37.083  11.118
41567W        W 9985  17.675   1.412  11.049
41568W        W 9986   9.734  39.412  11.565
41569W        W 9987  23.233  25.013  12.432
41570W        W 9988   3.300  32.049  11.600
41571W        W 9989   2.743  14.274   2.283
41572W        W 9990  25.123  28.437   0.849
41573W        W 9991  37.524   4.796   1.447
41574W        W 9992  19.106  28.059  13.388
41575W        W 9993  23.169   7.296  12.994
41576W        W 9994  16.715  37.391  11.127
41577W        W 9995  17.713  25.093   3.186
41578W        W 9996  21.567  40.974   0.736
41579W        W 9997  44.980   1.854   3.704
41580W        W 9998   1.742  21.263  13.509
41581W        W 9999  28.154  10.717  14.781
41582W        W10000   8.231  29.550   4.809
41583W        W10001  11.366  18.094   2.202
41584W        W10002  40.967  24.549  14.934
41585W        W10003  14.598   6.818  10.512
41586W        W10004  32.919  21.576   3.697
41587W        W10005  20.709  39.849   4.604
41588W        W10006  39.515   1.758  13.399
41589W        W10007  43.434   0.943  10.633
41590W        W10008  39.026   9.685   4.636
41591W        W10009  40.348  27.012  13.407
41592W        W10010  28.973  38.037  14.007
41593W        W10011  29.435  44.439  10.599
41594W        W10012  29.566  34.519   1.311
41595W        W10013  39.027  12.712  12.011
41596W        W10014  21.740  37.406  10.073
41597W        W10015  40.503  30.643  12.867
41598W        W10016  39.957  10.171   2.898
41599W        W10017  26.143   6.868  13.850
41600W        W10018  23.024   5.873   0.460
41601W        W10019  17.181   3.884   4.786
41602W        W10020   5.831  31.458  10.987
41603W        W10021   6.281  31.493  12.543
41604W        W10022  44.850  11.346   3.238
41605W        W10023  30.421  15.253  10.441
41606W        W10024  30.103  19.214   1.405
41607W        W10025  27.090  10.698  10.443
41608W        W10026  27.626  40.964   3.634
41609W        W10027  40.423  25.467  10.538
41610W        W10028  11.346  12.709  12.460
41611W        W10029   9.781  26.569   2.786
41612W        W10030   7.819   8.866  10.421
41613W        W10031  42.432   1.459   0.945
41614W        W10032  28.111   2.816  10.425
41615W        W10033  11.708  31.132  10.622
41616W        W10034  40.427   6.329   5.182
41617W        W10035  14.823  35.374   1.357
41618W        W10036   2.886  43.379  13.010
41619W        W10037   1.418  12.616   0.746
41620W        W10038  40.889   6.853   1.273
41621W        W10039  20.550   1.371   2.862
41622W        W10040   1.851  44.963  14.987
41623W        W10041  43.957  13.802   1.280
41624W        W10042   9.802  33.993  13.333
41625W        W10043  10.147  14.801  11.462
41626W        W10044  36.064  32.887   2.204
41627W        W10045   7.773  24.026   2.389
41628W        W10046  21.124  25.534   0.779
41629W        W10047  26.567  31.525  13.963
41630W        W10048   1.872  43.776   4.792
41631W        W10049  23.199  35.491   4.754
41632W        W10050  18.585  40.852  14.412
41633W        W10051  25.532   4.242   2.248
41634W        W10052  27.981  20.051  12.923
41635W        W10053   3.349  42.986  12.523
41636W        W10054  26.649  19.284   4.214
41637W        W10055  25.129   6.693   0.924
41638W        W10056  40.441  35.440   3.300
41639W        W10057  29.948  17.082   2.341
41640W        W10058  22.165  34.059   3.324
41641W        W10059  41.346  13.213   2.861
41642W        W10060  17.725  27.948   0.270
41643W        W10061   4.745  22.143  11.942
41644W        W10062  25.546  38.010   4.613
41645W        W10063  44.467  36.540   3.348
41646W        W10064  32.901  24.508  12.916
41647W        W10065  25.084  40.478  11.513
41648W        W10066  22.744  18.285   1.780
41649W        W10067  12.622  20.174  11.116
41650W        W10068   0.934  11.246   0.444
41651W        W10069  20.743  13.282   4.792
41652W        W10070  37.523  44.812  13.534
41653W        W10071  34.005   9.865   4.322
41654W        W10072  43.288  29.108   1.432
41655W        W10073  27.510  28.935   2.790
41656W        W10074   5.776  29.107   2.248
41657W        W10075   1.975   5.239   3.868
41658W        W10076  26.566  32.941  14.322
41659W        W10077  40.965  16.787   3.377
41660W        W10078   2.312  15.778  13.447
41661W        W10079   2.373  43.353  13.395
41662W        W10080  14.752  17.724   3.773
41663W        W10081  20.127  16.213   2.710
41664W        W10082  28.180   7.185  12.423
41665W        W10083  14.786  32.544   3.223
41666W        W10084  36.949   6.825   0.372
41667W        W10085  30.445  37.577   1.889
41668W        W10086   6.327  28.511   1.344
41669W        W10087  40.812  31.471  12.084
41670W        W10088  35.441  32.526   0.480
41671W        W10089  21.687  36.904  11.437
41672W        W10090  12.829  15.196  14.477
41673W        W10091   2.919  27.116  11.421
41674W        W10092  31.413  17.587   1.783
41675W        W10093  26.648  39.810  13.386
41676W        W10094   7.250  26.057  11.965
41677W        W10095  22.175  17.744  14.329
41678W        W10096  26.131  37.336  11.393
41679W        W10097  34.605   3.334   3.166
41680W        W10098  32.915   9.711   0.949
41681W        W10099  17.709  10.366   9.922
41682W        W10100  34.056  16.134  10.940
41683W        W10101  39.836  32.438  14.785
41684W        W10102   4.802  31.019  14.827
41685W        W10103  22.152  27.978   4.636
41686W        W10104  38.071  38.359   2.785
41687W        W10105  36.507   4.704   4.310
41688W        W10106  33.050  38.450   0.308
41689W        W10107   8.823  23.656  13.492
41690W        W10108  23.704   1.275  12.838
41691W        W10109  37.478  33.414  13.907
41692W        W10110  36.943   2.447  11.524
41693W        W10111  25.509  14.713   2.855
41694W        W10112  10.798  14.251   4.696
41695W        W10113  42.394  24.695  14.794
41696W        W10114   9.666  25.487  11.098
41697W        W10115  16.753   3.266   4.655
41698W        W10116   7.307  17.231   2.402
41699W        W10117   1.385  37.533  11.109
41700W        W10118   2.440  10.169  13.971
41701W        W10119   3.895  17.069   4.331
41702W        W10120   9.177   6.876   0.462
41703W        W10121  34.560  44.806   3.159
41704W        W10122  16.263  17.644   4.171
41705W        W10123  44.491  24.613   4.276
41706W        W10124   1.960  37.538   1.226
41707W        W10125   6.768   8.262   3.813
41708W        W10126  29.534  14.200   4.672
41709W        W10127  14.260  13.727   2.399
41710W        W10128   2.823  41.372   4.724
41711W        W10129  18.706  41.910  13.033
41712W        W10130  36.506   6.245   2.415
41713W        W10131  43.352  30.589  14.288
41714W        W10132  42.839  36.556  11.438
41715W        W10133  31.949   4.907  10.530
41716W        W10134   6.704  38.432  13.995
41717W        W10135   2.312  43.335  12.375
41718W        W10136   1.415  39.430  12.035
41719W        W10137   3.365  35.602   4.826
41720W        W10138   2.427  18.703  13.880
41721W        W10139  43.867  22.097  11.529
41722W        W10140   0.840  25.658  10.963
41723W        W10141  35.401   5.856  11.063
41724W        W10142  16.133  27.104  12.405
41725W        W10143  35.954   9.210   0.427
41726W        W10144  39.910  17.234  12.981
41727W        W10145  44.875  12.856  13.821
41728W        W10146  10.382   8.793  13.825
41729W        W10147   2.949   9.800  13.330
41730W        W10148  25.500  26.485   3.272
41731W        W10149  31.114  44.843   1.210
41732W        W10150   2.741  42.823   1.294
41733W        W10151  23.727  10.669   0.371
41734W        W10152  17.226  23.131   3.193
41735W        W10153   6.244  13.789  14.481
41736W        W10154  11.687  18.141   0.868
41737W        W10155  36.045  13.627   3.331
41738W        W10156  25.039  10.656   0.369
41739W        W10157  22.158  21.081   1.788
41740W        W10158  40.856  35.861   2.417
41741W        W10159   5.411  37.007  13.028
41742W        W10160   2.846  34.937  12.071
41743W        W10161  39.019  24.693  11.449
41744W        W10162  26.470  18.573  12.457
41745W        W10163  41.901   7.685   2.880
41746W        W10164   0.415  32.920   2.180
41747W        W10165  38.913  41.809   1.332
41748W        W10166  24.141  21.183   1.448
41749W        W10167  41.902  14.094   3.218
41750W        W10168  40.543  34.030  11.935
41751W        W10169  37.377  14.288   1.256
41752W        W10170  41.475  36.873  13.411
41753W        W10171  38.855  33.977   4.286
41754W        W10172   1.955   7.819  11.504
41755W        W10173  43.945  33.967   2.795
41756W        W10174  18.608  15.105  10.619
41757W        W10175  43.816   7.812  11.051
41758W        W10176   0.964  20.686  12.483
41759W        W10177  32.095   5.754  12.539
41760W        W10178  41.517  34.937  14.374
41761W        W10179  37.495  28.446  12.005
41762W        W10180  32.099  24.579  12.847
41763W        W10181  38.983   6.298   0.756
41764W        W10182  44.330  40.977  14.288
41765W        W10183  18.759  31.047   2.362
41766W        W10184  41.292  18.215  10.957
41767W        W10185  26.125  10.237  13.945
41768W        W10186   5.307  37.042   0.826
41769W        W10187  17.066  44.846   1.336
41770W        W10188   8.889  36.504   0.884
41771W        W10189  11.159  29.171   0.730
41772W        W10190  19.092  43.014   1.294
41773W        W10191   2.322   6.719   1.370
41774W        W10192  25.028  13.162   1.268
41775W        W10193  38.820  34.894  12.976
41776W        W10194  30.015   3.929  12.896
41777W        W10195  33.438   4.361   0.944
41778W        W10196  31.513  12.662  14.791
41779W        W10197  29.129  13.768   2.819
41780W        W10198  22.159   5.710   3.278
41781W        W10199  38.859  14.655   1.396
41782W        W10200  34.520  40.487   3.379
41783W        W10201  10.253  30.911  13.005
41784W        W10202  31.415  32.576   4.807
41785W        W10203  37.462  17.132   2.818
41786W        W10204  27.581  44.952   1.445
41787W        W10205  38.962  29.492   2.202
41788W        W10206  19.589  10.798   0.959
41789W        W10207  21.715  10.255   3.318
41790W        W10208   0.929  41.480  13.834
41791W        W10209  33.052   5.733  14.843
41792W        W10210  10.171   6.901   3.792
41793W        W10211  29.035  41.474   3.833
41794W        W10212   0.958  11.801  13.039
41795W        W10213  20.620   3.759  10.929
41796W        W10214  16.807  26.645  11.385
41797W        W10215   7.766  28.553   3.166
41798W        W10216  20.755  21.668   2.351
41799W        W10217  21.752   8.326   3.175
41800W        W10218  10.370   7.339   9.928
41801W        W10219  18.778   5.840   2.695
41802W        W10220  13.816  23.009   1.425
41803W        W10221  36.048  16.199  12.432
41804W        W10222  17.223  41.912   3.355
41805W        W10223   4.247  26.688   3.161
41806W        W10224   5.844  26.072   0.429
41807W        W10225   5.923  24.562  13.350
41808W        W10226  29.996   1.920  12.520
41809W        W10227  44.330  13.310  10.079
41810W        W10228  39.939  21.742   3.719
41811W        W10229  10.166  40.466   4.240
41812W        W10230  34.902  24.052   1.817
41813W        W10231   5.693  37.946   2.753
41814W        W10232   5.397  21.725  10.954
41815W        W10233  27.085   8.745  12.419
41816W        W10234  10.332  13.272  11.928
41817W        W10235  43.428   2.721  12.858
41818W        W10236  23.668  19.190  12.851
41819W        W10237  44.489  21.526  14.974
41820W        W10238  35.910  38.340   5.116
41821W        W10239  12.617  42.358   1.706
41822W        W10240  39.486   7.260   0.874
41823W        W10241  14.769  36.023  11.069
41824W        W10242  39.885   4.734   1.858
41825W        W10243  32.946  18.698  10.477
41826W        W10244  16.077  40.406  12.095
41827W        W10245  33.041   9.177  11.043
41828W        W10246  35.372   6.677   3.840
41829W        W10247  29.626  11.332   1.745
41830W        W10248  17.279   6.257  13.473
41831W        W10249  40.480  34.967   4.321
41832W        W10250  36.358   5.300   3.632
41833W        W10251  11.304  12.182  11.960
41834W        W10252   6.756  14.317  14.479
41835W        W10253  19.736   9.388   3.217
41836W        W10254   6.305  44.388   4.152
41837W        W10255  29.054  42.778  14.830
41838W        W10256  27.569  27.595   4.820
41839W        W10257  27.182   4.915   4.207
41840W        W10258   2.356  37.503   2.883
41841W        W10259   1.835  31.069  11.600
41842W        W10260  20.588  29.453  14.780
41843W        W10261  14.685  23.616   2.329
41844W        W10262  12.185   5.241  12.047
41845W        W10263  10.752  13.741   3.830
41846W        W10264  35.950  35.887  11.000
41847W        W10265  41.929  24.093   4.742
41848W        W10266  10.234  12.778   1.700
41849W        W10267  18.175   9.195  14.806
41850W        W10268  20.661  28.442  14.278
41851W        W10269  40.497  42.996  10.140
41852W        W10270   7.737   5.745  11.483
41853W        W10271  38.877  12.723   4.327
41854W        W10272  37.996   9.686  10.939
41855W        W10273  36.512  37.893  11.044
41856W        W10274   9.284  17.648   2.665
41857W        W10275  18.178  42.925   4.342
41858W        W10276   3.366  42.789   3.351
41859W        W10277  22.506  28.934   3.855
41860W        W10278  39.353  12.267   0.948
41861W        W10279  22.638   8.195   3.802
41862W        W10280  21.149  26.693   0.851
41863W        W10281  40.455  36.935  13.918
41864W        W10282   3.888  34.580  11.398
41865W        W10283  20.205  23.692   1.934
41866W        W10284  44.896  17.190  14.833
41867W        W10285  18.588  27.150   4.747
41868W        W10286  15.094  41.953  11.587
41869W        W10287   9.250  19.257   3.384
41870W        W10288  27.454  16.699   1.368
41871W        W10289   9.357   1.929   1.311
41872W        W10290   6.426  33.127   3.359
41873W        W10291  22.142  39.534  14.000
41874W        W10292  20.696   5.774  12.067
41875W        W10293  32.437  14.161   2.731
41876W        W10294  44.434   9.681   1.343
41877W        W10295  41.510  38.432   0.866
41878W        W10296  42.317  24.120  11.513
41879W        W10297  10.374  17.298   3.819
41880W        W10298  36.386  36.903  13.912
41881W        W10299   1.293  30.044  10.906
41882W        W10300   9.757  14.625   2.332
41883W        W10301  43.022   4.423   0.334
41884W        W10302  16.287  21.151   1.380
41885W        W10303  15.624   4.237   2.889
41886W        W10304  10.675  14.149   0.319
41887W        W10305  27.553  15.266  13.934
41888W        W10306  18.233  26.209   4.784
41889W        W10307  28.665  36.453  11.967
41890W        W10308   8.837  39.529   0.317
41891W        W10309   1.305  32.411  12.004
41892W        W10310  44.368  11.671  14.353
41893W        W10311  40.318   5.399  11.413
41894W        W10312  10.309  37.885   0.768
41895W        W10313  40.004  13.212   1.775
41896W        W10314  40.540  19.107  12.824
41897W        W10315  13.670  18.602  12.519
41898W        W10316   5.248   7.806   2.215
41899W        W10317  40.809  37.441  13.518
41900W        W10318  21.695  31.993   4.226
41901W        W10319  25.094  38.547   3.226
41902W        W10320   3.946  22.219  13.841
41903W        W10321  14.251  39.905  14.399
41904W        W10322  10.377  18.085  12.891
41905W        W10323  16.218  28.008   1.321
41906W        W10324  36.903  42.921   4.826
41907W        W10325  25.546  24.498  14.927
41908W        W10326  10.211  22.626  14.932
41909W        W10327  28.114  42.375   2.224
41910W        W10328   7.725  16.257   1.233
41911W        W10329  34.595   1.767  12.459
41912W        W10330  32.024  33.980  11.569
41913W        W10331  22.206   1.271   3.191
41914W        W10332  18.272  43.491  11.372
41915W        W10333   4.379  44.809   2.340
41916W        W10334  31.097  36.052  10.108
41917W        W10335  27.596  37.004   2.809
41918W        W10336  25.157  14.658  13.805
41919W        W10337  25.503  42.909   2.180
41920W        W10338  18.689  29.944  10.407
41921W        W10339  32.621  34.580   4.819
41922W        W10340  33.038  27.033  14.009
41923W        W10341  42.795  20.094   1.223
41924W        W10342  29.646  34.966  14.884
41925W        W10343  15.645  15.727   1.729
41926W        W10344  17.096   1.354  11.930
41927W        W10345  39.008   5.894  11.126
41928W        W10346  25.652  42.510  12.408
41929W        W10347  12.700  19.230   3.240
41930W        W10348  17.214   6.760  11.880
41931W        W10349  22.015  38.392   3.669
41932W        W10350   0.276  31.995  10.487
41933W        W10351  35.405  26.511  13.049
41934W        W10352  41.943  12.221   1.324
41935W        W10353  31.405  25.497  10.900
41936W        W10354  44.381  21.206  10.495
41937W        W10355  34.077  18.573  11.105
41938W        W10356  36.978  42.891  13.910
41939W        W10357  42.451  21.226  13.448
41940W        W10358   5.213  44.333  13.008
41941W        W10359  32.968   3.934  11.590
41942W        W10360  20.254   3.737  14.934
41943W        W10361  24.137  30.934  12.402
41944W        W10362   7.796  27.174   3.189
41945W        W10363  34.465  18.775  14.370
41946W        W10364  29.497  37.419   5.181
41947W        W10365   4.873   0.409  11.477
41948W        W10366  19.280  25.524   4.650
41949W        W10367  20.636   2.250   2.730
41950W        W10368  16.293   5.296  14.856
41951W        W10369  16.085  40.466   0.919
41952W        W10370  24.198   8.718   0.736
41953W        W10371  34.881   2.278  11.033
41954W        W10372   4.204  32.124  13.335
41955W        W10373   8.660  11.298   0.809
41956W        W10374  27.075  15.698   5.295
41957W        W10375  13.730  22.549  12.353
41958W        W10376  16.591   6.236  11.935
41959W        W10377  17.142  35.960  14.948
41960W        W10378  22.634  37.923   4.297
41961W        W10379  20.063  21.684   2.768
41962W        W10380  13.229  24.534   0.420
41963W        W10381  36.385  24.521  12.375
41964W        W10382  14.829  16.189  11.444
41965W        W10383  31.598  40.912  12.055
41966W        W10384  18.232  15.185  12.083
41967W        W10385  44.913  21.582  14.314
41968W        W10386  29.128   3.317   1.447
41969W        W10387  20.538  36.409   1.341
41970W        W10388  30.616  32.485   3.308
41971W        W10389  37.355   9.295  13.802
41972W        W10390  18.197  31.440  11.609
41973W        W10391  35.411  43.018   1.403
41974W        W10392  41.880  16.774  11.003
41975W        W10393  44.441  35.074  10.125
41976W        W10394  44.980  36.006   2.199
41977W        W10395  44.265  24.632   0.423
41978W        W10396  22.166  16.272   1.234
41979W        W10397   3.850  35.391  12.570
41980W        W10398  36.491  33.588   1.216
41981W        W10399  42.827  38.912   5.663
41982W        W10400   4.768   8.398   4.710
41983W        W10401  13.111  16.680  10.564
41984W        W10402  14.129  19.284   2.742
41985W        W10403  14.673  10.743   3.821
41986W        W10404  32.909  44.354   4.833
41987W        W10405  16.293  34.565  12.524
41988W        W10406   6.399  15.675  14.463
41989W        W10407  42.303  22.565  12.503
41990W        W10408  18.731  15.171   2.683
41991W        W10409  18.188  40.826  13.983
41992W        W10410  35.593  13.682  13.965
41993W        W10411  16.095  33.402   3.758
41994W        W10412  23.657  38.418   0.322
41995W        W10413  19.214  15.817   0.733
41996W        W10414  31.086  13.691  10.644
41997W        W10415  20.677   6.777  11.490
41998W        W10416   3.758  35.538   0.796
41999W        W10417  40.330   0.872   3.318
42000W        W10418  42.416   0.972   3.675
42001W        W10419  29.053  39.989  14.363
42002W        W10420  35.997  28.039  11.593
42003W        W10421  32.131  10.365   0.390
42004W        W10422  39.814  15.199  13.915
42005W        W10423   4.717   8.733  12.837
42006W        W10424  36.921  18.715   1.881
42007W        W10425  12.789   1.403  11.978
42008W        W10426  44.802  28.674   0.268
42009W        W10427  10.641  15.817  10.523
42010W        W10428   2.358   7.745  11.879
42011W        W10429  17.727  29.587   2.178
42012W        W10430  40.824  35.530  12.477
42013W        W10431  11.254  16.252  11.516
42014W        W10432  22.501  42.854   1.788
42015W        W10433  44.859  35.918   0.813
42016W        W10434  37.532  19.230   4.289
42017W        W10435  14.742  25.493  10.504
42018W        W10436  11.145  18.277   0.865
42019W        W10437  25.008  42.344   2.680
42020W        W10438  25.992   1.292   1.909
42021W        W10439  36.514  19.086  13.497
42022W        W10440  15.133   9.321  13.456
42023W        W10441  43.389  41.788   4.650
42024W        W10442  15.736  35.424   2.373
42025W        W10443  32.486  38.875   3.223
42026W        W10444  14.289  14.252   3.206
42027W        W10445   9.661  27.138  14.503
42028W        W10446   5.695   6.759   3.342
42029W        W10447  21.134  20.620   2.664
42030W        W10448  24.591  29.021  13.883
42031W        W10449   9.294   0.297  14.014
42032W        W10450  10.141  38.560   1.769
42033W        W10451  24.053   8.685  13.903
42034W        W10452  34.112  28.143   4.130
42035W        W10453  12.246   9.287   1.396
42036W        W10454  14.326  35.099  11.890
42037W        W10455   7.809  38.006   1.800
42038W        W10456   4.843  14.727   3.238
42039W        W10457  14.105  40.492   3.330
42040W        W10458   9.756  39.965   2.315
42041W        W10459  28.073  26.991  14.781
42042W        W10460  23.638  22.747   2.851
42043W        W10461  26.976  43.006   3.337
42044W        W10462  36.359  18.185   1.873
42045W        W10463   4.883  40.022   3.828
42046W        W10464  12.774  41.377  10.959
42047W        W10465   6.421  33.977  14.838
42048W        W10466  14.745  27.586  14.342
42049W        W10467   3.427  41.396   2.839
42050W        W10468  43.366  16.131   4.211
42051W        W10469  35.889  29.140  10.586
42052W        W10470   4.760   9.305   3.840
42053W        W10471  38.043  31.954   3.819
42054W        W10472  15.096  26.619   5.149
42055W        W10473   3.718   4.910  13.056
42056W        W10474  21.044  10.654   4.737
42057W        W10475  13.318  42.828   1.263
42058W        W10476   5.823  35.963  10.981
42059W        W10477  41.891  33.449  10.566
42060W        W10478  24.548  13.174  13.422
42061W        W10479  25.131  28.935   2.366
42062W        W10480  36.955  39.039  10.020
42063W        W10481   1.405   3.278  11.434
42064W        W10482   8.709  23.167  11.958
42065W        W10483  38.860   1.893   0.266
42066W        W10484  28.547   5.922  13.880
42067W        W10485  36.477  36.388  11.591
42068W        W10486  38.028  17.225   4.256
42069W        W10487   0.904  12.661  13.824
42070W        W10488  41.034  14.595  11.377
42071W        W10489  14.629  19.213   1.328
42072W        W10490  10.722   8.890  13.491
42073W        W10491  23.083  17.764   4.249
42074W        W10492  23.172  44.288   2.280
42075W        W10493  39.959  39.481  11.125
42076W        W10494  10.172  30.581   3.299
42077W        W10495   0.779  12.851   4.289
42078W        W10496  11.716  31.544  13.488
42079W        W10497  13.109  24.081   0.874
42080W        W10498   8.258  14.317  14.017
42081W        W10499   6.239  44.948   2.870
42082W        W10500  41.897  37.851  11.390
42083W        W10501  26.157   4.223  11.428
42084W        W10502  44.447  38.045  13.421
42085W        W10503  22.017   4.823  11.889
42086W        W10504  21.578  16.270   3.243
42087W        W10505  14.815  41.438   0.376
42088W        W10506  40.834  10.305   2.748
42089W        W10507  14.798  26.610   0.732
42090W        W10508  29.007  31.485  10.931
42091W        W10509  15.117  40.348  13.445
42092W        W10510  42.428  19.686  13.415
42093W        W10511  10.321  21.514  12.982
42094W        W10512  44.790  14.603  14.278
42095W        W10513   8.279  10.224   1.339
42096W        W10514  41.352  23.590   1.860
42097W        W10515   3.459   9.152  14.341
42098W        W10516  38.381  38.444   0.783
42099W        W10517  34.879  42.782  12.831
42100W        W10518  42.462  21.123  14.279
42101W        W10519   7.745   3.356   0.350
42102W        W10520  30.632  15.115   4.233
42103W        W10521  14.275   8.678  10.890
42104W        W10522  12.827  29.535  14.367
42105W        W10523  13.766   2.331  12.003
42106W        W10524  11.216   2.421   1.916
42107W        W10525  20.133  35.366   1.335
42108W        W10526  23.145  19.122  14.512
42109W        W10527   4.920  34.952   1.795
42110W        W10528  10.227  18.275   4.828
42111W        W10529  23.700  19.136   0.440
42112W        W10530  15.182  39.064  13.969
42113W        W10531   7.707  25.023   1.934
42114W        W10532  32.135   4.870  14.333
42115W        W10533   8.798  27.506  14.510
42116W        W10534  37.543  19.647   0.333
42117W        W10535  15.820  23.579   2.197
42118W        W10536  32.555  26.098   0.848
42119W        W10537  37.966  27.977   3.687
42120W        W10538   8.271  32.449  14.923
42121W        W10539  36.509  14.687   4.705
42122W        W10540  36.842  18.128   0.803
42123W        W10541  25.029  22.202  13.818
42124W        W10542  13.827  27.006   2.762
42125W        W10543  20.029   5.337  13.334
42126W        W10544  44.907  36.084   3.827
42127W        W10545  25.215  32.534  11.483
42128W        W10546  27.127  41.393   5.085
42129W        W10547  34.007   6.777  14.372
42130W        W10548  11.225  27.487   0.749
42131W        W10549  10.191  10.200  11.123
42132W        W10550  14.722  36.348  10.441
42133W        W10551  40.344  26.153  13.034
42134W        W10552   1.389  29.042   0.909
42135W        W10553   3.887  34.442   3.641
42136W        W10554  10.240  17.156   2.408
42137W        W10555   5.819  42.011  14.953
42138W        W10556  42.806  31.153   2.667
42139W        W10557  38.475   7.280   0.335
42140W        W10558  22.121  41.853  12.962
42141W        W10559   6.863   7.225  12.979
42142W        W10560  18.051  14.780   1.363
42143W        W10561  38.454  36.986   4.304
42144W        W10562  31.593   5.695   2.723
42145W        W10563   4.741  44.356  14.333
42146W        W10564   5.323  28.149   0.411
42147W        W10565  40.320   8.816  11.461
42148W        W10566   5.256  14.257  12.913
42149W        W10567   5.757   3.761  14.897
42150W        W10568  26.206   8.173  10.498
42151W        W10569  43.394  23.592  12.463
42152W        W10570  43.438   8.851   1.234
42153W        W10571  21.707  17.209   4.336
42154W        W10572  32.925  18.268  12.549
42155W        W10573  34.095   8.887  10.926
42156W        W10574  26.068  34.415   1.781
42157W        W10575  28.478  26.982  12.422
42158W        W10576  23.568  20.184  10.459
42159W        W10577  11.237  31.481  12.565
42160W        W10578  20.045  33.007   4.155
42161W        W10579  13.799  33.414  13.521
42162W        W10580   9.838  33.620  14.801
42163W        W10581  39.334  32.415  13.404
42164W        W10582   6.823  29.456  13.363
42165W        W10583  36.880   4.707   0.392
42166W        W10584  16.275  18.181  10.534
42167W        W10585  37.341   7.250   2.245
42168W        W10586   8.197  31.064  11.436
42169W        W10587  27.448  10.822   4.746
42170W        W10588  42.983  27.169   3.845
42171W        W10589  38.854   4.291  13.952
42172W        W10590  20.626  40.359  12.829
42173W        W10591   9.686  28.644   4.707
42174W        W10592  23.068  28.642  13.006
42175W        W10593  24.119  33.891   0.919
42176W        W10594  20.205  25.184   3.185
42177W        W10595  33.600  36.980  12.478
42178W        W10596   8.720  28.625   2.862
42179W        W10597  39.005  28.991  10.114
42180W        W10598   8.354  33.875  12.379
42181W        W10599  27.466  41.491   1.735
42182W        W10600   4.936  32.609   0.844
42183W        W10601  26.197  41.822  14.401
42184W        W10602   3.313  39.410   0.263
42185W        W10603  12.118  29.444  14.806
42186W        W10604   9.315  14.742  11.904
42187W        W10605  28.015   3.945   3.296
42188W        W10606  13.736  13.652   3.230
42189W        W10607  27.515  33.101  14.896
42190W        W10608  18.714   0.305   4.207
42191W        W10609   7.674   1.957  12.091
42192W        W10610  20.739  41.368   3.295
42193W        W10611  16.196   1.761   1.218
42194W        W10612  14.723  20.583  10.548
42195W        W10613   2.927   8.328   1.822
42196W        W10614  19.239   2.400   0.370
42197W        W10615  22.657   4.821   0.295
42198W        W10616  15.086  14.640  12.031
42199W        W10617   1.301  37.007   4.185
42200W        W10618  32.503  33.501   2.309
42201W        W10619  38.007  15.719  11.008
42202W        W10620  27.066  32.485  13.936
42203W        W10621  13.628  11.351  12.374
42204W        W10622   6.903  30.975  14.997
42205W        W10623  19.128   9.743  11.987
42206W        W10624  39.329  20.069  12.483
42207W        W10625  22.741  36.958  12.084
42208W        W10626  12.208  18.679   1.843
42209W        W10627  33.128  44.837   4.342
42210W        W10628   4.384  16.672  14.437
42211W        W10629   5.723  44.302   3.378
42212W        W10630  40.977  34.483   2.826
42213W        W10631  32.591  41.398  12.017
42214W        W10632  29.496  16.652  11.504
42215W        W10633   7.861  17.692  11.574
42216W        W10634  20.159  44.356   3.720
42217W        W10635  13.797  10.199  11.955
42218W        W10636  23.518  30.159   2.748
42219W        W10637  31.448   8.778   2.779
42220W        W10638  30.931  44.010   1.853
42221W        W10639   5.439  41.915  12.843
42222W        W10640  16.634  41.297   2.354
42223W        W10641  31.042  10.330  12.879
42224W        W10642  29.158  40.459  11.048
42225W        W10643  34.874  20.750   3.820
42226W        W10644  33.616   2.292   0.450
42227W        W10645   5.322  36.517  14.865
42228W        W10646   7.672  17.751  14.825
42229W        W10647  32.107  20.171   3.766
42230W        W10648  16.256  44.327   9.976
42231W        W10649  25.712  11.754   0.828
42232W        W10650  27.473  34.560  11.573
42233W        W10651  41.004  36.471  10.894
42234W        W10652  29.934  10.719  14.925
42235W        W10653  15.143  32.428  14.336
42236W        W10654  31.126  33.911  13.992
42237W        W10655   0.366  39.534   2.804
42238W        W10656  31.898   1.363   4.708
42239W        W10657  28.134  17.652   1.314
42240W        W10658   1.914   1.797  13.955
42241W        W10659   6.710   4.733  14.320
42242W        W10660  34.396  26.476  12.870
42243W        W10661  10.801  32.095   2.836
42244W        W10662  36.350  15.704  11.922
42245W        W10663  13.256  36.584  14.872
42246W        W10664  43.384  19.565  12.412
42247W        W10665  40.959  23.013   3.836
42248W        W10666  39.405  17.773  12.510
42249W        W10667  28.537  36.398  13.899
42250W        W10668  40.907  36.574  12.344
42251W        W10669  37.443  38.388  13.796
42252W        W10670  42.339  23.062  13.509
42253W        W10671  43.978  34.601   1.430
42254W        W10672   4.314  23.166   3.639
42255W        W10673  22.583  18.080   4.188
42256W        W10674  19.252  29.574  14.355
42257W        W10675  12.292  13.801  13.867
42258W        W10676  43.926  33.430   1.449
42259W        W10677  27.606  20.213   1.382
42260W        W10678  35.597  32.413  14.356
42261W        W10679  33.459  21.054  10.572
42262W        W10680  33.059   0.864  11.462
42263W        W10681  41.461  29.445   2.835
42264W        W10682  42.002  15.796   1.353
42265W        W10683  23.546  14.109   1.221
42266W        W10684  10.683  15.105   4.173
42267W        W10685  23.196  26.580   4.809
42268W        W10686  10.356  19.243  13.514
42269W        W10687   2.935  20.736   0.383
42270W        W10688  27.692  44.408  14.796
42271W        W10689  13.128  21.597  10.575
42272W        W10690  22.224  26.502   1.856
42273W        W10691  22.122  24.984   0.860
42274W        W10692   5.239  29.662  11.386
42275W        W10693  19.693  32.542  10.636
42276W        W10694  23.696  21.529   2.821
42277W        W10695  24.166  36.452   0.469
42278W        W10696   5.391  11.343  10.603
42279W        W10697  24.175  15.248  13.814
42280W        W10698  18.277  27.060   4.681
42281W        W10699  39.008  15.736  11.381
42282W        W10700  25.207  16.708  12.875
42283W        W10701  16.226  31.449  12.053
42284W        W10702   4.233  36.983  14.515
42285W        W10703   1.427  44.353   4.619
42286W        W10704  28.963  30.490   4.807
42287W        W10705  21.115  38.971   0.275
42288W        W10706  39.008   8.194   0.730
42289W        W10707   1.383  19.063   5.692
42290W        W10708  12.140  13.206  13.791
42291W        W10709  16.782  39.363   4.276
42292W        W10710  27.955  26.683   5.218
42293W        W10711  24.616   4.752   4.159
42294W        W10712  10.808   4.208  14.773
42295W        W10713  32.576  37.989  10.485
42296W        W10714  22.127  26.003  12.839
42297W        W10715  19.611  29.427   3.634
42298W        W10716  24.612  18.590  13.401
42299W        W10717  36.935   1.394   1.342
42300W        W10718  26.696  41.835   0.382
42301W        W10719   5.922  24.531  14.926
42302W        W10720   5.367   7.680  14.020
42303W        W10721  28.013  40.536  11.401
42304W        W10722  24.106  21.737   0.819
42305W        W10723   3.305  37.055  11.106
42306W        W10724  38.931  36.861  12.924
42307W        W10725   9.711  29.635   2.275
42308W        W10726  32.918  22.114  12.558
42309W        W10727  36.387   9.754   1.348
42310W        W10728  41.838   8.804   3.818
42311W        W10729   2.894   8.883   3.785
42312W        W10730   3.790  41.984  14.993
42313W        W10731   9.249  24.525  12.575
42314W        W10732  19.582  42.445   1.838
42315W        W10733  40.449  35.879   0.260
42316W        W10734  37.509  34.052   4.774
42317W        W10735  38.910  11.367  11.581
42318W        W10736   4.796   8.340  10.503
42319W        W10737  41.941  38.010  14.319
42320W        W10738  25.048  18.604  13.924
42321W        W10739   8.688  35.572   3.867
42322W        W10740  13.280  31.522  14.297
42323W        W10741  26.612  32.943   0.384
42324W        W10742  22.177  10.713  10.929
42325W        W10743  39.053  21.573  13.868
42326W        W10744  40.412  43.306  13.457
42327W        W10745   9.752  31.590  13.811
42328W        W10746  37.336  29.162  13.034
42329W        W10747  31.931  20.165  11.097
42330W        W10748  36.898  19.047  12.866
42331W        W10749  44.987  15.183   1.302
42332W        W10750  33.131  39.448   2.387
42333W        W10751  27.026   3.282  14.881
42334W        W10752  34.928  31.433   3.678
42335W        W10753   8.839  26.157  14.488
42336W        W10754   6.349  12.658  12.531
42337W        W10755  30.983  17.647   3.748
42338W        W10756   8.859  21.709   4.320
42339W        W10757  15.122   0.959   3.330
42340W        W10758  25.676   3.357  12.854
42341W        W10759  15.787  21.679  13.341
42342W        W10760   9.672   4.942  13.903
42343W        W10761   5.788   4.762   4.131
42344W        W10762  23.192  22.747  10.462
42345W        W10763  41.361  27.551   3.293
42346W        W10764  37.084  23.556   1.357
42347W        W10765  27.971  14.327   0.781
42348W        W10766   3.756   8.336   1.366
42349W        W10767  19.586  11.668   4.771
42350W        W10768  32.472  19.542   0.255
42351W        W10769  29.502  36.413  13.536
42352W        W10770  29.553  32.002  12.419
42353W        W10771   0.479  34.532   4.765
42354W        W10772  37.349  31.533   0.881
42355W        W10773  21.548  15.260  11.553
42356W        W10774  41.452   5.298  12.950
42357W        W10775  17.255  14.198  12.369
42358W        W10776  35.528  40.391   0.455
42359W        W10777  42.824  36.970   2.348
42360W        W10778  17.792  28.573  11.443
42361W        W10779   9.745  25.533   0.800
42362W        W10780  44.475   0.489   4.690
42363W        W10781  44.337   8.166   0.357
42364W        W10782  23.034  43.398  13.848
42365W        W10783  38.906  29.486   1.756
42366W        W10784   1.337  16.227  11.067
42367W        W10785   7.345  26.045   4.799
42368W        W10786  32.441   2.878   2.767
42369W        W10787   5.307   6.204  10.919
42370W        W10788  28.984  33.581   2.284
42371W        W10789  32.572  42.347  12.054
42372W        W10790  21.577  11.307   0.259
42373W        W10791  28.548  10.727  13.497
42374W        W10792  34.473  38.839  11.376
42375W        W10793  40.883  11.854   4.778
42376W        W10794  30.982  13.181   1.376
42377W        W10795  33.033  29.053  11.869
42378W        W10796  30.154  15.183   3.715
42379W        W10797  37.872  41.439  10.920
42380W        W10798  11.300  20.226   1.385
42381W        W10799  35.566  15.821   2.748
42382W        W10800   6.920  28.968   2.214
42383W        W10801  31.118  29.430   4.694
42384W        W10802   1.796  34.953  12.055
42385W        W10803  40.406  23.671  11.126
42386W        W10804  40.512  29.552  12.538
42387W        W10805  43.909  25.506  11.015
42388W        W10806  30.577  28.478  14.283
42389W        W10807  17.226  24.089   4.165
42390W        W10808  34.574  42.866  12.546
42391W        W10809  36.941   5.239   3.231
42392W        W10810  13.319  20.710   3.270
42393W        W10811  24.645  20.062  13.353
42394W        W10812  24.623  32.566   2.891
42395W        W10813  34.439   0.939  12.379
42396W        W10814  15.221  39.403   3.332
42397W        W10815  35.907  22.610  13.413
42398W        W10816  36.552  40.394   5.302
42399W        W10817   0.984   6.228  11.972
42400W        W10818   7.767  18.160   2.340
42401W        W10819  30.151  34.481  11.077
42402W        W10820   2.940  44.441  14.904
42403W        W10821  14.143  17.111  11.486
42404W        W10822  17.103  32.425  14.409
42405W        W10823  11.783   1.475  11.577
42406W        W10824  33.091  12.263   3.701
42407W        W10825   4.237  32.069   4.206
42408W        W10826  24.700  44.363  11.589
42409W        W10827  36.045   6.759   2.319
42410W        W10828  40.882  34.999  11.485
42411W        W10829  33.988  29.989  10.564
42412W        W10830  18.671  33.498  10.569
42413W        W10831  38.835   0.401  10.618
42414W        W10832  38.463  28.448  10.630
42415W        W10833  27.476   5.303  11.057
42416W        W10834  42.345  44.000   2.862
42417W        W10835  32.509  44.379   9.976
42418W        W10836  23.047  20.213  11.544
42419W        W10837  12.238  23.233   2.187
42420W        W10838   2.233  12.856  13.880
42421W        W10839  26.085  24.006  12.518
42422W        W10840  39.383  38.517   2.404
42423W        W10841   2.726  41.403  11.941
42424W        W10842  33.512  32.496   4.608
42425W        W10843   5.688  41.951   0.727
42426W        W10844   0.384  14.654  12.875
42427W        W10845  15.609  44.833  12.452
42428W        W10846  20.107  43.327   2.252
42429W        W10847  30.012  37.042  14.299
42430W        W10848  28.181  15.280  10.585
42431W        W10849  25.966   7.211  13.971
42432W        W10850  26.063  19.177  14.005
42433W        W10851  32.023  38.526   0.307
42434W        W10852   1.481  38.830   0.483
42435W        W10853  44.932   8.359  10.581
42436W        W10854  36.907  17.590  12.371
42437W        W10855  18.056  17.302  14.980
42438W        W10856  19.579  31.971   5.275
42439W        W10857  17.239  43.394   2.800
42440W        W10858  23.110  14.612   4.650
42441W        W10859  43.807   4.368  13.434
42442W        W10860  42.893   5.744   3.339
42443W        W10861  10.727  38.490  10.512
42444W        W10862  20.541  13.193   2.335
42445W        W10863  20.636  22.123  12.490
42446W        W10864  19.718  40.989   1.697
42447W        W10865  24.095   5.883  10.992
42448W        W10866  29.114  20.130   1.401
42449W        W10867  21.537   9.255  13.493
42450W        W10868  41.911  38.912   5.180
42451W        W10869  36.053  20.525   3.237
42452W        W10870   2.746  42.965   4.275
42453W        W10871   6.783  17.296  11.909
42454W        W10872  34.436  35.864   1.772
42455W        W10873  31.617  22.066  14.855
42456W        W10874   4.246  37.345  13.932
42457W        W10875  35.441  12.143  14.838
42458W        W10876  21.160  23.639  14.923
42459W        W10877  29.614  35.406  14.980
42460W        W10878  20.656   2.884  13.531
42461W        W10879  42.012   7.414   4.291
42462W        W10880  22.138  37.853   1.331
42463W        W10881  26.482  25.537  12.843
42464W        W10882  24.042  12.616  11.008
42465W        W10883  34.065  18.691  10.528
42466W        W10884   4.318   8.818  13.858
42467W        W10885  11.808  39.937   1.801
42468W        W10886   3.300   5.286   2.193
42469W        W10887  25.070  36.925   4.293
42470W        W10888   3.323  33.618   5.119
42471W        W10889  11.796  28.654   3.786
42472W        W10890  38.898  27.050   2.668
42473W        W10891  18.762  31.028   3.166
42474W        W10892   0.910   9.710   1.328
42475W        W10893   1.832  34.591   1.345
42476W        W10894  16.735   6.356  14.908
42477W        W10895  33.609   8.391  10.915
42478W        W10896  37.515  33.531  12.472
42479W        W10897  12.831  38.390  10.929
42480W        W10898   1.906   5.909  11.558
42481W        W10899  20.043   6.818   0.264
42482W        W10900  34.563  26.457   4.290
42483W        W10901  40.916  41.335   2.746
42484W        W10902   3.387   7.677   1.427
42485W        W10903   7.882  28.993   2.901
42486W        W10904  44.476  23.027  10.486
42487W        W10905  41.353  13.241  13.945
42488W        W10906  30.439  16.307   3.237
42489W        W10907  30.133  44.825  13.040
42490W        W10908   9.725  10.768   0.327
42491W        W10909  39.427  39.002  11.594
42492W        W10910  30.077  40.922  14.872
42493W        W10911  36.946  39.864   2.777
42494W        W10912  38.514  17.269  10.532
42495W        W10913  41.875   2.338   2.746
42496W        W10914  28.991   4.807  14.307
42497W        W10915  36.875  13.705   0.800
42498W        W10916  20.069   0.422  12.886
42499W        W10917  43.824  41.883   2.328
42500W        W10918   5.212  12.833   0.854
42501W        W10919  26.651  15.641   2.239
42502W        W10920  14.749   5.847   2.225
42503W        W10921  29.935  41.450   2.870
42504W        W10922  19.184  36.982   3.314
42505W        W10923  18.704  25.565   0.805
42506W        W10924  16.135  31.044   2.693
42507W        W10925  34.043  16.722   1.304
42508W        W10926  11.826   4.406  10.442
42509W        W10927   4.799  31.648  12.063
42510W        W10928  11.728  37.038  11.988
42511W        W10929   2.341  42.821   1.883
42512W        W10930   4.429  13.260   0.761
42513W        W10931  42.909  12.837  14.951
42514W        W10932  43.837  26.982   4.251
42515W        W10933  19.696  32.980  14.497
42516W        W10934  28.152  13.726   3.346
42517W        W10935   0.363  34.977   3.718
42518W        W10936  18.125  39.994   0.769
42519W        W10937  28.672  11.345  10.553
42520W        W10938   5.263  27.502  12.569
42521W        W10939  16.115   9.703  11.931
42522W        W10940  21.252  42.885   0.453
42523W        W10941  14.195  21.559  12.422
42524W        W10942  24.985   7.414  12.394
42525W        W10943  27.002  33.911  13.394
42526W        W10944  40.484  37.372   3.345
42527W        W10945  13.175  35.866   9.954
42528W        W10946  17.775   7.822   0.728
42529W        W10947   5.864  39.544   3.371
42530W        W10948  17.606  24.640  10.619
42531W        W10949  23.207  42.013   2.412
42532W        W10950  15.180  37.889   4.720
42533W        W10951   9.820  31.484  14.304
42534W        W10952  36.900  30.530  12.046
42535W        W10953   2.388  34.609   9.930
42536W        W10954  23.594   4.907  12.958
42537W        W10955  39.513  18.131  11.892
42538W        W10956  15.682  28.561  10.420
42539W        W10957   8.213  19.181  12.388
42540W        W10958  27.467  39.472  12.491
42541W        W10959   2.746  27.040  14.838
42542W        W10960  29.444  34.016   4.339
42543W        W10961   7.336  29.653   4.641
42544W        W10962  43.008  16.599  14.886
42545W        W10963  41.843  18.685   3.269
42546W        W10964  44.434   9.323   2.729
42547W        W10965   7.306  33.961   2.288
42548W        W10966  33.424  44.900   4.116
42549W        W10967  19.138   4.366  14.029
42550W        W10968  35.386  21.253  11.537
42551W        W10969   0.768  38.937  10.522
42552W        W10970  42.357  19.592   4.726
42553W        W10971  36.385  37.529   0.460
42554W        W10972  25.659  32.598   4.321
42555W        W10973  37.080  26.580   4.350
42556W        W10974  34.546   8.375  13.960
42557W        W10975  25.041  42.805   2.734
42558W        W10976  41.931  25.189  13.380
42559W        W10977  43.462   7.901  10.927
42560W        W10978   4.744  13.238  10.082
42561W        W10979  20.208  19.107  14.785
42562W        W10980  13.190  24.993   4.176
42563W        W10981  43.334  35.880   2.761
42564W        W10982  31.561  17.155  14.963
42565W        W10983   3.744  22.039  11.891
42566W        W10984  12.278  30.037   3.734
42567W        W10985  28.168  36.907   2.230
42568W        W10986  12.826  36.353   3.722
42569W        W10987   4.883  28.184   3.297
42570W        W10988  37.509   6.408  12.425
42571W        W10989  42.417  41.952  12.008
42572W        W10990  36.878  30.420  13.526
42573W        W10991  11.309  17.154  13.547
42574W        W10992  36.392  12.292   0.869
42575W        W10993  10.839  26.497   0.298
42576W        W10994  21.245  42.798  12.516
42577W        W10995  15.661  36.898  12.484
42578W        W10996  39.343  34.591   3.694
42579W        W10997  25.134  33.491   0.268
42580W        W10998  18.632  32.913  12.063
42581W        W10999  30.553  43.879  12.540
42582W        W11000  14.136   4.845  10.048
42583W        W11001   5.348  42.849   1.701
42584W        W11002  12.143  24.577  14.953
42585W        W11003   2.824  23.491  11.600
42586W        W11004  23.083  26.171   2.204
42587W        W11005   9.167  42.365  11.470
42588W        W11006  30.043  39.354   2.773
42589W        W11007  25.711  25.013   2.785
42590W        W11008  27.081  24.507   0.892
42591W        W11009   9.659  34.547  13.000
42592W        W11010  13.816  13.843   1.427
42593W        W11011   6.724  31.134  14.445
42594W        W11012  32.604  18.274   0.755
42595W        W11013  41.418  10.222   4.613
42596W        W11014   6.834  17.248  14.347
42597W        W11015  18.617  22.090  12.468
42598W        W11016  33.892  12.218   3.339
42599W        W11017   0.746  37.557   4.274
42600W        W11018  23.591   6.769   4.354
42601W        W11019  42.310  17.706  11.540
42602W        W11020   0.959  36.387   4.255
42603W        W11021  24.014  39.905   2.219
42604W        W11022  36.414  27.130   4.666
42605W        W11023  10.154  28.070  12.041
42606W        W11024  43.847  25.145  11.929
42607W        W11025   8.313   5.274   4.696
42608W        W11026  13.845  24.039  12.095
42609W        W11027  29.928  37.015   4.275
42610W        W11028   3.776  18.771  14.336
42611W        W11029  24.496  31.644   4.167
42612W        W11030  20.103  28.162  10.073
42613W        W11031   8.732  32.505  11.486
42614W        W11032  34.104  35.009  14.321
42615W        W11033  19.070  19.285   2.864
42616W        W11034  10.178  43.907   0.946
42617W        W11035  11.360  43.845  12.994
42618W        W11036  35.038  14.264   1.840
42619W        W11037  14.222  22.580  13.340
42620W        W11038   6.885  25.545  11.117
42621W        W11039  22.221  29.485   3.286
42622W        W11040  27.981  28.990  11.486
42623W        W11041   7.205  29.444  13.868
42624W        W11042  29.986  15.743   0.876
42625W        W11043   5.207  13.170   0.365
42626W        W11044  20.196  20.115  11.086
42627W        W11045   2.853   7.417   4.630
42628W        W11046  41.958   2.956   1.323
42629W        W11047  33.460  33.972   1.907
42630W        W11048  19.560  33.600   4.263
42631W        W11049  11.150  42.522   4.744
42632W        W11050  16.804  22.011   2.664
42633W        W11051  22.585   6.310  13.028
42634W        W11052  11.354  25.998   0.757
42635W        W11053  18.763   0.402  11.431
42636W        W11054  11.695  11.775   2.874
42637W        W11055  39.839  19.246  13.368
42638W        W11056  23.227  10.642  14.416
42639W        W11057  23.032  13.642   1.856
42640W        W11058  26.626  34.101  12.495
42641W        W11059  41.033   0.764   2.395
42642W        W11060  17.191  28.447  10.985
42643W        W11061  17.570   4.879   4.740
42644W        W11062  11.743  27.983  10.621
42645W        W11063  14.668  22.080   4.684
42646W        W11064  15.612  19.101   0.954
42647W        W11065  10.856  43.466   2.785
42648W        W11066  28.994  44.274  11.452
42649W        W11067   8.199  12.620  10.895
42650W        W11068  43.403  22.006   2.763
42651W        W11069  26.513  31.639  14.806
42652W        W11070  36.419  31.919  12.086
42653W        W11071  15.192  16.759   1.852
42654W        W11072   4.318  38.446  12.956
42655W        W11073  13.269  30.426   4.708
42656W        W11074  19.254   4.229   3.824
42657W        W11075  21.645  32.398  13.419
42658W        W11076   3.865   3.750   4.308
42659W        W11077  44.343  39.942   3.281
42660W        W11078  10.763  42.954  11.065
42661W        W11079   9.286  44.423  11.924
42662W        W11080  44.426  16.103   2.352
42663W        W11081  11.847   2.359   0.443
42664W        W11082  17.202  35.055  10.075
42665W        W11083  17.114  15.232  11.999
42666W        W11084  40.824  22.125  12.043
42667W        W11085  33.904   6.189   1.254
42668W        W11086  39.063  42.884   0.838
42669W        W11087   5.797  36.574   1.717
42670W        W11088  19.122  25.009  12.941
42671W        W11089  25.648  16.131   0.861
42672W        W11090  35.410   1.771   1.762
42673W        W11091  33.525  31.076  11.904
42674W        W11092  13.133  12.685   4.802
42675W        W11093  19.615   6.753   3.247
42676W        W11094  28.008  43.802  12.452
42677W        W11095  10.817  18.236   1.821
42678W        W11096  21.186  42.829   3.643
42679W        W11097  25.493  30.998  13.950
42680W        W11098  26.109  21.027  14.938
42681W        W11099  28.633  24.674  13.824
42682W        W11100   0.400  41.319  10.566
42683W        W11101  33.492  24.574  14.023
42684W        W11102   0.252   8.844  12.034
42685W        W11103  10.876  11.828  11.520
42686W        W11104  24.078  42.384   3.630
42687W        W11105  28.050  15.808  12.537
42688W        W11106   0.418  24.616  13.954
42689W        W11107  33.011  33.125   3.250
42690W        W11108  34.941  21.758   2.875
42691W        W11109  21.023  24.015   2.243
42692W        W11110  20.736   5.693   4.727
42693W        W11111  37.478  12.645   1.825
42694W        W11112  30.502   3.268   1.441
42695W        W11113  22.142  35.094   1.416
42696W        W11114   3.874  10.716   0.873
42697W        W11115  10.231  31.498   2.198
42698W        W11116  29.970  24.121   1.443
42699W        W11117  23.574  19.125   3.286
42700W        W11118   7.274  38.064  14.903
42701W        W11119  29.939  33.073   1.314
42702W        W11120  18.740  23.147  14.799
42703W        W11121  12.857  39.474  11.459
42704W        W11122  24.685   0.460  12.088
42705W        W11123  32.598  20.031   3.358
42706W        W11124  20.544  36.861   1.241
42707W        W11125   6.226  10.222   2.363
42708W        W11126  25.968  20.655  10.488
42709W        W11127  41.853  44.988  10.524
42710W        W11128   4.751  10.186   2.734
42711W        W11129  13.675  14.812  14.771
42712W        W11130  44.827  22.172  11.931
42713W        W11131  30.573  24.061  12.486
42714W        W11132   2.362  43.845  10.557
42715W        W11133  33.924  27.960   3.855
42716W        W11134  24.514   4.802  14.465
42717W        W11135   0.744  27.037   3.710
42718W        W11136  28.993  20.122   0.876
42719W        W11137  19.580  17.739  12.866
42720W        W11138  16.621  44.419  12.889
42721W        W11139  33.395  18.098  14.343
42722W        W11140  24.513  34.040   0.807
42723W        W11141  11.142  36.413   3.742
42724W        W11142  21.619  15.808   2.380
42725W        W11143  33.965  27.048  11.521
42726W        W11144  20.154   0.879  13.352
42727W        W11145  42.500  24.533   4.822
42728W        W11146   3.820   1.276  12.527
42729W        W11147  44.908   0.318   2.250
42730W        W11148  16.694  14.768   0.792
42731W        W11149   3.351  29.478   3.280
42732W        W11150  16.703  36.378  14.971
42733W        W11151  31.623  28.937   1.712
42734W        W11152  35.073  19.729   1.778
42735W        W11153  23.520  19.741  11.572
42736W        W11154  14.167   6.822  14.981
42737W        W11155  26.556   9.213  13.362
42738W        W11156  42.347  18.093  11.878
42739W        W11157  20.612  20.614  14.328
42740W        W11158   0.934  33.468  14.775
42741W        W11159  22.136  28.531   0.458
42742W        W11160  21.581  31.933  14.333
42743W        W11161  28.948  29.537   4.672
42744W        W11162  24.229   2.455  10.970
42745W        W11163  30.939  14.793  12.038
42746W        W11164  19.742  23.122   2.295
42747W        W11165  32.575  21.160  11.405
42748W        W11166   2.802  13.229   4.830
42749W        W11167   1.949  11.836  11.035
42750W        W11168   0.420  12.719  14.011
42751W        W11169  33.602   6.316  12.532
42752W        W11170  34.596   1.480  14.973
42753W        W11171  40.407  40.495  12.979
42754W        W11172   9.759   4.821   0.266
42755W        W11173  13.749  27.692  11.553
42756W        W11174  11.833  38.858   1.318
42757W        W11175  10.226  43.301   1.279
42758W        W11176  33.116  36.469   4.804
42759W        W11177  17.673   7.176   4.332
42760W        W11178   8.385   9.306  11.436
42761W        W11179  31.034  40.324  14.295
42762W        W11180  25.492  14.694   4.680
42763W        W11181  40.481  21.070   4.297
42764W        W11182  38.911  30.148  11.590
42765W        W11183  43.844   8.379  11.095
42766W        W11184  15.678  44.011   1.808
42767W        W11185  29.119  42.389   1.299
42768W        W11186  44.869  34.889  12.417
42769W        W11187  25.549  12.311   2.408
42770W        W11188  33.518  12.282   1.282
42771W        W11189  18.270  11.231   2.708
42772W        W11190   6.792   9.385   3.381
42773W        W11191   0.755  41.488  12.393
42774W        W11192   3.286  34.937  10.513
42775W        W11193  37.534   1.793   3.859
42776W        W11194  13.289  38.443   0.819
42777W        W11195  33.613   1.859  14.417
42778W        W11196  42.901  27.460  13.979
42779W        W11197  33.880   9.702  13.316
42780W        W11198  19.257  28.533   0.847
42781W        W11199  16.805  17.678  14.877
42782W        W11200  23.162   5.337  13.307
42783W        W11201  40.337  11.719   4.202
42784W        W11202  21.731  19.609   3.241
42785W        W11203  33.593  38.024   1.763
42786W        W11204  39.892   9.776  11.451
42787W        W11205  24.018  10.143  13.798
42788W        W11206  19.124  31.537  12.856
42789W        W11207   3.713  24.711   4.217
42790W        W11208  35.015  24.516  12.875
42791W        W11209  32.048  29.444  13.334
42792W        W11210   8.325  40.400  13.064
42793W        W11211   0.373   3.769  10.452
42794W        W11212  35.920  21.549   4.334
42795W        W11213  31.102   2.233  14.508
42796W        W11214   1.337  12.298  14.455
42797W        W11215  29.086   1.886   1.716
42798W        W11216  33.106  33.517  14.350
42799W        W11217  42.956  24.200   2.189
42800W        W11218  40.922  16.258   2.413
42801W        W11219  25.070  17.219  12.050
42802W        W11220  34.986   0.834  12.536
42803W        W11221  12.623  43.350  11.604
42804W        W11222  29.170  10.757  14.892
42805W        W11223  11.339  25.534   3.696
42806W        W11224  26.966  26.015  11.436
42807W        W11225  29.611  22.564   3.201
42808W        W11226   8.322  40.360   4.835
42809W        W11227  24.016  19.087   2.364
42810W        W11228  16.073  37.999  12.927
42811W        W11229   7.821  18.132   0.290
42812W        W11230  40.880  38.470  12.886
42813W        W11231  16.637  17.586  13.014
42814W        W11232   2.294  15.657  14.288
42815W        W11233  35.928  42.805   4.253
42816W        W11234  11.300   8.335  11.958
42817W        W11235   8.727  20.723  13.030
42818W        W11236  42.841  10.331  13.442
42819W        W11237  22.636  17.171  14.367
42820W        W11238  32.612  32.021  13.472
42821W        W11239   4.805  28.492   2.305
42822W        W11240  13.673  28.565   3.146
42823W        W11241  14.219  34.083  11.398
42824W        W11242  32.038  10.872   0.778
42825W        W11243   0.378  41.959   3.277
42826W        W11244  34.527   0.972   2.731
42827W        W11245  28.557  40.945  12.533
42828W        W11246  30.480  24.712  13.308
42829W        W11247  19.152  36.403  11.886
42830W        W11248  12.346  11.299   3.206
42831W        W11249  42.283  15.725   1.305
42832W        W11250  15.643   8.811  11.541
42833W        W11251  21.088  11.861  11.952
42834W        W11252  30.450  26.008  14.514
42835W        W11253  25.145  36.017  11.042
42836W        W11254  41.369  39.854   1.405
42837W        W11255  15.581  23.197  11.057
42838W        W11256  18.754   8.785  11.403
42839W        W11257  24.588  15.126   2.382
42840W        W11258  15.801  41.914  12.826
42841W        W11259   1.853  38.568   4.743
42842W        W11260  33.043   3.318   0.437
42843W        W11261  37.450  12.630  12.486
42844W        W11262  20.085  36.519  12.065
42845W        W11263   2.276  13.800   0.896
42846W        W11264  33.016  16.154   4.632
42847W        W11265  24.509  22.654   0.449
42848W        W11266  35.009  39.890  14.363
42849W        W11267   1.891  18.654   4.222
42850W        W11268  28.146   0.428  13.023
42851W        W11269  28.538  44.479   3.783
42852W        W11270   4.366  21.655   2.404
42853W        W11271  11.729  34.081   0.848
42854W        W11272  44.946  39.050  11.452
42855W        W11273   3.928  38.962  11.987
42856W        W11274  30.938  16.779   2.693
42857W        W11275   4.234  35.040  10.482
42858W        W11276  39.862   5.782  12.913
42859W        W11277  27.582  13.672  11.992
42860W        W11278  20.194   0.780   5.305
42861W        W11279   4.396  34.517   2.287
42862W        W11280  29.443   6.915  12.078
42863W        W11281  43.890  24.111   0.875
42864W        W11282  25.997  30.915   4.132
42865W        W11283  43.773  36.465   0.793
42866W        W11284  38.562  28.036  10.605
42867W        W11285  26.673  38.458   2.718
42868W        W11286  43.815  27.045  14.325
42869W        W11287  34.871  16.592  12.359
42870W        W11288  13.830   9.886  10.642
42871W        W11289   6.884  44.787   1.270
42872W        W11290  14.609  42.502  13.363
42873W        W11291  17.653  24.204   0.413
42874W        W11292  28.511  27.497  13.463
42875W        W11293  13.345  31.004  11.574
42876W        W11294   1.252  34.918   0.437
42877W        W11295  26.477  37.057  13.835
42878W        W11296   2.354   6.706  12.960
42879W        W11297  39.425   2.922   4.209
42880W        W11298   0.308   0.421  13.421
42881W        W11299   7.765  38.467   0.248
42882W        W11300   7.815  27.517  14.792
42883W        W11301  20.140  34.105  12.012
42884W        W11302  17.263   4.426  10.129
42885W        W11303  11.676  10.285   1.807
42886W        W11304  35.940  14.620   1.296
42887W        W11305  19.071  19.108  10.403
42888W        W11306  23.200  16.166  13.377
42889W        W11307  32.940  30.002  12.477
42890W        W11308  18.763  34.070   0.891
42891W        W11309   7.350  43.298   0.415
42892W        W11310  34.878  42.506   0.258
42893W        W11311  13.282  41.959  13.344
42894W        W11312  18.619  17.618   4.193
42895W        W11313   3.724  22.667  10.473
42896W        W11314  20.609  35.383  13.494
42897W        W11315  25.666  17.096  12.426
42898W        W11316  36.946  26.616  10.457
42899W        W11317   6.338  40.905  14.986
42900W        W11318  11.359  41.418   0.940
42901W        W11319  17.680  38.890   4.748
42902W        W11320  18.735  44.419  11.479
42903W        W11321  19.776  11.342   0.924
42904W        W11322  10.845   1.389  13.020
42905W        W11323  14.220  10.278  12.959
42906W        W11324  39.844   1.914   4.631
42907W        W11325  13.268  18.709   4.337
42908W        W11326  19.097  24.984   2.340
42909W        W11327   7.317  13.141  14.910
42910W        W11328  26.514   9.227  11.603
42911W        W11329  44.289  27.134   2.739
42912W        W11330  38.821  42.479  10.572
42913W        W11331  19.228  36.427   3.833
42914W        W11332  15.761  13.800  12.051
42915W        W11333   0.915  33.015  11.376
42916W        W11334  40.960   1.443   0.735
42917W        W11335  16.782   0.329  10.561
42918W        W11336  14.814  21.599  13.404
42919W        W11337  23.492  31.498   3.205
42920W        W11338  35.992  37.553  13.876
42921W        W11339  43.355  12.847  10.555
42922W        W11340  17.119  20.130   2.177
42923W        W11341  40.340  27.686  10.539
42924W        W11342  35.529  42.888   5.309
42925W        W11343  17.668  36.010  10.906
42926W        W11344   7.722   2.731   0.434
42927W        W11345   3.428  21.172  11.056
42928W        W11346  38.533  19.548  12.502
42929W        W11347  38.007  18.650   1.389
42930W        W11348  34.382  37.013   0.788
42931W        W11349  44.400  20.700   2.815
42932W        W11350  24.535   8.398  12.353
42933W        W11351  36.517  39.319   0.394
42934W        W11352   2.283  26.694   0.853
42935W        W11353   2.763  33.880  14.028
42936W        W11354   9.693  32.011   0.874
42937W        W11355   5.895  13.341   4.665
42938W        W11356  31.454   5.258   1.759
42939W        W11357  24.600  27.461  12.913
42940W        W11358  20.722  33.081  14.352
42941W        W11359  41.991   7.685  12.538
42942W        W11360   2.960   4.932   1.779
42943W        W11361  37.365  29.037   0.418
42944W        W11362  13.195   1.291   1.699
42945W        W11363   6.740   0.914   3.777
42946W        W11364  11.809  22.065   3.748
42947W        W11365  34.489   9.836  11.498
42948W        W11366  26.986  13.816   2.330
42949W        W11367  33.997  34.410   1.340
42950W        W11368  37.020  41.004   1.909
42951W        W11369  24.643   5.237  11.024
42952W        W11370  23.584  21.185  13.943
42953W        W11371  18.237  16.072   4.723
42954W        W11372  17.176   4.206   4.282
42955W        W11373   9.153  33.010  12.094
42956W        W11374  19.629   1.310  14.927
42957W        W11375  41.303  22.727   3.385
42958W        W11376   9.170   8.788   4.347
42959W        W11377  21.183  20.161  14.371
42960W        W11378  30.141  30.556   0.768
42961W        W11379  29.640  33.476   1.716
42962W        W11380  27.035  20.615   1.901
42963W        W11381   2.282  18.066  10.517
42964W        W11382   4.245  19.173  12.932
42965W        W11383  33.455   7.322   1.892
42966W        W11384  11.747  29.047   3.764
42967W        W11385  16.651  14.234  13.351
42968W        W11386   2.383   4.805  12.964
42969W        W11387   1.473  14.606  12.867
42970W        W11388  27.634  38.921  10.959
42971W        W11389   3.836   6.836   3.211
42972W        W11390  21.096  24.185   1.893
42973W        W11391  27.009   3.247   4.180
42974W        W11392  26.188  12.138   1.783
42975W        W11393   9.206  37.883   1.916
42976W        W11394  33.039  10.835   1.927
42977W        W11395  15.139  26.984   0.290
42978W        W11396  37.363  34.486  14.412
42979W        W11397  14.127  15.275   0.831
42980W        W11398  42.019  36.573  14.865
42981W        W11399   0.889   4.354   4.142
42982W        W11400  42.833  30.626   2.197
42983W        W11401  28.025  44.904  14.989
42984W        W11402  11.820  41.841   4.779
42985W        W11403  43.313  31.020  11.999
42986W        W11404  13.278  39.019  11.944
42987W        W11405  23.632   3.832   4.671
42988W        W11406  38.867   7.380  13.902
42989W        W11407  18.228  34.521   3.686
42990W        W11408  42.392  25.161  13.942
42991W        W11409  42.391   6.742  11.001
42992W        W11410   9.810  37.087  13.499
42993W        W11411   6.725  31.502   3.380
42994W        W11412  32.420  13.348  10.595
42995W        W11413  13.742  25.526  11.382
42996W        W11414  16.282  13.794  10.409
42997W        W11415  24.650  33.033   0.935
42998W        W11416  12.173  33.544   3.192
42999W        W11417  34.552  27.471   1.828
43000W        W11418   3.441  19.614   5.187
43001W        W11419   2.905  25.558   0.480
43002W        W11420  12.245  32.556  14.989
43003W        W11421  29.172   9.854   5.609
43004W        W11422  38.966  28.462   3.297
43005W        W11423  12.146  37.363   1.408
43006W        W11424  41.386   7.309   2.227
43007W        W11425  31.907  28.481  10.460
43008W        W11426   4.388   6.213  10.924
43009W        W11427   1.821   7.356  12.491
43010W        W11428  36.450  26.177   1.353
43011W        W11429  14.136  26.701   1.231
43012W        W11430  41.903   6.338  10.582
43013W        W11431  23.217   6.385   3.755
43014W        W11432  28.144   3.870  12.340
43015W        W11433   1.907  11.865   4.172
43016W        W11434  30.603  12.273  14.954
43017W        W11435   9.750  17.780   3.373
43018W        W11436  25.102  33.591  11.878
43019W        W11437  44.375  17.282  10.610
43020W        W11438  10.738   6.872   4.678
43021W        W11439  15.819  22.584   3.831
43022W        W11440  44.967  16.074  10.645
43023W        W11441  18.173  15.764   3.253
43024W        W11442  12.678  36.059  14.828
43025W        W11443  14.188  24.095  14.029
43026W        W11444  10.160  15.181   3.296
43027W        W11445  43.979  20.578   4.826
43028W        W11446  29.078   7.319   1.365
43029W        W11447  37.887   1.413   4.115
43030W        W11448  26.607  28.505  10.585
43031W        W11449  11.758  10.844  14.855
43032W        W11450  30.448  33.080   0.733
43033W        W11451  44.437  44.958  13.963
43034W        W11452   4.918  12.118  10.947
43035W        W11453  23.679  25.008   4.302
43036W        W11454  39.525   2.895  12.565
43037W        W11455   9.678   9.807   1.730
43038W        W11456  10.857  14.743  11.446
43039W        W11457   7.297  43.768   4.226
43040W        W11458  35.496   8.782  11.017
43041W        W11459   5.915  23.506  14.850
43042W        W11460   1.467  14.596  14.878
43043W        W11461  10.155  44.441  12.501
43044W        W11462  11.136  16.621   3.655
43045W        W11463  43.797   3.731   1.275
43046W        W11464   1.301   0.265  12.052
43047W        W11465  43.950   0.982  11.037
43048W        W11466   2.731  41.327   1.416
43049W        W11467  28.120  23.166  14.455
43050W        W11468  28.023  14.201   1.317
43051W        W11469   9.151  27.173  11.084
43052W        W11470  14.193  22.198  12.025
43053W        W11471  32.977  18.680  11.532
43054W        W11472  44.348  24.698  14.805
43055W        W11473  16.159  38.509   0.875
43056W        W11474  43.953  14.233  13.868
43057W        W11475  16.695  43.460  12.481
43058W        W11476  37.373  36.958   2.669
43059W        W11477  24.180  26.072   3.386
43060W        W11478   9.220  23.649  13.537
43061W        W11479  31.040  43.410   1.917
43062W        W11480  41.842   7.707   4.174
43063W        W11481   3.335   1.753   4.144
43064W        W11482  15.766  31.147  12.528
43065W        W11483  18.673  13.690  14.405
43066W        W11484  41.941  17.676  13.360
43067W        W11485   0.923  13.163  10.928
43068W        W11486  21.023  18.785   1.901
43069W        W11487  31.547  19.636  11.966
43070W        W11488  41.376  26.049  12.080
43071W        W11489  15.107  29.137  13.866
43072W        W11490   5.765  14.786  12.051
43073W        W11491  41.308  17.677  13.344
43074W        W11492  18.743   8.764   2.902
43075W        W11493  24.560  17.289   2.236
43076W        W11494  26.552  10.848   4.779
43077W        W11495   6.329  42.445  14.398
43078W        W11496  28.150  13.248   2.213
43079W        W11497  44.900   8.254  14.895
43080W        W11498  28.999  18.213  10.420
43081W        W11499  13.645  20.142  11.936
43082W        W11500  27.661   9.827   9.968
43083W        W11501   5.356   8.831   0.914
43084W        W11502  20.536   9.173   1.216
43085W        W11503  18.169   2.823  13.016
43086W        W11504   8.170  35.049   1.860
43087W        W11505  13.347  21.250  10.568
43088W        W11506  14.660  27.475  12.388
43089W        W11507  32.973  14.156   4.787
43090W        W11508  34.560  24.132  13.029
43091W        W11509  27.984  25.146   0.731
43092W        W11510  34.865  14.720   1.448
43093W        W11511  39.811  44.007   3.383
43094W        W11512  39.843   2.438  11.014
43095W        W11513  34.038  11.748   2.813
43096W        W11514  19.053  14.680  10.578
43097W        W11515  21.707   2.234  11.908
43098W        W11516   2.883  15.578   0.385
43099W        W11517  24.554  25.159   1.380
43100W        W11518  44.873  36.050   0.307
43101W        W11519  23.490  11.339  11.587
43102W        W11520  12.662  32.582  11.004
43103W        W11521  36.920   8.405  14.814
43104W        W11522   3.919  12.355  10.450
43105W        W11523  43.448  29.520   2.796
43106W        W11524   6.901  15.797  12.572
43107W        W11525  12.226  42.962   4.125
43108W        W11526  29.469  10.841   0.375
43109W        W11527  28.594  19.635  14.809
43110W        W11528  40.371  32.444  10.899
43111W        W11529   0.928  36.482   1.861
43112W        W11530  17.584  14.239   0.768
43113W        W11531  27.672  41.468  11.929
43114W        W11532  11.867  15.204  12.529
43115W        W11533  15.688  37.979   0.847
43116W        W11534  18.072  41.022   4.140
43117W        W11535  41.970  37.419  11.125
43118W        W11536  21.704  33.938  10.948
43119W        W11537  43.287  14.324  12.072
43120W        W11538   6.753  18.143   3.731
43121W        W11539  34.060  43.985   1.901
43122W        W11540  14.595  41.530   4.599
43123W        W11541  17.278   6.765   1.909
43124W        W11542  24.045  16.279   1.383
43125W        W11543  35.059  16.200  13.411
43126W        W11544  30.065  41.452   0.451
43127W        W11545   8.320  20.042   2.874
43128W        W11546   8.711  17.703  11.907
43129W        W11547  41.394  12.273  11.383
43130W        W11548  34.081  33.525   1.299
43131W        W11549  11.256  19.714   0.905
43132W        W11550  30.156   9.361  13.866
43133W        W11551   7.792  21.244  11.076
43134W        W11552  10.359  35.868  11.480
43135W        W11553   0.414  34.065  13.439
43136W        W11554  15.692   5.812   0.858
43137W        W11555   8.665  17.581   0.822
43138W        W11556   0.884  41.878  14.381
43139W        W11557   8.714  25.680   2.836
43140W        W11558  44.313  32.617   1.694
43141W        W11559  19.048  15.751  12.074
43142W        W11560  21.546  21.678   0.400
43143W        W11561  31.644   7.894  13.043
43144W        W11562  23.703  27.657   4.159
43145W        W11563   5.274  16.147   2.883
43146W        W11564   5.705   2.900   2.234
43147W        W11565  13.212   8.733  10.533
43148W        W11566  15.819   5.931   2.340
43149W        W11567   8.892  12.326  12.870
43150W        W11568  33.084   8.886   2.742
43151W        W11569  18.724   6.812  14.453
43152W        W11570   6.312  37.500  12.549
43153W        W11571  37.512   6.192  11.866
43154W        W11572  23.672  18.294   3.821
43155W        W11573   4.311  18.705  12.551
43156W        W11574  40.845  40.950   3.372
43157W        W11575  18.544  26.120  13.023
43158W        W11576  25.159  16.650   3.213
43159W        W11577  32.449  42.492  10.946
43160W        W11578  20.701   7.246  10.564
43161W        W11579   7.771  36.569   0.758
43162W        W11580  28.478  39.413   2.293
43163W        W11581   2.415  10.352  14.781
43164W        W11582  10.257  31.976  14.772
43165W        W11583  43.941  26.590   4.224
43166W        W11584   2.404  17.636  12.038
43167W        W11585   1.852   2.466   2.724
43168W        W11586  29.085  16.712  10.568
43169W        W11587   9.356  43.437   3.723
43170W        W11588   4.722  10.878  11.041
43171W        W11589  14.274  43.348  13.964
43172W        W11590  35.568  39.360  14.026
43173W        W11591   7.816  27.666   0.788
43174W        W11592  44.929  28.095   0.794
43175W        W11593   5.208  34.578  11.021
43176W        W11594  31.954   3.369   1.807
43177W        W11595  35.858  32.486  13.879
43178W        W11596  21.680  35.939  13.009
43179W        W11597  33.500  10.848  11.455
43180W        W11598  31.136   9.201  13.542
43181W        W11599  11.625  28.554   2.218
43182W        W11600   6.756   5.199  13.872
43183W        W11601  24.060  38.557  12.871
43184W        W11602  30.040  36.078   4.146
43185W        W11603  40.019  10.295  13.339
43186W        W11604  10.187  14.765   0.412
43187W        W11605  33.506  23.555  14.863
43188W        W11606  34.096  20.542   4.192
43189W        W11607   7.814   5.197   2.337
43190W        W11608  30.653  31.459  13.905
43191W        W11609  23.044  22.633  13.368
43192W        W11610  37.005  31.140  13.922
43193W        W11611  26.630  20.123   0.728
43194W        W11612  40.799   3.331   0.831
43195W        W11613  25.032   8.801   0.785
43196W        W11614  15.706  15.102   3.673
43197W        W11615  23.673   6.700   0.780
43198W        W11616  14.226  29.498  14.312
43199W        W11617  39.314  44.318   0.967
43200W        W11618  21.609  17.252  11.109
43201W        W11619  31.897  33.957  12.984
43202W        W11620   8.716   8.347   0.424
43203W        W11621  25.075   7.210  11.505
43204W        W11622  44.472  16.296  10.977
43205W        W11623  23.179  37.525  13.885
43206W        W11624  39.923  40.032   2.776
43207W        W11625  34.988   4.870   9.920
43208W        W11626  18.173   1.425  11.088
43209W        W11627   4.883  26.029   0.913
43210W        W11628   7.364  36.362   2.880
43211W        W11629  44.339  41.927   2.828
43212W        W11630  35.071   9.291   1.257
43213W        W11631  42.813  22.016   0.735
43214W        W11632  40.393  27.155  12.925
43215W        W11633  34.515   6.682   3.383
43216W        W11634  35.367  42.322  14.294
43217W        W11635  38.064   9.680   2.349
43218W        W11636  35.555  11.688  10.605
43219W        W11637  40.009  21.149  11.045
43220W        W11638  32.140  16.790  11.418
43221W        W11639  44.501  13.337  13.794
43222W        W11640  32.448   5.386   3.156
43223W        W11641  32.113  24.979  14.305
43224W        W11642  44.412  33.522  10.902
43225W        W11643  44.853   7.770   3.205
43226W        W11644   8.672  32.131  10.125
43227W        W11645  28.543  44.371  11.964
43228W        W11646  37.523  26.159   2.194
43229W        W11647  40.932  16.269   4.283
43230W        W11648  31.022  33.564  14.897
43231W        W11649  11.372  24.519   0.272
43232W        W11650  42.381  20.583  11.548
43233W        W11651  26.975  15.259  14.327
43234W        W11652   6.741  39.432   2.344
43235W        W11653  12.638  32.084  13.404
43236W        W11654  20.681  26.667   2.357
43237W        W11655  31.449   9.877  11.950
43238W        W11656  26.700  15.597  13.880
43239W        W11657  12.262  37.574  11.453
43240W        W11658  23.655  41.035  14.845
43241W        W11659   2.261  36.517  12.823
43242W        W11660  19.704  14.685  12.522
43243W        W11661  37.414  35.504  12.982
43244W        W11662  23.018   4.334   3.247
43245W        W11663  35.579  30.135   4.752
43246W        W11664  20.189  27.176   4.784
43247W        W11665  25.061  24.150  12.374
43248W        W11666  15.727   0.877  11.407
43249W        W11667  38.005   6.354   3.714
43250W        W11668   1.409  14.313   1.387
43251W        W11669  35.994  19.709   4.220
43252W        W11670  44.938  42.017   2.210
43253W        W11671  30.503  29.119   3.376
43254W        W11672   7.272  29.975  14.292
43255W        W11673   7.255  37.957   1.728
43256W        W11674  38.326  11.327  10.484
43257W        W11675  14.799  21.657   4.146
43258W        W11676  31.612  18.260   0.958
43259W        W11677   3.946  38.962   3.362
43260W        W11678   5.911  39.926   3.652
43261W        W11679  23.142  30.566  13.860
43262W        W11680   4.368  26.992  12.484
43263W        W11681  30.970  13.667  11.124
43264W        W11682  33.049  13.119   4.771
43265W        W11683  15.625  39.431   3.663
43266W        W11684  18.560  10.257  12.486
43267W        W11685  16.777  10.800   1.911
43268W        W11686   8.297   2.786  14.500
43269W        W11687  32.479   1.281  14.797
43270W        W11688  28.521  38.886  13.062
43271W        W11689  34.543  22.236  10.460
43272W        W11690  34.012  37.440  11.499
43273W        W11691  14.170  39.328  12.863
43274W        W11692  17.576  19.775  14.988
43275W        W11693  44.334  20.660  10.141
43276W        W11694  16.177  44.871   2.807
43277W        W11695  30.129  25.966  13.417
43278W        W11696  21.228  20.678  14.873
43279W        W11697  17.092  21.043   0.439
43280W        W11698   7.839  30.047  11.915
43281W        W11699  20.709  22.237   1.752
43282W        W11700  30.592  31.605  13.536
43283W        W11701   0.423  23.141   4.165
43284W        W11702  35.504   5.333   4.804
43285W        W11703  42.858  44.345  12.543
43286W        W11704  22.215   3.239  13.016
43287W        W11705  26.625  20.547  10.642
43288W        W11706   0.345  34.520   0.849
43289W        W11707  44.862   2.448  14.801
43290W        W11708  24.065   0.749  14.944
43291W        W11709  21.640  29.430  11.858
43292W        W11710  17.800  12.314   0.738
43293W        W11711   0.748  22.647  12.020
43294W        W11712  15.710  10.667   2.380
43295W        W11713   8.394  23.605  13.983
43296W        W11714  14.827  27.032   0.394
43297W        W11715  15.319  15.794   0.295
43298W        W11716  14.306   3.247   2.738
43299W        W11717  37.041   0.255  11.118
43300W        W11718  41.303   2.770   1.702
43301W        W11719  37.929   4.438  11.871
43302W        W11720  16.652  12.802   3.779
43303W        W11721  38.969   4.923   0.307
43304W        W11722   0.457  36.994  11.948
43305W        W11723  14.708  27.192  11.447
43306W        W11724  36.530  15.615  11.600
43307W        W11725  22.725   7.801   2.902
43308W        W11726  33.926  33.916   3.632
43309W        W11727  36.462   1.410  13.539
43310W        W11728  39.440  24.228  10.444
43311W        W11729  12.168   8.374   4.248
43312W        W11730  31.492  24.572   3.242
43313W        W11731  15.618  39.460   0.393
43314W        W11732   1.738  16.732  10.447
43315W        W11733   7.828  23.503   2.845
43316W        W11734  40.404  18.634   4.337
43317W        W11735  16.598  20.273   0.912
43318W        W11736  35.104   7.197   4.652
43319W        W11737   9.250  18.575  10.566
43320W        W11738  10.786  12.258  14.877
43321W        W11739  43.823  33.947   3.269
43322W        W11740  28.995  38.873   4.303
43323W        W11741  21.739   9.818   3.282
43324W        W11742  20.203  42.370   1.751
43325W        W11743  23.062  30.520   4.233
43326W        W11744  13.811  23.685   3.205
43327W        W11745   4.721  20.258  10.918
43328W        W11746  11.311   8.183  14.445
43329W        W11747  16.169  15.665   0.858
43330W        W11748  27.019  10.314  13.487
43331W        W11749  31.990   0.801   0.824
43332W        W11750   7.878  29.595   1.295
43333W        W11751   6.299  30.947  12.072
43334W        W11752  41.927   5.384  12.998
43335W        W11753  42.885  34.585   3.791
43336W        W11754  20.156  34.020  14.788
43337W        W11755   3.262  32.553  11.039
43338W        W11756  15.107  17.219  13.474
43339W        W11757  17.288  35.522  12.468
43340W        W11758  22.045  37.528  10.517
43341W        W11759  14.216  41.837   2.385
43342W        W11760  37.892  23.657  12.961
43343W        W11761  11.732  37.414   3.215
43344W        W11762  10.663  28.446   4.116
43345W        W11763   8.820  25.595   4.807
43346W        W11764  12.695  13.687  10.909
43347W        W11765  19.544  42.318  12.405
43348W        W11766  34.505  44.422   1.747
43349W        W11767   9.771  44.762   0.462
43350W        W11768  21.619   6.239   2.364
43351W        W11769  13.829  24.678  11.959
43352W        W11770  38.991  23.144  12.543
43353W        W11771   3.750  37.554   3.774
43354W        W11772  19.613  27.454   1.929
43355W        W11773  10.804  14.825   0.431
43356W        W11774  35.358  22.017   0.775
43357W        W11775  20.144   6.808  10.510
43358W        W11776  24.719  24.036  13.397
43359W        W11777  32.126  36.973   4.653
43360W        W11778  38.062  23.161   1.920
43361W        W11779   8.655  17.638   3.853
43362W        W11780   0.485   8.702   1.425
43363W        W11781  38.064   8.372   2.765
43364W        W11782  28.119  15.253  12.493
43365W        W11783   1.962   3.857   4.670
43366W        W11784  36.387  14.288   4.331
43367W        W11785  10.205   2.389   2.179
43368W        W11786  29.656   9.659  13.940
43369W        W11787   7.404   1.315  10.924
43370W        W11788  11.641   2.235   3.826
43371W        W11789   7.237  30.985  10.570
43372W        W11790  32.479  22.125  11.067
43373W        W11791  42.835   4.276   4.805
43374W        W11792  42.924  38.973  14.365
43375W        W11793  24.010  38.432  10.420
43376W        W11794  36.089   1.347  12.923
43377W        W11795  19.631   5.745   4.234
43378W        W11796  41.531  21.748   1.212
43379W        W11797  32.928   0.457   4.140
43380W        W11798   5.215  23.087  12.885
43381W        W11799   8.874  43.430   0.296
43382W        W11800  11.693  40.864   9.984
43383W        W11801   7.314  38.982   1.794
43384W        W11802  43.415  17.719   3.345
43385W        W11803  11.856  42.502   0.422
43386W        W11804   4.910  42.002  13.799
43387W        W11805  35.510   4.401  12.435
43388W        W11806  42.850  36.445   4.154
43389W        W11807  31.014  37.936   1.367
43390W        W11808  25.164  25.165  13.401
43391W        W11809  44.941  30.032  13.854
43392W        W11810  11.210  37.381   9.996
43393W        W11811  35.424  10.238  11.430
43394W        W11812  32.520  20.261   3.637
43395W        W11813  14.205  33.529   4.184
43396W        W11814  10.316  23.026  12.005
43397W        W11815  12.675  44.922  11.607
43398W        W11816  41.985  39.926  12.920
43399W        W11817   9.339  44.764  12.468
43400W        W11818  11.669  15.750  14.306
43401W        W11819  11.162  15.280  11.495
43402W        W11820   4.324  37.335   0.864
43403W        W11821   4.900  15.118  14.305
43404W        W11822  34.614  42.935   1.842
43405W        W11823  15.639  26.509   2.402
43406W        W11824   2.924  18.216  13.002
43407W        W11825  20.255   5.847   3.257
43408W        W11826   6.726  33.972   0.900
43409W        W11827  20.535  24.224   0.809
43410W        W11828   7.181  39.909   4.251
43411W        W11829  12.237  14.202   0.262
43412W        W11830  22.715  24.524   1.415
43413W        W11831  20.221  34.981   2.261
43414W        W11832   5.698   1.814   4.639
43415W        W11833   8.399  40.353  11.520
43416W        W11834  11.689  43.497  10.979
43417W        W11835   0.333  15.300  13.797
43418W        W11836   9.262  42.509   2.826
43419W        W11837  33.562   1.238   0.447
43420W        W11838  10.326   7.766   3.316
43421W        W11839  22.098  42.998  14.511
43422W        W11840   1.958  44.330   4.199
43423W        W11841   0.264   6.892  12.437
43424W        W11842  42.305  41.437  13.395
43425W        W11843  16.623  20.720   1.834
43426W        W11844   9.847  11.867   4.618
43427W        W11845  23.080  33.475   0.352
43428W        W11846  43.397   7.720   0.458
43429W        W11847   1.976  18.747  14.382
43430W        W11848  20.045  12.147   0.728
43431W        W11849  38.541  43.436  12.041
43432W        W11850  11.219  26.068   3.775
43433W        W11851  38.974  38.416   2.324
43434W        W11852  24.649   8.888   1.786
43435W        W11853  33.909  40.803  10.628
43436W        W11854  20.565  39.520   5.241
43437W        W11855   5.898   2.820  13.431
43438W        W11856   0.845  35.964   0.430
43439W        W11857  15.102   5.430   3.314
43440W        W11858  16.251  22.027  14.352
43441W        W11859   4.844  21.187   9.936
43442W        W11860   1.889  33.059   4.633
43443W        W11861  40.830  36.896  12.561
43444W        W11862  12.180  15.746   1.301
43445W        W11863   0.480  31.142  10.898
43446W        W11864  10.805  43.497  12.077
43447W        W11865  10.789  29.461  10.980
43448W        W11866  22.140  12.819   1.398
43449W        W11867  33.896  42.412  14.881
43450W        W11868  34.961   0.327  12.967
43451W        W11869  22.013  38.331  13.438
43452W        W11870   2.728   3.216  14.282
43453W        W11871  16.133  39.422   3.311
43454W        W11872  32.593  21.187   0.777
43455W        W11873  19.158   3.387   3.183
43456W        W11874  10.674  40.308   2.185
43457W        W11875   2.441  36.930  12.357
43458W        W11876   3.452   1.285   3.205
43459W        W11877  35.953  38.031   3.759
43460W        W11878  26.007  34.895  12.886
43461W        W11879  23.528  21.528  11.885
43462W        W11880  20.245  15.633   2.216
43463W        W11881  22.173   3.441   4.354
43464W        W11882  29.496   5.811   1.395
43465W        W11883  22.236   3.319  13.431
43466W        W11884  17.570   6.255  13.487
43467W        W11885  21.653  23.225   4.642
43468W        W11886  35.915  43.507   4.692
43469W        W11887   3.743  23.541   0.322
43470W        W11888  30.111  30.434   1.818
43471W        W11889  26.009  22.610  14.813
43472W        W11890  32.101  36.563   0.739
43473W        W11891  41.985  27.968   1.265
43474W        W11892  13.171  18.232  14.964
43475W        W11893   7.330  40.835  10.583
43476W        W11894  16.794   5.808  10.006
43477W        W11895  19.055  37.991  12.031
43478W        W11896  41.305  35.517  14.417
43479W        W11897  10.860  25.013   3.387
43480W        W11898  27.601  12.191   4.147
43481W        W11899   2.917   6.356  14.326
43482W        W11900   2.857  10.766  11.055
43483W        W11901  41.027  27.471  12.962
43484W        W11902   5.830  20.101   1.248
43485W        W11903  38.865   7.697  11.381
43486W        W11904  33.892   4.787   1.305
43487W        W11905  25.041  14.251   1.394
43488W        W11906  42.506  10.362  10.557
43489W        W11907  12.722  17.756   4.833
43490W        W11908  33.902  12.314   1.795
43491W        W11909  28.111  20.574  14.992
43492W        W11910  32.098   6.720  12.824
43493W        W11911  42.361  16.748  13.463
43494W        W11912  38.847  42.015  12.492
43495W        W11913  27.029  15.313   2.197
43496W        W11914   6.410  27.470  13.533
43497W        W11915  26.109  19.261   4.145
43498W        W11916  34.576   8.402   1.401
43499W        W11917   4.748  30.614   3.252
43500W        W11918  36.849  26.666  14.496
43501W        W11919  43.982  14.296   0.427
43502W        W11920  38.421  36.896   0.787
43503W        W11921  21.691  19.595  12.887
43504W        W11922  17.144  16.801   2.402
43505W        W11923  15.172  30.013  11.999
43506W        W11924   6.360   9.358   4.811
43507W        W11925   9.367  32.037   2.272
43508W        W11926  36.529  31.083  14.301
43509W        W11927   0.973   1.882  13.943
43510W        W11928  39.411  24.116   2.264
43511W        W11929  32.952   6.364  11.536
43512W        W11930  16.286  39.952   0.425
43513W        W11931  28.179  24.005   0.893
43514W        W11932  28.520  12.281  11.572
43515W        W11933  21.616  23.629  12.928
43516W        W11934  34.557  28.159  10.516
43517W        W11935  31.512  35.564  14.454
43518W        W11936   8.197  15.646   3.337
43519W        W11937  16.695  15.134   1.442
43520W        W11938  32.437  30.528  13.511
43521W        W11939  38.434  14.686   0.796
43522W        W11940  35.457  13.269  11.003
43523W        W11941  42.289  21.660  10.140
43524W        W11942  14.634  21.735   2.270
43525W        W11943   6.353  30.022   4.338
43526W        W11944  10.379  28.152   2.412
43527W        W11945  16.228   9.169  13.847
43528W        W11946  18.682  41.894  11.924
43529W        W11947  30.090  27.461   0.334
43530W        W11948   9.370  36.024   3.184
43531W        W11949  38.073  31.503   4.818
43532W        W11950  30.563  44.007  13.013
43533W        W11951  21.148   9.378  12.862
43534W        W11952  24.998  42.291   3.248
43535W        W11953  21.695   4.899  14.437
43536W        W11954  12.783  24.985  11.106
43537W        W11955  44.816  15.786   3.346
43538W        W11956   9.263   5.740   2.792
43539W        W11957  30.419  38.372   0.801
43540W        W11958  29.568  21.538   4.761
43541W        W11959   9.647  15.713  11.065
43542W        W11960  23.500  43.459   2.740
43543W        W11961  24.138  19.700  12.885
43544W        W11962  29.480  24.153  14.779
43545W        W11963  26.625  29.004   1.402
43546W        W11964  14.612   2.918   2.289
43547W        W11965  26.698  23.212  13.817
43548W        W11966  39.354  26.121  10.939
43549W        W11967  36.918   7.775  13.511
43550W        W11968  43.987  11.779   3.823
43551W        W11969  12.688  38.439  14.495
43552W        W11970  28.930  15.304  11.113
43553W        W11971  20.644  20.135   4.324
43554W        W11972  12.848   2.265   3.194
43555W        W11973  15.698  26.196   9.964
43556W        W11974   6.912  12.639   3.161
43557W        W11975  32.587  32.629   0.840
43558W        W11976   1.865  16.139   3.697
43559W        W11977  39.002  13.828  11.479
43560W        W11978  19.655  30.578  11.917
43561W        W11979   8.182  30.996  14.386
43562W        W11980  19.153  10.350  14.480
43563W        W11981  40.896  14.155   0.481
43564W        W11982  21.555  34.493  12.388
43565W        W11983  10.366  10.225  13.336
43566W        W11984  38.069  41.806  14.859
43567W        W11985  19.553   7.706   1.393
43568W        W11986  30.498  37.001  12.012
43569W        W11987  36.458  27.076   1.397
43570W        W11988  12.328  35.603  13.916
43571W        W11989   4.314  17.190  11.057
43572W        W11990  19.209  29.664  13.925
43573W        W11991  13.177  36.509   3.356
43574W        W11992  32.517  33.429   4.314
43575W        W11993  12.749  20.647   1.308
43576W        W11994   6.683  12.732  13.478
43577W        W11995  42.375  40.016  12.509
43578W        W11996  23.529  13.627   1.794
43579W        W11997  36.941  12.333   0.480
43580W        W11998  21.653   6.764  13.467
43581W        W11999  31.494  34.904  12.382
43582W        W12000  30.963  25.638  13.480
43583W        W12001  16.805  23.602   3.238
43584W        W12002  27.576  13.751  12.500
43585W        W12003  37.578   0.818  10.560
43586W        W12004  43.515   0.252   0.377
43587W        W12005  22.115  34.413  11.008
43588W        W12006  22.032  43.389   0.859
43589W        W12007  40.947  42.932  13.958
43590W        W12008  13.263  25.153  13.497
43591W        W12009   0.274  14.636   2.181
43592W        W12010   4.377   2.839   3.792
43593W        W12011  26.548   6.713  12.958
43594W        W12012  44.287   3.426  14.321
43595W        W12013  34.434  43.884  13.903
43596W        W12014  41.488  24.537  11.420
43597W        W12015  22.189  34.439   1.839
43598W        W12016  13.702  26.623  13.432
43599W        W12017  12.835  10.873  11.378
43600W        W12018  13.608  14.693   1.844
43601W        W12019   3.311   6.905  12.014
43602W        W12020  30.542   0.983   1.898
43603W        W12021  29.541  31.532   3.845
43604W        W12022  31.077  16.114   4.741
43605W        W12023   0.801  33.006  12.569
43606W        W12024  12.317   6.890  13.364
43607W        W12025   3.908  16.286  13.361
43608W        W12026  42.903   2.844  11.092
43609W        W12027  26.623  41.927  14.358
43610W        W12028   4.361   5.359   4.303
43611W        W12029  43.425  11.630   4.311
43612W        W12030  16.289  22.999  13.359
43613W        W12031  37.847   0.853  14.278
43614W        W12032  43.966  43.510  14.847
43615W        W12033  26.464  15.820  13.476
43616W        W12034   9.681  42.475   3.832
43617W        W12035   9.181   0.381  11.116
43618W        W12036   2.774  31.074   3.282
43619W        W12037   5.811   9.340   1.727
43620W        W12038  35.965  31.430   0.415
43621W        W12039  16.651   4.758   1.760
43622W        W12040  43.506   1.454   0.764
43623W        W12041  40.451  32.090   2.713
43624W        W12042  17.784   8.871   0.906
43625W        W12043  40.935  40.984  10.996
43626W        W12044  34.555  37.002  14.503
43627W        W12045  41.999  36.081  10.097
43628W        W12046  36.061  13.322  10.960
43629W        W12047  23.985  38.955  13.363
43630W        W12048  37.463   7.905   1.258
43631W        W12049  38.964  12.344   0.419
43632W        W12050   9.733   0.946  13.004
43633W        W12051  30.927  40.929   1.430
43634W        W12052  26.031  42.498  10.924
43635W        W12053  20.676  28.105  11.053
43636W        W12054  33.399  34.420   4.326
43637W        W12055  18.657   9.697   3.796
43638W        W12056   3.712  34.547   1.369
43639W        W12057  30.026  40.466   1.876
43640W        W12058  15.206  27.468  14.285
43641W        W12059   1.806  22.217   2.252
43642W        W12060  36.845   6.190   3.339
43643W        W12061  13.211   2.422  13.971
43644W        W12062  32.891  41.340   3.671
43645W        W12063  19.046  24.549  10.425
43646W        W12064  29.021   2.817  12.871
43647W        W12065  37.514  39.812  14.409
43648W        W12066  17.200  20.631  14.510
43649W        W12067  41.507  10.295   3.178
43650W        W12068  25.211  25.554  12.450
43651W        W12069  11.305  34.410   1.390
43652W        W12070  10.299  11.694  12.379
43653W        W12071  16.248  20.529   4.152
43654W        W12072  16.780  43.470   1.725
43655W        W12073  20.640   7.264  14.315
43656W        W12074  40.404  15.755  14.008
43657W        W12075  17.285  31.636  11.427
43658W        W12076  29.008  17.223  14.871
43659W        W12077   2.263  11.782  11.425
43660W        W12078  24.190   5.262  10.933
43661W        W12079  44.920   0.809   2.788
43662W        W12080  26.463  30.459   4.793
43663W        W12081  37.515  25.664   3.375
43664W        W12082   2.874  36.946   4.218
43665W        W12083  10.298  11.679   0.864
43666W        W12084  16.127   2.757   0.889
43667W        W12085  17.656  24.668  14.773
43668W        W12086   7.881  37.540   3.762
43669W        W12087  29.586  28.157   3.723
43670W        W12088  27.085  26.456   4.731
43671W        W12089  43.511  30.075  10.406
43672W        W12090  39.946  32.617  11.866
43673W        W12091  44.908  44.368  14.505
43674W        W12092  33.991  21.246  12.056
43675W        W12093   2.384  10.637   3.270
43676W        W12094  15.304   8.400   2.692
43677W        W12095  20.063   1.386   1.445
43678W        W12096  26.058  32.483  13.342
43679W        W12097  36.032  31.633  11.023
43680W        W12098   9.303   0.463   1.365
43681W        W12099  42.328  42.311  11.002
43682W        W12100  23.222   6.328  14.401
43683W        W12101  43.960  14.096  10.099
43684W        W12102  18.761   2.257   2.268
43685W        W12103  17.608  25.600  11.467
43686W        W12104  31.068  23.218   0.817
43687W        W12105  31.041  28.568   3.703
43688W        W12106  14.769  43.864   3.341
43689W        W12107  42.942   4.901   2.241
43690W        W12108  13.224  10.726   3.153
43691W        W12109  32.005   5.269  12.489
43692W        W12110  27.098  40.033  11.945
43693W        W12111  17.711  11.699  12.563
43694W        W12112  16.230  42.472   2.720
43695W        W12113  34.015   3.340  10.541
43696W        W12114  10.154  40.485   4.623
43697W        W12115  28.054  32.924   3.709
43698W        W12116  15.739  30.551   0.726
43699W        W12117  29.663   9.777  11.120
43700W        W12118   6.884   5.282   1.336
43701W        W12119   8.306  11.747  12.982
43702W        W12120  36.918  11.714   4.626
43703W        W12121  29.041   8.859  12.388
43704W        W12122  42.514  38.562   0.930
43705W        W12123  18.748  28.116   3.251
43706W        W12124  33.521  27.116   1.819
43707W        W12125  28.650  18.674   2.309
43708W        W12126  12.840   4.769   2.695
43709W        W12127  18.260  38.443   1.307
43710W        W12128  33.598  13.226  12.373
43711W        W12129  35.041  24.528   3.300
43712W        W12130  44.995  41.913  12.857
43713W        W12131   4.937   4.754   5.215
43714W        W12132   5.380  43.398   1.229
43715W        W12133  21.086  41.528   2.822
43716W        W12134  14.189  37.363   4.600
43717W        W12135   5.726   4.900   2.900
43718W        W12136   3.860  35.397  14.858
43719W        W12137  14.707  19.622   4.830
43720W        W12138   3.430  17.229  14.761
43721W        W12139  43.992   7.340   0.749
43722W        W12140   7.702  44.818   2.752
43723W        W12141  15.261  15.146  12.845
43724W        W12142  29.994  25.498  13.007
43725W        W12143  37.862  40.797  14.942
43726W        W12144  33.446  43.294  13.058
43727W        W12145  11.163  43.784  10.586
43728W        W12146  40.448  12.272   0.740
43729W        W12147  39.376   4.870  11.034
43730W        W12148  11.331   8.406  12.926
43731W        W12149  25.185  34.458  14.411
43732W        W12150   9.731  32.002  12.497
43733W        W12151  27.658   9.710   0.926
43734W        W12152   8.406  20.574  14.014
43735W        W12153  18.190  14.743   4.600
43736W        W12154  25.539   8.867   1.319
43737W        W12155  35.429  40.966  12.859
43738W        W12156  10.773  29.537  14.920
43739W        W12157  23.018  36.479  13.888
43740W        W12158   3.885  14.803  14.349
43741W        W12159   2.392   0.445  10.612
43742W        W12160  10.760  37.023   2.413
43743W        W12161  17.203  44.282   1.758
43744W        W12162  18.261  37.398   0.252
43745W        W12163  10.788  10.667  13.827
43746W        W12164  37.412  13.655  12.543
43747W        W12165  42.982  15.254  14.934
43748W        W12166   2.257   1.843  11.999
43749W        W12167   7.384  17.585   0.742
43750W        W12168  18.158  15.168  10.411
43751W        W12169  35.594  15.721   2.353
43752W        W12170  44.904   6.868   3.770
43753W        W12171  44.353   8.175  11.515
43754W        W12172  11.660  18.083  14.281
43755W        W12173  44.825  28.505  12.440
43756W        W12174  41.377   3.276  10.966
43757W        W12175  11.675  28.998   0.272
43758W        W12176  36.005  24.154  10.624
43759W        W12177  34.425   5.842  12.856
43760W        W12178  24.692   5.304   2.766
43761W        W12179  39.442  20.041  13.495
43762W        W12180  37.562  26.471   0.941
43763W        W12181  42.482  11.783  13.057
43764W        W12182  15.664  15.238  11.453
43765W        W12183  44.892   3.331   0.316
43766W        W12184   0.869   9.365   0.409
43767W        W12185   8.178  30.003  11.567
43768W        W12186   5.356  26.504  14.418
43769W        W12187  15.280  33.494   3.787
43770W        W12188  20.248   5.350   4.734
43771W        W12189   2.863   2.925  13.519
43772W        W12190  37.453  29.072  14.382
43773W        W12191  34.540  42.333   1.863
43774W        W12192   3.379  23.055  10.625
43775W        W12193   4.378  35.027  14.921
43776W        W12194  27.483  31.970   3.775
43777W        W12195  43.335  31.423   4.666
43778W        W12196   1.919  37.040   1.344
43779W        W12197   1.797  22.656   1.400
43780W        W12198   9.262  25.202   3.695
43781W        W12199  15.234  20.712   3.275
43782W        W12200   6.713   7.223  13.918
43783W        W12201   0.836  42.025  12.868
43784W        W12202  27.095  26.113   4.351
43785W        W12203   4.722  27.680   0.771
43786W        W12204  28.495  31.108   2.745
43787W        W12205  13.347  15.099   3.800
43788W        W12206  15.663   7.679   1.907
43789W        W12207  44.312  20.223   1.357
43790W        W12208  12.816  17.662  10.983
43791W        W12209  26.569   9.169  11.873
43792W        W12210  22.062   9.199   3.291
43793W        W12211  42.882  30.430   2.696
43794W        W12212  11.635  15.171   0.453
43795W        W12213  11.632  11.865  13.951
43796W        W12214  32.411   4.916   3.360
43797W        W12215  25.704   4.324   3.837
43798W        W12216  19.591  40.908   0.283
43799W        W12217  13.827  38.535  13.852
43800W        W12218  38.014  31.985  11.601
43801W        W12219  43.997  28.600   3.691
43802W        W12220   5.212  15.758  14.781
43803W        W12221  44.314  21.050   2.379
43804W        W12222  14.591  36.878   3.233
43805W        W12223  34.516  32.530   3.694
43806W        W12224   5.327   2.878   0.310
43807W        W12225  15.816  43.994   0.278
43808W        W12226  27.182  41.459  14.007
43809W        W12227  33.546  18.574  10.555
43810W        W12228   1.748  29.454   2.705
43811W        W12229  27.184   2.746  10.903
43812W        W12230  11.756   8.297   3.770
43813W        W12231   2.901   0.919   0.412
43814W        W12232  26.161   0.428   4.808
43815W        W12233  24.175  27.676  12.853
43816W        W12234  29.562   2.314   4.230
43817W        W12235  21.578  20.530  10.537
43818W        W12236  41.816  41.375   1.247
43819W        W12237   6.780   1.914  14.997
43820W        W12238   2.879   8.369   2.356
43821W        W12239   7.686  44.332   9.967
43822W        W12240  19.071   7.284   3.672
43823W        W12241   0.396  39.891   2.772
43824W        W12242  27.143  12.629   4.214
43825W        W12243  33.507  27.997   3.704
43826W        W12244  31.440  17.623   0.249
43827W        W12245  14.153  36.507   2.355
43828W        W12246  38.968   9.356   0.457
43829W        W12247   4.298  38.973  14.332
43830W        W12248   5.249  33.051   4.771
43831W        W12249   4.409  43.986  13.308
43832W        W12250  24.052  16.288   4.190
43833W        W12251  27.960   6.336  13.387
43834W        W12252   6.373   7.905  10.477
43835W        W12253  27.057  44.284  10.502
43836W        W12254  25.586  40.329  10.080
43837W        W12255  13.166  43.788   3.380
43838W        W12256   8.799  25.062  14.446
43839W        W12257  14.142  36.846  12.009
43840W        W12258  34.423  16.082   4.623
43841W        W12259  40.864  14.655  13.495
43842W        W12260  21.623   2.330   3.347
43843W        W12261   6.740   6.196   3.819
43844W        W12262   9.722  43.998  10.479
43845W        W12263  24.716  17.644  14.963
43846W        W12264   9.716  43.796  12.858
43847W        W12265  17.108  22.604   4.209
43848W        W12266   5.240  37.412   3.862
43849W        W12267  39.873  28.091  13.025
43850W        W12268  17.576  40.545  13.867
43851W        W12269  27.637  38.906   2.721
43852W        W12270   7.865  39.329  14.347
43853W        W12271   4.902  34.910  14.275
43854W        W12272  44.263   7.841   3.349
43855W        W12273  20.540   1.877  10.435
43856W        W12274  10.799   7.215  10.910
43857W        W12275   2.922   5.211  11.066
43858W        W12276  31.638  36.422  14.301
43859W        W12277  41.418  10.738  14.032
43860W        W12278  12.781  29.581   3.189
43861W        W12279   2.451  29.041  10.978
43862W        W12280  16.247  44.353   2.673
43863W        W12281  24.204  36.887   2.417
43864W        W12282  19.562  34.871   4.161
43865W        W12283  35.459  20.720  14.989
43866W        W12284  27.006  26.553  11.428
43867W        W12285  17.746  34.932  13.459
43868W        W12286  31.101   7.878   2.389
43869W        W12287  30.435  26.982  14.423
43870W        W12288   7.326  23.089  11.887
43871W        W12289  40.502  24.686   3.723
43872W        W12290  18.248  30.620   4.672
43873W        W12291  38.922  15.295  12.087
43874W        W12292   5.841  19.243   1.326
43875W        W12293  37.968   6.835  13.980
43876W        W12294   4.714  41.354   2.768
43877W        W12295   0.909  43.865  12.869
43878W        W12296  44.003   8.204   4.661
43879W        W12297   5.786   8.727   0.337
43880W        W12298   9.236  22.618   0.812
43881W        W12299  32.976   8.709   1.337
43882W        W12300  20.669  25.137   1.732
43883W        W12301   6.251  34.474  12.048
43884W        W12302  15.741  24.023   4.690
43885W        W12303  23.574  31.005  10.544
43886W        W12304  19.106  33.899  12.880
43887W        W12305   2.418  16.675  10.899
43888W        W12306  44.769  40.907   5.154
43889W        W12307  11.702  44.328  12.880
43890W        W12308  10.357  23.135   3.225
43891W        W12309  41.368  21.179   3.175
43892W        W12310  33.495  25.211   3.752
43893W        W12311   4.825  44.420  14.842
43894W        W12312  42.985  27.671  10.618
43895W        W12313  21.177   4.828   4.711
43896W        W12314  21.147   5.858  13.998
43897W        W12315  24.130  16.803   0.342
43898W        W12316   3.359  15.164   3.197
43899W        W12317  43.470  18.611  14.879
43900W        W12318   5.280  41.333  13.505
43901W        W12319  28.157   5.394  14.829
43902W        W12320  37.049   1.286  11.068
43903W        W12321  33.506   3.329   1.719
43904W        W12322  43.912  35.602   3.307
43905W        W12323  33.561  35.599   4.703
43906W        W12324  38.014  44.928  13.856
43907W        W12325  18.142  33.544   2.737
43908W        W12326  21.727   5.699   0.363
43909W        W12327  26.617  28.004   0.292
43910W        W12328  20.086  33.480   1.368
43911W        W12329  42.325  40.990   4.149
43912W        W12330  34.587  24.121  14.443
43913W        W12331  40.994  41.962  12.539
43914W        W12332  32.421  41.934  13.886
43915W        W12333  32.087  35.962  10.541
43916W        W12334  40.337  11.638  14.959
43917W        W12335  36.004  21.116   1.796
43918W        W12336  24.190   6.854   3.777
43919W        W12337   6.368  36.451   1.875
43920W        W12338  23.555  28.470   4.317
43921W        W12339  24.725  19.628  11.882
43922W        W12340  35.554  32.913   4.185
43923W        W12341  15.599  34.440   2.866
43924W        W12342  27.601   6.874  13.399
43925W        W12343  22.105  11.802   3.250
43926W        W12344  17.243   8.796   2.399
43927W        W12345   6.221  17.164   1.394
43928W        W12346  35.067  22.034   0.947
43929W        W12347   3.709  34.564  12.963
43930W        W12348  11.744  33.591   3.829
43931W        W12349  10.164  41.026  12.388
43932W        W12350  36.418  18.600  14.953
43933W        W12351  28.995  18.150  14.762
43934W        W12352  44.815  17.072  14.011
43935W        W12353  38.968  27.138   1.233
43936W        W12354  26.666   1.947  13.043
43937W        W12355  13.148  14.761   0.390
43938W        W12356  23.731   2.266  12.346
43939W        W12357   9.329   4.791  13.955
43940W        W12358  21.182   6.823   1.432
43941W        W12359  14.772  37.553  13.506
43942W        W12360  22.587  24.982   0.735
43943W        W12361  10.341  37.986  11.596
43944W        W12362   1.771  34.005  10.518
43945W        W12363  38.328  13.195  11.972
43946W        W12364  32.936  20.220  12.919
43947W        W12365  39.405  15.675   2.318
43948W        W12366  25.626  37.018  11.552
43949W        W12367  20.758  29.498   2.838
43950W        W12368  40.033  18.164   3.379
43951W        W12369  38.499  28.985   1.756
43952W        W12370  37.870  38.035  12.877
43953W        W12371   0.371  29.079   0.753
43954W        W12372  13.600   8.891   2.842
43955W        W12373  28.005  21.159  12.905
43956W        W12374  31.456  16.215   2.205
43957W        W12375  38.036  28.167  10.904
43958W        W12376  22.606  33.509  14.797
43959W        W12377  42.967  36.371   1.276
43960W        W12378  41.432  19.041  14.451
43961W        W12379  36.961  43.997   0.469
43962W        W12380  29.470  24.013   4.738
43963W        W12381   8.338  33.934   4.620
43964W        W12382  14.194  37.084   1.351
43965W        W12383  11.702  23.125   0.854
43966W        W12384  41.814  28.487   2.273
43967W        W12385  38.982  31.506  10.046
43968W        W12386  18.685   9.255  14.304
43969W        W12387  17.652  33.477  10.540
43970W        W12388  25.048   3.257  14.438
43971W        W12389  41.896  44.405  12.569
43972W        W12390   7.772  18.269   5.182
43973W        W12391  21.232  39.505   0.418
43974W        W12392  44.956  25.576  14.296
43975W        W12393  37.381  19.588   2.179
43976W        W12394  42.858  36.890  14.475
43977W        W12395  10.149  15.303   0.412
43978W        W12396  41.854  32.501  10.944
43979W        W12397   4.207  10.783   3.375
43980W        W12398  43.946   3.215  11.399
43981W        W12399   7.783   9.212   0.961
43982W        W12400   9.752  29.560   4.169
43983W        W12401  39.342  21.112  10.053
43984W        W12402  12.175  29.534   3.707
43985W        W12403  21.020  29.991   4.125
43986W        W12404   4.379  43.275  13.377
43987W        W12405  11.625  26.116   3.261
43988W        W12406  33.435   3.232  11.859
43989W        W12407  18.236  10.670  10.621
43990W        W12408  43.933  39.404  10.087
43991W        W12409   4.945  21.029   3.842
43992W        W12410  10.778   0.941  12.954
43993W        W12411   6.399  35.566   0.809
43994W        W12412  42.288   5.250  13.910
43995W        W12413  27.133   2.869  10.543
43996W        W12414   2.398  37.844  11.374
43997W        W12415  32.890  26.958   0.349
43998W        W12416  43.987  20.131   3.245
43999W        W12417   7.683  10.150  11.062
44000W        W12418  23.591  34.548   2.757
44001W        W12419  23.039  26.587   2.290
44002W        W12420  19.228   9.359   2.863
44003W        W12421  25.638  30.473  14.818
44004W        W12422  39.528  33.381  10.979
44005W        W12423  16.200  11.663   2.350
44006W        W12424  13.675  26.470   3.180
44007W        W12425  37.079  32.123  11.051
44008W        W12426  38.981  15.250  12.464
44009W        W12427  33.080  40.024  13.432
44010W        W12428  20.177  14.645   5.766
44011W        W12429  31.442  17.651  13.536
44012W        W12430  33.581  40.497  12.486
44013W        W12431  42.328  37.447  13.359
44014W        W12432  23.055  42.294  14.796
44015W        W12433   9.226   8.684   4.637
44016W        W12434  16.795   5.262   3.785
44017W        W12435  11.173  28.047   1.269
44018W        W12436  22.639  13.229  12.484
44019W        W12437  21.650  42.463   1.921
44020W        W12438  35.995  20.217  11.087
44021W        W12439  41.869  24.639   4.299
44022W        W12440  18.162  26.990  13.840
44023W        W12441  12.340   0.323  14.472
44024W        W12442  32.477  35.021  13.840
44025W        W12443   4.924  41.039   3.274
44026W        W12444   6.247  32.106  11.974
44027W        W12445  19.256  15.291  14.960
44028W        W12446  37.007  38.050  12.420
44029W        W12447  30.595  19.129  14.809
44030W        W12448  41.876  22.052   5.165
44031W        W12449   8.664  10.158   0.887
44032W        W12450   5.898  43.979  11.073
44033W        W12451  19.219  20.759   2.181
44034W        W12452  30.516  27.620  12.963
44035W        W12453   7.409  10.662  11.006
44036W        W12454  17.559  33.487   2.260
44037W        W12455  20.612  33.448  11.430
44038W        W12456  36.558  37.040  14.882
44039W        W12457   9.799  26.111  11.918
44040W        W12458  37.357  16.743   4.827
44041W        W12459  35.985  12.160  11.979
44042W        W12460   7.324  41.880  12.904
44043W        W12461   8.841   7.173  13.845
44044W        W12462  35.552  20.188  10.938
44045W        W12463  37.998  21.061   1.238
44046W        W12464  22.654  25.104   4.334
44047W        W12465  25.667   5.334  14.848
44048W        W12466  26.074  41.037   1.821
44049W        W12467   0.428  15.191   0.449
44050W        W12468  41.035   5.235  12.350
44051W        W12469   0.343  22.081   3.683
44052W        W12470  19.227  12.791   1.816
44053W        W12471  15.764  14.673   3.279
44054W        W12472   8.191   4.233  13.536
44055W        W12473  25.679  39.496  13.466
44056W        W12474  19.678  12.780   4.306
44057W        W12475  35.389  27.667  10.482
44058W        W12476   4.752   7.334   2.837
44059W        W12477  18.612   8.722  12.432
44060W        W12478  24.012  27.118  14.007
44061W        W12479  20.180  28.127   5.091
44062W        W12480  24.620  14.636  13.390
44063W        W12481  26.533  44.898   2.351
44064W        W12482  11.675   7.198   3.324
44065W        W12483  11.695   3.878   3.165
44066W        W12484  38.995   8.394  12.524
44067W        W12485  28.536   4.838  12.847
44068W        W12486  18.589   1.771  11.540
44069W        W12487  21.598  26.639  11.517
44070W        W12488   3.912  38.845  13.481
44071W        W12489  33.057  24.632  14.767
44072W        W12490  43.317  29.598   0.385
44073W        W12491  13.125   0.930   4.726
44074W        W12492  25.160  40.939  10.609
44075W        W12493  27.043  32.424   2.358
44076W        W12494  21.045  17.176   4.817
44077W        W12495  26.696  11.373  14.488
44078W        W12496   9.352  27.035  14.512
44079W        W12497  26.701  20.234   4.714
44080W        W12498  32.449  16.697   1.731
44081W        W12499  17.702  21.070   3.237
44082W        W12500  31.041   5.232  12.377
44083W        W12501  39.967  33.939   3.675
44084W        W12502  28.463  29.521  10.980
44085W        W12503  25.162  14.245   2.232
44086W        W12504  34.980   1.964  11.874
44087W        W12505   6.798  12.175   1.708
44088W        W12506   7.309  44.822   1.696
44089W        W12507  11.711   2.847   1.922
44090W        W12508   3.940  38.916   2.333
44091W        W12509   4.936  35.071  12.884
44092W        W12510   1.337  36.376  14.893
44093W        W12511  27.123   9.201   1.268
44094W        W12512  39.531   2.936   3.148
44095W        W12513  30.439  13.229  10.963
44096W        W12514  24.086  43.842   0.766
44097W        W12515   7.859  12.282  12.846
44098W        W12516   6.290  39.458   3.383
44099W        W12517  42.917   8.219  12.341
44100W        W12518  21.602  24.079  11.379
44101W        W12519  17.626   5.199   5.266
44102W        W12520  43.342  42.287  14.365
44103W        W12521  29.017  41.295  13.955
44104W        W12522   0.812  13.725  11.386
44105W        W12523   0.905  13.305   1.721
44106W        W12524  34.951  17.586  12.968
44107W        W12525  20.100  26.002   0.279
44108W        W12526  27.515  16.129  12.882
44109W        W12527  25.995  12.729  12.876
44110W        W12528  11.759  22.720  12.381
44111W        W12529  35.477   5.881  10.430
44112W        W12530   7.246   5.884  13.462
44113W        W12531  22.062  39.488  11.390
44114W        W12532  31.076  15.304   4.197
44115W        W12533  29.928  13.201   4.712
44116W        W12534  24.987  22.655  13.315
44117W        W12535  15.145   9.211  14.301
44118W        W12536  28.540  44.309   3.302
44119W        W12537  26.647  39.409   1.876
44120W        W12538  30.081   2.893  12.453
44121W        W12539  27.195  14.121   2.853
44122W        W12540  29.474   4.286   1.337
44123W        W12541  43.810  39.839   0.323
44124W        W12542   4.343   3.854  12.900
44125W        W12543  12.120   8.833  12.008
44126W        W12544  20.686  36.424   4.285
44127W        W12545  41.343   5.816  11.108
44128W        W12546  25.579  40.971  13.449
44129W        W12547  22.630  15.641   4.144
44130W        W12548  17.594   5.398  14.907
44131W        W12549  31.520   2.346  10.614
44132W        W12550  16.707   1.331  11.543
44133W        W12551  20.661  30.444   0.416
44134W        W12552  32.103   9.807   1.415
44135W        W12553  15.738  42.376  12.905
44136W        W12554   8.289  37.032  14.994
44137W        W12555  10.193  26.094  10.473
44138W        W12556   9.868   9.166   1.705
44139W        W12557  25.510  31.011   3.288
44140W        W12558  32.043  33.126  10.543
44141W        W12559   4.388   1.402  11.862
44142W        W12560  38.967  35.008  13.491
44143W        W12561  22.685  41.921  13.799
44144W        W12562  40.876   8.750   3.181
44145W        W12563   3.922  21.520  13.403
44146W        W12564   2.796   7.891  11.444
44147W        W12565  22.189  40.925  13.458
44148W        W12566  30.952   8.402   0.334
44149W        W12567  36.939   8.864  14.002
44150W        W12568  11.328  20.170  11.926
44151W        W12569  40.519  43.313  14.497
44152W        W12570  33.131  22.685  11.087
44153W        W12571  31.416  35.977  11.612
44154W        W12572  39.478   6.297   2.861
44155W        W12573  14.681   6.870   3.217
44156W        W12574   3.786  22.672  11.058
44157W        W12575  35.357  17.586  12.959
44158W        W12576  43.769  24.077  12.479
44159W        W12577  41.006   1.417  10.490
44160W        W12578  20.266  17.662   0.743
44161W        W12579  27.637  19.773   1.310
44162W        W12580   5.851  31.118   4.787
44163W        W12581  38.873   6.850  12.451
44164W        W12582  37.914  15.304   3.184
44165W        W12583   4.210  21.635  10.907
44166W        W12584   4.422  12.209  11.096
44167W        W12585  10.750  27.551  13.427
44168W        W12586  19.257  12.241   4.309
44169W        W12587  33.010  41.007  11.896
44170W        W12588  43.446  17.743  11.889
44171W        W12589   1.299   3.247  13.030
44172W        W12590   3.813  36.460   1.245
44173W        W12591  14.635  34.465  10.507
44174W        W12592  23.204   1.858  11.068
44175W        W12593  34.064   8.660   3.751
44176W        W12594  15.246   5.914   3.841
44177W        W12595  43.318   8.870  11.997
44178W        W12596   6.817   5.397  14.423
44179W        W12597  17.714  20.120  14.900
44180W        W12598   4.285  41.987   1.774
44181W        W12599  23.673   3.372  14.807
44182W        W12600  39.512  25.153  11.906
44183W        W12601  44.997   0.809  13.852
44184W        W12602  10.843   6.682  14.465
44185W        W12603   3.931   3.938  10.498
44186W        W12604  40.025  20.044   4.278
44187W        W12605   0.255  33.416  14.449
44188W        W12606  38.357  10.191   1.303
44189W        W12607   6.898  11.721   1.819
44190W        W12608  35.014  31.452   0.268
44191W        W12609   5.408  28.453  12.067
44192W        W12610  36.460  40.877   3.718
44193W        W12611  22.711   0.317  14.467
44194W        W12612  31.086  30.479  12.368
44195W        W12613  13.629  40.423  11.965
44196W        W12614  17.788  10.314  13.485
44197W        W12615  15.305   5.398  10.459
44198W        W12616  23.550   7.339   1.866
44199W        W12617  36.046  20.045   1.230
44200W        W12618  13.105  25.060  13.868
44201W        W12619  10.781  40.494   4.648
44202W        W12620  14.181  10.292   1.378
44203W        W12621   6.404   4.411  14.981
44204W        W12622  37.003  28.466   0.356
44205W        W12623  32.060  37.397   9.952
44206W        W12624  38.558  44.349   4.264
44207W        W12625  31.468  30.969   4.306
44208W        W12626  43.290   2.359   4.219
44209W        W12627  16.192  24.696   2.773
44210W        W12628   3.387  16.244  10.971
44211W        W12629  32.085  32.420  12.991
44212W        W12630  43.351   8.762  13.404
44213W        W12631  11.714  33.002  10.542
44214W        W12632  12.173  18.239   0.297
44215W        W12633  18.093   1.838   3.757
44216W        W12634  44.460  44.467  10.519
44217W        W12635  16.599   7.797  12.006
44218W        W12636  37.547  32.419   3.381
44219W        W12637  17.789  36.471  12.577
44220W        W12638  14.725  22.538   0.801
44221W        W12639  20.180  39.373   4.772
44222W        W12640  35.532  30.514   0.956
44223W        W12641   2.853   7.352  12.082
44224W        W12642  17.606  23.187   1.754
44225W        W12643  14.143  17.655  11.385
44226W        W12644   7.685  13.119  10.450
44227W        W12645   5.293  26.684   0.827
44228W        W12646  30.456  35.001   2.204
44229W        W12647  11.863  36.482   0.898
44230W        W12648   0.293  16.627  14.916
44231W        W12649  25.681  22.534   3.229
44232W        W12650  26.996  37.535  12.429
44233W        W12651  22.136  27.172  11.505
44234W        W12652  15.167  19.605   4.598
44235W        W12653  31.641   4.891   3.746
44236W        W12654   8.777  16.663   1.884
44237W        W12655  36.852  28.516  13.899
44238W        W12656  19.654  42.839  12.357
44239W        W12657  38.523  37.077  13.469
44240W        W12658  35.938  36.986   4.748
44241W        W12659  30.048   7.700  13.919
44242W        W12660   8.662  22.101  12.362
44243W        W12661  33.625  14.097   4.808
44244W        W12662  15.129  41.527   0.279
44245W        W12663  23.995   4.443  14.410
44246W        W12664   8.313  18.067  14.760
44247W        W12665  31.962  30.538  11.480
44248W        W12666  14.278  38.325  14.454
44249W        W12667  41.851  28.597   3.386
44250W        W12668  29.514  32.031   0.370
44251W        W12669  26.572  14.823   0.733
44252W        W12670   5.715   1.293  13.420
44253W        W12671  25.522  27.183   0.396
44254W        W12672  19.281  20.101  12.437
44255W        W12673  10.814  11.680   4.665
44256W        W12674  25.655  42.302  12.011
44257W        W12675  41.434   7.858   1.802
44258W        W12676  23.725   7.337  12.990
44259W        W12677  25.649  42.913  12.471
44260W        W12678  23.548   0.406   0.275
44261W        W12679  23.552  19.112   2.812
44262W        W12680  40.327  31.456   1.738
44263W        W12681   7.380  16.213   0.261
44264W        W12682   2.237  32.134  13.958
44265W        W12683  38.819  37.471  10.623
44266W        W12684   2.330  24.160   1.238
44267W        W12685  43.969  14.798   2.369
44268W        W12686   0.918  30.030  13.460
44269W        W12687   2.865  43.782  10.423
44270W        W12688   2.778  44.930  14.783
44271W        W12689  25.037  44.457  12.080
44272W        W12690  23.736  37.902  11.078
44273W        W12691  16.242  34.942   4.611
44274W        W12692  20.705   0.272  12.527
44275W        W12693  37.060  17.093  12.502
44276W        W12694   7.668  17.125  11.922
44277W        W12695  26.165  40.805   2.319
44278W        W12696  18.084   4.719   4.145
44279W        W12697  35.563  31.529  13.512
44280W        W12698  10.232  10.778   1.933
44281W        W12699  11.723  19.040  14.802
44282W        W12700  10.862  18.082  11.077
44283W        W12701  15.803  15.773   3.866
44284W        W12702   0.355  23.515   0.757
44285W        W12703  25.179  14.668   1.397
44286W        W12704  17.218   0.810   1.421
44287W        W12705  27.506  12.666   1.313
44288W        W12706   2.466  15.674   5.238
44289W        W12707  26.691  43.513   2.383
44290W        W12708  28.154  22.074  11.089
44291W        W12709   5.344  15.282  14.349
44292W        W12710   9.648  30.006   1.695
44293W        W12711   1.896  32.392  13.352
44294W        W12712  10.878  21.108  14.418
44295W        W12713  32.608  39.455   1.767
44296W        W12714  20.214  18.167   2.860
44297W        W12715  21.239  22.179   3.672
44298W        W12716   3.797   8.851  10.074
44299W        W12717  32.940  17.258   1.748
44300W        W12718  31.487  18.544   4.202
44301W        W12719  22.223   8.691   0.480
44302W        W12720  24.536   8.290   2.292
44303W        W12721  30.019  29.071   0.904
44304W        W12722  36.590  19.276   4.303
44305W        W12723   0.891  10.746  11.963
44306W        W12724   2.280   0.883  14.373
44307W        W12725  18.708  18.221   4.753
44308W        W12726  27.679  24.127   1.796
44309W        W12727  19.635   3.394  14.851
44310W        W12728  36.575  16.133  14.457
44311W        W12729  20.640   5.422  13.867
44312W        W12730  41.806  38.823   1.220
44313W        W12731   8.755   2.407   3.816
44314W        W12732  31.402  36.469   4.126
44315W        W12733  22.170  28.549   4.209
44316W        W12734  12.846  39.498   3.707
44317W        W12735  38.049  27.549   1.926
44318W        W12736  24.165  24.997  14.840
44319W        W12737  38.399  17.772  10.414
44320W        W12738  26.625   0.936  10.944
44321W        W12739   1.292  41.835   4.176
44322W        W12740  38.948   3.457   0.456
44323W        W12741  35.907  35.386  12.452
44324W        W12742   0.257   4.232  13.861
44325W        W12743  16.602  34.497  11.559
44326W        W12744  40.862   3.451   3.218
44327W        W12745  30.137  36.074   2.784
44328W        W12746  27.164  19.068  12.064
44329W        W12747   6.310   6.244  11.058
44330W        W12748   9.306  35.940   0.435
44331W        W12749  40.385  43.343   2.881
44332W        W12750  24.523  23.223  11.523
44333W        W12751  24.202  22.583   3.360
44334W        W12752  11.316  33.918  10.515
44335W        W12753   1.914  22.665  11.984
44336W        W12754   6.793   4.408  12.026
44337W        W12755  26.968   4.446  11.111
44338W        W12756  11.289  44.892  13.055
44339W        W12757  24.687  33.482  11.420
44340W        W12758   3.370  21.597   9.612
44341W        W12759   3.320   0.844   3.343
44342W        W12760  22.093  23.141  11.476
44343W        W12761  18.177  34.479  14.355
44344W        W12762  15.211   2.330   2.841
44345W        W12763  39.526  23.072   4.133
44346W        W12764   5.284   7.707  13.491
44347W        W12765   2.757   8.245  13.883
44348W        W12766  10.223  30.500   2.835
44349W        W12767  32.391  21.186  14.844
44350W        W12768  12.286  34.403  14.992
44351W        W12769   9.701  33.419  14.026
44352W        W12770   5.297  12.203   1.267
44353W        W12771  26.973  20.031   1.919
44354W        W12772  24.135  26.963   0.963
44355W        W12773   5.279   4.808   2.269
44356W        W12774   3.875  25.683  13.919
44357W        W12775  39.019  25.188  10.027
44358W        W12776   4.448  31.972  11.875
44359W        W12777  16.170   5.840   1.305
44360W        W12778  29.129  41.817  13.976
44361W        W12779   7.671   2.364   4.143
44362W        W12780  44.477   4.888   4.808
44363W        W12781   2.897  22.038   4.792
44364W        W12782  30.129   1.862   3.848
44365W        W12783  31.072  23.689   2.340
44366W        W12784  42.347  34.540  14.421
44367W        W12785  28.168  29.656  10.145
44368W        W12786   0.484  24.000  11.588
44369W        W12787  34.973   3.385  14.790
44370W        W12788  31.919   9.211  12.059
44371W        W12789  22.570  14.307   5.224
44372W        W12790  18.252  14.155  10.146
44373W        W12791   7.358  24.556  12.075
44374W        W12792   8.674  34.025   3.349
44375W        W12793  27.010   2.859  12.982
44376W        W12794  34.031  15.285   3.771
44377W        W12795  42.858  25.583   4.831
44378W        W12796  42.959  26.046   2.753
44379W        W12797  26.656  32.612  12.873
44380W        W12798   5.774  16.799   3.771
44381W        W12799  13.131  11.297  11.112
44382W        W12800  42.290  26.483  11.012
44383W        W12801  13.780  27.081  12.473
44384W        W12802  40.482  18.288   2.726
44385W        W12803  33.081   7.305  11.866
44386W        W12804  16.780  29.126  14.399
44387W        W12805  40.316  41.371  14.349
44388W        W12806  44.798  21.243   3.809
44389W        W12807   0.849  37.517  12.431
44390W        W12808  19.663  20.132   2.794
44391W        W12809   8.841  31.517   0.787
44392W        W12810  19.053   8.878   1.447
44393W        W12811  29.127  37.950  14.353
44394W        W12812  43.479  31.984   2.848
44395W        W12813   7.224  42.414   2.776
44396W        W12814  16.301  18.093   2.327
44397W        W12815  28.015  18.557   1.718
44398W        W12816  20.760  10.720  10.556
44399W        W12817   8.389  23.227   4.652
44400W        W12818   9.690   2.309   1.341
44401W        W12819   9.884  15.103  13.895
44402W        W12820  28.021   4.715  13.870
44403W        W12821  29.471  39.449  12.438
44404W        W12822  38.938  37.867   4.663
44405W        W12823  12.614   7.176  14.850
44406W        W12824   4.848  42.515  10.477
44407W        W12825  18.716  39.416   4.707
44408W        W12826  34.612  20.259   2.418
44409W        W12827  31.526  14.167  10.981
44410W        W12828  12.148   4.272  10.975
44411W        W12829  14.284  10.325   4.802
44412W        W12830  13.630   9.872  13.451
44413W        W12831  43.941  29.115  12.935
44414W        W12832  38.491  25.671   3.307
44415W        W12833  17.672  18.098   3.766
44416W        W12834  19.272   8.720   4.693
44417W        W12835  40.020   1.825   0.769
44418W        W12836  22.664   6.257   4.742
44419W        W12837  24.661  11.136   4.805
44420W        W12838  28.163   6.679   2.373
44421W        W12839  26.532  14.627  12.850
44422W        W12840   6.851  10.286   0.758
44423W        W12841  39.949  29.044  12.547
44424W        W12842   5.912  36.421   2.214
44425W        W12843  21.704  29.000   4.324
44426W        W12844  11.169  23.012  12.877
44427W        W12845  11.703  24.567  12.563
44428W        W12846  30.466  43.993  14.897
44429W        W12847  28.658  12.617   1.227
44430W        W12848  40.508  27.612  11.916
44431W        W12849  44.770  36.993   2.227
44432W        W12850  24.027   1.886   1.891
44433W        W12851   0.475  37.029   1.323
44434W        W12852  19.664   8.166  14.297
44435W        W12853   4.281  10.849   1.803
44436W        W12854   3.394   6.416   4.640
44437W        W12855   7.405  27.063   0.908
44438W        W12856  34.005  44.858  13.390
44439W        W12857  23.030   2.914  13.935
44440W        W12858  33.525  17.295   0.334
44441W        W12859   5.839   6.326  13.327
44442W        W12860  37.462   0.309   2.831
44443W        W12861  28.486   7.388  11.577
44444W        W12862   0.384  28.973   3.242
44445W        W12863   3.731  18.165   4.247
44446W        W12864   4.311  13.844  12.841
44447W        W12865  31.465   5.889  14.508
44448W        W12866   6.398  29.109   0.377
44449W        W12867  32.568  22.506   0.835
44450W        W12868   3.402  37.984  10.540
44451W        W12869  19.601  40.839   2.408
44452W        W12870  15.193  32.097  11.082
44453W        W12871   4.327   4.328   0.369
44454W        W12872  26.663  39.395   0.745
44455W        W12873  14.220  11.260  12.919
44456W        W12874  28.596  14.596   2.741
44457W        W12875  36.920   9.320  11.089
44458W        W12876   4.336  21.564   4.293
44459W        W12877   9.652  44.464   1.930
44460W        W12878  28.093  15.104   2.197
44461W        W12879  10.814  28.672   2.237
44462W        W12880  20.227   8.723  14.859
44463W        W12881  37.038  26.624  14.032
44464W        W12882   7.876  23.999   3.732
44465W        W12883  17.773   0.860  13.854
44466W        W12884   9.696   6.757  14.938
44467W        W12885  22.553  23.000   4.690
44468W        W12886   1.280   9.288   3.169
44469W        W12887  33.551  21.027  10.152
44470W        W12888  13.625  21.736   4.193
44471W        W12889  22.743   9.354  12.545
44472W        W12890  35.943   2.251   3.705
44473W        W12891  40.922  29.669  11.923
44474W        W12892  41.811  21.613  11.506
44475W        W12893  37.530  31.473   0.372
44476W        W12894  18.143  13.726   5.308
44477W        W12895  32.592  17.736   1.352
44478W        W12896  26.977   2.936  11.919
44479W        W12897  44.813  16.749   3.360
44480W        W12898  24.541  41.298  10.911
44481W        W12899  36.436  34.539  12.972
44482W        W12900  13.834  43.516   2.878
44483W        W12901  13.177  42.828  11.497
44484W        W12902  25.571   6.265  12.498
44485W        W12903  29.158   1.342  13.487
44486W        W12904  20.221  20.627  11.544
44487W        W12905  22.246  40.985   4.734
44488W        W12906  11.623  28.997  11.499
44489W        W12907  10.375  18.174  10.562
44490W        W12908  33.936  40.823  13.014
44491W        W12909   4.781   5.291   0.420
44492W        W12910   5.384  32.631   4.705
44493W        W12911  43.835   2.353  10.604
44494W        W12912   3.304  21.250  12.475
44495W        W12913  17.233   8.771   5.232
44496W        W12914  18.760   4.351  11.402
44497W        W12915  15.265  11.368  10.561
44498W        W12916   1.975   8.389  12.524
44499W        W12917  42.523   2.281   2.816
44500W        W12918  36.865  37.370  14.976
44501W        W12919   0.819   1.417   4.205
44502W        W12920  41.323  32.015  14.496
44503W        W12921  27.098   0.937  10.988
44504W        W12922   9.746  21.085   2.881
44505W        W12923   1.246   5.201  12.455
44506W        W12924  32.396  15.228   3.860
44507W        W12925  23.104  21.163  12.891
44508W        W12926  29.171  18.645   4.751
44509W        W12927  42.417  11.345  10.619
44510W        W12928   4.736   0.920  13.367
44511W        W12929  25.127   1.863  12.941
44512W        W12930  21.548  29.924  10.899
44513W        W12931  27.020  24.145   1.280
44514W        W12932  40.366  16.674   3.222
44515W        W12933  27.176   4.941   1.892
44516W        W12934  12.149  34.912  13.819
44517W        W12935  16.172   8.880  12.943
44518W        W12936  41.885  37.368  10.154
44519W        W12937  26.194  20.135  11.977
44520W        W12938  37.388  39.930   0.943
44521W        W12939   2.860   6.275   1.286
44522W        W12940  37.578  44.794  11.985
44523W        W12941  44.505   5.439   3.854
44524W        W12942   0.776  25.661  11.934
44525W        W12943  31.622  19.710   2.798
44526W        W12944  27.952   6.279   2.695
44527W        W12945  18.684  21.728   1.748
44528W        W12946   9.708  26.548   4.605
44529W        W12947  35.593  43.871  14.334
44530W        W12948   9.343  26.661   3.364
44531W        W12949  14.653   5.285   0.830
44532W        W12950  11.718  40.392   2.184
44533W        W12951  24.546   5.774  13.811
44534W        W12952  10.156  26.618   0.284
44535W        W12953   6.676  38.954  13.367
44536W        W12954  21.058   8.325   2.683
44537W        W12955  32.634   8.208  12.412
44538W        W12956  43.972  30.540  10.592
44539W        W12957  40.396  14.737  12.050
44540W        W12958   0.915  20.574  10.045
44541W        W12959  16.197  17.090   2.233
44542W        W12960  35.976  35.956  14.807
44543W        W12961  12.351  22.037   1.394
44544W        W12962  10.176  23.241  10.536
44545W        W12963   5.424  26.499   1.696
44546W        W12964  10.192  12.706   5.108
44547W        W12965  25.487  10.671  12.049
44548W        W12966  22.040  10.782  12.528
44549W        W12967  35.531  21.531   2.885
44550W        W12968  39.356  36.588  12.081
44551W        W12969  14.254   0.286  11.562
44552W        W12970  17.575  26.570   3.860
44553W        W12971  39.545  13.215   4.167
44554W        W12972  43.327  33.423   4.685
44555W        W12973  41.372  21.256  14.850
44556W        W12974  29.512  17.716   0.767
44557W        W12975  30.530  42.997   2.401
44558W        W12976   0.837  42.822   0.850
44559W        W12977  29.954  12.857  11.075
44560W        W12978  40.874   9.790   3.341
44561W        W12979  21.056  23.734  10.424
44562W        W12980  30.056  13.820  14.294
44563W        W12981  21.644  11.220   3.341
44564W        W12982   0.824   7.383  14.440
44565W        W12983  40.377  44.940  11.431
44566W        W12984  18.281  15.817  10.991
44567W        W12985   3.889  16.132   2.849
44568W        W12986  39.995  40.372   2.291
44569W        W12987  40.926  40.820  14.862
44570W        W12988  22.730   4.760   1.699
44571W        W12989  35.885  23.003  11.953
44572W        W12990  16.077  10.687   1.849
44573W        W12991  21.619   3.859  14.342
44574W        W12992  42.989  22.243  10.142
44575W        W12993  30.919  39.062   5.301
44576W        W12994  18.170  39.461   1.315
44577W        W12995  25.196  16.256  11.109
44578W        W12996   0.279   7.855  14.918
44579W        W12997  30.162   2.913   2.812
44580W        W12998  18.733  10.689  10.972
44581W        W12999   5.222   5.287  11.387
44582W        W13000  22.738  35.472  13.019
44583W        W13001   1.858  38.914  10.617
44584W        W13002  21.554  41.005  12.840
44585W        W13003  37.032  34.473   1.234
44586W        W13004  11.818  41.324   5.143
44587W        W13005  25.663  15.261   0.923
44588W        W13006  28.175   8.315   4.318
44589W        W13007  26.593  24.553  12.038
44590W        W13008  44.829   0.895  11.000
44591W        W13009   6.899   4.841   1.439
44592W        W13010  17.702  30.969  10.506
44593W        W13011  21.557  31.540   1.717
44594W        W13012  43.434  21.734  12.431
44595W        W13013  41.444  24.488   4.309
44596W        W13014  38.360  22.013   0.248
44597W        W13015   2.406  21.127   0.921
44598W        W13016  39.403   7.783  13.994
44599W        W13017  30.022  34.897  13.505
44600W        W13018  18.052  22.016   0.873
44601W        W13019  27.659  19.692   4.744
44602W        W13020   5.277  21.207  13.977
44603W        W13021  32.449  21.715  14.930
44604W        W13022   8.212  24.556   3.328
44605W        W13023  33.048  15.583   1.821
44606W        W13024  19.124  35.362   3.236
44607W        W13025   0.357  29.032  11.413
44608W        W13026  35.583  37.053  14.894
44609W        W13027   3.441  32.545  13.890
44610W        W13028   5.346  33.946   1.894
44611W        W13029  11.312  12.165  10.456
44612W        W13030   6.776  29.487   1.786
44613W        W13031   0.472  28.052   4.235
44614W        W13032  23.637   6.891  13.370
44615W        W13033  41.980   8.747  11.031
44616W        W13034  31.647  36.545  14.966
44617W        W13035  10.203   8.702   3.354
44618W        W13036   8.206  42.424   3.707
44619W        W13037   1.847  39.392  10.570
44620W        W13038  30.562  29.498   0.425
44621W        W13039  22.069  20.239   3.732
44622W        W13040  27.992  19.698  12.464
44623W        W13041  44.446  12.763  11.115
44624W        W13042   6.806  14.634   3.222
44625W        W13043  34.464  10.149  13.861
44626W        W13044  43.984  20.665   1.845
44627W        W13045  11.690  15.615  11.612
44628W        W13046  19.561  38.072  12.412
44629W        W13047  28.142  41.534  13.008
44630W        W13048   0.488  36.943   3.674
44631W        W13049  27.103  21.562   4.621
44632W        W13050  17.131  29.949  13.985
44633W        W13051   6.380  26.985   0.928
44634W        W13052   6.738  41.013   0.291
44635W        W13053  19.618  42.994   3.239
44636W        W13054  18.787   4.330   0.886
44637W        W13055  19.232  14.219  13.957
44638W        W13056   1.829  29.562  11.990
44639W        W13057  20.642  27.075  12.047
44640W        W13058  29.123  14.744  14.947
44641W        W13059  14.682   2.801  12.435
44642W        W13060   2.897  13.751  10.602
44643W        W13061   5.279  16.271   0.935
44644W        W13062  10.808   6.427  14.025
44645W        W13063   7.733  35.418   2.273
44646W        W13064  12.339  38.905  12.567
44647W        W13065  22.013  35.415   3.724
44648W        W13066  33.571  26.595   0.776
44649W        W13067  21.179  17.671   0.849
44650W        W13068  39.426  25.175  11.549
44651W        W13069  40.034  36.387   2.313
44652W        W13070   8.309  26.660  13.820
44653W        W13071  11.622   7.279   1.312
44654W        W13072  26.172  14.754  12.080
44655W        W13073  33.611  35.361  14.864
44656W        W13074  34.524  32.103   0.437
44657W        W13075  20.058   8.241  10.547
44658W        W13076   8.272  28.520   4.633
44659W        W13077  27.639   5.730   2.764
44660W        W13078  13.613  25.646  11.979
44661W        W13079  21.253  40.940  11.122
44662W        W13080  21.742  37.580  12.932
44663W        W13081   7.228  28.631  12.506
44664W        W13082   6.812  32.454  14.415
44665W        W13083   8.395   0.470  14.471
44666W        W13084  31.078   7.417  14.925
44667W        W13085  20.588   5.781  13.400
44668W        W13086  37.070  15.798  12.076
44669W        W13087  13.219  18.216   3.842
44670W        W13088   9.188   5.420  10.970
44671W        W13089  17.251   6.427  14.887
44672W        W13090  22.693  33.879   3.299
44673W        W13091  18.209   7.813   4.603
44674W        W13092  44.438  35.037  13.526
44675W        W13093   0.308   5.394   3.739
44676W        W13094  33.931   3.866   2.899
44677W        W13095  34.415  26.626  13.819
44678W        W13096  30.455   2.280   0.745
44679W        W13097  24.522  26.166  14.477
44680W        W13098  44.386  21.735  13.532
44681W        W13099  26.516  19.144   2.677
44682W        W13100  30.488   9.814   0.950
44683W        W13101  38.902  28.124   0.416
44684W        W13102  31.516  28.962  11.548
44685W        W13103  22.694  40.934  12.368
44686W        W13104  21.143  18.053  10.491
44687W        W13105  14.306   8.869   2.747
44688W        W13106  38.426  27.949  13.833
44689W        W13107   6.905  10.636   1.255
44690W        W13108  43.299  37.462  12.019
44691W        W13109  15.768  31.645  14.980
44692W        W13110   1.887   7.764   5.285
44693W        W13111  20.655   5.710   0.432
44694W        W13112  11.353  34.880  12.556
44695W        W13113  18.767  17.125  12.873
44696W        W13114  13.205  13.111  14.403
44697W        W13115  35.011  29.446  13.946
44698W        W13116  31.918  14.651  13.420
44699W        W13117  31.487  11.718   2.882
44700W        W13118   4.354  24.152   0.428
44701W        W13119  30.067  20.718  11.509
44702W        W13120  16.132   0.972  14.382
44703W        W13121   7.666  15.655   3.201
44704W        W13122  29.051  19.049  14.019
44705W        W13123  28.087  40.521  14.437
44706W        W13124  36.051  12.172   0.243
44707W        W13125  21.694  12.206  14.784
44708W        W13126   1.320   5.729  14.921
44709W        W13127  21.690  27.014   0.364
44710W        W13128  13.242  23.595   4.310
44711W        W13129  24.492  33.544  10.948
44712W        W13130  28.107   9.784   2.870
44713W        W13131  36.379  32.892  11.064
44714W        W13132  41.308  25.517   3.739
44715W        W13133  19.136  10.211  14.993
44716W        W13134  40.380  10.674   1.851
44717W        W13135  20.674  14.123  13.524
44718W        W13136  11.305   8.178   2.214
44719W        W13137  36.035  11.206  14.479
44720W        W13138  14.153   6.892   9.964
44721W        W13139   6.410   6.761   2.723
44722W        W13140  43.428  33.094  10.889
44723W        W13141  20.042  19.636  14.826
44724W        W13142  38.532  30.475  12.499
44725W        W13143  39.013  15.683  12.871
44726W        W13144  22.229   1.444   2.221
44727W        W13145  11.803   6.289   3.292
44728W        W13146  35.052   9.770  14.980
44729W        W13147  34.434  20.667   4.642
44730W        W13148   0.286  25.200  12.856
44731W        W13149  41.505  27.455  11.948
44732W        W13150  27.955   8.192  14.506
44733W        W13151  43.511  27.080  12.537
44734W        W13152  29.526  34.519  12.093
44735W        W13153  43.491  38.875   3.809
44736W        W13154   5.227   9.172  14.846
44737W        W13155  31.593  19.105  13.456
44738W        W13156  12.717  27.685  11.002
44739W        W13157  10.844  16.572   2.752
44740W        W13158  27.632   1.936   3.195
44741W        W13159  15.278   4.924   1.424
44742W        W13160   0.399  23.621  12.415
44743W        W13161   4.794  14.683   0.840
44744W        W13162  17.634  10.737  13.861
44745W        W13163   7.734  38.490  10.427
44746W        W13164  17.075   4.902  13.821
44747W        W13165  44.496  23.590  14.293
44748W        W13166  18.581  41.443   0.441
44749W        W13167  24.713  35.917   4.266
44750W        W13168  36.987  37.467  11.116
44751W        W13169   0.321  33.526  12.949
44752W        W13170   5.278  14.744  13.983
44753W        W13171  21.525  22.609  14.985
44754W        W13172  25.690  15.304  11.483
44755W        W13173   5.288  29.558   2.267
44756W        W13174  22.546  23.690  11.951
44757W        W13175  43.297   0.970   1.850
44758W        W13176  31.981  18.597   2.683
44759W        W13177  10.855  34.067   1.862
44760W        W13178  23.081  24.193  11.922
44761W        W13179  15.705  23.114  10.406
44762W        W13180  23.578  28.471   3.318
44763W        W13181   2.852  23.120   2.354
44764W        W13182  22.542   3.946   2.824
44765W        W13183   2.732  26.175   1.919
44766W        W13184  31.950  40.484   4.252
44767W        W13185  18.604  32.025   4.750
44768W        W13186  37.927   3.720  11.443
44769W        W13187  39.559  10.768  13.408
44770W        W13188  11.296  31.521  14.022
44771W        W13189  21.208  39.001  10.607
44772W        W13190  26.545   4.348   4.707
44773W        W13191  19.158  13.784  11.589
44774W        W13192  30.591  31.481  11.467
44775W        W13193   9.845  12.656   3.238
44776W        W13194   2.315  44.444   1.214
44777W        W13195  39.398  15.799   4.207
44778W        W13196  24.061  24.603   4.724
44779W        W13197   7.776  35.376  13.872
44780W        W13198  27.964  26.156   1.303
44781W        W13199   1.408   3.333   2.201
44782W        W13200  26.033  44.372   0.380
44783W        W13201  23.593  20.107   3.227
44784W        W13202  10.754  27.547   2.239
44785W        W13203   0.814  11.292  12.977
44786W        W13204  25.580   5.199   3.687
44787W        W13205  33.014  24.042   0.872
44788W        W13206  27.574  13.351  10.933
44789W        W13207  20.231  36.081   1.387
44790W        W13208  29.432  39.437  14.767
44791W        W13209   1.295  20.071  14.322
44792W        W13210  24.526  19.606  13.392
44793W        W13211  42.323  15.751  13.856
44794W        W13212  32.899  38.543  10.510
44795W        W13213  28.008  39.981   4.144
44796W        W13214  33.080   2.807   0.888
44797W        W13215  25.501  24.638  14.443
44798W        W13216  30.076  30.939   1.359
44799W        W13217   4.934  26.689   3.778
44800W        W13218  24.704  29.474  10.500
44801W        W13219  30.061  10.736  11.986
44802W        W13220   5.389   5.884  13.970
44803W        W13221  15.690  14.706   5.196
44804W        W13222  15.163  38.369  12.986
44805W        W13223  28.654  30.520   5.237
44806W        W13224  43.514  36.071  10.478
44807W        W13225  21.519  43.968  12.900
44808W        W13226  41.406  36.426  12.987
44809W        W13227  23.173   9.205   2.353
44810W        W13228  35.408   7.175   3.387
44811W        W13229  29.987  25.627  14.497
44812W        W13230  38.566  38.492  12.992
44813W        W13231  18.561  34.969   1.303
44814W        W13232  41.866   7.404  14.921
44815W        W13233  27.538  29.972   4.827
44816W        W13234  17.623  33.434   0.356
44817W        W13235  13.814  36.091  11.389
44818W        W13236  18.290  36.095   4.641
44819W        W13237  35.560  41.448  13.895
44820W        W13238  21.577  41.874   1.807
44821W        W13239  35.361  39.393   4.740
44822W        W13240  20.686  42.861   0.965
44823W        W13241   7.755  22.999  13.988
44824W        W13242   1.340  19.207   3.686
44825W        W13243   9.187  36.400   3.321
44826W        W13244  19.778  21.135   4.784
44827W        W13245  33.390   5.881  10.452
44828W        W13246  19.690  41.497   4.663
44829W        W13247  28.630  39.057   0.318
44830W        W13248  37.379  24.032  11.405
44831W        W13249  27.170  22.188   0.962
44832W        W13250  35.406   3.772   0.751
44833W        W13251  16.294  15.694  14.929
44834W        W13252  10.292  32.612   3.175
44835W        W13253  39.895  43.471   1.393
44836W        W13254   1.808   8.682   5.202
44837W        W13255  17.124  24.618   4.755
44838W        W13256  31.516  30.639   3.759
44839W        W13257   2.943   9.836  11.009
44840W        W13258   1.864  43.798   3.263
44841W        W13259  18.129  19.536  14.980
44842W        W13260  17.748  21.645   1.329
44843W        W13261  10.679  30.599  12.060
44844W        W13262  17.206  34.023   3.217
44845W        W13263   5.799   6.704   4.273
44846W        W13264  18.173   5.725   0.928
44847W        W13265  19.099  25.044  14.481
44848W        W13266  25.709  37.052   4.196
44849W        W13267   4.887  34.390   4.718
44850W        W13268  39.525  42.944   0.845
44851W        W13269  27.041   1.344   3.353
44852W        W13270  12.838  18.731   0.963
44853W        W13271  22.528  42.390  14.445
44854W        W13272  38.403  24.010  12.011
44855W        W13273  15.736  22.135   2.734
44856W        W13274   7.853  39.482  11.912
44857W        W13275  38.937  26.164   4.637
44858W        W13276  18.224  26.059  11.090
44859W        W13277  22.567   0.753  11.556
44860W        W13278  17.287  22.075  12.463
44861W        W13279   1.256   6.428  10.923
44862W        W13280   8.835   1.912  11.914
44863W        W13281  36.376   7.398   0.900
44864W        W13282   2.869  28.076   1.813
44865W        W13283  19.117  21.073  11.976
44866W        W13284  44.899  41.437   1.297
44867W        W13285   7.798  17.575   4.821
44868W        W13286   2.268  17.265  10.516
44869W        W13287   7.358  19.669  13.399
44870W        W13288  19.683  10.852  11.462
44871W        W13289  42.460  10.861   3.686
44872W        W13290   7.834  38.513  13.521
44873W        W13291  24.487  26.094  11.997
44874W        W13292  23.616   0.882   4.634
44875W        W13293  37.040  18.589  13.524
44876W        W13294  35.601   4.432  13.018
44877W        W13295  32.018   6.747   3.681
44878W        W13296  16.239   7.314  13.799
44879W        W13297  34.503  18.707   1.903
44880W        W13298  22.624  16.120   2.339
44881W        W13299  29.166  31.090   4.665
44882W        W13300  18.664  25.704  13.344
44883W        W13301  33.019  15.212  13.912
44884W        W13302  27.146  31.576  11.533
44885W        W13303  24.113  18.713   0.887
44886W        W13304  43.014  37.941   4.684
44887W        W13305  32.512  10.649   3.760
44888W        W13306  36.437  16.703   4.191
44889W        W13307  30.132  37.466   4.774
44890W        W13308  15.800  15.768  12.393
44891W        W13309  19.084  17.124  12.898
44892W        W13310  21.681   0.298   1.316
44893W        W13311  37.051  29.666  13.462
44894W        W13312  25.566  27.172   4.714
44895W        W13313  19.057   8.242   0.820
44896W        W13314  20.659  39.362  13.522
44897W        W13315   2.425   8.671  14.791
44898W        W13316  38.900  42.009  14.874
44899W        W13317  33.617  30.946  12.448
44900W        W13318  34.609  40.972  12.472
44901W        W13319  26.669  36.369  13.805
44902W        W13320  19.094  28.660  12.943
44903W        W13321   1.748   1.428   1.345
44904W        W13322  16.248   1.264   2.727
44905W        W13323  14.163  33.129   0.880
44906W        W13324  11.718  40.448  11.119
44907W        W13325  29.631  13.206  14.997
44908W        W13326  43.398  25.714   3.644
44909W        W13327  36.066  11.839   3.335
44910W        W13328   5.901   5.436   2.299
44911W        W13329  41.512   4.318   1.232
44912W        W13330  18.087   8.169   4.220
44913W        W13331  35.556   1.775   3.746
44914W        W13332  13.683  43.421  14.913
44915W        W13333  28.114  23.176   4.164
44916W        W13334  24.998  34.949   4.642
44917W        W13335  32.519   8.202  13.963
44918W        W13336  17.629  25.023   0.334
44919W        W13337  25.981   1.769   0.389
44920W        W13338  44.401  36.034  11.870
44921W        W13339  40.909  36.936  14.500
44922W        W13340  21.663  41.019   1.222
44923W        W13341  30.965  38.891  10.041
44924W        W13342  11.844   1.968  12.518
44925W        W13343  42.292  38.954   3.299
44926W        W13344   0.488  34.994  14.390
44927W        W13345  42.950  18.743  14.930
44928W        W13346  23.022  38.042   9.552
44929W        W13347  14.648  33.003  13.511
44930W        W13348  17.714   3.767   3.719
44931W        W13349  23.006  43.834  14.855
44932W        W13350   4.337  11.329  14.300
44933W        W13351   5.359  13.807  13.437
44934W        W13352  15.133  37.944   2.362
44935W        W13353  36.431  41.882  14.388
44936W        W13354  32.575   3.373   1.701
44937W        W13355  11.854  15.105  13.936
44938W        W13356  10.170  42.515   4.796
44939W        W13357  24.214   7.715   1.302
44940W        W13358  21.693  44.427  12.577
44941W        W13359  26.623  30.563   2.276
44942W        W13360  33.583  20.716   2.779
44943W        W13361  12.257  39.559  11.577
44944W        W13362  14.281  10.237   1.855
44945W        W13363  11.785  19.765   3.868
44946W        W13364  26.141  38.436   3.151
44947W        W13365   2.418  41.806  13.994
44948W        W13366  12.254  35.466  11.437
44949W        W13367   4.281  23.625   2.292
44950W        W13368  35.368  11.712  11.950
44951W        W13369  12.267   3.788  12.087
44952W        W13370   9.806   9.259   3.715
44953W        W13371  15.617  44.986   0.414
44954W        W13372  29.454  17.090  10.996
44955W        W13373  28.139  38.030  13.408
44956W        W13374  36.050   2.790   0.829
44957W        W13375  33.054  23.590   0.788
44958W        W13376  34.058  10.722   0.412
44959W        W13377  42.824  30.966   1.333
44960W        W13378   3.772   4.408   0.744
44961W        W13379  33.606   6.223  12.047
44962W        W13380   9.367   8.203   3.170
44963W        W13381  26.148  38.030   3.211
44964W        W13382  30.491  37.438   4.294
44965W        W13383  37.969   2.838   3.846
44966W        W13384   0.928   8.338  10.484
44967W        W13385  38.384  20.037  11.400
44968W        W13386   8.288   3.297   0.369
44969W        W13387   0.449   2.905  14.799
44970W        W13388  28.599  32.494   1.424
44971W        W13389  41.335  35.392  11.941
44972W        W13390  19.587  37.372   1.299
44973W        W13391  18.737  21.118  11.099
44974W        W13392  14.231  19.590  10.093
44975W        W13393  21.651  44.826   0.280
44976W        W13394   5.230  20.637  12.543
44977W        W13395   4.807  28.605  10.494
44978W        W13396  29.428  24.222  11.484
44979W        W13397  36.023  17.094  13.805
44980W        W13398  25.608  35.896  14.322
44981W        W13399  41.950   4.853   1.298
44982W        W13400   6.903   4.390  13.972
44983W        W13401  33.104  29.442   1.751
44984W        W13402  33.538  20.623  11.558
44985W        W13403  20.143  25.652  14.449
44986W        W13404  42.896   1.483   0.446
44987W        W13405  14.798   7.840  11.524
44988W        W13406   9.178  39.043   4.273
44989W        W13407   3.841  37.404   1.308
44990W        W13408  25.024  20.113   1.777
44991W        W13409  17.593  41.383   2.367
44992W        W13410   4.312   2.827  14.366
44993W        W13411  12.673  18.076   2.742
44994W        W13412  11.208  27.593   3.824
44995W        W13413   8.291   2.280   3.332
44996W        W13414   0.258  38.477   2.232
44997W        W13415   9.212   4.816  12.378
44998W        W13416  22.569  19.584  13.951
44999W        W13417  16.140  24.976  10.456
45000W        W13418  19.556  44.919   0.326
45001W        W13419  14.207  43.342   0.898
45002W        W13420  25.584  28.607  12.569
45003W        W13421  12.218  38.930   3.185
45004W        W13422  41.042  31.009   2.864
45005W        W13423  10.158  20.230  14.899
45006W        W13424   1.441  36.404  12.958
45007W        W13425  29.571   7.405   4.208
45008W        W13426  43.457  28.533  13.536
45009W        W13427   8.284   1.261  12.925
45010W        W13428  14.202  14.660   3.277
45011W        W13429  20.222  27.030  10.040
45012W        W13430   0.398  37.474  13.990
45013W        W13431  30.565  12.849  14.782
45014W        W13432  26.968   9.709  14.393
45015W        W13433   8.699  10.866   4.616
45016W        W13434  44.802  44.896  10.509
45017W        W13435  14.715  37.432   2.669
45018W        W13436   9.207  37.024  14.993
45019W        W13437  30.990   3.234  14.816
45020W        W13438  18.567  38.353   4.825
45021W        W13439  29.989   1.424   0.270
45022W        W13440  30.979  32.472   1.354
45023W        W13441  44.897   3.385   5.087
45024W        W13442  11.862  18.095   2.832
45025W        W13443  10.675  32.471  11.500
45026W        W13444  26.963  12.175   3.663
45027W        W13445  38.559  13.777  13.329
45028W        W13446  12.290  31.990   4.201
45029W        W13447  34.967   4.420  14.318
45030W        W13448  16.099  36.879  14.867
45031W        W13449  11.256  20.205   3.841
45032W        W13450  36.981  19.136  13.981
45033W        W13451  41.423  12.203   0.396
45034W        W13452   2.461  36.885   4.682
45035W        W13453  44.366  20.671   5.586
45036W        W13454  40.824  15.244  14.955
45037W        W13455   2.769  30.522   0.916
45038W        W13456   6.690  11.636  14.319
45039W        W13457  44.467  25.531   5.115
45040W        W13458   1.841   7.678  11.901
45041W        W13459  13.679  27.669  13.957
45042W        W13460  34.045  18.720   1.810
45043W        W13461  18.256  38.428  14.323
45044W        W13462  26.107   5.238  12.013
45045W        W13463  42.956   9.723   4.265
45046W        W13464  41.839  42.435  12.040
45047W        W13465  21.518  40.876  13.367
45048W        W13466   7.381  35.460  12.894
45049W        W13467  32.508  13.673   2.861
45050W        W13468   9.167   8.236  10.572
45051W        W13469  42.425  27.502  14.962
45052W        W13470  32.915  20.052   2.814
45053W        W13471  35.430   7.798  14.333
45054W        W13472  15.147  16.143  10.413
45055W        W13473  34.996  36.480   1.843
45056W        W13474  17.237  43.772   2.355
45057W        W13475  41.985  44.446   5.267
45058W        W13476  29.506  28.608  11.883
45059W        W13477  40.947   7.692   4.341
45060W        W13478  15.602   9.302  12.881
45061W        W13479  38.434   7.769   1.357
45062W        W13480  39.828  33.615  14.798
45063W        W13481  18.587   0.987  14.428
45064W        W13482  39.961  29.603   1.866
45065W        W13483  28.088  43.277  14.383
45066W        W13484   9.199  28.437  13.945
45067W        W13485  24.690  19.767  14.512
45068W        W13486  32.400  36.052  10.125
45069W        W13487  23.990  44.300   2.199
45070W        W13488  32.960  39.982  14.399
45071W        W13489  43.454  26.141   3.171
45072W        W13490  10.318  35.869  14.892
45073W        W13491  39.976  11.208   4.757
45074W        W13492  29.065  38.873   0.934
45075W        W13493  32.968   8.232   1.898
45076W        W13494  44.905   4.268   2.194
45077W        W13495  25.139  37.445  13.893
45078W        W13496  39.441  23.199   3.865
45079W        W13497  29.597  38.892  11.487
45080W        W13498  40.435  42.982   4.238
45081W        W13499  26.562   2.405   3.297
45082W        W13500  25.538  32.076  13.021
45083W        W13501  42.998  36.501  14.004
45084W        W13502  28.129  14.737  13.929
45085W        W13503  27.507  25.159  10.624
45086W        W13504   5.808  33.567  14.298
45087W        W13505  29.026   3.879   1.434
45088W        W13506  33.916  25.965   2.875
45089W        W13507   8.752  25.988   1.274
45090W        W13508   6.911   2.873   4.825
45091W        W13509  38.336   3.871  13.795
45092W        W13510  42.817  14.242  14.456
45093W        W13511  13.219  10.334   9.938
45094W        W13512  12.722   2.798   3.867
45095W        W13513  30.999   2.282  14.990
45096W        W13514  18.086   1.444  11.549
45097W        W13515  10.755  27.040   0.731
45098W        W13516  21.730  10.761   0.411
45099W        W13517  15.734  15.732  12.833
45100W        W13518  29.639  15.727  11.943
45101W        W13519  42.903  39.014   5.303
45102W        W13520  37.942  31.921   1.706
45103W        W13521   1.472   7.901   4.719
45104W        W13522  42.357  10.838  12.069
45105W        W13523  43.010  32.919  10.448
45106W        W13524  16.083  10.238   2.892
45107W        W13525  39.924   1.247   1.748
45108W        W13526  36.984  20.268  10.489
45109W        W13527  41.016  25.987  14.774
45110W        W13528  17.151   8.287  10.529
45111W        W13529  41.391   8.302   1.281
45112W        W13530  17.725  34.112  10.538
45113W        W13531  27.950  15.578   0.912
45114W        W13532  26.663  40.914   0.380
45115W        W13533  33.602  21.717   2.408
45116W        W13534  10.835  11.656   2.215
45117W        W13535  16.762  19.234   0.932
45118W        W13536  41.303  33.969   0.420
45119W        W13537   7.410  44.906  13.358
45120W        W13538  30.439  38.006  12.354
45121W        W13539  33.448  21.041  12.508
45122W        W13540  42.474   9.706  11.060
45123W        W13541  17.618  26.542  13.995
45124W        W13542   0.804   0.890   1.221
45125W        W13543  44.796  28.946  14.996
45126W        W13544  44.368  13.319  10.473
45127W        W13545  29.016  44.975  11.057
45128W        W13546  15.226  26.019  14.858
45129W        W13547  25.156  28.638   4.822
45130W        W13548  15.233  36.557  11.998
45131W        W13549  38.979  25.977   0.916
45132W        W13550  24.179  13.247   3.760
45133W        W13551  22.236  15.297   2.286
45134W        W13552   1.407   4.231  10.595
45135W        W13553  44.327   4.271  11.976
45136W        W13554  40.031  25.076  14.367
45137W        W13555  33.089  34.062  13.887
45138W        W13556   0.374  11.852   1.889
45139W        W13557  33.580  35.940   1.754
45140W        W13558  26.972  10.718  13.493
45141W        W13559  42.847  13.732   3.865
45142W        W13560   4.744  31.122  13.808
45143W        W13561  24.635  34.984   0.391
45144W        W13562  10.322  32.578  14.817
45145W        W13563  21.700  33.077   2.254
45146W        W13564  31.575  26.024  10.970
45147W        W13565   7.376   9.798  13.449
45148W        W13566  17.600  16.706  13.857
45149W        W13567  35.398   2.807  14.425
45150W        W13568  34.416  34.509  14.345
45151W        W13569  40.314  35.575   3.700
45152W        W13570  24.082  42.314  14.767
45153W        W13571  38.953  40.370   0.302
45154W        W13572  23.225  22.105   1.406
45155W        W13573  34.081  29.645  14.992
45156W        W13574  27.081  28.630   0.815
45157W        W13575  38.499  10.207   0.829
45158W        W13576  32.413   2.347   4.184
45159W        W13577  30.433  34.597  12.046
45160W        W13578  31.108  15.089  11.525
45161W        W13579   9.670   9.711   0.763
45162W        W13580  37.918   0.419  12.928
45163W        W13581  24.014  10.345   4.686
45164W        W13582  14.708   8.370   1.890
45165W        W13583  12.153  25.982  11.526
45166W        W13584  28.592  28.095   1.427
45167W        W13585  41.376  43.385  11.384
45168W        W13586  43.403  36.387   2.208
45169W        W13587  33.626  19.747   0.342
45170W        W13588  12.649  15.670  14.373
45171W        W13589   5.727  44.299  14.470
45172W        W13590  23.238   2.825   0.730
45173W        W13591  36.530  26.477   1.845
45174W        W13592  26.011  33.112  12.416
45175W        W13593   2.330  19.049   4.757
45176W        W13594  42.953  40.805  13.525
45177W        W13595   4.841  37.969  11.109
45178W        W13596  28.958  25.520   3.791
45179W        W13597  41.918   4.213   3.681
45180W        W13598  16.763  44.769  13.977
45181W        W13599  11.658  36.074  12.440
45182W        W13600  43.458  14.335  12.388
45183W        W13601   9.295  30.000  12.344
45184W        W13602  16.698  22.035  13.948
45185W        W13603  24.049  38.532   4.207
45186W        W13604   2.318   0.360  13.419
45187W        W13605  20.053  34.569  11.912
45188W        W13606  32.535  20.738   2.399
45189W        W13607  14.766  19.558  13.516
45190W        W13608  12.712  37.447  10.967
45191W        W13609  18.768   5.437   2.767
45192W        W13610  37.372  17.735   3.164
45193W        W13611  12.119  21.740   0.766
45194W        W13612  44.979  33.596   0.787
45195W        W13613  19.248  21.546  10.465
45196W        W13614  44.000   3.387  10.483
45197W        W13615   0.406   7.888   1.280
45198W        W13616  20.178   7.328  10.509
45199W        W13617   4.372  10.188   0.779
45200W        W13618  42.907  23.548  12.882
45201W        W13619  25.000  37.936  11.060
45202W        W13620   6.809  19.177  11.860
45203W        W13621  31.477  29.546   1.327
45204W        W13622   5.916  17.713   2.195
45205W        W13623   3.440  32.411   3.195
45206W        W13624   5.219  36.995  10.616
45207W        W13625  27.026  33.581  12.546
45208W        W13626  18.566   6.915  12.540
45209W        W13627   3.935  41.963  13.502
45210W        W13628   5.700  26.006   0.924
45211W        W13629  13.708  40.474  11.027
45212W        W13630   0.856  28.649  11.473
45213W        W13631  44.849  30.478  13.490
45214W        W13632  33.991  41.888   0.925
45215W        W13633  35.506   9.210  14.375
45216W        W13634  19.660   2.462  12.526
45217W        W13635  43.333  12.723  11.403
45218W        W13636  21.242  43.383   0.474
45219W        W13637  18.717  27.530  12.092
45220W        W13638   1.820  11.255   4.339
45221W        W13639  19.132  35.980   0.415
45222W        W13640   3.384  36.090  12.450
45223W        W13641  36.400  19.652   5.200
45224W        W13642  35.463  30.089   4.131
45225W        W13643  18.091  17.646  14.981
45226W        W13644  10.749  11.314  11.490
45227W        W13645  28.931  15.281   0.830
45228W        W13646  18.263  32.121   0.429
45229W        W13647  13.780  16.706  12.347
45230W        W13648  11.372   0.905   1.888
45231W        W13649  30.150   3.746   1.386
45232W        W13650  11.814  13.203  13.900
45233W        W13651  21.159  23.493  13.535
45234W        W13652   5.726   6.746  12.977
45235W        W13653   6.783  44.804  13.985
45236W        W13654   6.375  16.194   4.253
45237W        W13655  15.761   0.876   3.160
45238W        W13656  12.653  12.701   2.339
45239W        W13657  42.308  15.202   0.476
45240W        W13658   6.782   9.289  13.049
45241W        W13659  12.207  11.809  11.930
45242W        W13660   0.473  39.559   0.779
45243W        W13661  39.950  17.703   0.947
45244W        W13662  18.731  18.680  12.917
45245W        W13663  44.431  34.945  14.287
45246W        W13664  35.980  35.956  12.971
45247W        W13665  35.037  30.561  12.389
45248W        W13666  20.203  22.067   2.825
45249W        W13667  31.101  31.998   3.221
45250W        W13668  30.985  21.020   1.411
45251W        W13669  26.598  44.907  12.031
45252W        W13670  35.492   2.416  14.497
45253W        W13671  16.145  42.849   0.737
45254W        W13672  34.076  40.893  14.374
45255W        W13673  42.520   2.749  10.546
45256W        W13674  19.157   7.346  11.425
45257W        W13675  12.181  20.754  13.481
45258W        W13676  10.777   9.788  10.920
45259W        W13677  34.612   2.380   4.131
45260W        W13678  26.628  17.723  10.616
45261W        W13679  21.168   5.304   3.792
45262W        W13680   4.937  30.065  11.420
45263W        W13681  28.935   1.924  13.434
45264W        W13682  37.840   9.157  13.885
45265W        W13683  22.668  35.582   4.775
45266W        W13684  10.332   3.716  11.082
45267W        W13685  40.480  36.885  14.835
45268W        W13686  15.283  13.709   1.227
45269W        W13687  40.470   5.922  11.999
45270W        W13688  17.674   1.324  12.881
45271W        W13689  29.082  30.574  12.504
45272W        W13690   5.894  29.941   2.402
45273W        W13691  24.204  30.003  12.469
45274W        W13692  39.022   4.808   3.364
45275W        W13693  26.659   4.211  14.778
45276W        W13694  41.921  38.031   0.367
45277W        W13695  37.456  15.601  14.029
45278W        W13696  13.235  34.076  12.545
45279W        W13697   0.975   8.854  14.784
45280W        W13698  43.355  12.339  10.564
45281W        W13699  34.052   0.456   4.728
45282W        W13700  13.111  28.962   1.224
45283W        W13701  35.518  37.398   1.795
45284W        W13702  23.192  37.447  12.986
45285W        W13703  10.832  17.240   0.872
45286W        W13704  23.987  39.034  14.275
45287W        W13705  31.570  10.211  12.883
45288W        W13706  13.128  18.548  12.029
45289W        W13707  13.802  33.114  13.901
45290W        W13708  29.006  34.925   0.358
45291W        W13709  43.873  43.295   0.927
45292W        W13710  19.072  24.230   5.254
45293W        W13711   8.853  44.864   0.820
45294W        W13712   1.931  23.065   2.230
45295W        W13713  24.706   4.894  13.041
45296W        W13714  29.530   9.323   1.705
45297W        W13715   8.190  42.523   4.342
45298W        W13716  29.430  16.722  12.011
45299W        W13717  34.949  23.130  12.461
45300W        W13718  33.585   5.864   4.626
45301W        W13719  17.152  37.469  13.994
45302W        W13720  18.632  22.667   1.242
45303W        W13721  38.473   1.422   1.451
45304W        W13722  13.625  16.283   4.130
45305W        W13723   9.159   1.390   1.750
45306W        W13724  42.992  21.248  14.991
45307W        W13725  32.116  11.651  13.950
45308W        W13726  14.298  27.031  14.436
45309W        W13727  30.605  34.090   0.430
45310W        W13728  39.484  17.235  13.867
45311W        W13729  40.315  33.958  13.935
45312W        W13730  36.569  22.545   2.250
45313W        W13731  22.214  44.784  12.974
45314W        W13732   3.354  25.630   4.235
45315W        W13733  31.911  42.777   0.347
45316W        W13734  10.655  11.196  11.110
45317W        W13735  19.063  23.692   0.802
45318W        W13736  29.052  18.724   2.393
45319W        W13737  44.773  38.028   4.689
45320W        W13738  20.115   0.923   4.131
45321W        W13739  29.531  44.364   3.286
45322W        W13740  14.339  40.374  14.435
45323W        W13741  42.348  42.818   0.295
45324W        W13742   4.936  10.731   1.332
45325W        W13743  37.358  33.009   2.413
45326W        W13744   1.384  16.098  13.983
45327W        W13745  10.259  41.397  12.340
45328W        W13746   9.727   0.965  10.925
45329W        W13747  38.545  11.324  11.973
45330W        W13748  36.881  32.134  12.972
45331W        W13749  36.075  43.387   3.662
45332W        W13750  11.373  21.164   4.718
45333W        W13751  27.197  26.605   0.735
45334W        W13752  28.479  15.205  14.469
45335W        W13753  33.104  35.046  10.471
45336W        W13754  27.498  28.619  11.412
45337W        W13755  17.660  27.154  13.853
45338W        W13756  36.487  18.705   3.212
45339W        W13757   7.207  21.234  11.456
45340W        W13758  40.528  16.681  13.919
45341W        W13759  25.710  30.466  12.575
45342W        W13760  35.109  23.036   4.794
45343W        W13761   1.801   9.700  11.863
45344W        W13762  24.023  22.134   0.914
45345W        W13763   5.215  43.879  12.534
45346W        W13764   4.344   9.814   4.631
45347W        W13765   0.972  38.978   0.376
45348W        W13766   2.858  15.133  13.428
45349W        W13767  29.519  38.902  10.153
45350W        W13768  28.936  17.139  10.964
45351W        W13769   0.980   3.314  13.346
45352W        W13770  22.661  37.559  12.899
45353W        W13771  30.052   2.410  13.396
45354W        W13772  12.352  34.986   4.323
45355W        W13773   6.217  16.621  12.921
45356W        W13774  44.998  27.949  12.841
45357W        W13775  44.475  29.600  11.530
45358W        W13776  10.814  31.404   4.691
45359W        W13777   9.246  16.678   1.894
45360W        W13778  21.122  34.981  12.834
45361W        W13779  24.996  37.537   1.753
45362W        W13780  37.397  25.613  10.892
45363W        W13781  41.831  20.727   4.135
45364W        W13782  36.902  16.579   2.357
45365W        W13783  40.008  41.407   0.820
45366W        W13784  12.181  16.698  13.487
45367W        W13785  10.756  41.939   1.920
45368W        W13786  19.553  25.701   1.710
45369W        W13787  30.564  32.512  10.581
45370W        W13788  21.090  44.372   1.358
45371W        W13789   2.447  32.911   0.934
45372W        W13790  18.108   7.386  10.915
45373W        W13791  39.897   9.664   4.147
45374W        W13792  34.475  12.220  14.013
45375W        W13793  28.964  43.777   4.280
45376W        W13794  20.241  14.190   0.364
45377W        W13795  23.579  20.754   2.726
45378W        W13796   8.738   9.355   1.216
45379W        W13797  23.107  38.928   1.417
45380W        W13798  35.467   2.830   3.371
45381W        W13799  11.264  43.772   1.376
45382W        W13800  28.117  43.002   9.974
45383W        W13801  24.225  42.826  13.537
45384W        W13802  30.155  39.880   1.763
45385W        W13803  13.152   4.929   1.835
45386W        W13804  23.081  28.642  12.403
45387W        W13805  12.205  37.921   0.326
45388W        W13806  40.836   4.442   2.746
45389W        W13807  10.788  23.558  12.927
45390W        W13808  32.915  26.568   4.174
45391W        W13809  26.093  19.078  13.446
45392W        W13810  26.961  31.020   3.690
45393W        W13811  37.897  30.507  13.531
45394W        W13812  38.429  18.562  13.810
45395W        W13813  10.315   7.804   3.726
45396W        W13814   3.224  10.357  10.576
45397W        W13815  12.642  21.554  12.907
45398W        W13816  35.995  23.203  10.635
45399W        W13817  33.882  29.132  11.437
45400W        W13818  28.572  43.930   3.661
45401W        W13819  34.917  10.849  14.889
45402W        W13820  24.674  11.168   3.661
45403W        W13821  10.778  33.009  14.860
45404W        W13822  42.518  33.575   1.426
45405W        W13823  29.582  27.186  12.544
45406W        W13824  43.875  39.356  10.624
45407W        W13825  19.748  21.550  14.504
45408W        W13826  25.522  26.125   1.844
45409W        W13827  34.007  30.101   1.358
45410W        W13828  28.481  40.880  11.019
45411W        W13829  39.535  21.688  13.352
45412W        W13830   7.273  30.504   4.349
45413W        W13831   5.774  17.092   0.285
45414W        W13832  11.192  24.541   0.879
45415W        W13833  22.623  22.162   9.975
45416W        W13834  25.527  38.553   4.158
45417W        W13835  24.587   2.321  12.498
45418W        W13836  41.836  12.139  10.629
45419W        W13837  38.021  16.074  14.912
45420W        W13838  19.198   7.227   2.184
45421W        W13839  15.296  26.544  12.968
45422W        W13840  28.565   2.405  14.365
45423W        W13841  23.549  42.453  12.361
45424W        W13842  43.397  41.529   2.376
45425W        W13843   3.454   6.309  14.892
45426W        W13844   4.291  27.960  12.883
45427W        W13845  28.954  38.041   2.409
45428W        W13846   1.466  10.284   0.944
45429W        W13847   4.779   1.816  14.902
45430W        W13848  44.348  41.956  13.379
45431W        W13849  20.647  24.046  12.931
45432W        W13850  33.621  27.562  10.517
45433W        W13851  20.592   0.953   2.210
45434W        W13852  44.914  38.824  11.896
45435W        W13853  17.742  41.882  12.076
45436W        W13854   5.928  36.064   2.313
45437W        W13855  25.489  34.612   3.361
45438W        W13856  30.604  25.062  13.400
45439W        W13857  43.373  31.500   2.759
45440W        W13858  10.319  34.454   0.818
45441W        W13859   5.798  15.657  12.850
45442W        W13860  29.931   2.321   1.821
45443W        W13861  32.010  31.471  10.019
45444W        W13862   6.260  29.555  13.432
45445W        W13863   8.899  10.226  13.907
45446W        W13864  10.267  28.034   0.391
45447W        W13865  40.476   2.357  11.428
45448W        W13866  38.066  23.559  11.080
45449W        W13867  31.554  34.993   0.277
45450W        W13868   1.412  31.996  13.409
45451W        W13869   0.818   7.403  14.944
45452W        W13870  40.012  30.438   1.397
45453W        W13871  38.967   5.716  12.878
45454W        W13872  22.995   1.815  12.389
45455W        W13873   4.288  28.105  11.997
45456W        W13874   5.316   3.837   4.833
45457W        W13875  13.272  19.074  11.079
45458W        W13876  24.576  38.824  10.547
45459W        W13877  32.032  10.751  11.864
45460W        W13878  19.202   7.262  12.928
45461W        W13879  25.630   5.837   3.662
45462W        W13880  12.674  26.102   4.353
45463W        W13881  25.968  33.517   3.289
45464W        W13882  37.475  17.760  11.920
45465W        W13883  17.230  14.172  11.609
45466W        W13884  24.634  27.963   4.338
45467W        W13885  37.521  40.919   1.416
45468W        W13886  44.462  17.656  14.395
45469W        W13887  41.522  32.909  11.970
45470W        W13888  32.539  19.243  11.393
45471W        W13889   3.853  14.311   4.162
45472W        W13890  32.601  19.599  12.441
45473W        W13891  27.164  22.617  11.508
45474W        W13892  25.060  30.654   3.233
45475W        W13893  31.932  41.309   1.838
45476W        W13894  29.997  37.970   3.156
45477W        W13895  32.577  13.261   2.260
45478W        W13896  33.043  16.163  12.530
45479W        W13897  18.558  29.632  13.440
45480W        W13898  24.571  23.163   4.628
45481W        W13899  33.044   7.416   4.274
45482W        W13900  15.705   9.237  10.086
45483W        W13901  12.301  43.884  12.530
45484W        W13902   1.288   5.256   3.237
45485W        W13903  30.605  12.665  12.412
45486W        W13904  23.162  42.521  11.880
45487W        W13905  38.340  10.727   0.758
45488W        W13906  32.999  30.945  13.054
45489W        W13907  37.559  11.224   1.817
45490W        W13908  18.276  24.665   4.179
45491W        W13909  10.254  15.085  12.012
45492W        W13910  21.604  30.001  14.426
45493W        W13911  19.045  35.077  10.891
45494W        W13912  34.422  41.517  14.341
45495W        W13913   6.295   7.409   0.802
45496W        W13914  31.115  29.151   4.746
45497W        W13915  41.830  38.362  13.817
45498W        W13916   3.771  23.724   2.775
45499W        W13917  15.662  21.556   3.821
45500W        W13918  20.756  10.824  12.021
45501W        W13919  32.566  34.484  13.528
45502W        W13920  42.285  11.208  14.884
45503W        W13921  17.616  29.445   0.472
45504W        W13922  15.133  29.045  12.841
45505W        W13923  35.367  35.402   0.827
45506W        W13924  17.729  16.306  13.506
45507W        W13925   5.802  32.940   0.755
45508W        W13926  27.036   1.803  14.909
45509W        W13927  26.509  14.650   4.765
45510W        W13928  26.176  28.478   3.371
45511W        W13929  39.323  13.705  11.035
45512W        W13930   6.898  17.737  14.301
45513W        W13931  11.209  17.707   0.739
45514W        W13932  19.205  41.004  13.975
45515W        W13933  14.326  15.168  14.415
45516W        W13934   8.160  37.533   1.891
45517W        W13935  41.370  41.993  12.513
45518W        W13936  33.071  26.694   3.731
45519W        W13937  33.478  31.458  11.563
45520W        W13938   7.675  34.442  11.012
45521W        W13939   4.271  13.328   0.264
45522W        W13940  13.105   8.303  13.329
45523W        W13941  30.513  11.195   1.836
45524W        W13942  44.961  41.877   2.670
45525W        W13943  18.619   1.381   0.421
45526W        W13944  13.622  26.685  14.479
45527W        W13945  28.106  44.267  10.560
45528W        W13946  13.349  11.698   2.663
45529W        W13947  32.954   8.245   2.682
45530W        W13948  32.969  31.030  11.438
45531W        W13949  14.749  32.465   1.866
45532W        W13950   6.248   6.832   2.193
45533W        W13951  41.356  37.427  11.974
45534W        W13952  22.193  14.669  12.415
45535W        W13953   1.396   3.266   1.396
45536W        W13954  38.342  38.329   1.289
45537W        W13955  21.223  16.072   0.928
45538W        W13956  37.410  14.170  10.915
45539W        W13957   3.273  35.015   1.294
45540W        W13958  13.162  43.017   4.708
45541W        W13959   6.246  13.275  11.936
45542W        W13960  23.667  43.415   2.295
45543W        W13961  15.205  36.586  13.535
45544W        W13962  43.426  25.692  14.502
45545W        W13963  19.769   6.723  13.442
45546W        W13964  38.407  33.399   0.345
45547W        W13965  20.651   1.314  12.974
45548W        W13966   7.812  29.476   4.148
45549W        W13967  10.641  32.988  12.418
45550W        W13968   5.693  10.748   2.398
45551W        W13969  23.704  36.437   4.227
45552W        W13970  12.318  27.485  12.985
45553W        W13971  17.772  12.651  10.123
45554W        W13972  34.446  12.253  10.901
45555W        W13973  29.636   7.806  14.934
45556W        W13974  24.667  15.755   2.317
45557W        W13975  29.995   7.175  13.537
45558W        W13976  12.697  39.872  14.373
45559W        W13977  36.401   5.835   4.235
45560W        W13978  36.901  23.632   2.674
45561W        W13979  44.502  16.635   1.267
45562W        W13980   6.679   9.764   0.362
45563W        W13981  43.832  36.847  14.010
45564W        W13982  23.226  28.681   3.849
45565W        W13983   1.448   4.379  12.342
45566W        W13984  15.194  13.836   0.306
45567W        W13985  42.900   4.778  12.906
45568W        W13986   6.231  13.168   0.451
45569W        W13987  42.318  24.074   1.859
45570W        W13988  33.619  43.469  10.965
45571W        W13989  10.165   9.265  14.790
45572W        W13990  17.656  12.161  14.933
45573W        W13991  25.216  26.984   4.121
45574W        W13992   7.259  15.735  10.535
45575W        W13993  11.813   3.392  14.949
45576W        W13994  20.701  16.774  12.353
45577W        W13995  35.428  24.183  13.412
45578W        W13996  26.980   0.372   1.699
45579W        W13997  43.331  28.681   0.964
45580W        W13998  17.737  14.835   0.919
45581W        W13999  13.723  29.088  13.468
45582W        W14000  14.594  34.053  13.906
45583W        W14001  36.047  34.045  11.900
45584W        W14002  40.810  44.297   3.382
45585W        W14003  34.595  18.639   4.750
45586W        W14004  33.968  26.627  13.817
45587W        W14005  34.967  33.989   2.317
45588W        W14006  23.185  16.782   3.292
45589W        W14007   6.357  29.041   3.645
45590W        W14008  24.080  44.780  10.607
45591W        W14009  43.326   3.451   4.171
45592W        W14010   8.814  42.410  12.858
45593W        W14011   2.446  18.767  13.365
45594W        W14012  27.106  39.983   2.280
45595W        W14013   8.274  24.073   1.794
45596W        W14014   9.656  16.799  11.121
45597W        W14015   4.350  33.966   4.298
45598W        W14016   9.245  15.614   2.802
45599W        W14017  11.664  34.585  11.428
45600W        W14018  14.286  16.105  10.496
45601W        W14019  29.632  41.424  13.012
45602W        W14020  35.066  42.811   5.245
45603W        W14021  25.587  15.271  11.991
45604W        W14022  33.585  44.900  14.021
45605W        W14023   7.757  27.634   4.336
45606W        W14024  23.590  39.325   0.430
45607W        W14025   9.364  19.764   0.841
45608W        W14026  10.726  17.288  14.759
45609W        W14027  40.055   6.920  10.623
45610W        W14028  30.459  39.433  14.933
45611W        W14029  19.727  29.474  11.097
45612W        W14030   1.357  37.964  12.452
45613W        W14031  40.948  42.426   0.261
45614W        W14032  25.202  22.684  11.060
45615W        W14033  32.489  36.970   4.639
45616W        W14034   0.417  35.376  11.572
45617W        W14035  40.823  26.168   4.114
45618W        W14036  22.999  31.975   4.119
45619W        W14037  12.755  22.556   0.355
45620W        W14038   2.434  37.025   1.381
45621W        W14039  44.501  34.372   0.423
45622W        W14040   5.778  10.672   4.285
45623W        W14041  43.914  26.200   2.280
45624W        W14042  34.108  42.457  11.057
45625W        W14043  15.306  20.626  10.409
45626W        W14044  12.619  30.974  12.375
45627W        W14045  20.591  15.605  12.066
45628W        W14046   4.748  30.102   3.708
45629W        W14047  39.964   2.917  12.942
45630W        W14048  23.523  21.082   1.232
45631W        W14049  25.569  36.959   1.769
45632W        W14050  40.472  32.903   4.297
45633W        W14051   7.786  19.606  13.452
45634W        W14052   8.282  43.349  12.498
45635W        W14053  19.118   9.821  10.445
45636W        W14054   5.351  16.220  10.900
45637W        W14055  38.565  28.061   0.395
45638W        W14056  14.319  20.757   2.810
45639W        W14057  33.957   5.427   0.283
45640W        W14058  33.078  37.362  12.407
45641W        W14059  29.450  28.454   1.226
45642W        W14060  42.513  20.599   2.893
45643W        W14061  22.602   0.832  12.515
45644W        W14062  36.503  36.435  13.332
45645W        W14063  18.292   5.374   1.350
45646W        W14064  41.790  34.109  12.050
45647W        W14065  41.455   4.214   0.303
45648W        W14066  38.499  29.536  10.499
45649W        W14067  13.691  23.695  10.935
45650W        W14068  18.747  35.029   1.745
45651W        W14069  41.405  34.961  11.032
45652W        W14070  32.970  28.491  13.049
45653W        W14071   2.440  14.130   0.821
45654W        W14072  12.232   3.309   2.837
45655W        W14073  17.651  12.222   9.656
45656W        W14074  15.726   3.872  13.997
45657W        W14075   6.737  44.845  12.930
45658W        W14076  26.582  34.058   0.959
45659W        W14077  43.983  42.473  14.020
45660W        W14078   0.843   0.441  11.124
45661W        W14079  38.873   3.850   0.286
45662W        W14080   4.887  23.647   3.330
45663W        W14081  35.935  14.601  12.856
45664W        W14082  34.573  29.534   0.773
45665W        W14083   7.216  24.999   4.708
45666W        W14084  33.111  18.689   3.332
45667W        W14085  44.836  18.195   2.781
45668W        W14086  29.443   6.910   1.267
45669W        W14087  23.200  38.557   1.757
45670W        W14088   4.706  36.010  14.341
45671W        W14089  22.653  38.008  13.510
45672W        W14090   3.935  21.711  10.038
45673W        W14091  23.203   9.326   1.270
45674W        W14092  32.073  28.137  14.779
45675W        W14093  37.451  42.478   4.165
45676W        W14094  35.369  14.287  13.840
45677W        W14095  27.099  18.169   4.257
45678W        W14096  20.755  11.250  10.574
45679W        W14097  38.065  42.303   3.673
45680W        W14098  34.973  31.124   1.451
45681W        W14099  39.356   7.874   3.325
45682W        W14100  29.054  25.506  10.433
45683W        W14101  13.317  29.068   2.824
45684W        W14102   4.350  14.222   2.661
45685W        W14103  10.633  21.035   2.776
45686W        W14104  43.860   2.788   4.321
45687W        W14105  29.634  37.535   0.787
45688W        W14106  10.318  32.605  10.615
45689W        W14107  40.804   6.236  12.096
45690W        W14108  22.058  30.620  11.576
45691W        W14109   9.807  35.600  10.431
45692W        W14110  11.746  21.059   4.616
45693W        W14111   2.432  17.720  13.478
45694W        W14112  13.283  37.557   3.825
45695W        W14113  43.859  13.675   2.335
45696W        W14114  22.211  17.725  13.827
45697W        W14115  12.284  17.624   3.293
45698W        W14116   7.670  41.010  14.887
45699W        W14117   8.894   3.937   2.849
45700W        W14118  19.771  18.764   3.643
45701W        W14119  21.032  15.695  14.486
45702W        W14120  30.566  28.077  13.496
45703W        W14121   0.778  12.246   2.829
45704W        W14122  28.651  40.414   1.745
45705W        W14123  30.119   3.215  10.923
45706W        W14124  42.438   4.807   3.778
45707W        W14125  14.097  12.346  10.495
45708W        W14126  22.693  19.560   5.161
45709W        W14127   9.693  24.546  14.820
45710W        W14128  41.906  32.140  11.077
45711W        W14129  40.380   9.805   0.316
45712W        W14130  19.066  32.472   2.902
45713W        W14131  41.323  21.219   0.901
45714W        W14132  24.577  32.067  13.915
45715W        W14133  38.422   9.266  10.468
45716W        W14134   4.756  33.531  10.609
45717W        W14135  11.130  12.289  14.504
45718W        W14136  27.099   4.781   0.415
45719W        W14137   8.304   6.838   3.337
45720W        W14138  37.906  20.162  10.554
45721W        W14139  40.964  22.020   4.835
45722W        W14140  36.398  35.534  12.558
45723W        W14141  13.275   1.278   1.451
45724W        W14142  21.105  15.687  11.400
45725W        W14143   2.426  41.974  11.501
45726W        W14144  20.697  20.075   2.213
45727W        W14145  39.402  12.779  12.899
45728W        W14146  25.694  34.547  14.500
45729W        W14147  36.843  18.774   4.717
45730W        W14148  38.851   4.762  11.436
45731W        W14149  23.731  12.265  14.951
45732W        W14150  25.149  30.955  10.991
45733W        W14151  11.241   4.721  14.027
45734W        W14152  14.756  32.504  11.930
45735W        W14153  37.871  22.011  13.315
45736W        W14154  24.702   4.774  13.800
45737W        W14155  23.574   3.875   3.778
45738W        W14156   7.833  15.222  13.537
45739W        W14157  24.075  23.649   0.758
45740W        W14158  32.999  16.742   3.233
45741W        W14159  17.087   5.908   2.303
45742W        W14160   5.715  22.638  12.860
45743W        W14161   7.220  14.607  14.809
45744W        W14162   6.203  27.482   2.667
45745W        W14163  14.591  19.283  14.902
45746W        W14164  44.271  40.427   5.149
45747W        W14165  35.530  10.656  12.499
45748W        W14166  36.574  41.787   0.354
45749W        W14167  16.282  25.704  11.456
45750W        W14168  37.482  42.981   0.361
45751W        W14169  44.981  30.444  12.029
45752W        W14170  22.204  36.042  13.326
45753W        W14171  37.838  14.116   0.882
45754W        W14172  43.460  18.134   0.951
45755W        W14173   7.234  16.245   4.788
45756W        W14174   7.213  29.539  13.488
45757W        W14175  14.624  31.414   3.319
45758W        W14176  35.015  34.611   1.805
45759W        W14177  26.623  30.475   0.310
45760W        W14178  23.113  27.547   2.763
45761W        W14179  31.945  11.733   3.726
45762W        W14180  12.270   9.210   0.416
45763W        W14181  12.353   6.700  14.488
45764W        W14182   2.472   3.427  14.026
45765W        W14183  35.600  36.373  14.299
45766W        W14184  18.184   5.404   2.285
45767W        W14185   3.293   1.369   2.282
45768W        W14186  20.617  11.658  14.946
45769W        W14187  31.404  17.199   2.853
45770W        W14188  39.504   1.945   2.241
45771W        W14189  44.391  11.664  10.989
45772W        W14190  25.523  33.054   2.412
45773W        W14191   2.917  23.532  12.988
45774W        W14192  26.488  40.343   2.792
45775W        W14193  13.654  19.273   0.273
45776W        W14194  33.401   8.238  10.497
45777W        W14195  36.472  17.175  11.955
45778W        W14196   2.770  30.141   0.258
45779W        W14197  17.263  25.532  10.944
45780W        W14198  19.769  41.812   3.176
45781W        W14199  26.953  17.164  12.978
45782W        W14200   3.389  14.129  11.932
45783W        W14201   5.771   1.281  12.885
45784W        W14202  44.319   1.916  11.925
45785W        W14203  10.781  36.982  13.842
45786W        W14204  39.043  34.961  14.928
45787W        W14205  19.050   9.275  14.823
45788W        W14206  25.594  35.567  11.909
45789W        W14207  32.408  41.487   0.387
45790W        W14208  13.796  40.822   4.621
45791W        W14209  44.377  38.850  14.374
45792W        W14210  13.738  28.588   2.700
45793W        W14211  19.234  19.059  13.976
45794W        W14212  17.191  19.173   4.196
45795W        W14213   8.215  21.065   3.677
45796W        W14214  39.882  44.350   2.369
45797W        W14215   9.699  34.996  12.404
45798W        W14216  28.986  26.194   3.199
45799W        W14217  44.303   3.385  11.584
45800W        W14218  17.568  26.149  13.799
45801W        W14219  40.463  20.627  14.329
45802W        W14220   1.394   1.284  13.449
45803W        W14221  29.475  41.882  11.021
45804W        W14222  43.790  27.044   3.730
45805W        W14223  33.523  13.690   4.686
45806W        W14224  38.929  16.158   1.450
45807W        W14225  13.728  38.042   2.700
45808W        W14226   3.324  14.215   1.233
45809W        W14227  19.688  17.066   2.747
45810W        W14228   0.779  30.458   2.688
45811W        W14229  34.394  29.942  11.599
45812W        W14230   6.425  26.189  11.386
45813W        W14231   7.883  17.752   0.469
45814W        W14232  21.716  13.791  10.903
45815W        W14233  16.612  23.077   4.288
45816W        W14234  36.050   5.741   2.855
45817W        W14235  15.630   9.869   2.825
45818W        W14236  40.532   0.838  13.363
45819W        W14237  12.145   2.427   1.310
45820W        W14238  27.598   0.462   3.338
45821W        W14239  18.550  38.432  11.124
45822W        W14240  44.424   1.742  12.547
45823W        W14241  20.035  28.580  14.763
45824W        W14242  14.670  23.024   0.761
45825W        W14243  38.856  10.205  14.428
45826W        W14244  26.541  19.759  12.574
45827W        W14245  37.569  11.726   4.249
45828W        W14246  10.782   0.817   3.797
45829W        W14247   0.281   1.433  13.837
45830W        W14248  19.594  13.273   0.915
45831W        W14249  17.244  18.570   2.364
45832W        W14250  19.193  31.127  13.810
45833W        W14251  21.697  22.185  13.360
45834W        W14252  32.585  42.421  10.496
45835W        W14253   9.253  10.192   2.392
45836W        W14254  18.176  32.073   4.802
45837W        W14255  10.646  18.606  12.963
45838W        W14256  15.153  16.219   3.681
45839W        W14257  41.971  44.940   4.599
45840W        W14258  38.430  35.389   1.277
45841W        W14259  44.382   0.887  14.900
45842W        W14260  17.231   5.400  11.879
45843W        W14261  37.050  27.607  12.990
45844W        W14262  35.524   7.759   4.354
45845W        W14263  40.819  32.625  11.556
45846W        W14264   0.460  25.594  11.116
45847W        W14265  38.862  18.255  10.923
45848W        W14266  35.386  16.795   4.626
45849W        W14267  36.052  39.434   0.889
45850W        W14268  20.713  16.576  12.043
45851W        W14269  28.471   2.314   0.965
45852W        W14270  44.440   2.795  10.502
45853W        W14271  19.627  40.458   3.242
45854W        W14272  32.014  15.777   2.258
45855W        W14273  41.370   1.288   2.736
45856W        W14274  14.630  44.904   4.215
45857W        W14275  35.463  22.197  12.455
45858W        W14276   5.417  10.171  12.843
45859W        W14277   7.844   7.407  13.043
45860W        W14278  29.109  15.281  12.069
45861W        W14279  36.524  19.050   2.722
45862W        W14280  43.469  23.603   9.472
45863W        W14281  14.751   0.405   3.147
45864W        W14282  43.279  20.233   1.420
45865W        W14283  27.976   5.824  14.286
45866W        W14284   3.831  25.149   0.325
45867W        W14285  19.173  38.376  13.861
45868W        W14286  41.911  32.929   0.780
45869W        W14287  11.816   9.856  10.544
45870W        W14288  28.954  26.100   1.788
45871W        W14289  33.041  17.563   3.347
45872W        W14290  19.591  38.943   1.363
45873W        W14291  18.250  18.153   3.802
45874W        W14292  39.038   3.424   5.248
45875W        W14293  18.126  35.950   4.192
45876W        W14294  35.419  32.102  10.105
45877W        W14295  36.531  26.050  13.896
45878W        W14296   1.859  38.488   2.737
45879W        W14297  29.930  28.126   1.790
45880W        W14298  19.568  39.327  12.521
45881W        W14299  43.952   9.698   3.176
45882W        W14300   2.819  13.804   2.897
45883W        W14301  34.111  21.534   1.394
45884W        W14302  34.968   0.378   5.139
45885W        W14303  30.138  18.662   3.677
45886W        W14304  29.540  31.602   3.176
45887W        W14305   8.680  14.277   2.225
45888W        W14306  19.641  18.109  12.954
45889W        W14307  37.881  25.193  10.933
45890W        W14308  23.078  16.712  12.089
45891W        W14309  27.461  10.822  13.055
45892W        W14310   3.734  18.686   0.298
45893W        W14311  42.883   7.817   5.089
45894W        W14312  40.935  23.195  12.830
45895W        W14313  38.503  29.969   1.272
45896W        W14314  15.717  24.227  13.045
45897W        W14315  39.429  39.902   4.194
45898W        W14316  36.867   2.285  12.516
45899W        W14317  38.391  38.071   0.956
45900W        W14318  28.556  28.572  14.000
45901W        W14319  34.423  36.868  13.426
45902W        W14320  25.991  21.107   3.225
45903W        W14321  39.351  27.654   2.212
45904W        W14322   9.816   4.294  14.467
45905W        W14323  41.820   4.794   4.800
45906W        W14324  25.492  25.576   4.631
45907W        W14325  31.932  18.729  11.580
45908W        W14326  39.025  42.500   1.263
45909W        W14327  41.468   9.694   4.701
45910W        W14328  39.409  13.264  11.552
45911W        W14329  26.573  28.048  11.996
45912W        W14330  37.391  38.474   1.855
45913W        W14331   5.264  28.984   0.946
45914W        W14332  38.063  42.905  11.389
45915W        W14333  32.620  41.493  13.797
45916W        W14334   4.829  44.806   0.843
45917W        W14335   7.327  21.239  13.914
45918W        W14336   2.339  21.590   2.845
45919W        W14337   3.782  38.894  10.467
45920W        W14338   6.680  40.326   3.333
45921W        W14339  44.465  14.225   5.207
45922W        W14340  26.159  19.673  14.360
45923W        W14341  21.544  41.796   2.209
45924W        W14342  17.282  44.366   4.825
45925W        W14343   6.216  11.206   4.821
45926W        W14344  28.153  39.958   3.270
45927W        W14345  21.647  14.191  10.448
45928W        W14346   2.727   7.714   4.657
45929W        W14347  35.880  41.488  14.292
45930W        W14348  34.607  10.272   3.699
45931W        W14349  37.039  26.534  12.874
45932W        W14350   9.753  33.540  11.565
45933W        W14351  25.143  17.756   3.330
45934W        W14352   8.300   4.857  14.840
45935W        W14353  16.239   8.219  11.103
45936W        W14354  13.264  16.568   4.323
45937W        W14355  31.548  23.071   3.717
45938W        W14356  22.692  15.792   2.320
45939W        W14357   4.747  28.133  14.954
45940W        W14358  27.599   5.789  13.481
45941W        W14359  18.229  32.941   0.283
45942W        W14360  14.668   5.909   0.867
45943W        W14361  20.243   1.792   0.359
45944W        W14362   8.265  33.613   0.416
45945W        W14363  37.397  12.745   1.267
45946W        W14364  28.999  12.221   2.768
45947W        W14365  14.166  39.431   4.290
45948W        W14366  15.659  31.990   1.699
45949W        W14367  19.177  32.897   2.852
45950W        W14368  21.716  39.363   1.713
45951W        W14369   6.271  22.726   1.757
45952W        W14370  13.293  43.336   3.353
45953W        W14371  31.125  17.198  14.381
45954W        W14372  44.470  15.823   1.889
45955W        W14373  28.017   8.269   4.653
45956W        W14374  19.570  31.572   0.346
45957W        W14375  30.962  12.220   2.684
45958W        W14376  34.975  34.497   9.936
45959W        W14377  26.099  31.020  13.386
45960W        W14378  16.634  44.443  10.914
45961W        W14379  36.982  41.792   2.799
45962W        W14380  38.052  11.154   3.226
45963W        W14381  23.131  36.449   3.767
45964W        W14382   3.756  16.151  14.354
45965W        W14383  25.538   4.215   1.777
45966W        W14384  44.412  35.479   3.801
45967W        W14385  30.496   0.418  13.005
45968W        W14386  17.635   7.385  11.499
45969W        W14387  13.705  14.239   1.367
45970W        W14388  36.859  29.514  11.864
45971W        W14389  41.961  16.090   2.802
45972W        W14390  18.204  18.235  12.500
45973W        W14391  27.642  10.781   0.462
45974W        W14392  44.343  30.114   4.335
45975W        W14393   7.827   2.880   3.180
45976W        W14394  35.537  33.926  12.914
45977W        W14395  34.986   8.165   3.825
45978W        W14396   1.828  33.417  12.908
45979W        W14397   5.303   4.304  10.419
45980W        W14398   3.348   0.421  13.911
45981W        W14399  11.768  38.032   0.926
45982W        W14400  36.870  33.906  11.391
45983W        W14401  40.457  35.906   4.306
45984W        W14402  32.043  12.205  11.078
45985W        W14403   6.356   1.404   3.674
45986W        W14404  35.881  41.517  11.970
45987W        W14405  21.129  38.448  14.833
45988W        W14406   1.306  42.522   2.224
45989W        W14407  44.418  39.906  14.286
45990W        W14408   2.908  28.528  13.936
45991W        W14409  31.427  18.121  10.506
45992W        W14410  36.557  41.405  14.788
45993W        W14411  27.565  31.978   4.818
45994W        W14412  41.900  33.555   2.812
45995W        W14413  31.503   6.370  13.464
45996W        W14414  34.868  23.165   1.793
45997W        W14415  41.911  44.382  13.495
45998W        W14416  19.562   9.209  14.799
45999W        W14417  39.554  27.076   2.333
46000W        W14418   8.343  42.422   1.715
46001W        W14419  20.700   0.448  10.905
46002W        W14420   7.258   1.329   1.287
46003W        W14421  29.573  18.130  12.929
46004W        W14422  13.239   5.803  11.858
46005W        W14423  29.584  41.029  11.956
46006W        W14424  23.671  40.868   2.317
46007W        W14425  13.230  20.231   1.357
46008W        W14426   5.933  36.509   4.268
46009W        W14427  36.864  41.837  13.847
46010W        W14428  17.728  10.799   3.684
46011W        W14429  19.578  25.583  10.552
46012W        W14430  28.630   7.340   3.736
46013W        W14431  43.832  15.815   1.897
46014W        W14432  25.672  16.707   2.389
46015W        W14433  40.505  23.722  13.955
46016W        W14434   4.704   8.273   1.237
46017W        W14435  43.892  25.199   3.851
46018W        W14436   2.227  26.196   1.713
46019W        W14437   9.648  42.969   0.267
46020W        W14438  18.073   8.676  11.109
46021W        W14439  26.500   5.819   4.807
46022W        W14440  40.412  38.418   2.775
46023W        W14441  19.662  29.160  14.477
46024W        W14442  29.943  33.099  11.403
46025W        W14443  31.107  43.977  13.862
46026W        W14444   1.240  44.938  11.874
46027W        W14445   4.374  25.147   1.890
46028W        W14446  22.630  15.752   1.795
46029W        W14447  13.807  35.424   3.278
46030W        W14448  34.447  18.709  11.026
46031W        W14449  41.806  24.023   2.823
46032W        W14450  30.097  25.057   0.406
46033W        W14451  44.314  35.949   9.998
46034W        W14452  28.123  13.195  13.995
46035W        W14453  27.143  17.196   1.420
46036W        W14454  22.251  26.988   1.345
46037W        W14455  31.900  42.912  10.959
46038W        W14456  40.542   1.907   0.317
46039W        W14457  28.438  26.091   3.794
46040W        W14458  38.990   9.768  14.462
46041W        W14459  24.486  34.518  14.407
46042W        W14460  14.183  21.571  13.387
46043W        W14461  27.568  40.862  12.917
46044W        W14462  39.001  30.053   0.437
46045W        W14463  12.836  22.574   1.904
46046W        W14464   0.772   3.215   1.869
46047W        W14465  11.214  41.008  12.502
46048W        W14466  18.785  33.545  13.040
46049W        W14467  30.450  40.846  14.332
46050W        W14468  41.347  39.319  10.020
46051W        W14469   3.312  23.228  11.095
46052W        W14470  43.785  17.279   4.652
46053W        W14471  27.026   1.809  14.278
46054W        W14472  15.329  37.555   0.268
46055W        W14473  18.290  31.606   0.365
46056W        W14474  19.609  18.775  12.059
46057W        W14475  43.891  38.379   0.955
46058W        W14476  36.089  18.572  10.410
46059W        W14477   7.756   6.768  10.643
46060W        W14478  15.688  34.557  11.376
46061W        W14479  34.922  21.720   0.789
46062W        W14480   1.475  18.261  10.540
46063W        W14481  15.298  16.658  12.534
46064W        W14482  21.186  18.060   1.718
46065W        W14483  17.102   6.697   0.748
46066W        W14484  12.680  25.052   2.217
46067W        W14485  10.708  21.174  11.118
46068W        W14486  29.626   2.939  10.516
46069W        W14487  40.432  17.591  14.513
46070W        W14488  20.698  11.144  11.915
46071W        W14489   0.447   5.913  14.818
46072W        W14490  39.061  26.101  10.965
46073W        W14491  44.441  15.173   0.825
46074W        W14492   0.823  11.217   1.308
46075W        W14493  40.464   7.852  13.033
46076W        W14494   9.276   7.752  11.896
46077W        W14495  40.041  35.514  10.606
46078W        W14496   5.849  21.246   4.121
46079W        W14497   1.403  44.301   1.301
46080W        W14498  16.809   6.711  11.425
46081W        W14499  44.954  34.070   2.780
46082W        W14500  25.640  21.556   0.443
46083W        W14501  15.102  15.605   3.743
46084W        W14502   5.254  29.076   0.317
46085W        W14503   2.909  43.778  13.827
46086W        W14504  35.075  32.944   4.202
46087W        W14505   2.761  35.033  14.840
46088W        W14506   0.799  23.531   1.283
46089W        W14507  27.612  20.104  14.294
46090W        W14508   6.255  12.646   1.911
46091W        W14509  28.124  20.727  14.425
46092W        W14510  16.196  35.061  14.849
46093W        W14511   6.394  42.356   1.312
46094W        W14512  36.482  33.427   1.832
46095W        W14513  33.974  34.412   2.836
46096W        W14514  24.063  40.454   1.826
46097W        W14515   3.232  40.912  14.011
46098W        W14516  26.535  30.012  13.364
46099W        W14517  35.421   2.318  13.431
46100W        W14518  42.807  33.600   3.678
46101W        W14519  16.136  30.029   1.278
46102W        W14520   8.184   0.295  10.626
46103W        W14521  16.101  40.467   2.670
46104W        W14522  38.060   0.762  12.081
46105W        W14523  38.896   4.944  14.300
46106W        W14524   7.346  26.994   2.811
46107W        W14525   6.805  26.198   1.420
46108W        W14526  29.445   0.927   1.252
46109W        W14527  21.135   8.764  13.503
46110W        W14528  40.356  35.365   0.421
46111W        W14529   7.249  43.295   2.700
46112W        W14530  41.985  19.168  12.455
46113W        W14531   1.438  14.802   3.717
46114W        W14532  27.038  18.639   4.160
46115W        W14533  38.056  34.923   2.215
46116W        W14534  18.676  29.918   2.391
46117W        W14535   5.894  13.158  14.456
46118W        W14536   4.919  27.162   0.774
46119W        W14537   4.429   2.372   2.704
46120W        W14538   7.378  41.834  13.483
46121W        W14539  41.970  44.460  11.484
46122W        W14540  15.681   1.323   3.844
46123W        W14541  14.227  40.545  11.445
46124W        W14542   4.354  28.581  12.091
46125W        W14543  13.676  21.246   0.442
46126W        W14544  10.733  41.808   3.727
46127W        W14545   6.802  25.644  11.579
46128W        W14546  43.448   7.323   2.782
46129W        W14547  19.104  26.205   2.352
46130W        W14548  22.705  34.456   5.259
46131W        W14549  24.560   9.738   0.856
46132W        W14550  12.718   8.680  11.088
46133W        W14551  31.473  27.160   1.869
46134W        W14552  23.669  29.148  14.788
46135W        W14553   1.741  36.940  11.112
46136W        W14554  15.745  40.414   2.742
46137W        W14555  35.852  15.115   0.246
46138W        W14556  29.988  42.868  14.910
46139W        W14557   9.164  43.516   1.790
46140W        W14558  36.982  38.388  13.538
46141W        W14559  25.671  17.187  10.016
46142W        W14560  30.118   3.352   5.176
46143W        W14561   9.883  24.193  13.358
46144W        W14562   1.344   8.708  11.068
46145W        W14563  14.192  23.109  14.826
46146W        W14564   6.370   1.749  14.894
46147W        W14565  14.752  39.442   1.387
46148W        W14566  30.915  13.184  11.472
46149W        W14567  27.624   5.859   3.667
46150W        W14568   9.861  25.985  12.421
46151W        W14569  35.943  18.123   4.179
46152W        W14570  11.710  29.111  13.459
46153W        W14571   6.371  13.799   3.776
46154W        W14572  30.008   3.777   0.869
46155W        W14573  29.159  44.948   3.256
46156W        W14574  33.442  24.639  12.936
46157W        W14575   5.416   4.816  12.999
46158W        W14576  27.953  29.080  12.907
46159W        W14577  41.892  35.953  10.999
46160W        W14578  43.894  42.991  13.842
46161W        W14579   4.256  12.839   1.313
46162W        W14580  10.345  41.495   9.957
46163W        W14581  10.863  16.695   0.871
46164W        W14582  40.901  28.579  11.105
46165W        W14583  24.613  30.006   3.259
46166W        W14584  42.492  21.640  14.986
46167W        W14585  20.151  22.616  13.803
46168W        W14586  41.419   6.714   1.354
46169W        W14587  22.024  25.138   9.921
46170W        W14588  41.044  19.118   4.824
46171W        W14589  11.223  20.628  12.367
46172W        W14590   6.387  15.601  10.928
46173W        W14591  11.142  15.636  12.070
46174W        W14592   5.734  33.539   3.775
46175W        W14593   9.185  39.399   4.296
46176W        W14594   6.822  43.934  14.858
46177W        W14595  38.951  24.104  11.406
46178W        W14596  24.609  43.940   2.855
46179W        W14597  10.179  40.018  10.944
46180W        W14598  11.724   3.439   3.705
46181W        W14599   3.371  41.820   2.317
46182W        W14600  19.119   3.828  12.528
46183W        W14601  44.388   4.405   1.293
46184W        W14602  43.881   2.331  14.444
46185W        W14603  30.566  20.683  12.397
46186W        W14604  43.515  32.546  12.533
46187W        W14605  44.325  28.481   0.354
46188W        W14606   3.253  14.619   4.816
46189W        W14607   7.833  18.124   3.636
46190W        W14608  20.142  19.136  11.870
46191W        W14609  44.283  35.412  13.501
46192W        W14610  28.591  25.113   1.930
46193W        W14611   7.728  40.360   4.211
46194W        W14612  35.406  28.961   1.320
46195W        W14613  42.425  12.798  11.510
46196W        W14614  21.533  18.094  10.578
46197W        W14615  29.134  35.447  10.584
46198W        W14616  41.308  39.554   5.806
46199W        W14617  33.542  14.661   3.668
46200W        W14618  26.037  35.528   4.741
46201W        W14619   3.454  13.606  12.400
46202W        W14620  19.171   2.797  10.429
46203W        W14621   0.364  15.200   3.263
46204W        W14622   6.684  37.360  11.598
46205W        W14623  13.255  28.988  10.471
46206W        W14624   0.930   5.319   0.376
46207W        W14625  14.691  36.080   4.779
46208W        W14626  43.456   3.785   3.153
46209W        W14627  43.937  13.241  10.513
46210W        W14628  39.934  14.618   2.836
46211W        W14629  18.287  20.272  13.827
46212W        W14630  32.135  17.189   4.762
46213W        W14631  41.020  21.176  11.460
46214W        W14632   2.820   8.227   1.276
46215W        W14633   2.277  16.698   2.356
46216W        W14634   9.361  37.961   1.444
46217W        W14635   6.291   6.221   5.144
46218W        W14636  23.535  13.188   2.362
46219W        W14637  41.343  22.659  11.441
46220W        W14638  29.627  35.928  11.386
46221W        W14639  35.003   1.367  10.605
46222W        W14640  34.065  27.061   3.193
46223W        W14641  11.292  24.194   3.263
46224W        W14642   8.319   5.696   0.333
46225W        W14643  41.308  23.181   4.339
46226W        W14644  11.348   7.298  10.473
46227W        W14645  43.486  13.153   1.407
46228W        W14646   0.482  32.585   3.862
46229W        W14647  43.823   1.895   0.879
46230W        W14648  30.109   7.734   2.204
46231W        W14649  13.325  20.528   4.671
46232W        W14650  10.299  30.031  13.853
46233W        W14651   9.306  35.092  10.622
46234W        W14652  19.638  22.627   4.747
46235W        W14653  22.245  37.469   4.600
46236W        W14654  22.682   8.252  13.498
46237W        W14655  33.931  35.518   1.442
46238W        W14656  10.205  35.547   0.384
46239W        W14657  32.592  17.237  11.586
46240W        W14658  11.857   1.288  11.112
46241W        W14659  14.700  23.007   3.744
46242W        W14660   7.748  38.853  12.002
46243W        W14661  43.793  10.334   0.729
46244W        W14662  29.128  22.713   0.787
46245W        W14663  39.472   7.830  11.061
46246W        W14664   1.841  22.536  10.588
46247W        W14665  34.884   4.890   4.166
46248W        W14666  10.149  26.034   3.181
46249W        W14667   3.884  44.977  14.916
46250W        W14668   2.855  13.648  11.567
46251W        W14669  12.356  16.724  12.061
46252W        W14670   5.344  44.441   2.211
46253W        W14671  22.181  24.592   4.619
46254W        W14672   3.759   4.332   3.318
46255W        W14673  19.095  34.058   2.849
46256W        W14674  43.922   2.749   3.768
46257W        W14675  37.538  15.119   1.249
46258W        W14676  37.071   0.268   4.612
46259W        W14677   9.776  21.756  12.841
46260W        W14678   5.310  28.549  11.016
46261W        W14679  16.758  42.027   4.803
46262W        W14680  44.464  14.146  12.458
46263W        W14681  33.049  27.672   1.900
46264W        W14682  37.463  34.919  14.820
46265W        W14683  24.215  23.658   3.773
46266W        W14684  38.382  24.178  12.826
46267W        W14685   9.310   9.279  12.448
46268W        W14686  40.440  41.921   3.317
46269W        W14687  25.636  37.539   2.236
46270W        W14688  10.302  12.202   0.745
46271W        W14689   1.901  44.800  12.463
46272W        W14690  43.452  32.002  10.929
46273W        W14691   1.309   1.947  12.538
46274W        W14692  42.427  40.916  12.428
46275W        W14693  41.007  36.916  13.439
46276W        W14694  13.618   2.868  10.491
46277W        W14695  34.429   9.680  12.006
46278W        W14696  29.568   2.250   3.643
46279W        W14697  42.428  10.170   0.736
46280W        W14698  29.481  27.460   3.808
46281W        W14699  19.748  42.812   0.887
46282W        W14700   8.830  12.809  12.549
46283W        W14701  44.924  22.149   5.310
46284W        W14702  33.062  25.693   4.599
46285W        W14703   9.781  37.454   0.298
46286W        W14704  39.551  15.582   3.231
46287W        W14705   1.858  34.562  13.382
46288W        W14706  13.214  44.822   4.785
46289W        W14707   4.850  24.624  13.403
46290W        W14708   7.869   5.844   1.830
46291W        W14709  21.742   5.881   3.814
46292W        W14710  24.537  44.989  12.551
46293W        W14711   5.321  24.689  12.017
46294W        W14712   4.265  13.680  14.387
46295W        W14713  20.091  26.625  13.884
46296W        W14714   9.240  22.557  14.465
46297W        W14715  35.535  21.653   4.823
46298W        W14716  40.522  14.323   1.448
46299W        W14717  15.113  12.615   4.297
46300W        W14718  22.511  11.742  11.464
46301W        W14719  24.048  33.584  13.385
46302W        W14720   4.745   8.824   5.268
46303W        W14721  36.429  18.573   1.227
46304W        W14722   1.434  23.656   2.747
46305W        W14723  20.530   8.291  12.577
46306W        W14724  10.326  19.646  14.890
46307W        W14725   8.665  38.380   2.850
46308W        W14726  41.010  42.990  12.373
46309W        W14727  11.779  17.226   0.844
46310W        W14728  16.156  18.720  10.604
46311W        W14729   8.339   3.313  12.419
46312W        W14730   2.944  17.753   4.327
46313W        W14731  39.517  42.427  11.912
46314W        W14732  17.189   2.723  11.568
46315W        W14733  21.703  19.157  14.472
46316W        W14734  39.036  14.157   2.246
46317W        W14735  22.091  37.875   1.779
46318W        W14736  30.557   4.749  14.804
46319W        W14737  12.697  15.749   1.745
46320W        W14738  31.504  10.237  13.944
46321W        W14739  27.993   6.794  12.534
46322W        W14740  25.625  14.132  10.627
46323W        W14741  15.639   2.282  10.534
46324W        W14742  38.045  28.091  13.521
46325W        W14743  35.916  11.172  10.544
46326W        W14744  29.006   4.207  14.317
46327W        W14745  10.294  21.604   4.246
46328W        W14746  36.356  28.652  11.103
46329W        W14747  26.557   3.862  14.772
46330W        W14748  24.698  35.057  12.079
46331W        W14749   0.305  33.440  13.964
46332W        W14750  19.271  22.017  13.882
46333W        W14751  20.078  41.913   1.765
46334W        W14752  14.752  43.801   1.428
46335W        W14753  13.824  14.807   3.805
46336W        W14754  13.799  31.454  14.495
46337W        W14755   5.834  11.835   3.737
46338W        W14756  12.215  24.669  14.414
46339W        W14757  44.488  11.756  11.417
46340W        W14758  27.608  25.043  11.889
46341W        W14759  16.750  12.701   2.348
46342W        W14760  28.961  42.463   0.818
46343W        W14761  17.100  22.529   5.160
46344W        W14762  31.923  41.896  10.912
46345W        W14763  25.996  36.418   2.286
46346W        W14764  25.033   3.284  12.858
46347W        W14765  39.810  34.536   4.246
46348W        W14766  42.319  14.133   3.732
46349W        W14767  42.462  26.497   0.788
46350W        W14768   0.340  39.022  12.913
46351W        W14769  32.440  38.333   3.234
46352W        W14770   5.892  25.589  13.352
46353W        W14771  23.132  38.406   0.280
46354W        W14772  40.977   8.685   3.857
46355W        W14773  22.634  34.497   1.696
46356W        W14774  27.507   4.754  14.299
46357W        W14775  25.603  18.618  11.982
46358W        W14776  14.214  36.442  13.308
46359W        W14777  33.983   1.332   3.669
46360W        W14778  19.240  22.166   2.203
46361W        W14779  39.500  37.395  10.990
46362W        W14780  10.226  15.763  10.611
46363W        W14781  20.116  32.063  12.351
46364W        W14782  42.024  11.779  10.156
46365W        W14783  31.082  13.638   0.821
46366W        W14784   9.270   2.747   3.858
46367W        W14785  10.811  27.116   1.781
46368W        W14786  10.180   6.716   2.292
46369W        W14787  23.036  35.476  14.294
46370W        W14788  41.329   4.810  12.056
46371W        W14789  44.306  10.353   9.999
46372W        W14790  31.076  39.965   1.853
46373W        W14791  37.897  35.582  13.495
46374W        W14792   8.354   6.425  14.933
46375W        W14793  18.690  42.846   3.775
46376W        W14794   0.960  37.989   2.398
46377W        W14795  25.015  29.657  12.043
46378W        W14796   3.332  13.344   2.405
46379W        W14797  14.703   9.293   3.806
46380W        W14798   6.688  17.683   0.356
46381W        W14799  33.520  13.164   3.186
46382W        W14800   0.833  36.566   2.662
46383W        W14801  34.866  28.450   4.694
46384W        W14802  32.070  30.545   1.249
46385W        W14803   6.273  16.813   2.239
46386W        W14804  36.909   2.245   3.238
46387W        W14805  38.448  13.678  14.974
46388W        W14806  13.755  36.455   2.770
46389W        W14807  23.053  30.165   3.771
46390W        W14808  28.092  17.303  10.552
46391W        W14809  36.036   8.804   0.955
46392W        W14810   0.785   1.469   1.933
46393W        W14811  44.500  33.058  12.985
46394W        W14812  31.143  30.649  13.949
46395W        W14813  28.467   1.849   0.410
46396W        W14814  19.701   7.175   0.899
46397W        W14815  15.582  32.512  12.521
46398W        W14816  21.207  32.407   0.798
46399W        W14817  25.618  33.994  11.116
46400W        W14818   7.716  17.159   0.379
46401W        W14819  19.564   9.645  11.457
46402W        W14820  27.016  25.531  10.555
46403W        W14821  20.657  40.846  13.983
46404W        W14822  10.861  39.334   4.824
46405W        W14823  21.608  12.218   4.789
46406W        W14824  33.877  29.647   3.384
46407W        W14825   7.826   5.396   3.244
46408W        W14826  40.392  15.657  14.500
46409W        W14827  34.612  10.347   1.740
46410W        W14828  28.537  35.983  13.331
46411W        W14829  18.718  26.176  13.869
46412W        W14830  36.502  35.365   3.374
46413W        W14831  12.722  28.611   3.166
46414W        W14832  31.982  33.876   4.792
46415W        W14833  20.155  34.531   0.749
46416W        W14834   5.759  21.209  13.408
46417W        W14835  42.478  42.951   1.749
46418W        W14836  20.189  23.567   2.233
46419W        W14837  32.407  18.059  12.360
46420W        W14838  20.566  30.544  14.290
46421W        W14839  41.854   8.335   4.164
46422W        W14840   5.341   7.360   1.887
46423W        W14841  15.674   7.244  10.547
46424W        W14842   1.431  41.327   0.961
46425W        W14843  36.544   7.264   4.621
46426W        W14844  17.567  22.179  13.350
46427W        W14845  28.008  23.675  14.336
46428W        W14846  42.400  34.994   3.707
46429W        W14847   7.855  39.828  11.913
46430W        W14848  18.669  25.555   2.869
46431W        W14849  37.929  15.298   3.800
46432W        W14850  40.425  19.580  10.968
46433W        W14851  43.315  24.655  14.345
46434W        W14852  33.411   4.718   4.145
46435W        W14853  21.228  42.515   4.643
46436W        W14854  35.086  44.354  14.499
46437W        W14855  19.591  19.669   2.751
46438W        W14856  19.248  39.417   4.159
46439W        W14857  44.296   3.372  13.400
46440W        W14858  25.064   2.272  12.017
46441W        W14859  11.191  24.150  12.533
46442W        W14860  22.198  15.314   4.282
46443W        W14861   6.691   2.408  13.477
46444W        W14862  24.217  37.555   5.189
46445W        W14863  24.136  27.008   4.689
46446W        W14864  33.918  31.408  12.013
46447W        W14865  32.000  31.899  12.506
46448W        W14866  44.867   1.309  12.501
46449W        W14867  43.816   2.736   1.373
46450W        W14868  21.581  21.750  14.356
46451W        W14869  40.870   6.684  12.888
46452W        W14870  43.808  39.340   1.862
46453W        W14871   3.362  23.540  13.383
46454W        W14872  15.181  26.533   4.125
46455W        W14873  10.186  39.326  13.966
46456W        W14874  44.266  35.486   4.330
46457W        W14875  14.633  19.156   4.820
46458W        W14876  19.139   9.185  13.368
46459W        W14877   4.447  19.098  10.898
46460W        W14878   1.292  32.936   0.467
46461W        W14879  16.186  30.602   1.902
46462W        W14880  41.370  21.150  11.441
46463W        W14881  28.065   9.822  14.005
46464W        W14882  28.539  10.183  14.454
46465W        W14883  44.347  19.556   3.854
46466W        W14884  29.133  33.501   0.737
46467W        W14885  44.377  16.296  11.880
46468W        W14886  12.766   9.889  12.412
46469W        W14887  23.608  42.435  10.558
46470W        W14888  23.701  33.468   4.661
46471W        W14889  41.015  23.637   2.795
46472W        W14890  43.937  33.015   2.780
46473W        W14891  44.812  41.457  10.451
46474W        W14892  22.625  36.867   2.731
46475W        W14893  39.317  10.183   0.889
46476W        W14894  23.619  25.020  10.443
46477W        W14895  21.138  19.697  14.766
46478W        W14896  37.433  16.632  12.923
46479W        W14897  26.177  13.793   3.829
46480W        W14898  17.206   5.801   1.865
46481W        W14899  22.167  19.624  13.941
46482W        W14900  19.735   5.842   1.331
46483W        W14901  31.482  23.671   3.684
46484W        W14902   1.267  41.878  10.406
46485W        W14903  44.756  44.260   0.399
46486W        W14904  29.030  19.232  13.548
46487W        W14905  12.613  12.187   1.437
46488W        W14906  41.867  23.124  14.787
46489W        W14907  39.955  16.730  11.968
46490W        W14908   2.873  20.638   2.802
46491W        W14909  40.549  16.602   2.411
46492W        W14910   4.786  34.090  12.443
46493W        W14911  32.913  40.330  11.588
46494W        W14912  12.161   0.327   3.633
46495W        W14913  31.477  42.432  12.366
46496W        W14914  33.461  23.706   1.226
46497W        W14915  33.916  26.538  13.488
46498W        W14916  26.036  43.936  12.517
46499W        W14917  12.682  19.175   4.348
46500W        W14918  44.356   4.918   1.722
46501W        W14919  26.510  32.485   3.370
46502W        W14920  42.502  39.370  14.015
46503W        W14921  35.904  14.207   2.418
46504W        W14922   5.908  41.956  12.012
46505W        W14923  41.371  28.085   2.683
46506W        W14924  28.044   9.195   0.289
46507W        W14925  15.100  19.263   2.706
46508W        W14926  15.314  44.961   0.760
46509W        W14927  35.853  37.942  11.884
46510W        W14928  12.793  11.165   4.798
46511W        W14929  11.180  16.222  12.969
46512W        W14930  20.552  13.811   4.184
46513W        W14931  15.681  22.106  10.043
46514W        W14932  25.985  30.107  12.907
46515W        W14933  27.003   6.323  13.514
46516W        W14934  39.365   3.831  13.532
46517W        W14935   8.663  29.467   1.767
46518W        W14936  24.683  19.246   1.306
46519W        W14937  12.334  24.171  13.957
46520W        W14938  10.851   3.249  14.461
46521W        W14939  18.678  37.086   1.279
46522W        W14940  34.563  36.950   3.293
46523W        W14941  40.328  39.974   0.346
46524W        W14942  13.650   1.266   0.324
46525W        W14943  14.239  22.652   2.685
46526W        W14944  32.563  13.284   4.247
46527W        W14945  43.880  42.480  14.792
46528W        W14946  34.512   3.755  11.565
46529W        W14947   5.341  12.301   0.811
46530W        W14948   7.345   3.232  14.777
46531W        W14949  16.292  13.351  14.358
46532W        W14950   6.183  32.590   2.786
46533W        W14951   2.375  26.653   1.234
46534W        W14952  32.020   3.403  13.504
46535W        W14953   2.778  39.880  10.572
46536W        W14954   6.377  15.126  12.354
46537W        W14955  26.504  15.153   1.727
46538W        W14956   3.713  23.615  12.492
46539W        W14957  35.459  32.028   1.803
46540W        W14958  32.041  14.288   0.369
46541W        W14959  36.521  39.363  11.434
46542W        W14960  30.429  37.500   4.612
46543W        W14961  31.954  19.211  12.092
46544W        W14962   5.427  15.253   2.359
46545W        W14963  32.093  11.320   9.964
46546W        W14964   4.895   0.877   3.329
46547W        W14965  33.127  31.472   0.357
46548W        W14966  29.539  12.780   1.746
46549W        W14967  28.938  17.741  14.777
46550W        W14968  35.007   7.805  10.934
46551W        W14969  33.453  25.562  13.545
46552W        W14970  34.391  26.075   4.644
46553W        W14971  35.479  44.782   1.366
46554W        W14972  17.604  11.131   2.811
46555W        W14973   0.452  41.008  13.845
46556W        W14974   7.417   8.801   3.370
46557W        W14975  19.598  22.669  12.950
46558W        W14976  35.416  35.431   2.332
46559W        W14977  31.471  14.310   5.120
46560W        W14978  29.544  19.627   4.316
46561W        W14979  31.091  22.037  13.525
46562W        W14980  10.773  19.714   0.837
46563W        W14981  34.542  29.593  12.359
46564W        W14982  30.552  39.974   1.859
46565W        W14983   9.714  25.072  14.941
46566W        W14984   4.935  22.683   0.823
46567W        W14985   4.410   4.239  13.426
46568W        W14986  25.545  36.846  10.501
46569W        W14987  44.831   6.677   1.448
46570W        W14988  22.573  17.715  14.443
46571W        W14989   9.739  25.027   4.787
46572W        W14990   0.755  17.638   1.920
46573W        W14991  36.561  31.088   4.256
46574W        W14992  11.729  33.390  13.444
46575W        W14993  26.107  23.618   2.199
46576W        W14994  24.530  33.906   1.864
46577W        W14995  20.071   8.688  13.435
46578W        W14996   7.394   6.805  12.474
46579W        W14997   3.258  39.453   3.322
46580W        W14998  22.072  35.550  14.995
46581W        W14999   3.401  18.562   2.268
46582W        W15000  22.517  18.721  14.309
46583W        W15001  36.500  42.791   0.820
46584W        W15002  44.354  12.119  12.926
46585W        W15003  14.224   4.727  12.896
46586W        W15004  30.014  15.316  14.002
46587W        W15005  23.547   7.852   2.321
46588W        W15006  17.583   3.823  11.534
46589W        W15007  18.582  19.249  11.054
46590W        W15008  30.483  29.660  11.611
46591W        W15009  22.510   2.843   4.124
46592W        W15010   4.850  11.179  11.498
46593W        W15011  15.590  31.438  13.896
46594W        W15012  13.719   0.785   2.373
46595W        W15013   1.884  10.314   2.876
46596W        W15014  16.300  21.093  11.515
46597W        W15015  32.533   4.304  14.426
46598W        W15016   9.298  29.141   4.673
46599W        W15017  12.221  16.141   4.726
46600W        W15018  22.630   3.406   3.219
46601W        W15019  16.758  21.053   4.122
46602W        W15020  39.486   0.770  13.462
46603W        W15021  38.912  28.151  13.389
46604W        W15022  16.089  24.715  13.052
46605W        W15023   3.802  30.604   4.759
46606W        W15024   6.262   0.797  14.494
46607W        W15025  12.167  36.510  10.931
46608W        W15026  19.281  21.672  12.049
46609W        W15027   8.272  26.568   2.798
46610W        W15028  12.127  17.670  12.401
46611W        W15029  31.495  10.322  11.977
46612W        W15030  28.095   7.715   0.333
46613W        W15031  29.453  26.485   2.308
46614W        W15032  35.000   8.686  14.381
46615W        W15033  36.466   9.179  14.483
46616W        W15034  28.542  27.171   1.318
46617W        W15035  16.255  23.638   1.874
46618W        W15036   2.817  29.985   3.273
46619W        W15037  12.746  38.505  13.548
46620W        W15038  23.088  17.208   2.251
46621W        W15039   5.816  25.107  11.607
46622W        W15040  17.222  29.046  14.941
46623W        W15041  41.876  28.949  13.857
46624W        W15042  11.296   7.322   0.377
46625W        W15043  31.151  17.227  10.040
46626W        W15044  25.708   5.368   2.790
46627W        W15045  29.959  19.282   4.628
46628W        W15046  41.518  13.199   1.240
46629W        W15047  23.562  38.850  11.530
46630W        W15048  31.411   3.941   4.767
46631W        W15049  25.535  33.973   2.339
46632W        W15050  16.170   9.825   4.710
46633W        W15051   8.881   4.410   2.815
46634W        W15052  39.545  44.300   0.479
46635W        W15053   4.316  32.549   0.432
46636W        W15054  12.212  22.030  12.459
46637W        W15055  13.624  12.775   2.836
46638W        W15056  42.895  23.999  11.601
46639W        W15057  12.631  30.436   1.386
46640W        W15058  32.505  31.438   0.861
46641W        W15059  35.500  26.692   2.314
46642W        W15060  26.131  35.975   0.449
46643W        W15061  21.536  38.376  13.983
46644W        W15062  27.963   5.328  12.396
46645W        W15063  26.582  18.194   3.695
46646W        W15064  34.448  37.906   3.179
46647W        W15065  29.499  34.065  13.881
46648W        W15066  24.084   2.389  13.051
46649W        W15067   1.306  16.587  13.380
46650W        W15068   9.774  10.306  10.566
46651W        W15069  14.264  31.119  11.876
46652W        W15070   0.304  35.067   4.265
46653W        W15071   9.692  35.368   3.295
46654W        W15072   1.906  36.041   2.794
46655W        W15073  18.160  13.189   3.215
46656W        W15074  11.637  32.437  12.509
46657W        W15075   8.254   6.841  14.437
46658W        W15076  41.792  29.127  10.468
46659W        W15077  38.908  24.045   2.875
46660W        W15078  41.534  44.839   4.824
46661W        W15079  15.226   2.840  13.962
46662W        W15080   5.726  14.630  13.507
46663W        W15081  31.128  38.049   3.864
46664W        W15082  33.540  10.299  12.347
46665W        W15083   6.317  39.388   0.739
46666W        W15084  21.628   7.803  11.410
46667W        W15085  37.487  39.841   3.303
46668W        W15086   3.925   8.346   4.642
46669W        W15087  44.797  22.650   3.263
46670W        W15088  19.662  29.585  10.552
46671W        W15089  16.587  41.875   2.779
46672W        W15090   0.380   4.879   4.640
46673W        W15091   7.831   7.367  14.772
46674W        W15092  16.243  11.153   2.243
46675W        W15093  16.633  37.438  10.545
46676W        W15094  38.379  11.296   1.761
46677W        W15095  20.268  15.637  13.887
46678W        W15096  33.894  17.268  11.917
46679W        W15097   6.272  33.978  13.880
46680W        W15098  43.000  42.876   1.833
46681W        W15099  11.260  12.723   2.706
46682W        W15100  35.950  25.610  14.014
46683W        W15101   2.882  21.675   3.244
46684W        W15102  18.634  37.965  12.031
46685W        W15103   4.292  42.444  12.033
46686W        W15104  38.374  41.461  14.883
46687W        W15105   2.778  43.960   4.308
46688W        W15106  26.640  33.878  14.910
46689W        W15107  42.479  28.094   0.929
46690W        W15108   2.836   4.880   4.834
46691W        W15109  24.097  36.078   0.950
46692W        W15110  13.122  36.917  12.016
46693W        W15111  36.485  13.254   4.135
46694W        W15112  33.586  17.284  14.388
46695W        W15113  11.838  14.170  11.475
46696W        W15114  36.369  15.088  14.385
46697W        W15115  16.150  39.997  11.984
46698W        W15116  32.962  31.458   3.350
46699W        W15117   9.242  10.850  11.935
46700W        W15118  26.092  37.423  12.844
46701W        W15119  16.101  27.676   2.664
46702W        W15120  16.085  31.615  13.473
46703W        W15121   7.702  14.283   3.291
46704W        W15122  42.014  40.547  14.908
46705W        W15123  10.869  33.124   4.271
46706W        W15124  42.307  43.771  10.609
46707W        W15125   1.282  25.200   4.812
46708W        W15126   0.909  42.796  13.801
46709W        W15127   3.817  27.575   2.316
46710W        W15128  35.358   7.892   3.630
46711W        W15129  13.223  44.001  11.469
46712W        W15130  29.964  39.486   1.215
46713W        W15131  14.628  14.177   2.898
46714W        W15132  25.136   8.676   0.288
46715W        W15133  14.700   1.342  12.505
46716W        W15134  16.753  43.332   2.794
46717W        W15135  21.588  20.623  12.983
46718W        W15136  29.433   3.425   2.376
46719W        W15137  29.566  15.105  10.645
46720W        W15138   9.693  27.032   3.293
46721W        W15139   4.710  10.230   0.269
46722W        W15140  19.151   5.750  13.873
46723W        W15141   7.857  32.560  11.442
46724W        W15142   9.820  21.129  10.492
46725W        W15143  27.568   6.792   1.768
46726W        W15144  14.800  33.591   1.221
46727W        W15145  16.130  29.516   0.244
46728W        W15146  28.965  12.125   3.230
46729W        W15147  39.815   0.410  13.013
46730W        W15148   6.416  29.630   4.679
46731W        W15149  13.739  24.217  14.397
46732W        W15150  28.470  42.455  14.889
46733W        W15151  37.005  26.140  12.974
46734W        W15152  33.400  25.509   4.691
46735W        W15153  40.846  11.343  13.845
46736W        W15154  34.398  44.444   2.833
46737W        W15155   4.898  14.323  10.610
46738W        W15156  16.766  44.364   1.702
46739W        W15157   0.249  44.996  13.840
46740W        W15158  34.987   2.391  11.950
46741W        W15159  12.749  36.523   2.391
46742W        W15160  26.144  15.768   3.710
46743W        W15161   6.194  11.787  14.928
46744W        W15162  28.509  32.919   1.749
46745W        W15163   1.320  32.440   3.159
46746W        W15164  27.098  18.229   0.388
46747W        W15165  23.149  28.022   0.938
46748W        W15166  38.508  14.608   4.675
46749W        W15167   4.299  40.999   2.880
46750W        W15168  43.954  23.223   1.279
46751W        W15169  10.325  40.045   2.695
46752W        W15170  43.908   3.404   0.385
46753W        W15171   8.827  32.405  13.996
46754W        W15172   2.745  26.470  14.422
46755W        W15173   1.269  43.003   2.816
46756W        W15174  32.470   5.339  11.075
46757W        W15175  29.434  37.480   2.894
46758W        W15176  27.949   4.286   1.396
46759W        W15177   9.304  39.438  10.419
46760W        W15178  11.275   6.194  10.565
46761W        W15179  31.133  32.897   0.742
46762W        W15180  16.749  24.508  11.103
46763W        W15181  11.187  17.634   3.293
46764W        W15182  38.067   3.788   1.805
46765W        W15183  32.022  38.911   9.922
46766W        W15184  14.156  34.058  13.016
46767W        W15185  28.167  17.566   2.377
46768W        W15186  37.457  34.378  12.378
46769W        W15187  29.659   2.782   0.901
46770W        W15188  43.829  42.950   4.121
46771W        W15189   2.886  39.348   0.369
46772W        W15190   8.735   5.757  10.414
46773W        W15191  28.060   3.234   2.715
46774W        W15192   3.371  17.628  14.805
46775W        W15193  34.059  20.571   0.901
46776W        W15194  10.145  24.062   0.883
46777W        W15195  24.540  44.826  12.911
46778W        W15196   3.739  18.162  11.078
46779W        W15197   1.915   0.870  10.963
46780W        W15198   0.887  26.007  10.943
46781W        W15199  27.583  27.954  14.010
46782W        W15200  19.761  35.886   4.770
46783W        W15201  11.233  22.675   4.214
46784W        W15202  14.775   2.451   0.922
46785W        W15203  28.181   3.420  11.433
46786W        W15204  12.739  25.001  14.902
46787W        W15205  13.631  22.611   1.323
46788W        W15206  30.110  17.098   3.178
46789W        W15207  25.128  13.133   0.255
46790W        W15208   6.276  39.008   5.154
46791W        W15209  28.490   7.350   9.976
46792W        W15210   1.752   5.853   1.709
46793W        W15211  22.251  29.468  11.867
46794W        W15212  41.884   1.252  11.128
46795W        W15213  30.485   6.829  11.541
46796W        W15214  32.482   9.290  13.387
46797W        W15215  28.984   6.698   0.444
46798W        W15216  20.584   2.419   0.401
46799W        W15217  26.119  44.913   2.710
46800W        W15218  38.534  36.548   4.187
46801W        W15219   6.278  22.199   4.352
46802W        W15220  32.078  40.029   4.775
46803W        W15221  32.935  17.195  14.354
46804W        W15222  10.724   5.886  12.899
46805W        W15223  25.713  31.605  13.919
46806W        W15224  41.421   9.867  12.861
46807W        W15225  42.462  15.119  13.865
46808W        W15226  12.187   6.214   0.961
46809W        W15227  19.666  22.199  12.933
46810W        W15228   0.882  43.019   4.283
46811W        W15229   5.362  38.437  12.517
46812W        W15230   3.408  19.180  14.476
46813W        W15231   9.219  11.845   4.273
46814W        W15232   7.377   0.968   1.884
46815W        W15233  35.046  29.504   2.185
46816W        W15234  43.790  38.570   5.160
46817W        W15235  38.500  33.072  12.362
46818W        W15236  40.867  29.547   3.223
46819W        W15237  25.569   0.848   3.692
46820W        W15238  15.577  31.444  12.457
46821W        W15239  21.200   6.872   4.159
46822W        W15240  17.569   7.320   2.772
46823W        W15241  26.560   6.834  14.887
46824W        W15242  21.158  28.498  11.482
46825W        W15243  26.604  11.679   1.299
46826W        W15244  38.883  33.948  12.538
46827W        W15245  24.202  15.802   0.933
46828W        W15246  30.476  16.130  13.855
46829W        W15247   8.715  42.446  10.431
46830W        W15248   4.412   7.899   1.776
46831W        W15249   7.238   5.269   2.414
46832W        W15250   5.434  35.937   2.887
46833W        W15251  37.458   6.865  11.890
46834W        W15252  14.592  31.979   1.915
46835W        W15253  15.587   0.277  11.580
46836W        W15254  27.966  23.014   3.346
46837W        W15255  26.623  37.546   2.283
46838W        W15256  21.689   0.359   4.724
46839W        W15257  11.761  30.415   1.373
46840W        W15258   3.928  24.685   3.658
46841W        W15259  15.227   1.240  11.087
46842W        W15260   2.741  11.318  14.925
46843W        W15261  44.863  22.162  10.602
46844W        W15262  19.257  28.041   1.447
46845W        W15263  15.238   1.906   1.325
46846W        W15264  17.107  12.293  14.454
46847W        W15265  31.503  21.719   0.901
46848W        W15266  12.149  21.234   0.377
46849W        W15267  38.474   8.833  10.979
46850W        W15268  44.321  13.161  13.427
46851W        W15269  22.157  26.168   2.665
46852W        W15270   0.384  27.580  13.032
46853W        W15271  43.922   5.327  11.067
46854W        W15272  42.334  38.939  12.559
46855W        W15273  37.046  38.882  12.577
46856W        W15274  41.414   3.257  13.802
46857W        W15275  28.570   0.930   4.280
46858W        W15276   8.246  14.264  10.903
46859W        W15277  36.076  34.063   1.221
46860W        W15278  42.425   5.907  12.017
46861W        W15279  43.868  23.191  11.557
46862W        W15280   7.785  18.190   1.879
46863W        W15281  19.555   3.422   1.722
46864W        W15282  10.686   9.825   0.920
46865W        W15283   1.821  42.420  11.949
46866W        W15284  30.164  24.605  11.931
46867W        W15285  10.861  11.334   0.313
46868W        W15286  27.151  31.131  12.907
46869W        W15287  17.304  44.904   4.231
46870W        W15288   7.705  22.048   1.700
46871W        W15289   0.311  37.384   0.302
46872W        W15290  43.955  13.235   5.089
46873W        W15291  21.624  36.546   4.643
46874W        W15292   3.806   2.284  12.029
46875W        W15293  15.658  18.710  10.895
46876W        W15294   9.656  22.737  12.402
46877W        W15295  18.637  10.661  10.619
46878W        W15296  32.128   1.744   2.251
46879W        W15297  36.934   2.747  11.515
46880W        W15298  37.417  22.506   3.673
46881W        W15299   8.691  30.102   4.119
46882W        W15300  38.012  14.272   4.647
46883W        W15301  39.442  40.533  12.868
46884W        W15302  39.060  34.486   1.697
46885W        W15303  10.368  29.651   0.460
46886W        W15304  17.198   7.397   4.676
46887W        W15305   0.905  41.001  14.892
46888W        W15306  30.635  25.712  12.951
46889W        W15307  41.532  25.034  10.596
46890W        W15308  42.861  29.930  14.851
46891W        W15309  26.188  31.900   4.617
46892W        W15310  18.184  10.365  14.776
46893W        W15311  15.236  42.933  10.975
46894W        W15312  38.546  26.176   2.886
46895W        W15313  16.277  15.296   2.744
46896W        W15314  22.157  44.403  13.806
46897W        W15315   5.254  37.482   3.340
46898W        W15316  41.467  38.512   3.204
46899W        W15317   4.203  31.936  10.903
46900W        W15318  13.818  19.148  12.993
46901W        W15319   6.197  32.485  12.443
46902W        W15320  10.144  15.816   2.882
46903W        W15321  24.204  26.529   3.857
46904W        W15322  22.623  20.721   3.241
46905W        W15323  20.635  19.715  11.525
46906W        W15324  13.300  43.482  12.941
46907W        W15325  30.520  32.447  13.897
46908W        W15326  11.274  39.476  12.535
46909W        W15327  37.355  33.017   0.395
46910W        W15328  16.176   2.342  12.397
46911W        W15329   9.390  32.393  11.403
46912W        W15330  36.859  11.309  13.385
46913W        W15331  44.954  40.451   1.854
46914W        W15332  29.063  10.673  11.975
46915W        W15333  39.496  28.970  11.940
46916W        W15334  30.005   4.292  12.919
46917W        W15335  35.474   7.260  14.376
46918W        W15336  41.439  34.424  13.915
46919W        W15337  14.271   2.732   1.275
46920W        W15338  25.200  21.590   1.298
46921W        W15339   3.946  33.891   4.667
46922W        W15340  12.642  36.387  12.949
46923W        W15341  20.646  27.609   1.342
46924W        W15342  21.741  34.930  14.324
46925W        W15343  21.668  43.944   3.208
46926W        W15344  27.170  15.688  13.455
46927W        W15345  11.640  15.584  14.824
46928W        W15346  24.200  10.873   0.454
46929W        W15347   4.432  12.744   4.196
46930W        W15348  41.329  11.740  14.800
46931W        W15349  32.527  41.892  10.583
46932W        W15350   5.329   7.397  14.405
46933W        W15351  32.487   5.345   0.783
46934W        W15352  40.946  38.994   2.274
46935W        W15353   1.834  41.309  11.085
46936W        W15354   2.294  20.550  12.081
46937W        W15355   6.315  37.481  13.322
46938W        W15356  14.271  13.646  14.485
46939W        W15357  24.185  28.638  12.369
46940W        W15358  31.465  28.621   1.430
46941W        W15359  29.493  26.572   3.368
46942W        W15360  11.791  15.703   5.163
46943W        W15361  19.163  42.523   4.130
46944W        W15362  44.857  41.345  12.079
46945W        W15363  33.983  24.104   0.853
46946W        W15364  40.889  21.678   1.335
46947W        W15365   5.715  31.971  11.027
46948W        W15366   0.482  26.611  11.426
46949W        W15367  44.373  35.601   0.359
46950W        W15368  34.878  44.390  13.532
46951W        W15369   4.758  27.495   1.380
46952W        W15370  13.181  19.669   3.309
46953W        W15371   7.684  14.632  11.428
46954W        W15372   5.933  13.283   3.217
46955W        W15373  27.680  25.217   4.317
46956W        W15374  42.948  28.957   2.773
46957W        W15375   3.921  17.209   4.604
46958W        W15376  32.954   9.186   2.724
46959W        W15377  21.120  42.894  14.412
46960W        W15378  31.503  10.171   4.134
46961W        W15379  25.707  38.971   0.948
46962W        W15380  21.545  11.136  10.407
46963W        W15381  16.697  44.918  14.761
46964W        W15382  25.607  21.538  12.979
46965W        W15383   2.915  11.192   3.646
46966W        W15384   4.796   6.810  10.567
46967W        W15385  29.565  29.522   1.855
46968W        W15386  24.679  30.076  14.799
46969W        W15387   4.716  36.038  13.462
46970W        W15388  17.615   7.870   4.650
46971W        W15389  24.164  37.939   2.375
46972W        W15390  32.949   5.381   1.935
46973W        W15391  39.972   0.872   3.751
46974W        W15392  27.192  11.136  10.541
46975W        W15393  39.516  32.426  12.850
46976W        W15394  43.379  29.059  11.932
46977W        W15395  37.088  13.645   0.473
46978W        W15396  23.634  42.827   3.843
46979W        W15397   8.324   6.314   4.828
46980W        W15398  42.389  40.030   0.929
46981W        W15399  40.876  26.654  14.005
46982W        W15400  14.126  36.477  12.538
46983W        W15401  13.835  23.494  10.623
46984W        W15402  34.095  36.582  11.047
46985W        W15403  32.975   7.743  13.873
46986W        W15404  32.624   2.913  12.578
46987W        W15405  33.422  26.065   1.298
46988W        W15406  20.159  21.179  11.106
46989W        W15407  41.998  20.118  14.293
46990W        W15408   3.448   8.696   0.886
46991W        W15409  17.715  19.070   2.343
46992W        W15410  14.793  10.213   1.929
46993W        W15411  14.317  37.449   4.193
46994W        W15412  30.988  26.171   3.336
46995W        W15413  24.068  37.418  10.104
46996W        W15414  13.182  22.701   4.343
46997W        W15415   5.863  13.822   4.801
46998W        W15416   8.705  35.029  11.098
46999W        W15417  26.137  26.987  13.469
47000W        W15418   0.982  12.839  12.549
47001W        W15419  17.182  10.149   0.471
47002W        W15420  17.680   2.768   3.293
47003W        W15421  43.378  41.793   2.277
47004W        W15422   0.948  35.493   2.757
47005W        W15423  28.492  42.014   4.608
47006W        W15424  32.424  12.698  14.349
47007W        W15425  31.062   1.957  14.791
47008W        W15426  31.646  32.118   0.734
47009W        W15427  26.178  34.403   4.797
47010W        W15428   6.392   1.894   2.887
47011W        W15429  32.112  28.523  13.430
47012W        W15430  13.303  33.500   4.354
47013W        W15431  42.979  37.856   0.762
47014W        W15432  36.075  40.851   2.709
47015W        W15433  41.514  40.918   3.167
47016W        W15434   9.217  20.203  14.825
47017W        W15435   3.881  13.803   3.381
47018W        W15436  17.194   4.721  13.477
47019W        W15437   9.759  39.482  13.939
47020W        W15438   0.306  34.582   4.282
47021W        W15439  25.163   0.322   3.225
47022W        W15440  18.105  35.870   2.365
47023W        W15441  24.168  37.927   1.807
47024W        W15442  43.816  34.955   4.677
47025W        W15443  26.118  23.086  13.325
47026W        W15444  41.483  30.014  14.497
47027W        W15445  37.454  38.869  13.017
47028W        W15446  28.602   3.875   4.644
47029W        W15447  10.819   5.309  12.963
47030W        W15448  24.511  25.088  12.519
47031W        W15449  43.849  40.327   2.353
47032W        W15450   2.373   8.744  14.474
47033W        W15451  28.451  18.278  13.920
47034W        W15452  21.676  27.995  12.943
47035W        W15453   9.698  31.008  14.392
47036W        W15454  34.085  39.428   4.341
47037W        W15455  32.135  43.468  11.433
47038W        W15456  35.590   9.723   2.291
47039W        W15457   8.311  11.694   3.782
47040W        W15458  10.200   0.763  13.961
47041W        W15459  13.719   1.901  10.579
47042W        W15460  14.195  14.201   1.801
47043W        W15461   0.448  33.473   0.407
47044W        W15462  18.734  18.697   4.608
47045W        W15463   0.249  23.206  14.507
47046W        W15464   6.194  10.288  10.887
47047W        W15465  23.586   0.794   2.260
47048W        W15466  28.590  24.709   4.151
47049W        W15467  42.984  41.887  11.386
47050W        W15468  39.815  39.401   2.686
47051W        W15469   6.196  41.370  11.868
47052W        W15470   3.344   0.917  13.878
47053W        W15471  36.951   1.302  12.913
47054W        W15472   3.406  35.879   2.771
47055W        W15473   0.359   2.761   0.419
47056W        W15474  36.574  44.887   2.733
47057W        W15475  33.995  21.640  14.973
47058W        W15476  30.110  20.648   1.443
47059W        W15477   0.868  22.198  11.041
47060W        W15478  44.409  41.855   0.810
47061W        W15479  42.376  26.632   2.361
47062W        W15480  16.568  38.335  14.359
47063W        W15481  13.320  10.176   1.785
47064W        W15482   6.318  24.108  12.081
47065W        W15483  22.566  33.047   4.692
47066W        W15484  21.596  44.412  14.827
47067W        W15485  22.715  41.301  12.892
47068W        W15486  39.813  37.961  11.899
47069W        W15487  22.091  44.938  12.004
47070W        W15488  23.561  32.637  14.469
47071W        W15489   1.302   4.256   1.825
47072W        W15490  41.846  41.434  12.541
47073W        W15491   8.171  41.410   0.353
47074W        W15492  22.587  23.505   4.646
47075W        W15493  36.566   2.858   0.434
47076W        W15494   0.831  43.325  13.996
47077W        W15495   1.883  18.669  11.979
47078W        W15496  22.652  29.030  10.987
47079W        W15497  21.696   0.484   1.843
47080W        W15498   6.351   0.925   1.762
47081W        W15499  25.045  27.159  14.974
47082W        W15500  27.075   1.923   1.812
47083W        W15501   9.194  36.078  14.952
47084W        W15502   3.310  34.495  12.971
47085W        W15503   6.198  37.488  10.440
47086W        W15504   4.219   5.847  13.843
47087W        W15505  39.946  14.736   0.897
47088W        W15506   5.392  17.690   0.246
47089W        W15507  43.943  24.518  10.093
47090W        W15508  11.135  37.972   0.824
47091W        W15509  32.942  19.118  12.019
47092W        W15510  11.189  28.512  12.977
47093W        W15511  40.315  16.076  14.835
47094W        W15512  11.650  17.188  10.497
47095W        W15513  13.301  35.087   1.438
47096W        W15514  11.765   5.814  10.432
47097W        W15515  43.413  27.687   0.299
47098W        W15516  42.903  31.001  14.295
47099W        W15517  17.759   4.422  14.919
47100W        W15518  16.608  35.881  11.874
47101W        W15519   9.887   8.681  10.623
47102W        W15520  31.634  43.013   4.133
47103W        W15521   3.770  41.531  11.856
47104W        W15522  41.964   7.876  13.839
47105W        W15523  16.165   0.275  10.601
47106W        W15524  23.233  28.957   2.257
47107W        W15525  27.689  38.559  10.634
47108W        W15526   3.290  15.743   1.215
47109W        W15527  33.569  43.474  14.858
47110W        W15528  23.062  13.639  14.814
47111W        W15529  11.699  29.005   0.769
47112W        W15530  29.486  13.116  11.604
47113W        W15531  25.604  41.795  13.536
47114W        W15532   1.443   4.898   3.755
47115W        W15533  36.404   6.283   2.828
47116W        W15534   6.898  25.216   4.118
47117W        W15535  39.360  41.299  13.863
47118W        W15536  10.841  28.116  14.951
47119W        W15537  20.068  42.972  11.994
47120W        W15538  38.993  23.557   3.634
47121W        W15539  40.414  10.141   3.700
47122W        W15540  13.237  30.557  11.049
47123W        W15541   8.685  41.995  11.986
47124W        W15542   1.376  12.673  11.005
47125W        W15543  40.955  37.899   1.250
47126W        W15544   6.389  21.225   0.473
47127W        W15545  21.232  34.898   3.854
47128W        W15546  12.176  11.326  10.416
47129W        W15547  33.536  19.757   2.210
47130W        W15548   0.270  11.796  12.969
47131W        W15549  24.506   4.922   3.381
47132W        W15550  23.712   1.815  10.965
47133W        W15551  13.728  21.225  13.987
47134W        W15552  28.052  34.510   0.404
47135W        W15553   2.804  30.636   0.346
47136W        W15554  24.102   9.177   3.771
47137W        W15555  42.846  25.024   3.330
47138W        W15556  36.370  30.109  13.324
47139W        W15557  38.491  27.559   3.217
47140W        W15558  25.607  28.494   2.264
47141W        W15559  41.013  10.183  14.370
47142W        W15560  36.588   6.800  13.334
47143W        W15561  37.833  18.127  10.953
47144W        W15562  36.020  21.041  13.390
47145W        W15563   3.792   7.753  13.870
47146W        W15564  34.047  19.254   3.733
47147W        W15565  15.645   6.851   5.186
47148W        W15566   2.737  37.519   4.687
47149W        W15567   3.397  20.594  14.283
47150W        W15568  30.909  18.124  14.011
47151W        W15569   8.288  35.383   0.460
47152W        W15570  36.547   2.254   0.863
47153W        W15571   8.693  26.546   1.766
47154W        W15572  22.615  37.373  12.532
47155W        W15573  24.079  33.060  11.382
47156W        W15574  37.939  38.978  10.944
47157W        W15575  36.442  18.114   4.729
47158W        W15576  32.463   0.834   0.246
47159W        W15577   8.269   2.777  12.082
47160W        W15578   0.950  34.926  14.927
47161W        W15579   1.799  24.623   0.799
47162W        W15580  36.494  22.612  12.342
47163W        W15581  21.047  17.292   2.348
47164W        W15582  36.359  40.334  14.783
47165W        W15583  29.952  40.350  11.066
47166W        W15584  25.590  19.735   5.166
47167W        W15585  39.860  39.451   0.860
47168W        W15586  18.184   0.777  12.424
47169W        W15587  44.911  39.550   4.829
47170W        W15588  14.205   6.828  11.372
47171W        W15589  40.021  19.203  10.542
47172W        W15590  24.604   1.840   4.212
47173W        W15591  33.387  22.548   1.895
47174W        W15592   5.749   6.195   0.247
47175W        W15593  28.991  17.061  11.582
47176W        W15594  26.602  12.296   3.855
47177W        W15595  32.426  16.076   2.227
47178W        W15596  42.827  28.478   0.776
47179W        W15597   1.966   7.299  13.801
47180W        W15598   2.835   4.907  13.899
47181W        W15599   4.823  34.076   0.849
47182W        W15600  35.467  21.108   4.600
47183W        W15601   4.877  20.556   3.860
47184W        W15602   0.250  33.916  13.959
47185W        W15603  37.025  33.915   3.855
47186W        W15604  44.824  22.213   0.457
47187W        W15605  12.834  44.494  11.467
47188W        W15606  13.201  23.582  10.101
47189W        W15607  18.750  29.167   0.880
47190W        W15608  11.721  27.543   1.333
47191W        W15609  40.546   1.899  10.954
47192W        W15610  39.823   6.269  11.591
47193W        W15611   6.876  12.819   1.809
47194W        W15612  25.624  31.619   2.669
47195W        W15613  17.185  30.050   1.267
47196W        W15614  39.033  43.976  10.554
47197W        W15615   1.342  16.679  13.970
47198W        W15616  25.123  33.918  14.450
47199W        W15617  29.037  37.942   0.456
47200W        W15618   6.394  20.070  12.484
47201W        W15619   2.310  21.680   4.790
47202W        W15620  37.074  32.964  12.357
47203W        W15621   1.732   7.830   1.259
47204W        W15622  11.658  19.549   2.195
47205W        W15623  14.339  16.644   4.743
47206W        W15624  40.022   2.421  14.828
47207W        W15625  25.578  24.594   4.782
47208W        W15626   6.197  19.204   4.632
47209W        W15627  17.795  32.482  12.487
47210W        W15628  11.629  32.095   4.606
47211W        W15629  13.118  35.978  14.967
47212W        W15630  34.932  30.502   1.250
47213W        W15631  39.361  43.340   3.215
47214W        W15632  28.549  16.129  13.955
47215W        W15633  32.481  27.664  14.824
47216W        W15634  41.901  24.056  13.023
47217W        W15635   7.887   5.387   1.398
47218W        W15636  40.997  34.113  12.440
47219W        W15637  32.902  27.181   0.869
47220W        W15638  10.186  42.924   4.778
47221W        W15639   3.766  23.559   3.233
47222W        W15640  26.481  38.925   2.891
47223W        W15641  26.118  15.199  11.595
47224W        W15642  10.763  38.017  11.983
47225W        W15643  40.007  43.867  12.914
47226W        W15644  35.865  29.452  10.601
47227W        W15645   5.797   7.244  14.794
47228W        W15646  31.036   8.382  12.354
47229W        W15647  15.148  12.350   2.864
47230W        W15648  24.036   5.334  11.572
47231W        W15649  29.554  14.771  10.529
47232W        W15650   3.378  41.890   5.188
47233W        W15651  19.059  12.256   5.136
47234W        W15652   2.265   7.705   4.298
47235W        W15653   2.398  26.655   4.798
47236W        W15654  31.896  34.610   4.133
47237W        W15655  37.566  39.902  14.862
47238W        W15656  16.675  36.007   0.312
47239W        W15657  38.898  16.775   1.715
47240W        W15658  41.388   6.719   0.261
47241W        W15659  29.060  10.652  10.513
47242W        W15660   6.236  38.551   2.332
47243W        W15661  24.694  24.070  14.298
47244W        W15662  31.454  10.350   5.165
47245W        W15663   8.283  24.479   2.829
47246W        W15664  20.203  25.565   4.268
47247W        W15665  34.030  17.139   4.819
47248W        W15666  17.599  34.499  14.306
47249W        W15667  10.362  10.636  13.388
47250W        W15668  15.584  43.885  11.558
47251W        W15669  17.122  29.497  10.508
47252W        W15670  44.318  14.280  11.516
47253W        W15671  18.724  42.327   1.219
47254W        W15672  34.963  29.658  12.494
47255W        W15673   9.845  27.180   1.349
47256W        W15674  28.989  19.699   4.179
47257W        W15675  17.777  32.467  13.814
47258W        W15676  14.181  41.464   1.756
47259W        W15677   8.226  15.811   4.342
47260W        W15678  37.948  37.407   1.885
47261W        W15679  25.023  25.976   1.290
47262W        W15680  31.977   3.287   2.758
47263W        W15681  10.338  27.161  14.813
47264W        W15682  26.498   8.372   5.150
47265W        W15683  23.040  40.521   1.212
47266W        W15684  10.280   0.848  10.569
47267W        W15685  25.554   1.240  14.924
47268W        W15686  23.508  11.725   1.793
47269W        W15687  35.558  24.978   1.914
47270W        W15688  43.318   4.859   2.680
47271W        W15689  26.964  34.877   0.879
47272W        W15690  36.942   1.781  11.460
47273W        W15691  10.675  23.625   3.256
47274W        W15692  34.913  37.433  10.445
47275W        W15693  19.248  30.932  13.397
47276W        W15694  23.237  20.267   4.286
47277W        W15695  32.537   1.412   1.820
47278W        W15696  16.251  23.524  14.450
47279W        W15697  20.752  20.236   3.725
47280W        W15698  27.063  18.749  12.497
47281W        W15699   5.849   7.253  14.391
47282W        W15700  10.306   6.818  10.898
47283W        W15701  27.942  37.404   1.899
47284W        W15702   2.364  31.565  14.923
47285W        W15703   7.181   4.293   3.662
47286W        W15704  36.591  40.953   4.168
47287W        W15705  14.708   3.225  11.050
47288W        W15706   3.227  19.763   0.387
47289W        W15707  23.146  18.127  14.282
47290W        W15708  19.636  35.043  12.384
47291W        W15709   8.851  24.710  14.275
47292W        W15710  19.772  28.072   4.298
47293W        W15711  40.352  33.958   4.157
47294W        W15712  10.725  31.120   3.822
47295W        W15713  36.528  43.345   0.412
47296W        W15714   7.177  34.966  13.978
47297W        W15715  39.927   9.290   1.353
47298W        W15716   8.841  25.145   0.748
47299W        W15717  29.511  44.897   3.760
47300W        W15718   3.335  23.162  11.562
47301W        W15719   9.800  34.498  12.371
47302W        W15720  43.866  26.470   2.286
47303W        W15721  26.684  23.554   3.659
47304W        W15722  39.493  26.137   0.764
47305W        W15723  38.895  11.298   2.188
47306W        W15724  33.624  20.667  14.383
47307W        W15725  11.835  39.451   0.374
47308W        W15726  32.528  23.527  11.588
47309W        W15727  35.569  37.472   4.183
47310W        W15728   0.798  41.531   4.299
47311W        W15729  35.973   9.808   3.305
47312W        W15730  42.355  17.712   1.439
47313W        W15731   4.315   7.386  12.836
47314W        W15732  17.603  41.855  13.826
47315W        W15733  41.349  39.397   1.702
47316W        W15734  39.879  29.947   4.636
47317W        W15735  39.487  38.060   0.353
47318W        W15736   0.892  29.432  10.463
47319W        W15737  24.669  10.298  13.419
47320W        W15738  34.937  21.534  13.995
47321W        W15739  37.357  40.810   3.633
47322W        W15740  15.086  40.891  13.425
47323W        W15741  37.526  44.303  12.884
47324W        W15742  32.540  14.202  10.444
47325W        W15743  10.353  40.039   0.851
47326W        W15744  32.413  39.878   4.752
47327W        W15745  38.376  29.607   1.917
47328W        W15746  26.967   7.320  14.924
47329W        W15747  11.752  35.407  10.526
47330W        W15748  35.595  16.802  10.466
47331W        W15749  34.978   6.792  13.933
47332W        W15750  17.672  16.264  11.936
47333W        W15751  41.518  28.995   2.378
47334W        W15752  25.052  35.074   2.369
47335W        W15753   4.795  12.247  12.561
47336W        W15754   2.338  38.922   4.154
47337W        W15755   2.469  39.959   2.824
47338W        W15756   1.932  17.121   3.347
47339W        W15757   0.410  35.461   2.752
47340W        W15758  10.731   4.716   3.226
47341W        W15759  28.068   1.331   0.268
47342W        W15760  11.357  30.564  14.429
47343W        W15761  43.800  24.661  12.388
47344W        W15762  26.688  25.175   2.368
47345W        W15763  25.174  10.350   4.249
47346W        W15764   7.711  32.036   1.386
47347W        W15765  44.797  32.399   2.266
47348W        W15766  26.171  19.082  10.903
47349W        W15767  14.225   0.955  13.403
47350W        W15768   0.373  31.542   0.446
47351W        W15769  23.575  27.176  13.414
47352W        W15770  18.159  27.136   2.260
47353W        W15771  17.709  23.123  12.951
47354W        W15772   9.199  13.809   4.290
47355W        W15773  21.210  31.960  11.475
47356W        W15774  32.903  36.422  12.841
47357W        W15775  12.146  15.765  10.595
47358W        W15776  11.156  25.619   0.366
47359W        W15777  36.360  42.851  14.287
47360W        W15778   4.898  35.404  13.883
47361W        W15779  35.012  19.603  11.109
47362W        W15780  28.561  21.204  14.363
47363W        W15781  34.042  15.772  13.911
47364W        W15782  39.503  32.489   3.729
47365W        W15783  22.230   6.382  10.616
47366W        W15784   1.840   4.939  10.002
47367W        W15785  10.289  34.470  14.816
47368W        W15786  17.106  19.535  10.075
47369W        W15787  23.520  39.463   2.372
47370W        W15788  27.030  27.084  13.894
47371W        W15789  42.311  38.543  10.603
47372W        W15790   6.293  37.851   4.774
47373W        W15791  29.100  35.529   1.233
47374W        W15792  33.002   2.380   0.242
47375W        W15793  13.157  32.415   3.385
47376W        W15794  35.596  22.738  14.782
47377W        W15795   5.689   7.871  13.391
47378W        W15796  26.474  39.057  14.800
47379W        W15797  35.547  16.678  14.385
47380W        W15798   1.428  27.166   2.902
47381W        W15799  26.671  27.558   1.809
47382W        W15800  23.047  31.497   2.702
47383W        W15801  38.422   0.416  10.586
47384W        W15802  34.385  13.221   4.152
47385W        W15803  24.518  41.437   0.852
47386W        W15804  35.077  27.649  12.369
47387W        W15805  26.098  34.596   1.228
47388W        W15806  34.049  39.926   4.704
47389W        W15807  22.604   1.775   4.130
47390W        W15808  44.765   3.937   4.180
47391W        W15809  25.520   9.318  14.469
47392W        W15810  17.142  15.725  13.547
47393W        W15811  38.374  12.645  12.024
47394W        W15812  35.946  27.685   0.891
47395W        W15813  11.659  36.856  10.499
47396W        W15814  23.143   4.728  13.824
47397W        W15815  43.785  32.951   1.300
47398W        W15816  39.979   2.855  12.451
47399W        W15817  30.457   1.796  10.627
47400W        W15818  21.253   7.742  10.482
47401W        W15819  21.019  14.259  14.294
47402W        W15820  21.176   0.948  11.378
47403W        W15821  18.145  26.524  14.466
47404W        W15822  29.611  25.536  11.861
47405W        W15823  22.075  21.632  14.422
47406W        W15824  22.096  28.074   2.226
47407W        W15825  34.920  33.065  13.456
47408W        W15826  15.643  18.059  11.376
47409W        W15827   2.238  26.696   2.666
47410W        W15828  39.377  25.671  10.453
47411W        W15829  35.919  33.537   0.379
47412W        W15830   2.870   6.820   1.328
47413W        W15831   5.705  20.114  13.444
47414W        W15832  17.661   5.807   2.724
47415W        W15833   1.323  37.892  13.896
47416W        W15834  17.631  43.940   1.348
47417W        W15835  34.591   7.345  11.889
47418W        W15836  36.471  39.434   2.736
47419W        W15837  39.952  39.959   1.351
47420W        W15838  37.856   8.719   5.087
47421W        W15839   4.714  17.726  13.461
47422W        W15840   9.357  27.678  11.440
47423W        W15841  21.531  37.866   3.186
47424W        W15842  26.639  29.556  11.113
47425W        W15843  41.371  41.914   9.478
47426W        W15844  29.971   4.422   4.352
47427W        W15845  12.703  33.990   3.680
47428W        W15846  28.942  20.067   1.921
47429W        W15847   9.890  11.724   2.204
47430W        W15848  38.508  28.645   3.812
47431W        W15849  17.066   2.821  12.076
47432W        W15850  29.641  39.811  10.562
47433W        W15851  38.985  28.504   2.212
47434W        W15852  25.198   5.725   2.829
47435W        W15853  22.688   9.811   3.686
47436W        W15854  39.515  23.990  12.437
47437W        W15855   4.794  27.603   4.135
47438W        W15856  23.019  29.615  14.431
47439W        W15857  34.439  39.872  14.431
47440W        W15858   2.738  17.168   3.211
47441W        W15859   3.837  19.162  13.436
47442W        W15860  21.225  13.614  13.492
47443W        W15861  32.592   3.889  13.325
47444W        W15862  37.355  25.030  14.953
47445W        W15863  41.305  35.981   1.912
47446W        W15864  32.125  23.502   4.346
47447W        W15865  25.577  29.045   1.309
47448W        W15866  27.033   3.954   2.355
47449W        W15867   4.205  35.479  12.067
47450W        W15868  26.700   0.875  10.640
47451W        W15869  36.063   9.234  14.353
47452W        W15870  18.072  19.549   4.708
47453W        W15871  19.692  25.531   0.342
47454W        W15872  40.993  14.815  14.774
47455W        W15873  12.653  23.114   3.743
47456W        W15874  23.042  16.599   4.334
47457W        W15875  18.061   7.258   0.309
47458W        W15876  41.488  39.822  14.466
47459W        W15877   8.741  11.275   0.330
47460W        W15878  18.719  35.957  12.559
47461W        W15879   0.819  14.287  14.410
47462W        W15880  29.599   2.922  11.465
47463W        W15881  37.510  44.869  10.467
47464W        W15882  29.972   5.321   0.251
47465W        W15883   8.399  15.604   1.229
47466W        W15884  38.348  14.675  10.513
47467W        W15885  21.189   9.719  13.956
47468W        W15886  36.919   4.359   1.218
47469W        W15887  43.855   6.898  13.454
47470W        W15888  36.479   0.876   2.372
47471W        W15889  31.498  24.705   4.293
47472W        W15890  10.233  13.348   0.945
47473W        W15891  40.028  33.084  12.041
47474W        W15892  36.093  21.558  14.774
47475W        W15893  36.390   5.690  13.417
47476W        W15894  25.155  36.003  13.976
47477W        W15895  26.640  19.594   0.816
47478W        W15896  27.659  24.649   0.473
47479W        W15897  39.350   9.299   1.364
47480W        W15898  28.027   3.224   1.888
47481W        W15899   2.403   1.479   0.435
47482W        W15900  26.957  30.531   0.250
47483W        W15901  36.554  22.538  10.084
47484W        W15902  31.465  29.533  14.487
47485W        W15903   4.874   7.769  12.850
47486W        W15904  17.180  32.441  11.866
47487W        W15905  21.682  20.261  14.306
47488W        W15906  15.822   3.433  11.389
47489W        W15907   6.351  14.825  11.027
47490W        W15908  33.569  30.430   3.830
47491W        W15909  40.892  29.946  13.406
47492W        W15910  33.894   1.932   0.281
47493W        W15911   1.273  31.557   1.358
47494W        W15912  40.462   7.354   1.398
47495W        W15913  28.167  36.962   2.727
47496W        W15914  27.117  29.944   0.745
47497W        W15915  42.836   6.411   2.808
47498W        W15916  19.577   5.197  12.544
47499W        W15917  41.531  39.458  11.552
47500W        W15918  12.715  42.308   3.654
47501W        W15919  26.966  32.934  13.024
47502W        W15920  12.619  33.015  12.479
47503W        W15921  31.055  24.040   2.324
47504W        W15922   4.255  18.131   3.671
47505W        W15923  25.673  36.439   0.907
47506W        W15924  15.668  42.515   3.359
47507W        W15925  21.645   9.332   0.297
47508W        W15926   9.183   8.370   1.274
47509W        W15927  34.005   7.182   3.163
47510W        W15928  30.143  30.468  14.505
47511W        W15929  17.103  19.043  12.935
47512W        W15930  18.177  35.359   3.652
47513W        W15931  13.264  21.737   2.292
47514W        W15932  32.959  43.013   4.801
47515W        W15933  38.845  44.852   4.620
47516W        W15934   6.400   5.732  14.813
47517W        W15935  12.313  29.060  11.386
47518W        W15936   4.876   3.342  13.432
47519W        W15937  39.012  38.918  14.960
47520W        W15938  14.607   1.851  14.927
47521W        W15939  30.080  22.684  13.527
47522W        W15940   7.361   8.178   4.604
47523W        W15941  34.010  23.678  14.319
47524W        W15942  22.128  40.437   5.120
47525W        W15943  11.623   4.236  14.784
47526W        W15944  36.971  39.020   4.762
47527W        W15945  24.705   1.454  11.601
47528W        W15946   7.683  31.912   3.237
47529W        W15947  14.769   5.384  13.311
47530W        W15948  18.553   2.256  13.514
47531W        W15949  43.502  30.039   4.705
47532W        W15950  23.573  43.319   4.192
47533W        W15951  37.859  38.863   1.852
47534W        W15952   1.820   0.864  13.805
47535W        W15953   6.230  24.225  12.424
47536W        W15954  22.231  26.166  13.340
47537W        W15955  15.137  14.715  10.935
47538W        W15956  16.630   1.449  11.034
47539W        W15957  32.064  15.220  13.014
47540W        W15958  35.926  31.581  12.420
47541W        W15959  26.013  23.654  11.070
47542W        W15960   9.829  38.486  13.447
47543W        W15961  40.355  43.271  13.951
47544W        W15962  44.841  32.579  10.962
47545W        W15963   3.369  37.965   0.284
47546W        W15964  24.979  11.266   2.325
47547W        W15965   7.748  38.969  11.471
47548W        W15966  32.405   0.898   2.307
47549W        W15967  26.483  12.252  11.011
47550W        W15968  21.534   7.414  13.043
47551W        W15969  21.201  41.998   5.137
47552W        W15970  11.829  36.960  14.416
47553W        W15971  22.550  33.412   9.961
47554W        W15972  10.366   7.382   2.378
47555W        W15973  24.501  40.921  12.945
47556W        W15974  31.979  44.878  11.862
47557W        W15975  32.488  28.517   2.756
47558W        W15976  25.135  15.251   4.191
47559W        W15977  41.365  39.023   4.831
47560W        W15978  12.218   3.442  11.903
47561W        W15979  36.919  29.974  11.960
47562W        W15980  19.672  38.016  10.918
47563W        W15981   7.278  28.557  11.963
47564W        W15982  30.436  20.673  11.441
47565W        W15983   9.392  11.199  10.889
47566W        W15984   2.820  31.497  14.496
47567W        W15985   5.386  44.871   3.792
47568W        W15986   1.864  11.856  14.454
47569W        W15987   2.895   4.374  13.973
47570W        W15988  41.420  21.544  14.774
47571W        W15989  11.258   4.817   0.366
47572W        W15990  42.982  19.050  11.862
47573W        W15991  15.290  35.372  13.459
47574W        W15992   0.812  35.462   3.277
47575W        W15993  15.630   4.805  13.961
47576W        W15994  37.053   5.702  13.481
47577W        W15995   9.687  24.085  12.396
47578W        W15996  28.172  32.513   1.779
47579W        W15997   7.906  38.469  14.771
47580W        W15998  22.057  20.708   0.863
47581W        W15999   7.405  38.845   2.671
47582W        W16000  19.280  39.438   2.334
47583W        W16001  22.562   6.195  12.384
47584W        W16002  21.256  21.245  10.010
47585W        W16003  27.152   7.250   5.267
47586W        W16004  36.486  20.614  10.985
47587W        W16005  33.088  30.074   2.807
47588W        W16006  31.093  39.988   2.370
47589W        W16007  14.187  30.101  12.906
47590W        W16008  15.613   3.850   2.700
47591W        W16009  20.534  27.982  13.051
47592W        W16010  10.188  32.580   3.684
47593W        W16011   8.273  15.208   1.261
47594W        W16012   9.739  18.159   4.796
47595W        W16013  18.059  14.677   5.128
47596W        W16014  30.043  19.588  12.560
47597W        W16015  24.717   7.900  14.404
47598W        W16016  33.622   2.825  12.445
47599W        W16017   8.162  37.371   0.329
47600W        W16018   7.811  32.418  14.959
47601W        W16019   5.794  23.086  13.839
47602W        W16020   1.358  11.855  12.834
47603W        W16021  22.082  41.534   0.888
47604W        W16022  20.735   6.209   1.759
47605W        W16023  21.210  24.532   0.960
47606W        W16024  35.051  20.759  10.457
47607W        W16025  12.739  33.551   0.407
47608W        W16026  34.910  29.153  10.634
47609W        W16027  27.691   3.785  11.041
47610W        W16028  19.621  32.135  14.776
47611W        W16029  15.154  12.664  13.450
47612W        W16030   1.367   7.717   2.836
47613W        W16031  15.713  40.352  13.475
47614W        W16032   5.347  21.234   2.727
47615W        W16033   6.778  15.643  12.024
47616W        W16034  38.988  33.937   0.275
47617W        W16035   8.764   1.286  14.298
47618W        W16036   4.449   6.786   3.772
47619W        W16037  16.139   5.354   4.113
47620W        W16038  22.025  16.682  12.000
47621W        W16039  20.525   7.313  11.873
47622W        W16040   0.400  28.001  12.359
47623W        W16041   0.780  37.028   4.659
47624W        W16042  14.611  33.574  14.856
47625W        W16043   8.816  41.402  12.540
47626W        W16044  12.621  18.625   3.283
47627W        W16045   4.425  33.101   4.681
47628W        W16046  41.297  36.031   4.680
47629W        W16047  30.539  40.016  10.891
47630W        W16048  27.607  43.360  12.844
47631W        W16049  15.260   8.387   1.376
47632W        W16050  35.043  34.955   4.182
47633W        W16051  25.658  13.156  13.836
47634W        W16052  27.582   0.875  14.819
47635W        W16053  39.954  38.391   1.727
47636W        W16054  43.812  39.527  13.528
47637W        W16055   2.885  17.684   4.658
47638W        W16056   2.240  33.944  14.379
47639W        W16057   7.381  37.883  13.958
47640W        W16058   8.200  18.285  12.924
47641W        W16059   6.242  31.468   0.780
47642W        W16060   1.342   0.858   1.854
47643W        W16061  44.817  29.441   0.726
47644W        W16062  14.197  32.049   3.852
47645W        W16063  44.862  14.149   0.798
47646W        W16064  37.914  33.950   1.827
47647W        W16065  35.462  30.460  11.465
47648W        W16066  37.569  30.456  11.873
47649W        W16067  16.166   7.412  13.045
47650W        W16068   3.238  34.585   2.214
47651W        W16069  19.276   4.936   2.836
47652W        W16070  29.606  18.089  10.505
47653W        W16071  12.675  39.808  11.584
47654W        W16072  36.554  24.135   1.423
47655W        W16073  18.182  17.716  11.524
47656W        W16074  44.833  23.521   2.251
47657W        W16075  29.951  27.035  12.364
47658W        W16076  16.261   8.344  13.025
47659W        W16077  37.878   0.776   2.236
47660W        W16078   6.277   2.303   0.937
47661W        W16079   2.410  10.212  10.537
47662W        W16080   7.282  38.058   4.199
47663W        W16081  18.613  14.254   4.333
47664W        W16082  33.068  20.588  12.371
47665W        W16083  24.196  12.236  14.350
47666W        W16084  37.026  16.669  11.048
47667W        W16085  41.427  43.804   1.777
47668W        W16086  44.843  41.364   3.820
47669W        W16087  17.162  33.902   1.728
47670W        W16088  37.451   2.910   0.963
47671W        W16089   6.186  12.298  11.052
47672W        W16090  35.574   3.888  10.502
47673W        W16091  16.612  35.978  12.851
47674W        W16092  17.706  31.909   1.263
47675W        W16093   4.937  14.740  13.932
47676W        W16094  15.327   2.365  10.470
47677W        W16095  43.457  14.300   9.444
47678W        W16096  43.006   8.866   3.854
47679W        W16097   5.908  26.539  10.602
47680W        W16098  32.932   1.404  13.412
47681W        W16099  42.289  13.643   4.303
47682W        W16100  33.974  41.299   1.788
47683W        W16101  20.210  10.677   2.771
47684W        W16102  34.926   7.390  13.938
47685W        W16103  31.916  15.168   1.788
47686W        W16104  30.139  26.063  14.399
47687W        W16105  25.001   6.301  12.348
47688W        W16106  39.421  30.527   1.277
47689W        W16107   6.888  11.731  12.054
47690W        W16108   0.328  16.076   2.275
47691W        W16109  25.042  32.514  13.061
47692W        W16110  44.408  10.786   3.156
47693W        W16111  31.481  21.078   0.785
47694W        W16112   4.711  13.766  13.539
47695W        W16113  38.557  26.190  10.895
47696W        W16114   9.346  19.149  11.461
47697W        W16115  14.756  33.918   1.356
47698W        W16116  11.816  28.596  11.957
47699W        W16117   8.875   1.793   2.839
47700W        W16118   7.777  32.921   2.784
47701W        W16119   1.445  20.035  10.643
47702W        W16120  15.649  27.626  12.004
47703W        W16121  30.103  35.599   2.701
47704W        W16122  34.985  30.649   1.702
47705W        W16123   4.375  38.443   2.333
47706W        W16124   4.293  40.993  14.431
47707W        W16125  35.565  12.311   2.380
47708W        W16126  13.703  22.684  14.772
47709W        W16127  25.027  21.059  12.896
47710W        W16128   2.896  28.681  10.460
47711W        W16129  10.302   3.328   0.433
47712W        W16130  14.782   5.338  14.780
47713W        W16131  29.597   7.734  14.275
47714W        W16132  34.483  43.300  12.013
47715W        W16133  31.431  20.149   3.706
47716W        W16134   1.255  20.208   4.335
47717W        W16135  27.497  21.586   0.780
47718W        W16136   9.868  27.535  13.446
47719W        W16137  42.922  34.408  11.039
47720W        W16138  19.554  12.643  13.341
47721W        W16139  37.477  26.017   1.297
47722W        W16140  16.730  16.720  12.827
47723W        W16141  36.453  39.321   4.642
47724W        W16142   4.206  15.804  10.483
47725W        W16143   5.792  21.249   0.365
47726W        W16144   5.718  17.074  11.551
47727W        W16145   8.163  10.256  11.026
47728W        W16146  26.959  41.043  13.546
47729W        W16147  15.580  33.876  10.467
47730W        W16148   6.197  10.159   0.877
47731W        W16149  31.140   8.755  12.944
47732W        W16150   0.415  31.954  11.977
47733W        W16151  35.020  30.602   5.150
47734W        W16152  12.304  23.572  14.317
47735W        W16153  25.671  17.696   3.669
47736W        W16154  22.508  44.975   3.316
47737W        W16155  11.711   9.825   3.323
47738W        W16156  20.064  40.406  10.427
47739W        W16157   3.361  15.264  11.875
47740W        W16158  44.503  13.167  11.390
47741W        W16159  38.887  16.308   2.876
47742W        W16160  20.538  44.347  13.381
47743W        W16161  36.093  34.440  14.459
47744W        W16162  11.247  16.715  13.912
47745W        W16163   3.360  40.020   4.794
47746W        W16164  27.543  14.213  13.548
47747W        W16165   9.224  21.705  12.478
47748W        W16166  22.236  32.443  10.486
47749W        W16167  26.481  35.433  10.944
47750W        W16168  40.946  27.165  12.509
47751W        W16169  37.890  34.043  14.324
47752W        W16170  31.611  19.556  13.514
47753W        W16171  11.662  18.146   1.826
47754W        W16172  27.498   4.450  10.992
47755W        W16173   9.869  20.152   0.425
47756W        W16174  25.999  25.068   0.345
47757W        W16175  38.404  13.193   2.320
47758W        W16176  14.200  32.558   3.298
47759W        W16177  23.712  43.444  13.856
47760W        W16178  19.254  35.981  11.415
47761W        W16179  39.463  25.531  12.072
47762W        W16180  42.859   2.768  11.574
47763W        W16181  43.483  12.131  13.849
47764W        W16182  18.126  17.563  13.471
47765W        W16183  12.177  33.612  13.853
47766W        W16184  15.621  14.609   4.823
47767W        W16185  13.316  40.848   4.601
47768W        W16186  11.805  14.107   2.250
47769W        W16187  17.584  22.604   0.244
47770W        W16188  13.820  24.675   3.656
47771W        W16189   4.779  34.948   0.280
47772W        W16190  13.673  38.532   3.275
47773W        W16191   8.186  18.729  13.316
47774W        W16192  14.701  13.257  11.442
47775W        W16193  13.603   5.217  11.955
47776W        W16194  16.632  19.636   3.149
47777W        W16195   3.246  16.122  11.871
47778W        W16196  41.889  36.423  12.445
47779W        W16197  18.131  11.637   2.375
47780W        W16198  33.543  25.643  10.096
47781W        W16199  14.624  21.693  14.358
47782W        W16200  18.686  37.465   3.322
47783W        W16201   3.951   2.270  14.288
47784W        W16202  17.069  40.381  10.599
47785W        W16203  13.638  19.181   2.252
47786W        W16204  26.193  12.158   0.334
47787W        W16205  15.680  22.169   1.731
47788W        W16206  20.220  29.562  12.433
47789W        W16207  37.422  25.103  11.965
47790W        W16208   4.899   5.822   2.714
47791W        W16209  32.067   8.260  14.469
47792W        W16210   0.473  42.480  14.297
47793W        W16211   7.871  14.140  13.891
47794W        W16212  36.933   8.795  14.429
47795W        W16213  34.034  40.400   3.370
47796W        W16214   0.410  18.673  10.958
47797W        W16215   4.744   4.734   4.308
47798W        W16216   6.772  38.949   2.358
47799W        W16217  27.183  22.542   2.823
47800W        W16218  17.735   8.222   4.352
47801W        W16219   0.434  37.430   4.740
47802W        W16220  10.734  36.012   1.901
47803W        W16221  15.621  30.070   2.370
47804W        W16222   3.434  41.919  14.837
47805W        W16223  24.029  25.558  11.999
47806W        W16224  39.483   4.780   2.758
47807W        W16225  22.512  11.643   3.374
47808W        W16226  16.271  36.984   0.738
47809W        W16227   7.800  33.610  10.538
47810W        W16228   6.235  34.446  13.966
47811W        W16229  38.490  33.399   0.928
47812W        W16230  18.661  20.125   1.759
47813W        W16231  31.584  22.663   1.228
47814W        W16232  25.086  35.080  12.439
47815W        W16233   3.339  19.212  13.016
47816W        W16234  37.023  11.849  12.516
47817W        W16235  35.897  14.189  11.875
47818W        W16236  34.968   5.392   2.347
47819W        W16237  22.178   8.785   4.825
47820W        W16238  43.888   6.342  13.989
47821W        W16239  19.582  36.410   2.352
47822W        W16240  22.104  23.077   4.795
47823W        W16241  38.533  31.899  11.608
47824W        W16242  18.164  29.470   4.604
47825W        W16243  25.691  20.760  12.067
47826W        W16244  19.745   9.382   1.808
47827W        W16245   4.781  32.589  13.517
47828W        W16246  18.717   0.974  14.891
47829W        W16247  16.771  16.590   1.388
47830W        W16248   4.339  15.772  12.513
47831W        W16249  34.107  42.918   2.307
47832W        W16250  41.037   2.261   1.879
47833W        W16251  26.034  10.693  10.637
47834W        W16252  34.022   7.905   0.841
47835W        W16253   7.873  34.934   4.746
47836W        W16254   2.323  14.802   2.271
47837W        W16255  37.509  33.546   2.361
47838W        W16256  26.200   9.290  12.443
47839W        W16257  19.048  22.614  11.011
47840W        W16258  35.933  16.687  11.422
47841W        W16259  33.938  13.845  13.034
47842W        W16260  43.334  27.163  13.486
47843W        W16261  36.384  16.778   3.690
47844W        W16262  23.647  25.066   3.744
47845W        W16263   5.327  21.152   3.742
47846W        W16264   2.226  30.072  10.915
47847W        W16265  27.446  29.151   0.253
47848W        W16266  44.869  35.481   4.627
47849W        W16267  42.386  18.228   0.358
47850W        W16268  43.474  42.033  14.759
47851W        W16269  32.542   9.318  13.967
47852W        W16270  37.965   3.326  12.353
47853W        W16271  39.337   3.828   2.680
47854W        W16272  31.427  25.498   3.219
47855W        W16273  19.239  39.007  14.993
47856W        W16274   5.313  27.062   0.786
47857W        W16275  26.637  36.934  14.759
47858W        W16276  12.299  43.430   4.644
47859W        W16277  30.477  32.960   0.266
47860W        W16278  22.609  15.722  12.075
47861W        W16279  13.132  23.231   0.456
47862W        W16280  35.106  12.348  13.495
47863W        W16281   9.870  15.262  13.018
47864W        W16282  25.147  33.963   4.348
47865W        W16283  21.177  39.363  14.506
47866W        W16284   9.854   0.936   2.351
47867W        W16285   7.722  34.964   1.811
47868W        W16286  11.699  39.925   2.243
47869W        W16287  19.076  39.025   2.398
47870W        W16288  20.255  11.662   3.708
47871W        W16289   2.965  30.036  14.478
47872W        W16290  35.510   0.886  13.969
47873W        W16291  19.146  31.971   0.247
47874W        W16292  31.128  22.139   1.413
47875W        W16293  14.302  18.593  13.322
47876W        W16294  29.124  19.629   2.221
47877W        W16295  23.985  19.754  12.489
47878W        W16296  15.266  16.629   3.188
47879W        W16297   5.819  30.116  13.058
47880W        W16298  23.660  16.693   3.186
47881W        W16299  12.822  23.134  11.548
47882W        W16300   7.219  11.338  14.901
47883W        W16301  41.528  20.608  14.509
47884W        W16302  35.942   4.273  12.414
47885W        W16303  29.111  13.349   3.802
47886W        W16304  10.292  43.974   4.809
47887W        W16305  27.087  21.634  12.403
47888W        W16306  20.153  18.264  10.469
47889W        W16307  26.536  39.921   3.825
47890W        W16308  29.020   0.867   4.148
47891W        W16309   7.390   8.899  10.491
47892W        W16310  11.666   8.253  14.439
47893W        W16311  24.164  26.084   1.411
47894W        W16312  10.831  16.636   1.755
47895W        W16313  37.045  35.465  10.456
47896W        W16314  41.838  39.829   4.127
47897W        W16315  28.059  43.766  11.433
47898W        W16316  33.918  37.069   0.270
47899W        W16317  22.643  43.931   0.752
47900W        W16318  37.416  24.522  12.955
47901W        W16319  15.223  17.242   4.765
47902W        W16320   4.277  15.800  14.786
47903W        W16321  23.984  19.132   3.239
47904W        W16322  39.377  16.234   0.421
47905W        W16323  42.900   1.799   3.172
47906W        W16324  43.794  10.152  11.460
47907W        W16325  13.274  32.034  12.940
47908W        W16326  31.479  25.160  14.923
47909W        W16327  16.160  26.087  13.524
47910W        W16328  31.527  31.445   1.755
47911W        W16329   5.194  28.017  13.361
47912W        W16330  30.162  33.516  14.873
47913W        W16331  39.336  22.583  13.463
47914W        W16332   4.412  21.707  11.552
47915W        W16333  34.943  44.806  13.912
47916W        W16334  40.337   4.858  12.830
47917W        W16335  41.513  33.054  10.629
47918W        W16336  40.504   1.802   2.661
47919W        W16337  22.564  37.517   3.172
47920W        W16338  36.589   0.433   3.708
47921W        W16339  35.899  13.165  11.478
47922W        W16340  19.704  11.359   5.565
47923W        W16341  15.746  13.149  13.316
47924W        W16342   8.690  38.333   1.885
47925W        W16343   0.346   5.750   1.340
47926W        W16344   2.418  13.243   3.755
47927W        W16345  32.563   1.768   4.208
47928W        W16346  39.406  23.678  11.911
47929W        W16347  12.228   5.274   2.815
47930W        W16348  22.071  40.340  13.912
47931W        W16349   3.739  41.366   0.770
47932W        W16350  13.225  24.135  12.378
47933W        W16351   7.703  22.604  10.067
47934W        W16352  37.386  30.097  14.997
47935W        W16353   8.794  38.403  13.921
47936W        W16354  31.421  26.673  14.803
47937W        W16355  40.502  33.088  12.553
47938W        W16356  13.749  23.090   4.742
47939W        W16357  21.203  18.253  13.865
47940W        W16358  10.160   5.813  14.872
47941W        W16359  27.947   8.722  11.477
47942W        W16360  11.827  33.917  12.985
47943W        W16361   8.846  12.130  11.375
47944W        W16362   1.271   1.354  12.490
47945W        W16363  39.507  38.565   4.674
47946W        W16364  18.556  18.091  11.916
47947W        W16365  40.860  44.495  12.419
47948W        W16366  17.300   0.950  13.460
47949W        W16367  14.146  27.127   4.230
47950W        W16368  19.218  23.161  14.937
47951W        W16369  34.081  22.996  12.438
47952W        W16370   4.782  10.254  13.055
47953W        W16371   9.227  21.673  11.392
47954W        W16372   1.799  12.815   2.280
47955W        W16373  28.497  26.087  14.820
47956W        W16374  15.674  25.569  13.805
47957W        W16375  35.982  27.943  14.276
47958W        W16376  34.038  27.653   2.301
47959W        W16377  23.544  44.404   2.292
47960W        W16378  41.935  31.554   4.607
47961W        W16379  35.949  42.854   0.418
47962W        W16380  43.283  37.996  14.369
47963W        W16381  31.133  10.347  12.440
47964W        W16382  38.465  14.822   2.180
47965W        W16383  11.199  38.327   4.792
47966W        W16384  44.274  24.588  11.038
47967W        W16385  43.884  16.296  12.834
47968W        W16386  16.207   3.804   0.395
47969W        W16387   1.935  19.765  14.415
47970W        W16388  38.053  10.745   1.449
47971W        W16389   9.373  13.347   1.322
47972W        W16390  34.867  38.327   5.189
47973W        W16391  29.491   2.285  14.809
47974W        W16392  34.579  37.949   2.781
47975W        W16393  34.964  22.719   3.740
47976W        W16394   5.900  20.729  14.781
47977W        W16395  15.215  24.698   4.329
47978W        W16396  12.797   3.286   4.129
47979W        W16397  33.534  12.346  11.014
47980W        W16398   7.202  16.258  11.048
47981W        W16399   8.847   7.826   3.309
47982W        W16400  25.066  29.170  11.537
47983W        W16401  31.127  17.115  14.838
47984W        W16402  33.589  19.634  11.100
47985W        W16403  21.076  17.305  12.943
47986W        W16404  17.281  35.082   3.642
47987W        W16405  13.803   3.810   4.206
47988W        W16406   9.246  10.278   1.356
47989W        W16407   4.944  15.133  10.561
47990W        W16408  26.661   7.180  13.546
47991W        W16409  35.978   8.798   0.250
47992W        W16410  43.865  39.341  13.982
47993W        W16411  38.414  31.112   2.870
47994W        W16412   8.820  26.591  12.825
47995W        W16413  24.579  44.918   0.939
47996W        W16414  32.032  34.488  14.946
47997W        W16415  28.929  42.338  12.463
47998W        W16416  22.635  40.510   2.901
47999W        W16417  10.150  37.499  11.549
48000W        W16418  38.070  14.217  13.324
48001W        W16419  34.904  22.702  13.030
48002W        W16420  16.813   7.837  11.473
48003W        W16421  21.679  42.853  11.080
48004W        W16422  20.223  32.507  11.013
48005W        W16423   6.733   8.229   3.283
48006W        W16424  44.866   1.350   2.277
48007W        W16425   6.215  43.493  13.910
48008W        W16426  40.985  42.521  11.591
48009W        W16427  23.662  26.533   2.256
48010W        W16428   2.784  30.495   4.731
48011W        W16429  16.213  32.935   3.374
48012W        W16430   9.197   1.878  13.013
48013W        W16431   9.361  44.989   1.926
48014W        W16432  38.564  30.569  13.868
48015W        W16433  27.464  31.618  10.531
48016W        W16434  20.748  30.497  10.991
48017W        W16435  26.082  34.417   2.738
48018W        W16436  26.987  15.276  11.882
48019W        W16437   3.402   3.275   4.818
48020W        W16438   7.240  43.969   3.290
48021W        W16439  23.129  41.852  10.954
48022W        W16440  15.720  37.083  10.438
48023W        W16441  38.465  16.239   3.196
48024W        W16442  31.077  40.397   2.835
48025W        W16443   7.377   7.688   4.658
48026W        W16444   6.219  10.302   4.165
48027W        W16445  31.481  43.439   0.824
48028W        W16446   9.356   2.406  14.977
48029W        W16447  30.484  16.580   1.797
48030W        W16448   9.703  25.029   0.244
48031W        W16449   3.840  37.009   2.339
48032W        W16450  37.893  11.348  12.511
48033W        W16451  12.704  42.808   4.676
48034W        W16452   0.471  42.917  11.112
48035W        W16453  11.756   2.386  12.922
48036W        W16454  38.564  35.869  11.577
48037W        W16455  38.507  42.019  12.014
48038W        W16456  24.690  26.680   0.278
48039W        W16457  23.187  15.171   2.885
48040W        W16458  31.079  27.535   1.875
48041W        W16459  33.069  16.072   3.845
48042W        W16460  13.768  12.641   4.270
48043W        W16461  22.652  37.947   9.580
48044W        W16462  35.017  34.575  13.962
48045W        W16463   1.889   6.873   2.268
48046W        W16464  11.769  27.134  13.371
48047W        W16465   6.198   3.227   4.176
48048W        W16466  34.096  24.707   1.238
48049W        W16467  39.965  25.083  13.823
48050W        W16468   3.716  11.751   2.217
48051W        W16469   2.956  30.526  11.546
48052W        W16470  27.119  23.647  12.031
48053W        W16471  26.137  30.017   2.692
48054W        W16472  17.757  28.623   0.910
48055W        W16473  38.017  37.554   4.777
48056W        W16474   8.887  22.732   0.298
48057W        W16475  15.718  34.988   3.370
48058W        W16476  27.162  27.652  14.850
48059W        W16477  28.997  27.134   0.958
48060W        W16478  28.123  15.250  10.036
48061W        W16479  13.193  27.983  11.414
48062W        W16480   9.811  33.472   4.182
48063W        W16481   9.788   9.322   1.399
48064W        W16482  33.562  14.168   9.929
48065W        W16483  10.264  28.548  10.643
48066W        W16484  22.181  31.926   4.723
48067W        W16485  38.977  40.863  12.565
48068W        W16486  18.138  30.443  12.480
48069W        W16487  30.134   0.828   4.836
48070W        W16488  37.373  12.153  13.901
48071W        W16489  12.656  17.102   1.803
48072W        W16490  25.215  31.414  12.852
48073W        W16491   7.175  29.604   0.299
48074W        W16492   6.908  17.233   3.188
48075W        W16493  29.424  31.566  13.407
48076W        W16494  13.677  19.117  11.958
48077W        W16495  24.485  16.303   2.818
48078W        W16496  13.813   2.795   4.262
48079W        W16497  33.925  39.538   2.191
48080W        W16498   8.841   4.445  13.036
48081W        W16499  27.052  41.429   0.752
48082W        W16500  38.555  43.367  11.395
48083W        W16501  27.528  26.564  10.485
48084W        W16502  29.527  24.061   3.831
48085W        W16503   1.376  16.779   0.890
48086W        W16504   4.803   5.822  14.910
48087W        W16505  27.681  15.147  14.313
48088W        W16506  38.497   0.407   4.208
48089W        W16507  21.654  28.596  14.902
48090W        W16508  23.991  29.570  11.089
48091W        W16509  31.136   1.941  11.870
48092W        W16510  11.349  36.919  10.468
48093W        W16511   3.218   8.738  12.572
48094W        W16512  41.519   6.887   3.671
48095W        W16513   9.818  35.447  11.089
48096W        W16514  10.723   6.195   0.331
48097W        W16515  42.401  42.355   0.899
48098W        W16516  22.176   3.302   1.717
48099W        W16517  32.957  12.308  11.564
48100W        W16518  43.996  42.456   4.301
48101W        W16519   8.690  15.166   3.249
48102W        W16520  23.610  10.368   3.268
48103W        W16521  35.445   8.287  11.049
48104W        W16522  31.945  43.460   3.853
48105W        W16523  30.612  39.488   1.871
48106W        W16524  41.025  35.028   4.755
48107W        W16525  13.241  37.939   0.248
48108W        W16526  35.930   4.290  10.897
48109W        W16527  38.505  25.110   0.307
48110W        W16528  28.989  21.586  14.341
48111W        W16529  25.669  39.904  11.872
48112W        W16530  10.220  42.462   4.182
48113W        W16531  41.823   1.832   4.608
48114W        W16532  13.824  10.771   0.289
48115W        W16533  27.028  43.790  14.327
48116W        W16534   3.255  14.711  10.464
48117W        W16535  24.502  37.042  13.934
48118W        W16536  10.301  11.345   2.263
48119W        W16537  13.816  24.510  13.489
48120W        W16538  14.761  35.490   3.665
48121W        W16539  30.110  23.696   1.443
48122W        W16540  41.497  28.000  10.926
48123W        W16541  10.850  15.819   0.267
48124W        W16542  39.025  18.547  10.980
48125W        W16543  17.147  29.531  14.442
48126W        W16544  41.815  16.773  10.493
48127W        W16545  43.364   3.370  14.946
48128W        W16546  27.065  29.053  13.976
48129W        W16547  27.147   2.752  13.905
48130W        W16548   5.416  18.227  14.477
48131W        W16549   3.318   9.168   3.352
48132W        W16550  13.324  41.801  11.125
48133W        W16551  35.440   4.749   4.250
48134W        W16552  31.974  27.669   4.636
48135W        W16553  38.567  15.793  13.992
48136W        W16554   0.764  31.427  10.435
48137W        W16555   1.286   6.406   3.829
48138W        W16556  12.127  22.547   4.822
48139W        W16557  15.818   5.306   4.287
48140W        W16558  24.550  29.568   1.740
48141W        W16559  11.354  37.521  12.973
48142W        W16560  39.821   6.189   3.314
48143W        W16561  29.588  28.030  10.901
48144W        W16562  31.950  32.924   0.749
48145W        W16563  32.963  26.052  12.929
48146W        W16564   7.377  44.455  11.395
48147W        W16565  29.987  24.039   2.816
48148W        W16566  24.704  35.945  14.897
48149W        W16567  25.649  38.878   4.603
48150W        W16568   5.811  43.300  10.488
48151W        W16569  29.518  42.791  12.438
48152W        W16570  41.811   1.351   3.154
48153W        W16571  36.999  36.864  14.384
48154W        W16572  10.204  10.683   9.934
48155W        W16573   2.919   2.768   4.224
48156W        W16574  19.580  32.566  12.911
48157W        W16575   7.217  30.537   2.891
48158W        W16576  29.634  12.343   2.868
48159W        W16577   9.862  10.785   4.640
48160W        W16578  30.003  40.981   3.867
48161W        W16579  30.132  44.977  14.805
48162W        W16580  41.309  37.546   3.374
48163W        W16581  22.573  44.448   2.749
48164W        W16582  33.423  24.167  14.804
48165W        W16583  29.110  31.594  12.985
48166W        W16584  37.550  20.651   1.401
48167W        W16585  20.684  43.509  12.414
48168W        W16586   5.436  40.916  13.338
48169W        W16587  40.896   2.448  12.527
48170W        W16588  15.752  12.297   4.137
48171W        W16589  36.943  11.137   1.754
48172W        W16590  36.974   5.227   0.830
48173W        W16591  39.544  42.420  10.474
48174W        W16592  32.407  14.112   3.366
48175W        W16593  23.501   4.710  11.552
48176W        W16594  37.352  41.029  13.507
48177W        W16595  37.521  34.875  13.050
48178W        W16596  26.689  14.690   2.250
48179W        W16597  38.380  19.254  10.523
48180W        W16598  25.150  36.395   3.796
48181W        W16599  18.625  43.888   4.342
48182W        W16600   7.672  37.538   2.752
48183W        W16601  14.338  16.241  12.046
48184W        W16602  42.475  13.821  13.990
48185W        W16603  35.000  23.217  13.052
48186W        W16604  10.332  28.599   4.626
48187W        W16605  25.048  18.280   2.834
48188W        W16606  32.089  18.595  14.953
48189W        W16607   4.904  25.164  11.472
48190W        W16608  12.240  12.180  11.905
48191W        W16609  28.006  43.355   3.328
48192W        W16610  12.325   4.839   4.765
48193W        W16611  26.014   6.779   4.171
48194W        W16612  11.702  13.189  10.967
48195W        W16613   8.811   3.247   1.393
48196W        W16614   8.787   8.284   3.794
48197W        W16615   1.908   6.361  14.454
48198W        W16616  13.779  12.144   0.925
48199W        W16617   5.265  42.358   3.743
48200W        W16618  38.853   8.883   3.771
48201W        W16619  37.837  19.774  13.953
48202W        W16620  39.936  25.586   2.798
48203W        W16621  25.970  19.775  14.982
48204W        W16622  18.194  38.461   3.817
48205W        W16623  44.446   0.855   4.789
48206W        W16624  22.594   2.779  12.984
48207W        W16625  28.005   1.832  13.048
48208W        W16626   7.173  18.672   1.800
48209W        W16627  29.603  17.692   1.261
48210W        W16628  27.152  16.792  13.432
48211W        W16629  42.288  13.331  12.389
48212W        W16630  35.946  19.152   0.838
48213W        W16631  33.428  27.533  11.050
48214W        W16632  20.736  39.884  12.443
48215W        W16633   3.745  42.417   4.251
48216W        W16634  14.669   1.348  10.588
48217W        W16635  20.577   8.886   1.805
48218W        W16636  20.677  44.002   3.761
48219W        W16637  17.723   6.901   2.748
48220W        W16638  41.968  27.147   1.235
48221W        W16639  11.658   2.958  11.478
48222W        W16640  15.202  23.195   0.735
48223W        W16641   8.740  36.406  11.450
48224W        W16642  40.433  19.682   1.710
48225W        W16643   1.457   1.883   0.246
48226W        W16644   4.385  36.014  11.607
48227W        W16645  32.559  33.393   3.860
48228W        W16646  16.774  41.007   0.288
48229W        W16647  41.828  21.025   4.211
48230W        W16648  13.161  35.877  13.911
48231W        W16649  35.970  16.715   3.157
48232W        W16650  15.290  21.670   0.751
48233W        W16651  31.931   5.732   1.846
48234W        W16652  22.556  40.898  11.034
48235W        W16653  18.285  27.127   0.837
48236W        W16654  13.720  16.284  10.989
48237W        W16655   8.828  16.733   3.368
48238W        W16656   7.842  24.509   4.774
48239W        W16657  37.951   3.778   1.433
48240W        W16658   2.393  26.634  14.347
48241W        W16659  13.729  41.466   3.324
48242W        W16660  26.975   1.958   1.380
48243W        W16661  11.157   4.389  10.930
48244W        W16662  10.303  35.366   2.354
48245W        W16663  31.126   0.926   1.359
48246W        W16664  40.916  38.464   2.292
48247W        W16665  13.142  23.547  10.431
48248W        W16666  18.568   2.295   4.605
48249W        W16667  14.132  14.725  12.431
48250W        W16668   6.697  26.693  12.991
48251W        W16669  37.582  25.557   0.903
48252W        W16670  13.229   9.879  13.855
48253W        W16671  30.914  38.455  13.424
48254W        W16672  36.422   4.417   1.369
48255W        W16673  19.586   4.404   0.349
48256W        W16674  39.371  12.745   4.681
48257W        W16675  21.516  20.209  13.950
48258W        W16676  23.709  36.956  12.400
48259W        W16677  15.313  20.547   0.454
48260W        W16678  31.072  27.594   2.386
48261W        W16679   3.815  35.526   2.347
48262W        W16680  28.936  35.862  10.494
48263W        W16681  44.308  28.641   3.312
48264W        W16682  37.839  20.159  12.915
48265W        W16683  23.496   1.452   3.753
48266W        W16684  34.470  22.632   3.202
48267W        W16685  22.146  44.318   1.826
48268W        W16686  28.989   3.433   4.681
48269W        W16687  40.797  33.573  12.458
48270W        W16688   0.290  43.371   4.327
48271W        W16689  10.744  12.809   1.257
48272W        W16690  35.372  23.065  13.879
48273W        W16691  29.147  44.980   1.387
48274W        W16692   4.794  20.101   3.824
48275W        W16693  36.841  41.408  12.972
48276W        W16694  30.504   9.274   4.297
48277W        W16695  35.110  25.694   2.842
48278W        W16696  32.563   3.779   2.387
48279W        W16697  36.585  30.434   2.353
48280W        W16698  35.940  17.759   2.899
48281W        W16699  11.675  13.321   0.917
48282W        W16700  35.945   6.715   4.141
48283W        W16701  20.727   9.876   0.774
48284W        W16702  22.568  44.485   3.850
48285W        W16703  30.585  33.569   4.644
48286W        W16704  13.775  22.246  12.404
48287W        W16705  32.975  22.182   2.852
48288W        W16706  35.980  19.698   1.316
48289W        W16707   4.797  36.417  13.481
48290W        W16708  24.048  40.862   1.882
48291W        W16709  41.400   2.773   3.725
48292W        W16710  20.145  42.321  11.902
48293W        W16711   3.932   3.297  11.491
48294W        W16712   4.341  26.591  12.878
48295W        W16713   6.849  16.193   1.802
48296W        W16714  37.552  12.187  10.969
48297W        W16715  22.663  33.562  12.942
48298W        W16716  14.605  26.208  10.475
48299W        W16717  26.503  41.819  14.931
48300W        W16718   5.858  38.067   4.657
48301W        W16719  40.307  11.134  13.000
48302W        W16720   4.705  20.536   0.958
48303W        W16721  35.449  22.592  12.530
48304W        W16722  28.952  41.526   1.770
48305W        W16723  39.459  30.038   4.604
48306W        W16724  36.404  15.689   4.237
48307W        W16725   3.235   6.302   0.784
48308W        W16726   5.765  43.314  13.962
48309W        W16727   1.877  26.509  13.385
48310W        W16728  12.650   5.435   4.122
48311W        W16729  36.473  25.512  12.094
48312W        W16730  37.404   6.237  14.938
48313W        W16731  30.130   0.908  10.482
48314W        W16732  25.017  21.063   1.369
48315W        W16733  17.676  24.681   1.805
48316W        W16734  29.425  33.477  14.397
48317W        W16735  26.610   7.753  10.006
48318W        W16736  36.447  39.016   1.242
48319W        W16737   2.446  21.565   1.442
48320W        W16738   8.290   3.254   3.246
48321W        W16739   6.414  31.548   0.456
48322W        W16740  38.822   1.383  10.941
48323W        W16741  14.122  29.657   4.280
48324W        W16742   8.236  30.640  10.527
48325W        W16743  39.494  41.491   0.792
48326W        W16744  16.087  35.375  11.071
48327W        W16745  27.641  12.745  13.999
48328W        W16746  38.499  24.517  12.572
48329W        W16747  32.555   2.329  14.815
48330W        W16748  20.751  39.379  13.882
48331W        W16749  40.948   7.379  13.465
48332W        W16750  19.701   2.271  10.602
48333W        W16751  29.495   4.943   3.180
48334W        W16752  17.190  24.161   2.413
48335W        W16753  37.935  41.944   3.779
48336W        W16754  14.803  25.563  10.904
48337W        W16755   7.359  29.025   4.606
48338W        W16756  12.845  13.710  13.502
48339W        W16757   2.433  44.445   1.904
48340W        W16758  25.987  17.272  12.430
48341W        W16759  31.485  40.488   2.327
48342W        W16760  23.662  11.322   2.714
48343W        W16761   8.763  35.489   1.227
48344W        W16762   7.720   2.746  13.351
48345W        W16763  36.356  18.717   1.843
48346W        W16764  20.760  10.195  12.375
48347W        W16765   5.710  11.355   3.790
48348W        W16766  36.575  17.775  12.879
48349W        W16767  12.624  17.666  14.797
48350W        W16768  20.271   8.294  13.507
48351W        W16769  36.066  43.004   1.797
48352W        W16770   2.381  19.108  11.503
48353W        W16771  44.430   0.969   2.886
48354W        W16772  38.952   9.676  10.076
48355W        W16773  17.224  24.523  14.400
48356W        W16774  16.182  32.429  12.030
48357W        W16775  32.011  14.186   4.173
48358W        W16776  21.045   9.154   3.152
48359W        W16777  14.655  42.958  12.379
48360W        W16778  29.115  23.497  12.086
48361W        W16779  18.228  26.656   0.271
48362W        W16780  41.922  16.208  14.993
48363W        W16781   3.899   0.843   1.427
48364W        W16782   8.380  40.501   2.329
48365W        W16783  22.185  32.573   1.905
48366W        W16784   7.386  31.008   0.868
48367W        W16785  34.900  37.047  10.511
48368W        W16786  16.633  26.978  12.397
48369W        W16787  20.179  21.659  10.956
48370W        W16788   5.809   7.887   4.772
48371W        W16789   2.298   0.442   2.733
48372W        W16790   1.410  39.938  12.966
48373W        W16791  31.097  23.721  14.947
48374W        W16792   1.391  22.060   5.716
48375W        W16793   3.869   4.737  14.372
48376W        W16794  16.298  17.110   2.791
48377W        W16795   4.218  42.030  13.344
48378W        W16796   2.376  39.851   0.275
48379W        W16797   1.342  35.492  10.495
48380W        W16798   1.795  27.969  11.086
48381W        W16799   8.255  22.146  11.468
48382W        W16800  18.650  19.189  14.932
48383W        W16801  12.262  19.039  13.484
48384W        W16802  42.340  33.109  11.517
48385W        W16803   2.244   0.836   0.888
48386W        W16804  15.133  42.434   3.320
48387W        W16805   3.349  11.805  12.545
48388W        W16806  20.057   2.252  14.825
48389W        W16807  30.986  38.503  11.997
48390W        W16808  28.489   7.259   5.206
48391W        W16809  37.835  24.551   4.173
48392W        W16810  41.295  39.467  12.512
48393W        W16811  14.799  37.932  13.415
48394W        W16812  17.685  15.136   0.312
48395W        W16813   1.391  14.661   1.738
48396W        W16814   1.978  36.848   3.694
48397W        W16815  39.922  23.217   1.361
48398W        W16816  20.061  17.679  12.089
48399W        W16817   1.273  28.030  13.051
48400W        W16818  25.625  24.177  14.785
48401W        W16819  10.673  35.440  14.829
48402W        W16820   0.749   0.782   2.399
48403W        W16821  39.000  17.167   1.788
48404W        W16822  26.188   8.387   0.842
48405W        W16823  40.922   1.258  11.547
48406W        W16824  36.008   6.286   1.338
48407W        W16825  28.659  14.278  12.497
48408W        W16826   2.872  44.797   3.646
48409W        W16827   7.238  17.124   2.713
48410W        W16828  18.162  28.065  12.564
48411W        W16829  43.897   9.742   3.829
48412W        W16830  18.295   7.206   1.715
48413W        W16831  18.296  30.019   3.734
48414W        W16832  27.950  32.132  11.600
48415W        W16833  38.513  27.458  14.495
48416W        W16834  20.029  37.895  11.385
48417W        W16835  10.195  42.475  12.876
48418W        W16836  40.405  39.007  12.039
48419W        W16837  27.589  37.469   2.812
48420W        W16838   4.308   3.390   0.897
48421W        W16839  41.315  15.818   1.921
48422W        W16840  28.958   6.751   0.792
48423W        W16841  11.819  20.241   3.672
48424W        W16842  29.056  26.207   2.875
48425W        W16843  32.596  36.567  14.878
48426W        W16844  34.416  14.701   3.335
48427W        W16845  38.963  21.149   1.857
48428W        W16846   4.415  34.871   2.185
48429W        W16847   2.228  37.050  14.976
48430W        W16848  42.837  32.002  10.084
48431W        W16849  18.580  17.563  12.553
48432W        W16850  13.649  39.464  10.465
48433W        W16851  44.398   0.775   2.297
48434W        W16852   8.302  18.076  11.404
48435W        W16853  35.538  37.409  11.106
48436W        W16854  21.575  42.498  14.290
48437W        W16855   5.918  36.073  13.898
48438W        W16856  16.680   2.291  13.477
48439W        W16857  27.020  13.711  11.586
48440W        W16858  44.307  40.797   9.636
48441W        W16859   1.823  10.796  11.504
48442W        W16860  22.635  29.608  12.898
48443W        W16861  44.324  31.913   4.720
48444W        W16862  39.964  35.599   0.943
48445W        W16863  35.881  40.464   2.862
48446W        W16864  17.264  41.396  13.971
48447W        W16865  37.019   6.718  10.547
48448W        W16866  36.096  41.452   3.802
48449W        W16867  22.051   8.731   2.793
48450W        W16868  30.991  33.013   3.652
48451W        W16869  35.015   0.449   1.284
48452W        W16870  13.695   9.687   4.606
48453W        W16871  20.616   5.331   1.422
48454W        W16872  25.479  11.779   3.263
48455W        W16873  11.369   8.804  14.857
48456W        W16874   9.284  30.452   3.284
48457W        W16875   8.705  18.577   0.323
48458W        W16876  43.909   9.341  12.003
48459W        W16877  10.737  10.653  12.495
48460W        W16878  19.166  33.564  14.425
48461W        W16879   1.262  29.052  11.109
48462W        W16880   0.282  21.546  10.454
48463W        W16881  43.856  27.186   0.250
48464W        W16882  44.846   5.821  14.797
48465W        W16883  17.688  31.538  12.414
48466W        W16884  39.559  26.146   2.901
48467W        W16885  38.971  16.197   4.835
48468W        W16886  29.608   6.786  10.012
48469W        W16887  15.583  35.937   3.694
48470W        W16888   3.856  25.134   3.186
48471W        W16889  30.113   7.780  11.124
48472W        W16890  44.006  27.047  14.860
48473W        W16891   8.256   2.300   1.915
48474W        W16892   1.414  27.085  10.904
48475W        W16893  41.941   9.335   1.740
48476W        W16894  27.087  35.425   2.245
48477W        W16895   0.321  36.959  13.993
48478W        W16896  33.381   4.330  11.444
48479W        W16897  31.437  38.946  10.052
48480W        W16898  16.152  10.179   2.245
48481W        W16899  22.516  16.597   0.409
48482W        W16900  44.855  26.592  13.843
48483W        W16901  29.923   0.943   1.758
48484W        W16902  25.590   8.775  14.878
48485W        W16903  19.749   6.891   4.614
48486W        W16904  17.772  30.644  13.379
48487W        W16905  34.915  30.117  13.047
48488W        W16906  35.380  33.990  10.571
48489W        W16907  14.222  31.601   0.852
48490W        W16908  44.459  23.561  14.863
48491W        W16909  14.281  40.484   3.675
48492W        W16910  31.141  35.861  13.000
48493W        W16911  20.100   5.822   1.237
48494W        W16912  15.672  28.080   0.815
48495W        W16913   5.907  24.983  12.544
48496W        W16914  16.634   4.852   4.791
48497W        W16915  20.731   7.835   0.748
48498W        W16916   3.372   5.855   4.654
48499W        W16917  41.928  35.598   1.447
48500W        W16918  17.633  30.582   1.862
48501W        W16919  40.906  41.960  12.873
48502W        W16920  25.557  26.098   0.865
48503W        W16921  28.595  40.347   0.291
48504W        W16922   8.294  31.925  12.873
48505W        W16923   0.321  19.668   3.863
48506W        W16924  15.305  15.186  11.099
48507W        W16925   3.415  16.806  11.028
48508W        W16926  40.411  39.027  12.456
48509W        W16927  18.217   7.325   4.723
48510W        W16928   1.294  19.767   5.143
48511W        W16929   0.885  31.621   2.244
48512W        W16930  41.936  20.718  14.303
48513W        W16931  34.054  35.488   2.721
48514W        W16932  18.640   0.974   0.355
48515W        W16933   8.372  43.370  10.522
48516W        W16934  16.801   6.385   5.654
48517W        W16935  20.575  22.693   4.315
48518W        W16936   8.716  27.994   1.886
48519W        W16937  19.745  44.832  12.929
48520W        W16938  43.778  14.296   1.268
48521W        W16939  25.974  43.296  13.958
48522W        W16940  14.155  40.348   1.888
48523W        W16941   5.382   7.776  12.508
48524W        W16942  25.065  18.690  11.466
48525W        W16943  23.047  26.594  10.104
48526W        W16944  29.444  20.586  13.400
48527W        W16945  36.422  29.660   4.761
48528W        W16946  15.652  11.296  13.975
48529W        W16947   1.827  30.064  14.805
48530W        W16948   1.848  11.176   3.842
48531W        W16949  43.969   5.295   4.311
48532W        W16950  43.344   0.975  13.052
48533W        W16951  16.731  42.299   3.703
48534W        W16952  25.542  17.065   1.244
48535W        W16953  25.586  41.846   3.663
48536W        W16954  20.651  13.189   3.648
48537W        W16955  34.925  19.150   0.289
48538W        W16956   6.300  15.286  10.619
48539W        W16957  44.397  19.633  10.980
48540W        W16958  40.426  13.183  11.544
48541W        W16959  14.826  24.520  12.534
48542W        W16960   2.806  32.106  14.393
48543W        W16961   2.320  19.133  10.553
48544W        W16962  40.455   0.905  14.835
48545W        W16963   1.367  42.478   1.318
48546W        W16964  30.116  15.240   2.666
48547W        W16965  12.276  18.610  11.044
48548W        W16966  15.208  36.955   1.701
48549W        W16967   1.466  37.548   2.709
48550W        W16968  10.650   0.921  10.445
48551W        W16969  21.557  35.562  12.362
48552W        W16970  24.173   8.732  12.054
48553W        W16971  41.293  24.178   1.802
48554W        W16972  33.030  31.121  14.481
48555W        W16973  16.082  33.611  10.888
48556W        W16974  38.450  18.234   1.342
48557W        W16975  26.966  32.999   2.311
48558W        W16976   2.307   3.796  11.443
48559W        W16977  20.653  35.464   3.333
48560W        W16978  16.692  25.061  12.824
48561W        W16979  42.951   1.972   3.802
48562W        W16980  17.702  43.438   2.402
48563W        W16981  44.449  10.651  14.766
48564W        W16982   9.392  25.108   5.117
48565W        W16983   7.203  21.089  10.950
48566W        W16984  15.252  23.687  12.357
48567W        W16985  35.415   8.321  14.846
48568W        W16986  23.019  44.505   9.965
48569W        W16987   0.414  42.810   4.810
48570W        W16988  40.990  16.220  11.424
48571W        W16989  34.570  30.466  12.449
48572W        W16990  44.990  16.240   3.194
48573W        W16991  41.469  15.813   3.149
48574W        W16992  24.037  16.306  12.887
48575W        W16993  35.498  37.846  13.958
48576W        W16994   0.934  11.738  14.931
48577W        W16995  24.094  17.637   3.825
48578W        W16996   9.353  15.610  13.019
48579W        W16997  41.536  30.924  14.759
48580W        W16998  18.613  20.269   2.319
48581W        W16999  23.002  30.923  12.891
48582W        W17000   3.364   7.912   4.601
48583W        W17001  15.589  32.956  11.497
48584W        W17002  22.240  27.573  10.956
48585W        W17003  30.140  23.664   0.383
48586W        W17004   2.789   0.297   0.881
48587W        W17005  21.626  42.784   4.234
48588W        W17006  38.935   8.360  13.533
48589W        W17007   3.234  31.482   3.341
48590W        W17008  15.578  21.046   4.215
48591W        W17009  41.314  23.038   1.920
48592W        W17010  27.548  12.763   0.727
48593W        W17011  44.889  44.777   2.410
48594W        W17012  39.013   5.828   3.201
48595W        W17013  21.063  23.054   9.613
48596W        W17014  40.827  24.722   3.184
48597W        W17015  12.176  25.680  11.956
48598W        W17016  19.779  17.299  14.853
48599W        W17017   1.862  23.998  10.562
48600W        W17018  32.535   0.387  13.415
48601W        W17019  23.164  16.200   2.838
48602W        W17020  13.739   6.376   4.724
48603W        W17021  33.908  12.788   3.258
48604W        W17022   7.381  31.531  10.415
48605W        W17023   8.346  34.594   1.858
48606W        W17024  43.776  19.545  11.123
48607W        W17025  26.167   0.838   3.172
48608W        W17026   8.877  24.670  13.545
48609W        W17027  12.842   1.776   3.816
48610W        W17028  20.175  27.524  11.393
48611W        W17029   3.813  20.082   5.786
48612W        W17030  31.431  38.069  12.898
48613W        W17031  14.757  26.955  14.432
48614W        W17032   4.420  22.170   0.286
48615W        W17033  33.533   8.207   3.642
48616W        W17034  38.963  23.724  10.892
48617W        W17035  29.613  31.084   3.277
48618W        W17036  41.473  40.962   5.146
48619W        W17037   3.829  42.447   1.721
48620W        W17038  43.922  15.628   3.824
48621W        W17039   6.358  18.602  13.977
48622W        W17040  25.165   9.171  11.385
48623W        W17041  34.592  15.748  11.476
48624W        W17042   4.799  28.099  11.488
48625W        W17043  39.424  20.136   1.269
48626W        W17044  41.994   1.791  12.987
48627W        W17045   2.405  39.835   4.710
48628W        W17046  34.866   2.799   4.239
48629W        W17047  19.579   5.841   3.234
48630W        W17048   4.739  40.974   3.831
48631W        W17049  33.545  44.500  11.484
48632W        W17050   9.870  27.620  11.865
48633W        W17051  10.151   9.646  13.529
48634W        W17052  10.258   2.371   1.358
48635W        W17053  33.976  41.536  11.540
48636W        W17054  39.518  28.601   4.653
48637W        W17055  42.789   5.708   0.790
48638W        W17056  16.214   2.303  12.982
48639W        W17057  13.116  44.962   1.759
48640W        W17058   7.383  36.857   3.171
48641W        W17059  35.545   6.918  10.929
48642W        W17060  32.547  33.548   0.834
48643W        W17061  12.787  23.575  10.997
48644W        W17062  42.778  29.649  12.513
48645W        W17063  21.692   2.274  13.465
48646W        W17064  30.428   3.388  13.830
48647W        W17065  24.618  42.804   3.280
48648W        W17066   9.366   6.198   1.757
48649W        W17067  13.221  38.899  11.429
48650W        W17068  37.928  32.910   3.353
48651W        W17069   3.366  31.017   0.856
48652W        W17070  37.925  34.974  14.869
48653W        W17071  40.450  16.164  11.870
48654W        W17072  33.039  31.918   1.349
48655W        W17073  40.009  10.825  14.837
48656W        W17074   7.215  36.868  11.527
48657W        W17075  41.421   7.746   3.355
48658W        W17076  40.012  17.574  12.534
48659W        W17077  23.665  16.582  13.936
48660W        W17078  24.022  39.000   4.130
48661W        W17079  29.111  27.008   2.836
48662W        W17080   7.195   6.352  14.515
48663W        W17081  44.384  12.121  11.096
48664W        W17082  27.029  27.682   3.219
48665W        W17083  28.994  27.670   0.761
48666W        W17084  36.518   2.833  11.997
48667W        W17085  18.065  26.953   0.345
48668W        W17086  10.660  41.522   2.202
48669W        W17087  36.034  13.740  12.952
48670W        W17088  29.042  34.434  14.775
48671W        W17089   7.283  13.284  10.410
48672W        W17090   8.769   9.154  13.355
48673W        W17091   2.847  28.549   1.730
48674W        W17092  23.104  40.885  14.809
48675W        W17093   4.745  29.021   0.770
48676W        W17094  19.593  11.260   3.225
48677W        W17095  25.538  34.538   2.845
48678W        W17096   1.466  12.827  11.963
48679W        W17097  13.179  43.467  13.498
48680W        W17098  30.064  18.081  13.842
48681W        W17099  22.504  25.709   5.194
48682W        W17100  17.626  38.429  11.937
48683W        W17101  20.580  33.928  10.464
48684W        W17102   8.893  18.725   2.666
48685W        W17103  18.600  23.138  12.009
48686W        W17104  22.176  36.860  14.293
48687W        W17105  11.812   9.370  12.913
48688W        W17106  17.148  26.073   4.665
48689W        W17107  23.635  21.104   2.382
48690W        W17108   7.185  19.551   2.864
48691W        W17109  21.642  24.599  14.425
48692W        W17110   8.665   7.752   4.328
48693W        W17111  13.181  43.857  14.859
48694W        W17112  14.732  24.689  12.837
48695W        W17113  19.144  29.513   2.739
48696W        W17114   7.838  28.153   1.918
48697W        W17115  15.790  17.201   0.249
48698W        W17116   7.226  17.116   1.821
48699W        W17117  23.186  14.628  12.933
48700W        W17118  14.126  34.571   0.289
48701W        W17119  16.721   3.269  14.326
48702W        W17120  37.015   3.287   1.779
48703W        W17121  14.167  30.559   0.429
48704W        W17122   2.427  30.152   3.348
48705W        W17123  21.250  34.453  13.945
48706W        W17124  10.854   1.466  10.898
48707W        W17125  39.953  11.865   1.913
48708W        W17126  34.599   1.477   3.685
48709W        W17127  31.529  33.527   3.701
48710W        W17128   2.402   2.307   4.687
48711W        W17129  35.049   4.225  13.882
48712W        W17130   8.872  10.678  12.915
48713W        W17131  30.108  31.930  10.040
48714W        W17132  37.545  22.036   3.656
48715W        W17133   5.247  18.275   0.324
48716W        W17134  42.925  21.738  14.992
48717W        W17135  20.532   3.302   0.276
48718W        W17136  36.457  28.624   2.299
48719W        W17137  14.629   8.675  11.990
48720W        W17138  35.016  29.463   4.245
48721W        W17139  18.277  12.334   0.257
48722W        W17140  39.435  36.499   3.380
48723W        W17141  41.838  30.659  10.920
48724W        W17142  36.348  22.624  11.407
48725W        W17143  24.042  30.997  13.528
48726W        W17144  39.332  14.174   4.296
48727W        W17145  14.334  17.221   0.378
48728W        W17146  35.904  16.074  13.032
48729W        W17147  12.302  35.898  13.503
48730W        W17148  40.423  17.157   2.669
48731W        W17149  14.256  14.326  13.999
48732W        W17150  29.658  16.681   2.226
48733W        W17151  15.634   3.434  10.079
48734W        W17152  12.344  24.009   0.247
48735W        W17153  36.588  41.398   2.285
48736W        W17154  10.633  15.612  11.602
48737W        W17155  13.708   7.397   0.897
48738W        W17156   5.739  16.758  11.574
48739W        W17157  37.921  18.702   1.728
48740W        W17158  43.348  12.810  13.475
48741W        W17159  31.534   0.794  13.859
48742W        W17160  37.411   2.902  14.301
48743W        W17161  11.348  13.840   3.224
48744W        W17162  13.344   7.869  13.923
48745W        W17163   4.377  32.912  10.612
48746W        W17164   8.404   7.683  13.517
48747W        W17165  28.488  27.094  10.600
48748W        W17166  17.759   0.343  11.598
48749W        W17167  11.221   6.251   3.281
48750W        W17168   2.846  34.475   0.821
48751W        W17169  24.532  13.619   4.308
48752W        W17170  26.628  11.688   0.356
48753W        W17171   3.269  44.991  12.851
48754W        W17172   0.387  12.172  12.013
48755W        W17173  33.886  10.664  13.875
48756W        W17174  27.124  12.682  12.997
48757W        W17175  36.550   8.259   4.673
48758W        W17176  24.173  24.653   0.397
48759W        W17177  29.633  27.952   1.878
48760W        W17178  30.014   8.175  13.979
48761W        W17179  12.306  17.181   3.829
48762W        W17180  17.197  27.491  14.805
48763W        W17181   0.800  22.645   3.828
48764W        W17182   0.953  19.227  12.903
48765W        W17183   7.771  10.861  10.980
48766W        W17184   7.360  31.102  13.861
48767W        W17185  17.068  17.294   3.765
48768W        W17186  23.602  17.609   3.750
48769W        W17187  36.408  38.344   3.295
48770W        W17188  27.092  23.185  10.982
48771W        W17189  16.747  24.009   2.186
48772W        W17190  41.938   9.735  12.047
48773W        W17191  36.470  24.583  13.871
48774W        W17192  30.024  13.347  11.924
48775W        W17193  10.709  24.177   4.777
48776W        W17194  11.767  32.431   3.315
48777W        W17195   7.754  12.734  10.591
48778W        W17196  28.180  15.741  12.960
48779W        W17197  36.427  44.897   3.713
48780W        W17198  13.290  40.913  14.872
48781W        W17199  22.653  20.754   0.770
48782W        W17200  29.424   8.243  14.023
48783W        W17201  11.855  37.492  10.157
48784W        W17202  43.795  15.181   0.438
48785W        W17203   8.833  44.992  12.894
48786W        W17204   4.886  35.566  10.468
48787W        W17205  44.868   3.382  11.605
48788W        W17206  42.385  19.659  12.913
48789W        W17207  11.808   2.421  14.894
48790W        W17208  22.060  24.994   2.349
48791W        W17209  21.247  20.569   4.819
48792W        W17210   2.847  19.616  14.381
48793W        W17211  28.104  33.460  12.996
48794W        W17212  21.684  35.867  14.365
48795W        W17213   8.177  26.048   0.326
48796W        W17214  21.018  18.137  14.814
48797W        W17215   2.808  16.710  14.952
48798W        W17216  29.668  40.530   4.664
48799W        W17217  14.323   5.349   0.728
48800W        W17218  31.951  11.634   4.177
48801W        W17219  28.128  27.496   3.831
48802W        W17220  42.440  17.652  10.566
48803W        W17221  26.013   7.332   1.399
48804W        W17222  10.223  25.044  12.067
48805W        W17223  13.203  25.489  10.436
48806W        W17224  19.728  43.298  11.998
48807W        W17225  34.586  24.687   2.679
48808W        W17226  35.855  19.218   3.364
48809W        W17227  13.152  36.066   2.270
48810W        W17228  25.621   6.716  12.970
48811W        W17229   0.321  28.630   4.307
48812W        W17230  30.060  11.627   0.785
48813W        W17231  26.093  21.652   1.321
48814W        W17232  32.590  30.977   1.722
48815W        W17233  21.092  29.121   2.277
48816W        W17234  20.170  38.349  13.413
48817W        W17235  32.930  34.425  13.354
48818W        W17236  16.233   2.751  14.296
48819W        W17237  41.472   7.382  13.329
48820W        W17238   8.324  28.624   4.347
48821W        W17239  12.706  30.523  11.010
48822W        W17240  15.198  11.765  10.895
48823W        W17241  12.750  19.692  11.118
48824W        W17242  14.148  31.140   2.319
48825W        W17243   8.367  16.715  14.372
48826W        W17244  42.306   6.886  10.583
48827W        W17245   1.480  18.167   2.846
48828W        W17246  34.432  24.091   3.771
48829W        W17247  20.655  20.662  11.978
48830W        W17248   3.341  27.151   1.434
48831W        W17249   1.748  42.923  12.401
48832W        W17250   7.867  34.905  13.378
48833W        W17251  16.218  13.774   0.737
48834W        W17252  29.956   5.279  12.482
48835W        W17253  17.286  32.613   0.276
48836W        W17254  33.476  20.724  11.975
48837W        W17255  20.622  32.941   0.900
48838W        W17256  42.018   9.242  12.063
48839W        W17257  30.625   5.431   3.710
48840W        W17258   5.837  25.713   1.213
48841W        W17259  41.298  20.570  13.892
48842W        W17260  21.075  22.043  11.862
48843W        W17261  39.395  10.784   1.929
48844W        W17262  10.661  35.440  11.400
48845W        W17263  31.900  39.515   2.183
48846W        W17264  19.156  41.041  11.070
48847W        W17265  19.269  18.676   3.207
48848W        W17266  35.971  32.568   2.728
48849W        W17267  35.872  25.210   4.761
48850W        W17268  37.932  28.671   2.775
48851W        W17269  30.508  13.637   0.837
48852W        W17270  21.146  16.091   1.351
48853W        W17271   1.812  10.773  12.376
48854W        W17272  32.578   1.462   4.835
48855W        W17273  37.477  15.584  12.967
48856W        W17274   9.322  14.687   1.779
48857W        W17275  14.768  32.090  13.951
48858W        W17276  18.185  34.869  14.811
48859W        W17277  40.942  33.548   1.880
48860W        W17278  11.780  29.657  13.022
48861W        W17279  28.674  27.675  12.349
48862W        W17280  20.253  44.792  10.590
48863W        W17281   2.345  11.749  12.439
48864W        W17282  13.688  21.593  11.863
48865W        W17283  44.877  19.116   2.774
48866W        W17284  33.944  10.174   2.266
48867W        W17285  26.989  27.001   3.850
48868W        W17286  15.246  44.377  14.026
48869W        W17287  30.974   0.863  14.822
48870W        W17288  32.044  13.631  13.043
48871W        W17289   4.875  37.471  13.006
48872W        W17290   1.919  15.651   0.424
48873W        W17291  11.765  13.730   4.151
48874W        W17292  21.068  18.744  10.567
48875W        W17293  39.849   2.965   0.341
48876W        W17294  25.180  44.849  12.047
48877W        W17295  39.539  20.696   4.340
48878W        W17296  30.483  28.681   0.267
48879W        W17297  11.857  42.000   0.248
48880W        W17298  27.567   6.350   2.665
48881W        W17299  18.596  14.128   1.312
48882W        W17300  30.551   7.700  14.832
48883W        W17301   9.747  14.800  10.567
48884W        W17302  44.874  37.351   3.799
48885W        W17303  24.606  25.093  13.821
48886W        W17304  27.638  35.474  11.911
48887W        W17305  28.073  17.201   0.781
48888W        W17306   5.876  28.589   0.270
48889W        W17307  16.579  29.960  12.013
48890W        W17308  19.205  26.195  13.930
48891W        W17309  18.647  12.227  10.449
48892W        W17310  35.028  42.990  12.404
48893W        W17311  42.456   9.785   1.378
48894W        W17312   8.664   7.267  10.614
48895W        W17313  10.165  44.945  11.459
48896W        W17314  15.606  19.606   0.912
48897W        W17315  37.420   0.974   3.633
48898W        W17316  13.249  42.471  11.580
48899W        W17317  28.510   0.428   4.773
48900W        W17318  17.230  38.850   2.873
48901W        W17319  42.833   9.786  13.491
48902W        W17320  19.201  13.246   2.315
48903W        W17321  23.053  33.570   0.865
48904W        W17322  23.000  25.006  10.417
48905W        W17323  29.166  36.976   4.305
48906W        W17324   6.894  24.539   0.895
48907W        W17325  19.055  19.561  13.866
48908W        W17326  10.835  22.237   1.802
48909W        W17327   4.875  43.271  12.861
48910W        W17328   5.898  30.598   3.644
48911W        W17329  36.861  24.007  13.425
48912W        W17330   3.369  27.088   5.250
48913W        W17331   3.281  25.176   2.237
48914W        W17332  34.083  19.142  10.532
48915W        W17333  20.598   4.408   2.727
48916W        W17334  11.184  28.504  11.970
48917W        W17335  15.580  25.647   2.706
48918W        W17336  10.871  15.794   2.845
48919W        W17337  38.860   7.209  10.996
48920W        W17338  12.679  43.306  14.350
48921W        W17339  16.752  21.064  12.049
48922W        W17340   8.297  17.263  10.515
48923W        W17341  42.317  28.164   4.835
48924W        W17342  20.179  40.514  14.825
48925W        W17343  22.235   0.804  12.852
48926W        W17344  19.272   3.764   0.810
48927W        W17345  43.428  24.573  14.859
48928W        W17346  40.484  27.459  13.536
48929W        W17347  22.572  32.619   4.156
48930W        W17348  18.656   3.252   4.815
48931W        W17349  30.009  28.996   1.903
48932W        W17350  34.479  29.467   2.264
48933W        W17351  24.039  32.041   9.992
48934W        W17352   4.362   4.285   4.267
48935W        W17353  30.580  16.076  12.391
48936W        W17354  36.910  13.323   4.298
48937W        W17355  27.541   7.355   0.272
48938W        W17356   2.297  11.313  12.963
48939W        W17357  13.674  22.713  10.540
48940W        W17358  41.492  19.045   3.146
48941W        W17359  40.408  24.128   5.207
48942W        W17360   4.376  31.978  14.320
48943W        W17361  44.348  13.275  11.101
48944W        W17362  26.156  33.108   3.163
48945W        W17363   8.254  13.152  10.638
48946W        W17364  44.464  10.797  12.063
48947W        W17365  24.226  26.162   0.831
48948W        W17366  18.626  41.867  12.511
48949W        W17367  25.038  40.036   2.294
48950W        W17368   6.192  25.208  10.459
48951W        W17369  29.470  31.006   0.397
48952W        W17370  17.173  43.494  10.622
48953W        W17371  11.331  37.018  14.875
48954W        W17372  22.724   6.417  11.439
48955W        W17373  18.188   4.760   2.383
48956W        W17374  42.366  12.690  13.924
48957W        W17375  36.905  29.469  12.499
48958W        W17376  23.198   2.915   1.927
48959W        W17377  32.512  11.276  10.587
48960W        W17378  15.155  22.241  10.437
48961W        W17379  31.017  20.534   3.703
48962W        W17380  23.173  18.289   4.218
48963W        W17381  42.420  32.406   1.855
48964W        W17382  33.922  10.756   2.297
48965W        W17383   7.678  43.813   2.796
48966W        W17384  32.888  44.865   1.358
48967W        W17385  12.634  39.350  10.630
48968W        W17386  19.707  28.931   1.327
48969W        W17387  40.898  30.124   0.865
48970W        W17388   7.185   1.482   2.419
48971W        W17389   2.423  17.149  13.952
48972W        W17390   5.831   7.797  11.947
48973W        W17391  40.985  33.972  10.594
48974W        W17392  25.635   1.343   2.387
48975W        W17393  33.563  12.722  11.564
48976W        W17394   6.300  20.570   4.718
48977W        W17395  27.073  33.485  13.431
48978W        W17396  40.308  25.707   0.446
48979W        W17397  43.937  35.361  14.015
48980W        W17398   2.882  38.337   4.298
48981W        W17399  17.067  21.598   4.303
48982W        W17400  24.188  35.565   3.820
48983W        W17401  31.980   5.892   3.234
48984W        W17402   0.461  22.157   4.191
48985W        W17403  40.859   9.687  13.031
48986W        W17404   2.405  16.705   2.744
48987W        W17405  38.028  37.389   9.962
48988W        W17406  18.602  27.663  11.436
48989W        W17407  18.164   2.458   4.797
48990W        W17408   2.228  40.329   4.187
48991W        W17409  29.591   3.298   3.247
48992W        W17410   8.386   3.921  12.082
48993W        W17411  31.098  24.168  14.002
48994W        W17412  35.400   2.408   4.600
48995W        W17413  23.573  43.917   2.186
48996W        W17414   9.869   3.345   2.709
48997W        W17415  36.500  27.084   3.730
48998W        W17416  25.551  42.935  12.033
48999W        W17417  21.626  17.118   3.316
49000W        W17418   6.257  29.010   3.197
49001W        W17419  28.511   5.280   1.748
49002W        W17420  18.244  44.842  10.563
49003W        W17421  18.287  22.582   1.696
49004W        W17422  21.552   7.312  13.964
49005W        W17423  38.488  39.421   4.333
49006W        W17424   2.752  40.840   2.790
49007W        W17425  44.876   3.255   3.325
49008W        W17426  35.016  17.299   0.405
49009W        W17427  29.933  20.053  11.499
49010W        W17428  12.216  25.602  10.914
49011W        W17429   5.395  19.621   4.753
49012W        W17430   6.372  36.424   3.748
49013W        W17431  34.120  40.375  11.470
49014W        W17432   8.829  34.578   4.786
49015W        W17433   0.494  20.717  14.795
49016W        W17434   3.259  44.501  13.025
49017W        W17435   4.268  34.877  10.944
49018W        W17436  31.624   9.808   1.704
49019W        W17437  27.487   6.753  12.341
49020W        W17438  15.221  44.489  10.964
49021W        W17439  27.035  26.981   0.943
49022W        W17440  39.836  16.685   3.727
49023W        W17441   3.281  21.572  12.556
49024W        W17442  33.055  33.880   2.335
49025W        W17443  31.643  31.912  14.780
49026W        W17444  38.478  16.751   0.276
49027W        W17445  14.613  18.184  10.055
49028W        W17446  10.225  39.837  14.940
49029W        W17447  30.133  23.541   2.777
49030W        W17448  14.217  16.178  12.937
49031W        W17449  43.513  25.609  13.858
49032W        W17450  28.135   6.219  12.994
49033W        W17451  30.577  13.798   4.269
49034W        W17452  37.483  27.475   1.701
49035W        W17453  44.310  24.552  11.976
49036W        W17454  34.496  17.115  12.880
49037W        W17455  13.813  33.556  14.401
49038W        W17456  33.594  18.717   4.292
49039W        W17457  14.648   9.211  14.022
49040W        W17458  32.998  39.928  12.544
49041W        W17459  33.622  21.691  12.047
49042W        W17460  40.524  12.227  14.504
49043W        W17461   1.786  43.317  11.474
49044W        W17462   8.317   5.314  13.442
49045W        W17463  30.923  29.584  14.916
49046W        W17464   8.364  15.635  11.079
49047W        W17465  20.688  28.979   1.213
49048W        W17466  28.577  20.133   4.341
49049W        W17467   1.382  43.371   1.876
49050W        W17468  24.084  43.981   2.400
49051W        W17469  44.273  42.483   3.283
49052W        W17470  13.234  13.126   1.258
49053W        W17471  29.058   2.387  14.415
49054W        W17472  30.634  39.544   4.215
49055W        W17473   3.880  16.678   4.628
49056W        W17474  11.127  28.439  14.961
49057W        W17475  27.040  14.143   5.124
49058W        W17476  30.650  29.492   3.186
49059W        W17477  14.178  40.922   4.757
49060W        W17478  39.317  13.780  13.000
49061W        W17479  34.914  11.127  13.374
49062W        W17480   0.815   5.366  12.949
49063W        W17481  35.570  38.014  11.019
49064W        W17482  11.263  36.866   0.847
49065W        W17483  24.541  30.092  11.059
49066W        W17484   4.254   5.878  12.526
49067W        W17485  15.708  10.706  11.584
49068W        W17486  43.499  43.323  14.915
49069W        W17487  39.440   5.804   0.287
49070W        W17488  44.306   7.236  14.871
49071W        W17489   0.975  17.737  11.530
49072W        W17490  33.524  18.701  13.875
49073W        W17491  31.478   6.900  14.823
49074W        W17492  34.498   8.656  11.560
49075W        W17493   6.866  19.133  10.519
49076W        W17494  44.451  27.197  13.963
49077W        W17495  15.824   0.371  13.394
49078W        W17496  41.404   7.270  11.006
49079W        W17497   2.412  12.615  12.069
49080W        W17498  12.695  41.832   4.733
49081W        W17499  34.900  31.518  11.587
49082W        W17500   4.767  19.255   4.670
49083W        W17501   2.459  12.259   4.122
49084W        W17502   2.746  12.230   4.666
49085W        W17503   5.345  26.084   4.617
49086W        W17504  43.942  19.640   5.117
49087W        W17505  18.243   9.193  13.427
49088W        W17506   1.772  31.138  14.363
49089W        W17507   6.408  36.438   2.765
49090W        W17508  27.526  36.982   3.318
49091W        W17509  43.857  21.224  12.069
49092W        W17510  16.097  27.586   0.748
49093W        W17511  10.708  35.062  13.909
49094W        W17512   8.843  35.929  13.977
49095W        W17513  21.653  17.711  14.929
49096W        W17514   0.831   0.386   4.643
49097W        W17515   0.262  10.314   4.762
49098W        W17516  32.964   8.801  11.531
49099W        W17517  18.279   5.833   3.640
49100W        W17518  14.656  44.801  13.413
49101W        W17519   2.332  33.997  13.481
49102W        W17520  17.669  24.722   3.230
49103W        W17521  11.131   9.238   3.186
49104W        W17522   9.814  17.146  14.989
49105W        W17523   9.209  38.423   0.397
49106W        W17524  14.616  14.628   1.392
49107W        W17525  20.550  33.975  11.955
49108W        W17526  38.474  35.524  11.479
49109W        W17527  19.215  24.540  13.906
49110W        W17528  34.575  35.065   1.210
49111W        W17529  18.074  37.499  12.962
49112W        W17530  40.932  15.621  10.541
49113W        W17531   0.848  27.631   3.833
49114W        W17532  31.608   1.745  11.869
49115W        W17533  41.976  15.235  11.507
49116W        W17534  23.504  39.449  13.038
49117W        W17535   8.812  40.989  12.577
49118W        W17536  11.159   0.323   1.223
49119W        W17537  28.602  11.327  14.985
49120W        W17538  18.276  22.239  10.597
49121W        W17539   6.223   0.437  12.988
49122W        W17540  14.766  27.161  10.915
49123W        W17541  15.193  11.793  14.319
49124W        W17542  29.437  15.239   0.777
49125W        W17543   7.176  23.177   0.893
49126W        W17544  12.275  17.582  13.375
49127W        W17545  16.134   6.859   3.185
49128W        W17546  12.803   7.861  13.387
49129W        W17547  29.973  18.790   0.957
49130W        W17548   5.721  34.022   4.315
49131W        W17549  20.144   1.280  11.897
49132W        W17550  31.642  19.614  10.913
49133W        W17551   5.839  30.017   1.353
49134W        W17552   3.370  20.210  14.889
49135W        W17553  37.433  28.444  13.496
49136W        W17554   8.288  12.712  13.428
49137W        W17555  34.062  10.778   0.889
49138W        W17556  37.902  43.320   1.229
49139W        W17557  32.400  26.576  10.941
49140W        W17558  16.229  22.040  12.080
49141W        W17559   9.817  37.064   2.268
49142W        W17560  14.638  30.988   2.888
49143W        W17561   1.288  19.250   2.365
49144W        W17562   0.829  27.499  13.517
49145W        W17563  27.557  14.801  13.427
49146W        W17564  24.544  32.079  14.833
49147W        W17565  20.207   1.826  12.499
49148W        W17566  11.238  28.654   1.731
49149W        W17567  20.058  40.015   1.908
49150W        W17568  28.044  14.144   0.244
49151W        W17569  22.174  17.141   2.326
49152W        W17570  29.578  22.548  13.391
49153W        W17571  43.353  33.007   3.365
49154W        W17572  34.419  33.450   1.370
49155W        W17573  23.523  35.559   2.690
49156W        W17574  24.581   7.897   3.839
49157W        W17575   2.788  42.418  11.500
49158W        W17576  24.046  12.611  10.586
49159W        W17577  24.012  43.920  14.366
49160W        W17578   4.791  42.993  14.485
49161W        W17579  30.911  22.216  12.849
49162W        W17580  35.064  25.497   1.901
49163W        W17581   2.390  32.136  14.394
49164W        W17582  22.213  43.432   2.825
49165W        W17583   3.371  21.601  11.574
49166W        W17584  15.638   6.743   2.757
49167W        W17585  17.185  31.582   1.335
49168W        W17586   7.837   5.730   0.458
49169W        W17587   1.869  34.040   1.330
49170W        W17588  43.006  13.677   1.417
49171W        W17589  22.138  38.563   2.346
49172W        W17590  38.939   7.240  13.499
49173W        W17591  30.164  19.284  10.600
49174W        W17592  13.619  38.957   4.264
49175W        W17593  34.951   0.326  12.388
49176W        W17594  21.687  22.221   1.850
49177W        W17595  27.496   8.722   5.302
49178W        W17596  44.319  33.411   4.652
49179W        W17597  28.159  14.169  13.054
49180W        W17598   1.258  19.589  11.095
49181W        W17599  21.559   4.316  14.430
49182W        W17600  38.535  34.576   0.351
49183W        W17601   0.339  13.177   3.824
49184W        W17602  17.751  39.467   2.763
49185W        W17603   7.387  32.130  12.837
49186W        W17604  21.743  42.447  12.860
49187W        W17605   5.810  38.529  11.965
49188W        W17606  26.542  17.197  11.021
49189W        W17607  15.618  22.631   1.816
49190W        W17608  35.432  29.161   0.740
49191W        W17609  32.508  29.982   3.195
49192W        W17610  42.439   7.357   4.760
49193W        W17611   5.755  13.611  10.576
49194W        W17612   6.892  23.513  13.834
49195W        W17613  19.726  44.451  14.969
49196W        W17614  20.236   3.948  13.380
49197W        W17615  18.602  44.988  14.819
49198W        W17616  16.279  33.410  12.883
49199W        W17617  21.173   8.224  13.537
49200W        W17618  38.399  30.026  13.419
49201W        W17619   7.215   4.827  11.406
49202W        W17620  16.276  14.336  10.910
49203W        W17621  16.148  25.697   2.227
49204W        W17622  14.292   4.292   1.781
49205W        W17623  37.032  16.706  11.937
49206W        W17624  31.560   0.977  11.544
49207W        W17625  27.547  33.061   3.658
49208W        W17626   7.412   4.783   0.404
49209W        W17627  44.384  15.129   3.334
49210W        W17628  34.886   1.275   2.218
49211W        W17629  32.021   5.343   0.941
49212W        W17630  26.499  11.317   2.852
49213W        W17631   2.908  29.517   4.226
49214W        W17632  23.011  32.405  12.576
49215W        W17633   3.265  33.045  11.957
49216W        W17634   7.900  10.819   0.919
49217W        W17635  41.018   1.252  14.953
49218W        W17636  11.252  42.379   4.119
49219W        W17637   2.262  27.463  12.011
49220W        W17638   7.201  30.576   3.662
49221W        W17639  19.537  26.170   2.766
49222W        W17640  38.841  35.533  11.594
49223W        W17641  44.959  36.389  12.972
49224W        W17642  18.216  20.050  13.474
49225W        W17643  20.616  24.557   1.785
49226W        W17644  36.559  24.540  10.486
49227W        W17645  37.910  18.088   2.258
49228W        W17646   6.768  22.614   2.840
49229W        W17647   4.329  42.825  13.345
49230W        W17648  25.969  21.721   2.365
49231W        W17649  32.499  38.865  10.603
49232W        W17650  27.547  29.172   3.262
49233W        W17651  31.139   7.868  10.981
49234W        W17652  34.383  18.292  11.903
49235W        W17653  36.420  20.709  13.838
49236W        W17654  33.575   0.476   2.846
49237W        W17655   2.790  35.949   3.257
49238W        W17656  23.621   8.889  14.770
49239W        W17657  42.019   4.247   0.827
49240W        W17658  17.292  21.254  14.997
49241W        W17659  15.186  39.809   3.269
49242W        W17660  21.238  20.693  12.912
49243W        W17661  40.416   4.724   2.674
49244W        W17662  15.177   8.726  13.327
49245W        W17663   9.837  28.653   2.356
49246W        W17664   4.420  14.713   3.357
49247W        W17665  27.958   6.390   3.822
49248W        W17666  38.008  30.088   2.362
49249W        W17667   0.852   3.745   0.817
49250W        W17668  39.021  24.671   4.309
49251W        W17669  39.540  37.042   3.241
49252W        W17670   4.308  40.048   3.168
49253W        W17671  33.967  20.220   2.361
49254W        W17672   7.330   7.344  13.454
49255W        W17673  24.592  43.406  14.835
49256W        W17674  44.440   6.804   2.863
49257W        W17675  29.515  28.183  13.952
49258W        W17676  19.773   3.405  13.941
49259W        W17677   1.347  14.197  11.972
49260W        W17678   7.893   8.281   3.772
49261W        W17679  19.607  39.477   4.659
49262W        W17680   0.954  17.142   0.940
49263W        W17681   5.904  15.757  11.995
49264W        W17682  22.246  27.956  12.028
49265W        W17683  34.558   4.829  14.341
49266W        W17684   7.399   5.708  11.981
49267W        W17685   2.415  30.463   3.751
49268W        W17686  16.219  24.506   0.934
49269W        W17687  22.535  36.390  11.014
49270W        W17688  38.472   3.242  10.467
49271W        W17689  19.262  29.608   4.328
49272W        W17690  38.502   4.299  11.960
49273W        W17691   2.414  20.180   2.273
49274W        W17692  14.670  31.111  13.334
49275W        W17693  42.382  31.571   4.211
49276W        W17694  39.961  41.945  12.352
49277W        W17695  37.375  18.250   4.790
49278W        W17696  13.838  27.119  13.489
49279W        W17697  44.008  41.517   3.800
49280W        W17698  43.471   1.434  14.368
49281W        W17699  44.861  13.715  10.550
49282W        W17700  35.050  15.147  10.930
49283W        W17701  10.236  14.326   3.778
49284W        W17702  42.438  36.992   3.751
49285W        W17703  28.101   0.882   9.956
49286W        W17704   6.415   1.355   2.407
49287W        W17705  19.132  36.852  13.972
49288W        W17706   6.330  28.010   1.343
49289W        W17707   5.706   5.794   4.709
49290W        W17708  24.598  42.886   3.735
49291W        W17709  20.673   8.767  12.422
49292W        W17710  20.122  29.933  13.521
49293W        W17711   8.763  25.193   2.750
49294W        W17712  19.567  15.255   4.119
49295W        W17713  32.612  13.735  14.929
49296W        W17714  34.968   0.946  11.986
49297W        W17715   9.833  34.530  13.936
49298W        W17716  34.075  43.779  12.422
49299W        W17717   3.253  43.330   2.720
49300W        W17718  13.774  44.262  14.366
49301W        W17719  36.541  17.199   1.243
49302W        W17720   2.770  25.573   1.422
49303W        W17721   7.306   8.874  11.940
49304W        W17722   7.716   4.336  14.950
49305W        W17723  30.554  26.208   1.830
49306W        W17724   2.851  21.116  12.894
49307W        W17725  19.574  24.136   0.958
49308W        W17726  26.976  36.525   4.146
49309W        W17727  12.239  43.497  14.831
49310W        W17728  25.708  25.971  14.772
49311W        W17729  32.611  44.312  13.914
49312W        W17730  11.740  12.263   2.743
49313W        W17731  26.128  16.589  11.399
49314W        W17732  15.171  18.281   1.240
49315W        W17733  44.486  25.097  13.898
49316W        W17734  37.846  42.878  10.059
49317W        W17735  26.662  15.592   0.962
49318W        W17736  33.085  15.761  12.908
49319W        W17737  39.443   4.716  14.462
49320W        W17738  20.087  41.905  14.792
49321W        W17739  23.026  25.090  14.774
49322W        W17740  17.568   8.405   4.660
49323W        W17741  22.571  24.705  13.373
49324W        W17742  26.514  26.104  13.389
49325W        W17743   2.233  29.956  11.415
49326W        W17744  27.167  44.790   1.732
49327W        W17745  42.359   3.856  12.468
49328W        W17746  14.771  10.665   1.411
49329W        W17747  15.169  22.115   0.346
49330W        W17748  16.214  22.609  13.043
49331W        W17749  40.016  19.607  10.622
49332W        W17750  36.584  34.042   0.430
49333W        W17751  40.396  36.995  12.839
49334W        W17752   6.694  15.693   1.415
49335W        W17753   5.737   7.758  11.371
49336W        W17754  11.802  28.104   1.233
49337W        W17755   7.365  30.609   2.306
49338W        W17756  38.944  42.005  10.568
49339W        W17757   4.444  38.551   4.644
49340W        W17758  17.256  22.613  10.003
49341W        W17759  33.434   3.265  13.385
49342W        W17760  32.922  19.553  14.926
49343W        W17761   7.250  41.534   0.857
49344W        W17762  19.622   7.253   2.331
49345W        W17763  14.822  14.668  12.896
49346W        W17764  28.156  11.708  12.566
49347W        W17765  40.959  33.997  11.911
49348W        W17766  28.634  27.951   0.771
49349W        W17767  26.597  17.760   1.849
49350W        W17768  11.144  22.008  12.878
49351W        W17769  17.633  37.491   0.403
49352W        W17770  21.151  28.157  11.058
49353W        W17771  33.391  29.508   1.923
49354W        W17772  19.053  16.613  11.918
49355W        W17773  23.038  40.333   2.298
49356W        W17774   5.279  41.835  14.497
49357W        W17775  37.912  19.704  11.991
49358W        W17776  14.284  43.374  12.839
49359W        W17777  23.063  16.718  14.800
49360W        W17778  32.568  20.550  12.513
49361W        W17779  10.767   7.904  10.466
49362W        W17780  10.779  33.054   0.885
49363W        W17781  13.780  12.326   2.744
49364W        W17782   3.916  10.192  13.334
49365W        W17783  37.526  15.123   3.380
49366W        W17784   6.298  14.257   1.847
49367W        W17785  15.812  21.546  10.975
49368W        W17786   1.977   5.727  13.964
49369W        W17787  41.448  34.605  14.879
49370W        W17788  31.004  31.954   0.455
49371W        W17789  16.297   8.790   0.789
49372W        W17790  28.003  43.821  14.865
49373W        W17791  17.279  21.095  13.851
49374W        W17792  25.039  13.764   1.405
49375W        W17793  32.406  10.373  11.428
49376W        W17794   9.164  29.980  12.870
49377W        W17795  27.062   0.256  12.468
49378W        W17796  43.963  12.683  10.148
49379W        W17797  11.176  34.584  13.491
49380W        W17798  20.756  43.851  14.835
49381W        W17799  30.912   2.255   1.824
49382W        W17800   1.738   9.662   2.703
49383W        W17801   4.385  42.963   1.220
49384W        W17802  13.281  38.898   3.843
49385W        W17803  25.173  21.538  12.554
49386W        W17804  19.157   3.902  13.954
49387W        W17805  19.762  25.620  11.060
49388W        W17806  24.080   1.899   0.336
49389W        W17807  18.106  17.101  11.970
49390W        W17808  17.246  14.317  12.055
49391W        W17809  39.029   0.959  14.796
49392W        W17810  34.071  34.971  13.470
49393W        W17811  34.517  37.378   0.844
49394W        W17812  18.547  10.362   1.290
49395W        W17813  43.392  19.579  14.391
49396W        W17814  26.691  38.944  13.005
49397W        W17815  42.835   2.839   3.806
49398W        W17816  31.472  27.612  10.897
49399W        W17817   7.767  27.073   2.385
49400W        W17818   7.220  24.143  12.044
49401W        W17819  15.800  28.487  11.491
49402W        W17820  25.624  15.674  12.875
49403W        W17821   4.321   4.226  14.475
49404W        W17822  30.134   9.227  10.460
49405W        W17823  41.963   5.249   0.335
49406W        W17824  22.643  13.105  14.762
49407W        W17825  26.490   4.800   4.603
49408W        W17826  44.862   2.944   4.273
49409W        W17827   6.366  38.882   0.266
49410W        W17828   0.268   9.285   3.831
49411W        W17829  44.312  33.932   0.391
49412W        W17830   0.955  36.077  11.108
49413W        W17831  39.472   3.364  10.616
49414W        W17832  19.083  21.238  11.437
49415W        W17833  21.084  40.950   4.298
49416W        W17834  18.760  15.607  13.833
49417W        W17835  20.185   1.357  12.978
49418W        W17836  32.067  26.479  14.883
49419W        W17837   1.435  17.207   4.253
49420W        W17838   9.724  34.870  13.795
49421W        W17839   1.866  31.472  12.893
49422W        W17840  42.835  40.536  11.527
49423W        W17841  37.477  13.705   4.200
49424W        W17842  15.720  36.385   3.145
49425W        W17843  14.653  25.512  12.862
49426W        W17844  44.854  39.968   1.853
49427W        W17845  14.171  23.585   3.842
49428W        W17846  29.488  15.757   2.306
49429W        W17847   2.786  21.081   3.163
49430W        W17848  35.522  43.479   0.828
49431W        W17849   8.344  25.638  14.312
49432W        W17850  15.597   5.844   0.293
49433W        W17851  33.381  25.117  13.387
49434W        W17852   5.393   5.741  11.469
49435W        W17853  28.012  17.583   0.856
49436W        W17854  36.039   9.822   1.388
49437W        W17855  41.865  36.578   4.793
49438W        W17856  36.045  39.977   9.572
49439W        W17857  21.662  32.584   0.271
49440W        W17858  12.789  24.623  12.848
49441W        W17859  39.016  11.629  11.603
49442W        W17860  27.998  39.473   2.729
49443W        W17861  36.048  41.419  14.768
49444W        W17862   5.708   7.720   2.390
49445W        W17863  40.342  27.591   3.635
49446W        W17864   3.952   2.398   0.293
49447W        W17865  32.518   4.733  10.446
49448W        W17866  23.706  24.229   3.258
49449W        W17867  32.931  40.997   2.677
49450W        W17868   0.353   2.301   2.710
49451W        W17869  34.001  17.241  14.819
49452W        W17870  41.804   5.207  12.520
49453W        W17871  33.488  29.943  13.041
49454W        W17872  25.660  16.189   2.781
49455W        W17873  29.657  18.619  13.948
49456W        W17874  23.501  33.459   0.869
49457W        W17875  42.356  42.353  14.914
49458W        W17876  42.030   2.766  11.871
49459W        W17877  42.843  41.981  10.526
49460W        W17878  13.734  16.105  14.907
49461W        W17879  26.493  14.323   0.835
49462W        W17880  19.553  23.574  13.868
49463W        W17881  24.107  32.082  12.832
49464W        W17882  15.793  31.614  14.493
49465W        W17883  38.027   1.805  12.867
49466W        W17884   3.459  19.570   4.253
49467W        W17885  37.393   5.742   0.786
49468W        W17886   8.874  27.069  13.883
49469W        W17887   8.330  44.808  11.934
49470W        W17888   7.754  38.057   3.153
49471W        W17889  23.731  35.399   2.199
49472W        W17890   0.772  10.656   3.226
49473W        W17891  41.454  29.934  14.988
49474W        W17892  18.148   1.923   4.813
49475W        W17893   2.344  44.943  14.336
49476W        W17894   4.286  37.576  13.062
49477W        W17895  37.360  28.155  12.491
49478W        W17896  38.355  42.846   2.283
49479W        W17897   0.431  37.989  10.997
49480W        W17898  11.189   8.362  13.897
49481W        W17899  35.363  36.380  12.998
49482W        W17900   5.381  35.068  13.364
49483W        W17901   5.839  14.773  12.458
49484W        W17902  25.087  34.956   3.355
49485W        W17903   2.847   8.199   3.207
49486W        W17904   4.299  22.533   3.828
49487W        W17905  16.758   5.807  13.356
49488W        W17906  25.991  37.872   2.290
49489W        W17907  32.054  12.662  10.980
49490W        W17908  44.325  39.506   4.319
49491W        W17909  15.721  22.539  12.050
49492W        W17910   9.383   8.208  13.973
49493W        W17911  32.570  19.603  14.278
49494W        W17912  31.594   4.894   0.908
49495W        W17913  25.188  10.249   4.814
49496W        W17914  18.685  26.659  10.155
49497W        W17915  37.550  40.454   2.697
49498W        W17916  42.860  15.719  10.580
49499W        W17917  34.382  41.899  13.064
49500W        W17918  42.011  22.704  11.976
49501W        W17919  13.132  37.048  12.377
49502W        W17920  32.088   1.336   0.434
49503W        W17921   0.285  10.797  14.799
49504W        W17922  12.768  15.807   2.876
49505W        W17923   9.645  17.110  14.307
49506W        W17924  33.409  44.941  14.414
49507W        W17925  33.939   0.290   2.393
49508W        W17926  32.546  31.498  10.443
49509W        W17927  41.791  33.418   1.718
49510W        W17928  38.937   8.864   4.760
49511W        W17929  38.471  22.233   4.633
49512W        W17930  19.537  22.608   2.272
49513W        W17931  27.018  34.872   1.895
49514W        W17932  41.821  33.618   4.827
49515W        W17933  27.615  26.015   0.796
49516W        W17934  21.216   2.465   0.827
49517W        W17935   9.813  18.768  10.916
49518W        W17936  33.505  12.196   3.310
49519W        W17937  19.580  16.198   0.917
49520W        W17938  20.030   8.315  14.402
49521W        W17939   0.760  26.516  14.807
49522W        W17940   8.284  12.195  14.839
49523W        W17941   3.262  32.436  11.937
49524W        W17942  14.222  22.239   0.282
49525W        W17943  28.106  33.466   2.788
49526W        W17944  34.582   4.926   0.789
49527W        W17945   3.748   1.265  13.428
49528W        W17946  37.074  40.401  13.312
49529W        W17947   1.761  15.720   3.637
49530W        W17948  12.209   6.744   1.217
49531W        W17949  31.450  22.729   3.169
49532W        W17950   3.878  13.846   4.122
49533W        W17951  11.202  42.896   0.374
49534W        W17952  21.041   8.267   1.273
49535W        W17953  36.403   7.405  10.551
49536W        W17954  16.178   6.894  13.961
49537W        W17955  39.979   9.235  14.810
49538W        W17956  36.845  20.659  13.854
49539W        W17957  35.384  36.982   0.399
49540W        W17958  26.037  24.064   0.750
49541W        W17959  21.250  19.738   1.350
49542W        W17960  16.714  31.020   0.325
49543W        W17961  34.928  11.140   3.836
49544W        W17962  25.088  42.939   2.208
49545W        W17963  12.173  34.914   1.788
49546W        W17964  44.833  37.945   2.874
49547W        W17965  15.088  19.594  11.016
49548W        W17966   8.225   2.921   1.259
49549W        W17967  30.501  35.989   2.348
49550W        W17968  24.154  12.166  14.977
49551W        W17969  32.967  12.208  12.358
49552W        W17970  36.417  11.220   2.204
49553W        W17971  37.360  28.671   4.617
49554W        W17972  32.458  10.856   1.773
49555W        W17973  25.140  27.473  12.431
49556W        W17974  44.405  26.619   0.401
49557W        W17975  24.070  18.207  11.101
49558W        W17976  41.889  21.249  10.093
49559W        W17977  19.072  17.671   2.293
49560W        W17978   7.342  40.820   2.901
49561W        W17979  23.671  34.595   4.667
49562W        W17980  14.260  12.792   4.157
49563W        W17981  40.815   6.824   4.609
49564W        W17982  14.667   3.850  10.461
49565W        W17983  33.451   3.889   1.734
49566W        W17984  38.394   0.371   0.274
49567W        W17985  31.490  33.888  13.513
49568W        W17986  36.907  14.835   4.269
49569W        W17987  28.651  26.975   0.890
49570W        W17988  22.659  31.927   2.863
49571W        W17989   2.838   7.748   0.478
49572W        W17990  20.046  23.648   0.786
49573W        W17991  22.626  16.758   1.905
49574W        W17992  29.559   8.365  12.543
49575W        W17993  42.945  17.669  13.835
49576W        W17994   7.863  11.663  10.998
49577W        W17995  17.120  24.216   5.206
49578W        W17996  11.667  24.099  14.432
49579W        W17997  31.467  29.538  13.521
49580W        W17998   3.722  42.370  12.461
49581W        W17999  30.486  27.166   1.324
49582W        W18000   4.314  40.481  10.600
49583W        W18001  43.794  26.631   4.674
49584W        W18002   3.359   8.712  10.986
49585W        W18003  15.192   6.343   2.687
49586W        W18004  14.218  23.121   3.373
49587W        W18005  13.110  22.729   2.213
49588W        W18006  42.430  17.753  12.024
49589W        W18007  38.563   8.789   0.765
49590W        W18008   6.292  40.401   4.705
49591W        W18009  13.195  25.621   4.785
49592W        W18010  41.504  27.582   1.730
49593W        W18011  24.988   5.372   4.200
49594W        W18012  28.501  16.577   4.198
49595W        W18013  42.869  38.330   1.449
49596W        W18014  12.289  19.630   4.625
49597W        W18015  32.628  36.502  11.087
49598W        W18016   3.840  27.486   0.731
49599W        W18017  28.550  22.576   3.274
49600W        W18018  37.057  33.966   2.842
49601W        W18019  11.218  29.608   1.698
49602W        W18020  36.959  17.614   2.294
49603W        W18021  41.459  15.658   3.747
49604W        W18022  28.640  43.446  10.575
49605W        W18023  35.487  15.114  11.391
49606W        W18024  13.206   4.275   3.192
49607W        W18025  40.414  13.301  10.634
49608W        W18026  32.056  15.091  10.460
49609W        W18027  26.986  20.539   0.930
49610W        W18028  16.138  35.081   0.455
49611W        W18029  43.498  28.941  13.995
49612W        W18030  23.237  22.653  11.557
49613W        W18031  27.544  30.979   3.651
49614W        W18032  30.072  13.281  13.518
49615W        W18033   1.279  17.685   1.328
49616W        W18034  34.461   1.482  11.998
49617W        W18035  11.143   4.728  10.458
49618W        W18036  15.259  25.127  13.994
49619W        W18037  20.650  31.449  10.584
49620W        W18038  23.681  15.314   3.178
49621W        W18039  31.403  37.963   1.847
49622W        W18040   3.834  32.988   2.280
49623W        W18041  31.151  37.373  10.106
49624W        W18042  12.301  12.266   2.886
49625W        W18043  13.646   1.867   1.391
49626W        W18044  32.921   7.801   3.252
49627W        W18045   7.728  17.697   0.790
49628W        W18046  13.757  22.742  11.973
49629W        W18047  44.992  14.339   1.214
49630W        W18048  42.878  22.249   3.715
49631W        W18049  21.195  13.229  10.482
49632W        W18050  22.719  20.606  14.429
49633W        W18051  21.625  37.961  10.137
49634W        W18052  37.465  31.062   5.199
49635W        W18053  31.087  19.772   0.321
49636W        W18054   8.406  22.608  13.437
49637W        W18055  31.112  40.868   4.206
49638W        W18056   5.341  31.442   1.703
49639W        W18057  12.796  22.702  14.327
49640W        W18058  15.595  25.622   0.789
49641W        W18059  33.986  38.564  13.526
49642W        W18060  26.010   3.231  10.958
49643W        W18061   8.229  23.563  10.544
49644W        W18062  29.616  43.448  11.491
49645W        W18063  25.495  18.741  12.437
49646W        W18064  36.492   1.437  14.797
49647W        W18065  36.576  17.736   1.448
49648W        W18066  26.124  32.531   1.718
49649W        W18067  20.088  27.466  13.018
49650W        W18068  19.672   0.876   4.270
49651W        W18069   5.798  28.599  13.013
49652W        W18070  30.427   6.729  10.929
49653W        W18071  15.581  34.582   1.333
49654W        W18072  27.064  41.842  10.969
49655W        W18073  43.845  14.110  11.480
49656W        W18074   4.209  12.157  14.419
49657W        W18075   9.672  31.540  13.058
49658W        W18076  33.933   6.714  13.370
49659W        W18077  15.090  21.245   2.309
49660W        W18078  13.621   1.290   4.819
49661W        W18079  22.618   4.891   3.263
49662W        W18080  13.827  11.690   4.176
49663W        W18081  44.340  20.112   0.343
49664W        W18082   5.698  40.910  14.867
49665W        W18083  42.425  39.412  12.340
49666W        W18084  33.569  41.307  12.049
49667W        W18085  18.205  34.582  10.436
49668W        W18086   4.352  37.532  10.637
49669W        W18087  33.536   5.705   2.386
49670W        W18088  19.602  30.943  12.066
49671W        W18089   2.369  38.017  12.482
49672W        W18090  32.578  31.571  14.799
49673W        W18091  37.385  17.175   0.933
49674W        W18092  35.484   2.809   2.733
49675W        W18093  21.567   6.273   3.847
49676W        W18094  36.946  40.925  13.034
49677W        W18095  32.062  17.566   0.787
49678W        W18096  24.173   1.885  14.853
49679W        W18097  42.014  25.178  11.606
49680W        W18098  33.582  11.802   0.279
49681W        W18099   7.812  32.618   2.856
49682W        W18100  21.625  28.015   3.856
49683W        W18101  26.002  11.776  13.039
49684W        W18102  38.873  28.580   4.188
49685W        W18103  32.114  20.612  12.834
49686W        W18104  27.963  12.313   4.119
49687W        W18105  34.401   1.390  11.005
49688W        W18106  22.054  24.199   2.195
49689W        W18107  31.921   1.366   1.425
49690W        W18108   7.766  12.798  10.013
49691W        W18109  39.868  24.140   1.443
49692W        W18110   5.799  29.956  11.534
49693W        W18111  42.287  30.963   1.345
49694W        W18112  17.747  27.642  14.960
49695W        W18113  44.865  27.632   1.853
49696W        W18114  28.448  25.697  10.909
49697W        W18115  33.386  44.907  11.429
49698W        W18116  44.816  17.303  10.440
49699W        W18117  40.023  30.577   0.460
49700W        W18118  12.725  14.300   2.869
49701W        W18119  36.463  15.310  11.470
49702W        W18120   6.863  33.576   0.289
49703W        W18121  32.475   1.931  13.469
49704W        W18122   7.234   6.705  14.460
49705W        W18123  18.169  19.658  12.939
49706W        W18124  21.613  22.584   4.348
49707W        W18125  40.379  26.478  12.908
49708W        W18126  13.662  41.486   2.875
49709W        W18127  44.808  39.960  10.945
49710W        W18128  17.596   0.818  14.464
49711W        W18129  11.866   8.347  11.891
49712W        W18130   3.907  21.126   3.841
49713W        W18131  26.587   3.917   3.254
49714W        W18132   4.268   6.392   3.769
49715W        W18133  42.452  23.553  12.975
49716W        W18134  18.072  36.471   3.752
49717W        W18135  37.006   6.267   4.309
49718W        W18136   0.894  29.951  10.619
49719W        W18137  21.692   8.324   0.259
49720W        W18138  12.685  26.572  11.991
49721W        W18139   6.800   9.866  14.871
49722W        W18140   6.221  39.531   4.737
49723W        W18141  24.019  29.157   0.290
49724W        W18142  26.460   0.936   0.312
49725W        W18143  43.301   0.253   2.887
49726W        W18144  16.150  22.009  12.894
49727W        W18145  10.699  24.495  10.938
49728W        W18146  40.834   0.947  12.355
49729W        W18147   0.348  41.788   0.261
49730W        W18148   8.779   9.818   0.783
49731W        W18149  41.856   4.215   4.655
49732W        W18150  12.719  41.329   1.893
49733W        W18151  16.078  15.778  10.929
49734W        W18152  43.977   7.275  14.850
49735W        W18153  18.243  15.729  11.889
49736W        W18154  17.715  35.021  11.395
49737W        W18155  25.544  11.153  10.481
49738W        W18156  19.120  23.164   3.662
49739W        W18157  25.574   6.210   4.744
49740W        W18158  32.477  28.971  13.927
49741W        W18159  17.631  31.590   1.705
49742W        W18160  15.259  15.675   0.901
49743W        W18161  16.151  43.491   3.793
49744W        W18162  41.928  24.594  10.889
49745W        W18163  22.182   5.891  13.792
49746W        W18164   5.864  15.623   3.731
49747W        W18165  44.332  18.169  10.991
49748W        W18166   5.370  32.609  13.957
49749W        W18167  30.070  23.044  13.019
49750W        W18168   0.869  40.920  14.423
49751W        W18169  12.633   5.237   2.786
49752W        W18170   9.851  18.220   4.245
49753W        W18171  35.972  42.819   2.776
49754W        W18172  11.838   4.396   0.407
49755W        W18173  11.292   2.468   4.646
49756W        W18174  13.698  25.207   2.725
49757W        W18175  21.058  37.577   1.258
49758W        W18176  21.674  23.573   9.463
49759W        W18177  38.005  35.480  12.470
49760W        W18178  26.566  35.871   1.412
49761W        W18179   1.740  42.419  14.760
49762W        W18180  20.563  39.315   3.849
49763W        W18181  41.374  27.613  13.031
49764W        W18182  10.379  24.190  11.995
49765W        W18183  28.518  39.919   1.244
49766W        W18184  10.205   6.729  10.512
49767W        W18185  35.563   8.758  12.973
49768W        W18186  35.099  43.823  12.947
49769W        W18187  25.216  27.970  10.644
49770W        W18188  33.980   2.233  14.890
49771W        W18189  23.643   4.351   4.183
49772W        W18190  44.368  24.168   9.617
49773W        W18191  19.594  26.467   3.770
49774W        W18192   1.250   5.697   3.305
49775W        W18193  21.545  42.804   2.306
49776W        W18194   7.359  23.211   3.350
49777W        W18195  33.936   9.735  10.940
49778W        W18196  30.994   2.262  12.889
49779W        W18197  32.622  39.893   3.239
49780W        W18198  29.456  13.230  12.091
49781W        W18199  31.087   3.230  12.964
49782W        W18200   9.714  39.935   3.662
49783W        W18201   8.284  36.483   4.720
49784W        W18202  23.705  32.460  12.056
49785W        W18203  17.225  32.936  11.551
49786W        W18204  29.929  13.276  14.946
49787W        W18205   2.349  11.170   0.782
49788W        W18206   6.746  44.768   2.260
49789W        W18207  10.755  16.674   3.344
49790W        W18208  44.849   9.179   0.247
49791W        W18209  34.439  35.085  11.611
49792W        W18210  36.511  17.197   0.870
49793W        W18211  31.023  25.978  12.915
49794W        W18212   7.843  33.431  12.448
49795W        W18213   7.327  35.545   2.331
49796W        W18214   5.836  19.187   2.675
49797W        W18215   5.343   6.263  14.939
49798W        W18216  43.276  16.284  11.996
49799W        W18217  14.207  31.532   3.673
49800W        W18218  14.166  35.033  10.474
49801W        W18219  38.460  40.410  14.759
49802W        W18220  24.145  20.673   0.881
49803W        W18221   0.440   9.781   1.919
49804W        W18222   0.906  22.616   1.217
49805W        W18223  27.077  13.319  12.942
49806W        W18224  42.423   4.790   2.717
49807W        W18225  16.154  28.052   2.331
49808W        W18226   5.300   4.397  11.019
49809W        W18227   5.392  11.234   2.838
49810W        W18228  36.406  44.002  11.087
49811W        W18229  36.037  41.410   1.718
49812W        W18230  13.197  13.668  14.836
49813W        W18231   3.836  22.250   1.355
49814W        W18232  15.182  38.525   4.307
49815W        W18233  43.317  21.717   0.482
49816W        W18234  24.185  26.099   0.330
49817W        W18235  29.568   8.329  10.060
49818W        W18236   6.792  32.962  10.635
49819W        W18237  13.728  18.096   2.255
49820W        W18238  14.308   0.946  12.461
49821W        W18239  30.539   4.844  14.501
49822W        W18240   5.889  27.094   2.283
49823W        W18241  30.425  26.997   3.835
49824W        W18242  37.482  27.033  12.566
49825W        W18243  40.813  24.091   3.662
49826W        W18244  36.877   9.289   4.159
49827W        W18245  40.837  33.906   3.150
49828W        W18246  32.102  30.626   2.348
49829W        W18247  43.013   4.858   4.834
49830W        W18248  27.991  33.898  12.975
49831W        W18249  31.493  28.467  12.906
49832W        W18250  27.686  24.481   3.730
49833W        W18251  35.871  40.903   0.912
49834W        W18252  26.151  20.700  12.523
49835W        W18253   1.930  16.732  13.332
49836W        W18254  41.413  44.810  12.841
49837W        W18255  36.483  33.381  14.346
49838W        W18256  38.075   0.867  10.415
49839W        W18257  19.091  38.955  13.036
49840W        W18258  13.277  35.447   3.719
49841W        W18259  28.182   0.251  12.375
49842W        W18260  33.904  17.236   0.796
49843W        W18261  41.355  26.182  13.920
49844W        W18262   8.872  25.496   3.716
49845W        W18263  39.023  28.979   4.292
49846W        W18264  41.899   4.434   1.412
49847W        W18265  28.454  32.890  12.850
49848W        W18266  15.749  11.730   1.294
49849W        W18267  17.719  27.972  12.546
49850W        W18268  18.599  42.777  14.816
49851W        W18269  27.180  38.069   3.658
49852W        W18270  34.033   6.267   4.627
49853W        W18271  43.860  21.227   4.242
49854W        W18272  43.434  37.995  10.559
49855W        W18273   9.273  39.925  14.932
49856W        W18274  31.072   6.294  12.947
49857W        W18275  27.014  23.131  11.605
49858W        W18276   2.436  24.028  12.948
49859W        W18277  18.546  44.360   3.234
49860W        W18278   1.846  10.306   1.212
49861W        W18279  30.024   7.798   1.923
49862W        W18280  33.401  10.694  10.976
49863W        W18281   0.450  29.543   3.804
49864W        W18282  21.749  12.153  12.477
49865W        W18283   4.877   6.748  13.889
49866W        W18284   5.231   7.182   3.817
49867W        W18285  12.776  39.390  14.416
49868W        W18286   5.719  38.550   0.376
49869W        W18287   6.238  37.933  10.417
49870W        W18288   1.313  38.404  11.882
49871W        W18289   4.861  43.885  10.540
49872W        W18290   8.758   7.235   3.686
49873W        W18291  13.767   7.363   2.669
49874W        W18292   8.887  43.273   3.305
49875W        W18293   7.224  12.252  12.856
49876W        W18294   8.177  13.197  13.807
49877W        W18295  40.525  19.100   3.164
49878W        W18296  19.166  31.909   3.307
49879W        W18297   6.769  41.305  14.340
49880W        W18298  31.903  33.429   3.832
49881W        W18299  29.152  14.698   1.855
49882W        W18300  16.650  28.172  10.973
49883W        W18301  37.838  41.470  13.895
49884W        W18302  31.411  14.176   0.787
49885W        W18303   1.951  11.684  14.020
49886W        W18304   7.226  13.211  12.460
49887W        W18305   6.317  31.421   4.708
49888W        W18306   0.963  15.677  13.908
49889W        W18307  44.282  18.246   3.226
49890W        W18308  12.791  32.571  14.006
49891W        W18309  15.256   1.243   2.317
49892W        W18310  16.075  33.915   2.249
49893W        W18311  21.157  33.411   4.728
49894W        W18312  22.629  40.865   9.466
49895W        W18313  12.248   8.186  13.504
49896W        W18314  18.760  23.075   1.861
49897W        W18315  11.682  18.731  10.988
49898W        W18316  12.719  12.282   4.835
49899W        W18317  33.450  42.919   0.359
49900W        W18318   9.311  22.156  12.019
49901W        W18319  10.251  35.073   4.774
49902W        W18320  29.642  33.928   0.298
49903W        W18321  21.074  11.197   3.325
49904W        W18322  35.437  12.321   1.729
49905W        W18323  32.516  31.083  13.047
49906W        W18324   1.897   3.232  14.031
49907W        W18325  37.498  44.940   0.417
49908W        W18326  12.770  35.958  14.450
49909W        W18327  25.674  38.073  13.512
49910W        W18328  29.463  35.584  13.816
49911W        W18329  37.368  10.704   2.690
49912W        W18330  10.879  43.821  11.487
49913W        W18331  36.520  28.535  13.355
49914W        W18332  18.651   5.352   0.313
49915W        W18333  36.002   1.370  10.447
49916W        W18334  41.027   5.438   4.677
49917W        W18335  23.120  41.000   3.288
49918W        W18336  36.890  34.891   4.314
49919W        W18337  32.504  16.796  14.884
49920W        W18338   5.219  13.109   4.764
49921W        W18339  38.336  39.000   3.682
49922W        W18340  22.213  19.164  14.016
49923W        W18341  19.187   5.832   4.802
49924W        W18342  18.132  11.726  10.429
49925W        W18343   3.849  14.139  14.902
49926W        W18344  39.904  36.892  11.536
49927W        W18345  24.505  17.748  13.323
49928W        W18346  11.818  26.495  13.505
49929W        W18347  13.203   5.302  11.461
49930W        W18348   6.725  20.760   0.338
49931W        W18349  37.491  26.954   2.799
49932W        W18350  29.043   6.198   4.134
49933W        W18351  36.882  44.433   4.803
49934W        W18352  38.903  32.594  11.996
49935W        W18353  43.856  41.038   2.309
49936W        W18354  27.556   2.412  10.427
49937W        W18355  37.499   9.805   1.296
49938W        W18356  17.573  28.547   2.203
49939W        W18357  41.461   5.399   4.336
49940W        W18358   7.178  16.206   2.344
49941W        W18359  41.500  10.155   9.940
49942W        W18360  35.435   7.887  13.491
49943W        W18361  22.195  44.428  13.410
49944W        W18362  24.075  43.968  12.042
49945W        W18363  34.409  13.815   2.211
49946W        W18364  13.706  13.138   2.852
49947W        W18365   1.476  14.211  10.949
49948W        W18366   8.289  32.494  10.601
49949W        W18367  26.077   1.850   4.797
49950W        W18368  23.220  11.238  10.962
49951W        W18369  39.921  44.262   2.883
49952W        W18370  20.160  32.524   0.937
49953W        W18371  32.532  27.482  13.054
49954W        W18372  16.250  11.252   3.235
49955W        W18373  27.455  16.127  14.304
49956W        W18374  22.635  43.416   4.639
49957W        W18375  34.568  22.744  12.041
49958W        W18376  36.854  10.320  14.870
49959W        W18377   7.391   5.750  13.008
49960W        W18378  28.527  35.468   4.747
49961W        W18379  20.621   6.915  13.897
49962W        W18380   6.681   3.850   3.351
49963W        W18381  33.052  35.048   4.650
49964W        W18382  35.504  35.067   0.911
49965W        W18383   2.782   3.733   1.404
49966W        W18384  12.357  12.145  10.499
49967W        W18385  13.312  35.369  11.460
49968W        W18386  11.685  21.515  13.332
49969W        W18387  20.602  39.876  14.887
49970W        W18388  27.470  19.093   4.801
49971W        W18389  29.104  16.275   3.724
49972W        W18390  42.955  12.186  12.485
49973W        W18391   9.862  30.137  12.422
49974W        W18392   7.358  10.254   3.714
49975W        W18393   4.937  15.814   0.334
49976W        W18394  31.071  26.100   3.758
49977W        W18395  15.110  27.107  11.063
49978W        W18396  17.074  34.455  11.972
49979W        W18397  29.565  39.987   1.923
49980W        W18398   5.315  19.051   2.284
49981W        W18399  22.162  29.632  12.904
49982W        W18400  37.839   4.411  11.596
49983W        W18401   4.317  30.936  10.943
49984W        W18402  24.208  12.641   5.102
49985W        W18403  41.963   7.393  13.991
49986W        W18404   4.793  41.403  14.476
49987W        W18405  24.154  40.458   2.372
49988W        W18406  21.728   5.837  11.577
49989W        W18407   4.302  17.268  11.466
49990W        W18408  14.320  30.079  13.984
49991W        W18409  10.160  17.734   2.841
49992W        W18410  32.030  32.474   1.932
49993W        W18411   4.902  14.745   1.306
49994W        W18412   7.308   6.902  13.371
49995W        W18413  11.333   6.704  10.448
49996W        W18414  38.925  35.951   0.360
49997W        W18415  11.303  15.258  10.611
49998W        W18416  26.594   9.359   5.200
49999W        W18417  13.768  11.178  10.588
50000W        W18418  41.042  35.372   1.870
50001W        W18419  33.904  17.788   3.784
50002W        W18420  13.234  22.501   0.464
50003W        W18421  32.987  37.400  13.467
50004W        W18422   1.806   9.644   3.314
50005W        W18423  41.368  32.051   0.826
50006W        W18424  20.571  44.433   4.201
50007W        W18425  16.103  13.836   3.698
50008W        W18426  16.616  42.477   2.797
50009W        W18427  42.935  32.432   4.749
50010W        W18428   7.193   3.802   1.754
50011W        W18429  44.892   8.251   0.795
50012W        W18430  37.474   9.207   4.330
50013W        W18431  17.632  39.353  12.006
50014W        W18432  17.272  20.617   4.268
50015W        W18433  10.775   6.748   1.704
50016W        W18434  35.503  32.097   2.178
50017W        W18435  28.083  34.065  10.947
50018W        W18436  12.319  30.541  13.347
50019W        W18437  26.207  36.077  10.488
50020W        W18438  21.521   3.886   3.148
50021W        W18439  37.864  36.888   5.591
50022W        W18440  10.634   1.268   4.721
50023W        W18441  20.116  30.089   4.734
50024W        W18442   6.230  30.623   4.822
50025W        W18443  42.363  22.664   4.145
50026W        W18444  38.523  38.551   3.843
50027W        W18445  20.242  38.957  13.464
50028W        W18446  40.813  34.945   1.376
50029W        W18447  32.628   1.735   2.897
50030W        W18448  19.193  22.036   3.808
50031W        W18449   8.882  29.452  14.484
50032W        W18450  43.332   6.801   2.673
50033W        W18451  14.738   4.406   0.382
50034W        W18452  25.175   8.343  12.506
50035W        W18453  30.123  27.544  11.113
50036W        W18454   5.217  11.341  14.896
50037W        W18455   3.231  24.511   2.823
50038W        W18456   5.406  44.490   0.795
50039W        W18457   2.235  23.614   4.116
50040W        W18458   0.956  14.136  11.110
50041W        W18459  15.116  25.217  11.033
50042W        W18460  26.974  19.190   2.694
50043W        W18461  28.488   2.290   1.875
50044W        W18462  42.348  32.530  10.532
50045W        W18463  19.111   0.260  10.899
50046W        W18464  25.181  16.216   1.894
50047W        W18465  44.477   9.205   3.364
50048W        W18466  28.650   0.968  13.363
50049W        W18467  42.349  17.608   1.910
50050W        W18468  20.685   7.843  11.509
50051W        W18469  24.976  21.138   5.106
50052W        W18470  44.368   1.953  11.095
50053W        W18471  35.535  37.572  13.877
50054W        W18472  29.144   0.920   1.718
50055W        W18473  31.930  20.635   1.433
50056W        W18474   2.810  22.539   2.303
50057W        W18475  22.195   7.864   1.254
50058W        W18476   8.784  41.305  10.082
50059W        W18477  12.617  34.980  14.945
50060W        W18478  32.101   4.921  11.874
50061W        W18479  15.304  14.160   1.908
50062W        W18480  41.859  44.839   0.479
50063W        W18481  38.374   2.455   3.701
50064W        W18482  17.188  40.490   3.781
50065W        W18483  25.169  30.001  11.104
50066W        W18484  38.072  25.214   3.377
50067W        W18485  34.905  22.100  10.581
50068W        W18486   8.877  18.156  12.576
50069W        W18487  24.980  24.677  10.521
50070W        W18488  28.551  23.605  13.944
50071W        W18489  44.286  15.619  10.900
50072W        W18490  19.557  20.151  11.385
50073W        W18491   7.846  41.842   0.480
50074W        W18492  27.953  38.496  11.501
50075W        W18493  19.762  16.688   3.821
50076W        W18494  13.137  17.696  14.917
50077W        W18495   0.910  28.158   0.896
50078W        W18496   5.713   0.456  11.476
50079W        W18497   6.251  35.967  12.096
50080W        W18498  37.923  38.925   3.291
50081W        W18499  18.753  29.010  11.995
50082W        W18500  14.632  25.024   5.151
50083W        W18501  16.141   1.331   4.210
50084W        W18502  40.442  31.012  13.478
50085W        W18503   7.771  26.005   4.118
50086W        W18504  30.010  33.519  14.372
50087W        W18505   8.803  31.933  12.054
50088W        W18506  18.639  35.507   3.856
50089W        W18507  33.599  42.374  10.564
50090W        W18508   6.327  17.646   3.827
50091W        W18509   4.223  15.233   1.789
50092W        W18510  42.313  38.860  10.409
50093W        W18511  36.907   7.382   0.896
50094W        W18512  34.957  18.152  13.495
50095W        W18513   7.791  43.403  11.952
50096W        W18514  26.126  26.497   1.238
50097W        W18515  24.133   6.302  12.418
50098W        W18516  22.581   4.326  11.900
50099W        W18517  26.060  13.771  14.368
50100W        W18518  27.123  22.739   0.425
50101W        W18519  38.024  16.668   0.399
50102W        W18520  14.242  27.043  14.934
50103W        W18521   0.325  19.692   2.261
50104W        W18522  37.084  40.475   3.819
50105W        W18523   2.919   8.224   4.792
50106W        W18524  29.485   1.950   3.231
50107W        W18525  42.997   7.822  13.449
50108W        W18526  11.734   4.830   4.246
50109W        W18527  40.940  41.988   0.944
50110W        W18528  31.087  21.127   4.118
50111W        W18529  11.301  35.935  13.506
50112W        W18530  13.792  28.560   1.236
50113W        W18531  27.106  25.632   1.796
50114W        W18532   1.734   8.826   1.787
50115W        W18533  12.845  41.456  10.561
50116W        W18534  23.611  29.090  11.516
50117W        W18535   8.805  44.956   1.398
50118W        W18536  19.184  27.455   4.643
50119W        W18537  25.504   3.354   2.376
50120W        W18538  43.272  15.256  14.861
50121W        W18539  36.564  39.890   3.289
50122W        W18540  23.555   0.369   2.848
50123W        W18541  15.613   2.236  11.460
50124W        W18542   6.340   8.738   0.873
50125W        W18543  28.610  23.689  10.508
50126W        W18544   0.983  10.199   0.266
50127W        W18545  39.883  17.298   1.800
50128W        W18546  10.331   5.815   4.132
50129W        W18547  28.981   4.291   3.858
50130W        W18548  10.790  16.185  12.049
50131W        W18549  16.734  28.565   4.680
50132W        W18550  43.771  14.672  12.827
50133W        W18551  24.152  40.871   5.113
50134W        W18552  18.224  27.498  11.604
50135W        W18553  40.549   4.701   4.219
50136W        W18554  27.154   8.746   3.661
50137W        W18555  30.645   9.227   5.205
50138W        W18556  32.027  37.909  11.023
50139W        W18557  15.783  15.148  14.929
50140W        W18558  14.678  26.586  12.350
50141W        W18559   5.275  25.158   0.823
50142W        W18560  13.347  29.631   1.372
50143W        W18561  22.745  33.602  13.456
50144W        W18562  33.934  40.874   4.774
50145W        W18563   5.704   4.404  11.573
50146W        W18564   4.904  34.013   5.231
50147W        W18565  24.511  17.100   3.209
50148W        W18566  31.506  20.171  12.358
50149W        W18567   0.922   3.288   1.340
50150W        W18568  26.590   9.386  13.804
50151W        W18569   7.682  27.099  14.834
50152W        W18570  19.047   3.343  12.042
50153W        W18571  14.142  36.022  13.480
50154W        W18572  33.502  15.689  11.468
50155W        W18573  19.040  20.080   4.624
50156W        W18574   3.365  29.920  11.527
50157W        W18575   6.833  32.462  10.568
50158W        W18576  25.034  39.549  11.382
50159W        W18577  17.271  27.956  11.003
50160W        W18578  16.214  27.178   3.179
50161W        W18579  21.151  21.021   3.161
50162W        W18580  31.428  22.735  10.997
50163W        W18581   3.830   8.854   3.303
50164W        W18582  15.151  34.913   3.710
50165W        W18583  10.799  31.411   2.807
50166W        W18584  11.779  26.184  12.843
50167W        W18585   0.274  18.257  13.393
50168W        W18586   4.752   0.827  11.080
50169W        W18587   6.324   3.215  10.035
50170W        W18588   0.834  42.305  14.433
50171W        W18589  34.417  36.367  11.073
50172W        W18590  36.349  36.393  10.035
50173W        W18591  38.414  23.500   4.642
50174W        W18592  15.595  26.699  13.845
50175W        W18593  34.901  30.112  12.056
50176W        W18594  12.328  13.608  11.895
50177W        W18595  35.442  41.805   1.881
50178W        W18596  27.630   5.223  11.430
50179W        W18597  37.363  19.254   0.805
50180W        W18598  13.792  30.097  13.474
50181W        W18599  14.599  19.283  14.505
50182W        W18600   2.772  37.572  13.918
50183W        W18601  29.115  15.788   2.715
50184W        W18602  21.187  37.565  12.902
50185W        W18603  29.085  39.518  11.511
50186W        W18604  30.415  27.171   1.812
50187W        W18605  29.442  12.183   1.695
50188W        W18606  34.032   8.161   0.919
50189W        W18607  32.497   8.190  14.776
50190W        W18608  12.297  18.246  14.449
50191W        W18609  31.490  13.305   3.771
50192W        W18610  26.590  27.631   3.849
50193W        W18611  32.606  25.029   4.827
50194W        W18612  32.133  26.667  10.493
50195W        W18613  33.389  11.158  14.945
50196W        W18614  15.278  12.193  12.959
50197W        W18615   6.203  30.611  12.471
50198W        W18616  35.932  23.622   2.723
50199W        W18617   4.732  24.228  13.961
50200W        W18618  20.032  20.626  14.441
50201W        W18619   3.317  21.148  14.845
50202W        W18620  18.653  21.151   0.286
50203W        W18621   1.866  44.485  12.400
50204W        W18622  10.825  12.129  12.061
50205W        W18623   0.412  41.459  11.546
50206W        W18624   5.430  18.755  14.350
50207W        W18625  40.947  16.119  14.815
50208W        W18626  22.647  26.597   1.280
50209W        W18627  22.186  20.699   4.747
50210W        W18628  13.777  26.955  10.977
50211W        W18629  17.680  44.389   9.947
50212W        W18630  33.429   2.730  10.541
50213W        W18631  11.783  11.639  14.919
50214W        W18632  17.303  12.359   2.754
50215W        W18633  32.940  44.449   3.638
50216W        W18634  28.633  30.947  13.865
50217W        W18635  27.579  23.612  11.857
50218W        W18636  26.596  43.879   2.740
50219W        W18637  34.932  34.048  14.911
50220W        W18638  12.723  28.042  13.377
50221W        W18639  11.775  43.468   4.660
50222W        W18640  10.670   0.941  14.422
50223W        W18641   0.939  38.519  12.565
50224W        W18642  24.627  22.721  10.467
50225W        W18643  40.971  14.641   4.269
50226W        W18644  14.812  24.589  10.622
50227W        W18645  43.455   0.936   0.352
50228W        W18646  26.025   1.968   1.888
50229W        W18647  14.663  44.827  12.564
50230W        W18648  17.130  38.960  11.937
50231W        W18649   8.882  26.539  12.443
50232W        W18650   5.315  20.694  12.909
50233W        W18651  10.267  16.156   1.307
50234W        W18652  30.452  27.615  13.431
50235W        W18653  32.996  23.544  12.827
50236W        W18654  25.501  41.465  14.776
50237W        W18655  16.234  20.077   0.451
50238W        W18656  37.971   0.862   2.727
50239W        W18657   9.164  10.251  11.989
50240W        W18658  10.199  36.364   2.845
50241W        W18659  28.111  29.971   0.769
50242W        W18660  12.267   5.342   1.267
50243W        W18661   6.900  13.641  10.413
50244W        W18662  34.397   0.329   2.860
50245W        W18663  39.910   3.316   4.312
50246W        W18664   4.280  17.155  12.010
50247W        W18665  16.790  28.119  11.500
50248W        W18666  20.038  39.371  14.315
50249W        W18667  21.701  16.750  13.479
50250W        W18668  36.041   2.735  10.440
50251W        W18669  17.677  36.473   1.838
50252W        W18670   3.859  15.239  13.381
50253W        W18671  12.849  21.602   2.346
50254W        W18672  28.482  35.931   2.900
50255W        W18673  13.347  37.001   4.694
50256W        W18674  26.073   9.193  11.921
50257W        W18675  14.644  32.973  11.866
50258W        W18676  44.298  38.542  10.017
50259W        W18677  21.237  25.667  12.416
50260W        W18678  24.522   8.385   4.166
50261W        W18679  22.208  30.454   1.769
50262W        W18680   1.425   9.352  10.446
50263W        W18681  24.569  15.165  11.932
50264W        W18682   1.932  24.131   4.652
50265W        W18683  36.978  44.463   9.977
50266W        W18684  24.114  24.019   3.799
50267W        W18685  38.990  37.412   0.280
50268W        W18686   3.240  44.887  13.455
50269W        W18687  38.346   0.277  14.846
50270W        W18688  21.527  16.186  11.972
50271W        W18689   0.908  29.549   1.354
50272W        W18690  29.575  23.625  14.907
50273W        W18691   5.433  30.571  14.454
50274W        W18692  41.999  31.446   4.279
50275W        W18693  27.585  32.138   2.886
50276W        W18694  18.592  13.654  13.915
50277W        W18695  31.488   7.846   4.787
50278W        W18696  15.578  32.624   3.320
50279W        W18697  41.984  30.618   5.229
50280W        W18698  27.536  27.992  10.589
50281W        W18699  39.007   9.386  13.014
50282W        W18700   3.415   8.728   3.339
50283W        W18701  14.112  17.674   3.643
50284W        W18702  35.423  44.757   0.451
50285W        W18703   9.259   2.739   2.215
50286W        W18704  44.906  18.552   4.686
50287W        W18705  37.003  14.747  13.000
50288W        W18706  20.170  15.787  12.419
50289W        W18707  22.018  20.621  13.439
50290W        W18708   3.269  37.413  14.011
50291W        W18709   4.824  18.125   2.677
50292W        W18710  39.979  19.548   4.245
50293W        W18711  21.619  29.972   2.218
50294W        W18712  19.120   7.874  14.489
50295W        W18713   9.771  36.512  11.050
50296W        W18714   9.711  15.695   4.628
50297W        W18715  31.978  13.713  11.098
50298W        W18716   1.341   8.402   2.875
50299W        W18717  16.098   4.402   3.656
50300W        W18718   0.830  32.591   2.767
50301W        W18719  10.236   8.296   2.339
50302W        W18720   5.299  14.680  12.078
50303W        W18721   7.723  18.155  14.024
50304W        W18722  36.496   1.844   1.926
50305W        W18723  14.807  34.929  12.365
50306W        W18724  12.629  15.259   1.370
50307W        W18725  15.261  17.664  13.900
50308W        W18726  34.987  36.963   1.310
50309W        W18727  39.892  33.483  12.979
50310W        W18728  39.395  24.156  13.354
50311W        W18729  14.614   9.870   0.416
50312W        W18730   4.846  34.559   3.231
50313W        W18731   3.328  36.375  11.941
50314W        W18732   7.367   9.294  11.877
50315W        W18733   9.326  37.060   0.321
50316W        W18734   2.445  25.643   1.877
50317W        W18735  21.236  40.479   2.849
50318W        W18736  10.176   7.829  12.082
50319W        W18737   6.215   6.869  12.406
50320W        W18738   6.399   2.445   4.258
50321W        W18739  41.300  14.158  13.048
50322W        W18740  16.115  13.262   0.355
50323W        W18741  28.460  31.574   3.312
50324W        W18742  26.025   6.763  12.070
50325W        W18743  43.919   9.219   3.743
50326W        W18744  31.015  18.079  14.829
50327W        W18745  31.590  36.914  14.840
50328W        W18746  30.646  33.083  10.634
50329W        W18747  15.643  30.932   2.888
50330W        W18748   3.762  40.016   1.322
50331W        W18749  27.461  40.360   0.913
50332W        W18750  14.830  19.778  14.896
50333W        W18751   7.838  15.087   3.738
50334W        W18752  10.705  28.675   3.362
50335W        W18753  31.058  41.976  13.331
50336W        W18754   1.819   5.390  12.010
50337W        W18755  32.014  27.941  12.070
50338W        W18756   8.251  13.260  11.418
50339W        W18757   4.835  43.008   0.764
50340W        W18758  20.720   1.942   3.238
50341W        W18759   1.836  11.683   1.225
50342W        W18760  34.091  36.900  14.004
50343W        W18761  27.565   9.647   3.290
50344W        W18762   7.191  35.510  12.053
50345W        W18763  14.235  15.676  14.363
50346W        W18764  15.203  17.731   4.156
50347W        W18765  44.389  14.172   4.187
50348W        W18766  26.111  36.037  11.908
50349W        W18767  34.389  40.995   3.794
50350W        W18768  36.071  16.782  14.877
50351W        W18769  15.324   9.685  14.492
50352W        W18770  25.196  19.123   4.199
50353W        W18771  19.567  16.204  11.389
50354W        W18772  14.225  20.124  10.899
50355W        W18773  24.162  21.116   4.276
50356W        W18774  43.467  15.300   3.658
50357W        W18775   4.867  33.915   3.714
50358W        W18776  24.227   9.341  13.974
50359W        W18777  42.952  36.849   4.191
50360W        W18778  33.010  14.755  13.016
50361W        W18779  29.578  26.615  11.473
50362W        W18780  28.085  32.081   4.624
50363W        W18781  34.537  14.188   0.407
50364W        W18782  40.508  26.159   0.385
50365W        W18783   9.382  23.049  12.047
50366W        W18784  14.650  38.843  14.790
50367W        W18785  19.261   7.310   1.250
50368W        W18786  20.549  26.102  11.007
50369W        W18787  22.099  26.624  13.002
50370W        W18788   3.835  19.562   1.323
50371W        W18789  34.593  26.104  14.963
50372W        W18790  21.696  35.596  14.893
50373W        W18791  34.067  35.978  11.896
50374W        W18792  19.240  32.116   4.126
50375W        W18793   4.382  19.184  10.505
50376W        W18794  13.185   2.427   2.223
50377W        W18795  18.132   2.743   4.218
50378W        W18796  15.266  32.085  13.348
50379W        W18797  44.934  18.223   4.328
50380W        W18798  29.451  41.407  14.477
50381W        W18799  38.565  27.528   1.216
50382W        W18800  30.524  28.959  14.818
50383W        W18801  33.386   0.327  10.046
50384W        W18802   3.387  14.255   1.810
50385W        W18803  40.343  29.578   5.281
50386W        W18804  28.042  17.258   1.786
50387W        W18805  26.985  35.911  10.480
50388W        W18806   8.749  38.037  10.627
50389W        W18807  15.625  20.075   4.163
50390W        W18808  42.480  37.867   2.265
50391W        W18809  24.198  34.973  13.313
50392W        W18810  30.125   7.403   4.838
50393W        W18811  15.682  40.514  12.453
50394W        W18812   9.258  24.529  13.394
50395W        W18813  27.004  19.111  11.482
50396W        W18814   4.213  43.272   0.859
50397W        W18815  42.844   7.823   3.285
50398W        W18816  33.542  24.681   1.320
50399W        W18817  34.528  18.695   3.305
50400W        W18818  38.932   3.733  13.438
50401W        W18819  20.271   9.373  14.332
50402W        W18820   5.832  44.391   4.628
50403W        W18821  32.469  13.129  14.493
50404W        W18822  23.090  17.155   4.813
50405W        W18823   6.194  42.948   2.794
50406W        W18824  24.217  34.041  12.413
50407W        W18825  37.831  35.576   1.746
50408W        W18826  40.923  17.671   4.679
50409W        W18827  24.003  37.924   3.814
50410W        W18828  22.224  24.542   0.386
50411W        W18829  32.511  44.969   3.340
50412W        W18830  19.707  44.406  14.515
50413W        W18831   4.807  21.517  13.040
50414W        W18832  29.008  43.939  14.292
50415W        W18833  41.885  43.835   4.180
50416W        W18834  14.097  23.602  11.999
50417W        W18835   3.883  33.908  11.949
50418W        W18836  13.204  29.031   4.129
50419W        W18837  33.518  13.291   0.878
50420W        W18838   1.280  25.651   1.729
50421W        W18839  24.158  11.726  11.476
50422W        W18840  37.509  44.003   3.778
50423W        W18841  29.073  26.966   4.281
50424W        W18842   3.404  38.885   1.847
50425W        W18843  41.873   5.761   4.640
50426W        W18844  31.489  34.911   3.785
50427W        W18845  20.039   6.807   3.716
50428W        W18846  35.874   5.280  11.559
50429W        W18847  13.150  25.988   0.275
50430W        W18848   4.912  43.911   2.710
50431W        W18849  13.670  19.613  13.344
50432W        W18850  28.937   4.799   4.776
50433W        W18851  19.213  18.059   0.293
50434W        W18852   0.886  13.280   2.333
50435W        W18853  36.080  42.376  12.452
50436W        W18854  35.517  11.860  11.426
50437W        W18855  33.383  20.077  11.067
50438W        W18856  25.622  38.344   3.639
50439W        W18857  27.649  20.035  13.336
50440W        W18858  13.314   9.702  11.419
50441W        W18859  40.449  18.219  11.565
50442W        W18860  25.586  37.548  10.128
50443W        W18861   6.291  38.990   4.298
50444W        W18862  18.586  32.580  12.980
50445W        W18863  39.878  43.307   1.696
50446W        W18864   9.341  33.483  10.058
50447W        W18865  42.334  31.984   3.253
50448W        W18866   7.296  16.578  10.633
50449W        W18867  30.633  29.531   1.837
50450W        W18868  32.950  18.145  12.952
50451W        W18869  26.570  28.039   2.709
50452W        W18870   3.368  10.760   0.365
50453W        W18871   7.727  12.349  12.561
50454W        W18872   8.695  28.976  10.446
50455W        W18873  10.167  18.280   1.862
50456W        W18874  40.910   9.219   0.859
50457W        W18875   4.377  16.300   3.808
50458W        W18876  14.334   1.870  14.495
50459W        W18877   4.223  13.198  10.474
50460W        W18878  44.772   9.754  14.850
50461W        W18879  40.385  41.909   2.796
50462W        W18880   0.882  19.083  13.475
50463W        W18881  13.782  14.280  14.289
50464W        W18882  18.271  25.533   0.888
50465W        W18883  33.418  29.071   1.872
50466W        W18884  41.008   0.326   0.934
50467W        W18885  42.779  10.265   1.932
50468W        W18886  32.997  21.743  11.110
50469W        W18887  10.294  35.383   2.833
50470W        W18888   0.462  26.026  12.431
50471W        W18889  39.451  37.016   4.219
50472W        W18890  30.606  26.152   3.777
50473W        W18891   8.363   4.358   3.817
50474W        W18892  40.896  36.958   0.956
50475W        W18893  24.547  40.358  13.937
50476W        W18894  11.863  25.052   2.853
50477W        W18895  18.762   1.828   4.256
50478W        W18896   0.289  31.014   3.150
50479W        W18897   5.210  14.246   3.156
50480W        W18898  26.074  39.009   0.847
50481W        W18899   0.481  20.253   5.206
50482W        W18900   8.794  32.630   2.732
50483W        W18901   0.384  35.397   3.852
50484W        W18902   2.433   9.347   3.201
50485W        W18903  35.982   4.860  12.483
50486W        W18904  19.587  19.715  10.936
50487W        W18905   4.361  20.108  11.100
50488W        W18906  41.837   7.715   3.214
50489W        W18907  24.536   3.325   0.903
50490W        W18908  28.449  41.021  14.794
50491W        W18909  32.396  22.066   4.350
50492W        W18910  40.441  36.858  11.085
50493W        W18911  20.736  21.138   1.869
50494W        W18912  36.040  12.719   3.829
50495W        W18913  34.540  14.757  11.436
50496W        W18914  18.632  29.544   1.356
50497W        W18915  35.372  29.923  12.548
50498W        W18916   4.389  32.620  14.439
50499W        W18917   9.254  39.382   1.259
50500W        W18918  42.012  17.761   1.293
50501W        W18919  16.144  31.994   4.668
50502W        W18920  16.649  20.769  12.556
50503W        W18921   9.821  23.497   0.955
50504W        W18922  21.706  23.060  10.050
50505W        W18923  15.174   3.768   0.446
50506W        W18924  17.169  26.954   1.389
50507W        W18925  17.101  33.446   2.764
50508W        W18926  34.965  40.446  10.544
50509W        W18927  28.636  14.129   5.106
50510W        W18928  37.855  18.275   0.469
50511W        W18929  21.756  31.141  10.529
50512W        W18930   8.720  10.726  13.998
50513W        W18931  33.952  36.859  10.492
50514W        W18932  37.402  15.273   4.264
50515W        W18933   6.743   6.712  12.999
50516W        W18934  15.802  13.128  11.515
50517W        W18935  20.159  42.813  13.475
50518W        W18936   0.880  16.160   4.188
50519W        W18937   1.321   6.805  10.955
50520W        W18938  43.890  20.143   0.832
50521W        W18939  33.423  34.942  14.340
50522W        W18940   4.269  31.500  14.890
50523W        W18941  40.475  41.969   4.630
50524W        W18942  10.636   1.855   1.882
50525W        W18943  21.641  41.882  12.991
50526W        W18944  38.960   7.901   3.245
50527W        W18945   8.735   8.766  14.414
50528W        W18946  41.312  37.081   3.864
50529W        W18947  25.172  16.646  11.401
50530W        W18948  35.602  41.305   2.840
50531W        W18949  17.735  32.464   1.275
50532W        W18950   8.183  10.366   3.753
50533W        W18951  35.386  11.800  12.964
50534W        W18952  38.966   5.360   3.288
50535W        W18953  36.952  25.655   1.249
50536W        W18954  24.484   9.778   4.760
50537W        W18955  41.426   9.149  12.994
50538W        W18956   6.722  39.853   2.848
50539W        W18957  40.381  31.051  12.961
50540W        W18958   0.305  20.105  11.559
50541W        W18959  34.944  11.662  14.913
50542W        W18960   3.877   9.644  11.425
50543W        W18961  12.794   5.788   2.711
50544W        W18962  30.436  11.158   2.390
50545W        W18963  43.482   7.329  14.453
50546W        W18964  42.846  36.057  13.545
50547W        W18965   8.676   4.718   4.284
50548W        W18966  15.206  25.670  11.530
50549W        W18967  32.465  32.555  12.491
50550W        W18968   9.735  44.372  14.818
50551W        W18969  37.017  16.744  13.371
50552W        W18970  19.537  15.243  11.007
50553W        W18971  19.568   1.844   3.783
50554W        W18972   8.879   7.774   2.288
50555W        W18973  26.511  19.099  12.929
50556W        W18974  23.093   9.196  12.887
50557W        W18975  30.948   5.347   2.680
50558W        W18976  29.616   0.924  11.510
50559W        W18977  30.088   6.712   4.821
50560W        W18978   6.750  15.120  10.556
50561W        W18979  41.936   0.907  14.854
50562W        W18980  12.777  42.880   0.290
50563W        W18981  38.920  38.922   3.749
50564W        W18982  25.687  33.927  12.065
50565W        W18983  33.530   0.949  12.823
50566W        W18984  26.205  26.099  11.488
50567W        W18985   1.421  40.495   4.691
50568W        W18986  22.736  10.340   1.909
50569W        W18987  27.591   3.754  12.463
50570W        W18988   2.888   2.349   3.845
50571W        W18989  18.077  18.253  10.594
50572W        W18990  43.346  19.048   4.764
50573W        W18991  37.420  21.570   3.189
50574W        W18992  26.059  29.531   2.736
50575W        W18993  35.983  24.205   3.664
50576W        W18994  27.147  13.727   1.919
50577W        W18995  20.735  14.828   4.196
50578W        W18996  26.097   9.317   0.847
50579W        W18997  39.963   1.897  12.456
50580W        W18998  22.619  42.869   3.749
50581W        W18999  18.553  33.383   9.934
50582W        W19000  22.160  32.613   0.333
50583W        W19001  10.640  43.329  10.617
50584W        W19002  14.677  10.173   4.721
50585W        W19003  18.638  31.544   0.272
50586W        W19004   6.182  40.404  10.528
50587W        W19005  37.508  39.444  10.490
50588W        W19006  30.148  26.648   2.738
50589W        W19007   6.192  25.483   3.251
50590W        W19008  24.672   0.404   3.715
50591W        W19009  43.834  37.357  12.032
50592W        W19010  21.105  14.656  13.816
50593W        W19011  14.117  29.996   2.777
50594W        W19012  21.215  11.775   1.378
50595W        W19013  37.398  30.929   0.331
50596W        W19014  22.098   1.291   4.672
50597W        W19015   1.870  39.052  11.003
50598W        W19016  27.640   8.836  13.523
50599W        W19017  28.594  11.232  11.106
50600W        W19018  40.385  29.431   2.385
50601W        W19019  33.978   9.648   1.318
50602W        W19020  39.400  23.622   2.804
50603W        W19021   7.412  29.095  11.561
50604W        W19022  30.545  27.638   1.839
50605W        W19023  27.947  43.353  11.075
50606W        W19024  10.206  18.706   2.212
50607W        W19025  18.725   2.318  12.554
50608W        W19026  26.999   1.830  10.473
50609W        W19027  24.557  19.707  10.640
50610W        W19028  25.684  44.336  10.155
50611W        W19029  20.732  26.162   2.765
50612W        W19030   4.832  28.964   0.396
50613W        W19031   2.828   6.681   3.385
50614W        W19032  14.236   1.869   0.466
50615W        W19033  32.525  43.359   3.685
50616W        W19034  25.096  24.984   3.732
50617W        W19035  15.803  27.565   0.329
50618W        W19036  28.510  23.710  13.401
50619W        W19037  38.932  11.298   1.847
50620W        W19038  26.961  23.712   4.770
50621W        W19039  44.463  14.761   9.946
50622W        W19040  21.198  10.189  12.561
50623W        W19041  15.163  41.993  11.084
50624W        W19042  24.612  17.246   0.784
50625W        W19043  38.074  20.529   2.823
50626W        W19044  16.173  28.133  12.369
50627W        W19045  20.086  20.200   2.843
50628W        W19046   7.908   4.219  11.049
50629W        W19047  10.305  16.742   4.239
50630W        W19048  43.327  23.507   3.720
50631W        W19049  27.051  28.944  12.428
50632W        W19050  16.608  13.215   9.666
50633W        W19051  42.339  31.569  12.006
50634W        W19052   6.384  13.772  12.020
50635W        W19053   1.828  19.693   3.162
50636W        W19054  29.580  11.368   0.346
50637W        W19055  42.892  44.459  13.374
50638W        W19056  37.972  22.605   2.307
50639W        W19057   9.342  37.013  11.408
50640W        W19058  12.838  38.423   1.449
50641W        W19059  39.520  41.332  14.513
50642W        W19060   3.379  28.439  11.606
50643W        W19061  27.943  13.173  13.000
50644W        W19062  23.152   2.333   4.200
50645W        W19063   9.711  36.071  14.398
50646W        W19064  27.687   2.373   2.395
50647W        W19065   2.762  43.286  13.495
50648W        W19066  43.810   1.760  14.015
50649W        W19067   6.809  29.164  13.431
50650W        W19068  17.747  26.961  14.764
50651W        W19069  22.527  28.540  11.072
50652W        W19070  30.022  42.399  13.850
50653W        W19071   7.817   7.409   4.233
50654W        W19072  32.533  14.598  11.498
50655W        W19073  28.679  17.797   0.830
50656W        W19074  21.735   5.359  13.376
50657W        W19075   3.227  12.822  10.628
50658W        W19076  30.642  44.421   3.183
50659W        W19077  33.980  23.986   4.808
50660W        W19078   6.890   6.282  12.086
50661W        W19079  17.307  35.392   4.604
50662W        W19080  34.377  38.531  14.941
50663W        W19081  36.874  17.124   1.793
50664W        W19082  38.515  30.119  13.895
50665W        W19083  16.207   3.772  10.595
50666W        W19084  30.598   7.851   2.899
50667W        W19085  26.503  44.427   3.363
50668W        W19086   1.442  43.972   3.335
50669W        W19087   1.949  16.230   3.375
50670W        W19088   3.373  22.664   0.462
50671W        W19089   3.399  22.671   5.252
50672W        W19090   6.300  32.058  13.515
50673W        W19091   7.766  14.674  14.821
50674W        W19092   2.244   8.378   3.836
50675W        W19093   8.811  40.521  10.947
50676W        W19094  10.665  12.848  10.917
50677W        W19095   1.776  34.894   0.420
50678W        W19096  12.340  33.065   0.265
50679W        W19097  15.683  44.940  14.808
50680W        W19098   3.954  30.031   2.683
50681W        W19099  33.007   9.288  12.347
50682W        W19100  16.691   0.862  11.385
50683W        W19101  13.797  44.333   0.255
50684W        W19102  20.122  10.347  11.486
50685W        W19103  38.471  13.842  11.481
50686W        W19104  31.146  31.043   3.701
50687W        W19105  39.817  27.197   0.343
50688W        W19106  41.384  14.121  14.375
50689W        W19107  15.240   1.394   1.780
50690W        W19108   3.731  22.710   2.687
50691W        W19109   2.404  18.175  13.456
50692W        W19110  15.821  32.015   3.863
50693W        W19111  33.881   3.334  12.083
50694W        W19112  22.134  43.449  14.296
50695W        W19113   0.346  24.660   3.865
50696W        W19114  14.126  35.916   1.893
50697W        W19115  43.824   6.380   3.840
50698W        W19116   9.236  30.991  10.990
50699W        W19117  27.642  11.740   3.157
50700W        W19118   5.894   3.441  11.569
50701W        W19119  12.280  17.685   4.676
50702W        W19120  18.563   1.815  12.065
50703W        W19121  19.280   6.742  10.576
50704W        W19122  39.384  43.857   1.259
50705W        W19123  13.602  43.860  10.941
50706W        W19124   1.286  25.159   4.201
50707W        W19125  33.536  25.092  11.382
50708W        W19126  14.810   0.941   5.095
50709W        W19127  26.112   4.828   0.406
50710W        W19128   8.160  14.601  12.891
50711W        W19129   9.840  10.809   4.166
50712W        W19130  15.308  30.452  14.017
50713W        W19131  30.446  37.049   0.935
50714W        W19132  26.653  11.183   4.124
50715W        W19133  33.570  21.081  10.990
50716W        W19134   4.723  12.647  13.443
50717W        W19135  22.599   6.203  11.027
50718W        W19136  38.021  41.448   2.670
50719W        W19137  25.095  34.530   3.294
50720W        W19138  12.685  33.002  10.586
50721W        W19139  43.465  31.525  11.410
50722W        W19140  18.146  29.514   4.167
50723W        W19141  22.627  34.447   0.253
50724W        W19142   9.719  29.941   0.415
50725W        W19143  22.508  29.174   5.272
50726W        W19144   1.938  27.945  13.949
50727W        W19145  31.498  35.946  13.437
50728W        W19146   0.300  26.693   0.755
50729W        W19147   3.237   2.881  14.472
50730W        W19148  23.112  21.144  14.816
50731W        W19149  23.563  13.208   1.395
50732W        W19150  23.705  25.200   4.759
50733W        W19151   1.732   8.182  12.038
50734W        W19152  29.002  22.718   4.833
50735W        W19153  40.319  18.609  14.349
50736W        W19154  27.138  34.551  11.473
50737W        W19155  14.256  23.200  11.972
50738W        W19156  19.146  23.654   2.338
50739W        W19157  37.837  35.103   0.951
50740W        W19158  12.622  21.228   4.193
50741W        W19159  22.158   2.785   3.168
50742W        W19160  33.008   2.458   3.645
50743W        W19161  42.351  30.642  14.880
50744W        W19162  40.535  17.755   3.849
50745W        W19163   7.778  23.502   1.357
50746W        W19164  20.196   8.297  12.902
50747W        W19165  40.378  37.412  10.974
50748W        W19166  38.986  40.376   4.824
50749W        W19167  43.966   6.309   3.207
50750W        W19168  35.872  35.995  11.874
50751W        W19169  24.510   7.373  11.493
50752W        W19170  21.661  43.834  14.812
50753W        W19171  31.424  28.451   1.883
50754W        W19172  27.988   6.890  14.966
50755W        W19173   6.404   9.810   2.843
50756W        W19174  10.153   4.382  11.590
50757W        W19175  22.010  34.887   4.294
50758W        W19176  41.339  38.381   1.372
50759W        W19177  38.491  32.997   4.677
50760W        W19178  36.584  27.494   4.278
50761W        W19179  14.158  28.146  14.992
50762W        W19180   1.861  21.067   4.187
50763W        W19181  34.580  10.298  11.564
50764W        W19182   9.695  27.606   3.677
50765W        W19183  31.080  27.587   4.687
50766W        W19184  37.932  15.731   2.792
50767W        W19185  15.158  16.681   0.765
50768W        W19186  42.878  32.414   1.910
50769W        W19187  33.921  31.503  13.003
50770W        W19188  38.012  10.247   0.858
50771W        W19189  20.701  19.060   2.874
50772W        W19190   1.342  10.344   4.198
50773W        W19191  11.153   1.749  11.962
50774W        W19192   6.897  13.799  12.931
50775W        W19193   1.953  42.008   0.968
50776W        W19194  21.101  11.806   0.351
50777W        W19195   9.713   4.399  11.870
50778W        W19196  13.195  16.158  11.009
50779W        W19197  40.542   7.824   1.341
50780W        W19198  27.548  36.495   0.461
50781W        W19199  18.625  44.941  12.443
50782W        W19200  26.616  28.099   1.925
50783W        W19201  44.904  44.958   0.331
50784W        W19202  32.616  41.854   2.810
50785W        W19203  21.031  11.685   1.781
50786W        W19204  31.954  31.971   3.775
50787W        W19205   6.910  31.142  12.382
50788W        W19206   6.350   8.262   2.705
50789W        W19207  10.378  35.386   5.320
50790W        W19208  25.504  14.784   0.932
50791W        W19209   2.741   2.831   1.421
50792W        W19210  25.064  37.347  14.400
50793W        W19211  12.624  27.144  14.970
50794W        W19212  23.138  20.028   1.228
50795W        W19213  22.678  21.091  10.977
50796W        W19214  31.000  13.824   1.249
50797W        W19215  25.129  13.265   2.254
50798W        W19216  40.536  18.768  14.841
50799W        W19217  44.276  11.211  10.540
50800W        W19218  37.970   1.908   4.345
50801W        W19219  19.577  42.462   4.207
50802W        W19220   7.868  13.605   3.720
50803W        W19221  28.071  27.120   2.838
50804W        W19222  24.190  14.768  11.549
50805W        W19223  30.965  13.726   3.709
50806W        W19224  43.450  20.190  13.465
50807W        W19225  37.343  40.027   0.246
50808W        W19226  25.048   7.263  13.443
50809W        W19227  28.505  34.052  12.383
50810W        W19228  40.366  30.544   1.779
50811W        W19229  18.241  14.590   3.715
50812W        W19230  41.435  44.889  14.807
50813W        W19231  11.676  26.015  10.449
50814W        W19232  40.380  38.455  14.931
50815W        W19233  35.932   0.853   3.165
50816W        W19234  39.860   5.406  12.929
50817W        W19235  24.165  28.483   1.265
50818W        W19236  17.684  17.556  12.451
50819W        W19237  20.129  37.368   1.344
50820W        W19238  44.889  37.447   1.236
50821W        W19239  11.783  43.846   4.326
50822W        W19240   6.878   4.211   4.677
50823W        W19241  26.672  42.891  14.020
50824W        W19242   4.792  11.791   1.279
50825W        W19243  16.721  37.432  11.491
50826W        W19244  13.724   6.229   4.350
50827W        W19245  36.463  15.234  13.313
50828W        W19246  16.197   0.307  12.032
50829W        W19247  16.730  35.374   0.740
50830W        W19248  26.158   4.728  12.847
50831W        W19249  19.583  35.931  13.366
50832W        W19250  11.256   3.812   3.666
50833W        W19251  33.982   5.931   4.293
50834W        W19252  43.772  19.733  14.307
50835W        W19253  28.536  24.035  14.973
50836W        W19254  36.529   8.181  12.523
50837W        W19255  25.472  40.997  12.986
50838W        W19256  27.187   8.857   2.270
50839W        W19257  19.755   2.940   0.769
50840W        W19258  37.842   8.188   4.165
50841W        W19259   6.698  12.192   4.271
50842W        W19260  41.998  14.617   2.240
50843W        W19261  21.598  44.287   1.407
50844W        W19262  33.601  27.454   0.773
50845W        W19263  38.363  27.179   0.739
50846W        W19264  43.792  29.630   1.230
50847W        W19265  13.846  28.579  13.027
50848W        W19266  36.432  41.440   4.680
50849W        W19267  42.398  22.135   3.275
50850W        W19268   1.416  24.078   4.326
50851W        W19269  40.411  37.935   3.766
50852W        W19270  26.551   1.911  14.789
50853W        W19271  23.530   5.431  14.347
50854W        W19272   4.743  30.031  14.319
50855W        W19273  44.445   8.243  14.384
50856W        W19274   0.317   9.786  11.387
50857W        W19275  15.274  21.145   0.882
50858W        W19276  19.114  16.279  13.017
50859W        W19277   8.890  29.586  13.351
50860W        W19278  27.585   6.709   0.772
50861W        W19279  38.856  19.151  10.889
50862W        W19280  43.445   1.763  10.917
50863W        W19281   8.813   7.413   4.267
50864W        W19282  39.541  13.314  13.906
50865W        W19283  42.821   1.239  14.303
50866W        W19284  44.938  36.034   2.765
50867W        W19285  30.920  25.499   3.369
50868W        W19286   3.253  18.174  13.319
50869W        W19287  41.972   1.318  11.376
50870W        W19288  30.658  43.021  10.552
50871W        W19289  24.493  32.074   0.801
50872W        W19290  34.414  40.502  14.832
50873W        W19291  27.600  37.532   3.779
50874W        W19292  24.050  42.283   1.830
50875W        W19293   0.863   0.295  14.421
50876W        W19294  12.362   5.780   2.418
50877W        W19295  26.187  17.722  14.881
50878W        W19296  28.148  29.580  10.452
50879W        W19297   6.409  13.616  14.850
50880W        W19298  41.408  40.898  11.928
50881W        W19299  37.070  16.180   2.334
50882W        W19300  19.264  13.799   0.302
50883W        W19301  41.906  27.978   4.824
50884W        W19302  14.627  15.784   0.351
50885W        W19303  33.020  26.553   4.714
50886W        W19304   8.856  38.488  14.437
50887W        W19305  27.537  18.765  14.370
50888W        W19306  27.653   7.700   3.313
50889W        W19307  34.584   6.914  11.594
50890W        W19308  37.975  27.681  12.985
50891W        W19309  41.438  41.807   3.360
50892W        W19310  32.561  17.097  12.377
50893W        W19311  39.488  28.125   1.909
50894W        W19312  22.098  35.437   2.341
50895W        W19313   6.418  42.009   4.816
50896W        W19314  19.641  15.219   2.773
50897W        W19315   6.421   6.724   1.885
50898W        W19316   1.920  32.616   1.703
50899W        W19317  17.796   2.444  10.503
50900W        W19318  11.642  31.407  10.980
50901W        W19319  33.919   8.299   3.296
50902W        W19320  37.020  25.211  10.438
50903W        W19321  20.032   9.788   4.837
50904W        W19322  35.441  18.191   1.382
50905W        W19323  24.100  40.976  10.560
50906W        W19324  12.263   2.412  13.008
50907W        W19325  39.376  30.944   2.286
50908W        W19326  32.413  18.278   2.713
50909W        W19327   5.852  43.420   4.264
50910W        W19328  42.851  31.136  12.495
50911W        W19329  30.495  41.788  13.832
50912W        W19330  16.200   3.398  11.483
50913W        W19331   4.300   0.337  11.921
50914W        W19332  19.181  29.135  12.488
50915W        W19333  18.593   7.889   2.723
50916W        W19334  35.014  17.183  13.844
50917W        W19335  16.620  38.075  13.406
50918W        W19336  43.361  36.394  11.122
50919W        W19337  19.628   7.850  10.458
50920W        W19338  43.885  31.633  13.477
50921W        W19339  12.825  27.455   3.755
50922W        W19340  21.181  19.103   1.889
50923W        W19341  22.665   8.796  11.063
50924W        W19342  43.850  19.204   2.764
50925W        W19343  13.790  19.664  10.915
50926W        W19344   6.731  44.456  10.622
50927W        W19345  43.836  18.249   0.842
50928W        W19346  44.754  28.990  11.373
50929W        W19347   0.853   8.881   0.326
50930W        W19348  14.143   0.412   0.337
50931W        W19349  36.847  44.009  11.473
50932W        W19350  19.607  35.388   2.806
50933W        W19351  42.922  38.046   0.287
50934W        W19352   3.844  12.716  10.962
50935W        W19353   0.832  42.921  14.917
50936W        W19354  18.154  16.775  11.005
50937W        W19355  29.941  35.044   4.298
50938W        W19356   1.785   3.805  13.931
50939W        W19357  34.984  14.651  10.519
50940W        W19358  20.228  14.190   2.819
50941W        W19359  32.976  31.961   0.364
50942W        W19360  39.904  25.045  12.406
50943W        W19361  32.509  29.073  13.311
50944W        W19362  25.204  34.056  12.359
50945W        W19363   3.431  13.734  10.921
50946W        W19364  26.099  23.088   3.225
50947W        W19365  36.921  35.498  11.915
50948W        W19366  20.124  23.612  12.518
50949W        W19367   6.303  40.528   2.193
50950W        W19368  26.123  24.195  11.073
50951W        W19369  36.901  29.099   4.122
50952W        W19370  16.121  35.879  11.038
50953W        W19371   0.329   5.769   0.431
50954W        W19372   5.287  18.064   2.792
50955W        W19373   6.323  19.094  12.051
50956W        W19374  27.077  30.418  14.304
50957W        W19375   6.861  35.924  11.910
50958W        W19376  10.299  12.125  12.074
50959W        W19377  26.538  34.583   2.230
50960W        W19378  11.201   6.710  13.012
50961W        W19379  15.303   6.752   3.355
50962W        W19380  38.867  20.274   2.732
50963W        W19381  37.932  20.218   2.322
50964W        W19382   8.284  10.236  14.443
50965W        W19383  14.203  28.054   2.712
50966W        W19384  44.887  20.765   0.467
50967W        W19385  14.724  43.871   3.855
50968W        W19386  13.175  12.203  12.980
50969W        W19387  32.543  43.498  10.639
50970W        W19388  22.212  25.084   5.163
50971W        W19389  22.682  30.636   4.118
50972W        W19390  31.490  12.192  10.588
50973W        W19391  25.489  12.120  14.378
50974W        W19392  13.215  20.151   0.280
50975W        W19393  18.226  20.607  13.022
50976W        W19394  36.056  36.568  14.463
50977W        W19395  41.864  43.958  14.804
50978W        W19396   9.191  34.614   4.679
50979W        W19397  22.689  13.155   5.158
50980W        W19398  11.349  28.995  14.311
50981W        W19399  42.362  37.345   0.801
50982W        W19400  25.600   5.868  12.391
50983W        W19401  30.979  12.149   1.449
50984W        W19402  17.289   2.250  10.586
50985W        W19403   0.820  28.675  13.914
50986W        W19404  36.374  21.176  13.322
50987W        W19405  24.510  31.101   0.888
50988W        W19406  21.649  40.035   9.930
50989W        W19407  17.693  32.990   2.321
50990W        W19408  38.357  12.335  14.971
50991W        W19409   2.958  23.549  10.419
50992W        W19410   9.215  33.575  13.975
50993W        W19411   1.426  26.621  11.913
50994W        W19412  41.905   5.907   0.897
50995W        W19413  32.539  41.787  10.898
50996W        W19414  33.116  15.310   3.313
50997W        W19415  23.725  44.954  14.885
50998W        W19416   2.253  32.518   0.965
50999W        W19417  19.268  10.339   5.208
51000W        W19418  10.650  25.549   4.799
51001W        W19419  43.351  18.178   4.193
51002W        W19420  26.459   1.276  12.876
51003W        W19421  26.010  44.883  13.985
51004W        W19422  35.062  19.117  11.994
51005W        W19423  23.703   5.857   3.192
51006W        W19424  10.215  17.669  11.539
51007W        W19425  20.084  39.030  11.591
51008W        W19426   2.874  27.000  14.317
51009W        W19427   9.328  32.933   4.296
51010W        W19428  40.991   6.374   4.802
51011W        W19429  40.981   7.185  12.043
51012W        W19430  33.621  14.169  13.873
51013W        W19431  39.555  23.082   0.739
51014W        W19432   8.380  30.427  12.981
51015W        W19433  23.714   1.377  14.486
51016W        W19434  27.515  39.416   3.372
51017W        W19435   5.770   2.422   2.858
51018W        W19436  12.140  33.459   4.331
51019W        W19437  22.606  36.376   0.743
51020W        W19438   1.322   9.775   2.817
51021W        W19439  30.573   2.254   2.736
51022W        W19440  15.721  28.487   1.420
51023W        W19441  42.781  41.537   2.822
51024W        W19442  28.942  32.933  14.485
51025W        W19443  33.597  43.432  10.412
51026W        W19444  37.368  19.100   3.282
51027W        W19445  25.653  28.128   2.798
51028W        W19446  25.564  19.148   2.877
51029W        W19447  14.340  33.585  11.052
51030W        W19448  26.683  19.550   5.176
51031W        W19449  38.971  26.145   3.644
51032W        W19450  20.193  26.506  11.903
51033W        W19451  39.064   5.346   1.735
51034W        W19452  26.153  28.042   0.459
51035W        W19453  36.491   6.399   3.702
51036W        W19454   3.288  21.747  10.096
51037W        W19455  41.806   1.778  13.373
51038W        W19456  32.479  40.928   1.405
51039W        W19457  38.826  18.214   1.275
51040W        W19458  32.599   3.435   0.456
51041W        W19459  14.760  15.819  10.417
51042W        W19460  32.429   3.361  14.903
51043W        W19461  41.515   0.929   2.304
51044W        W19462  34.912  28.529   4.193
51045W        W19463  24.512  38.941   2.252
51046W        W19464  41.407  34.871   2.385
51047W        W19465  16.235  44.279  14.986
51048W        W19466  35.020  37.970  12.952
51049W        W19467  18.206  19.760   1.887
51050W        W19468   2.854  37.023   3.811
51051W        W19469  37.871  34.401   2.302
51052W        W19470   0.956   5.259   3.261
51053W        W19471  22.182  40.969   1.249
51054W        W19472   8.363  23.516  14.440
51055W        W19473  37.049  12.798   0.336
51056W        W19474  21.115  22.227  13.871
51057W        W19475  34.017   6.393  14.274
51058W        W19476  18.127  14.094   3.288
51059W        W19477  35.539   3.881   0.264
51060W        W19478  13.111  15.638  10.960
51061W        W19479   5.882   2.788   3.353
51062W        W19480  16.190  10.155  14.464
51063W        W19481  21.668  35.545  14.383
51064W        W19482  24.205  39.471  10.125
51065W        W19483   0.985  30.022  12.578
51066W        W19484  19.761   2.400   4.217
51067W        W19485  10.289  23.139   0.926
51068W        W19486   1.816  25.093  12.017
51069W        W19487  19.697  41.803  14.988
51070W        W19488  16.300  13.155  12.836
51071W        W19489  16.718  31.462   0.934
51072W        W19490  19.745   9.871   0.378
51073W        W19491  16.727   5.353   5.259
51074W        W19492   2.943  41.787   0.291
51075W        W19493  23.061  31.447   4.684
51076W        W19494   5.399   9.727  14.781
51077W        W19495  27.635  19.225  10.894
51078W        W19496  24.090  38.843   2.416
51079W        W19497  13.704   8.245  11.027
51080W        W19498   2.391   8.287   2.391
51081W        W19499  21.117  13.264  13.032
51082W        W19500   9.257  17.752  11.558
51083W        W19501  44.971  41.295  14.377
51084W        W19502  35.379  41.871  10.931
51085W        W19503  17.131  26.020  14.994
51086W        W19504   5.731  27.089   4.821
51087W        W19505  26.196   2.895   4.689
51088W        W19506  36.928   3.783  11.479
51089W        W19507  35.923   6.228   2.862
51090W        W19508  21.165  32.490   4.634
51091W        W19509   3.219  21.230   4.162
51092W        W19510  27.585   7.889   1.249
51093W        W19511   7.227   6.727   2.707
51094W        W19512  11.863  30.078   2.243
51095W        W19513  24.586  22.019  10.462
51096W        W19514  10.340  15.256  13.006
51097W        W19515  39.500  36.508   0.467
51098W        W19516  31.424   9.850  12.904
51099W        W19517  32.503   1.382   0.267
51100W        W19518  37.344  43.334   2.780
51101W        W19519  21.572  35.046   2.343
51102W        W19520  33.581  37.903  10.016
51103W        W19521  36.873  18.591  10.521
51104W        W19522  31.629  16.729  10.488
51105W        W19523   0.353  42.375  13.482
51106W        W19524   2.344  40.917  13.943
51107W        W19525  33.414  20.263   0.352
51108W        W19526  23.729  13.325   2.741
51109W        W19527   4.444  19.075  12.481
51110W        W19528   6.811  27.564   1.397
51111W        W19529   5.717   7.343   1.737
51112W        W19530  10.280   6.869  11.869
51113W        W19531   3.346  30.124   0.823
51114W        W19532   4.745  29.625  12.904
51115W        W19533  44.873  39.495  10.091
51116W        W19534  30.422   8.787   4.211
51117W        W19535  37.950  21.662  12.874
51118W        W19536   6.892  35.384  11.010
51119W        W19537  19.616  26.144  12.523
51120W        W19538   9.345  18.120   2.279
51121W        W19539  29.110   1.893  13.022
51122W        W19540   5.425  39.535   3.756
51123W        W19541   3.734  38.424   2.402
51124W        W19542  21.532  21.190  12.927
51125W        W19543  33.472  42.345   3.851
51126W        W19544  27.674  30.007   2.330
51127W        W19545  34.424  18.256   1.875
51128W        W19546  38.339  11.270  11.104
51129W        W19547  18.133  29.174   0.765
51130W        W19548  19.654  28.598  14.410
51131W        W19549  18.711  27.546   1.357
51132W        W19550  14.180  10.771   1.270
51133W        W19551  15.311   6.246   4.170
51134W        W19552  16.274  13.745   4.707
51135W        W19553  27.116  40.834   2.784
51136W        W19554  25.556   7.224  13.032
51137W        W19555  15.259  27.952  11.065
51138W        W19556  22.076   2.793  11.042
51139W        W19557   0.762  38.461  14.301
51140W        W19558   8.228  18.194   3.803
51141W        W19559   8.708  35.052   4.328
51142W        W19560   8.671   4.239   4.644
51143W        W19561  12.284   1.771  14.802
51144W        W19562  21.600  36.068   2.289
51145W        W19563  36.087  10.169  13.519
51146W        W19564  12.144  35.497  12.450
51147W        W19565  17.133  10.353   5.233
51148W        W19566  16.616  21.078  14.980
51149W        W19567  17.724  25.144   2.757
51150W        W19568  16.103  39.462   0.791
51151W        W19569  32.113  33.121   4.610
51152W        W19570  35.945  21.536   0.420
51153W        W19571  42.858  24.976  11.931
51154W        W19572  27.632  20.527   4.826
51155W        W19573  18.551   1.863  10.560
51156W        W19574   7.395  12.146  14.906
51157W        W19575  24.614  23.206  12.408
51158W        W19576  42.409  14.794  14.356
51159W        W19577  14.774  20.562   0.777
51160W        W19578  34.113   4.338   4.158
51161W        W19579  44.914  44.393  14.022
51162W        W19580  15.201  22.116  11.466
51163W        W19581  10.199  38.971  14.860
51164W        W19582  43.299   6.357   1.917
51165W        W19583  29.529  10.816  11.935
51166W        W19584  33.397  36.009   2.204
51167W        W19585  32.398  21.586  11.452
51168W        W19586  14.174  14.112  12.991
51169W        W19587  12.265  21.104  11.022
51170W        W19588  35.387   5.799  12.984
51171W        W19589  42.516  36.068   0.269
51172W        W19590  38.034  44.946  11.009
51173W        W19591  41.376  34.892   4.660
51174W        W19592  10.328  30.955   1.243
51175W        W19593  28.652   9.840   5.154
51176W        W19594   8.293  27.054  13.940
51177W        W19595  39.940   0.820  13.413
51178W        W19596   2.241  30.516   0.925
51179W        W19597   3.925  40.875  13.962
51180W        W19598  24.640   6.789  11.435
51181W        W19599   5.380  29.038  12.544
51182W        W19600  33.568  17.622  10.468
51183W        W19601   8.701   0.461  11.938
51184W        W19602  23.201   8.804   4.240
51185W        W19603   0.341  39.537  11.034
51186W        W19604  23.202  18.650  14.448
51187W        W19605  21.165  27.968  14.836
51188W        W19606  25.698  38.033  13.798
51189W        W19607   9.284  30.092   4.180
51190W        W19608  10.691  42.960   4.139
51191W        W19609  16.250  35.540  12.031
51192W        W19610  23.118  44.759  12.353
51193W        W19611  33.997  21.730  12.512
51194W        W19612  28.009  29.533  13.917
51195W        W19613   8.849  16.247   4.239
51196W        W19614  37.981  22.552  14.358
51197W        W19615   7.692   1.303  13.385
51198W        W19616  27.676  24.652   0.777
51199W        W19617   4.231   7.415   3.662
51200W        W19618  40.303  39.421  14.393
51201W        W19619  28.994  18.196  11.086
51202W        W19620   0.480  31.624   2.260
51203W        W19621  23.133  44.776   2.884
51204W        W19622  41.470  30.607   0.343
51205W        W19623  10.844  34.467  11.112
51206W        W19624  42.973   7.397  11.894
51207W        W19625  16.084  20.570  12.537
51208W        W19626   9.362  34.458  13.865
51209W        W19627  39.380   4.798   1.422
51210W        W19628  12.353  29.919   1.385
51211W        W19629  35.886   2.855  11.465
51212W        W19630  10.253   7.372   0.835
51213W        W19631   3.308  16.107   0.807
51214W        W19632   2.823   0.882  12.951
51215W        W19633   3.795  36.920   2.673
51216W        W19634  20.545  12.664   4.235
51217W        W19635  17.300  16.740  10.503
51218W        W19636  16.723  37.353   9.958
51219W        W19637   1.326  42.903  14.905
51220W        W19638  24.113  15.683   2.865
51221W        W19639  41.380   4.815   3.653
51222W        W19640   5.417  43.369   0.886
51223W        W19641  12.700   4.233   3.374
51224W        W19642  36.911  18.130  12.976
51225W        W19643  32.088  32.101   4.716
51226W        W19644  17.780  34.049   2.722
51227W        W19645  21.038  11.672   5.255
51228W        W19646  44.878  43.350   2.414
51229W        W19647  31.522   5.888   0.256
51230W        W19648  19.571  19.122   4.820
51231W        W19649   6.869  10.277   1.350
51232W        W19650  11.709  22.673   0.923
51233W        W19651  33.517  11.678  12.005
51234W        W19652   8.238  31.503   1.874
51235W        W19653  21.087  38.060   4.620
51236W        W19654  20.087  15.768   4.609
51237W        W19655  24.010  43.821  11.478
51238W        W19656  12.219  36.471  13.469
51239W        W19657  32.613  19.175  13.464
51240W        W19658  36.551  31.412  14.902
51241W        W19659  16.608  42.996  12.923
51242W        W19660  29.547   3.252  12.340
51243W        W19661  33.989   3.728  11.976
51244W        W19662   9.368  22.506   2.763
51245W        W19663  22.524  26.521  11.118
51246W        W19664  25.698   0.397   4.122
51247W        W19665  28.942  30.572   2.894
51248W        W19666   1.852  39.823  12.046
51249W        W19667  17.605  34.474  14.821
51250W        W19668   8.289  17.254   2.330
51251W        W19669  43.797  39.816   3.325
51252W        W19670  23.686  11.327  14.371
51253W        W19671  32.625  41.893   0.757
51254W        W19672  30.629  30.648   0.472
51255W        W19673  24.695   8.191   4.727
51256W        W19674  30.108  43.808   1.789
51257W        W19675   4.349  40.470   1.722
51258W        W19676  39.460  28.672  12.979
51259W        W19677  16.614  27.607  13.960
51260W        W19678  34.416  29.976  11.922
51261W        W19679   9.149   3.717  11.595
51262W        W19680   0.761  27.159   2.229
51263W        W19681  13.197  36.357   2.243
51264W        W19682  41.301  39.530  10.517
51265W        W19683  19.558  36.571   4.767
51266W        W19684  21.219  27.981   0.858
51267W        W19685  17.603  17.272   1.906
51268W        W19686  13.702   0.262   4.617
51269W        W19687  41.325  20.069  13.918
51270W        W19688  35.930  40.341   1.355
51271W        W19689  35.086  13.831   4.287
51272W        W19690  44.384  13.235   3.646
51273W        W19691   2.940  37.884   4.134
51274W        W19692   5.821   4.885   4.773
51275W        W19693  32.392  19.228   0.414
51276W        W19694  43.004  41.416   1.896
51277W        W19695  31.546  38.478   0.409
51278W        W19696  41.918   6.917   3.706
51279W        W19697  30.155  16.192   2.893
51280W        W19698  37.835  42.996  11.095
51281W        W19699   2.324  37.029   3.730
51282W        W19700  37.574  21.161   4.113
51283W        W19701   9.688  26.981   1.700
51284W        W19702  22.589  33.383   0.398
51285W        W19703  13.255   1.825   3.695
51286W        W19704  21.608   7.334   2.364
51287W        W19705  39.512  18.699  12.384
51288W        W19706  43.779  11.697  10.917
51289W        W19707  11.713  32.555  13.514
51290W        W19708  27.569   5.757   5.176
51291W        W19709  24.998  20.651   0.816
51292W        W19710  40.847  28.945   3.647
51293W        W19711  13.635  43.826  14.869
51294W        W19712  11.825  14.265   1.909
51295W        W19713  13.737  19.162  13.979
51296W        W19714  31.420   9.226   0.249
51297W        W19715  20.689  37.569   2.898
51298W        W19716  44.363  15.249   4.218
51299W        W19717  44.319  15.625   3.670
51300W        W19718   1.822  31.433  13.468
51301W        W19719  36.494  12.793  13.844
51302W        W19720   2.955  26.079  14.841
51303W        W19721  24.095  32.129   2.257
51304W        W19722  43.289   7.310   0.742
51305W        W19723   5.321  38.920   3.844
51306W        W19724  35.428   7.745   1.316
51307W        W19725  12.235  23.618   4.298
51308W        W19726  35.918  13.249   0.779
51309W        W19727  24.696  14.122  10.434
51310W        W19728   8.237  19.534  10.984
51311W        W19729  18.141  21.256  12.881
51312W        W19730  28.590  32.014  13.023
51313W        W19731   3.937  13.742  13.369
51314W        W19732  39.325  31.066  13.385
51315W        W19733  36.985  18.210   4.767
51316W        W19734  42.945  36.584   3.797
51317W        W19735   9.192  35.559  14.955
51318W        W19736  22.565  16.742   4.197
51319W        W19737  26.616  35.999  11.124
51320W        W19738   0.789  15.249   4.649
51321W        W19739  37.966   7.176   1.733
51322W        W19740  43.478  35.066  10.923
51323W        W19741  14.699   7.716   5.622
51324W        W19742  34.437  27.541   2.310
51325W        W19743  34.501  31.610   1.889
51326W        W19744  39.524  15.204   4.158
51327W        W19745  41.789  25.096  10.160
51328W        W19746  13.842  21.095   3.738
51329W        W19747  38.009  31.985  10.075
51330W        W19748  36.435  44.975  13.923
51331W        W19749  20.121  33.110  11.052
51332W        W19750   9.177  10.721  10.469
51333W        W19751  38.984  43.457   2.801
51334W        W19752  26.601  17.667  10.938
51335W        W19753  34.514  37.835  10.081
51336W        W19754  15.824  10.222  14.940
51337W        W19755   3.359   5.211  13.519
51338W        W19756  24.181  28.977  11.455
51339W        W19757  15.132   6.820   0.441
51340W        W19758   0.335  44.871   1.702
51341W        W19759  43.458   9.342   0.462
51342W        W19760   8.176   8.852   4.192
51343W        W19761  19.763   8.689   4.287
51344W        W19762  26.588  12.727  14.355
51345W        W19763  42.843  20.154   2.225
51346W        W19764  27.015  35.604  10.488
51347W        W19765  19.609   1.401  12.835
51348W        W19766  32.465  15.139   3.211
51349W        W19767  16.728  13.743   5.740
51350W        W19768  32.022  20.689   4.640
51351W        W19769  13.339  10.698  12.578
51352W        W19770  26.101  39.811  11.577
51353W        W19771  39.517  42.337  12.959
51354W        W19772  24.014   2.357  14.923
51355W        W19773  31.117  11.325  11.471
51356W        W19774   7.281  14.801   4.179
51357W        W19775  18.096  28.509   4.786
51358W        W19776  15.771   7.292   3.721
51359W        W19777  40.479  21.631  14.782
51360W        W19778  42.383  33.995  10.543
51361W        W19779   6.745   1.907   0.768
51362W        W19780  18.063   1.270   0.301
51363W        W19781  16.717  38.001  12.949
51364W        W19782  24.657  40.997   2.870
51365W        W19783   4.333   7.712   4.613
51366W        W19784  13.772   7.856  14.922
51367W        W19785  29.167  18.770  12.977
51368W        W19786  38.355   5.887  11.509
51369W        W19787  21.102  26.162  13.830
51370W        W19788  29.990  39.968  11.596
51371W        W19789  33.417  40.304   3.306
51372W        W19790  38.834  24.980   3.793
51373W        W19791  15.624  39.040   0.385
51374W        W19792  28.477  36.500   3.218
51375W        W19793  44.897  39.483   3.689
51376W        W19794  36.973  24.015   1.304
51377W        W19795   8.787  16.131   1.435
51378W        W19796  22.152  31.974   2.881
51379W        W19797  23.103  41.874   3.359
51380W        W19798  31.624  41.895   0.330
51381W        W19799   7.776  35.948   2.188
51382W        W19800  42.784  11.732   0.731
51383W        W19801  22.199  21.263   3.297
51384W        W19802  23.173  32.049  10.891
51385W        W19803  36.950  19.758   0.891
51386W        W19804  23.086  38.008   2.315
51387W        W19805  11.686   5.219  11.913
51388W        W19806  32.120  30.458  12.540
51389W        W19807  30.423  13.671   0.412
51390W        W19808  21.669  13.655   3.745
51391W        W19809  13.737  33.421  10.508
51392W        W19810  28.127  36.003  14.319
51393W        W19811   6.395  37.398  11.939
51394W        W19812  19.168  26.084   4.161
51395W        W19813   0.849  34.468   0.897
51396W        W19814   2.918  33.579  12.944
51397W        W19815  36.381   0.761  14.489
51398W        W19816  10.281  39.508  12.570
51399W        W19817   7.218  11.200   2.322
51400W        W19818  32.053  18.725   5.131
51401W        W19819  10.752  22.617   1.760
51402W        W19820  28.511  39.479  12.956
51403W        W19821  36.943  14.098   2.288
51404W        W19822  28.966  20.114  14.859
51405W        W19823   5.719   0.263   2.206
51406W        W19824   8.735   9.775   3.654
51407W        W19825  30.943  16.764  12.463
51408W        W19826  10.311   5.422   1.228
51409W        W19827  31.046  42.410  10.960
51410W        W19828  27.094  26.456   0.455
51411W        W19829  27.037  27.560   1.759
51412W        W19830   2.920  11.182  13.810
51413W        W19831  31.107  14.731  13.800
51414W        W19832   0.391  19.213   2.276
51415W        W19833   6.205  24.094  14.963
51416W        W19834  21.719  26.632  10.080
51417W        W19835  37.920   1.477   3.265
51418W        W19836  12.741  34.002  11.962
51419W        W19837  15.702  35.565  10.900
51420W        W19838  12.160  23.048  13.039
51421W        W19839  12.143  30.459  12.042
51422W        W19840  19.285  44.400   3.632
51423W        W19841  24.617  41.021   4.818
51424W        W19842  21.625   8.677  12.938
51425W        W19843   3.227   0.250  12.496
51426W        W19844  15.678  15.328  10.612
51427W        W19845  20.128  39.449   2.698
51428W        W19846  27.581  38.982  12.507
51429W        W19847   9.856   5.814  10.635
51430W        W19848  15.723  42.493  14.460
51431W        W19849   7.266  32.962  14.339
51432W        W19850  31.413  44.476  11.441
51433W        W19851   2.338   4.447  13.796
51434W        W19852  41.022  33.421   0.424
51435W        W19853  22.207  29.944   4.792
51436W        W19854  21.255  23.622  10.052
51437W        W19855  18.776  39.502   3.688
51438W        W19856  39.413  41.302   5.177
51439W        W19857   6.193  25.598   0.951
51440W        W19858  29.999   0.874  12.016
51441W        W19859   7.341  12.840  12.062
51442W        W19860   2.801  43.375   2.866
51443W        W19861  17.692   7.213  12.865
51444W        W19862  41.490  25.607  14.382
51445W        W19863  31.044  16.629  11.938
51446W        W19864  25.201  30.619  13.796
51447W        W19865   7.723  17.229   3.223
51448W        W19866   9.873  24.105   0.276
51449W        W19867  37.925   6.337   0.926
51450W        W19868  25.122  14.173   0.331
51451W        W19869  21.256  36.512   4.167
51452W        W19870  32.421  30.617   2.761
51453W        W19871  35.088  16.093   1.722
51454W        W19872  41.461  38.463  13.503
51455W        W19873  30.515  28.536  12.982
51456W        W19874  11.243  27.519   4.734
51457W        W19875  12.712  29.162   3.808
51458W        W19876   3.380  36.924  10.437
51459W        W19877  37.953   9.175  12.523
51460W        W19878  13.161  14.291   2.359
51461W        W19879  18.747  29.936  12.345
51462W        W19880  40.414  35.053  10.589
51463W        W19881  11.364  18.149  10.936
51464W        W19882  28.974  37.430  13.321
51465W        W19883  36.927  42.985  12.038
51466W        W19884  24.712  25.470   3.261
51467W        W19885  35.020   8.725   9.956
51468W        W19886  12.760  23.163   4.227
51469W        W19887  22.236  26.530   1.311
51470W        W19888  40.385  16.170  13.330
51471W        W19889  37.419  26.643   1.336
51472W        W19890   3.792  35.927   2.240
51473W        W19891  24.601  16.287   1.933
51474W        W19892  39.965   7.412   2.675
51475W        W19893  38.377  37.926   1.445
51476W        W19894  35.513   7.895   4.736
51477W        W19895  27.977  25.197   1.324
51478W        W19896  19.614  34.902   1.751
51479W        W19897  32.936   2.756   1.305
51480W        W19898   0.839  37.931   0.875
51481W        W19899  35.925   4.211   1.728
51482W        W19900  41.879  30.486   0.389
51483W        W19901  42.873  36.893   1.326
51484W        W19902  44.299  16.731  10.644
51485W        W19903  28.947  40.322   0.765
51486W        W19904  35.484  22.524   4.694
51487W        W19905  21.709  30.439   1.310
51488W        W19906  23.579  39.996   3.750
51489W        W19907  12.208  18.280  13.021
51490W        W19908  12.809  22.511  10.953
51491W        W19909  43.360   6.767   3.729
51492W        W19910  33.908   9.730  12.977
51493W        W19911  36.052  26.042  13.035
51494W        W19912   3.458  10.259   2.773
51495W        W19913  31.020  13.774   4.666
51496W        W19914  22.229   2.962   3.739
51497W        W19915  18.643   7.688   3.660
51498W        W19916  19.762  18.109  13.314
51499W        W19917  36.874  13.775  13.055
51500W        W19918  21.050  22.185   1.294
51501W        W19919  42.921  40.420   0.270
51502W        W19920  34.419  38.525   1.784
51503W        W19921  18.219  25.474   4.192
51504W        W19922  14.280  24.531  14.970
51505W        W19923   9.846  19.601  14.405
51506W        W19924  37.553  13.835  14.949
51507W        W19925  22.587  17.083  13.526
51508W        W19926   0.933  19.743  10.494
51509W        W19927  33.936  31.088  14.012
51510W        W19928  16.180  17.787  14.501
51511W        W19929  37.024   4.424  12.466
51512W        W19930  13.722  37.392   1.767
51513W        W19931   8.183  15.761  12.508
51514W        W19932  14.744  14.210  12.355
51515W        W19933  20.250  23.663  12.922
51516W        W19934   9.358   8.753   3.330
51517W        W19935  39.926   4.407  12.033
51518W        W19936   7.376  26.130   1.340
51519W        W19937  44.337  41.915  14.902
51520W        W19938  36.881  27.155  12.454
51521W        W19939  26.676  44.444   4.629
51522W        W19940  26.193  25.098   1.718
51523W        W19941  27.107  34.895  12.528
51524W        W19942  43.460  39.346   2.381
51525W        W19943  39.384   6.322   1.814
51526W        W19944  40.496  10.159  12.927
51527W        W19945  19.170  33.485   1.750
51528W        W19946  37.403  37.463   4.761
51529W        W19947  15.209   0.411   2.834
51530W        W19948  17.714  22.508  13.485
51531W        W19949  29.065  38.390   3.240
51532W        W19950  22.053  40.045   4.136
51533W        W19951  19.052   3.797   2.386
51534W        W19952  25.165   0.747   1.283
51535W        W19953  24.114   3.413   5.161
51536W        W19954  28.558  34.068   0.798
51537W        W19955   0.292  21.050   9.933
51538W        W19956  22.015  13.195   2.695
51539W        W19957  40.379   6.268   1.372
51540W        W19958  36.987  29.048   2.269
51541W        W19959  29.489  35.959   0.827
51542W        W19960  35.049  19.666  12.829
51543W        W19961   8.667  37.899   3.677
51544W        W19962   0.779  15.621   3.250
51545W        W19963   7.355  25.505   1.774
51546W        W19964  35.054  16.152   4.688
51547W        W19965  14.341  17.722   2.418
51548W        W19966  13.326  10.284   2.838
51549W        W19967  25.475  39.003  11.508
51550W        W19968   6.317   5.389  12.348
51551W        W19969  41.944  20.695  12.062
51552W        W19970  26.642  33.080  14.767
51553W        W19971  40.973  42.394   1.929
51554W        W19972   8.660  20.225  10.411
51555W        W19973   2.836  30.914   4.320
51556W        W19974  31.947  12.288   4.629
51557W        W19975  23.648   3.227   9.940
51558W        W19976  41.841   1.381   4.774
51559W        W19977   9.717  41.949   1.351
51560W        W19978  19.272   0.430   4.242
51561W        W19979   6.343  39.921  13.833
51562W        W19980   9.300   9.159   2.874
51563W        W19981  12.675  27.594   1.262
51564W        W19982  13.112  14.779   2.356
51565W        W19983  38.384  25.643  13.350
51566W        W19984  39.024  11.733   2.736
51567W        W19985   0.834  39.497  13.050
51568W        W19986  29.954  44.276  13.455
51569W        W19987  32.616  42.357   4.697
51570W        W19988   5.858  12.158   0.843
51571W        W19989   1.476  12.253   1.329
51572W        W19990  27.197  13.231   3.720
51573W        W19991   4.820  27.098   1.284
51574W        W19992  29.054  35.494  12.912
51575W        W19993  14.206   2.849  12.480
51576W        W19994  31.494  20.127  14.366
51577W        W19995   3.789  14.095  10.449
51578W        W19996  24.649  30.562   3.709
51579W        W19997  11.196  19.055   1.239
51580W        W19998  17.307  44.889  10.542
51581W        W19999  41.319   9.259   2.757
51582W        W20000  29.009  39.409   4.284
51583W        W20001  38.877  39.398  14.286
51584W        W20002   5.825  43.960   1.247
51585W        W20003   2.231  36.090  12.450
51586W        W20004  14.607   8.781  10.518
51587W        W20005  24.982   9.305  11.878
51588W        W20006  14.155   5.796  13.975
51589W        W20007  28.519   6.835  14.489
51590W        W20008  16.299  42.444  14.838
51591W        W20009  31.957  19.147  14.333
51592W        W20010   1.851  12.184   3.671
51593W        W20011  14.327   4.375   4.230
51594W        W20012  41.317  11.337   3.868
51595W        W20013  35.029  11.720  13.493
51596W        W20014  20.621  29.165  12.910
51597W        W20015  19.170  34.051  14.515
51598W        W20016  14.755   3.322  14.793
51599W        W20017  40.351  11.361  11.982
51600W        W20018  35.090  15.718  11.495
51601W        W20019   6.790   6.407  11.488
51602W        W20020  27.584  16.165  13.435
51603W        W20021  25.094   1.851   1.211
51604W        W20022  39.508  28.962   0.435
51605W        W20023  25.133  42.850  10.524
51606W        W20024  15.634  18.719  14.826
51607W        W20025   9.716  27.562  12.513
51608W        W20026  25.531  30.952  13.509
51609W        W20027  39.002  18.593  14.355
51610W        W20028  11.747  17.790  11.127
51611W        W20029  33.926  14.135  11.883
51612W        W20030  20.707  10.265  13.539
51613W        W20031   9.734  40.333  14.940
51614W        W20032   9.310  22.618  11.087
51615W        W20033   9.276  14.623  12.561
51616W        W20034  14.289  39.515  10.967
51617W        W20035  13.308  10.153  13.872
51618W        W20036  34.863  26.065   3.793
51619W        W20037   4.778   6.415   2.715
51620W        W20038  23.069   8.204  12.934
51621W        W20039  40.000  20.036  14.379
51622W        W20040  15.609  44.759  10.978
51623W        W20041  14.787  30.555  10.630
51624W        W20042  36.034  19.547   3.824
51625W        W20043  15.761  34.081  12.910
51626W        W20044  35.539   5.404  13.368
51627W        W20045  29.431  39.943   4.158
51628W        W20046   7.849  36.511  14.395
51629W        W20047  19.769  32.450  11.869
51630W        W20048  30.038  16.687  13.352
51631W        W20049  30.000  28.570   0.861
51632W        W20050   3.222  35.067  11.591
51633W        W20051   7.711  39.013   5.154
51634W        W20052  20.198   4.906  13.513
51635W        W20053  28.074  42.509   0.884
51636W        W20054  40.423  26.005  14.838
51637W        W20055  16.072  40.996   0.897
51638W        W20056  35.927  34.469   1.862
51639W        W20057  11.780  44.778   1.708
51640W        W20058  11.664  33.944   0.425
51641W        W20059  43.509   8.734   1.719
51642W        W20060  39.938  30.129  13.389
51643W        W20061   4.251  21.540   0.820
51644W        W20062  40.921  34.911   3.197
51645W        W20063  23.101  42.418   3.729
51646W        W20064  42.368  30.565   4.658
51647W        W20065  33.626  39.857  14.441
51648W        W20066  40.304  30.425  12.536
51649W        W20067  22.631  20.032  11.611
51650W        W20068  35.024  35.089  10.535
51651W        W20069  13.712  17.711  14.980
51652W        W20070  33.973  12.830  14.929
51653W        W20071  31.914  13.745  14.397
51654W        W20072  41.944  26.657   0.788
51655W        W20073  25.685  27.036  12.520
51656W        W20074  17.757  32.967   3.239
51657W        W20075  34.429  43.333   4.627
51658W        W20076  23.568  32.451  12.418
51659W        W20077  34.051  39.846  13.489
51660W        W20078  16.617  39.473  13.499
51661W        W20079  43.502  25.703   1.729
51662W        W20080  32.072  28.612   4.179
51663W        W20081  15.278   2.897  14.969
51664W        W20082  13.344  16.711  12.486
51665W        W20083   0.779  34.548  10.489
51666W        W20084  24.033   5.692   2.355
51667W        W20085  34.005  20.586   2.256
51668W        W20086  18.141  38.421  12.052
51669W        W20087  18.187  30.012   3.282
51670W        W20088  41.868  37.519   5.311
51671W        W20089  11.666   9.755  12.561
51672W        W20090  22.143  22.545   0.344
51673W        W20091  25.536  22.649   4.195
51674W        W20092   8.887  25.530   0.318
51675W        W20093  42.422  16.221   3.348
51676W        W20094  23.675  35.519  10.415
51677W        W20095  24.063  32.536  12.502
51678W        W20096  31.405  43.950  12.883
51679W        W20097   3.734  32.032   4.326
51680W        W20098  16.728   2.803   0.911
51681W        W20099   3.406  11.634  14.493
51682W        W20100   8.880  42.958  11.079
51683W        W20101  34.597  15.213  11.422
51684W        W20102  19.616  43.991   3.353
51685W        W20103   4.927  18.697  11.044
51686W        W20104  41.306  32.455   0.905
51687W        W20105  31.483  23.154  10.637
51688W        W20106  34.023  24.023   2.856
51689W        W20107  26.961   6.284  13.053
51690W        W20108  32.105  38.327  14.886
51691W        W20109  27.170  12.318  12.472
51692W        W20110  13.836   3.755  10.536
51693W        W20111   8.303  13.661  12.832
51694W        W20112  41.936  19.644  10.506
51695W        W20113  39.916  26.114  13.940
51696W        W20114  31.052   8.805  11.066
51697W        W20115  14.773  35.090   3.738
51698W        W20116  15.240   5.361  12.460
51699W        W20117   3.864  13.652  13.849
51700W        W20118  36.080  40.970   1.846
51701W        W20119  35.057  22.741  12.524
51702W        W20120  12.682  29.035   2.725
51703W        W20121   1.471  15.231   1.335
51704W        W20122   4.314  30.594   2.381
51705W        W20123  29.538  25.146   1.910
51706W        W20124   5.838   6.207  12.028
51707W        W20125  19.750  33.926   1.311
51708W        W20126   3.449  31.921   5.268
51709W        W20127  44.261  17.657  12.837
51710W        W20128  32.095   0.367   4.604
51711W        W20129  44.858  11.647   1.754
51712W        W20130  36.924  41.482   1.707
51713W        W20131  15.124   6.186  12.451
51714W        W20132  39.555  29.945  11.561
51715W        W20133  26.068  14.729   2.205
51716W        W20134   6.907  35.554  13.884
51717W        W20135  27.534   0.290   0.442
51718W        W20136  18.294  43.977   0.467
51719W        W20137  10.361  27.098   0.376
51720W        W20138  19.618  10.711  14.818
51721W        W20139  20.158  26.966  13.825
51722W        W20140  33.611  37.515   0.915
51723W        W20141  26.198  16.794  13.392
51724W        W20142  22.723  30.106   3.295
51725W        W20143  18.227  17.090  13.030
51726W        W20144  37.088  42.476  10.459
51727W        W20145  12.130  19.552   3.279
51728W        W20146  40.401  38.435   4.701
51729W        W20147   6.695  15.192   4.205
51730W        W20148  22.587  25.518  13.003
51731W        W20149  25.514  35.893   2.741
51732W        W20150  35.399  28.463  14.361
51733W        W20151   0.854  23.096   3.691
51734W        W20152   3.858  31.626   4.190
51735W        W20153   0.341  26.144   3.835
51736W        W20154  31.548  18.221   2.902
51737W        W20155  29.647  11.227  11.482
51738W        W20156   9.315  21.744  14.977
51739W        W20157  26.050   0.417  11.890
51740W        W20158  32.138   0.483  13.337
51741W        W20159  15.303   7.819   3.740
51742W        W20160  33.939  11.637  13.475
51743W        W20161  34.102  15.140   1.849
51744W        W20162  18.177  40.871   4.650
51745W        W20163  40.431   8.669   4.805
51746W        W20164  27.482  32.962  12.013
51747W        W20165  35.392  42.951  12.430
51748W        W20166  25.659  12.712  12.358
51749W        W20167  40.308   9.165  14.826
51750W        W20168  22.110  25.117  13.884
51751W        W20169  12.337   1.897  10.911
51752W        W20170  13.759  40.905   0.871
51753W        W20171  21.246   3.865  10.549
51754W        W20172  25.990   1.428   4.726
51755W        W20173  17.067   4.233  12.467
51756W        W20174   5.359  16.632  14.352
51757W        W20175  13.743  28.538   3.702
51758W        W20176  19.682  26.977   5.173
51759W        W20177  28.106   3.944   4.252
51760W        W20178   3.368  26.128   0.449
51761W        W20179  12.149  15.136  11.585
51762W        W20180   5.288  40.997  14.987
51763W        W20181  21.691   6.283   1.418
51764W        W20182  28.989  40.869   0.946
51765W        W20183   7.312  13.251  13.889
51766W        W20184  38.831  21.019  11.429
51767W        W20185   3.897  16.734  10.937
51768W        W20186  20.530   6.863   2.755
51769W        W20187  39.935  44.863  11.523
51770W        W20188   5.341   3.291  12.014
51771W        W20189  13.156  26.686  12.494
51772W        W20190   2.469  22.169  14.298
51773W        W20191  17.656  44.959  14.930
51774W        W20192   1.408   3.874   4.609
51775W        W20193  26.199  10.193  12.096
51776W        W20194  41.791  10.268   1.752
51777W        W20195  31.551   9.385   1.838
51778W        W20196   1.434  42.409  13.469
51779W        W20197  20.235   7.255   4.269
51780W        W20198  35.511  32.482  11.464
51781W        W20199   1.924  11.135  14.885
51782W        W20200  22.202   2.283   2.394
51783W        W20201  18.135   9.315   2.216
51784W        W20202  39.986   6.750   2.214
51785W        W20203  10.830   3.753  12.037
51786W        W20204  20.603   0.806   3.165
51787W        W20205  38.862  41.463  13.874
51788W        W20206  28.937   2.881  10.455
51789W        W20207   2.869  18.610   1.749
51790W        W20208   2.886  20.736  14.385
51791W        W20209  36.560  18.183  13.801
51792W        W20210   3.309   3.295   2.753
51793W        W20211  37.071  20.192  14.457
51794W        W20212  19.731  17.633  13.817
51795W        W20213   4.798  34.947   4.238
51796W        W20214  24.997   1.312   1.398
51797W        W20215  12.283  25.474  13.931
51798W        W20216  19.120  16.297   4.744
51799W        W20217  40.833   8.713  13.332
51800W        W20218  32.093  22.701   4.826
51801W        W20219  20.199  42.408  12.353
51802W        W20220  18.202  11.687   5.295
51803W        W20221   1.385  42.508  12.016
51804W        W20222  26.575   9.394  10.064
51805W        W20223  43.427  14.277   0.405
51806W        W20224  41.369  40.457   3.356
51807W        W20225  44.762  37.932  11.493
51808W        W20226  43.373  18.168  14.444
51809W        W20227  21.088  36.001   2.879
51810W        W20228  18.224   4.386  11.976
51811W        W20229   2.897  37.475  10.431
51812W        W20230  25.008  34.485  12.835
51813W        W20231  12.204  19.050   2.786
51814W        W20232  10.376  11.331  12.952
51815W        W20233  14.710  44.458  10.920
51816W        W20234  30.091  15.597   2.736
51817W        W20235  35.976  29.163  14.977
51818W        W20236  26.634  18.630  13.517
51819W        W20237  39.332  36.089   4.671
51820W        W20238  30.071  38.937   3.272
51821W        W20239   7.675  42.893  11.463
51822W        W20240  32.544  42.409  11.590
51823W        W20241  41.977  29.077   0.845
51824W        W20242  40.354  29.927  12.835
51825W        W20243  38.840  16.689  12.011
51826W        W20244  25.597  19.563  14.504
51827W        W20245  38.552  12.798  14.922
51828W        W20246  30.489   2.945   3.848
51829W        W20247   1.359  22.710   5.627
51830W        W20248  20.762  34.424  11.054
51831W        W20249  11.816  40.465  11.454
51832W        W20250  30.623  31.111   0.407
51833W        W20251  42.413   5.796   2.895
51834W        W20252  30.601  16.730  14.919
51835W        W20253  38.908  24.090  13.850
51836W        W20254  25.129   7.835   1.833
51837W        W20255  24.982   4.222  10.593
51838W        W20256  17.731  35.577   2.803
51839W        W20257  12.212   5.849  10.893
51840W        W20258  26.488  19.570   4.177
51841W        W20259  41.913  24.515   2.839
51842W        W20260   8.330  32.501   3.824
51843W        W20261  36.367   8.166   1.329
51844W        W20262   7.206  13.629  11.067
51845W        W20263  43.405  14.629  10.113
51846W        W20264  43.510  27.452   3.722
51847W        W20265  29.081  38.074  13.368
51848W        W20266  32.605  34.947   4.779
51849W        W20267  36.576  33.883   1.295
51850W        W20268  27.068  11.288  12.897
51851W        W20269  26.513  36.083  12.041
51852W        W20270   8.687  42.465  14.451
51853W        W20271   2.409  38.842  10.914
51854W        W20272  15.619  17.752   4.759
51855W        W20273  27.111  12.330  10.500
51856W        W20274  37.535  11.695  14.813
51857W        W20275   3.325   0.343  11.518
51858W        W20276   0.982  27.504   1.820
51859W        W20277  12.846  24.103   5.252
51860W        W20278  29.455  17.114  11.579
51861W        W20279  40.529  19.267  13.851
51862W        W20280  20.065   7.276  14.435
51863W        W20281   5.276   3.902  12.833
51864W        W20282  24.617   7.751  13.499
51865W        W20283  43.920   2.799   0.474
51866W        W20284  28.184  34.921  12.477
51867W        W20285  34.077  15.635   3.213
51868W        W20286  10.239  21.214   0.945
51869W        W20287  18.182  41.926  14.876
51870W        W20288  25.595   3.460   1.895
51871W        W20289  19.716  20.130   0.381
51872W        W20290  17.198  18.210   3.686
51873W        W20291  44.774  41.512  11.005
51874W        W20292  40.959   9.191  10.549
51875W        W20293  43.470   4.877  12.980
51876W        W20294  16.720  27.583  11.065
51877W        W20295   6.765  43.873  12.084
51878W        W20296   3.819   3.886   3.303
51879W        W20297   4.382  18.249  14.313
51880W        W20298  10.209  10.661   1.338
51881W        W20299   5.437  34.003   3.770
51882W        W20300  23.082   9.233  10.511
51883W        W20301  19.765  33.574  14.329
51884W        W20302  15.146  39.920  12.356
51885W        W20303  14.758  38.351   2.710
51886W        W20304   5.297   4.228   4.146
51887W        W20305  10.663  23.038  11.480
51888W        W20306   2.922  17.116  14.475
51889W        W20307   3.448  16.221   2.704
51890W        W20308   1.928  40.466  14.387
51891W        W20309   3.352  26.628   2.806
51892W        W20310  27.525  25.636  13.870
51893W        W20311  23.582   3.852  12.951
51894W        W20312  29.000  32.090   2.665
51895W        W20313  20.082  43.782  13.807
51896W        W20314  27.656  10.721  11.504
51897W        W20315   9.787   4.431   2.411
51898W        W20316  42.877  32.938  12.846
51899W        W20317  40.335  10.332   1.331
51900W        W20318  31.637  35.088   2.347
51901W        W20319  15.814  39.997  10.940
51902W        W20320  34.065  32.998  13.828
51903W        W20321   7.214  33.492   4.201
51904W        W20322   6.265  18.152  10.995
51905W        W20323  42.295  40.892  14.497
51906W        W20324  30.967  27.451   0.847
51907W        W20325  36.856  20.162  13.998
51908W        W20326  17.774  22.037   2.342
51909W        W20327  42.476  39.547   2.766
51910W        W20328  28.982   6.330   1.779
51911W        W20329  17.151  30.991   0.952
51912W        W20330  29.549   9.758   0.752
51913W        W20331  42.348  38.947   4.120
51914W        W20332  11.645  39.524   1.774
51915W        W20333   4.280  23.992   2.340
51916W        W20334   3.325  36.418  10.985
51917W        W20335  20.028  21.180   0.444
51918W        W20336  38.432  43.980   4.717
51919W        W20337  34.603   3.439  12.945
51920W        W20338   5.234  20.062   2.669
51921W        W20339   0.931  39.998  11.394
51922W        W20340  38.966  41.377  11.910
51923W        W20341  17.777   5.822   5.085
51924W        W20342  20.273  33.410  10.635
51925W        W20343   9.689  16.739   0.461
51926W        W20344   4.333  22.507   4.130
51927W        W20345   8.209  35.513   1.427
51928W        W20346  36.906  12.310   4.333
51929W        W20347  39.407  24.610   0.832
51930W        W20348   8.258  11.238   0.311
51931W        W20349  42.857  30.624  11.430
51932W        W20350  28.500   4.209  10.623
51933W        W20351  27.682  19.077   0.393
51934W        W20352   1.736   5.843   3.185
51935W        W20353  30.475   1.802   4.809
51936W        W20354  28.065  29.043  10.608
51937W        W20355   5.200   4.710   1.776
51938W        W20356  17.634  34.436   4.311
51939W        W20357  26.574  22.637  14.452
51940W        W20358  17.179  23.043   4.798
51941W        W20359  40.414  26.169  12.026
51942W        W20360  26.568  20.528   4.626
51943W        W20361   6.830   0.298   2.670
51944W        W20362  13.297  40.948  11.100
51945W        W20363  15.151   5.380  11.570
51946W        W20364  31.452  20.597   1.351
51947W        W20365   5.734   4.757   0.743
51948W        W20366  14.122  17.294   3.259
51949W        W20367  17.567  34.478   3.262
51950W        W20368  16.701  14.688   3.702
51951W        W20369   4.918  32.439   0.328
51952W        W20370  34.553  42.799  14.372
51953W        W20371  14.277  39.378  13.907
51954W        W20372  33.962  29.575   1.806
51955W        W20373   1.805   4.281  13.518
51956W        W20374  31.969  21.570  13.909
51957W        W20375  11.852  21.626  14.835
51958W        W20376  15.740  23.210   4.734
51959W        W20377  33.124   8.833  14.917
51960W        W20378  44.355  37.930   4.657
51961W        W20379  41.968  33.983  13.813
51962W        W20380  25.974  34.938  13.902
51963W        W20381  21.625  23.498   4.163
51964W        W20382  42.288  23.105   3.246
51965W        W20383  19.132  41.461  11.462
51966W        W20384  20.264  36.060  14.833
51967W        W20385  10.220  20.098   0.888
51968W        W20386  38.503  33.439   2.798
51969W        W20387   2.303  26.525  11.372
51970W        W20388  43.779  43.404  14.393
51971W        W20389   0.477  20.627   5.575
51972W        W20390  33.930  44.971  12.413
51973W        W20391  36.461  38.329  12.021
51974W        W20392  34.061  18.706  12.825
51975W        W20393  33.011  17.581   1.766
51976W        W20394  34.577  33.395  10.925
51977W        W20395  36.842   8.172   3.677
51978W        W20396   4.302   4.865  12.844
51979W        W20397  35.360   4.747   3.176
51980W        W20398  16.304  21.706   1.916
51981W        W20399  23.005  12.126   3.843
51982W        W20400  44.295  41.834   3.224
51983W        W20401  22.678   9.345  11.449
51984W        W20402  43.283  14.597   3.808
51985W        W20403  15.749   7.753  11.514
51986W        W20404  17.686  24.224  14.846
51987W        W20405  22.539  17.754  10.920
51988W        W20406  33.545   1.913   0.366
51989W        W20407   5.349  40.840   4.190
51990W        W20408  39.454  42.010  13.417
51991W        W20409   3.749  19.116  14.367
51992W        W20410  39.924  35.887  14.866
51993W        W20411  35.377   0.828  10.551
51994W        W20412  26.188   6.753  11.487
51995W        W20413  22.728   1.335   1.296
51996W        W20414  14.292  35.394  13.895
51997W        W20415   9.689  18.617  12.985
51998W        W20416  44.422  18.220  13.025
51999W        W20417   0.470  32.095   0.963
52000W        W20418   0.955  40.381   2.245
52001W        W20419  22.080   0.768   0.296
52002W        W20420   0.964  19.677   0.967
52003W        W20421   2.317  13.708  11.541
52004W        W20422  30.537  18.558  11.604
52005W        W20423   2.874   0.822   4.835
52006W        W20424   0.288  14.147  11.088
52007W        W20425   2.301  15.210   2.880
52008W        W20426  41.809   9.652  13.848
52009W        W20427   6.694  21.080  13.058
52010W        W20428  38.546   5.882   0.790
52011W        W20429  22.173   2.237   0.345
52012W        W20430  29.574   2.312   4.791
52013W        W20431  33.586  42.814  10.950
52014W        W20432  10.844   2.734  12.076
52015W        W20433  37.980  17.737  12.552
52016W        W20434   1.770  41.359  12.011
52017W        W20435  25.472   0.763  14.758
52018W        W20436   4.214  23.991  10.953
52019W        W20437   3.233  33.584   1.752
52020W        W20438  25.702  43.444   1.757
52021W        W20439   0.420  41.407   2.224
52022W        W20440   8.270  21.053  12.062
52023W        W20441  16.240  33.014   2.892
52024W        W20442  29.116  32.618  13.527
52025W        W20443  39.863  40.850   4.725
52026W        W20444   7.667   7.826   4.255
52027W        W20445  39.979  38.913  13.814
52028W        W20446  14.657  28.450  14.885
52029W        W20447  42.411   8.685   2.749
52030W        W20448   8.202   6.420  13.854
52031W        W20449  20.056  28.515   1.774
52032W        W20450  26.984  41.453   4.314
52033W        W20451  44.298   8.656   2.702
52034W        W20452  41.810  20.674  11.440
52035W        W20453  44.454  31.571   5.219
52036W        W20454  21.625   2.920  10.415
52037W        W20455  23.712   6.340  14.475
52038W        W20456  37.935  33.528   9.979
52039W        W20457  42.818  30.911   3.240
52040W        W20458  29.564  13.834   3.246
52041W        W20459  19.209  26.083   1.792
52042W        W20460  38.534  35.486   4.727
52043W        W20461  11.711   7.298   0.962
52044W        W20462   1.255  26.044  11.420
52045W        W20463  31.527   1.768  11.415
52046W        W20464  22.745  24.200   4.795
52047W        W20465  12.653  19.621  10.420
52048W        W20466  38.339  35.940  14.836
52049W        W20467  18.560  15.744   2.305
52050W        W20468   3.916  24.544  14.301
52051W        W20469   2.407  23.030   2.852
52052W        W20470  28.628  37.921  13.857
52053W        W20471   8.245  33.992   1.294
52054W        W20472   6.339   3.771   1.926
52055W        W20473  12.286  22.626   0.344
52056W        W20474  11.191  34.540   3.863
52057W        W20475  28.964   8.222   0.784
52058W        W20476  16.186  35.955  12.513
52059W        W20477  15.668  13.303  12.350
52060W        W20478  17.705  41.933  11.077
52061W        W20479  23.603  28.029   4.818
52062W        W20480   6.238   9.204  11.373
52063W        W20481  18.673  39.441   1.823
52064W        W20482   5.380  35.513  13.001
52065W        W20483   6.407  10.293  10.464
52066W        W20484   7.818  32.522   3.705
52067W        W20485   7.331  19.093  12.046
52068W        W20486  33.967   0.485  14.352
52069W        W20487  44.290  41.367   1.414
52070W        W20488  28.986  36.012   2.310
52071W        W20489  12.331  23.560  13.328
52072W        W20490  41.896  34.574  12.543
52073W        W20491  21.582   0.431  10.057
52074W        W20492  24.099  13.177  14.390
52075W        W20493  24.105  39.828  13.952
52076W        W20494   0.908  29.542   0.400
52077W        W20495  28.065  39.961  12.045
52078W        W20496  26.007  29.050   1.397
52079W        W20497  17.587  19.110   2.720
52080W        W20498   6.237  27.539  14.881
52081W        W20499   5.797  23.523  13.340
52082W        W20500  27.666  37.938  14.897
52083W        W20501  20.201  26.993  11.921
52084W        W20502  35.548   6.778  14.387
52085W        W20503  32.056  16.244   3.744
52086W        W20504  41.807  12.654   4.153
52087W        W20505  29.579  44.293  13.836
52088W        W20506  19.738  39.993   1.246
52089W        W20507  33.002  35.919   2.247
52090W        W20508  41.362  28.094   2.397
52091W        W20509  31.046   4.412  13.504
52092W        W20510   9.752  31.902   3.829
52093W        W20511   4.935  24.007  10.909
52094W        W20512  21.116  10.199   4.115
52095W        W20513  14.182   9.668  12.068
52096W        W20514  25.712  10.161  14.451
52097W        W20515  39.354  44.957  14.790
52098W        W20516  36.388   3.305   1.285
52099W        W20517  23.173  35.394  10.896
52100W        W20518  38.388   2.840  13.545
52101W        W20519  35.976  20.714  14.797
52102W        W20520  39.338   9.847   1.708
52103W        W20521  11.673   6.903   1.447
52104W        W20522  24.509  39.937   5.584
52105W        W20523  42.833   8.741  11.876
52106W        W20524   9.812  44.969   2.723
52107W        W20525   5.351  13.148  13.961
52108W        W20526  34.893  33.995  12.547
52109W        W20527  32.983  15.219   2.252
52110W        W20528  17.632  19.751   0.930
52111W        W20529  28.122  15.253   1.407
52112W        W20530  24.165  37.048  13.798
52113W        W20531  23.518  43.821   0.758
52114W        W20532  12.355  28.590  10.532
52115W        W20533  31.071  27.016  12.476
52116W        W20534  21.632  40.822  12.471
52117W        W20535  12.738   2.853  13.042
52118W        W20536  26.610  22.155   4.219
52119W        W20537  38.411  38.981  10.968
52120W        W20538  16.800  42.918   1.343
52121W        W20539   2.426  39.507  10.600
52122W        W20540  29.125  18.645   0.830
52123W        W20541  20.159  35.495   2.813
52124W        W20542  37.935  17.574   2.297
52125W        W20543  25.016  17.062   2.884
52126W        W20544   5.786   1.881   4.340
52127W        W20545  10.636  42.790   2.840
52128W        W20546  18.772  32.901  13.055
52129W        W20547  39.327  24.996  10.444
52130W        W20548  31.018  28.170   4.639
52131W        W20549  42.964  19.728  10.983
52132W        W20550  29.665   5.357   2.330
52133W        W20551   6.254  20.595  11.601
52134W        W20552  39.042  42.525   1.802
52135W        W20553  12.702  18.125  14.974
52136W        W20554  43.450  16.122   1.863
52137W        W20555  38.036  23.094   4.774
52138W        W20556  35.960  28.506   1.273
52139W        W20557  43.994  34.082  12.409
52140W        W20558  30.026  28.589   3.164
52141W        W20559  38.379  26.142   2.413
52142W        W20560  43.458  20.689  12.935
52143W        W20561  21.574  28.542   4.181
52144W        W20562  11.189   4.753   9.921
52145W        W20563  34.989   0.271   0.280
52146W        W20564  28.103  41.849   3.654
52147W        W20565  16.254  24.694  10.419
52148W        W20566  27.686   6.327  10.008
52149W        W20567  25.683  24.096  11.506
52150W        W20568  21.560  22.686  12.861
52151W        W20569  39.839  20.162   0.452
52152W        W20570  44.851  11.810   4.624
52153W        W20571  23.233   3.317   3.222
52154W        W20572  38.498  23.599  12.482
52155W        W20573  23.593  28.633  14.979
52156W        W20574  20.563  29.454  12.078
52157W        W20575  32.903  29.014  13.898
52158W        W20576  19.581  15.758  11.048
52159W        W20577  30.003   1.944   2.297
52160W        W20578   8.695  19.608   4.183
52161W        W20579   3.319  26.587  14.373
52162W        W20580  37.068  37.068   2.673
52163W        W20581   7.218  42.902  11.487
52164W        W20582  27.683  41.340  13.514
52165W        W20583   1.864  27.041  10.907
52166W        W20584  27.183  18.083  14.986
52167W        W20585   6.877  10.381   4.122
52168W        W20586  19.654  14.165  12.900
52169W        W20587  14.608  21.180   1.739
52170W        W20588  25.115  16.796   0.891
52171W        W20589  36.968  35.602   0.366
52172W        W20590  15.591   8.886  12.861
52173W        W20591  22.016  40.986   5.215
52174W        W20592   0.295   1.777  12.823
52175W        W20593   0.248  15.636  13.483
52176W        W20594  43.965   8.314  13.952
52177W        W20595   4.701  33.389   3.679
52178W        W20596  38.934  38.465   4.662
52179W        W20597  21.645  16.798   2.794
52180W        W20598  23.026  32.556  14.328
52181W        W20599  23.609  23.198  14.434
52182W        W20600  17.791   5.888   1.357
52183W        W20601  14.834  26.690   4.310
52184W        W20602  26.676  43.986   3.372
52185W        W20603   8.679  13.785   0.401
52186W        W20604   6.828  25.688  10.627
52187W        W20605  22.545   8.323  11.947
52188W        W20606  14.331  38.909  12.873
52189W        W20607   0.808  29.055  10.429
52190W        W20608   3.947  20.250   2.699
52191W        W20609  20.694  36.479  12.431
52192W        W20610  29.035  26.069  12.392
52193W        W20611  33.998  38.361   9.624
52194W        W20612   1.461  21.713  10.532
52195W        W20613   0.334  19.248  10.423
52196W        W20614  31.924  41.888   1.700
52197W        W20615  23.543  32.109  12.054
52198W        W20616  44.933  42.026  11.111
52199W        W20617  18.623  20.632   0.247
52200W        W20618  22.040  20.627   1.425
52201W        W20619  32.037  10.720   3.254
52202W        W20620  25.060  15.589  12.577
52203W        W20621  28.626   2.856   3.196
52204W        W20622  31.017  16.207  10.896
52205W        W20623   1.253  39.414  14.381
52206W        W20624   3.801  27.136   0.307
52207W        W20625   6.293  15.647  13.984
52208W        W20626  27.176  15.114   4.694
52209W        W20627  30.483   9.731   0.478
52210W        W20628  37.045  12.155  12.034
52211W        W20629  12.130  29.103   3.222
52212W        W20630  27.553  11.673   4.195
52213W        W20631  14.282  25.062   0.888
52214W        W20632  17.711  11.695  12.891
52215W        W20633  37.565  14.656  11.401
52216W        W20634   1.401  11.659  11.948
52217W        W20635  33.422  39.901   9.963
52218W        W20636  15.306  33.938  11.994
52219W        W20637  28.605   9.177  11.037
52220W        W20638   6.902  19.181  11.097
52221W        W20639  24.227  19.212   4.823
52222W        W20640  39.853  34.493   0.436
52223W        W20641  32.968  32.124  12.369
52224W        W20642  17.306  23.515   9.920
52225W        W20643  40.963  20.185  11.056
52226W        W20644  15.098  39.327  12.964
52227W        W20645  32.406  36.542   0.297
52228W        W20646  17.714  14.295  11.390
52229W        W20647  25.066  31.539  12.388
52230W        W20648  36.363   3.305  13.792
52231W        W20649  15.630  19.637  11.994
52232W        W20650  16.302  12.779  14.778
52233W        W20651  27.976  43.424  14.008
52234W        W20652  19.235  41.476   4.681
52235W        W20653  17.260   9.391  11.098
52236W        W20654  19.120  34.579   2.716
52237W        W20655  12.218  30.017  14.837
52238W        W20656  20.671  43.349  11.528
52239W        W20657  28.605  15.225  13.792
52240W        W20658  12.843  13.800  11.567
52241W        W20659  12.754  26.575  12.476
52242W        W20660  22.658  21.659  13.918
52243W        W20661  41.342  41.313   1.265
52244W        W20662  11.806   9.863  13.913
52245W        W20663  14.707  11.809   4.789
52246W        W20664  18.085  13.741   0.372
52247W        W20665   1.874  22.623  13.858
52248W        W20666  23.603  37.372  13.863
52249W        W20667  40.980  40.990  12.362
52250W        W20668  27.635  17.107   2.731
52251W        W20669  38.969  40.446   1.430
52252W        W20670  21.235  43.470   2.181
52253W        W20671  10.735  20.133  11.381
52254W        W20672  37.336  29.084  13.378
52255W        W20673  19.268  27.098  13.006
52256W        W20674   5.861   2.369  13.463
52257W        W20675  16.677  17.724   0.776
52258W        W20676  31.612   7.683  11.374
52259W        W20677  19.119  14.757  13.050
52260W        W20678  15.090  25.534  10.965
52261W        W20679  42.788  31.521  12.490
52262W        W20680  15.320  41.523  10.581
52263W        W20681  41.805  31.038   2.344
52264W        W20682  35.068  22.243  14.964
52265W        W20683  21.525  18.168   4.283
52266W        W20684   6.703   3.424  14.436
52267W        W20685  39.505   1.932   3.267
52268W        W20686  15.603  33.460   0.404
52269W        W20687  33.427  44.901   4.815
52270W        W20688  39.509  20.590   1.232
52271W        W20689  30.972  11.862  11.443
52272W        W20690   4.783   7.771  11.986
52273W        W20691  20.239  43.385   2.814
52274W        W20692  33.499  11.243   0.259
52275W        W20693  13.119  41.938   4.198
52276W        W20694   3.873  36.844  14.840
52277W        W20695  14.767  39.854   1.879
52278W        W20696  18.717  42.500  10.535
52279W        W20697   6.714  17.297  11.475
52280W        W20698  13.663  32.416  10.941
52281W        W20699  43.874  38.864   5.685
52282W        W20700  18.216  14.696   2.731
52283W        W20701  19.770  31.118  12.393
52284W        W20702  29.499  28.679  10.891
52285W        W20703  22.673  44.496   2.386
52286W        W20704   3.307  21.254  11.402
52287W        W20705  42.926  13.718   2.863
52288W        W20706  33.937  16.169  13.433
52289W        W20707   9.180   3.759   2.387
52290W        W20708  14.771   7.722  12.454
52291W        W20709  15.814  44.898  12.987
52292W        W20710  29.536   4.401   4.156
52293W        W20711   2.745   1.966  13.798
52294W        W20712   5.757   1.846  13.371
52295W        W20713  18.620  30.513   3.313
52296W        W20714   6.420   3.801  12.438
52297W        W20715  10.240   8.850   1.931
52298W        W20716   0.473  28.642  12.879
52299W        W20717  28.509  37.355  12.966
52300W        W20718   7.344  44.938   4.693
52301W        W20719  25.036  24.593  14.513
52302W        W20720  26.592   8.784  11.587
52303W        W20721  18.733  36.909  13.891
52304W        W20722  44.381  15.122  10.462
52305W        W20723  14.112   5.705  13.307
52306W        W20724   5.405  10.756  14.477
52307W        W20725  41.475  35.385   4.759
52308W        W20726   3.909  25.480   3.809
52309W        W20727   6.720   8.800   3.724
52310W        W20728  34.006  31.609   4.706
52311W        W20729   8.333   7.899  13.894
52312W        W20730  15.323   1.971   4.220
52313W        W20731   6.329  22.078   3.843
52314W        W20732   2.271  27.610  11.093
52315W        W20733   4.919  25.694   2.265
52316W        W20734   2.836  35.585   0.406
52317W        W20735  36.423  30.522   3.362
52318W        W20736  22.159  25.583   5.688
52319W        W20737   9.861  18.078  11.403
52320W        W20738   7.839  42.778   4.796
52321W        W20739  16.313  20.536  13.872
52322W        W20740  33.616   7.260  14.859
52323W        W20741   0.438   7.799  11.020
52324W        W20742   5.827  13.231   1.399
52325W        W20743   3.327   8.251   1.786
52326W        W20744  21.632  19.065  14.949
52327W        W20745  13.609   4.775   3.699
52328W        W20746  42.904   8.673  11.054
52329W        W20747  39.968   2.743   1.801
52330W        W20748  43.379   0.433   1.274
52331W        W20749  16.255  33.508  14.792
52332W        W20750   2.775  26.605   0.297
52333W        W20751  40.411  39.018  13.907
52334W        W20752  29.577  36.866   4.252
52335W        W20753  14.593   6.409  10.974
52336W        W20754  26.003   9.645  11.911
52337W        W20755  25.631  26.631   0.784
52338W        W20756   0.287   3.761  11.417
52339W        W20757  42.030  39.355   4.122
52340W        W20758  32.889   7.904  14.781
52341W        W20759  10.358  43.512   0.409
52342W        W20760  12.204  25.520   0.341
52343W        W20761  38.510  33.950   0.791
52344W        W20762  44.001   7.865   4.170
52345W        W20763  34.493  21.734   4.610
52346W        W20764  25.501  11.145   1.411
52347W        W20765  26.147  43.433   0.328
52348W        W20766  37.421  27.582  10.449
52349W        W20767  26.972  19.535   0.800
52350W        W20768  41.446  42.378   3.667
52351W        W20769  22.738   9.849   3.208
52352W        W20770   6.844  15.756   9.954
52353W        W20771  21.557  21.749   0.946
52354W        W20772  21.569  42.823  14.820
52355W        W20773  14.768   9.688   0.787
52356W        W20774  41.415   9.831   3.752
52357W        W20775  27.128  28.499   4.682
52358W        W20776  17.624   4.332   3.800
52359W        W20777   9.669  36.589   1.869
52360W        W20778  17.099  22.217  10.525
52361W        W20779   6.695  20.613   4.182
52362W        W20780   6.736  30.088   2.797
52363W        W20781   0.847  35.499   1.810
52364W        W20782   1.846  26.539  14.815
52365W        W20783  16.208  22.180   1.379
52366W        W20784  44.281  17.132  14.832
52367W        W20785  10.217  29.561  10.587
52368W        W20786  24.610   7.394  14.364
52369W        W20787   2.924  21.747  10.554
52370W        W20788   7.836  16.169   0.335
52371W        W20789   7.350  19.659  14.787
52372W        W20790  33.465  33.437  14.763
52373W        W20791  22.691  40.877   3.673
52374W        W20792  40.939   5.793  13.049
52375W        W20793  31.899  42.933   2.764
52376W        W20794  20.050  42.308   2.321
52377W        W20795  29.066  44.399  12.356
52378W        W20796  34.099  26.982  11.009
52379W        W20797  40.319  37.577   0.472
52380W        W20798   7.768  42.839   1.726
52381W        W20799   7.673   3.406  11.420
52382W        W20800  32.980  20.606   1.267
52383W        W20801  14.167   8.899  13.001
52384W        W20802   8.792  34.517   1.234
52385W        W20803   2.449  36.459   5.222
52386W        W20804  18.269  40.975  10.998
52387W        W20805   0.807  42.954  12.848
52388W        W20806  31.029   8.683  12.462
52389W        W20807  36.483  28.031   1.882
52390W        W20808  33.036  30.952  10.469
52391W        W20809   8.288  37.852  14.025
52392W        W20810  14.210  35.506  13.015
52393W        W20811   0.361  17.754   0.319
52394W        W20812  36.850  17.633   4.238
52395W        W20813  40.025   1.842   2.235
52396W        W20814   9.691  24.580   1.345
52397W        W20815  12.857  43.931   3.300
52398W        W20816  22.613  23.097  10.515
52399W        W20817  19.169  42.496  12.489
52400W        W20818   2.749   2.320  12.442
52401W        W20819   7.911  25.563  11.378
52402W        W20820  24.021   9.181  12.930
52403W        W20821  28.181  24.065   1.913
52404W        W20822  41.366  14.100  13.345
52405W        W20823  13.668  12.838   3.205
52406W        W20824  11.730  24.005   4.121
52407W        W20825  31.987  34.458   4.679
52408W        W20826  24.517   5.292  11.440
52409W        W20827   4.239  38.952  12.844
52410W        W20828   6.840   3.929   1.435
52411W        W20829   4.439  31.512   2.901
52412W        W20830  13.792  13.132  13.431
52413W        W20831  41.815  20.684  14.970
52414W        W20832  44.861  37.012  14.865
52415W        W20833  25.091  21.116  10.525
52416W        W20834   6.828   2.833   3.157
52417W        W20835  17.300  23.162  14.475
52418W        W20836  20.635   5.323   0.379
52419W        W20837  35.469  37.075   4.817
52420W        W20838   5.256  41.796  12.552
52421W        W20839  31.034  22.569  10.054
52422W        W20840  12.812  15.256   4.684
52423W        W20841  10.216  25.633   4.244
52424W        W20842  35.413  33.387   3.837
52425W        W20843  44.980   8.880  10.559
52426W        W20844   2.825  39.378  12.519
52427W        W20845  36.051  24.691  12.935
52428W        W20846  18.560   7.306   5.236
52429W        W20847  21.567  28.547   0.296
52430W        W20848  30.152   7.352   0.340
52431W        W20849   9.710   3.775   0.484
52432W        W20850  32.425  34.910  11.504
52433W        W20851  37.840  12.310  14.512
52434W        W20852  19.586  16.742  14.458
52435W        W20853  44.369  13.750   3.172
52436W        W20854  15.743   0.367  14.007
52437W        W20855  40.051  14.281   0.748
52438W        W20856  39.467   3.251  13.362
52439W        W20857  26.587   1.253   4.779
52440W        W20858   5.692  23.700   2.339
52441W        W20859  29.121  19.573  14.927
52442W        W20860  18.580  41.931  13.862
52443W        W20861  25.534  24.691  11.525
52444W        W20862  16.767  37.064   1.325
52445W        W20863  33.547   2.870  14.457
52446W        W20864  17.771  31.501  12.990
52447W        W20865   0.862  43.516  11.021
52448W        W20866   8.849   4.936  11.968
52449W        W20867  26.557  25.069   0.345
52450W        W20868   0.293  30.468   3.753
52451W        W20869  23.578   2.377   2.401
52452W        W20870  17.306  29.425   4.125
52453W        W20871  27.534  21.528  12.922
52454W        W20872  43.924  11.787  12.458
52455W        W20873   2.402  35.978  13.495
52456W        W20874  27.106  28.077  14.347
52457W        W20875   0.857   6.862  11.044
52458W        W20876   5.299   4.354   4.728
52459W        W20877  24.663  32.622  13.852
52460W        W20878  23.218  38.403  13.901
52461W        W20879  23.536  16.252   3.197
52462W        W20880  27.585  44.860  13.060
52463W        W20881   4.292  29.456  11.999
52464W        W20882   4.276  19.565   4.676
52465W        W20883  10.719  23.083   0.255
52466W        W20884  22.178  37.390   0.383
52467W        W20885   2.314  23.128  14.825
52468W        W20886   3.761  15.242  11.890
52469W        W20887  35.883  29.504  14.302
52470W        W20888  25.597  21.662   1.818
52471W        W20889  39.471  33.487   3.636
52472W        W20890   7.832  39.874   4.259
52473W        W20891  39.970  12.259  10.598
52474W        W20892  43.768  15.758   2.723
52475W        W20893  43.391  37.477   0.960
52476W        W20894  30.950   3.771  11.414
52477W        W20895  30.588  28.565  11.083
52478W        W20896  19.561  20.119   2.183
52479W        W20897   7.770  23.502   4.274
52480W        W20898  17.752  26.066   2.794
52481W        W20899  32.603  29.105   2.823
52482W        W20900   2.892  27.451   1.898
52483W        W20901  42.443  12.342  11.113
52484W        W20902  38.014   7.260   2.877
52485W        W20903   0.929  40.960  11.398
52486W        W20904  24.203   1.252  13.315
52487W        W20905   7.366  44.391  10.074
52488W        W20906  17.619  36.556   4.732
52489W        W20907  19.626  39.809  12.940
52490W        W20908   9.361  32.004   4.147
52491W        W20909  44.981  31.110   0.890
52492W        W20910  14.328  22.530   3.803
52493W        W20911  25.658  11.851  13.900
52494W        W20912  31.918  21.722   0.286
52495W        W20913  13.229  40.434  10.992
52496W        W20914   1.790  19.241  12.990
52497W        W20915   7.174  35.412  13.391
52498W        W20916  36.509  23.532  11.087
52499W        W20917  15.295   8.756   2.670
52500W        W20918  30.036  23.736  14.476
52501W        W20919  15.141  43.433  11.413
52502W        W20920  41.884   4.437  14.296
52503W        W20921  14.281  42.295  13.942
52504W        W20922  28.665  13.247  11.510
52505W        W20923  31.019  38.473  14.847
52506W        W20924   6.193  17.738  14.978
52507W        W20925  37.399  19.755   1.317
52508W        W20926  19.204   8.667   0.480
52509W        W20927  22.181  43.358   0.472
52510W        W20928  32.568   5.747  13.860
52511W        W20929   8.321  23.126   1.781
52512W        W20930  29.989  23.208   0.792
52513W        W20931   0.458  42.398  12.887
52514W        W20932   7.771   7.328   1.288
52515W        W20933  29.172  27.942   2.417
52516W        W20934  31.575  37.378  11.905
52517W        W20935  24.198  37.935   1.362
52518W        W20936  16.638  40.409   2.334
52519W        W20937  27.149  19.664  10.440
52520W        W20938   3.917  28.630  13.510
52521W        W20939  41.965  21.023   3.759
52522W        W20940  41.799  10.811  14.513
52523W        W20941  35.506  26.505   1.879
52524W        W20942  14.703  20.036   3.211
52525W        W20943  41.827   1.265   1.293
52526W        W20944  44.288  18.051   1.744
52527W        W20945  12.180   1.855   3.285
52528W        W20946  20.550  35.410  11.394
52529W        W20947  25.493  32.120   0.307
52530W        W20948  37.868  44.363  12.832
52531W        W20949   9.309   3.438   1.880
52532W        W20950  19.142  14.731   9.969
52533W        W20951  10.727   4.425   1.410
52534W        W20952  44.887  44.435  11.412
52535W        W20953   1.377  42.422   1.882
52536W        W20954  40.928  44.445   2.342
52537W        W20955   3.862  40.363  14.797
52538W        W20956   0.430   4.897  13.033
52539W        W20957  19.689  28.994   0.251
52540W        W20958   0.826   2.229   2.398
52541W        W20959  37.002   0.459   4.224
52542W        W20960  16.128   4.702   5.108
52543W        W20961  20.114  12.128   3.335
52544W        W20962  30.449  42.376  11.394
52545W        W20963  38.960  34.889   3.188
52546W        W20964  22.677  13.343  13.007
52547W        W20965   6.225   9.204   3.682
52548W        W20966  37.853  32.407   3.781
52549W        W20967  34.948  30.036   0.732
52550W        W20968  13.292  18.175   0.949
52551W        W20969  36.437   6.726   1.424
52552W        W20970   5.282  22.519  10.995
52553W        W20971  42.302  13.661  14.383
52554W        W20972  31.448  34.518   3.832
52555W        W20973  16.682   9.190  14.382
52556W        W20974  36.520  34.379  10.615
52557W        W20975  41.039  23.182   0.316
52558W        W20976  42.015  27.664   3.645
52559W        W20977  12.786  26.670   4.145
52560W        W20978  33.595  40.464   1.359
52561W        W20979  24.603  23.230   3.744
52562W        W20980   8.806  12.617   0.402
52563W        W20981  27.991   2.856   4.740
52564W        W20982   7.899   4.294   4.675
52565W        W20983  27.051   3.762  11.990
52566W        W20984  39.521  39.430   2.774
52567W        W20985   4.841  33.937  14.963
52568W        W20986  23.094   9.814  10.462
52569W        W20987  33.615  44.503  12.514
52570W        W20988  21.117  38.020   4.223
52571W        W20989   7.408  44.346   4.773
52572W        W20990  23.095  15.632   1.399
52573W        W20991  44.887  36.847   3.700
52574W        W20992  26.986  32.626  10.645
52575W        W20993  42.344  16.566  13.043
52576W        W20994   7.851  26.559   4.710
52577W        W20995   0.861  11.130   4.730
52578W        W20996  20.721  36.011  14.922
52579W        W20997  12.220   7.767  14.893
52580W        W20998  31.585  31.011   3.191
52581W        W20999  40.330  30.519   1.428
52582W        W21000  10.705  18.716   2.696
52583W        W21001  41.509   2.776   1.292
52584W        W21002  16.588  43.886   4.711
52585W        W21003  24.492  27.674  13.337
52586W        W21004   8.405  35.396   2.324
52587W        W21005  31.020   7.200  11.549
52588W        W21006   7.200  41.432  12.052
52589W        W21007  22.564  10.699  13.453
52590W        W21008  15.158   7.190   5.651
52591W        W21009   9.172  27.548   1.340
52592W        W21010  40.541  35.900  10.118
52593W        W21011  16.142  38.531   1.722
52594W        W21012  44.425  17.617  11.965
52595W        W21013  28.952  38.909  12.381
52596W        W21014  36.583  16.808   2.288
52597W        W21015  19.039   3.367  14.278
52598W        W21016  35.425   1.961   2.389
52599W        W21017  14.233  21.186   4.221
52600W        W21018  29.517   8.384  13.373
52601W        W21019  19.131  21.753   0.880
52602W        W21020  14.148  38.936  14.349
52603W        W21021  32.053  22.606  12.502
52604W        W21022  41.805  36.955  13.967
52605W        W21023   4.905  29.469  14.921
52606W        W21024   1.975  41.985  14.919
52607W        W21025  25.620  11.651  11.539
52608W        W21026  12.284   4.781   3.339
52609W        W21027  21.743   9.164   3.152
52610W        W21028  13.298  21.075   3.243
52611W        W21029  41.538  17.275  11.013
52612W        W21030  21.079  43.892   9.937
52613W        W21031  35.496  27.585   1.377
52614W        W21032  44.260  26.966  10.992
52615W        W21033  38.468  38.945  14.879
52616W        W21034  42.945  42.944  14.514
52617W        W21035  29.086  32.957   1.304
52618W        W21036  17.191  21.082  11.455
52619W        W21037  27.567  21.110  13.380
52620W        W21038  22.047  34.482  11.969
52621W        W21039  15.251  27.618  13.476
52622W        W21040   1.475   8.725   3.236
52623W        W21041  25.974  26.975   0.790
52624W        W21042  16.635   5.873   4.775
52625W        W21043  36.996  24.213   2.755
52626W        W21044  42.304   4.829  11.063
52627W        W21045  30.036  10.268   2.678
52628W        W21046  21.544  44.968  12.553
52629W        W21047   3.409  44.316  10.922
52630W        W21048   8.847  20.246   2.680
52631W        W21049  26.621  28.155  13.857
52632W        W21050  40.048   5.267  13.918
52633W        W21051  36.514   3.709  12.377
52634W        W21052  44.447  25.053   9.942
52635W        W21053  26.989  11.859   0.908
52636W        W21054  43.805  19.244   3.819
52637W        W21055  22.628  35.040   3.167
52638W        W21056  27.030   2.277  10.996
52639W        W21057  43.412  38.977   0.366
52640W        W21058  38.002   4.270   2.191
52641W        W21059  26.987  42.788   4.172
52642W        W21060  23.139   3.909  10.578
52643W        W21061   5.313  33.961   4.834
52644W        W21062  43.868  41.350  13.470
52645W        W21063  18.628   6.720   1.244
52646W        W21064  39.899  17.220  10.896
52647W        W21065  26.960  17.607  14.508
52648W        W21066  25.496  28.971  12.968
52649W        W21067  36.382  19.656   0.400
52650W        W21068   3.862  27.095   4.322
52651W        W21069  40.915  13.182   0.759
52652W        W21070  24.529  38.338   0.354
52653W        W21071   7.211  28.568   3.635
52654W        W21072  40.001  24.614  14.847
52655W        W21073  21.116   9.195   1.864
52656W        W21074   3.715  27.575  12.917
52657W        W21075  24.012  18.775   3.151
52658W        W21076  34.406  27.574  13.810
52659W        W21077  24.689  29.469   1.235
52660W        W21078   2.722  34.608  12.905
52661W        W21079   1.258  39.872  11.883
52662W        W21080  18.247  40.046   3.338
52663W        W21081  29.586  22.040  12.871
52664W        W21082  26.480  30.119  14.287
52665W        W21083  26.147  40.508   4.602
52666W        W21084  33.085   1.472   1.738
52667W        W21085  20.167  26.023   3.312
52668W        W21086  43.780  11.790  13.373
52669W        W21087  38.994  23.046  13.910
52670W        W21088  33.509  43.963  12.057
52671W        W21089  25.058  22.112   1.932
52672W        W21090  22.712   8.206  12.378
52673W        W21091   1.298  11.170  10.602
52674W        W21092  26.532  11.167   1.708
52675W        W21093  19.633  19.233   4.251
52676W        W21094   6.387  34.491   2.366
52677W        W21095  44.874   1.810  13.541
52678W        W21096  38.934  28.061  14.961
52679W        W21097  12.645  32.052   3.383
52680W        W21098   6.826  37.014   1.268
52681W        W21099  26.624  22.542  11.016
52682W        W21100  28.457  10.833  13.832
52683W        W21101  18.625   0.871  13.840
52684W        W21102  34.422   9.191   0.445
52685W        W21103  23.189  38.383  11.415
52686W        W21104  20.666   8.228   4.721
52687W        W21105  21.136  16.813   4.624
52688W        W21106  32.637  19.776  11.471
52689W        W21107  28.522  21.134   0.869
52690W        W21108  35.528  36.847   2.729
52691W        W21109   4.247  39.824  11.467
52692W        W21110   2.720  23.584  14.425
52693W        W21111  34.615  41.438  12.444
52694W        W21112  21.629  31.112   1.434
52695W        W21113  22.729  32.399   3.642
52696W        W21114   8.793  43.309  13.808
52697W        W21115  20.083  23.708  14.337
52698W        W21116  42.488  18.649  12.416
52699W        W21117  43.873  21.537  11.463
52700W        W21118   4.738  20.229  14.504
52701W        W21119   4.910  42.851  13.440
52702W        W21120  11.326  20.061  12.569
52703W        W21121   0.745   1.757   4.646
52704W        W21122  15.771  19.591  14.793
52705W        W21123  35.501  15.737   3.343
52706W        W21124   6.766  18.252  14.798
52707W        W21125   2.937  15.267   3.664
52708W        W21126   3.434  18.112  11.858
52709W        W21127  42.882  21.515   2.795
52710W        W21128  29.531   4.271   2.868
52711W        W21129  15.296  37.978  12.509
52712W        W21130   1.463   9.844   4.323
52713W        W21131  10.753  31.099   4.738
52714W        W21132   3.720   7.190  11.991
52715W        W21133  23.541   2.298  12.834
52716W        W21134  39.903  38.447   2.751
52717W        W21135  13.262  18.198  11.532
52718W        W21136  42.876  13.321   2.305
52719W        W21137  14.231  32.543  13.356
52720W        W21138   2.388  42.941   4.173
52721W        W21139  12.776   1.278   4.235
52722W        W21140  43.380  17.734   4.235
52723W        W21141  41.520  32.034  10.996
52724W        W21142   3.376  28.463  14.973
52725W        W21143  25.138  26.559  13.904
52726W        W21144  24.605   9.252   0.893
52727W        W21145  43.892  44.997  14.942
52728W        W21146  12.226  15.641   1.817
52729W        W21147  11.766  23.501   4.652
52730W        W21148  39.426  15.214   2.190
52731W        W21149  40.017  20.524  14.404
52732W        W21150  35.536  37.860  14.760
52733W        W21151   1.862  23.184  12.830
52734W        W21152  23.122  34.939  14.388
52735W        W21153   1.831   1.362  11.094
52736W        W21154  32.925  28.654  10.617
52737W        W21155  12.266  42.783   0.857
52738W        W21156   3.770  39.326  12.877
52739W        W21157   0.427  22.628  11.474
52740W        W21158  34.420  22.640   4.142
52741W        W21159   7.688  30.620   3.249
52742W        W21160  19.255  41.804  13.918
52743W        W21161  14.785  19.279   1.755
52744W        W21162  26.526  35.947  12.870
52745W        W21163  11.348  34.114  14.010
52746W        W21164  42.847  14.617   5.590
52747W        W21165   6.231  39.543   1.788
52748W        W21166   6.355  30.574   0.925
52749W        W21167  20.128  43.510   4.147
52750W        W21168  24.215  18.631   4.648
52751W        W21169   4.275   5.345  11.457
52752W        W21170  17.082  11.149  12.379
52753W        W21171  32.103   8.696   3.856
52754W        W21172  18.208   6.193  14.019
52755W        W21173  32.950  39.375  12.940
52756W        W21174  15.083   4.302  12.992
52757W        W21175  34.901   3.912  13.993
52758W        W21176   9.174  19.749   1.243
52759W        W21177  16.714   4.247  12.080
52760W        W21178  23.062   6.791   4.671
52761W        W21179  36.961   6.752   1.419
52762W        W21180  40.375  31.000  14.839
52763W        W21181  14.765  15.608  13.846
52764W        W21182   7.342   8.331  12.950
52765W        W21183  20.067  35.871   0.419
52766W        W21184  16.104   1.256  10.517
52767W        W21185   5.308   3.448  13.838
52768W        W21186  10.683  44.471   1.730
52769W        W21187  10.324  11.818   0.407
52770W        W21188  40.967  35.045   0.943
52771W        W21189  11.271  25.006  12.368
52772W        W21190  29.627   2.840  14.421
52773W        W21191   9.694   3.951  10.609
52774W        W21192   2.878   0.249  12.078
52775W        W21193   6.707  34.870  14.374
52776W        W21194  26.004  24.159   0.400
52777W        W21195  16.250   2.954   2.366
52778W        W21196   3.283  20.691   1.920
52779W        W21197   9.168  30.483  13.412
52780W        W21198  34.489  16.293   3.646
52781W        W21199  11.367  41.468   0.408
52782W        W21200  41.399  33.417  11.878
52783W        W21201  22.579  19.758   1.727
52784W        W21202  25.056  36.380  11.529
52785W        W21203  36.044  19.253  12.913
52786W        W21204  36.968  40.491   0.771
52787W        W21205  31.439  17.074   3.863
52788W        W21206  18.192  36.921  12.573
52789W        W21207  36.993  19.586  14.510
52790W        W21208   2.300  18.602  14.475
52791W        W21209  22.588  14.230  12.958
52792W        W21210  41.385  17.207   4.220
52793W        W21211  28.105  22.562  10.517
52794W        W21212  20.564  29.952  14.802
52795W        W21213  32.429  14.095   2.362
52796W        W21214   5.439  16.296   3.800
52797W        W21215  34.491  13.641   3.634
52798W        W21216  10.360  20.573   4.197
52799W        W21217   7.287   5.744  13.904
52800W        W21218  20.703  25.587   0.779
52801W        W21219  21.211  13.602   0.961
52802W        W21220  20.140  22.219   1.386
52803W        W21221  43.516   0.359  11.938
52804W        W21222  34.402  22.562   2.721
52805W        W21223  17.563  43.379   4.768
52806W        W21224  24.512  12.231  12.572
52807W        W21225  22.566  12.775   0.420
52808W        W21226  27.198  25.208   1.824
52809W        W21227  22.584   0.853   0.338
52810W        W21228   4.737  37.505  10.473
52811W        W21229  27.609  20.682  14.435
52812W        W21230  33.549   6.381   4.309
52813W        W21231   5.361  16.724   3.865
52814W        W21232  42.895  19.182  10.466
52815W        W21233   6.374  11.356   1.807
52816W        W21234  16.786  33.488  10.464
52817W        W21235  16.676  27.538   2.725
52818W        W21236  11.865  33.440  14.430
52819W        W21237  14.627   7.873   1.902
52820W        W21238  18.050  35.005  12.461
52821W        W21239   7.354   2.778  11.951
52822W        W21240  14.138  21.712  10.602
52823W        W21241  14.100  31.906   1.282
52824W        W21242  29.122   2.734   3.656
52825W        W21243  24.076  35.968  11.561
52826W        W21244  41.455  30.575  12.851
52827W        W21245   8.812  32.531  11.943
52828W        W21246   0.275  38.569   4.743
52829W        W21247  34.010   1.434  12.413
52830W        W21248  14.184  35.956   4.780
52831W        W21249   6.203   7.263  12.866
52832W        W21250  33.588  38.556   4.624
52833W        W21251  32.889   6.818   0.729
52834W        W21252  31.954   4.273  11.515
52835W        W21253  10.755  19.063   1.780
52836W        W21254   0.769  42.337  11.914
52837W        W21255   3.856  22.101   5.648
52838W        W21256  27.168  17.771   3.257
52839W        W21257  33.088  19.768  11.534
52840W        W21258  32.906  12.332  11.910
52841W        W21259  34.963  31.535   1.861
52842W        W21260  17.262  16.211   1.825
52843W        W21261   6.789   9.234   1.244
52844W        W21262  14.794  35.561  10.988
52845W        W21263   1.374  40.444  12.956
52846W        W21264   8.358  26.190  12.851
52847W        W21265  41.806  29.138   4.658
52848W        W21266  26.204  39.887   4.240
52849W        W21267   9.683  11.300   3.162
52850W        W21268  42.934   1.251  10.539
52851W        W21269  22.034   0.898  14.767
52852W        W21270  41.537   4.399  14.287
52853W        W21271  37.531  14.589  14.810
52854W        W21272  32.022   7.828   0.876
52855W        W21273  33.388  30.436  13.061
52856W        W21274  21.650  18.169  14.283
52857W        W21275   5.770  20.154  12.378
52858W        W21276  19.270  30.955   3.819
52859W        W21277  21.235  17.297   0.346
52860W        W21278  22.052  26.193  10.912
52861W        W21279   2.792  20.546  14.775
52862W        W21280   2.756  30.104  14.880
52863W        W21281  21.184   0.338  10.505
52864W        W21282  32.109  14.152   1.778
52865W        W21283  20.253  11.326  12.392
52866W        W21284  34.377  31.438   0.313
52867W        W21285  27.571  11.740  13.326
52868W        W21286  11.826  14.753  14.387
52869W        W21287  36.380  44.872   1.858
52870W        W21288  24.182  16.585  14.388
52871W        W21289  20.679   5.736   2.244
52872W        W21290  28.046   2.454  12.093
52873W        W21291  17.102  35.012  12.019
52874W        W21292  11.770  12.757   4.766
52875W        W21293  10.820  15.719   0.902
52876W        W21294  39.517  15.294  12.828
52877W        W21295  23.688   9.181   3.861
52878W        W21296  43.408  41.399  12.906
52879W        W21297  22.744  23.615  11.595
52880W        W21298   6.877  14.590  12.837
52881W        W21299  36.069   1.908  11.981
52882W        W21300  10.249   5.738   3.158
52883W        W21301  30.627  14.131  14.298
52884W        W21302  10.339  17.239   1.717
52885W        W21303   9.674  12.802   3.758
52886W        W21304  28.453  33.601   3.723
52887W        W21305  11.280  18.063   0.366
52888W        W21306  13.316  38.926   1.309
52889W        W21307   4.243  21.560  12.067
52890W        W21308   6.342  10.870   4.776
52891W        W21309  29.011   2.961   0.431
52892W        W21310  28.146  26.503   4.255
52893W        W21311   4.448  18.777   1.849
52894W        W21312   9.751  39.471   4.796
52895W        W21313  32.986  25.178  10.611
52896W        W21314  21.200  32.113   2.702
52897W        W21315  24.077  16.655  11.486
52898W        W21316  25.061  20.695   1.343
52899W        W21317  16.704  39.894  14.476
52900W        W21318  20.235   3.859  10.405
52901W        W21319  37.499  35.904   3.677
52902W        W21320  33.052  40.377   3.870
52903W        W21321  12.624  24.124  10.635
52904W        W21322   1.262   2.378   2.196
52905W        W21323  33.478  13.326  10.494
52906W        W21324  25.503  19.640  10.491
52907W        W21325   8.298  31.477   2.794
52908W        W21326  33.455  41.430   4.806
52909W        W21327  19.691  13.749   4.282
52910W        W21328   9.272  13.295  10.904
52911W        W21329  28.021  40.819  11.409
52912W        W21330  38.954  27.110   0.889
52913W        W21331  13.725  32.430  12.960
52914W        W21332  28.482  24.189  12.940
52915W        W21333  35.962  41.923   1.799
52916W        W21334   6.881  19.169   2.667
52917W        W21335   3.402  26.623  13.916
52918W        W21336   9.664  23.622   3.385
52919W        W21337  19.674  32.576  11.018
52920W        W21338  36.425  20.193   4.807
52921W        W21339   8.272   8.760   3.152
52922W        W21340  28.103  36.060  11.049
52923W        W21341  12.347  39.446   0.437
52924W        W21342  31.510  13.345  13.326
52925W        W21343  38.508  40.027  13.522
52926W        W21344   1.860   7.301   1.267
52927W        W21345  39.942   8.819  10.600
52928W        W21346  17.619  15.305  13.927
52929W        W21347  29.973  42.945  12.047
52930W        W21348  18.276  19.158  11.120
52931W        W21349  17.129   5.393  12.394
52932W        W21350  31.410  22.007  12.904
52933W        W21351   2.262  32.408  13.819
52934W        W21352  20.669  20.641  11.056
52935W        W21353  20.644  40.838   4.612
52936W        W21354   8.826  20.735   4.136
52937W        W21355  14.149  22.091   0.849
52938W        W21356  36.556  18.600  13.853
52939W        W21357   7.235  44.329   1.932
52940W        W21358  24.552  15.623   1.319
52941W        W21359  34.957  37.426  10.030
52942W        W21360  44.919   6.810  11.878
52943W        W21361  39.939  14.116  14.823
52944W        W21362  27.029  39.000  12.908
52945W        W21363  28.006  38.064   0.385
52946W        W21364   2.760   6.819   3.741
52947W        W21365  41.316  22.715  10.049
52948W        W21366  13.633  31.052  11.514
52949W        W21367  13.140  39.383  12.524
52950W        W21368  37.912  37.990   4.698
52951W        W21369  40.344  15.126  11.993
52952W        W21370   8.844  38.955  14.028
52953W        W21371  41.510  15.789  13.823
52954W        W21372  44.815  35.449   1.852
52955W        W21373  10.223   0.894  11.511
52956W        W21374  18.631  32.921  11.480
52957W        W21375  38.557  10.637   4.830
52958W        W21376   9.306  29.572  12.380
52959W        W21377  18.206  29.967   1.334
52960W        W21378  36.458  12.825   1.741
52961W        W21379  12.768  16.197  14.971
52962W        W21380  32.028  15.615  11.463
52963W        W21381  22.665  29.504  14.866
52964W        W21382  36.082  38.560  14.874
52965W        W21383   2.383  33.995   3.710
52966W        W21384  34.522   2.229  11.442
52967W        W21385  39.451  32.105   0.941
52968W        W21386   2.923  16.777   0.881
52969W        W21387  22.021  14.210   1.720
52970W        W21388   6.844  36.564  14.852
52971W        W21389  28.142  29.661  12.505
52972W        W21390  38.871   9.248  13.523
52973W        W21391  41.828   9.371   4.669
52974W        W21392  28.580  41.803  14.855
52975W        W21393  28.034  19.248   4.708
52976W        W21394  10.283  34.875  10.948
52977W        W21395  31.010  22.638   3.215
52978W        W21396  13.331  21.060  13.308
52979W        W21397   5.816  17.092   2.267
52980W        W21398  19.640   8.832   3.376
52981W        W21399   7.722   6.692   4.199
52982W        W21400  30.908  24.580  13.048
52983W        W21401  36.948  23.232  14.431
52984W        W21402  42.362  11.266  11.461
52985W        W21403   7.308  38.973   0.801
52986W        W21404  35.003   6.273   0.262
52987W        W21405  13.310  30.009   4.689
52988W        W21406  42.348   5.719  13.934
52989W        W21407  20.031   2.441   1.303
52990W        W21408  11.702  28.953   2.780
52991W        W21409  19.115   9.281  14.359
52992W        W21410  31.024  18.651  10.631
52993W        W21411  19.159  18.696  11.868
52994W        W21412   3.917   2.249   1.371
52995W        W21413   0.256   7.332   0.894
52996W        W21414   0.470  36.848   4.240
52997W        W21415  10.335  43.825  11.610
52998W        W21416  25.575  41.407  13.977
52999W        W21417   3.762   0.474  13.412
53000W        W21418  12.810  31.099   0.274
53001W        W21419  20.608  44.379  12.454
53002W        W21420   0.272  11.267   1.429
53003W        W21421   6.398   3.409  14.921
53004W        W21422  29.528  43.790  11.025
53005W        W21423  37.497  29.619  12.884
53006W        W21424   2.442  13.178   0.324
53007W        W21425  36.413  26.595   5.310
53008W        W21426  41.931  35.515  10.618
53009W        W21427  33.486  15.707   3.846
53010W        W21428  31.014  35.083  13.791
53011W        W21429  31.142  29.951   2.300
53012W        W21430  28.563  22.048   4.790
53013W        W21431   0.748  40.364   2.716
53014W        W21432   2.358  27.513   4.818
53015W        W21433   3.366   7.384   4.610
53016W        W21434  44.930   3.807  14.406
53017W        W21435  29.471  38.514   0.736
53018W        W21436  31.027  22.522   2.750
53019W        W21437  41.380  10.865   3.358
53020W        W21438  19.780  24.657   1.912
53021W        W21439  44.995  31.137   2.893
53022W        W21440   0.282  18.764  14.283
53023W        W21441  11.137  19.126  11.479
53024W        W21442  37.344   5.300  14.874
53025W        W21443  36.012  39.479  12.923
53026W        W21444  18.676  39.503   4.212
53027W        W21445  15.204   6.376  12.845
53028W        W21446  24.636  40.885  11.495
53029W        W21447   4.234   6.825   1.259
53030W        W21448   9.801  36.389  13.040
53031W        W21449  14.147  16.611  11.106
53032W        W21450  29.930  33.981  14.507
53033W        W21451  10.771  17.557  12.899
53034W        W21452   7.867   2.233   0.842
53035W        W21453  22.052  25.516   5.121
53036W        W21454  31.071  30.126  12.513
53037W        W21455  24.541  16.765  14.764
53038W        W21456  21.085  11.149   0.822
53039W        W21457  38.909  19.228   2.802
53040W        W21458   4.865  23.005   0.943
53041W        W21459  42.912  41.857  10.140
53042W        W21460   5.378  11.285   3.193
53043W        W21461  31.444  25.050  11.014
53044W        W21462  38.446  30.926  11.056
53045W        W21463  31.090  23.723  13.972
53046W        W21464   8.749   0.248   3.829
53047W        W21465  22.153  33.106  13.876
53048W        W21466  40.510  32.435   4.267
53049W        W21467  41.503   6.768  10.416
53050W        W21468   4.423   3.401  11.589
53051W        W21469   5.284  22.537  12.928
53052W        W21470  14.320   3.779   0.826
53053W        W21471  13.199  21.671  11.519
53054W        W21472  42.408   2.373  12.072
53055W        W21473  34.120  28.101  14.004
53056W        W21474  15.176  36.421  13.954
53057W        W21475   6.746  24.586   1.246
53058W        W21476  14.742  40.386   0.272
53059W        W21477   4.283   1.366  13.055
53060W        W21478   1.308  27.637  11.594
53061W        W21479  44.449   7.363   5.097
53062W        W21480  12.688  10.283   2.311
53063W        W21481  27.557  28.136  12.969
53064W        W21482  18.127   8.839  13.045
53065W        W21483  19.122  36.409  10.944
53066W        W21484  13.306  19.051  12.040
53067W        W21485  16.156  29.039  13.458
53068W        W21486  37.961  30.610   0.894
53069W        W21487  19.771  38.489   1.445
53070W        W21488  40.901   2.812   3.222
53071W        W21489  27.090   3.342  13.873
53072W        W21490  28.108  40.814   2.833
53073W        W21491  40.987  32.546   4.716
53074W        W21492  27.074  32.496  12.507
53075W        W21493  16.781  18.099  14.771
53076W        W21494  41.412  32.533   3.862
53077W        W21495  25.593  44.948  14.452
53078W        W21496  26.497  13.314   5.244
53079W        W21497  13.643   0.364   1.437
53080W        W21498  25.033  41.297  13.805
53081W        W21499  24.170  31.099   0.751
53082W        W21500  15.203  41.859   3.832
53083W        W21501  31.920   7.355  11.387
53084W        W21502   9.205  24.509   1.267
53085W        W21503  34.948   4.826  14.795
53086W        W21504   9.747  43.482  12.938
53087W        W21505  18.228   9.210   4.730
53088W        W21506  36.578  31.636  11.906
53089W        W21507  30.957   7.763   1.820
53090W        W21508   5.750  25.572   4.169
53091W        W21509  44.990  40.382  12.960
53092W        W21510  14.129  33.946  11.877
53093W        W21511  25.682  20.709   4.759
53094W        W21512  20.636  29.645  14.474
53095W        W21513  29.553  16.318  14.947
53096W        W21514  11.234   0.762   3.836
53097W        W21515  28.550  28.577   4.751
53098W        W21516  43.779   1.770   1.325
53099W        W21517  16.312  33.023   3.845
53100W        W21518   7.879  23.686  13.378
53101W        W21519  18.705  25.500   4.621
53102W        W21520   7.367   7.213  13.866
53103W        W21521  13.700  21.626   0.892
53104W        W21522   7.361  25.167  11.063
53105W        W21523  26.557  25.522  12.469
53106W        W21524  13.744   8.873  12.459
53107W        W21525  15.663   0.892  14.291
53108W        W21526  40.939  40.395   1.402
53109W        W21527  15.736  41.897  10.564
53110W        W21528  33.595  38.829  12.010
53111W        W21529  32.441  15.166  11.453
53112W        W21530  28.604   3.296   5.258
53113W        W21531  10.236  44.881   1.339
53114W        W21532  41.492  27.163  13.859
53115W        W21533   6.371  15.280  14.285
53116W        W21534  21.727  16.726  12.564
53117W        W21535  22.215   0.295   4.834
53118W        W21536   8.368   6.765  10.572
53119W        W21537  20.614   1.861  14.366
53120W        W21538  18.267  16.726   2.674
53121W        W21539  25.516   3.453  13.964
53122W        W21540  28.976  18.247  13.991
53123W        W21541   2.787  21.148   5.116
53124W        W21542  40.814  44.949  10.534
53125W        W21543  11.311  15.809  13.931
53126W        W21544  32.994   9.683  10.633
53127W        W21545  27.154  43.404   2.812
53128W        W21546   9.175  23.079   0.286
53129W        W21547  27.509  38.522  11.374
53130W        W21548  14.599  22.132   1.795
53131W        W21549  29.089   2.425   1.325
53132W        W21550  13.312  23.146   2.258
53133W        W21551  28.508   3.366  13.962
53134W        W21552  18.217  29.556   2.304
53135W        W21553  40.328  12.805   1.274
53136W        W21554  14.626  16.106   0.396
53137W        W21555  11.694  21.673  14.413
53138W        W21556  42.333   8.164  12.562
53139W        W21557   9.251  28.091   3.867
53140W        W21558   5.371  21.741  12.410
53141W        W21559  39.997  41.340  11.065
53142W        W21560  33.446  12.770   0.890
53143W        W21561  37.344  27.099  11.388
53144W        W21562  24.626  27.457   4.182
53145W        W21563   3.377   6.863   1.721
53146W        W21564  18.578  10.279   5.315
53147W        W21565  30.053  21.550   1.417
53148W        W21566  27.092   1.251  14.353
53149W        W21567  28.498  43.463   2.675
53150W        W21568  11.354   2.826   2.855
53151W        W21569  32.425  11.757   1.852
53152W        W21570  21.751  40.970   3.349
53153W        W21571  39.559  36.967   0.866
53154W        W21572  37.368   9.287   4.838
53155W        W21573  22.119   4.852   1.245
53156W        W21574  39.544  43.385   2.371
53157W        W21575  11.811  12.167  14.919
53158W        W21576  18.154  22.688   0.943
53159W        W21577  15.164  22.175   1.703
53160W        W21578  17.605  13.689   5.097
53161W        W21579  38.867  21.177  13.057
53162W        W21580   2.285  19.136  13.030
53163W        W21581  16.216  23.077   3.754
53164W        W21582  21.153   6.683  10.550
53165W        W21583  28.668   9.797  11.394
53166W        W21584  30.655  17.092  11.508
53167W        W21585  18.083  35.409   4.796
53168W        W21586   3.731  24.576   4.816
53169W        W21587  31.449   2.372   4.292
53170W        W21588  36.021  17.561  13.476
53171W        W21589  41.311  41.807   5.124
53172W        W21590  16.790  34.386  14.367
53173W        W21591   0.857  41.913  10.127
53174W        W21592  16.735  16.632  13.422
53175W        W21593  11.828   0.379  13.823
53176W        W21594  35.946  34.963   1.350
53177W        W21595  13.212  33.028   4.694
53178W        W21596  30.912  25.091   0.854
53179W        W21597  43.504   5.206   1.443
53180W        W21598  17.135  24.481   0.771
53181W        W21599  31.053   9.684  11.594
53182W        W21600  12.328  31.125   0.785
53183W        W21601  17.180  20.074   0.266
53184W        W21602  11.142  31.523  13.339
53185W        W21603  34.569   5.371  10.930
53186W        W21604  17.740  41.513  12.996
53187W        W21605  40.525  34.519   4.649
53188W        W21606  23.099  21.123   4.332
53189W        W21607  44.476  32.055   5.320
53190W        W21608   6.383   3.710  14.780
53191W        W21609  28.600  32.412   2.825
53192W        W21610  11.163  27.616   4.354
53193W        W21611  23.021  25.047  12.079
53194W        W21612  28.531  20.043   2.743
53195W        W21613   2.866   2.916  14.768
53196W        W21614  26.506  13.321   4.313
53197W        W21615  17.133  33.415  11.404
53198W        W21616   8.351  44.872  10.599
53199W        W21617  23.644  13.766   0.893
53200W        W21618   5.431  12.707   1.381
53201W        W21619   0.348  24.223  13.531
53202W        W21620  28.954  37.033  10.998
53203W        W21621  30.423  42.833   1.243
53204W        W21622  23.098  14.201  12.517
53205W        W21623  28.506  28.157  14.922
53206W        W21624   1.266  18.721   0.908
53207W        W21625  33.517  28.108   5.094
53208W        W21626   3.380  19.268   2.826
53209W        W21627  33.074  11.799   1.328
53210W        W21628  23.227  18.644   1.714
53211W        W21629  13.233  31.635   2.386
53212W        W21630  37.009  23.063   3.744
53213W        W21631  15.615  17.788   0.850
53214W        W21632  14.231  23.525  13.436
53215W        W21633  31.599   9.689   3.165
53216W        W21634  39.331   0.908   0.944
53217W        W21635  26.047  30.545  12.415
53218W        W21636  32.399  27.062   3.822
53219W        W21637  19.599  39.368  10.980
53220W        W21638   2.799  30.011  11.430
53221W        W21639  41.365  40.414  10.057
53222W        W21640  13.629  21.116  10.083
53223W        W21641   3.387   8.866   1.283
53224W        W21642  42.813   7.372   0.350
53225W        W21643  11.212  41.358   3.822
53226W        W21644  40.949  26.168   0.373
53227W        W21645  22.731   9.195  12.879
53228W        W21646   8.848   1.844  13.396
53229W        W21647  34.537  39.509   0.924
53230W        W21648  25.472  23.206   0.267
53231W        W21649  29.490  44.340   1.335
53232W        W21650   7.190   0.886   3.801
53233W        W21651  43.303  35.077   3.785
53234W        W21652   7.397  40.968  14.911
53235W        W21653  13.652  26.027  12.417
53236W        W21654  38.489  15.179  12.012
53237W        W21655  21.674   4.925   4.155
53238W        W21656   2.429   6.731   3.794
53239W        W21657  42.507  17.067   3.810
53240W        W21658  16.272  41.400   1.727
53241W        W21659  33.127  11.641  13.434
53242W        W21660   7.194  41.844  14.940
53243W        W21661  25.196  26.488  11.563
53244W        W21662  11.258   0.984   4.286
53245W        W21663  20.122  28.654   3.290
53246W        W21664  12.146  23.179  11.485
53247W        W21665  32.944  31.577   2.748
53248W        W21666  23.585   6.915   2.757
53249W        W21667   7.794  30.573  12.455
53250W        W21668  29.144  38.046   4.255
53251W        W21669  36.479  34.000   4.618
53252W        W21670  40.370  41.891  12.895
53253W        W21671  28.667  10.369  13.051
53254W        W21672  34.578  16.116   0.752
53255W        W21673  32.576  37.529  12.863
53256W        W21674  41.356  10.721   2.827
53257W        W21675   5.296  22.528   3.321
53258W        W21676  26.478  13.761  11.060
53259W        W21677  32.022   9.385   2.863
53260W        W21678  31.581  13.711   2.897
53261W        W21679   8.774  15.106   0.963
53262W        W21680  44.469   5.388  13.526
53263W        W21681  14.319   8.760   0.784
53264W        W21682  30.431  16.266   2.211
53265W        W21683  16.671  23.131   0.732
53266W        W21684  40.048   4.828   2.226
53267W        W21685  21.673   4.418   1.734
53268W        W21686   6.368  30.641  14.929
53269W        W21687  28.598  17.139  12.502
53270W        W21688  21.239  20.258  13.038
53271W        W21689  25.509  42.016   4.623
53272W        W21690   5.206  13.655   2.742
53273W        W21691  14.717   9.210   2.901
53274W        W21692  44.304   9.198  13.347
53275W        W21693  29.087   9.746  10.585
53276W        W21694  41.503  22.176  14.966
53277W        W21695   0.756  28.180   2.726
53278W        W21696  24.576  10.775  10.597
53279W        W21697  22.630  22.149  12.566
53280W        W21698  18.593  36.554   0.963
53281W        W21699  43.946   6.693   0.953
53282W        W21700  41.434  13.637   0.448
53283W        W21701  38.935   8.682   5.286
53284W        W21702  25.644  40.511  12.985
53285W        W21703   6.914  12.355  11.953
53286W        W21704  19.736  10.749  13.050
53287W        W21705  19.681  32.570   0.372
53288W        W21706  33.948  39.851   2.776
53289W        W21707  40.906  19.648  13.879
53290W        W21708  29.448   7.394   3.199
53291W        W21709   5.803  22.019   0.380
53292W        W21710   3.751   9.830  13.314
53293W        W21711  33.600  10.648  13.468
53294W        W21712   6.349  18.231   4.710
53295W        W21713  29.071  15.131   3.681
53296W        W21714  18.180  41.419  12.362
53297W        W21715  43.442  16.287  10.940
53298W        W21716  40.305  40.316   4.742
53299W        W21717   9.239  37.064  10.512
53300W        W21718  10.174  33.940   2.871
53301W        W21719   0.477  12.728  14.515
53302W        W21720   0.460   1.292  12.996
53303W        W21721  27.578  29.156  13.957
53304W        W21722  43.418  18.269   2.895
53305W        W21723  24.198  36.939  13.323
53306W        W21724   4.719  41.942   4.273
53307W        W21725  37.541  36.586  11.933
53308W        W21726   1.421  40.980  13.885
53309W        W21727   6.847  23.699   3.371
53310W        W21728  36.077   6.377   3.842
53311W        W21729  35.567  12.712  14.863
53312W        W21730  20.101  34.913  13.890
53313W        W21731  18.064  19.756  11.050
53314W        W21732  33.486  14.646   1.293
53315W        W21733   1.892  23.504  11.422
53316W        W21734  32.399  32.630  10.948
53317W        W21735  39.376   4.214   0.828
53318W        W21736  44.475  31.474   0.846
53319W        W21737  27.468   3.362   3.791
53320W        W21738  26.048  36.488  13.807
53321W        W21739  38.938  24.671  13.324
53322W        W21740  43.766  44.898   0.283
53323W        W21741  27.473  25.622   4.742
53324W        W21742  29.958  19.759  12.914
53325W        W21743  37.573  12.270   4.838
53326W        W21744  13.253  44.334  10.417
53327W        W21745  12.266  23.004   4.626
53328W        W21746   8.723  27.532  10.908
53329W        W21747  13.655  29.624  10.918
53330W        W21748  34.058  39.962   2.292
53331W        W21749  37.517   8.256   1.827
53332W        W21750  27.612  22.717  14.998
53333W        W21751  38.438  37.900   3.865
53334W        W21752   6.811  42.302   0.929
53335W        W21753  13.154  30.156   3.248
53336W        W21754  28.098   5.247  13.452
53337W        W21755  18.689  15.290  11.501
53338W        W21756  32.948  34.420  13.967
53339W        W21757   8.290  22.177   2.392
53340W        W21758  25.516  11.792   1.711
53341W        W21759  21.170  27.196   2.414
53342W        W21760  11.796  33.009   0.739
53343W        W21761  13.701  22.551   4.346
53344W        W21762  17.568  40.970  10.447
53345W        W21763   9.310  31.458   1.302
53346W        W21764   5.308  31.484   0.917
53347W        W21765   0.422  36.359   0.454
53348W        W21766  38.526  41.931   0.252
53349W        W21767   5.751   7.224  11.974
53350W        W21768  14.610  40.845  14.498
53351W        W21769  16.789  20.532   0.431
53352W        W21770  33.983  16.597   4.720
53353W        W21771  17.227  23.593  10.409
53354W        W21772  10.842  30.989   4.172
53355W        W21773  22.228  29.594  14.004
53356W        W21774  29.043  37.388   2.316
53357W        W21775   7.292  44.946  11.550
53358W        W21776  31.642  23.203  11.573
53359W        W21777   1.772  20.652  11.998
53360W        W21778  20.657   3.914  14.004
53361W        W21779   1.914  32.537  14.502
53362W        W21780  44.925  13.197  10.499
53363W        W21781  40.835  29.981  12.391
53364W        W21782  36.923  20.568  10.901
53365W        W21783  37.521   8.735   0.937
53366W        W21784  14.658  31.010   1.934
53367W        W21785  12.138   2.239   4.798
53368W        W21786  22.018   1.848   4.280
53369W        W21787  43.324  12.730  10.957
53370W        W21788  26.584   8.704   5.803
53371W        W21789  41.818  16.774   0.785
53372W        W21790   4.853  24.574   1.257
53373W        W21791  20.200  23.203  13.822
53374W        W21792  43.275  26.527  10.989
53375W        W21793   5.853  24.161   4.818
53376W        W21794  15.662   0.867   1.705
53377W        W21795  28.098  34.520  11.058
53378W        W21796  43.000  35.957  11.996
53379W        W21797  44.822  24.523   4.159
53380W        W21798  39.552   3.255  11.485
53381W        W21799   8.312   2.406  13.356
53382W        W21800  27.980  18.170  10.551
53383W        W21801  44.481  34.412   2.205
53384W        W21802  40.964  10.353  14.906
53385W        W21803  26.165   0.876   0.478
53386W        W21804  36.413  10.374   1.736
53387W        W21805   8.826  39.508  14.018
53388W        W21806  41.414  14.593   0.802
53389W        W21807   6.843  36.044   3.148
53390W        W21808   9.329   9.195   3.675
53391W        W21809  18.781   0.253  14.834
53392W        W21810  21.679  26.174  13.963
53393W        W21811   0.947  34.371   2.874
53394W        W21812  43.278  18.098  13.953
53395W        W21813  31.951  35.514   1.326
53396W        W21814   1.939  15.716  14.926
53397W        W21815   5.365  37.439  12.564
53398W        W21816  30.011  14.237  10.424
53399W        W21817  34.906  12.615   3.824
53400W        W21818  43.465  30.581  13.368
53401W        W21819  13.324  12.721   1.744
53402W        W21820  38.385  22.996  13.524
53403W        W21821  10.860  21.110  12.345
53404W        W21822  41.791  22.628   1.805
53405W        W21823   3.751  38.364   0.340
53406W        W21824   0.311  21.065   0.398
53407W        W21825  39.832  41.896  10.934
53408W        W21826  13.682  39.485   1.211
53409W        W21827  10.312  28.972   4.781
53410W        W21828  34.866   4.278   4.345
53411W        W21829  42.368  12.133   0.919
53412W        W21830  22.681  34.535  13.541
53413W        W21831  39.045   7.217   4.242
53414W        W21832   7.885  37.052   2.846
53415W        W21833  29.053  21.703   0.735
53416W        W21834  44.375   2.326  12.880
53417W        W21835   3.794   2.867   0.783
53418W        W21836  39.979  43.878  11.092
53419W        W21837   2.868  20.196   5.731
53420W        W21838  16.618  35.549   2.831
53421W        W21839  32.946  22.585  12.985
53422W        W21840  44.006   8.211   0.343
53423W        W21841  38.396  31.622   0.466
53424W        W21842  36.393   4.774   0.348
53425W        W21843  38.467  37.054   0.326
53426W        W21844  28.584  26.576   3.679
53427W        W21845  14.608  34.002   0.946
53428W        W21846  13.296  31.501  13.425
53429W        W21847  21.092  43.859   2.810
53430W        W21848  23.077  37.566  13.506
53431W        W21849  43.930   3.944   0.470
53432W        W21850  32.546  42.839  14.367
53433W        W21851   4.415  34.887  11.542
53434W        W21852  17.688   8.821  11.911
53435W        W21853  34.051  26.583  12.006
53436W        W21854  32.453  39.905  12.982
53437W        W21855  19.634  37.056   0.426
53438W        W21856  14.797   4.204  10.094
53439W        W21857   0.811  35.527   3.632
53440W        W21858  32.919  26.142  14.997
53441W        W21859  18.208  18.673   1.808
53442W        W21860  18.066   2.846  11.936
53443W        W21861  42.864  18.559   4.186
53444W        W21862  27.611  39.925  14.368
53445W        W21863  11.247   1.951   2.337
53446W        W21864  27.604  40.009  13.818
53447W        W21865  16.250  27.538  12.015
53448W        W21866  11.257   7.405  12.512
53449W        W21867   8.744  21.061  13.046
53450W        W21868   9.317   0.763   3.796
53451W        W21869  29.462  39.320   3.270
53452W        W21870  41.398  40.029  11.889
53453W        W21871   4.319  19.048   2.366
53454W        W21872   5.700  42.005  14.495
53455W        W21873   8.363  13.187   3.646
53456W        W21874  28.550  40.867   3.232
53457W        W21875   2.402  33.001  14.395
53458W        W21876  19.748  10.326  12.529
53459W        W21877   6.305  25.140  13.488
53460W        W21878  20.031  31.481  10.587
53461W        W21879  37.478   8.284   4.761
53462W        W21880  30.556   4.710   3.766
53463W        W21881  13.605   3.837  12.498
53464W        W21882   6.765  37.037  12.891
53465W        W21883  18.286  22.578   1.433
53466W        W21884  40.957  19.247  11.936
53467W        W21885  43.960   4.796   1.917
53468W        W21886  13.780   6.907  14.909
53469W        W21887  19.120  23.153   0.848
53470W        W21888  26.093  24.638   2.897
53471W        W21889   9.304  41.987   3.735
53472W        W21890  20.115  36.370   3.733
53473W        W21891  38.946   7.665  14.811
53474W        W21892  42.373  29.595  13.387
53475W        W21893  24.154   1.919  10.577
53476W        W21894  14.233  27.114   3.801
53477W        W21895  35.917  15.632   4.687
53478W        W21896  13.641  26.687   2.724
53479W        W21897   0.949   5.315  11.964
53480W        W21898  38.883  21.599   1.259
53481W        W21899   5.365  30.981   2.236
53482W        W21900  37.999  17.669  11.033
53483W        W21901  21.224  25.071   2.806
53484W        W21902  25.134  24.679  11.610
53485W        W21903  27.499  14.158   0.278
53486W        W21904  35.879  20.122   4.665
53487W        W21905  29.581   8.785  11.113
53488W        W21906  25.605  44.996  12.436
53489W        W21907  30.998  24.976  14.935
53490W        W21908  20.145   1.424   2.879
53491W        W21909  23.586  33.101   1.434
53492W        W21910   0.807  12.703   4.649
53493W        W21911  16.775  13.670   2.418
53494W        W21912   7.361  23.517  13.959
53495W        W21913  15.232  31.538  14.929
53496W        W21914  39.551  13.783  10.617
53497W        W21915  10.873  18.167   3.845
53498W        W21916  25.168  40.964  11.475
53499W        W21917  19.072  22.690   2.899
53500W        W21918  32.991  37.043   0.461
53501W        W21919  43.800  10.718  13.526
53502W        W21920  43.808  31.048   1.428
53503W        W21921   9.362  41.887   1.427
53504W        W21922   3.370  42.329  14.903
53505W        W21923  11.312  44.313  10.920
53506W        W21924  17.612  28.645   4.154
53507W        W21925  19.697  29.171   4.319
53508W        W21926  10.162  41.461   1.881
53509W        W21927   1.287  34.458  10.423
53510W        W21928  22.648  42.878  10.610
53511W        W21929  14.720  32.573   0.785
53512W        W21930  32.620  41.359   3.715
53513W        W21931  44.777   7.263  11.075
53514W        W21932  42.908  14.313  11.540
53515W        W21933  38.397  44.489  14.795
53516W        W21934  35.458  39.414   0.291
53517W        W21935  37.401  35.070  12.440
53518W        W21936  15.700  25.105   1.736
53519W        W21937  10.875  16.078  10.483
53520W        W21938   9.742  33.984   3.358
53521W        W21939   9.657  28.110  12.380
53522W        W21940   0.824  23.490   0.400
53523W        W21941  38.997  33.969  14.364
53524W        W21942   2.840   8.772  10.557
53525W        W21943  33.563   5.865   0.476
53526W        W21944  10.808  16.623  11.384
53527W        W21945  14.338  15.239   1.349
53528W        W21946  36.437  27.540  14.275
53529W        W21947   2.960   0.355   2.215
53530W        W21948   4.832   4.906  11.976
53531W        W21949  26.959  33.564   3.758
53532W        W21950  34.993   7.359   1.291
53533W        W21951   3.270   5.420  14.011
53534W        W21952  25.141   2.920  13.330
53535W        W21953   5.198   2.803  13.342
53536W        W21954  44.961   6.370  10.978
53537W        W21955  31.642  16.204  11.552
53538W        W21956  10.329  25.067  11.562
53539W        W21957  33.045   2.462   4.711
53540W        W21958  44.278  31.951  13.862
53541W        W21959  10.827   0.843  14.878
53542W        W21960  21.228  19.042   5.087
53543W        W21961  31.493   2.963  14.486
53544W        W21962  24.076   0.767   2.695
53545W        W21963  26.599  18.085  14.802
53546W        W21964  40.983  13.278   4.327
53547W        W21965  32.012  10.869  11.017
53548W        W21966  18.156  33.006   2.674
53549W        W21967  12.768  23.579  14.281
53550W        W21968  42.964   7.669  12.561
53551W        W21969   8.335  25.566  11.078
53552W        W21970  34.515  19.241  10.465
53553W        W21971  30.955  32.118   0.737
53554W        W21972  17.667  38.933   1.308
53555W        W21973  37.481  28.566   4.289
53556W        W21974  36.998  12.277  13.012
53557W        W21975  42.875   1.807  13.458
53558W        W21976  44.917  25.013  13.889
53559W        W21977   4.439  11.362   2.382
53560W        W21978   8.170   3.423   0.903
53561W        W21979   2.246   4.723   0.327
53562W        W21980   7.898  22.156   2.700
53563W        W21981  31.956  36.871  14.305
53564W        W21982  36.098  24.054  11.521
53565W        W21983  26.484  27.165  11.927
53566W        W21984  18.782  24.054  10.562
53567W        W21985   3.306  30.646   3.860
53568W        W21986  42.789  20.548   2.896
53569W        W21987  40.348  42.367  12.533
53570W        W21988   5.815  23.502   0.470
53571W        W21989  39.367   6.373   1.282
53572W        W21990  16.680  14.145  14.775
53573W        W21991  44.764   7.396   3.283
53574W        W21992  42.403  38.348  14.884
53575W        W21993  20.601  38.452   2.371
53576W        W21994   9.778  43.889  11.912
53577W        W21995  25.124  32.904  13.052
53578W        W21996  30.654   3.219   2.842
53579W        W21997  22.053  13.116  12.828
53580W        W21998  30.575  16.616   0.438
53581W        W21999  15.263  41.926   1.364
53582W        W22000  29.978  19.570  11.858
53583W        W22001  43.316  42.964   4.163
53584W        W22002  14.295   4.242  10.155
53585W        W22003  15.174  28.011  13.856
53586W        W22004  12.855  18.570  13.927
53587W        W22005  36.068   5.201  11.020
53588W        W22006  27.093  38.456  14.851
53589W        W22007  36.508  14.740   3.715
53590W        W22008  29.578  19.170  13.522
53591W        W22009  23.622  17.187   1.315
53592W        W22010  33.553  12.135  11.886
53593W        W22011  21.179  17.567  10.616
53594W        W22012  35.940  13.834   2.720
53595W        W22013  19.763   4.717  11.060
53596W        W22014  17.114  36.000   2.199
53597W        W22015  23.697  17.710   4.664
53598W        W22016  11.304   2.466  11.993
53599W        W22017   5.737  34.447  13.037
53600W        W22018  23.196   9.731   1.754
53601W        W22019  22.069  31.616  11.127
53602W        W22020  36.383  26.181  10.614
53603W        W22021  18.655  40.453  10.608
53604W        W22022  23.992  17.090  13.998
53605W        W22023  10.345  27.477   4.659
53606W        W22024  13.206  29.074  13.944
53607W        W22025  12.716  27.520  14.003
53608W        W22026  32.087   7.681  13.408
53609W        W22027  22.125  21.157   4.217
53610W        W22028  41.034  13.141  11.530
53611W        W22029  10.822  25.202   2.319
53612W        W22030   5.388  35.453   3.263
53613W        W22031  44.501  26.047  10.052
53614W        W22032   6.725  38.343   1.761
53615W        W22033  18.130   9.666  14.909
53616W        W22034  38.040  21.531  14.454
53617W        W22035  22.645  20.141  12.361
53618W        W22036  37.962  26.023  14.467
53619W        W22037   1.368  21.739  13.011
53620W        W22038  30.973  28.507   4.225
53621W        W22039   3.917   9.258  12.413
53622W        W22040   7.682   3.237  13.312
53623W        W22041  15.739  44.360  14.829
53624W        W22042  24.698  19.678  11.050
53625W        W22043  35.379  27.662  10.927
53626W        W22044   9.656  23.582  14.874
53627W        W22045  15.111   8.316   3.636
53628W        W22046   0.307  22.021   5.201
53629W        W22047  27.630   7.879  13.398
53630W        W22048  37.976  24.021   4.164
53631W        W22049   2.398  27.142  13.963
53632W        W22050  29.458  17.065   0.923
53633W        W22051  30.431   6.692   2.294
53634W        W22052  14.177   2.795  14.759
53635W        W22053   1.303  27.591  10.425
53636W        W22054  20.212   3.409   0.886
53637W        W22055  32.474   5.285  12.890
53638W        W22056  31.036   5.708   2.182
53639W        W22057  32.941  33.887  14.398
53640W        W22058  40.348  34.011  12.977
53641W        W22059  35.555  31.128   4.157
53642W        W22060  40.021  14.103  10.545
53643W        W22061   2.925  29.972  10.469
53644W        W22062  28.107  44.322   0.743
53645W        W22063  13.327  44.916   0.268
53646W        W22064   3.458   4.219   0.359
53647W        W22065   3.714  21.549   2.887
53648W        W22066  31.635  36.508   3.669
53649W        W22067  42.293   3.720  13.952
53650W        W22068  15.795  25.534   1.276
53651W        W22069  30.131  43.937  12.531
53652W        W22070  14.756  41.335   0.727
53653W        W22071  37.897  13.724  14.915
53654W        W22072   8.274  43.465  12.985
53655W        W22073   5.288  13.250  14.314
53656W        W22074  27.980  14.300   3.651
53657W        W22075   2.332  14.756  11.964
53658W        W22076  43.019   8.749   1.292
53659W        W22077  11.281  14.111  11.892
53660W        W22078  36.883  23.171   4.160
53661W        W22079   1.403  33.896  10.940
53662W        W22080  42.794  31.994   1.282
53663W        W22081  18.191  43.853   1.364
53664W        W22082   0.254   9.751  13.940
53665W        W22083  43.995  33.876  14.304
53666W        W22084  39.986  14.794   4.239
53667W        W22085  33.567  34.575   5.264
53668W        W22086  16.705  18.209  14.333
53669W        W22087  28.587   1.252   3.761
53670W        W22088  12.334  11.265   0.435
53671W        W22089  27.451  41.026  14.451
53672W        W22090   9.152  26.583  14.989
53673W        W22091  23.655  34.063   0.475
53674W        W22092   0.952   4.789  11.862
53675W        W22093  23.059  43.814  10.985
53676W        W22094  21.152  40.884   3.712
53677W        W22095  16.730  13.173   4.701
53678W        W22096   3.298   9.183  12.093
53679W        W22097  28.965  21.167   2.192
53680W        W22098  38.466  29.627   4.271
53681W        W22099  39.370  28.503   0.402
53682W        W22100  20.734  31.589   4.189
53683W        W22101  36.932  15.253  14.808
53684W        W22102   4.883  19.180   0.782
53685W        W22103  34.919  32.100  11.860
53686W        W22104  39.015   3.454  11.967
53687W        W22105  39.848  15.642  11.040
53688W        W22106   3.709  19.199  10.554
53689W        W22107   8.802  37.378  12.404
53690W        W22108   5.353   9.865  11.497
53691W        W22109  30.164  17.064   1.818
53692W        W22110  22.203  18.746   1.736
53693W        W22111  20.639  19.606  14.478
53694W        W22112  33.132  17.620   3.692
53695W        W22113  18.054  40.843   3.692
53696W        W22114   2.877  41.319   3.215
53697W        W22115   7.356   8.322   2.738
53698W        W22116  19.045  41.019  12.576
53699W        W22117  30.460  24.625   2.799
53700W        W22118  28.633  26.504   9.953
53701W        W22119   5.913   3.243  13.362
53702W        W22120  41.800  30.105   3.225
53703W        W22121  26.993  39.909  14.839
53704W        W22122   9.797  18.552  13.391
53705W        W22123  23.697  26.493   1.735
53706W        W22124  13.722   9.170  14.808
53707W        W22125  10.324   4.413   3.254
53708W        W22126  29.494  24.022  12.980
53709W        W22127   8.287   6.253  12.056
53710W        W22128  27.006   7.787   0.289
53711W        W22129  18.678  15.700   3.750
53712W        W22130  17.083  31.062  11.876
53713W        W22131  35.022  43.396  12.040
53714W        W22132  33.910  22.059   0.900
53715W        W22133   9.361  34.065  11.964
53716W        W22134  22.693   9.861  14.764
53717W        W22135  19.108  31.034  12.401
53718W        W22136   4.378  27.678   2.750
53719W        W22137  43.012  40.490   4.632
53720W        W22138  32.028  26.024  13.809
53721W        W22139  43.312  19.040  14.984
53722W        W22140  36.883   9.709   0.871
53723W        W22141  21.718  26.173   1.812
53724W        W22142  38.392  44.503  11.493
53725W        W22143   9.867  32.482   2.223
53726W        W22144  21.545  36.991   2.868
53727W        W22145   2.296   3.371  13.389
53728W        W22146  10.868  12.730  14.282
53729W        W22147  18.201  19.127  14.354
53730W        W22148  14.647   7.244   0.394
53731W        W22149  41.887  43.772   1.788
53732W        W22150  22.091  10.150   1.832
53733W        W22151  27.038   3.722  10.951
53734W        W22152  43.009  21.725   2.387
53735W        W22153   9.246  25.640   4.654
53736W        W22154  38.466  44.866  12.930
53737W        W22155  39.497   4.805  13.953
53738W        W22156   0.945  12.131  11.912
53739W        W22157  31.519  22.112  13.392
53740W        W22158  18.568  10.173   1.771
53741W        W22159  36.876  12.733   1.358
53742W        W22160   0.451  26.672   4.169
53743W        W22161  23.557  11.857   3.664
53744W        W22162  21.237  26.594   0.437
53745W        W22163   0.792  36.009   4.242
53746W        W22164   3.266  25.666   5.182
53747W        W22165  40.824  18.159  14.997
53748W        W22166  37.520  28.667   1.399
53749W        W22167  28.057  12.633  10.111
53750W        W22168  12.694   0.252  12.533
53751W        W22169   6.783  11.699   4.156
53752W        W22170  16.249   8.296   3.247
53753W        W22171  22.538  27.598  14.512
53754W        W22172  26.198  38.885   0.462
53755W        W22173   3.406  20.142   3.824
53756W        W22174   3.837  23.619  14.323
53757W        W22175  41.383  19.046  11.885
53758W        W22176   2.884   1.805   1.350
53759W        W22177  44.854   0.887  14.457
53760W        W22178  25.058   2.456   1.341
53761W        W22179  37.374   5.903  12.520
53762W        W22180  18.193  38.860  12.419
53763W        W22181  19.150   7.672  12.464
53764W        W22182   4.280   6.706  11.915
53765W        W22183  28.455  40.021  14.876
53766W        W22184  30.079  11.241   1.824
53767W        W22185  25.054  25.602   3.159
53768W        W22186   0.463  14.780  10.593
53769W        W22187  28.507   0.450  13.331
53770W        W22188  39.948  44.352  11.054
53771W        W22189   9.364  20.041  14.356
53772W        W22190   0.797  39.544  14.984
53773W        W22191  41.004  44.773   1.370
53774W        W22192  36.494  22.225   1.242
53775W        W22193  16.778   1.812  10.542
53776W        W22194   9.840  13.282   4.248
53777W        W22195   1.262  15.664  14.010
53778W        W22196  44.004  13.691  11.969
53779W        W22197  38.828  31.460  11.510
53780W        W22198  32.464  21.172  12.851
53781W        W22199  35.526  36.445  10.636
53782W        W22200  36.395   9.823   4.335
53783W        W22201   8.229  15.623  11.506
53784W        W22202   7.859  15.245   0.314
53785W        W22203  32.596   2.464  11.022
53786W        W22204  13.332  36.000   3.849
53787W        W22205   0.321  26.497   3.173
53788W        W22206   9.857  26.603  14.815
53789W        W22207  10.814  33.077   3.216
53790W        W22208  19.639  20.574  14.935
53791W        W22209  43.980   0.752   0.821
53792W        W22210  25.124  10.694   3.775
53793W        W22211  24.597  43.966  10.529
53794W        W22212  13.740  14.253   3.693
53795W        W22213   2.275  43.272  13.938
53796W        W22214  29.122   6.218   0.477
53797W        W22215  26.627  31.609  11.389
53798W        W22216  26.558   0.315  14.495
53799W        W22217  28.553  26.660  10.617
53800W        W22218   5.377  38.927   4.288
53801W        W22219  38.530  17.732   3.346
53802W        W22220  35.057  23.668   1.211
53803W        W22221  19.180  18.262  14.848
53804W        W22222  19.071  25.482   2.893
53805W        W22223  41.886   6.403   1.717
53806W        W22224  42.438  21.705   0.451
53807W        W22225  36.937  14.096   2.795
53808W        W22226  22.672   7.813  12.519
53809W        W22227   5.223  27.523  11.120
53810W        W22228  27.019  12.269   1.451
53811W        W22229   0.814  37.566   0.302
53812W        W22230  33.892  27.657   4.619
53813W        W22231  43.343  21.029   2.358
53814W        W22232  15.176   0.359   4.731
53815W        W22233  42.384  36.893   1.409
53816W        W22234   6.772   5.893  14.955
53817W        W22235  25.620  13.656  11.905
53818W        W22236  41.862  22.596  13.440
53819W        W22237  43.846  30.588   0.892
53820W        W22238  17.775  39.933   0.253
53821W        W22239   0.956  17.717   1.356
53822W        W22240  17.269  32.128  10.641
53823W        W22241  19.050  28.665  12.500
53824W        W22242  11.225  29.459   4.817
53825W        W22243  37.538  32.080  10.032
53826W        W22244  42.929  16.090   0.761
53827W        W22245  44.474   8.821   3.290
53828W        W22246  29.433   7.747  13.977
53829W        W22247   4.862  41.377   3.356
53830W        W22248  31.933   6.785  12.414
53831W        W22249  26.116  14.693   4.179
53832W        W22250  30.501  30.081  12.825
53833W        W22251  36.935  44.932   2.371
53834W        W22252  31.936   6.855  14.834
53835W        W22253  18.738  31.556  10.609
53836W        W22254  21.193  22.185   2.692
53837W        W22255  22.509  20.612  13.046
53838W        W22256  10.670  17.797  13.326
53839W        W22257  16.721  40.000  13.959
53840W        W22258  20.037  11.170   4.252
53841W        W22259   0.896  16.256   4.689
53842W        W22260  32.113   0.868  13.424
53843W        W22261   5.805  35.092  11.107
53844W        W22262  23.628  16.670  13.025
53845W        W22263  16.083  39.403  13.944
53846W        W22264   9.762  20.229   1.217
53847W        W22265  40.446  21.183  10.960
53848W        W22266  25.624  22.670   0.866
53849W        W22267  42.985  32.611   0.403
53850W        W22268  19.216  37.903  11.411
53851W        W22269  22.548   1.269   0.395
53852W        W22270  43.952  27.478  14.862
53853W        W22271   0.903  28.551  13.421
53854W        W22272  15.241  19.741   0.267
53855W        W22273  28.143  28.054   4.327
53856W        W22274  24.981  16.809  13.341
53857W        W22275  39.419  21.589  11.377
53858W        W22276  19.254   8.237   1.835
53859W        W22277   0.907  10.677  10.628
53860W        W22278  10.359  30.093   9.980
53861W        W22279  36.520   2.728   2.242
53862W        W22280  36.021  38.516  13.825
53863W        W22281   1.444  40.547   2.306
53864W        W22282  41.517  19.554   0.843
53865W        W22283  35.030  27.655  12.019
53866W        W22284  41.880  33.508   5.251
53867W        W22285  22.739  16.115   1.246
53868W        W22286  31.442   1.414  13.354
53869W        W22287  44.762  33.876  14.811
53870W        W22288  28.580  20.631  11.074
53871W        W22289  20.608   4.261   3.682
53872W        W22290   1.405  32.034  12.934
53873W        W22291  23.141  32.617  12.947
53874W        W22292  16.682  42.947   3.798
53875W        W22293  33.432  15.296  11.541
53876W        W22294   4.370  34.506  12.388
53877W        W22295  39.474  31.038   1.210
53878W        W22296  15.682  11.707   5.227
53879W        W22297  30.956  29.660   1.700
53880W        W22298  18.245  22.031  13.818
53881W        W22299  14.131  30.420  11.457
53882W        W22300  20.092  31.121  11.401
53883W        W22301  16.289  27.664   0.299
53884W        W22302  32.631  27.159   2.299
53885W        W22303  22.537  22.166   2.287
53886W        W22304  19.064  26.602  12.046
53887W        W22305  23.680   8.250   3.163
53888W        W22306  40.902  29.040  12.377
53889W        W22307  22.113  34.375  12.916
53890W        W22308  24.671  10.878  12.554
53891W        W22309  31.146  12.848  14.800
53892W        W22310  27.469  25.700   0.257
53893W        W22311  17.684  15.302   4.759
53894W        W22312  33.595  37.851  12.535
53895W        W22313  12.725  31.908  11.106
53896W        W22314  35.484  22.722   0.362
53897W        W22315  43.896   7.765   1.844
53898W        W22316  39.499  16.570   4.261
53899W        W22317  17.132   0.342   2.198
53900W        W22318  39.952  21.729   0.374
53901W        W22319  19.280  11.257   0.910
53902W        W22320  21.649  41.879  11.501
53903W        W22321  24.984  22.681   1.233
53904W        W22322  18.626  38.850   4.719
53905W        W22323  11.667  44.977   0.734
53906W        W22324  38.905  13.639  14.437
53907W        W22325  19.136  44.933   3.190
53908W        W22326  17.254  10.342  14.488
53909W        W22327  12.341  25.512   2.685
53910W        W22328   8.364  28.978  11.029
53911W        W22329  27.580   6.242  11.044
53912W        W22330   2.227  42.989   3.673
53913W        W22331  24.135  39.399   5.321
53914W        W22332  31.134  10.636  12.377
53915W        W22333  41.837   9.338  10.972
53916W        W22334  38.515  43.516   4.710
53917W        W22335  31.076  10.256   1.221
53918W        W22336  10.214  16.267   3.152
53919W        W22337   1.888  17.082   2.373
53920W        W22338  43.767   0.492  10.619
53921W        W22339   1.759  39.914  14.508
53922W        W22340   9.296  28.652   2.796
53923W        W22341  11.149  41.882   0.916
53924W        W22342  30.646  11.739  13.991
53925W        W22343  44.417  13.652   2.754
53926W        W22344   3.421  40.881   1.430
53927W        W22345   6.265  24.678  12.840
53928W        W22346  42.906  20.632   5.194
53929W        W22347  25.115   8.889   4.158
53930W        W22348  12.795  31.501   2.198
53931W        W22349  43.768  28.041  11.451
53932W        W22350  13.271  40.476   1.760
53933W        W22351  24.069  44.464   1.356
53934W        W22352   2.226   4.774   2.858
53935W        W22353  34.962  12.293  10.417
53936W        W22354  17.096  38.923   0.415
53937W        W22355   8.882  24.988  14.908
53938W        W22356  32.635  21.070  10.487
53939W        W22357   0.751  22.551  13.964
53940W        W22358   7.675  41.008   4.699
53941W        W22359  18.662  34.426   2.288
53942W        W22360  38.409  40.925  14.354
53943W        W22361  11.842  42.369   2.663
53944W        W22362  34.069  33.931  14.334
53945W        W22363  35.950   2.849  13.791
53946W        W22364  34.120  20.100   0.249
53947W        W22365   4.862  15.637  12.473
53948W        W22366  44.352  13.151   9.512
53949W        W22367   6.733   4.749   4.663
53950W        W22368  24.597  26.620   5.254
53951W        W22369  40.874  39.393   4.781
53952W        W22370  43.903  17.100   2.713
53953W        W22371  29.565   5.792  12.862
53954W        W22372   4.805  35.471  12.494
53955W        W22373  35.368  12.325  12.975
53956W        W22374  40.373   3.266  14.400
53957W        W22375   6.367  32.936   3.714
53958W        W22376   0.918   6.230  10.420
53959W        W22377  12.610  34.568   2.830
53960W        W22378  19.164  26.206   9.581
53961W        W22379  24.626   4.737  12.040
53962W        W22380   4.802  31.045  13.038
53963W        W22381  41.294  22.663  13.915
53964W        W22382  38.484   7.695  13.831
53965W        W22383  16.300  25.049  10.995
53966W        W22384  22.234  34.550  11.599
53967W        W22385  19.186   6.876  11.902
53968W        W22386  32.955  44.366  14.791
53969W        W22387   3.736  26.188  14.292
53970W        W22388  11.693  35.471  14.969
53971W        W22389  28.555  40.839   1.451
53972W        W22390  22.732  13.181  12.021
53973W        W22391  41.366  16.279  14.499
53974W        W22392   7.227  26.077  12.394
53975W        W22393  17.760  37.462   0.900
53976W        W22394  32.078  24.209  10.447
53977W        W22395  10.377  12.785  12.425
53978W        W22396  17.126   7.194   2.396
53979W        W22397   0.297  27.150  12.543
53980W        W22398  33.065  41.916  12.431
53981W        W22399  13.645  29.528  10.554
53982W        W22400  17.740   3.405   0.357
53983W        W22401  20.033  28.181  11.490
53984W        W22402  25.708  10.291   0.822
53985W        W22403  30.495  19.089   3.703
53986W        W22404  29.610  16.629  14.003
53987W        W22405  33.418  28.022   3.280
53988W        W22406   8.785  29.990   2.223
53989W        W22407   2.339  32.925   4.180
53990W        W22408   0.905   0.882  14.456
53991W        W22409  24.668  24.551   0.244
53992W        W22410  34.547  15.590   3.751
53993W        W22411  13.674  30.136   3.290
53994W        W22412  13.267  43.841  10.906
53995W        W22413  36.580  30.091  14.846
53996W        W22414  10.205  26.113  11.080
53997W        W22415   2.377  41.999   0.434
53998W        W22416  32.391   6.297   0.441
53999W        W22417  38.896  22.664   1.934
54000W        W22418  12.214  14.831   4.760
54001W        W22419  42.442  41.482   3.252
54002W        W22420  12.265  20.070  11.008
54003W        W22421   6.384  27.528   4.803
54004W        W22422  31.540  15.636  12.352
54005W        W22423   2.282  30.651  12.507
54006W        W22424   0.804  31.477  14.507
54007W        W22425  37.352  14.618   4.757
54008W        W22426  40.410  25.474  14.988
54009W        W22427   3.829  40.927  12.538
54010W        W22428   2.967  14.093  14.916
54011W        W22429   0.409  28.128   3.736
54012W        W22430   2.399   7.281  10.091
54013W        W22431  40.488  25.020   5.313
54014W        W22432  26.646   3.923   3.751
54015W        W22433   7.849  40.830  10.451
54016W        W22434  21.578   0.302  11.451
54017W        W22435  17.165  23.530  12.010
54018W        W22436  17.163  24.535   1.698
54019W        W22437   2.744  15.726   1.820
54020W        W22438  43.282   0.400  11.414
54021W        W22439  19.084  19.764  13.328
54022W        W22440  35.018  28.940  11.871
54023W        W22441   4.264  15.761   4.772
54024W        W22442  39.377  43.017  14.477
54025W        W22443   8.782  42.906  13.362
54026W        W22444  39.056  15.671   0.271
54027W        W22445  31.077  29.629  11.454
54028W        W22446  19.655  10.206   4.749
54029W        W22447  34.591  39.860   4.151
54030W        W22448   3.757  24.036  10.419
54031W        W22449  32.948  32.454  10.534
54032W        W22450  35.944  13.827  13.823
54033W        W22451   5.411   2.367   3.755
54034W        W22452  17.624  27.132   3.869
54035W        W22453  20.247  42.514  13.920
54036W        W22454  16.696  12.265   4.810
54037W        W22455   7.195  36.059   2.211
54038W        W22456  31.433  22.113   2.712
54039W        W22457  37.949  10.838  14.466
54040W        W22458  16.121  18.224  13.422
54041W        W22459  35.982  44.462  10.928
54042W        W22460  10.754  43.509  11.538
54043W        W22461  37.938  29.949   3.797
54044W        W22462  25.989  40.969   0.466
54045W        W22463  38.361  35.040  14.783
54046W        W22464  18.614  28.967   3.204
54047W        W22465   3.831   8.717  13.398
54048W        W22466  29.522  30.458  11.955
54049W        W22467  35.045  12.344  11.022
54050W        W22468  13.169  20.629  11.026
54051W        W22469  13.189   4.204  11.426
54052W        W22470   2.957  33.965  13.414
54053W        W22471   1.350   7.859   4.177
54054W        W22472  15.092   9.723  13.494
54055W        W22473   7.892   8.380  11.517
54056W        W22474  30.065   2.424   3.858
54057W        W22475  14.127  42.392   4.742
54058W        W22476   2.470  11.200   3.642
54059W        W22477  30.427  42.408  14.305
54060W        W22478  21.099   2.290   5.176
54061W        W22479  35.968  32.008   0.822
54062W        W22480  36.524  18.662   4.735
54063W        W22481  23.163  39.417  12.438
54064W        W22482  30.981  34.564   2.268
54065W        W22483  10.319  40.485   0.858
54066W        W22484  16.192  20.587   2.896
54067W        W22485  25.646  38.952  14.343
54068W        W22486  16.807   4.280   3.331
54069W        W22487  29.425  28.007  12.912
54070W        W22488  14.701   2.408  11.570
54071W        W22489  39.017  17.601   3.258
54072W        W22490   8.299   7.352   2.255
54073W        W22491  22.135  44.378   2.805
54074W        W22492  10.707  31.019   0.897
54075W        W22493  44.774  11.265   3.794
54076W        W22494  10.322  24.143   2.834
54077W        W22495  24.155  19.568   5.183
54078W        W22496  14.117   9.369   4.729
54079W        W22497  20.746  43.353   3.260
54080W        W22498  28.975  23.078  14.989
54081W        W22499  20.196  31.484  11.604
54082W        W22500  13.215   7.796   0.353
54083W        W22501  25.473   0.279  12.932
54084W        W22502   6.393  28.040   4.735
54085W        W22503  36.926  41.506  14.477
54086W        W22504  17.763  28.994   1.894
54087W        W22505  10.284  32.008  14.454
54088W        W22506  29.492  17.563  11.450
54089W        W22507  13.611  15.810   2.227
54090W        W22508  31.124   6.247   1.794
54091W        W22509  41.986   7.328  11.408
54092W        W22510  40.545  33.970   4.680
54093W        W22511  31.011  38.861   4.347
54094W        W22512   8.318  40.942  12.395
54095W        W22513  20.155  38.373   3.238
54096W        W22514  42.490  43.379   2.387
54097W        W22515  34.938  30.149   3.650
54098W        W22516  41.468  11.163   4.715
54099W        W22517  30.597  28.584   4.797
54100W        W22518  18.678  23.159  13.395
54101W        W22519  14.732  31.612   0.760
54102W        W22520   5.738   8.784  12.931
54103W        W22521  39.820  43.474   3.331
54104W        W22522   0.461   9.755   0.939
54105W        W22523  37.079   1.857   2.387
54106W        W22524   8.854   0.389   4.350
54107W        W22525  41.983  31.634  12.863
54108W        W22526  42.916  29.151   0.362
54109W        W22527   0.853   4.433  14.773
54110W        W22528  43.506   5.930  10.626
54111W        W22529  36.954  31.571  11.431
54112W        W22530  34.473  33.501  13.486
54113W        W22531  17.648  40.040   3.710
54114W        W22532  15.131  20.582   2.899
54115W        W22533  10.850  41.030  11.016
54116W        W22534  14.833   5.306  13.003
54117W        W22535   8.669  28.500   3.326
54118W        W22536  32.023  39.014   4.707
54119W        W22537  37.465  31.033   4.226
54120W        W22538   6.226  26.694  11.472
54121W        W22539  14.678  38.027   3.244
54122W        W22540  39.479  20.687  12.429
54123W        W22541  21.535  17.152  12.566
54124W        W22542  38.500  19.570  12.839
54125W        W22543  15.116  28.555   3.286
54126W        W22544  21.107  23.628   5.280
54127W        W22545  39.922  39.020   2.775
54128W        W22546  15.164  12.792   0.264
54129W        W22547  32.533  38.542   4.779
54130W        W22548   5.291  16.660   3.183
54131W        W22549  34.605  16.618   2.850
54132W        W22550   9.834  17.285   3.304
54133W        W22551  40.337  11.670  10.957
54134W        W22552   6.745   6.200  14.840
54135W        W22553  41.950  39.339  15.000
54136W        W22554  20.584   3.291  12.930
54137W        W22555  11.866   9.690   4.200
54138W        W22556   3.427  13.622  11.415
54139W        W22557  15.786  22.044  11.458
54140W        W22558   7.670  36.373   0.333
54141W        W22559  35.370   8.231   3.765
54142W        W22560  17.581  20.164  12.087
54143W        W22561  36.494  35.002  13.511
54144W        W22562  19.585  34.913   2.199
54145W        W22563  17.800  32.510  11.969
54146W        W22564  31.946  27.672  14.910
54147W        W22565  34.997  44.977  11.455
54148W        W22566  36.398   3.296  14.899
54149W        W22567  32.030  12.702   9.983
54150W        W22568  34.042  29.572  10.952
54151W        W22569  34.391   4.244   4.683
54152W        W22570  43.776  18.184   1.922
54153W        W22571  18.728  16.722   3.733
54154W        W22572  34.466  32.011   2.680
54155W        W22573  20.588  34.075   4.765
54156W        W22574  41.345   4.226   2.236
54157W        W22575   1.879  38.032   3.689
54158W        W22576  27.529  42.448   1.708
54159W        W22577  27.148  14.124  14.857
54160W        W22578   4.390  19.118   1.733
54161W        W22579  36.891   2.758   0.409
54162W        W22580  20.237  28.944  12.045
54163W        W22581   5.329   0.855   2.229
54164W        W22582  13.778  19.120   1.415
54165W        W22583  12.745   7.175   0.274
54166W        W22584  30.982  29.660  14.296
54167W        W22585  37.382  20.683  10.535
54168W        W22586  44.482   1.743  12.960
54169W        W22587   6.231  29.604  14.766
54170W        W22588  39.484  37.858  12.854
54171W        W22589   7.268  15.616  12.954
54172W        W22590   1.897  31.035   2.385
54173W        W22591  21.589   6.416  11.411
54174W        W22592  42.480  11.642   1.396
54175W        W22593  32.427   3.295  14.023
54176W        W22594  36.521  24.134  14.380
54177W        W22595  39.856  24.223  11.547
54178W        W22596  40.847   8.686  13.936
54179W        W22597  20.065  27.186   9.514
54180W        W22598   7.255   7.898   0.861
54181W        W22599  36.588   3.785   0.912
54182W        W22600  40.381  15.189  12.564
54183W        W22601  41.841  42.356   4.170
54184W        W22602  30.959   9.796   1.896
54185W        W22603  21.105  38.066   0.481
54186W        W22604  42.479  11.854  10.066
54187W        W22605  30.505   0.309   3.671
54188W        W22606  16.671   3.746   1.321
54189W        W22607   5.821  18.772   3.181
54190W        W22608  12.751  10.848  12.972
54191W        W22609  39.369  20.183   0.774
54192W        W22610   1.350  27.952   3.761
54193W        W22611  35.389   3.397  14.825
54194W        W22612  42.475  42.344   2.788
54195W        W22613  32.523  10.354  13.451
54196W        W22614  16.738  30.966  12.567
54197W        W22615  42.433  14.327  10.024
54198W        W22616  13.190  41.457  14.821
54199W        W22617  39.926  43.434  12.932
54200W        W22618  29.481   4.328   3.813
54201W        W22619  37.919  17.793  11.479
54202W        W22620  30.978  17.722  12.435
54203W        W22621  34.962   8.844   4.810
54204W        W22622  11.737  27.016  13.048
54205W        W22623   4.425  37.050  13.325
54206W        W22624   8.790  10.204  12.540
54207W        W22625  14.143  25.153  11.998
54208W        W22626   9.746  20.711   1.816
54209W        W22627  40.878  13.654  11.523
54210W        W22628  41.434  37.950  14.986
54211W        W22629  19.624  37.052  11.458
54212W        W22630  34.978   8.663  11.474
54213W        W22631  21.678  33.565   4.643
54214W        W22632  40.954  21.155   2.858
54215W        W22633  42.023  40.860   2.400
54216W        W22634  30.124   4.435   0.932
54217W        W22635  23.577  13.725  12.964
54218W        W22636  13.310  11.631  10.561
54219W        W22637  28.931   0.762  10.964
54220W        W22638   4.717  30.458   4.644
54221W        W22639  30.067  43.464  11.033
54222W        W22640   3.802  36.373  14.297
54223W        W22641  34.528  24.078   2.328
54224W        W22642  17.124  36.410   1.269
54225W        W22643  16.089  38.566  14.976
54226W        W22644  10.191   4.748   2.794
54227W        W22645  44.416  13.729   0.343
54228W        W22646   9.221  19.133  10.928
54229W        W22647  30.440  34.429  10.901
54230W        W22648  26.566  32.078   5.085
54231W        W22649   1.765  40.347   3.151
54232W        W22650  30.527  14.318  14.918
54233W        W22651   3.743  17.207   2.188
54234W        W22652  23.177  36.017   4.792
54235W        W22653  40.853  37.047  13.050
54236W        W22654  31.611  29.144   1.317
54237W        W22655  31.083  24.150   1.440
54238W        W22656  37.341  41.866  14.851
54239W        W22657   0.774  36.380  14.026
54240W        W22658  10.844  41.963   0.361
54241W        W22659  32.587  28.011   4.714
54242W        W22660  25.519  32.459  13.548
54243W        W22661   1.412  37.994   0.356
54244W        W22662   9.285   8.697   3.809
54245W        W22663  13.336   4.425   2.696
54246W        W22664  40.019  12.729  11.478
54247W        W22665  34.039  32.475   2.671
54248W        W22666   3.370  13.751  14.374
54249W        W22667  21.719  23.707  10.540
54250W        W22668   5.255  19.651  13.912
54251W        W22669  25.671  44.497   2.282
54252W        W22670  18.729  14.812   4.268
54253W        W22671  12.220  21.215  12.400
54254W        W22672  34.481  19.188   1.812
54255W        W22673  21.555   3.355  13.005
54256W        W22674  12.748  44.266   2.261
54257W        W22675  10.209  20.234  10.528
54258W        W22676  17.209   8.897  14.925
54259W        W22677   9.761  12.191   3.651
54260W        W22678   9.653  24.713   3.181
54261W        W22679  19.566  21.130   0.258
54262W        W22680  38.411  33.058  10.445
54263W        W22681   4.823  12.716   0.761
54264W        W22682  35.565  16.209  12.545
54265W        W22683  18.707  44.333   0.900
54266W        W22684  25.603  19.658   4.731
54267W        W22685  35.376   5.213   1.840
54268W        W22686   4.377   9.688  14.494
54269W        W22687  41.454  25.987   4.705
54270W        W22688   0.801  17.238   4.166
54271W        W22689   0.878   7.769   1.829
54272W        W22690  34.509  35.409  14.881
54273W        W22691  19.761  33.412  13.351
54274W        W22692   8.179   8.900   0.255
54275W        W22693  27.666  16.678  12.890
54276W        W22694  39.382  18.592   0.726
54277W        W22695   1.345  13.664  13.445
54278W        W22696  27.601   2.312   3.669
54279W        W22697   9.209  17.642   1.815
54280W        W22698   4.271  18.245   4.204
54281W        W22699  30.482  40.336   3.263
54282W        W22700  11.336   6.771   2.755
54283W        W22701   9.374  27.688   1.924
54284W        W22702  15.105   6.910   0.923
54285W        W22703   0.269  21.173   4.294
54286W        W22704  27.631  35.910   1.762
54287W        W22705  15.322  41.955  11.897
54288W        W22706   2.945  15.183  11.936
54289W        W22707  32.504  32.993   4.163
54290W        W22708  10.192  25.063  14.950
54291W        W22709  42.000  23.499  12.860
54292W        W22710  36.923  39.960  11.584
54293W        W22711   1.334  40.305  13.339
54294W        W22712  22.588  38.476   1.441
54295W        W22713  25.009  17.572  12.520
54296W        W22714  40.026   7.724   3.725
54297W        W22715  20.644   7.812   1.407
54298W        W22716  10.167  15.179  14.778
54299W        W22717  17.165  29.489  11.127
54300W        W22718  38.461  32.432   4.263
54301W        W22719  40.364  15.751   2.402
54302W        W22720  36.455  24.134   4.277
54303W        W22721  18.131  41.832  10.617
54304W        W22722  25.595  13.737  13.931
54305W        W22723  35.054  14.615   2.310
54306W        W22724   3.863  30.611   9.961
54307W        W22725  20.066  27.574  12.055
54308W        W22726   6.892   3.888  13.438
54309W        W22727  43.475  38.475   3.211
54310W        W22728  28.658  12.771   4.674
54311W        W22729  20.755   6.370   0.831
54312W        W22730  44.836  29.114   2.339
54313W        W22731  30.559  44.312   0.450
54314W        W22732  23.685   7.723  14.815
54315W        W22733  36.408  39.060  13.025
54316W        W22734  27.541  26.126  11.059
54317W        W22735  12.322  33.982   1.812
54318W        W22736  23.994  40.954  11.884
54319W        W22737   2.738  34.459  10.989
54320W        W22738  38.351   1.915   3.275
54321W        W22739  28.557   8.891   4.804
54322W        W22740  33.403  37.473  10.889
54323W        W22741  33.526  38.480   3.851
54324W        W22742  28.159   5.766   5.185
54325W        W22743   1.437  30.921  12.345
54326W        W22744  10.797  22.732   0.371
54327W        W22745  42.330  29.920  12.054
54328W        W22746  44.910   0.465   1.239
54329W        W22747  41.453   9.846   3.310
54330W        W22748  13.775  31.407  13.010
54331W        W22749  30.430   9.160   1.222
54332W        W22750  37.531   8.244  11.100
54333W        W22751  12.194  14.795  13.855
54334W        W22752  34.975  13.171  13.447
54335W        W22753   0.939  27.166   1.373
54336W        W22754  11.686  35.876  10.430
54337W        W22755  16.607   5.226  11.515
54338W        W22756  34.599  31.938  11.880
54339W        W22757  33.907  41.794  13.484
54340W        W22758  23.630  22.215   1.341
54341W        W22759  14.208   9.240  12.862
54342W        W22760  15.248  23.687   0.365
54343W        W22761  35.862  20.761  11.022
54344W        W22762   3.240   8.752   4.771
54345W        W22763  41.350  12.166  11.076
54346W        W22764  17.595  29.043   0.852
54347W        W22765  19.189  16.085   0.947
54348W        W22766  17.631  14.645  14.473
54349W        W22767  22.537  37.470  10.017
54350W        W22768   3.376  35.441   2.815
54351W        W22769  17.120  23.528  12.567
54352W        W22770  44.892  30.004   2.208
54353W        W22771  42.406  27.117   0.343
54354W        W22772  41.032  14.190   1.304
54355W        W22773  39.042   5.287  14.979
54356W        W22774  15.160   0.259   0.760
54357W        W22775  33.479  15.761   1.897
54358W        W22776  30.433   4.295   1.801
54359W        W22777  15.743  32.922  10.044
54360W        W22778   3.281  19.578   3.149
54361W        W22779  40.051   5.205  11.543
54362W        W22780  39.389  25.144  11.120
54363W        W22781  43.916  11.369  12.572
54364W        W22782  33.570  40.312  10.633
54365W        W22783  26.191   9.782   2.249
54366W        W22784  33.938  35.589   0.901
54367W        W22785  28.520  16.616   4.837
54368W        W22786  38.881  30.108  13.395
54369W        W22787  26.035  36.979  14.827
54370W        W22788  14.296  40.998  11.003
54371W        W22789  12.807  35.459  13.027
54372W        W22790  38.924  22.234  11.103
54373W        W22791  18.779  15.167  13.842
54374W        W22792  14.696   9.841  12.071
54375W        W22793  16.770   6.802  13.958
54376W        W22794  21.672   2.443  11.052
54377W        W22795   2.897  36.404   2.406
54378W        W22796  35.102   5.745   0.805
54379W        W22797  38.528   6.320   1.821
54380W        W22798  15.811  38.522  13.445
54381W        W22799  44.869   4.773   2.364
54382W        W22800  10.860  44.784   2.853
54383W        W22801  25.215   3.220  13.906
54384W        W22802  25.594  34.964  11.040
54385W        W22803   3.265  30.535   0.946
54386W        W22804  12.133  31.918  13.873
54387W        W22805  23.629  36.519   4.732
54388W        W22806  11.736   9.772  11.574
54389W        W22807  13.295   3.336   0.873
54390W        W22808  14.307  37.472  14.896
54391W        W22809   5.402   1.446   4.673
54392W        W22810  27.087   1.309  13.831
54393W        W22811  22.249  20.621   4.291
54394W        W22812  44.412  37.464   4.754
54395W        W22813  31.489  30.951   1.229
54396W        W22814  32.123  16.278  13.907
54397W        W22815  20.183  39.907   2.202
54398W        W22816   4.834  31.037   5.124
54399W        W22817   7.226  41.986  10.893
54400W        W22818  23.111  22.204  11.977
54401W        W22819   8.179   8.386   3.813
54402W        W22820  22.120   9.832  11.963
54403W        W22821  20.048   5.865  13.484
54404W        W22822   6.357   0.424  14.347
54405W        W22823   4.780  33.060   1.413
54406W        W22824  28.031  38.567   4.768
54407W        W22825  40.548  11.254  14.874
54408W        W22826  26.098  26.538   3.695
54409W        W22827  21.240  14.759  13.320
54410W        W22828  22.235  29.606   3.657
54411W        W22829  22.158  21.636   4.784
54412W        W22830  34.071  10.716   4.617
54413W        W22831   1.791  10.338  12.482
54414W        W22832  29.129  27.948   4.762
54415W        W22833  17.691  15.753  13.803
54416W        W22834  40.883  27.681  11.112
54417W        W22835  35.995   1.419   2.872
54418W        W22836  39.497  40.482  12.428
54419W        W22837   6.893  42.784   4.767
54420W        W22838   9.220   4.407  12.024
54421W        W22839  24.699  18.627  11.394
54422W        W22840  40.538  12.176   3.285
54423W        W22841   0.254   0.948   0.834
54424W        W22842  41.815  19.559  14.509
54425W        W22843  26.590  24.487   3.814
54426W        W22844  25.565  41.464   3.675
54427W        W22845   4.252   4.741   2.407
54428W        W22846  42.288  31.965   2.762
54429W        W22847  22.563  30.553   2.743
54430W        W22848  42.790  23.075   1.435
54431W        W22849  25.107   6.378  10.972
54432W        W22850  29.951  30.497  11.442
54433W        W22851  33.095  29.114   4.133
54434W        W22852   1.444  34.587   2.664
54435W        W22853  34.934  23.689   4.698
54436W        W22854  31.589  25.181   1.815
54437W        W22855  31.101   1.441  12.012
54438W        W22856  43.782   8.245  14.808
54439W        W22857  33.016  22.540  13.321
54440W        W22858  21.753   7.325   1.912
54441W        W22859  15.663  11.170  13.355
54442W        W22860  10.788  24.224  11.576
54443W        W22861   6.264  35.430  12.065
54444W        W22862  15.293   5.354  13.402
54445W        W22863  26.700  19.127   3.728
54446W        W22864  42.477  26.080  11.924
54447W        W22865  20.652  13.239   5.239
54448W        W22866  10.791   7.174   3.254
54449W        W22867  20.178  29.620  13.874
54450W        W22868   0.934   1.819   0.765
54451W        W22869  17.742  23.639   2.225
54452W        W22870   4.745  23.128   2.260
54453W        W22871  27.024  21.246  12.088
54454W        W22872  35.374   3.338   3.247
54455W        W22873  35.476  40.304  14.333
54456W        W22874  38.428  20.162   2.181
54457W        W22875  24.523   4.238  14.817
54458W        W22876   9.288  23.000   3.275
54459W        W22877   2.869  32.953  11.463
54460W        W22878  25.539   0.467   2.324
54461W        W22879  29.922  10.287   1.283
54462W        W22880  38.504  44.757  13.939
54463W        W22881  16.575  17.117  12.558
54464W        W22882  18.657  30.977   1.849
54465W        W22883   3.416  33.014  11.401
54466W        W22884   5.837  30.615   2.804
54467W        W22885  14.317   3.907  12.843
54468W        W22886  13.722   4.758  10.630
54469W        W22887  12.255   6.865   3.830
54470W        W22888   0.306  40.924  10.930
54471W        W22889  11.314  19.556  14.335
54472W        W22890  39.919  20.267  14.995
54473W        W22891  10.653  11.352   3.204
54474W        W22892  30.463  19.270   1.935
54475W        W22893  29.542  20.240  11.416
54476W        W22894  37.066  35.525   1.282
54477W        W22895  25.209  39.495   2.192
54478W        W22896  36.432   0.458  11.057
54479W        W22897  25.570  44.842   3.856
54480W        W22898  11.322  22.032  11.405
54481W        W22899   5.224   1.808   3.846
54482W        W22900  23.492  43.313  10.475
54483W        W22901  26.112  35.576  12.969
54484W        W22902  28.566  25.640  11.954
54485W        W22903   1.482   0.848  11.073
54486W        W22904  29.099  21.059   4.769
54487W        W22905  44.902  11.272   0.889
54488W        W22906   4.933  15.656   5.108
54489W        W22907  30.960  36.568  10.996
54490W        W22908  37.899  44.884   2.214
54491W        W22909  15.319   3.911   9.546
54492W        W22910  13.632  29.567  13.411
54493W        W22911  22.167   6.791  11.954
54494W        W22912  12.180  44.269   1.316
54495W        W22913  43.463  42.877  13.544
54496W        W22914  15.611  37.386   2.716
54497W        W22915   2.821  40.344   3.153
54498W        W22916   1.296  13.721   4.256
54499W        W22917  20.758  33.048  10.460
54500W        W22918  13.251   7.266   1.733
54501W        W22919   0.984   3.890   3.705
54502W        W22920  36.882  27.597  13.898
54503W        W22921  42.328  11.772  12.440
54504W        W22922  20.089  10.863  13.989
54505W        W22923  13.774  22.740   3.867
54506W        W22924  44.474   7.814  12.509
54507W        W22925  25.655  42.357  10.526
54508W        W22926  41.432  13.749   1.281
54509W        W22927  28.181  14.775   4.716
54510W        W22928  11.332  15.748   0.868
54511W        W22929   9.662  28.611  11.972
54512W        W22930  31.477   1.285  14.845
54513W        W22931  30.147  29.522   3.809
54514W        W22932  11.643  41.444   2.892
54515W        W22933   2.466  10.241  10.035
54516W        W22934   4.249  11.696   4.247
54517W        W22935  31.045  25.141  14.446
54518W        W22936  43.374  26.660   4.626
54519W        W22937  24.099  37.923  13.476
54520W        W22938   4.329  22.697  12.348
54521W        W22939  38.854  20.230   0.885
54522W        W22940  21.691   3.774  13.823
54523W        W22941  39.499  34.960   3.205
54524W        W22942  28.468  39.915  11.510
54525W        W22943  39.860   8.160  13.044
54526W        W22944   4.846  20.192   3.279
54527W        W22945  20.093  30.106  13.906
54528W        W22946  11.674  36.850   4.272
54529W        W22947   9.649  12.204  10.887
54530W        W22948   1.418  38.503   4.610
54531W        W22949  35.881  38.916  13.002
54532W        W22950  19.693  22.132  14.288
54533W        W22951  13.327  27.166   2.833
54534W        W22952   6.219   0.985  10.910
54535W        W22953  39.983  36.408   2.892
54536W        W22954  21.232  40.445  10.011
54537W        W22955  22.605  32.984  14.304
54538W        W22956  34.948  41.836   3.774
54539W        W22957  11.352  33.388  13.413
54540W        W22958   6.893  39.960  13.333
54541W        W22959  31.424  18.713  14.926
54542W        W22960  27.160  33.096   3.748
54543W        W22961  41.458  26.686   3.868
54544W        W22962  26.997   0.460  12.981
54545W        W22963   4.835   7.337   0.477
54546W        W22964  19.181  42.454  14.349
54547W        W22965  16.232  22.027   2.780
54548W        W22966  29.053  43.811  10.488
54549W        W22967  25.480   8.248  11.878
54550W        W22968  25.001  26.140   3.346
54551W        W22969  33.985  28.138   1.853
54552W        W22970  33.516  35.519   2.773
54553W        W22971  32.045  30.110   2.898
54554W        W22972  14.768  39.029  14.289
54555W        W22973   6.329  10.731  11.015
54556W        W22974  44.834  27.029   3.150
54557W        W22975  15.764  33.072   3.799
54558W        W22976   1.456   1.817   2.226
54559W        W22977  25.007  22.240   0.894
54560W        W22978  28.558   0.793   0.302
54561W        W22979  37.567  40.386  12.387
54562W        W22980   6.341  38.966  13.534
54563W        W22981   6.743  30.459   0.307
54564W        W22982  40.491  12.800   2.408
54565W        W22983  30.576  18.228  14.516
54566W        W22984   1.470  13.650  11.558
54567W        W22985  25.114  16.203   2.190
54568W        W22986  11.628  12.793   0.939
54569W        W22987  37.482  34.497   0.373
54570W        W22988  20.754  39.980   3.378
54571W        W22989  11.770  19.737   4.322
54572W        W22990   8.693  24.540   2.759
54573W        W22991  22.619   4.722   2.804
54574W        W22992  34.011  32.624  14.803
54575W        W22993  22.130  38.915   4.244
54576W        W22994   3.767  10.852   4.244
54577W        W22995  29.002   0.343   2.715
54578W        W22996  37.947   2.409   0.255
54579W        W22997  34.566  28.151   0.291
54580W        W22998   7.381  30.003   2.349
54581W        W22999  33.586  32.410   2.841
54582W        W23000  43.865  39.867   2.713
54583W        W23001  10.862  32.630   4.334
54584W        W23002  28.952  32.979   0.298
54585W        W23003  15.814   4.898   1.719
54586W        W23004  21.526  10.716  10.578
54587W        W23005  43.893   9.323  14.390
54588W        W23006  43.389  22.634  11.987
54589W        W23007   7.827  24.581  10.900
54590W        W23008  25.218  31.418  11.411
54591W        W23009  28.520  41.895  13.318
54592W        W23010  14.613  37.064   0.780
54593W        W23011  38.071  18.183  12.873
54594W        W23012  23.212  11.347   4.799
54595W        W23013   2.860  22.569  10.095
54596W        W23014   8.664   2.462  12.878
54597W        W23015  26.148   4.256  12.556
54598W        W23016  28.086  36.556  11.028
54599W        W23017  16.302  29.596   1.405
54600W        W23018  34.923   8.878   1.933
54601W        W23019  38.521  25.192  12.407
54602W        W23020  22.503  10.698   0.770
54603W        W23021  29.936  17.606  14.480
54604W        W23022  44.801  32.071  12.501
54605W        W23023  36.523  29.116  11.914
54606W        W23024  38.969  29.598   0.278
54607W        W23025  10.660  29.513   3.730
54608W        W23026  18.199   9.676   4.745
54609W        W23027  21.734  24.217   4.150
54610W        W23028  25.603  39.528  14.323
54611W        W23029  43.811  41.806  10.900
54612W        W23030  14.688   6.766   1.730
54613W        W23031  36.966  22.524  14.766
54614W        W23032  22.167  28.495  12.094
54615W        W23033  16.796  14.318  10.411
54616W        W23034  22.730  44.851  13.508
54617W        W23035  42.511  13.107   4.784
54618W        W23036  10.255   1.292  10.535
54619W        W23037  30.483  24.230   5.273
54620W        W23038  36.424   5.395   2.329
54621W        W23039  38.499  38.972  12.540
54622W        W23040  14.155   2.339  11.959
54623W        W23041  30.580  35.947  11.895
54624W        W23042  40.548   2.455  12.836
54625W        W23043  24.670  23.087  11.115
54626W        W23044  24.556  11.770   4.200
54627W        W23045  44.864   0.454  12.557
54628W        W23046  14.175  26.166  14.995
54629W        W23047  39.812   9.202  12.474
54630W        W23048   0.446  10.671  11.424
54631W        W23049  36.018  23.502  13.929
54632W        W23050   9.335  37.513   1.214
54633W        W23051   1.839  32.436   2.191
54634W        W23052  20.099  12.795   0.261
54635W        W23053   7.302   5.375  14.848
54636W        W23054  39.031  11.310  11.106
54637W        W23055   3.300  16.712   1.851
54638W        W23056   4.352   9.648  12.855
54639W        W23057  26.585   5.242   3.179
54640W        W23058   1.351   1.820  14.441
54641W        W23059  39.560  32.079  12.879
54642W        W23060  10.384  42.022  12.554
54643W        W23061  25.059  37.390   0.861
54644W        W23062  15.322  39.333   1.934
54645W        W23063  39.056   5.835  13.828
54646W        W23064  37.027  22.236   2.808
54647W        W23065  21.652  22.203   4.625
54648W        W23066   4.844  22.034  13.840
54649W        W23067   0.339  39.425  12.433
54650W        W23068  31.545  41.892   1.895
54651W        W23069  32.084   0.320  10.410
54652W        W23070  37.387  34.455   1.738
54653W        W23071   7.344  24.000   2.851
54654W        W23072  23.514  42.808   4.791
54655W        W23073  38.340  29.023   2.766
54656W        W23074  31.937  43.982  11.531
54657W        W23075  27.600  33.982  12.957
54658W        W23076  39.432  37.541  11.487
54659W        W23077  35.077   7.338   1.854
54660W        W23078   4.718  34.036  14.422
54661W        W23079  37.515  19.574   1.715
54662W        W23080  36.859  36.902  11.861
54663W        W23081  15.684  29.462  13.915
54664W        W23082   7.701  44.775   1.412
54665W        W23083  31.948  36.872  13.938
54666W        W23084  14.815  36.862   2.334
54667W        W23085  16.654  33.894  12.059
54668W        W23086  16.075  33.102  12.887
54669W        W23087  29.940   3.807   2.809
54670W        W23088   1.881  20.562  12.883
54671W        W23089  38.860   5.255  10.947
54672W        W23090  18.619  36.843   2.895
54673W        W23091   0.841  37.579  13.492
54674W        W23092  18.086   1.300  14.441
54675W        W23093  10.295  29.517   1.875
54676W        W23094   4.414  24.695  10.992
54677W        W23095  27.083   2.258  15.000
54678W        W23096  43.006   3.855   4.185
54679W        W23097  13.314  38.334  12.853
54680W        W23098  13.753   5.808   5.173
54681W        W23099  16.723   4.811  11.903
54682W        W23100  43.333  14.297   2.662
54683W        W23101   0.384   3.944   3.374
54684W        W23102  20.238   7.846   1.760
54685W        W23103  36.451  42.880  10.536
54686W        W23104  36.916  40.880   2.304
54687W        W23105  44.281  42.877  13.388
54688W        W23106  16.610  35.094   4.315
54689W        W23107  26.021  23.164  14.979
54690W        W23108  30.497  24.132   4.298
54691W        W23109  18.727  24.624   2.803
54692W        W23110  40.802  31.576  10.621
54693W        W23111  13.698  30.439  11.107
54694W        W23112  26.502   8.729  10.112
54695W        W23113  17.788   4.228  13.437
54696W        W23114  35.031  36.064  14.819
54697W        W23115   8.341  30.524  13.827
54698W        W23116  27.620   6.814  13.981
54699W        W23117  42.819  25.646   3.339
54700W        W23118  16.794  16.651  10.479
54701W        W23119  44.435  17.136   3.248
54702W        W23120  20.538  34.051  13.408
54703W        W23121   9.352   3.825  12.505
54704W        W23122  40.005   9.385   2.224
54705W        W23123  38.406  15.723  14.969
54706W        W23124   9.711   8.692   2.764
54707W        W23125  12.731  30.931   2.712
54708W        W23126  17.252  43.396   0.467
54709W        W23127  26.142  31.600   2.407
54710W        W23128   2.774  23.163   4.206
54711W        W23129  17.273   6.228  10.591
54712W        W23130  15.127  13.115   3.177
54713W        W23131  22.548  41.898   4.669
54714W        W23132   5.850  42.913  13.323
54715W        W23133  30.419  17.670  13.490
54716W        W23134  11.291  39.052   2.248
54717W        W23135  10.157  23.654   1.238
54718W        W23136  31.957  42.403   0.904
54719W        W23137  27.965   7.719  11.419
54720W        W23138  31.065  24.224  11.410
54721W        W23139  21.736   8.742  13.940
54722W        W23140  39.976  25.501   0.280
54723W        W23141   1.456  23.040  12.567
54724W        W23142   4.378  31.979  12.471
54725W        W23143  43.415   6.263  14.833
54726W        W23144  15.321  20.594  11.540
54727W        W23145   7.909   2.236   0.468
54728W        W23146  32.635   0.824   3.270
54729W        W23147  13.708  13.755  12.961
54730W        W23148  10.727   3.855   0.339
54731W        W23149  33.970   5.740  10.530
54732W        W23150  38.931  38.905   0.780
54733W        W23151  27.965  34.895  14.301
54734W        W23152  14.618  33.571  11.558
54735W        W23153   5.788  26.179  12.935
54736W        W23154  18.574  24.991  13.899
54737W        W23155  20.559  28.466  12.456
54738W        W23156  20.568  42.820   0.393
54739W        W23157  12.691  15.776   1.273
54740W        W23158   0.349  17.253   1.928
54741W        W23159  44.790  40.820  13.410
54742W        W23160  13.800  19.244   4.337
54743W        W23161  40.444  32.130  10.520
54744W        W23162  33.526   5.764   4.151
54745W        W23163   1.731  42.495  10.598
54746W        W23164  38.863  44.866   1.737
54747W        W23165  11.177   4.887   4.765
54748W        W23166  28.498  14.211   1.723
54749W        W23167  38.478   7.685   0.391
54750W        W23168  17.604  15.214   3.293
54751W        W23169  14.333  41.813   3.643
54752W        W23170  15.745  39.994   3.768
54753W        W23171   4.427  31.470  13.017
54754W        W23172  21.211  24.582  12.361
54755W        W23173   7.218  26.031   3.863
54756W        W23174   2.398  24.592   4.742
54757W        W23175  33.541  10.732  13.886
54758W        W23176  27.189  25.174   3.258
54759W        W23177  11.857  19.763   0.853
54760W        W23178  26.047   3.787   0.921
54761W        W23179   5.800  23.040  11.607
54762W        W23180  14.338  19.753  12.826
54763W        W23181   2.295   1.361   4.281
54764W        W23182  10.271   8.325  11.993
54765W        W23183   4.907  31.915  11.385
54766W        W23184  37.073   4.351   3.189
54767W        W23185  29.559  16.796  14.917
54768W        W23186  26.179  31.637   1.796
54769W        W23187  22.034  44.823   4.674
54770W        W23188  15.260  32.585   0.943
54771W        W23189  39.476  26.589   3.219
54772W        W23190  39.890   6.272  14.433
54773W        W23191  16.579  10.680   4.737
54774W        W23192  30.556  31.599  11.115
54775W        W23193  26.061  22.078   1.235
54776W        W23194  28.630   9.734   1.894
54777W        W23195  15.112  27.054   3.324
54778W        W23196  14.713  22.106  12.995
54779W        W23197  24.033  33.501  11.858
54780W        W23198  30.987  33.063   4.256
54781W        W23199  33.381   4.893   0.808
54782W        W23200   0.304  44.301  11.503
54783W        W23201  12.671  22.114  11.988
54784W        W23202  20.713  20.252   3.155
54785W        W23203  38.433  28.452  11.479
54786W        W23204  19.211   1.872  10.487
54787W        W23205   8.394   9.825   4.337
54788W        W23206  22.210  25.703   4.787
54789W        W23207  18.755  20.166   0.767
54790W        W23208   6.700  43.380  10.544
54791W        W23209   5.321  21.740  14.438
54792W        W23210  43.454   6.801   3.165
54793W        W23211  19.744  10.248   2.698
54794W        W23212  41.916  39.880  10.630
54795W        W23213  44.860  32.411   4.123
54796W        W23214   4.843   1.288   1.406
54797W        W23215  39.432  44.866   3.201
54798W        W23216  38.965  32.530   4.208
54799W        W23217  40.501   2.823  13.475
54800W        W23218  26.170  23.037   1.730
54801W        W23219   3.727  26.045   1.307
54802W        W23220  43.813  35.859  13.956
54803W        W23221   7.225   1.915  14.425
54804W        W23222  29.499   3.451  13.481
54805W        W23223  34.867  21.022   9.984
54806W        W23224  38.369   3.293   4.754
54807W        W23225   9.298   6.374  10.539
54808W        W23226  28.545  11.831  10.504
54809W        W23227  33.423  25.477   1.745
54810W        W23228  40.316  40.952   1.404
54811W        W23229  27.553  36.356  13.837
54812W        W23230  23.197   7.797   3.234
54813W        W23231  15.601  37.499  11.491
54814W        W23232  19.283   1.861  14.031
54815W        W23233  35.869   6.251  13.825
54816W        W23234  21.169  20.133  10.514
54817W        W23235   6.345   4.817   3.763
54818W        W23236  25.053  14.168   0.793
54819W        W23237  42.873  12.153   5.300
54820W        W23238   5.819  26.984   3.371
54821W        W23239  43.457   8.268   3.718
54822W        W23240  42.321  33.059   0.429
54823W        W23241  16.256  18.150   1.322
54824W        W23242  34.534  27.091  13.951
54825W        W23243   6.419  33.402  10.112
54826W        W23244   3.401  41.353   4.752
54827W        W23245  19.278   3.235   1.239
54828W        W23246  24.665  17.558   4.744
54829W        W23247   4.417  37.830   3.776
54830W        W23248  36.842  40.493  11.057
54831W        W23249  26.999  27.082   4.121
54832W        W23250  18.152  13.299  13.811
54833W        W23251  38.037   4.869   1.919
54834W        W23252   4.351   8.858   2.219
54835W        W23253  30.426   1.475   1.385
54836W        W23254  39.479  26.508  14.332
54837W        W23255  21.740  23.097   5.705
54838W        W23256  18.601  21.197  11.516
54839W        W23257  15.092  36.096  14.018
54840W        W23258  38.954  41.340   0.393
54841W        W23259  11.756  21.110  13.035
54842W        W23260   9.356   0.446  11.428
54843W        W23261  28.445  12.846   2.294
54844W        W23262  43.859  26.693   1.254
54845W        W23263  15.285  18.134   0.804
54846W        W23264  17.097  43.914  10.584
54847W        W23265  27.109  31.480  14.973
54848W        W23266  14.784  44.442   0.752
54849W        W23267  10.283  38.476  14.888
54850W        W23268   3.717  32.990  11.381
54851W        W23269  12.173  19.213   1.880
54852W        W23270  17.140  10.873  13.022
54853W        W23271  19.155  33.454   3.169
54854W        W23272  24.990  12.649  13.983
54855W        W23273  39.836   1.808   2.704
54856W        W23274   4.824   1.762   2.777
54857W        W23275  27.492  42.799   2.266
54858W        W23276  15.161   3.238   2.761
54859W        W23277  42.406  25.642   3.784
54860W        W23278   1.953   6.865   0.242
54861W        W23279  30.016  11.336  10.419
54862W        W23280  38.892  41.295  12.575
54863W        W23281   4.322  20.619  11.088
54864W        W23282   5.913  33.969   4.608
54865W        W23283  38.378   5.821  14.398
54866W        W23284  29.961  16.570   0.262
54867W        W23285  11.304  33.389  12.479
54868W        W23286  24.605  38.937   1.382
54869W        W23287  17.194  18.287   4.214
54870W        W23288  35.380  26.464   2.697
54871W        W23289  29.575  22.533  11.063
54872W        W23290  29.639  20.039  11.983
54873W        W23291  13.790   7.730   1.859
54874W        W23292   2.400  35.564  11.586
54875W        W23293   7.368  15.193  10.484
54876W        W23294  30.071  37.039  14.877
54877W        W23295  18.098  43.858   4.230
54878W        W23296  27.950  22.197  13.918
54879W        W23297  15.257   5.239   4.192
54880W        W23298  32.993  17.146   3.336
54881W        W23299   5.408  19.544   0.369
54882W        W23300   1.378  14.121  14.275
54883W        W23301  14.126  13.660   1.882
54884W        W23302   0.405  24.543  14.459
54885W        W23303  20.058   8.843  11.522
54886W        W23304  23.491  32.045   2.409
54887W        W23305  16.728  36.499  12.862
54888W        W23306  39.505   6.334  14.503
54889W        W23307   4.303  36.917  11.994
54890W        W23308  17.712   2.468  13.439
54891W        W23309  36.972  11.653  13.979
54892W        W23310  37.985  32.511  14.907
54893W        W23311  34.532   8.215  13.336
54894W        W23312  19.577   9.756   2.338
54895W        W23313  16.591   7.781   0.897
54896W        W23314  18.182  16.111  14.947
54897W        W23315   9.365  13.648   2.285
54898W        W23316  19.186  19.653  11.961
54899W        W23317  36.473  33.506  14.841
54900W        W23318  29.057  38.878  11.394
54901W        W23319  16.302   1.244   0.393
54902W        W23320  26.639  20.247   0.347
54903W        W23321  22.522  23.721   5.262
54904W        W23322  26.531  13.202  14.506
54905W        W23323   6.425  21.208   4.146
54906W        W23324  21.186  42.462   4.280
54907W        W23325  27.168   1.374  11.884
54908W        W23326  32.508   0.322  14.364
54909W        W23327  38.892  35.070   4.750
54910W        W23328  33.512  39.513  14.782
54911W        W23329   5.208  37.908   4.821
54912W        W23330   6.720   8.224  14.435
54913W        W23331  44.895  17.561  10.551
54914W        W23332  16.086   6.350   1.305
54915W        W23333   1.321  36.028   1.906
54916W        W23334  16.241  26.997   3.834
54917W        W23335  14.227  34.593   1.300
54918W        W23336   1.347  10.368  11.906
54919W        W23337  13.180  40.504  11.422
54920W        W23338  25.582   8.234   0.411
54921W        W23339  39.922  29.157   3.869
54922W        W23340   1.827  33.599  12.388
54923W        W23341  42.929  34.434  13.457
54924W        W23342  18.655  39.556  13.841
54925W        W23343  29.567   6.881  14.416
54926W        W23344  28.541  16.788   1.295
54927W        W23345  43.282  22.209  12.457
54928W        W23346  23.215   9.163   0.881
54929W        W23347  20.223  36.943   1.396
54930W        W23348  26.129   6.758  10.601
54931W        W23349   2.443  15.107  12.549
54932W        W23350  11.289  18.169   1.783
54933W        W23351  16.164  33.923   1.776
54934W        W23352  41.310  32.581  10.531
54935W        W23353  40.838  17.645  12.995
54936W        W23354  32.935  18.171   0.327
54937W        W23355  13.638  36.998   4.186
54938W        W23356  13.351  32.444   3.739
54939W        W23357  30.448  18.587   3.188
54940W        W23358  12.635  44.395  13.464
54941W        W23359   8.334  32.004   2.225
54942W        W23360   3.893  37.527  10.907
54943W        W23361  33.044  14.265   3.214
54944W        W23362   2.856  31.540   3.367
54945W        W23363  40.526  19.560   3.734
54946W        W23364   1.330  24.081  11.516
54947W        W23365   0.429  19.054   4.140
54948W        W23366  38.981  37.339  14.294
54949W        W23367  14.722  10.877  14.764
54950W        W23368  15.318  10.660  13.983
54951W        W23369  34.905   1.881  10.489
54952W        W23370  36.035  28.070  11.078
54953W        W23371  25.142  31.629   0.268
54954W        W23372  21.515  12.616   2.393
54955W        W23373  12.319  30.007  13.458
54956W        W23374  44.354  22.043   0.862
54957W        W23375  42.476  27.164   2.268
54958W        W23376  40.830  20.133  11.507
54959W        W23377   9.303  29.152   0.246
54960W        W23378   2.391  35.423  11.977
54961W        W23379  33.946  34.610  12.011
54962W        W23380  12.767  16.799  13.476
54963W        W23381   1.257   2.739   2.342
54964W        W23382  15.803  32.439   0.935
54965W        W23383  13.728  36.048  11.868
54966W        W23384  18.103  30.986  11.861
54967W        W23385   8.207  35.449   4.148
54968W        W23386   5.346  23.080  10.955
54969W        W23387   6.390   8.221  10.974
54970W        W23388  28.628  43.337   3.165
54971W        W23389  10.238  13.295  12.977
54972W        W23390  36.586  13.727  14.018
54973W        W23391  24.560  43.788   2.276
54974W        W23392   3.341  37.048  12.834
54975W        W23393  23.142  35.926   3.635
54976W        W23394   5.288  39.022  10.586
54977W        W23395  18.242  36.936   1.795
54978W        W23396  40.919   8.178  14.887
54979W        W23397  19.265  30.570   3.850
54980W        W23398  33.109  16.098  12.888
54981W        W23399  10.804  16.130  14.464
54982W        W23400   7.305   3.847  14.770
54983W        W23401  34.056  30.467  14.792
54984W        W23402  37.446  42.893   0.822
54985W        W23403  20.190   3.260   3.347
54986W        W23404  10.643  12.197   4.772
54987W        W23405  27.036  28.607   2.829
54988W        W23406  40.469  38.070  12.024
54989W        W23407  14.762  25.579  12.564
54990W        W23408   5.423  13.251  14.938
54991W        W23409  36.408   6.713  12.494
54992W        W23410  33.947  32.091   2.663
54993W        W23411  33.876  32.631  11.882
54994W        W23412  29.945  29.159  13.452
54995W        W23413  38.401  15.296   4.750
54996W        W23414  39.822   1.460  12.060
54997W        W23415   8.699  32.941   0.893
54998W        W23416  44.874  43.868  11.375
54999W        W23417  15.128  39.984  11.069
55000W        W23418  25.210  11.159   2.753
55001W        W23419  32.415  34.605  12.063
55002W        W23420  23.139  18.251  11.935
55003W        W23421  34.031   4.300  13.496
55004W        W23422  23.116  11.270  13.875
55005W        W23423  16.589   9.742  14.883
55006W        W23424  26.612   4.790  14.994
55007W        W23425  30.049  36.002   1.283
55008W        W23426  10.262  31.973  12.511
55009W        W23427  23.162  39.555   9.976
55010W        W23428  38.837  19.048  11.567
55011W        W23429  11.246  12.270   1.337
55012W        W23430  22.516  14.805  11.375
55013W        W23431  12.810  17.219  13.376
55014W        W23432  28.477  18.559   3.202
55015W        W23433  41.931   8.693  12.438
55016W        W23434  21.019  16.800   1.446
55017W        W23435  38.548   2.353   4.291
55018W        W23436  12.317  41.391  12.385
55019W        W23437  21.647  27.194   1.728
55020W        W23438  34.385   2.958   0.343
55021W        W23439   4.412  28.017   4.198
55022W        W23440  29.459  34.510   4.270
55023W        W23441  22.525  21.228   4.627
55024W        W23442  22.743  15.678  13.932
55025W        W23443  42.398  43.774  12.094
55026W        W23444   8.264  43.416   0.412
55027W        W23445  29.429   6.295   0.287
55028W        W23446  24.980   1.899  12.568
55029W        W23447  15.648  21.648   0.727
55030W        W23448  26.492   6.215  14.512
55031W        W23449  41.425  30.041   4.640
55032W        W23450  40.800  27.124  14.916
55033W        W23451  34.412   3.421   4.795
55034W        W23452  10.775  11.318   3.751
55035W        W23453   4.880  22.662  13.339
55036W        W23454  10.878  20.676  11.537
55037W        W23455  18.573  41.917  11.556
55038W        W23456  10.668  25.098  13.961
55039W        W23457   8.899  27.974  12.071
55040W        W23458  10.294  26.043  12.357
55041W        W23459  28.108   5.856  12.547
55042W        W23460  32.435  31.958   3.214
55043W        W23461  32.443   9.766   1.869
55044W        W23462  41.993  14.796   0.448
55045W        W23463   2.261  28.543   3.813
55046W        W23464   4.871  31.424  13.416
55047W        W23465  40.519  40.314  11.452
55048W        W23466  31.941  19.207   4.300
55049W        W23467  38.422  23.610   4.195
55050W        W23468  40.815  35.061  13.892
55051W        W23469  17.136  19.687   2.207
55052W        W23470  28.158  29.098   4.197
55053W        W23471  14.685  14.268   5.258
55054W        W23472  33.458  36.917  14.936
55055W        W23473  29.027  44.414  10.479
55056W        W23474   6.357  38.999  13.909
55057W        W23475   3.850   3.410   4.179
55058W        W23476  39.433   8.702  12.046
55059W        W23477  33.554  15.256  12.029
55060W        W23478  34.985  43.774   2.380
55061W        W23479  44.906   6.841   1.869
55062W        W23480  34.941  27.949   2.339
55063W        W23481  28.153  17.673   2.689
55064W        W23482  12.231  32.458   4.319
55065W        W23483  41.895  13.796   0.763
55066W        W23484  31.959  25.469   3.716
55067W        W23485  12.189  37.534   5.205
55068W        W23486  23.155  21.167   3.654
55069W        W23487  17.201  40.351   0.376
55070W        W23488  43.334  21.250   4.292
55071W        W23489  21.695  40.838   1.854
55072W        W23490  38.867  37.560   5.092
55073W        W23491  23.170  27.970  13.455
55074W        W23492  43.497  28.144   2.864
55075W        W23493   6.296  20.526  14.954
55076W        W23494  42.007   2.360   1.327
55077W        W23495  20.102   5.198   2.213
55078W        W23496   8.777  21.695   1.212
55079W        W23497  24.010  36.916  10.629
55080W        W23498  28.043  33.022   2.887
55081W        W23499  27.509  40.323  14.286
55082W        W23500   5.331  41.350   4.803
55083W        W23501  19.623  36.581  13.877
55084W        W23502  38.954  25.503   4.791
55085W        W23503  34.507  34.520   3.217
55086W        W23504  33.392  12.248  10.120
55087W        W23505  44.918  23.067  10.557
55088W        W23506  31.074   0.473   0.417
55089W        W23507  23.623  30.068   4.204
55090W        W23508  39.818  28.480   1.742
55091W        W23509  24.572   6.861   3.785
55092W        W23510  36.048   9.219   1.827
55093W        W23511  12.220  18.166   0.946
55094W        W23512  17.125  10.261  13.891
55095W        W23513   0.965  17.666   3.202
55096W        W23514   6.799  22.547  13.970
55097W        W23515  22.710   7.800  10.427
55098W        W23516  36.962  13.183  13.833
55099W        W23517   3.239  15.761  11.413
55100W        W23518  24.004  11.796  11.013
55101W        W23519  29.001  14.206   0.745
55102W        W23520  39.876  38.070   0.765
55103W        W23521  38.481   3.400   5.176
55104W        W23522  14.783  35.898  14.777
55105W        W23523  36.880  18.664   2.197
55106W        W23524  25.569  44.493  14.498
55107W        W23525  40.346  43.948  14.310
55108W        W23526  33.095   1.973  13.046
55109W        W23527  14.645  31.447   2.801
55110W        W23528   4.261  37.070   0.459
55111W        W23529  19.084  21.716   2.743
55112W        W23530  27.472  17.204   3.307
55113W        W23531  29.934  16.698  12.517
55114W        W23532  16.568   2.725   3.801
55115W        W23533  11.273  24.202  14.857
55116W        W23534   4.441  33.925  13.345
55117W        W23535  40.868  18.087  11.859
55118W        W23536  18.125  19.099   4.621
55119W        W23537  43.466  32.027  13.399
55120W        W23538  21.744  34.001   3.299
55121W        W23539  18.602  43.767  11.546
55122W        W23540  40.400  19.538   2.183
55123W        W23541  22.562   2.930  11.562
55124W        W23542  41.403  33.555   2.701
55125W        W23543  37.535  24.003   4.129
55126W        W23544   6.780  25.998   4.698
55127W        W23545  25.586  19.136   4.236
55128W        W23546  20.740  32.139  11.028
55129W        W23547  22.198   7.399   2.900
55130W        W23548  34.577  18.230  10.979
55131W        W23549  27.614   1.418  11.971
55132W        W23550  42.414  38.888   1.310
55133W        W23551  28.964  20.530  11.429
55134W        W23552  43.323  21.192  13.022
55135W        W23553  31.508  44.458   4.639
55136W        W23554  32.527  40.867   4.173
55137W        W23555  24.147  23.014   4.243
55138W        W23556  29.046  37.845   1.835
55139W        W23557  43.975  12.175   0.879
55140W        W23558  35.362  15.243  14.879
55141W        W23559  25.705   8.203   0.891
55142W        W23560  20.651  16.287  14.291
55143W        W23561  38.527  25.601   0.399
55144W        W23562  27.489  11.254  11.054
55145W        W23563  27.990  37.925  12.917
55146W        W23564  24.659  35.553  13.042
55147W        W23565  17.113  13.711   3.330
55148W        W23566  15.329  24.160   3.798
55149W        W23567  21.203  38.003   2.295
55150W        W23568  17.725  10.803   1.431
55151W        W23569  11.795  16.107   0.369
55152W        W23570  10.272  36.577   3.666
55153W        W23571   7.313  33.474  11.595
55154W        W23572  30.989  41.824  12.469
55155W        W23573   6.187  16.128   3.677
55156W        W23574  26.979  17.251   4.148
55157W        W23575  44.344  22.067  10.941
55158W        W23576  16.694  31.025   0.875
55159W        W23577  27.586  35.591   3.175
55160W        W23578   5.879  25.618   3.851
55161W        W23579   1.287  31.027   4.238
55162W        W23580   9.206  20.709  12.896
55163W        W23581   6.709  34.518   1.353
55164W        W23582  42.290  43.792  13.827
55165W        W23583   4.249   5.254   2.240
55166W        W23584  27.569  37.368   0.480
55167W        W23585  19.580  42.017  13.542
55168W        W23586  35.969  27.983  10.641
55169W        W23587  14.596  35.484   2.186
55170W        W23588  30.017  16.079   2.359
55171W        W23589  43.476  20.659  14.792
55172W        W23590  18.732  26.063   3.350
55173W        W23591  11.822  11.218  12.537
55174W        W23592   2.930   0.262  14.802
55175W        W23593  19.763  36.082   1.823
55176W        W23594  37.561  19.067   1.393
55177W        W23595  43.305   9.655  12.353
55178W        W23596  42.283  35.088   0.882
55179W        W23597  15.286  23.619   0.921
55180W        W23598  15.797  34.063   1.733
55181W        W23599   9.658  17.591   0.739
55182W        W23600  27.662  37.955  11.397
55183W        W23601   9.168  33.401  11.019
55184W        W23602  23.198  39.021   0.395
55185W        W23603  22.574  16.269  13.883
55186W        W23604  44.355  18.657  11.415
55187W        W23605  16.167  11.672   1.325
55188W        W23606   8.851  23.201  14.985
55189W        W23607  43.460   9.342   4.812
55190W        W23608  28.486  39.951  10.592
55191W        W23609  42.984  23.987  10.106
55192W        W23610   2.238  17.566  10.482
55193W        W23611  34.369  44.359   9.988
55194W        W23612   5.738  35.094  13.939
55195W        W23613  20.765  25.624   5.762
55196W        W23614  14.287  18.556   3.815
55197W        W23615  11.174  39.481  14.285
55198W        W23616   7.211  25.021   3.728
55199W        W23617  25.696   3.905   3.704
55200W        W23618  27.496  24.715  14.948
55201W        W23619  27.467   8.357   4.303
55202W        W23620  37.418  40.346   4.305
55203W        W23621   1.766  10.157  11.981
55204W        W23622  26.602  41.870  10.525
55205W        W23623  44.465  19.134   3.243
55206W        W23624  37.854   5.738  12.478
55207W        W23625  27.972  26.574   2.353
55208W        W23626   8.405   5.196  14.456
55209W        W23627   9.691  20.056   4.187
55210W        W23628   1.314  25.198   2.337
55211W        W23629  42.505  33.427   2.383
55212W        W23630  37.535  32.122   4.726
55213W        W23631  30.430  16.713   1.365
55214W        W23632  14.137  32.504  14.366
55215W        W23633  29.447  30.529  14.873
55216W        W23634  44.374   7.284   0.367
55217W        W23635  29.554  40.961   3.804
55218W        W23636  30.502  21.594  12.824
55219W        W23637   8.344  30.511   1.730
55220W        W23638  13.802   7.852  13.424
55221W        W23639  23.144   2.401   0.781
55222W        W23640   4.871   8.850   1.768
55223W        W23641   1.870  39.819   3.310
55224W        W23642  29.552  39.370   4.175
55225W        W23643   9.369  14.316   2.282
55226W        W23644  42.378  35.538  12.341
55227W        W23645  33.964   0.413   0.762
55228W        W23646  41.402   6.208   4.655
55229W        W23647   4.844  23.105  10.590
55230W        W23648  28.558  44.855  13.989
55231W        W23649   2.344  32.089  10.052
55232W        W23650   1.812  27.149  12.831
55233W        W23651  16.094  33.398  13.378
55234W        W23652  27.046   8.714  13.465
55235W        W23653  33.590  28.107  12.415
55236W        W23654  33.090  16.101  12.058
55237W        W23655  38.330  36.993  11.579
55238W        W23656  16.713  44.290   0.952
55239W        W23657  15.270  36.910   2.813
55240W        W23658   0.433  12.123  13.978
55241W        W23659  23.691  14.276   3.200
55242W        W23660  11.233  13.684   1.264
55243W        W23661  41.331  28.443  14.800
55244W        W23662  20.055   0.957   3.214
55245W        W23663   0.745  11.817  11.439
55246W        W23664  39.993  26.549   0.938
55247W        W23665  31.900  43.455   4.257
55248W        W23666  44.952   6.271   1.817
55249W        W23667   2.953   3.281  11.449
55250W        W23668  44.260  14.154  14.417
55251W        W23669  26.516  44.437   0.401
55252W        W23670  42.032  11.831  14.485
55253W        W23671   2.308   2.771   4.162
55254W        W23672   3.922  30.552   0.243
55255W        W23673  11.212  35.523  13.396
55256W        W23674  10.653  15.643  12.025
55257W        W23675  12.332  28.614  11.117
55258W        W23676  31.916  21.140   0.454
55259W        W23677   5.913  30.081  13.510
55260W        W23678  19.542   6.882  13.911
55261W        W23679  23.217  36.956   2.185
55262W        W23680  28.175   3.279   4.274
55263W        W23681   7.874  11.326   1.404
55264W        W23682   6.776  40.436  14.275
55265W        W23683  21.192   5.751  12.451
55266W        W23684  16.151  29.624  12.047
55267W        W23685  26.154  35.879  13.983
55268W        W23686  36.538  37.915   0.398
55269W        W23687  21.124  32.606  10.500
55270W        W23688  11.862  38.906  14.356
55271W        W23689  23.099  14.705  13.455
55272W        W23690  36.537  21.109  12.037
55273W        W23691   2.329  12.669   5.215
55274W        W23692  24.141   0.471  12.561
55275W        W23693  41.468  20.706  12.048
55276W        W23694   6.763  24.203   2.893
55277W        W23695  20.586   3.834   1.255
55278W        W23696   4.297  21.057  13.918
55279W        W23697   0.330  44.315  10.596
55280W        W23698  26.491  43.464  13.410
55281W        W23699  37.900  41.307   0.956
55282W        W23700  20.143  26.460  14.933
55283W        W23701  35.100   1.949   0.740
55284W        W23702  44.300  32.030  11.034
55285W        W23703  15.190   2.439  13.466
55286W        W23704   7.179  32.968   4.300
55287W        W23705  44.445   5.360  12.470
55288W        W23706  39.020   1.273   2.363
55289W        W23707  28.041  21.151  14.375
55290W        W23708  19.720   9.321   3.652
55291W        W23709  34.391  41.459  10.633
55292W        W23710   2.733  34.929   0.357
55293W        W23711   8.771  30.956   1.236
55294W        W23712  22.118  16.083  14.436
55295W        W23713  39.517  28.559  11.457
55296W        W23714  17.173   6.377   9.574
55297W        W23715  30.943   2.346  10.470
55298W        W23716   8.380  42.313  13.949
55299W        W23717  43.772  42.908  12.089
55300W        W23718  41.827  19.227  13.548
55301W        W23719  26.462  27.966   5.243
55302W        W23720  27.470   1.873   1.708
55303W        W23721  11.322  24.975   0.871
55304W        W23722  18.139  15.619   2.738
55305W        W23723  22.194  11.804  12.435
55306W        W23724  29.955  35.031   0.773
55307W        W23725  42.812  41.841  12.367
55308W        W23726  26.116  23.528   1.891
55309W        W23727   5.375  10.734   3.296
55310W        W23728  13.139   1.885  12.393
55311W        W23729  33.987  16.594   2.274
55312W        W23730   5.745  37.539  11.594
55313W        W23731  10.776   5.307   1.262
55314W        W23732   6.357  10.676   2.773
55315W        W23733  44.342  13.136   2.826
55316W        W23734  18.150   2.294  11.998
55317W        W23735   5.769  10.768  14.846
55318W        W23736  12.614  21.199  10.951
55319W        W23737  23.728  29.968  11.378
55320W        W23738   2.924  11.799   0.439
55321W        W23739  39.472  13.619  12.461
55322W        W23740  39.907  31.514  10.481
55323W        W23741   2.420  29.066  10.407
55324W        W23742  30.081   4.263  13.414
55325W        W23743  22.545   5.329   4.607
55326W        W23744  17.298  37.068   1.378
55327W        W23745  36.367  32.996   1.244
55328W        W23746  23.221  21.093   1.920
55329W        W23747   5.322  32.462   0.778
55330W        W23748  20.059  38.543   1.277
55331W        W23749  27.038  38.531  14.294
55332W        W23750   6.258  34.015   4.324
55333W        W23751  18.629  24.645  14.374
55334W        W23752  31.033  37.910  13.373
55335W        W23753  25.502  24.490  13.547
55336W        W23754  23.222  44.323  13.379
55337W        W23755   2.372  35.375   3.851
55338W        W23756  21.103  32.930   3.780
55339W        W23757   6.817  41.421   2.217
55340W        W23758   9.723  31.989   4.837
55341W        W23759   2.781   4.299  11.899
55342W        W23760  23.091  20.626  11.073
55343W        W23761   9.852  29.534   1.361
55344W        W23762  16.308  41.396  14.868
55345W        W23763  34.472  20.135  13.855
55346W        W23764  18.590  30.952  13.409
55347W        W23765   3.370  11.768  10.471
55348W        W23766  31.438   5.779  11.934
55349W        W23767  20.258  32.109  14.471
55350W        W23768   0.933  36.983  10.476
55351W        W23769  34.450  39.980  10.915
55352W        W23770  28.020  28.541  12.873
55353W        W23771   8.665  41.919  13.439
55354W        W23772  11.768  34.497   2.862
55355W        W23773  17.635  10.665  13.060
55356W        W23774  19.620  32.957   3.797
55357W        W23775  13.754  41.986   0.896
55358W        W23776  43.842  35.990  10.890
55359W        W23777  42.987  29.473   3.315
55360W        W23778   3.913  34.464   0.866
55361W        W23779  42.889  20.598  11.942
55362W        W23780  16.585  42.024  10.594
55363W        W23781  30.164  25.079  10.627
55364W        W23782  36.970  28.550  13.327
55365W        W23783  22.101  20.256  14.008
55366W        W23784  35.912  18.589   3.213
55367W        W23785  25.076  41.981   0.901
55368W        W23786   9.173   1.785  14.970
55369W        W23787  30.150  38.325  12.523
55370W        W23788  32.397  37.501  12.413
55371W        W23789  17.169  23.195  14.883
55372W        W23790  34.929   8.278  12.938
55373W        W23791   7.403  26.113  13.450
55374W        W23792   5.715  38.483   1.429
55375W        W23793  34.490  23.212  11.950
55376W        W23794  43.806   3.336  13.059
55377W        W23795  24.110   4.810   1.931
55378W        W23796  37.978  33.617  10.892
55379W        W23797  23.699   2.808  14.470
55380W        W23798  43.385  43.989  13.892
55381W        W23799  42.493  14.210   9.565
55382W        W23800  40.415  26.647  12.524
55383W        W23801  29.435  32.414   4.707
55384W        W23802  44.458  27.196   3.344
55385W        W23803  35.958  41.009   2.388
55386W        W23804  41.442  22.530   3.665
55387W        W23805   8.190  17.277  12.854
55388W        W23806  19.111   0.455   1.309
55389W        W23807  17.589  36.995  14.885
55390W        W23808  18.206  12.624   1.851
55391W        W23809  35.505  35.103  10.987
55392W        W23810  15.245  17.096   1.931
55393W        W23811   9.348   8.800  14.505
55394W        W23812  40.871  18.209  14.394
55395W        W23813  10.345  16.205  14.514
55396W        W23814  24.202  18.251   3.221
55397W        W23815  20.273  16.749  14.006
55398W        W23816  43.397  19.263  14.368
55399W        W23817   4.920  20.071   1.823
55400W        W23818  44.326  27.961   5.093
55401W        W23819  17.252  14.741  10.637
55402W        W23820   4.383  35.879   0.286
55403W        W23821   6.215  33.129   2.780
55404W        W23822   8.323   3.275  13.957
55405W        W23823  32.120  26.154   3.666
55406W        W23824  36.046  44.805  12.474
55407W        W23825  41.886   1.316   0.760
55408W        W23826  27.526   7.883  14.833
55409W        W23827  44.753  31.036   3.319
55410W        W23828  43.322  35.046  12.371
55411W        W23829  15.222  11.155   3.372
55412W        W23830  11.703  11.638   3.245
55413W        W23831  15.247  29.541  14.984
55414W        W23832  34.614  17.571   3.250
55415W        W23833  43.367  12.800   2.359
55416W        W23834  21.197   9.286  12.451
55417W        W23835  37.443  15.186  14.426
55418W        W23836  43.981  17.603   0.870
55419W        W23837  23.509   2.442   4.754
55420W        W23838  25.710  25.043   4.300
55421W        W23839  11.725  31.647   4.264
55422W        W23840   9.675   0.317   0.781
55423W        W23841   6.256  26.018  12.076
55424W        W23842  28.524  19.655   0.957
55425W        W23843  18.654   2.861  14.846
55426W        W23844   4.211  35.968  10.505
55427W        W23845   6.889  44.868   0.927
55428W        W23846  39.332  44.992   3.856
55429W        W23847  21.192  36.858   4.620
55430W        W23848  25.143  11.320   1.860
55431W        W23849  31.439  42.396   2.318
55432W        W23850  29.476   8.217   5.681
55433W        W23851  32.492  41.978  11.941
55434W        W23852  29.636  39.357   1.823
55435W        W23853   9.363  15.324  10.489
55436W        W23854  24.094   1.866  13.438
55437W        W23855  41.920  30.573  12.560
55438W        W23856  11.271  11.334   3.231
55439W        W23857  23.547  40.800   3.198
55440W        W23858  38.041  11.765   4.598
55441W        W23859  11.783  31.068  14.009
55442W        W23860  19.632   5.868   2.265
55443W        W23861  20.120  31.061  11.051
55444W        W23862  35.585  25.675  11.544
55445W        W23863  22.687   6.870  11.056
55446W        W23864  12.326  40.808  13.439
55447W        W23865  33.566  14.210   3.284
55448W        W23866   2.764  32.409   1.704
55449W        W23867   9.806  20.608  14.908
55450W        W23868  24.999  28.555  14.291
55451W        W23869  43.867  10.305   2.321
55452W        W23870  27.016  17.656  13.315
55453W        W23871  25.012  32.562  13.372
55454W        W23872  20.631   9.277   2.194
55455W        W23873   7.416  19.756  12.927
55456W        W23874  15.775  20.694  11.526
55457W        W23875  17.303  35.089   4.833
55458W        W23876  16.279   2.431   2.686
55459W        W23877  42.801  37.024  14.994
55460W        W23878  44.410  11.220   4.331
55461W        W23879  41.959  42.309  13.963
55462W        W23880   9.298  28.500   1.402
55463W        W23881  42.324  14.277  12.499
55464W        W23882  31.558  25.609   4.826
55465W        W23883  15.810   3.224   3.168
55466W        W23884   0.859  27.528   0.795
55467W        W23885  22.716  12.182   2.681
55468W        W23886  36.500  26.586   3.166
55469W        W23887  37.020   8.332   0.752
55470W        W23888  24.629  38.417   0.773
55471W        W23889  37.494  11.779   1.287
55472W        W23890   7.890  25.119   4.241
55473W        W23891   4.231  22.105  11.912
55474W        W23892   0.975  31.027  12.365
55475W        W23893  40.979  23.713   3.303
55476W        W23894  38.008   4.285   3.236
55477W        W23895   5.204  17.138   3.814
55478W        W23896  11.251  25.667   2.417
55479W        W23897  43.013  16.662   3.869
55480W        W23898  14.705  42.949  11.999
55481W        W23899   3.816  28.110  11.489
55482W        W23900  17.158  37.337   0.911
55483W        W23901  25.705  36.000  11.908
55484W        W23902  20.718   0.886  12.372
55485W        W23903   1.374  16.675   1.400
55486W        W23904  42.914  43.868   1.421
55487W        W23905  20.673  24.082   3.670
55488W        W23906  32.053  19.064  13.997
55489W        W23907  12.128  34.942  10.527
55490W        W23908   4.387   2.368   3.650
55491W        W23909  29.015  12.282  12.084
55492W        W23910  30.615  10.879   3.799
55493W        W23911  37.496   5.719  11.375
55494W        W23912  15.152  18.103  10.937
55495W        W23913  17.219  24.528  10.442
55496W        W23914  21.237  12.266  14.809
55497W        W23915  15.089  34.992  11.448
55498W        W23916   1.784   3.765  12.086
55499W        W23917  25.541  30.983  12.474
55500W        W23918   7.211  35.036  13.373
55501W        W23919  41.973  16.807  12.044
55502W        W23920  21.049  12.854   4.132
55503W        W23921  44.769  43.835  13.872
55504W        W23922  23.711   3.778  13.422
55505W        W23923  13.296  15.660   1.417
55506W        W23924  26.688  33.441   4.634
55507W        W23925  43.884  34.582  12.517
55508W        W23926  33.501   5.339   0.775
55509W        W23927   1.444   0.819  12.900
55510W        W23928  44.824  12.153   2.833
55511W        W23929  18.753  23.998  11.422
55512W        W23930  37.377   2.763   3.336
55513W        W23931  13.625   4.724  13.545
55514W        W23932   6.913   4.943  11.387
55515W        W23933   5.751  44.758  13.509
55516W        W23934  15.308  31.639   0.758
55517W        W23935  30.656  11.706  12.904
55518W        W23936   6.295  15.192   2.380
55519W        W23937   5.358  15.669   3.333
55520W        W23938  34.005  20.669  13.792
55521W        W23939  34.026  14.789   4.708
55522W        W23940   7.396  18.736  12.863
55523W        W23941  19.607   1.432  10.943
55524W        W23942  37.390  41.935   1.850
55525W        W23943  25.106   5.279  12.984
55526W        W23944  14.253  40.512  13.802
55527W        W23945  43.496  38.053   3.772
55528W        W23946  13.614  43.380  12.518
55529W        W23947  29.098  34.498   2.269
55530W        W23948  19.594   2.300   1.894
55531W        W23949  23.080  16.208  14.280
55532W        W23950  10.822  44.351   3.365
55533W        W23951  21.651   3.925  14.986
55534W        W23952  34.553  39.409   1.276
55535W        W23953   4.853  42.780  10.438
55536W        W23954  23.627  18.729  10.571
55537W        W23955  44.269  38.023   1.214
55538W        W23956  33.946  15.099   0.880
55539W        W23957  29.964   4.401   2.312
55540W        W23958  24.659  18.774   0.967
55541W        W23959  19.765  11.140  11.577
55542W        W23960  23.059  10.664   1.899
55543W        W23961   4.440   1.378  12.434
55544W        W23962   1.925  35.984  14.407
55545W        W23963   7.683   5.262   1.935
55546W        W23964  38.351   5.357   0.327
55547W        W23965   4.243   3.446   2.354
55548W        W23966  13.822  20.068  12.941
55549W        W23967   0.966   0.757  13.481
55550W        W23968  15.315  10.765   2.684
55551W        W23969   9.232  16.575   2.395
55552W        W23970  35.989   4.433  11.437
55553W        W23971  41.493   2.242  10.595
55554W        W23972  33.121   1.903  14.994
55555W        W23973  39.004  38.332  13.990
55556W        W23974  33.411  23.709   4.650
55557W        W23975  25.164  37.548  10.095
55558W        W23976  36.550  24.582   0.408
55559W        W23977  37.543  10.802   3.201
55560W        W23978  16.223  42.447   4.300
55561W        W23979  38.837  37.073   2.389
55562W        W23980  15.729  14.676  11.611
55563W        W23981   3.256  13.126   5.107
55564W        W23982  18.700   2.468   2.818
55565W        W23983  25.998   9.285   1.451
55566W        W23984  26.506  10.190   3.803
55567W        W23985  14.721  36.542  13.984
55568W        W23986  17.571  27.040   3.294
55569W        W23987  12.767  34.394  14.804
55570W        W23988  27.124  37.388   3.689
55571W        W23989  17.611  26.050   0.457
55572W        W23990   7.353  12.274  13.308
55573W        W23991  16.103  37.541  14.507
55574W        W23992  13.724  34.496  10.548
55575W        W23993  30.493  33.395  11.904
55576W        W23994  13.348  37.468  12.558
55577W        W23995  39.550  27.197  11.525
55578W        W23996   9.801   1.424  14.339
55579W        W23997  25.175  19.772   2.667
55580W        W23998  37.581  12.237  13.538
55581W        W23999  28.995  22.547   3.785
55582W        W24000  19.623   9.201   2.688
55583W        W24001  30.155  27.160  11.591
55584W        W24002  12.795   2.776  10.477
55585W        W24003  38.899   5.757  13.339
55586W        W24004  10.778  36.935  11.907
55587W        W24005  27.153  12.844  13.891
55588W        W24006  40.509  17.566  11.963
55589W        W24007  32.996  34.422   3.799
55590W        W24008  30.475   9.824  12.835
55591W        W24009  17.150  22.590  14.775
55592W        W24010  28.644   3.791  14.787
55593W        W24011  39.432  20.121  14.920
55594W        W24012   4.266  32.609  11.446
55595W        W24013   3.367  28.161  11.550
55596W        W24014  35.904   3.386  14.926
55597W        W24015  39.540  25.643  12.863
55598W        W24016   5.321  44.806  11.016
55599W        W24017  36.032  18.268   0.247
55600W        W24018   9.207  23.139   1.851
55601W        W24019  31.936   9.351   0.437
55602W        W24020  22.149  40.316  13.040
55603W        W24021  38.883  16.653  11.428
55604W        W24022  37.557  16.186  14.844
55605W        W24023   9.875   3.457  11.944
55606W        W24024  37.409   8.737  10.463
55607W        W24025  18.739  36.980   4.630
55608W        W24026  32.969   3.756  14.828
55609W        W24027   3.893   8.271  13.967
55610W        W24028  43.467  23.131  11.411
55611W        W24029  31.596   4.225  11.952
55612W        W24030  35.400  26.164  12.865
55613W        W24031  43.379  15.216   4.829
55614W        W24032  35.466  41.480  11.554
55615W        W24033  29.015  44.817  14.846
55616W        W24034  19.584  30.096   4.711
55617W        W24035  37.016   8.308  13.054
55618W        W24036  24.712  43.848  11.071
55619W        W24037  42.817   3.418   1.778
55620W        W24038  25.098   2.917  13.024
55621W        W24039  29.545  13.268  10.979
55622W        W24040  20.625   4.796  14.333
55623W        W24041  14.620  11.145   1.316
55624W        W24042   3.362  18.113   1.422
55625W        W24043   5.330   5.329  11.094
55626W        W24044  14.313   8.187  14.371
55627W        W24045  36.858  35.488  15.000
55628W        W24046  22.642   9.300  13.527
55629W        W24047   9.744   1.459  10.404
55630W        W24048  15.751   6.331   1.343
55631W        W24049  30.963   0.934  12.927
55632W        W24050  41.528  31.460   0.463
55633W        W24051  43.952  20.583   2.319
55634W        W24052  19.643  10.314   5.322
55635W        W24053   2.397  27.158   2.203
55636W        W24054  38.050  41.927   3.231
55637W        W24055  38.835   1.376  12.059
55638W        W24056   5.786  16.579   0.254
55639W        W24057  27.504   7.776   4.329
55640W        W24058  20.265  37.472  11.509
55641W        W24059   3.820  36.406  10.486
55642W        W24060  44.798  30.589   4.642
55643W        W24061  36.499  20.247  11.025
55644W        W24062   8.841  44.444  10.040
55645W        W24063  43.899  26.959   1.763
55646W        W24064  25.534  17.788   4.155
55647W        W24065  35.893  25.683  12.460
55648W        W24066   6.812   1.733  11.924
55649W        W24067  29.148  14.597  10.609
55650W        W24068  43.964  12.213   9.444
55651W        W24069  34.960  18.209   3.320
55652W        W24070  34.394  23.134  11.444
55653W        W24071  21.746  17.782   0.730
55654W        W24072  30.125  40.832  13.883
55655W        W24073  13.688  15.196  13.399
55656W        W24074  34.957  38.480   3.218
55657W        W24075  43.928  24.092  10.086
55658W        W24076  11.208  37.930  11.405
55659W        W24077  19.612  26.479   5.228
55660W        W24078  24.714   1.291   4.234
55661W        W24079  36.841   5.860   2.202
55662W        W24080  18.113  25.192  10.117
55663W        W24081  34.951  23.130  14.947
55664W        W24082  36.053  14.704  13.445
55665W        W24083   9.665   2.944   0.917
55666W        W24084   2.428   5.328  14.416
55667W        W24085  42.873  35.482   2.379
55668W        W24086  37.919  24.566  14.030
55669W        W24087  20.694  42.009   4.742
55670W        W24088  21.180  26.981   3.253
55671W        W24089  23.180  15.636  11.584
55672W        W24090  15.784  28.511   3.305
55673W        W24091  34.979  15.774   2.270
55674W        W24092  42.421   9.721   1.910
55675W        W24093  29.533  39.944   3.385
55676W        W24094  10.689  19.775  10.543
55677W        W24095  32.535  41.531  13.326
55678W        W24096  40.320  24.584   2.209
55679W        W24097  18.232  25.705  11.547
55680W        W24098  22.107  43.325   1.381
55681W        W24099  32.915  12.741  13.900
55682W        W24100  16.608   7.325   3.352
55683W        W24101  39.863  10.758   2.863
55684W        W24102  15.274  37.040   4.341
55685W        W24103  36.425  12.127  13.869
55686W        W24104  28.495   6.417   5.756
55687W        W24105  40.429  14.750  13.343
55688W        W24106  34.466  11.778   4.779
55689W        W24107   8.807  21.589  11.109
55690W        W24108   2.733   1.946  11.552
55691W        W24109   9.676  44.980  10.413
55692W        W24110  26.138  23.528  12.907
55693W        W24111  31.031  12.706  14.312
55694W        W24112  36.072   1.875  14.472
55695W        W24113  31.558  12.740  14.428
55696W        W24114  10.200  23.988   3.245
55697W        W24115  10.658  43.773   3.274
55698W        W24116  14.605  20.142  12.368
55699W        W24117  39.015  36.527   4.161
55700W        W24118  14.766  20.159  10.409
55701W        W24119  34.460  26.636   0.882
55702W        W24120  42.441  41.844  11.011
55703W        W24121  39.520   0.366  13.886
55704W        W24122  43.949  23.589  11.862
55705W        W24123  38.011  40.538   1.294
55706W        W24124   6.228  16.700  14.507
55707W        W24125   7.175  11.622   3.242
55708W        W24126  22.689   6.716  13.449
55709W        W24127  10.847   0.444  13.822
55710W        W24128  18.725   3.711  13.953
55711W        W24129  12.662  28.929  11.054
55712W        W24130  31.563  26.703   3.831
55713W        W24131  43.856   1.368  14.483
55714W        W24132  16.811  18.584   1.350
55715W        W24133  35.088  33.438  12.420
55716W        W24134  21.103  31.054  13.004
55717W        W24135  28.128  33.420  11.454
55718W        W24136  20.095   8.844   3.358
55719W        W24137  36.076   1.437   2.295
55720W        W24138  21.027   3.896  12.057
55721W        W24139  32.083  20.671  13.384
55722W        W24140  38.395  35.545   2.364
55723W        W24141   7.305  24.690   3.296
55724W        W24142  42.833  40.481   3.364
55725W        W24143  15.181   5.772   2.335
55726W        W24144   6.738   2.469  12.974
55727W        W24145   6.266   8.824   2.839
55728W        W24146  33.049  40.379   1.927
55729W        W24147  43.451   8.239  14.378
55730W        W24148  19.575  24.561  11.377
55731W        W24149  29.574  39.540   0.935
55732W        W24150   8.823  11.788  10.619
55733W        W24151  25.525  43.476   3.849
55734W        W24152   6.246  11.236  10.076
55735W        W24153  10.238   5.282   4.816
55736W        W24154  25.494  17.785  14.855
55737W        W24155  23.579  16.791   1.863
55738W        W24156   3.372   5.703   3.860
55739W        W24157  13.221  18.545   2.780
55740W        W24158  36.892  33.622   1.419
55741W        W24159  21.611  25.169  12.496
55742W        W24160   8.787  14.699   4.151
55743W        W24161   6.190  20.665   4.145
55744W        W24162  37.028  23.621   0.385
55745W        W24163  35.903  40.520  10.423
55746W        W24164   4.789  34.456  12.451
55747W        W24165  21.753  22.639  11.452
55748W        W24166  16.096  36.011  14.284
55749W        W24167  12.730  17.736   0.353
55750W        W24168  27.464  39.051   2.366
55751W        W24169  22.667  10.319   0.305
55752W        W24170   7.241  14.236   4.767
55753W        W24171  44.893  23.001   3.645
55754W        W24172  26.147  42.899  13.837
55755W        W24173  17.556  20.614   1.337
55756W        W24174  44.804  14.648  10.058
55757W        W24175   7.740  42.921  13.405
55758W        W24176  14.213   3.784   5.120
55759W        W24177  12.298  29.162  10.973
55760W        W24178  20.735  39.034  11.123
55761W        W24179   7.216   6.321   4.750
55762W        W24180   5.783  36.363   3.225
55763W        W24181   3.721  20.579   3.214
55764W        W24182   8.196  21.634   2.395
55765W        W24183  10.813  16.072   0.787
55766W        W24184   7.912  21.028  12.835
55767W        W24185  43.909  15.657   4.211
55768W        W24186   5.392  39.537   0.891
55769W        W24187  26.661   1.839  13.801
55770W        W24188  17.246  40.880  11.611
55771W        W24189  35.981  43.480   3.380
55772W        W24190   3.785  36.487  12.060
55773W        W24191   4.321   1.968  10.600
55774W        W24192  40.340  14.289  13.464
55775W        W24193  11.186  39.966   1.245
55776W        W24194  20.140  26.483   4.314
55777W        W24195  28.967  33.526  12.579
55778W        W24196  29.662  23.616   0.925
55779W        W24197  14.184  14.239   0.939
55780W        W24198   2.883  36.861  13.319
55781W        W24199  37.844  43.928  10.930
55782W        W24200  27.593  22.591   0.805
55783W        W24201  35.052   3.414   3.293
55784W        W24202   8.808  15.683  13.056
55785W        W24203  10.785   5.333   0.360
55786W        W24204  29.658   9.765  10.594
55787W        W24205  37.409   6.818   4.205
55788W        W24206  29.084  27.542   3.370
55789W        W24207   8.894  40.491  14.430
55790W        W24208  10.707  19.251   1.283
55791W        W24209   1.944  19.732  11.862
55792W        W24210  36.511   8.768   1.242
55793W        W24211  42.931  38.327   1.777
55794W        W24212  36.387  24.623  13.419
55795W        W24213  27.148   9.708  13.900
55796W        W24214   0.751  11.266  11.528
55797W        W24215   1.390  19.272  11.453
55798W        W24216  12.673  11.352   0.332
55799W        W24217  27.470  23.548   1.347
55800W        W24218  40.031  40.395  10.994
55801W        W24219  21.192  26.203  14.487
55802W        W24220  38.340  42.963   4.684
55803W        W24221  19.234  38.962   2.737
55804W        W24222   8.286  31.917   0.454
55805W        W24223  21.201   7.324  14.484
55806W        W24224  20.266  20.662  14.837
55807W        W24225  34.000   5.723  12.080
55808W        W24226  22.076  37.360   3.321
55809W        W24227  17.669   7.746  14.782
55810W        W24228  37.570  17.699  12.888
55811W        W24229  17.758  32.562   1.898
55812W        W24230  19.094  32.423   0.925
55813W        W24231  13.188  20.663  10.476
55814W        W24232  18.060  35.096   3.821
55815W        W24233  36.541  43.837   0.341
55816W        W24234  16.702   2.896  10.493
55817W        W24235  42.865  29.597  11.072
55818W        W24236   4.803  39.504  13.441
55819W        W24237   7.813  29.507   2.307
55820W        W24238  28.953  22.096   0.245
55821W        W24239  29.656   0.948  13.014
55822W        W24240  37.860  21.031  12.451
55823W        W24241  23.214  17.188  14.978
55824W        W24242  35.512  19.268  11.577
55825W        W24243  29.998  40.843  11.961
55826W        W24244   1.326  15.631   3.772
55827W        W24245  42.025  29.586   4.186
55828W        W24246  24.568  22.227  10.904
55829W        W24247  35.092   4.377   3.255
55830W        W24248  10.252  44.961  10.092
55831W        W24249   0.916  35.047  14.495
55832W        W24250  17.571  26.185   4.603
55833W        W24251  23.666  39.444   4.708
55834W        W24252  13.630  32.930  11.399
55835W        W24253   4.378  27.095   4.227
55836W        W24254  44.799  33.042   3.832
55837W        W24255  35.990  32.958   0.337
55838W        W24256  10.648  39.967  10.427
55839W        W24257  33.417  34.394   0.391
55840W        W24258  10.745  13.332   2.685
55841W        W24259  42.855  12.265   4.165
55842W        W24260  11.785  14.803   0.746
55843W        W24261  17.166  17.068  13.332
55844W        W24262  21.641  17.119  13.379
55845W        W24263   5.909  41.017  11.455
55846W        W24264   4.436  35.559   4.763
55847W        W24265  24.095  10.347  11.536
55848W        W24266  10.306   1.740  14.970
55849W        W24267  22.728  27.010   3.203
55850W        W24268   9.693   6.347   0.907
55851W        W24269  29.480  12.637   5.276
55852W        W24270  10.707   0.861   4.747
55853W        W24271  13.317  30.583   1.812
55854W        W24272  29.512  40.814  14.887
55855W        W24273  30.115  12.728   4.741
55856W        W24274  15.672  12.125  10.515
55857W        W24275  44.769   8.740  14.415
55858W        W24276  15.730  22.658  13.801
55859W        W24277  24.090  15.670  11.869
55860W        W24278  41.430  35.873   4.336
55861W        W24279   5.418  35.975  14.496
55862W        W24280  31.900  16.232   4.710
55863W        W24281  11.359  17.143   0.813
55864W        W24282  44.346   2.874  13.012
55865W        W24283  43.814  15.814   2.204
55866W        W24284  30.098  10.219  14.926
55867W        W24285  12.259  10.765   3.169
55868W        W24286  44.762  44.788   2.730
55869W        W24287   3.274  26.697   0.283
55870W        W24288  25.185  26.627   0.323
55871W        W24289  22.124   3.351   3.190
55872W        W24290  13.700  31.088   1.424
55873W        W24291   6.840  38.009   4.116
55874W        W24292  27.517  13.644   1.742
55875W        W24293  19.100   2.377  11.540
55876W        W24294  23.235  23.596  12.083
55877W        W24295  35.391  40.991   2.288
55878W        W24296  39.469  23.540  10.566
55879W        W24297  22.649  35.978  10.590
55880W        W24298   0.380  23.605   2.343
55881W        W24299  16.095  30.633   3.870
55882W        W24300  25.565   6.254  11.994
55883W        W24301  24.154  30.470   1.272
55884W        W24302  34.594  12.316   2.354
55885W        W24303   7.735  38.975   4.792
55886W        W24304  42.479  34.381   4.828
55887W        W24305  19.194  37.926   0.829
55888W        W24306  37.464   8.301  12.415
55889W        W24307  24.560  14.221   2.210
55890W        W24308   1.275  34.894   2.903
55891W        W24309   0.299  19.225  13.406
55892W        W24310  32.038  42.375  11.559
55893W        W24311  27.002   0.771  13.848
55894W        W24312  35.995   3.459   3.681
55895W        W24313  32.039  15.741  10.533
55896W        W24314  44.848  14.274  14.511
55897W        W24315  44.296  18.694   9.936
55898W        W24316  13.683   1.332  13.802
55899W        W24317  41.418  44.448  13.515
55900W        W24318  39.480  10.382  14.929
55901W        W24319   4.210  11.169  10.536
55902W        W24320  34.022  42.959  13.025
55903W        W24321  29.140  32.948   1.811
55904W        W24322  19.279  21.180   4.123
55905W        W24323  39.506  36.042  11.097
55906W        W24324  11.865  15.326  11.912
55907W        W24325   8.773   7.363   4.687
55908W        W24326  40.948  15.785  14.014
55909W        W24327  12.159  12.822  12.442
55910W        W24328  39.840  15.714  11.955
55911W        W24329  35.418  25.137  10.590
55912W        W24330  27.490  20.056   0.482
55913W        W24331   7.309  38.977  11.875
55914W        W24332  23.532  42.824   3.248
55915W        W24333  19.128  32.401   1.875
55916W        W24334  28.522   3.426   1.766
55917W        W24335  22.182  31.434   1.890
55918W        W24336  11.748  25.492   4.821
55919W        W24337  13.270  21.192  11.437
55920W        W24338   5.327  26.173   2.798
55921W        W24339  34.064  38.390  14.486
55922W        W24340  21.697  41.381   3.730
55923W        W24341  35.012   9.753   0.837
55924W        W24342  35.553   3.444   4.754
55925W        W24343  17.276  29.088   1.212
55926W        W24344  43.825  27.528  10.520
55927W        W24345  43.804   3.921   2.818
55928W        W24346  34.003  42.928   9.961
55929W        W24347  44.962  22.075   0.798
55930W        W24348  17.137  24.686  11.062
55931W        W24349  26.048  22.193   4.655
55932W        W24350  29.540  31.978   1.777
55933W        W24351  42.918  15.742   4.320
55934W        W24352  26.162  37.512  14.771
55935W        W24353  15.324   6.226  11.101
55936W        W24354  21.572  18.055  11.061
55937W        W24355  44.449  19.065   4.604
55938W        W24356  27.573  11.272  13.922
55939W        W24357  32.997   3.455  13.525
55940W        W24358  43.483  38.520  10.476
55941W        W24359  28.634  29.984   0.401
55942W        W24360  10.263   0.851   2.893
55943W        W24361  14.648   2.734   3.633
55944W        W24362  24.011  17.600  12.878
55945W        W24363  30.626  26.658   1.324
55946W        W24364  27.109  26.131  12.407
55947W        W24365  42.295  10.167   1.348
55948W        W24366  35.033  39.425   4.688
55949W        W24367  16.146  36.917  13.956
55950W        W24368   3.362  33.878   4.601
55951W        W24369   1.409  31.572   3.229
55952W        W24370  41.523  10.858   4.186
55953W        W24371  15.298  15.804  12.960
55954W        W24372  43.326  27.035  14.969
55955W        W24373  24.147  11.246   4.604
55956W        W24374  32.026  11.208  12.469
55957W        W24375  42.984   3.721   3.763
55958W        W24376   7.864  39.896  12.419
55959W        W24377  27.621   1.408   0.260
55960W        W24378   4.368  20.755  14.023
55961W        W24379  32.952   9.190   1.377
55962W        W24380   8.202   0.816   1.774
55963W        W24381  34.048  27.476  13.480
55964W        W24382  33.112   6.766  10.953
55965W        W24383  17.778  22.599  11.035
55966W        W24384  30.994  42.852   3.719
55967W        W24385  40.483  27.515   3.257
55968W        W24386  11.321  32.483   2.256
55969W        W24387  42.950  34.476  12.978
55970W        W24388  37.480  20.676   0.436
55971W        W24389   9.185  29.667  10.084
55972W        W24390  44.900   7.683  12.437
55973W        W24391   8.697  12.768   2.247
55974W        W24392  39.987  14.801   4.833
55975W        W24393   7.746  37.863   1.378
55976W        W24394  39.413  37.477   1.376
55977W        W24395  24.223  38.860   4.746
55978W        W24396   0.452  20.252   4.681
55979W        W24397  40.923   5.920   3.314
55980W        W24398   4.295  38.844   2.713
55981W        W24399  17.202  19.626   1.794
55982W        W24400  29.086   5.751   2.774
55983W        W24401  25.571  38.364  11.474
55984W        W24402   3.257  11.861   1.426
55985W        W24403  19.217  22.721   1.347
55986W        W24404   5.732  38.413   4.173
55987W        W24405  30.923  19.689  10.018
55988W        W24406  22.075  33.602  13.514
55989W        W24407   0.896   4.246  10.632
55990W        W24408   0.479  40.500   2.784
55991W        W24409   1.747  15.777  14.017
55992W        W24410  26.605   7.289  10.092
55993W        W24411   7.314   0.253  10.636
55994W        W24412   3.418  34.529  11.499
55995W        W24413  21.728  14.153  10.952
55996W        W24414   1.873  14.670  14.004
55997W        W24415  12.339  29.471   1.330
55998W        W24416  14.269  38.996  10.605
55999W        W24417   3.359  26.530  10.953
56000W        W24418  14.142  24.025  10.559
56001W        W24419  12.204  44.814   4.748
56002W        W24420  18.605   7.323   0.943
56003W        W24421   9.769  18.148  10.561
56004W        W24422  32.059  37.508  10.462
56005W        W24423  14.288   1.239  13.318
56006W        W24424  26.680  38.353  13.039
56007W        W24425   5.787  11.674  14.843
56008W        W24426  34.886  13.808   2.814
56009W        W24427   1.354   3.383   3.371
56010W        W24428  24.086  33.559  11.488
56011W        W24429   2.806  15.140   0.469
56012W        W24430  12.768  44.777  11.982
56013W        W24431  33.613  43.785  13.797
56014W        W24432  23.554  36.573  14.481
56015W        W24433  19.248   2.810  13.836
56016W        W24434  43.371  36.972  11.557
56017W        W24435   8.277  19.559  14.973
56018W        W24436  36.354  36.921   3.813
56019W        W24437   2.397   4.274   3.318
56020W        W24438  44.333  42.792  10.039
56021W        W24439  20.057  14.611   2.233
56022W        W24440  18.767  14.814  13.451
56023W        W24441  16.151   0.834   1.901
56024W        W24442  16.278  43.854  10.639
56025W        W24443  18.245  18.587  12.485
56026W        W24444  22.563  11.311  13.892
56027W        W24445  28.475  10.786   0.762
56028W        W24446  40.001   0.903   1.736
56029W        W24447  31.134  26.648  14.797
56030W        W24448  16.601  40.022   0.932
56031W        W24449  33.549  22.553   3.675
56032W        W24450  24.197  29.642  10.612
56033W        W24451  10.870  33.529  11.456
56034W        W24452  20.127  13.786   4.261
56035W        W24453  33.098   2.308   2.262
56036W        W24454   2.868  10.831  11.488
56037W        W24455   2.389  40.046  12.902
56038W        W24456  28.089  23.640   0.805
56039W        W24457  29.091   4.223   2.767
56040W        W24458  31.942  18.652  13.348
56041W        W24459  26.681  18.061   0.482
56042W        W24460  23.047  27.001   4.784
56043W        W24461  13.198  24.133  11.425
56044W        W24462   0.429  24.676   4.603
56045W        W24463   6.378  40.421  11.978
56046W        W24464   7.842   1.904  12.436
56047W        W24465  28.088  41.914  13.899
56048W        W24466  12.741   4.884   5.165
56049W        W24467  12.199  11.133   2.228
56050W        W24468  23.652  21.047  13.367
56051W        W24469  31.452  43.955  12.465
56052W        W24470   2.357  24.481   3.373
56053W        W24471   8.400  30.926   4.121
56054W        W24472  12.328   7.735  14.416
56055W        W24473  16.215  32.976   0.801
56056W        W24474  11.294  42.957   0.838
56057W        W24475  42.994  20.109  12.039
56058W        W24476  34.103  24.006   1.709
56059W        W24477   5.331  10.255   0.267
56060W        W24478  24.046  40.361   2.810
56061W        W24479   0.880  30.148   0.269
56062W        W24480  39.440  15.773  11.116
56063W        W24481  40.040  22.207  10.922
56064W        W24482  13.609  36.075  12.535
56065W        W24483  11.330  12.654  11.598
56066W        W24484   7.217   9.774  12.400
56067W        W24485  41.489  30.653   2.870
56068W        W24486  42.781  39.345   1.288
56069W        W24487  26.534  40.507   5.091
56070W        W24488  32.120  42.477  11.937
56071W        W24489  15.189  18.673   1.398
56072W        W24490  36.382  21.068   4.171
56073W        W24491  32.536  38.325   1.400
56074W        W24492  17.245   0.452  13.521
56075W        W24493  11.866  42.952   3.272
56076W        W24494  25.494  19.692  12.432
56077W        W24495  25.655  13.111  13.003
56078W        W24496  19.260  17.594  11.124
56079W        W24497  32.622  10.265  11.936
56080W        W24498  21.071  37.832   2.809
56081W        W24499  38.516  29.659  14.437
56082W        W24500  41.322  44.843  13.468
56083W        W24501  16.228   5.855  13.940
56084W        W24502  10.214  19.269   2.667
56085W        W24503  28.176  42.289   1.420
56086W        W24504  19.156  14.118   0.483
56087W        W24505  19.149  31.442   1.781
56088W        W24506  31.519  44.000  13.436
56089W        W24507  12.799  33.102   3.204
56090W        W24508  43.509  41.851  14.403
56091W        W24509   8.201   9.263  11.941
56092W        W24510  30.431  37.998  13.844
56093W        W24511  14.097  38.821  13.893
56094W        W24512  38.410  16.146  12.048
56095W        W24513  36.962   9.711  10.458
56096W        W24514  17.066  17.684   3.869
56097W        W24515  41.377  43.909  13.052
56098W        W24516  36.378  39.996  10.001
56099W        W24517  11.363  16.202   1.266
56100W        W24518  20.639  24.716  12.916
56101W        W24519  12.830  39.454   0.454
56102W        W24520  14.709  40.437   3.749
56103W        W24521  11.657  34.583   1.449
56104W        W24522  38.467   5.760  10.908
56105W        W24523  28.463  11.763  12.042
56106W        W24524   5.732  30.074   2.748
56107W        W24525  15.751   2.912  12.400
56108W        W24526  33.942   0.897  12.069
56109W        W24527  41.910  39.925   3.774
56110W        W24528  27.097  32.501   4.118
56111W        W24529  43.944   0.459  12.364
56112W        W24530  25.211  26.672  14.401
56113W        W24531  15.776  28.165  14.798
56114W        W24532  25.547  23.118  13.315
56115W        W24533   0.354   9.229   2.837
56116W        W24534  41.496  44.895   1.261
56117W        W24535  17.584  11.670  12.064
56118W        W24536   7.812  44.414  11.539
56119W        W24537  30.534  14.727  13.048
56120W        W24538  39.824  32.989   2.368
56121W        W24539  21.069  27.646   1.895
56122W        W24540  41.939   0.950  12.351
56123W        W24541  35.506   4.228  14.816
56124W        W24542  17.576  16.789   4.342
56125W        W24543  22.583  22.199  10.558
56126W        W24544  22.195  15.131  14.923
56127W        W24545  25.141  26.189  10.924
56128W        W24546  15.766   5.400   0.311
56129W        W24547   8.728  24.989  13.858
56130W        W24548  38.530   7.413  13.966
56131W        W24549   0.297  36.068   0.787
56132W        W24550  17.276  32.999  11.944
56133W        W24551  16.105  29.967   0.740
56134W        W24552  18.279  26.613  10.083
56135W        W24553  10.793  43.836   2.889
56136W        W24554  30.042   4.754  12.410
56137W        W24555   2.382   5.825  11.005
56138W        W24556   2.375   6.909   3.271
56139W        W24557  42.022  24.136  11.565
56140W        W24558   5.739  24.530   3.850
56141W        W24559  22.716   0.980   3.176
56142W        W24560  35.572  30.575  13.851
56143W        W24561  22.664  24.016   1.339
56144W        W24562   4.241  29.109  13.028
56145W        W24563  36.051  18.611   4.740
56146W        W24564  29.559  27.665   4.795
56147W        W24565  21.602  37.520   0.897
56148W        W24566   2.956  12.298  13.315
56149W        W24567  30.464  41.482  10.446
56150W        W24568   8.245  32.897  11.569
56151W        W24569  11.660  37.367  14.903
56152W        W24570   7.838   0.298  10.074
56153W        W24571  21.228  36.538  11.561
56154W        W24572  36.408  17.091   3.796
56155W        W24573  20.755  29.126  13.502
56156W        W24574   0.813  18.257   4.331
56157W        W24575  17.194  33.410  10.054
56158W        W24576  17.303  25.107  10.145
56159W        W24577  19.749  43.865   3.634
56160W        W24578   8.375  25.533  10.575
56161W        W24579  12.812  42.800   3.724
56162W        W24580  33.451  36.587  10.617
56163W        W24581  19.098  27.626   0.886
56164W        W24582  30.007  35.430  13.398
56165W        W24583  34.613  24.079  10.422
56166W        W24584   2.946  22.570  11.068
56167W        W24585  42.300  38.905   9.643
56168W        W24586  22.621  33.050  12.459
56169W        W24587  28.502   3.735  11.561
56170W        W24588  10.155  41.878  13.881
56171W        W24589  36.440  43.943  12.975
56172W        W24590  28.520  10.300  14.828
56173W        W24591  37.834   8.880  13.965
56174W        W24592   2.459  21.533  10.519
56175W        W24593  34.439  29.168   2.220
56176W        W24594   8.728   6.262   5.083
56177W        W24595  41.306  23.116  14.446
56178W        W24596   9.238   0.370   2.725
56179W        W24597   4.208  23.187  14.294
56180W        W24598  25.107  11.729   3.645
56181W        W24599  40.962  33.065   1.396
56182W        W24600  13.190  36.982  10.566
56183W        W24601  42.377  11.177   9.508
56184W        W24602   4.244  36.574  10.435
56185W        W24603   0.310  30.518   2.792
56186W        W24604   2.419  18.594   2.243
56187W        W24605  14.650  12.158   1.314
56188W        W24606  39.055  41.940   1.784
56189W        W24607  17.192  36.001   1.882
56190W        W24608  19.048  15.168   2.757
56191W        W24609  10.167   2.234  11.573
56192W        W24610   3.241  13.347  12.497
56193W        W24611   1.861   3.940  12.968
56194W        W24612  23.591   8.228   3.748
56195W        W24613  34.452  40.927  13.799
56196W        W24614  16.670  24.708   3.242
56197W        W24615  38.934   3.760   4.689
56198W        W24616  37.057  37.078   4.303
56199W        W24617  40.505  10.139   3.214
56200W        W24618  39.048  17.083  13.003
56201W        W24619  30.657  10.807  11.040
56202W        W24620  18.271  15.087  14.942
56203W        W24621   5.739  37.080   0.480
56204W        W24622  41.033  33.127  11.883
56205W        W24623  42.364  11.324  14.451
56206W        W24624  31.064  40.406   2.202
56207W        W24625   3.848  10.761   3.284
56208W        W24626  19.637  12.773  11.452
56209W        W24627  42.841  10.285  10.044
56210W        W24628  13.650  36.097  13.808
56211W        W24629  17.572  42.868  11.077
56212W        W24630  38.072  37.075   3.259
56213W        W24631  38.488  36.418  13.355
56214W        W24632  22.714  33.614  10.456
56215W        W24633  26.204  40.895   3.228
56216W        W24634  29.075  27.138  10.602
56217W        W24635  41.894  44.943   0.938
56218W        W24636  22.206  34.921  13.320
56219W        W24637  42.856  40.817  11.897
56220W        W24638  35.913  13.207  10.431
56221W        W24639  20.216  29.471   4.277
56222W        W24640  22.147  43.439  12.403
56223W        W24641  29.072  22.247  13.431
56224W        W24642  33.034  14.100   4.263
56225W        W24643  44.317   6.809   4.239
56226W        W24644  11.840  27.677   0.340
56227W        W24645   7.910  41.520  13.798
56228W        W24646  34.887  39.425   4.129
56229W        W24647  13.756  21.619  12.459
56230W        W24648  21.578  19.190  12.850
56231W        W24649  39.505  38.550  11.571
56232W        W24650  27.557   9.217   3.857
56233W        W24651   4.719  30.163   4.341
56234W        W24652  19.622  36.960  14.457
56235W        W24653   7.287  44.908  10.975
56236W        W24654  30.934  21.048  10.599
56237W        W24655  31.994  28.109  13.969
56238W        W24656   8.324  15.103   2.774
56239W        W24657  40.993  14.294  13.001
56240W        W24658   3.401  10.695  12.541
56241W        W24659   2.741  31.605  13.997
56242W        W24660  43.973  31.030  12.993
56243W        W24661  39.876  23.645   2.662
56244W        W24662  42.398  11.654   9.595
56245W        W24663  28.525  19.748  12.071
56246W        W24664  41.899   0.307  13.794
56247W        W24665  26.966   8.777   3.325
56248W        W24666   1.394   7.248   4.257
56249W        W24667  39.382  22.616   1.288
56250W        W24668  26.118  22.013  10.620
56251W        W24669  28.549  21.605  12.824
56252W        W24670   7.871   8.853  13.487
56253W        W24671  33.038  34.943  14.783
56254W        W24672   8.206  19.741  13.469
56255W        W24673  29.613  21.634   3.304
56256W        W24674  24.182   2.386   3.291
56257W        W24675   5.855  11.275  14.960
56258W        W24676   6.899  15.779   1.788
56259W        W24677  30.613  37.527  10.567
56260W        W24678  36.906   8.304   1.378
56261W        W24679  21.627  23.500   3.827
56262W        W24680  26.493  11.224   4.748
56263W        W24681  30.047  22.525   2.222
56264W        W24682  21.596   0.824   0.288
56265W        W24683   3.401  19.741   2.381
56266W        W24684  26.515  41.802   1.873
56267W        W24685   9.227  34.996   4.322
56268W        W24686  28.000  15.088  12.983
56269W        W24687  42.003  13.800  11.434
56270W        W24688   1.941   2.278   2.262
56271W        W24689  26.514  12.127   1.426
56272W        W24690  40.963   6.880   0.261
56273W        W24691  23.700  36.411  11.127
56274W        W24692   8.748  23.201   3.179
56275W        W24693  44.362  41.454  13.519
56276W        W24694   8.205  43.375   4.625
56277W        W24695  17.567  25.130  11.930
56278W        W24696   3.442   2.239  13.328
56279W        W24697  13.276  33.946   3.199
56280W        W24698  24.702  40.408  10.622
56281W        W24699  10.785  13.268   3.298
56282W        W24700  24.486  32.566   1.819
56283W        W24701  39.492  25.561   2.686
56284W        W24702   9.756  16.728   3.645
56285W        W24703  28.628   7.719   2.330
56286W        W24704  16.318  21.210  14.799
56287W        W24705  29.977  16.159  13.543
56288W        W24706  35.461   7.853  12.838
56289W        W24707  23.127  22.511   0.866
56290W        W24708  41.319  31.517  13.968
56291W        W24709  19.239   6.723  13.861
56292W        W24710   8.774  44.308   2.856
56293W        W24711  43.922  44.390  12.902
56294W        W24712  41.365  26.623   0.932
56295W        W24713   6.327  28.932  10.888
56296W        W24714   3.745   1.978   4.342
56297W        W24715  43.771  19.772  11.548
56298W        W24716   8.318   1.430   2.771
56299W        W24717   3.343  35.996  11.904
56300W        W24718  29.469  42.444  12.834
56301W        W24719  39.852  31.153  14.923
56302W        W24720   9.841  43.482  10.634
56303W        W24721  39.437  19.234   2.882
56304W        W24722  21.192  38.852   0.735
56305W        W24723  27.521   8.326  12.515
56306W        W24724  12.693   7.347   1.270
56307W        W24725  22.010  29.953  14.275
56308W        W24726  26.095  37.032  13.316
56309W        W24727   4.792   3.361   1.353
56310W        W24728  42.371   8.669   3.384
56311W        W24729  41.293   3.877  10.639
56312W        W24730   6.835  35.042   3.820
56313W        W24731  27.012  27.106   3.296
56314W        W24732  43.858  17.140   1.433
56315W        W24733  22.218  21.672   3.304
56316W        W24734  44.283  22.239   4.128
56317W        W24735  18.107  13.150  14.449
56318W        W24736  37.885  26.563   2.708
56319W        W24737  37.368  26.496  10.439
56320W        W24738  14.202  30.495  13.390
56321W        W24739  35.444  13.194   4.834
56322W        W24740   7.841  22.232  14.350
56323W        W24741  14.136   6.416   3.761
56324W        W24742  10.740  10.856  11.029
56325W        W24743  35.907  31.929   3.223
56326W        W24744  34.981   1.776  13.948
56327W        W24745  18.250  21.682  14.934
56328W        W24746  41.477  11.292  13.842
56329W        W24747  26.585  35.571   2.825
56330W        W24748  15.086  30.597   2.728
56331W        W24749  44.951  34.390  14.761
56332W        W24750  25.674  39.394  11.498
56333W        W24751   6.281  15.214   4.320
56334W        W24752  11.311  16.734   2.742
56335W        W24753  43.969   5.396  11.906
56336W        W24754  35.412  34.981  14.469
56337W        W24755  22.728   7.828   1.927
56338W        W24756  39.927  37.508  14.463
56339W        W24757  24.608  15.150  14.759
56340W        W24758  10.210  31.622  13.432
56341W        W24759  34.543  41.526   2.901
56342W        W24760  17.607  22.035   4.286
56343W        W24761  37.355  20.730  14.792
56344W        W24762  17.727   0.284  13.935
56345W        W24763  43.839  10.368   4.799
56346W        W24764  30.462   7.403   2.279
56347W        W24765  43.950  35.397   0.854
56348W        W24766   4.259   4.411   4.665
56349W        W24767  11.670  12.122   1.312
56350W        W24768   8.309  38.008   3.323
56351W        W24769  24.219  35.425   3.279
56352W        W24770   1.972  36.976   3.218
56353W        W24771   5.312  13.654   1.775
56354W        W24772  37.470  13.647  13.952
56355W        W24773  23.034  41.019  14.460
56356W        W24774  11.807  41.297  14.344
56357W        W24775  21.216  16.674   2.737
56358W        W24776  41.822  35.109   2.839
56359W        W24777  38.517  28.480   2.746
56360W        W24778  28.611   0.472  11.490
56361W        W24779   0.336  28.567   1.868
56362W        W24780   8.355  22.086   3.757
56363W        W24781  37.077  42.951  13.052
56364W        W24782  18.630  27.468  10.433
56365W        W24783  36.853   6.349  12.848
56366W        W24784   6.296  39.560  13.326
56367W        W24785   2.306  33.468   0.278
56368W        W24786  10.272  30.138  11.021
56369W        W24787  16.677  30.144  13.987
56370W        W24788   4.822  44.806  13.390
56371W        W24789   7.903   1.418  10.983
56372W        W24790  21.550   4.320   2.328
56373W        W24791  19.160  36.541   2.219
56374W        W24792   2.396  17.247   3.857
56375W        W24793  40.473  21.192   1.891
56376W        W24794   9.254  26.191  14.344
56377W        W24795  10.746  16.301   0.371
56378W        W24796  36.463   6.890  11.578
56379W        W24797  16.599  42.413   1.270
56380W        W24798  18.683   3.846  11.856
56381W        W24799  17.164   7.289  12.437
56382W        W24800  43.924  23.517  12.999
56383W        W24801  34.605  33.510   0.810
56384W        W24802  20.698  31.427   1.391
56385W        W24803  17.627  34.888   0.895
56386W        W24804  37.476  39.852   2.678
56387W        W24805  33.486  39.346   4.299
56388W        W24806  28.630  44.002  13.968
56389W        W24807  31.599  30.949   0.830
56390W        W24808  37.025  34.877  11.429
56391W        W24809   8.741  35.467   2.890
56392W        W24810  27.652  22.050  11.897
56393W        W24811  40.888   5.689  14.905
56394W        W24812   3.940  44.928  13.883
56395W        W24813  32.026  44.398   2.398
56396W        W24814  11.744  42.344   4.240
56397W        W24815  36.031  36.424  10.432
56398W        W24816  27.094   3.804   0.445
56399W        W24817   5.695  27.536  14.458
56400W        W24818  28.072  38.508  13.042
56401W        W24819   9.807  23.229  14.402
56402W        W24820  14.811   7.807   0.247
56403W        W24821  41.411  25.049   4.701
56404W        W24822  27.495  26.511  14.513
56405W        W24823  41.043  13.792   1.302
56406W        W24824  14.669   3.763  12.078
56407W        W24825  32.976   2.754  14.488
56408W        W24826  32.086  35.553   1.927
56409W        W24827  20.588  15.287   2.321
56410W        W24828  35.072  32.471  13.796
56411W        W24829  40.941  18.652  13.314
56412W        W24830  11.269  34.906  12.076
56413W        W24831   6.848  20.742  11.010
56414W        W24832  16.212  16.581   3.192
56415W        W24833   1.413  18.746   2.799
56416W        W24834  28.559   6.351   2.248
56417W        W24835  24.638  34.413   1.921
56418W        W24836   0.744  24.216   3.353
56419W        W24837  32.543  24.658   4.203
56420W        W24838  22.613   2.407   4.325
56421W        W24839  13.789  33.486   1.696
56422W        W24840  14.809  36.070   3.269
56423W        W24841  34.398  20.624  13.010
56424W        W24842   8.894   5.926  13.839
56425W        W24843  17.647  20.259  12.472
56426W        W24844  12.813   9.213   2.738
56427W        W24845  23.089  11.287   3.751
56428W        W24846  29.441  20.584  13.892
56429W        W24847  13.675   4.235  12.955
56430W        W24848  37.353  31.051   4.624
56431W        W24849   1.847  19.071  13.892
56432W        W24850  43.287  37.407  10.954
56433W        W24851  22.672  40.353   5.122
56434W        W24852  15.668  38.368   3.845
56435W        W24853  42.385  36.497  10.605
56436W        W24854  32.554  35.876   2.892
56437W        W24855  24.155   1.250  14.385
56438W        W24856   8.192  42.502   4.694
56439W        W24857  43.372  20.751   0.759
56440W        W24858  10.272  27.458   0.430
56441W        W24859   7.337  23.594   1.705
56442W        W24860  13.220  20.768  13.797
56443W        W24861   2.331  44.766   0.791
56444W        W24862  43.004  34.066   2.709
56445W        W24863   5.221   3.866   3.265
56446W        W24864  17.755  25.059  10.995
56447W        W24865  22.238  31.006  12.047
56448W        W24866  11.161  31.448  10.451
56449W        W24867  24.090   8.809  14.474
56450W        W24868  34.881  44.431   3.309
56451W        W24869   7.830  33.947  12.513
56452W        W24870  34.526  31.458  12.079
56453W        W24871  21.646  37.058  12.928
56454W        W24872  43.475  40.812   1.911
56455W        W24873  12.300   9.389  13.996
56456W        W24874   3.816  33.533  12.016
56457W        W24875   2.297   8.395   1.340
56458W        W24876  19.618  39.423   4.232
56459W        W24877   1.424  38.042  10.448
56460W        W24878  30.071   9.273  12.549
56461W        W24879  20.590   0.909   4.655
56462W        W24880  35.442  42.504   0.739
56463W        W24881  19.684  31.563   1.886
56464W        W24882  28.474   1.916  12.386
56465W        W24883  34.910  28.125   0.873
56466W        W24884   5.219   9.712   0.243
56467W        W24885   1.933   4.260  11.124
56468W        W24886  38.407   7.852  11.547
56469W        W24887  34.973  44.452  12.932
56470W        W24888   0.748  32.978  13.366
56471W        W24889  25.516  19.698  13.054
56472W        W24890  34.453  17.254  14.287
56473W        W24891  19.243  30.445  12.845
56474W        W24892  42.366   7.906  13.894
56475W        W24893   1.855  22.037  11.985
56476W        W24894   9.213  22.576  12.856
56477W        W24895  28.508  11.688   4.349
56478W        W24896   2.896   7.176  13.807
56479W        W24897  16.701  32.531   1.743
56480W        W24898   4.917   1.865  13.470
56481W        W24899   3.242  41.464  14.403
56482W        W24900   4.436  35.464   3.204
56483W        W24901  10.154  18.216  13.445
56484W        W24902  19.574  39.423   2.874
56485W        W24903  42.316  25.705  10.445
56486W        W24904  21.739  21.543  11.112
56487W        W24905  42.978  33.486  13.033
56488W        W24906   2.928  38.891  11.949
56489W        W24907   5.294  21.614  14.998
56490W        W24908  28.976  12.813  14.513
56491W        W24909   3.734  43.906   1.730
56492W        W24910  20.677  32.937   4.273
56493W        W24911  14.591  23.067  11.011
56494W        W24912   6.877  41.857   4.741
56495W        W24913  16.147  15.758  10.566
56496W        W24914  13.344   7.715  12.508
56497W        W24915  11.845  16.732   0.748
56498W        W24916  37.078  15.733  13.887
56499W        W24917  33.519  21.242  12.907
56500W        W24918  37.472  26.661   4.116
56501W        W24919  29.065   1.864   3.341
56502W        W24920  23.535  43.805  10.611
56503W        W24921  24.594  35.360  11.981
56504W        W24922  18.198  19.634  14.408
56505W        W24923   2.901  12.804   3.690
56506W        W24924   6.258   9.378   1.858
56507W        W24925  17.705  43.367   1.437
56508W        W24926   4.826  39.423   4.260
56509W        W24927   3.923  35.538   1.422
56510W        W24928  21.089  18.246  12.977
56511W        W24929  40.326   5.278   1.722
56512W        W24930  41.900  17.124  14.285
56513W        W24931   4.450   3.315   4.138
56514W        W24932  21.176  40.809  14.386
56515W        W24933  39.465  42.374   1.342
56516W        W24934  30.523  24.048  11.885
56517W        W24935  31.950   9.299   3.847
56518W        W24936  11.640  32.596   1.229
56519W        W24937   3.449   3.867  10.498
56520W        W24938  35.998  35.970   3.701
56521W        W24939  25.711   2.345   3.273
56522W        W24940  19.209  35.878  13.310
56523W        W24941  30.542  22.250   2.837
56524W        W24942  12.151   3.940  12.500
56525W        W24943  43.442  43.470  11.429
56526W        W24944  12.820  29.487  13.923
56527W        W24945   6.184  26.459  12.468
56528W        W24946  17.291   8.758  12.389
56529W        W24947  34.916  20.265   0.926
56530W        W24948  34.988   2.236  12.553
56531W        W24949  35.992   3.218  12.356
56532W        W24950   4.850  26.958   2.392
56533W        W24951   7.201  10.325   9.922
56534W        W24952  25.153  39.039  12.981
56535W        W24953   6.756  40.480  12.824
56536W        W24954   4.887  27.539  11.103
56537W        W24955  27.683  24.207   1.437
56538W        W24956  32.573  29.651   0.883
56539W        W24957  30.604   0.925  13.336
56540W        W24958   9.344  25.115  10.438
56541W        W24959  26.501   6.288   2.886
56542W        W24960  15.196  40.338   1.828
56543W        W24961   0.862  36.904  13.991
56544W        W24962   2.429   0.407   3.816
56545W        W24963  26.540  28.630  11.034
56546W        W24964  19.120  41.341  12.060
56547W        W24965  34.076   6.747   1.366
56548W        W24966  13.240  38.959  10.421
56549W        W24967  32.141  31.934   1.321
56550W        W24968  11.154  35.441  12.504
56551W        W24969  17.592  12.127   3.310
56552W        W24970  27.188  11.777  13.948
56553W        W24971  10.773  42.869  11.474
56554W        W24972  31.591   7.793  10.963
56555W        W24973  35.464  17.786  13.855
56556W        W24974  44.338   4.768   1.305
56557W        W24975  44.813  43.326  11.543
56558W        W24976  43.504  20.605  10.461
56559W        W24977  11.719   1.254  10.012
56560W        W24978  23.068   7.329   2.890
56561W        W24979  17.190  34.376   1.739
56562W        W24980  23.598  11.819   2.189
56563W        W24981   2.258  27.111   0.917
56564W        W24982   4.306  13.147   2.206
56565W        W24983  18.764  20.695   3.751
56566W        W24984  32.990   7.774   0.467
56567W        W24985   0.426   3.398   4.180
56568W        W24986  38.047   2.758   2.295
56569W        W24987  39.861  36.928   3.806
56570W        W24988  29.171  18.101   0.307
56571W        W24989  29.581  14.709  11.029
56572W        W24990  14.693  33.916  13.386
56573W        W24991  24.521  17.157   4.801
56574W        W24992  43.966  36.412  13.309
56575W        W24993  44.847   5.835   4.605
56576W        W24994  42.467  24.604  13.870
56577W        W24995  27.526  35.064   0.936
56578W        W24996  11.749   2.383  11.869
56579W        W24997   9.384  39.936   0.940
56580W        W24998  23.573  11.299  13.494
56581W        W24999   6.724  19.583   1.234
56582W        W25000  13.251  17.289   5.164
56583W        W25001   7.682  40.880   2.678
56584W        W25002  33.125   8.199  14.363
56585W        W25003  19.165  25.975  12.473
56586W        W25004   1.919  44.435  14.360
56587W        W25005  34.503   3.931  11.914
56588W        W25006   3.414  26.678   2.227
56589W        W25007  15.291  17.680   0.380
56590W        W25008  28.605   4.757   4.799
56591W        W25009  20.264  14.327   4.653
56592W        W25010   8.729  41.338   1.430
56593W        W25011   9.292  32.508   2.698
56594W        W25012  28.498   9.206  12.911
56595W        W25013  36.048  35.987   9.952
56596W        W25014  16.144  38.416   4.231
56597W        W25015  22.246  20.166   1.831
56598W        W25016   0.749   4.392  12.998
56599W        W25017  15.783   7.714   3.237
56600W        W25018  33.071  43.416   0.919
56601W        W25019  20.532  42.400  10.483
56602W        W25020  37.899  18.115  12.481
56603W        W25021  34.444  34.555   1.824
56604W        W25022  32.410  36.500  12.372
56605W        W25023  24.488  28.013  12.984
56606W        W25024  29.444  22.734   9.962
56607W        W25025  30.155   1.817  10.490
56608W        W25026  15.683  23.145   2.864
56609W        W25027  15.777  12.317   1.402
56610W        W25028  39.017  14.687  12.824
56611W        W25029   7.204   8.667   5.194
56612W        W25030  25.063   7.329   3.311
56613W        W25031  13.709  37.456  12.500
56614W        W25032  31.428   9.153  11.879
56615W        W25033  43.450  23.652  10.102
56616W        W25034   6.280   2.902  11.483
56617W        W25035  17.729   2.322  12.005
56618W        W25036  28.547  27.030  13.846
56619W        W25037   2.879   0.939   2.227
56620W        W25038  44.938  38.876   2.843
56621W        W25039  30.576  34.070  14.830
56622W        W25040  36.905  31.045  13.056
56623W        W25041  23.723  41.482  12.073
56624W        W25042  21.136   9.742  10.138
56625W        W25043  20.599  18.086   2.899
56626W        W25044  37.553  23.236  13.459
56627W        W25045  42.436   4.417  10.555
56628W        W25046   4.324  18.059   2.304
56629W        W25047  35.903   5.704   0.945
56630W        W25048  21.527  17.648   2.805
56631W        W25049   6.360  43.455   2.375
56632W        W25050   7.215   3.842  11.899
56633W        W25051  17.204  37.466  14.970
56634W        W25052  24.057  13.222  11.874
56635W        W25053   9.369  15.260   2.828
56636W        W25054  26.134  12.813   3.324
56637W        W25055   2.720  31.569  12.063
56638W        W25056  28.560  15.112   2.377
56639W        W25057  11.843  37.479   5.095
56640W        W25058  42.364  37.996  12.027
56641W        W25059  26.141  25.073  14.818
56642W        W25060  17.706  13.838   9.968
56643W        W25061  22.127  13.608   0.282
56644W        W25062  37.404   1.799   2.878
56645W        W25063  31.532  35.024  10.524
56646W        W25064   0.460  44.992  14.816
56647W        W25065  23.613  11.315   3.183
56648W        W25066  30.071  12.132  10.424
56649W        W25067  35.884   8.885  10.413
56650W        W25068  35.378  24.627   0.807
56651W        W25069  13.289  13.787   3.710
56652W        W25070  31.459   4.898  14.312
56653W        W25071  38.381  32.982   2.279
56654W        W25072  27.065   0.896   0.422
56655W        W25073  18.134   9.284  12.474
56656W        W25074  26.476  22.192  12.836
56657W        W25075   4.702  30.970   0.344
56658W        W25076  43.806  15.153   2.179
56659W        W25077   5.273  30.500  13.313
56660W        W25078  19.705  37.358   3.285
56661W        W25079   6.812  18.252  13.962
56662W        W25080  16.678  18.723  13.467
56663W        W25081  35.528  25.593   4.214
56664W        W25082  35.381   1.789   4.303
56665W        W25083  36.874  44.893  12.960
56666W        W25084  32.037  28.122   4.701
56667W        W25085  35.892  25.542   2.900
56668W        W25086   4.817   3.302  10.640
56669W        W25087   1.748   8.879  10.541
56670W        W25088   8.721  16.251   2.338
56671W        W25089  15.610  33.553  12.904
56672W        W25090   9.240   9.834   2.323
56673W        W25091   5.864   7.212   4.692
56674W        W25092  16.756   4.424  11.562
56675W        W25093  19.541  13.317   4.806
56676W        W25094  13.143  42.308   0.413
56677W        W25095  38.486   5.398   3.696
56678W        W25096  28.981  41.907  11.428
56679W        W25097  16.236  17.270  12.973
56680W        W25098  27.624  34.898   4.656
56681W        W25099  30.008  25.171  14.014
56682W        W25100  17.633  30.038   4.728
56683W        W25101  26.478  38.451  10.569
56684W        W25102  21.137  15.644  10.460
56685W        W25103  25.484   8.870   4.189
56686W        W25104  16.589   8.193  11.927
56687W        W25105  17.662   2.841  12.075
56688W        W25106  28.445  37.446  14.387
56689W        W25107  25.962  11.767   3.179
56690W        W25108   7.318  23.634  11.083
56691W        W25109  19.572  40.931  14.450
56692W        W25110  17.700  20.734   3.712
56693W        W25111  17.708  35.468  11.954
56694W        W25112   7.824  34.030   1.249
56695W        W25113  23.712  29.430  12.574
56696W        W25114  23.012  38.356  10.528
56697W        W25115  25.645  39.949   1.786
56698W        W25116   1.799  24.598  10.488
56699W        W25117   8.372   6.841  11.598
56700W        W25118  28.938  24.024   0.354
56701W        W25119  11.131  38.443   0.451
56702W        W25120  21.652  36.578   2.237
56703W        W25121  19.056   9.168   2.413
56704W        W25122  11.856   4.315   2.302
56705W        W25123  29.535  22.224   0.358
56706W        W25124  26.465  33.955   2.831
56707W        W25125  21.681  20.637  11.394
56708W        W25126  26.957  39.045  12.400
56709W        W25127   8.218  44.476  14.513
56710W        W25128  36.944  39.483   5.091
56711W        W25129  36.082  33.583  10.534
56712W        W25130  25.990  11.373  12.400
56713W        W25131   6.209  42.008   1.867
56714W        W25132  18.585  37.927  10.481
56715W        W25133   1.840  18.061   2.247
56716W        W25134  20.726  35.066  12.528
56717W        W25135  33.961  39.549   3.738
56718W        W25136  27.942  15.087  14.415
56719W        W25137   0.743  29.572   4.789
56720W        W25138  38.874  26.552   0.340
56721W        W25139  31.047  42.325  12.560
56722W        W25140  11.774  25.218   1.756
56723W        W25141   1.412  15.134  11.976
56724W        W25142  22.664  44.758   0.325
56725W        W25143   5.844  40.885   4.618
56726W        W25144  21.689  40.328   3.760
56727W        W25145  44.332   3.828  13.014
56728W        W25146  21.640  40.311  10.518
56729W        W25147  34.908  10.286  13.889
56730W        W25148  16.786   2.933  14.498
56731W        W25149   7.191  43.465   3.703
56732W        W25150  25.093  38.944  14.966
56733W        W25151  24.628  23.491  13.380
56734W        W25152  29.662   5.371  11.387
56735W        W25153   8.343   5.387   1.246
56736W        W25154  22.064   7.357   0.469
56737W        W25155  22.641  44.988   3.716
56738W        W25156   1.951  25.472   2.793
56739W        W25157   7.666  43.966   1.371
56740W        W25158  38.950   3.887   0.768
56741W        W25159  26.525   8.677   0.873
56742W        W25160  19.079  11.159   9.477
56743W        W25161  26.027   7.240  10.902
56744W        W25162  34.882   1.261  13.399
56745W        W25163  27.070  34.108  10.486
56746W        W25164  14.810   1.387  11.564
56747W        W25165  24.699  34.387   3.207
56748W        W25166  41.815  25.695   2.240
56749W        W25167  14.248  11.370   3.782
56750W        W25168  28.619  43.510   0.944
56751W        W25169  24.676  38.015  13.850
56752W        W25170  29.171  43.849  13.971
56753W        W25171  41.957  29.603  14.880
56754W        W25172  21.711  43.356   3.296
56755W        W25173  21.085   6.365  13.363
56756W        W25174  26.659  32.978  12.486
56757W        W25175  27.961   7.726   5.190
56758W        W25176  16.765  14.098   0.448
56759W        W25177  17.116  33.524   2.391
56760W        W25178  42.953  19.662   0.481
56761W        W25179  28.453  31.607  11.959
56762W        W25180   3.420   0.880  10.618
56763W        W25181  31.078  33.541   5.158
56764W        W25182  25.498  43.919  14.857
56765W        W25183  30.027  25.189  13.352
56766W        W25184  16.788   6.293   3.281
56767W        W25185  32.123   4.408   2.254
56768W        W25186  32.970   0.371   3.282
56769W        W25187   3.432   5.245  14.394
56770W        W25188  28.588   2.270   1.218
56771W        W25189   2.794   5.884   1.423
56772W        W25190   0.253  38.419   2.776
56773W        W25191   5.292  33.581   4.216
56774W        W25192  42.868  22.222   0.429
56775W        W25193  35.033   0.919   1.284
56776W        W25194   7.274  22.558  14.455
56777W        W25195  12.780  10.876  14.483
56778W        W25196  10.313  20.697   0.752
56779W        W25197  25.182   2.887  13.810
56780W        W25198   3.752   8.315   3.728
56781W        W25199   1.330  31.027  13.815
56782W        W25200  10.284  10.282  14.516
56783W        W25201  11.178  13.617  10.478
56784W        W25202  26.112  13.114   4.618
56785W        W25203  44.942   3.270  14.434
56786W        W25204  10.697   2.291   2.676
56787W        W25205  36.019  11.715   0.368
56788W        W25206   4.266   5.320   0.349
56789W        W25207  28.055  11.752   0.930
56790W        W25208  32.008   9.835   1.776
56791W        W25209  34.103  43.866   0.308
56792W        W25210   3.775  12.276   0.955
56793W        W25211  42.824  36.531  10.486
56794W        W25212  29.618  20.245  12.869
56795W        W25213   0.939   2.372  10.596
56796W        W25214  15.691   6.916   5.659
56797W        W25215   4.724  22.544  10.907
56798W        W25216  22.733  34.025  14.883
56799W        W25217   8.750   2.770  13.841
56800W        W25218  40.026  11.751  12.073
56801W        W25219   0.969  41.515   2.880
56802W        W25220  21.610   8.846   0.476
56803W        W25221  18.789  23.499   0.275
56804W        W25222  27.995  33.506   3.218
56805W        W25223  38.413  11.729   0.905
56806W        W25224  33.526  44.354   0.468
56807W        W25225  42.492  33.049  12.339
56808W        W25226  16.604  11.252  14.376
56809W        W25227   8.314  31.962   5.161
56810W        W25228  41.825  38.554   4.121
56811W        W25229  33.586   8.818   3.313
56812W        W25230  31.446  10.345  14.285
56813W        W25231  11.169   4.225  13.876
56814W        W25232  16.097  13.264   2.822
56815W        W25233  37.961  10.213   2.294
56816W        W25234  30.539  32.421  14.326
56817W        W25235  17.088  29.170  13.938
56818W        W25236  40.410   8.811  10.128
56819W        W25237  33.466  27.625  14.444
56820W        W25238  33.939  34.873   3.817
56821W        W25239   6.406  37.932   1.915
56822W        W25240  36.997  11.821  10.950
56823W        W25241  14.746   6.880   1.409
56824W        W25242  44.433  30.098  12.852
56825W        W25243  24.177  14.284   0.394
56826W        W25244  17.222   9.169   2.227
56827W        W25245  27.095   1.350  12.893
56828W        W25246  10.371   4.765  14.291
56829W        W25247  14.261  23.224  13.826
56830W        W25248  26.126  12.700  14.969
56831W        W25249   6.915  30.595   2.743
56832W        W25250  21.188  41.310   1.403
56833W        W25251  22.604  30.145  10.505
56834W        W25252  18.191  21.062   9.993
56835W        W25253  15.626  36.405  14.980
56836W        W25254  26.958  26.958  10.429
56837W        W25255  40.029  31.939  14.002
56838W        W25256  31.574  24.147  14.495
56839W        W25257  26.040  43.352  10.413
56840W        W25258  17.202  21.755  12.084
56841W        W25259  29.472  19.676   2.850
56842W        W25260  29.433  22.244  14.436
56843W        W25261   8.312   1.827  12.497
56844W        W25262  44.965  25.568   1.836
56845W        W25263  29.609  35.571   4.622
56846W        W25264  41.299  21.211  13.498
56847W        W25265   2.383  26.685   0.308
56848W        W25266  37.368   0.853   0.851
56849W        W25267  33.064  24.000   3.379
56850W        W25268   5.334  32.400   1.894
56851W        W25269   0.784   1.359   1.223
56852W        W25270  41.973  25.162   2.283
56853W        W25271  18.081  31.930  14.831
56854W        W25272  36.585  15.785   1.816
56855W        W25273  32.438  16.767  10.631
56856W        W25274  22.531  24.199   4.260
56857W        W25275  20.531  29.126  14.506
56858W        W25276  15.095  44.308   4.638
56859W        W25277  36.979  12.129   2.717
56860W        W25278   3.347  12.667  11.030
56861W        W25279  31.611  33.895   2.843
56862W        W25280   3.366  10.781  10.916
56863W        W25281  25.680  34.090   3.304
56864W        W25282   9.841  18.217  12.034
56865W        W25283   2.930  43.435   4.208
56866W        W25284   1.750  17.195  12.857
56867W        W25285  17.762   2.443  12.898
56868W        W25286  21.624  39.819   2.775
56869W        W25287  35.874  25.019  10.944
56870W        W25288  43.892   7.911  13.396
56871W        W25289   5.366  30.448  12.085
56872W        W25290  34.956   4.900  10.623
56873W        W25291  19.622  16.660  13.864
56874W        W25292  27.582  35.999   4.617
56875W        W25293  34.586  10.353   2.189
56876W        W25294  38.044  27.971   4.625
56877W        W25295   3.317   3.386  14.945
56878W        W25296  38.001  42.525  14.324
56879W        W25297  41.380  31.558   3.291
56880W        W25298  41.373   5.361   2.783
56881W        W25299  29.599  39.047  10.990
56882W        W25300  34.504  33.075   4.209
56883W        W25301  29.974  30.640  12.558
56884W        W25302  36.445   4.283   3.653
56885W        W25303  43.823   8.682  10.592
56886W        W25304  27.616   3.270   3.319
56887W        W25305   8.668  35.574   1.905
56888W        W25306  26.025  10.331  14.920
56889W        W25307  44.485  27.554   4.789
56890W        W25308   8.211  32.125  11.893
56891W        W25309  21.624   7.353   4.322
56892W        W25310   0.451  10.296  13.362
56893W        W25311  25.095  29.927  14.434
56894W        W25312  22.503  36.386  11.608
56895W        W25313  11.710  33.875   2.852
56896W        W25314  42.301  14.806   2.839
56897W        W25315  26.953  24.130   2.825
56898W        W25316  37.026   0.399  12.070
56899W        W25317  27.144  16.717   3.306
56900W        W25318  17.605   0.834  12.554
56901W        W25319  12.229  36.997   2.872
56902W        W25320  12.214   7.216  11.973
56903W        W25321   4.221  14.672  11.897
56904W        W25322  23.690  30.449   1.214
56905W        W25323  11.127  41.807  10.532
56906W        W25324   5.787  20.173  11.483
56907W        W25325   7.708  39.840  10.414
56908W        W25326  13.620   2.798  13.352
56909W        W25327   1.301   0.770   3.639
56910W        W25328  33.510  25.037  12.935
56911W        W25329  27.012  34.117  14.426
56912W        W25330  33.448  14.798   4.282
56913W        W25331   3.398   9.312  11.022
56914W        W25332   0.286   6.188   1.834
56915W        W25333  33.992  26.202  12.458
56916W        W25334  29.486  27.122   2.681
56917W        W25335  27.178  21.129  10.132
56918W        W25336   6.298  39.445   3.814
56919W        W25337  31.102  22.138  14.948
56920W        W25338  21.060   4.860  14.007
56921W        W25339  25.985  10.804  13.056
56922W        W25340  11.804  14.762   1.742
56923W        W25341   7.686  21.735  12.076
56924W        W25342   8.287  43.864   1.915
56925W        W25343  28.996   8.318   4.324
56926W        W25344  42.954   7.267   0.954
56927W        W25345  28.179  26.984  11.406
56928W        W25346  19.057  37.900   0.362
56929W        W25347  17.252   7.180  11.464
56930W        W25348  24.119  30.146  11.018
56931W        W25349  21.604  43.989  11.431
56932W        W25350  25.638  30.596  11.382
56933W        W25351   0.784  15.730  14.911
56934W        W25352  19.274  10.295   1.225
56935W        W25353  13.765   0.969  12.908
56936W        W25354  26.464  26.039   0.784
56937W        W25355  40.545  38.927   2.306
56938W        W25356   5.893  28.463   4.274
56939W        W25357  32.539  41.314  12.362
56940W        W25358  31.112  24.509   3.838
56941W        W25359  24.182   4.341   4.307
56942W        W25360  28.512  35.860  11.969
56943W        W25361  37.063  41.453  12.519
56944W        W25362  12.703  10.288   2.883
56945W        W25363   9.823   5.309  13.323
56946W        W25364  35.939  32.040  14.843
56947W        W25365   5.215  10.269  11.951
56948W        W25366  15.299  20.111   4.733
56949W        W25367  31.503  41.364   2.842
56950W        W25368  26.100   7.319  14.811
56951W        W25369  24.998  20.601  10.938
56952W        W25370  43.464  41.904  11.524
56953W        W25371  27.975   7.779   2.338
56954W        W25372  33.469  41.393  10.046
56955W        W25373   9.372  32.987  13.009
56956W        W25374  25.516  30.658   2.854
56957W        W25375  31.993  14.645   4.828
56958W        W25376  33.582  16.808   1.847
56959W        W25377  35.025   7.303   2.794
56960W        W25378  40.378  24.491  11.428
56961W        W25379   9.224  19.622   1.796
56962W        W25380  11.721  40.886   3.633
56963W        W25381  30.077   6.302  12.835
56964W        W25382  15.303   4.875  13.325
56965W        W25383  43.516   3.801   0.304
56966W        W25384  21.129  25.694   3.656
56967W        W25385   6.376  32.519   4.798
56968W        W25386  41.979   9.175  12.907
56969W        W25387   1.882  33.494   1.367
56970W        W25388  18.757  18.581   0.369
56971W        W25389  15.239  38.411   2.737
56972W        W25390  34.372  43.449  14.383
56973W        W25391  19.206   7.366  10.934
56974W        W25392  31.050  43.899   1.348
56975W        W25393   6.918  24.068  11.038
56976W        W25394  23.102  15.270  13.347
56977W        W25395  20.191   0.760  12.340
56978W        W25396   3.879  40.974  10.637
56979W        W25397  44.753  40.042   2.372
56980W        W25398  38.514  33.011  14.287
56981W        W25399  41.500  17.236   3.729
56982W        W25400  34.965  42.030  14.452
56983W        W25401  11.627  19.058  11.071
56984W        W25402  37.919  26.989   0.784
56985W        W25403  13.656   6.193   5.297
56986W        W25404   3.266  22.066   2.263
56987W        W25405  15.703   8.800  10.910
56988W        W25406  42.485  15.682  10.039
56989W        W25407   8.678   7.699  13.053
56990W        W25408  21.563  43.817   2.384
56991W        W25409   9.731   6.229   1.716
56992W        W25410  42.334   4.391  14.854
56993W        W25411  43.339   9.306  11.937
56994W        W25412  18.287  30.135   2.877
56995W        W25413   9.708  39.828   0.750
56996W        W25414  41.397  41.508  12.480
56997W        W25415  23.495  16.748  12.363
56998W        W25416   7.361  28.566   0.729
56999W        W25417  29.594  25.962  12.435
57000W        W25418  16.173   9.319  10.600
57001W        W25419  22.576  40.854  10.157
57002W        W25420  12.154   6.822  12.860
57003W        W25421  24.554  28.621   3.236
57004W        W25422  17.099  44.775  11.884
57005W        W25423  14.834   1.342   2.269
57006W        W25424  26.133  13.332  12.553
57007W        W25425  33.542  34.074  11.116
57008W        W25426  14.786  37.862  10.477
57009W        W25427   0.952  33.479  13.487
57010W        W25428  19.713  10.237  14.926
57011W        W25429  21.630  28.930  13.496
57012W        W25430  13.636  38.967   3.816
57013W        W25431   4.408   7.229   0.728
57014W        W25432   0.977  17.198   2.211
57015W        W25433  21.612   3.380  11.860
57016W        W25434   2.965  33.608   3.646
57017W        W25435  14.304  24.153   1.291
57018W        W25436  13.227  21.124   0.390
57019W        W25437  15.625   9.166   1.794
57020W        W25438  42.402  39.000   5.155
57021W        W25439  42.907  21.189   4.291
57022W        W25440  35.411  17.654   0.758
57023W        W25441  34.060  17.257   2.346
57024W        W25442  39.453  13.839  13.999
57025W        W25443  12.222  34.604  11.386
57026W        W25444  21.028  33.882  13.466
57027W        W25445  36.904  31.587   0.410
57028W        W25446  43.451  24.084   4.143
57029W        W25447  19.135   4.366   0.262
57030W        W25448  31.983  42.897  11.905
57031W        W25449  32.516  17.611   0.912
57032W        W25450  12.259  16.157   1.366
57033W        W25451  31.102   3.899  10.422
57034W        W25452  14.108  22.608  11.066
57035W        W25453  14.765  32.485  12.486
57036W        W25454  26.548  29.096  11.081
57037W        W25455  10.724  40.370  10.934
57038W        W25456  19.089  25.680  14.825
57039W        W25457  43.876  15.130  14.834
57040W        W25458  38.487  30.985   3.156
57041W        W25459  41.877  29.461  13.942
57042W        W25460  39.451  34.411   4.811
57043W        W25461   1.338  20.536   5.112
57044W        W25462  37.550  15.271  13.818
57045W        W25463   1.757  13.106   4.829
57046W        W25464   4.428  24.988   4.752
57047W        W25465  23.691  33.910   2.685
57048W        W25466  10.811  16.795  13.992
57049W        W25467  26.115  16.585  12.064
57050W        W25468  34.967  21.184  10.987
57051W        W25469   9.784  26.076   1.926
57052W        W25470   4.400  25.617  12.571
57053W        W25471  11.322  11.770  10.963
57054W        W25472  36.925   8.256   4.304
57055W        W25473  40.975  36.857   4.257
57056W        W25474  19.188  17.595   3.793
57057W        W25475  14.645  27.451   2.261
57058W        W25476  31.445  22.024  14.495
57059W        W25477  18.136  22.604  10.461
57060W        W25478  40.868   3.746   0.427
57061W        W25479  18.622  24.136   1.787
57062W        W25480  19.672  22.668  14.290
57063W        W25481   1.781  26.518  12.418
57064W        W25482  12.323   5.240   0.433
57065W        W25483  25.476  34.588  11.605
57066W        W25484   3.311  44.897  12.424
57067W        W25485  42.925   7.738  10.455
57068W        W25486   9.272  39.355   1.770
57069W        W25487  43.399  10.773  14.762
57070W        W25488   6.735  22.689  10.533
57071W        W25489  12.229  10.774   0.868
57072W        W25490  17.075  37.432   5.099
57073W        W25491  32.533  38.529  13.364
57074W        W25492   7.396  21.738  11.106
57075W        W25493  15.758  29.471   4.771
57076W        W25494   2.768  38.966  11.498
57077W        W25495  34.426   1.953   3.170
57078W        W25496   6.343  43.279  11.983
57079W        W25497  20.537  21.173  12.549
57080W        W25498  34.117  17.670   0.344
57081W        W25499  22.657   1.929  11.950
57082W        W25500  34.897  19.561  14.779
57083W        W25501  11.129  13.602   4.726
57084W        W25502  19.677  10.284   3.218
57085W        W25503  19.165  40.382   1.267
57086W        W25504  38.926  10.206  10.437
57087W        W25505  36.944  44.319   2.846
57088W        W25506  10.672   9.747  12.975
57089W        W25507  34.963  20.250  10.619
57090W        W25508   0.897  41.787  13.818
57091W        W25509  32.590  21.075  12.520
57092W        W25510  31.532  24.707  10.992
57093W        W25511  30.464  34.511  13.898
57094W        W25512   6.392   1.878   2.260
57095W        W25513  24.143  22.146  10.510
57096W        W25514  23.156   5.799   2.881
57097W        W25515   0.793  25.581  11.420
57098W        W25516  11.862  14.641   0.468
57099W        W25517  16.293   4.401  11.036
57100W        W25518  33.943  43.910   2.369
57101W        W25519  43.968  18.256   2.867
57102W        W25520   6.250  31.930   3.740
57103W        W25521  12.253  10.277   0.317
57104W        W25522  32.000  43.426  13.319
57105W        W25523   8.870  30.107  14.378
57106W        W25524  30.917   9.189  10.974
57107W        W25525  30.059   5.799   4.312
57108W        W25526  26.666   9.746   3.772
57109W        W25527  15.687  37.480  10.627
57110W        W25528  13.823  26.622   9.942
57111W        W25529  28.168  23.654  11.062
57112W        W25530  42.977  10.713   4.790
57113W        W25531   0.809  26.571   4.165
57114W        W25532  36.905  36.554  14.303
57115W        W25533  31.572   4.926  13.980
57116W        W25534   7.864  21.023  11.519
57117W        W25535   6.729  37.344   1.725
57118W        W25536  13.289   0.281  12.413
57119W        W25537  13.805   4.350   1.323
57120W        W25538   3.768  26.189  13.825
57121W        W25539  23.069  43.394  12.035
57122W        W25540  32.109  31.501   1.869
57123W        W25541   6.247  13.189  13.809
57124W        W25542  40.806  16.644  13.844
57125W        W25543  18.268   5.396  11.530
57126W        W25544  26.995  34.888  13.358
57127W        W25545  18.184  43.945  13.490
57128W        W25546   5.402   8.702  11.540
57129W        W25547  38.544  33.054   1.342
57130W        W25548  31.907  30.572  11.886
57131W        W25549  34.111  11.219   1.335
57132W        W25550  37.344  28.097  14.921
57133W        W25551   3.937  41.011   3.245
57134W        W25552  17.651  29.525  13.347
57135W        W25553  21.160  21.215  13.417
57136W        W25554  41.353  10.847   0.409
57137W        W25555  44.411  43.927  12.856
57138W        W25556   4.759  11.808   5.208
57139W        W25557  31.119  34.927  14.399
57140W        W25558  41.311  23.192  14.801
57141W        W25559  20.231  17.606  14.974
57142W        W25560  41.856  23.696   0.453
57143W        W25561  21.683  13.145  10.467
57144W        W25562  42.424   1.248  10.965
57145W        W25563  37.007  10.224   4.654
57146W        W25564  26.636   9.654   4.128
57147W        W25565  44.788   1.399  10.944
57148W        W25566  29.594  26.524  10.959
57149W        W25567  44.394  19.605   0.356
57150W        W25568  43.841  11.350  12.075
57151W        W25569  22.699  16.756   3.687
57152W        W25570  29.011   9.750   5.215
57153W        W25571  17.782  11.265   3.747
57154W        W25572  21.091  43.862  12.368
57155W        W25573  40.536  10.661  13.988
57156W        W25574   3.950  12.227   4.121
57157W        W25575  15.580  28.118  13.418
57158W        W25576  33.598   9.287   3.307
57159W        W25577  22.104  31.476  12.020
57160W        W25578   4.804  21.706   4.657
57161W        W25579  31.504  17.145   4.132
57162W        W25580   8.303   3.303   4.189
57163W        W25581  28.160  20.139  14.309
57164W        W25582   2.344   8.308  12.439
57165W        W25583  25.527   7.695  11.981
57166W        W25584  16.315   3.323  14.822
57167W        W25585  37.389  37.005   3.308
57168W        W25586  35.575   1.780  12.965
57169W        W25587  43.395  30.979   0.258
57170W        W25588   5.244   5.236   4.750
57171W        W25589  36.399  29.036  11.534
57172W        W25590  25.602  30.115   0.303
57173W        W25591  39.350  21.256  11.541
57174W        W25592  35.041   4.886   2.813
57175W        W25593  38.353  12.348   4.624
57176W        W25594  40.825  27.059   3.758
57177W        W25595  14.198   9.881   3.291
57178W        W25596   4.733  22.590  12.999
57179W        W25597   7.268  16.673  13.415
57180W        W25598  43.312   1.275  10.460
57181W        W25599   3.753  37.370   4.224
57182W        W25600  43.465  24.185  11.389
57183W        W25601  12.221  34.393  13.318
57184W        W25602  16.793  37.459  12.897
57185W        W25603  29.458   3.928  12.087
57186W        W25604  22.704  10.748   2.734
57187W        W25605  41.352   3.288   3.747
57188W        W25606  30.115   7.353   4.207
57189W        W25607  44.376  32.080   1.909
57190W        W25608  31.968   9.860  13.459
57191W        W25609  27.507   3.732  10.601
57192W        W25610   2.298  13.650   3.633
57193W        W25611  42.369   1.739   4.259
57194W        W25612  42.024  28.142  14.313
57195W        W25613  24.515  19.646   1.730
57196W        W25614   5.388  23.499  13.951
57197W        W25615  25.082  41.413   0.832
57198W        W25616  38.542  39.549  12.081
57199W        W25617  19.168   4.724  13.907
57200W        W25618   6.787   3.955   2.197
57201W        W25619  12.118  11.281  14.983
57202W        W25620  31.584  28.066  13.439
57203W        W25621  25.996  32.934   1.270
57204W        W25622  11.632  20.590  10.508
57205W        W25623  28.601  16.573  12.545
57206W        W25624  33.558  29.138   4.248
57207W        W25625  19.647  23.681   9.535
57208W        W25626   1.299  11.657   0.256
57209W        W25627   7.362  19.083  13.899
57210W        W25628  10.707  35.499  12.352
57211W        W25629  26.475   0.809  13.826
57212W        W25630  36.894  14.732  13.414
57213W        W25631  34.494   3.358  11.991
57214W        W25632  34.984  10.878   1.235
57215W        W25633  29.487  13.674   2.822
57216W        W25634  29.580   0.399  14.966
57217W        W25635  32.556  15.133  11.029
57218W        W25636  22.691  21.706  10.585
57219W        W25637  33.529  20.139   3.814
57220W        W25638  27.540  28.480   4.313
57221W        W25639  29.134  26.580  14.864
57222W        W25640   7.379  26.555   1.871
57223W        W25641  29.987   0.368  10.469
57224W        W25642  23.022  22.065  14.831
57225W        W25643  39.867  11.691   0.833
57226W        W25644  14.252  29.982  11.118
57227W        W25645  21.511  10.292  13.525
57228W        W25646  25.027  23.511   2.847
57229W        W25647   7.774  44.763  12.494
57230W        W25648  39.509  37.054   4.823
57231W        W25649  26.158  36.975  10.480
57232W        W25650  11.259  29.540   1.374
57233W        W25651  35.402  14.129   3.150
57234W        W25652  13.683  26.545  13.907
57235W        W25653   8.326  35.876   3.690
57236W        W25654  31.522   2.720   3.339
57237W        W25655   6.763  19.677   4.680
57238W        W25656  23.087  24.708   1.771
57239W        W25657  24.652  23.218   1.885
57240W        W25658  29.576  38.399   1.843
57241W        W25659  11.177  13.167   3.813
57242W        W25660  30.472   6.341   4.667
57243W        W25661  19.078   2.406  14.022
57244W        W25662  10.846  24.680   0.830
57245W        W25663  16.146  28.943   2.771
57246W        W25664  29.654   2.814  13.353
57247W        W25665  15.188  23.013  12.848
57248W        W25666  20.141   2.263  12.454
57249W        W25667  42.903  33.418   0.434
57250W        W25668   0.279   7.190   3.653
57251W        W25669   6.413   1.774  10.074
57252W        W25670  19.682  41.889   2.803
57253W        W25671  33.546   2.390  11.125
57254W        W25672  34.104  32.483  13.469
57255W        W25673  25.009  21.680  11.945
57256W        W25674  20.053  23.496  10.495
57257W        W25675  24.567  43.932  12.351
57258W        W25676  29.616  33.953  14.426
57259W        W25677   5.409  29.969   0.806
57260W        W25678   4.206  24.633   3.710
57261W        W25679   4.702  21.721   3.236
57262W        W25680  11.757  31.916   0.899
57263W        W25681   8.898  37.852  13.399
57264W        W25682  30.514  39.847  12.831
57265W        W25683  41.441  31.572  11.380
57266W        W25684  14.126  15.669   0.248
57267W        W25685  14.104   1.421  14.781
57268W        W25686   4.865  40.339   4.794
57269W        W25687  10.767   1.310  12.418
57270W        W25688  17.729  44.412   1.847
57271W        W25689  38.907  18.069   1.725
57272W        W25690  44.372  42.296   0.358
57273W        W25691  44.463  18.192  14.932
57274W        W25692  13.319   0.313   9.951
57275W        W25693  26.677  32.892   1.443
57276W        W25694  36.049  17.565  12.423
57277W        W25695  42.980  21.029  13.489
57278W        W25696   0.437  11.148   4.628
57279W        W25697   1.241  38.823  10.494
57280W        W25698   2.434  12.216  12.526
57281W        W25699  22.244   0.883   4.600
57282W        W25700   1.896  31.405  11.021
57283W        W25701   3.458  41.438   1.376
57284W        W25702  44.371  22.600  14.347
57285W        W25703  22.228  37.853  11.100
57286W        W25704  13.611  42.809   2.704
57287W        W25705   3.371   0.330   3.303
57288W        W25706  31.118  12.346   4.730
57289W        W25707   5.860  13.654   2.243
57290W        W25708  36.503   1.437  12.948
57291W        W25709   2.871  29.113  11.432
57292W        W25710   0.833  23.200  10.454
57293W        W25711   6.412  14.316  14.388
57294W        W25712  39.408   0.470  13.420
57295W        W25713  33.466   3.447  13.973
57296W        W25714  24.515  35.553  14.501
57297W        W25715  11.773  22.006   3.379
57298W        W25716   7.172  27.550   1.376
57299W        W25717  11.254  36.051  14.917
57300W        W25718  15.592  11.264   3.734
57301W        W25719  37.894  41.341   3.377
57302W        W25720  41.864  19.133  14.845
57303W        W25721  31.136  39.360  10.623
57304W        W25722  44.328  12.642   3.840
57305W        W25723  41.495  21.148   5.271
57306W        W25724  24.581  38.888   0.302
57307W        W25725  28.959  42.422  14.000
57308W        W25726  21.235  17.172  12.081
57309W        W25727   8.359  26.085  14.966
57310W        W25728  19.261   8.359  10.940
57311W        W25729  44.439   5.303   2.334
57312W        W25730  31.055  35.003   0.428
57313W        W25731  37.831  20.537  10.898
57314W        W25732  21.626  25.513  12.526
57315W        W25733  15.244  39.393   4.787
57316W        W25734  25.964   5.223   4.691
57317W        W25735   9.361  15.652   0.273
57318W        W25736  39.459  32.582  10.995
57319W        W25737  37.880  38.567  12.080
57320W        W25738   2.309  42.356   3.719
57321W        W25739  15.600  31.049  12.905
57322W        W25740  24.612  41.879  14.433
57323W        W25741   2.315   4.848  13.467
57324W        W25742  13.677  20.622   3.710
57325W        W25743  40.963   5.305  12.070
57326W        W25744  24.537  14.632  10.434
57327W        W25745   8.784  17.287   2.887
57328W        W25746  14.741   3.445  11.998
57329W        W25747  18.640  24.075   0.865
57330W        W25748  24.537  11.822   3.364
57331W        W25749  32.556   9.693   0.459
57332W        W25750  42.298  30.134  10.939
57333W        W25751  34.095   2.277   2.799
57334W        W25752  23.547   6.861   2.203
57335W        W25753   2.844  33.973   0.839
57336W        W25754   3.920   6.838  12.342
57337W        W25755  10.297  24.131   2.245
57338W        W25756  39.317  15.176  11.935
57339W        W25757   9.355  14.694  13.406
57340W        W25758  41.444  13.730  13.341
57341W        W25759  37.379  12.181   2.777
57342W        W25760   4.780  33.593  12.945
57343W        W25761  12.810  43.972   2.189
57344W        W25762  25.122  19.656   5.197
57345W        W25763  42.509  40.847  11.564
57346W        W25764  44.283   7.361  10.588
57347W        W25765  37.489   2.965  11.042
57348W        W25766   8.317   6.784   1.268
57349W        W25767  23.616  17.235  11.908
57350W        W25768   6.791  39.995   0.926
57351W        W25769  29.543  23.526   2.897
57352W        W25770   0.347  43.868  14.310
57353W        W25771  16.757  35.000  12.381
57354W        W25772  30.511  36.475  12.401
57355W        W25773   6.315  17.724   1.372
57356W        W25774  23.199  36.040   0.449
57357W        W25775  23.626   8.361  11.513
57358W        W25776  14.615  40.818  14.793
57359W        W25777  13.209  11.237  12.899
57360W        W25778  26.659  30.010  14.864
57361W        W25779  10.785  25.514  11.933
57362W        W25780  27.970   7.740   2.762
57363W        W25781   8.384  40.509   2.831
57364W        W25782  26.643  26.556   1.297
57365W        W25783  29.489  14.204   5.202
57366W        W25784  34.011  38.473  11.588
57367W        W25785   5.375  27.038  11.097
57368W        W25786  25.176  15.590   1.879
57369W        W25787  37.438  28.525  14.901
57370W        W25788  14.191  38.498  13.527
57371W        W25789   5.346  44.392  13.993
57372W        W25790  38.399  38.881   2.337
57373W        W25791  41.493   2.321  14.839
57374W        W25792  29.614  24.594   0.348
57375W        W25793  12.170  27.677  14.485
57376W        W25794  23.052   2.769  10.442
57377W        W25795  24.202   7.320   0.781
57378W        W25796  40.368  22.574  11.524
57379W        W25797  42.449  21.052   4.718
57380W        W25798  25.175  24.094   4.811
57381W        W25799   6.409  17.205  12.047
57382W        W25800  30.472  10.175   2.412
57383W        W25801  33.934  21.715   4.229
57384W        W25802   5.286  12.726  10.929
57385W        W25803  41.534   8.377  12.063
57386W        W25804   3.879  28.489  14.888
57387W        W25805  33.422  33.443  10.565
57388W        W25806  23.995  17.106   3.850
57389W        W25807  17.744  27.083   0.357
57390W        W25808  10.702  41.472   2.722
57391W        W25809  15.589  41.988   4.612
57392W        W25810  38.058  36.519  10.922
57393W        W25811  23.057   5.437  13.798
57394W        W25812   9.218  31.939  14.302
57395W        W25813   3.245  38.443  14.364
57396W        W25814  31.132  32.137  12.873
57397W        W25815  27.646  23.028  12.974
57398W        W25816  38.981  41.433   0.752
57399W        W25817  11.809   3.352  10.467
57400W        W25818   6.353   5.710  12.890
57401W        W25819  17.559  19.273  13.461
57402W        W25820  33.474  25.651   4.184
57403W        W25821  19.156   9.668  14.354
57404W        W25822  35.070  16.777   0.395
57405W        W25823  27.179  41.522  13.005
57406W        W25824  37.567  14.822  13.838
57407W        W25825   0.285  39.846   3.706
57408W        W25826  38.878  25.028   0.277
57409W        W25827  13.789  31.559  13.322
57410W        W25828   7.877  30.422  13.471
57411W        W25829  37.922  31.611  10.510
57412W        W25830  11.745  37.577   1.451
57413W        W25831  43.342   4.353   0.364
57414W        W25832  16.181  10.840   0.887
57415W        W25833  15.218  34.017   1.424
57416W        W25834  36.402   4.343  12.925
57417W        W25835  44.769  41.800   4.229
57418W        W25836   4.440  37.418  11.122
57419W        W25837  33.910  33.980  12.408
57420W        W25838   1.812  13.767  13.893
57421W        W25839   4.882   9.777  14.830
57422W        W25840   7.740  17.560   2.875
57423W        W25841  31.590   8.209  12.406
57424W        W25842   8.842  39.447   4.158
57425W        W25843   5.221  20.687  14.849
57426W        W25844  22.545  39.033  14.000
57427W        W25845   6.315  26.478   2.679
57428W        W25846  28.654  18.122   3.808
57429W        W25847   5.239  21.239   2.371
57430W        W25848  37.910  14.741  10.892
57431W        W25849  29.602   6.201  12.380
57432W        W25850  42.015  33.470   2.334
57433W        W25851   1.248  33.913  11.389
57434W        W25852   7.412   8.798  12.572
57435W        W25853  38.493  28.112  11.377
57436W        W25854  39.485  44.350   2.349
57437W        W25855  11.365  44.809  11.492
57438W        W25856  21.673   8.743   1.424
57439W        W25857   6.314   5.781  11.096
57440W        W25858  27.470  20.530  13.370
57441W        W25859  23.703  26.539  11.901
57442W        W25860  34.863  40.983   1.864
57443W        W25861   0.965  38.962   3.860
57444W        W25862   0.889  44.259  13.866
57445W        W25863  36.388  43.861  12.578
57446W        W25864   0.293   3.397   2.414
57447W        W25865  14.694   0.954   1.728
57448W        W25866   1.255   1.445   4.195
57449W        W25867  39.911  19.280   3.338
57450W        W25868  24.116   1.439   1.334
57451W        W25869  39.939  28.657  12.908
57452W        W25870   2.274  40.800   1.375
57453W        W25871  26.673  23.174  14.998
57454W        W25872   2.325  42.459   0.875
57455W        W25873  15.800  23.010   0.270
57456W        W25874  24.228   2.950   4.754
57457W        W25875  30.059  31.410   3.816
57458W        W25876  12.183  27.603   2.364
57459W        W25877  37.437  30.518  12.943
57460W        W25878  28.063  18.085   4.125
57461W        W25879  23.237   6.270  14.871
57462W        W25880  13.157   2.242  13.322
57463W        W25881  15.225  36.875   0.784
57464W        W25882  25.034   5.419  14.990
57465W        W25883  27.980   7.755  11.977
57466W        W25884   7.861  14.654   1.252
57467W        W25885  24.592  10.246  12.987
57468W        W25886   1.401   2.902  11.882
57469W        W25887  21.675  30.611  14.928
57470W        W25888  43.417  34.377   0.314
57471W        W25889  22.073  16.649   2.850
57472W        W25890  38.862  34.416  11.435
57473W        W25891   8.734  25.188  13.393
57474W        W25892  42.375  39.837  12.045
57475W        W25893  12.671   6.786   4.770
57476W        W25894  19.078  29.053   3.384
57477W        W25895  21.091  37.848  10.465
57478W        W25896   4.717  28.101   2.263
57479W        W25897  18.143   8.243   2.785
57480W        W25898  30.129  17.748  12.845
57481W        W25899  35.023  17.298   3.704
57482W        W25900  11.348  15.788   0.327
57483W        W25901  25.488  31.089   2.782
57484W        W25902  44.811  18.214  13.399
57485W        W25903  31.477  27.180  12.910
57486W        W25904  23.735   6.791  10.506
57487W        W25905  16.236  24.712   1.860
57488W        W25906  15.226   4.769   2.839
57489W        W25907  35.382  39.347   3.786
57490W        W25908   6.847  41.836   0.877
57491W        W25909   3.333   7.810  10.894
57492W        W25910  38.514  16.670   3.206
57493W        W25911  42.008  20.081  12.922
57494W        W25912  22.017  42.401   3.825
57495W        W25913  21.169  17.119  14.788
57496W        W25914  37.560  37.972  14.831
57497W        W25915  31.581   2.468  11.967
57498W        W25916   5.420   7.873   0.765
57499W        W25917  11.857  11.168  10.569
57500W        W25918   9.665  20.640   2.284
57501W        W25919  22.578  25.058   0.441
57502W        W25920  10.730   5.427  14.337
57503W        W25921  38.569  20.073  13.361
57504W        W25922  38.902  42.474   0.244
57505W        W25923  12.354  27.056   4.135
57506W        W25924   3.796  34.038  14.023
57507W        W25925   8.756  14.171  11.872
57508W        W25926  10.362  15.633  14.398
57509W        W25927   3.776  15.672   3.862
57510W        W25928  13.810   3.319  13.489
57511W        W25929  33.599  44.313   0.730
57512W        W25930  39.356  27.987   0.294
57513W        W25931  41.879   1.301   2.261
57514W        W25932  15.824  25.969  10.471
57515W        W25933  11.295   3.941   1.350
57516W        W25934  37.845  18.280   1.809
57517W        W25935   4.243  27.988   2.238
57518W        W25936  25.077   6.401   0.246
57519W        W25937  20.745  37.839   3.302
57520W        W25938  22.716  33.571   2.862
57521W        W25939  10.347   2.466   4.718
57522W        W25940  27.483  38.403  13.319
57523W        W25941  31.641  27.635  13.991
57524W        W25942  21.602  31.118  13.467
57525W        W25943  15.220  41.304  13.057
57526W        W25944  29.087   3.264  12.936
57527W        W25945   0.849  13.109  13.327
57528W        W25946  34.370  11.276  12.356
57529W        W25947   7.686  29.518  13.472
57530W        W25948  42.817  34.471   4.813
57531W        W25949  13.654  36.066   3.649
57532W        W25950  23.165   3.369   4.204
57533W        W25951  25.191  39.811  10.479
57534W        W25952  19.234   3.453   2.678
57535W        W25953  33.613  30.605   1.871
57536W        W25954  32.019  27.106   3.709
57537W        W25955  11.681  39.380  12.467
57538W        W25956  43.338  13.644   5.315
57539W        W25957  35.486   4.842  14.965
57540W        W25958  20.651  36.850   4.205
57541W        W25959  39.435   3.445   4.125
57542W        W25960   9.736  27.139   0.257
57543W        W25961  32.097  25.555  10.412
57544W        W25962  40.050   3.271   2.699
57545W        W25963  12.356  40.501  11.568
57546W        W25964   9.656   9.232  14.016
57547W        W25965  36.887   9.330   3.740
57548W        W25966  29.520   9.879  10.131
57549W        W25967  22.725  26.976  11.961
57550W        W25968  28.146  44.847   0.882
57551W        W25969  38.879  34.494  11.975
57552W        W25970  38.867  10.164   3.204
57553W        W25971   9.842   5.345  14.886
57554W        W25972  41.817   4.385  12.525
57555W        W25973  29.531  31.499  13.048
57556W        W25974  26.558  17.736  12.857
57557W        W25975  11.248  33.078   2.187
57558W        W25976  43.001  11.844   4.289
57559W        W25977  34.408  37.393  13.873
57560W        W25978  26.089  25.692   1.318
57561W        W25979  31.126  26.661  13.371
57562W        W25980  29.036   0.915   4.682
57563W        W25981  30.161  22.219   2.198
57564W        W25982   8.807  32.524   4.774
57565W        W25983  33.615  22.708  12.566
57566W        W25984  42.367  26.120   1.303
57567W        W25985  25.186  29.473   4.140
57568W        W25986   7.769  41.951  12.027
57569W        W25987  17.225  41.492  10.525
57570W        W25988  32.431  28.043   1.224
57571W        W25989   7.339   6.414  10.934
57572W        W25990  29.961  11.834   1.415
57573W        W25991  36.457  37.979   1.696
57574W        W25992  10.742  34.875   3.178
57575W        W25993  20.148  39.350  12.520
57576W        W25994  16.700  15.601  13.445
57577W        W25995   6.391  33.995   1.335
57578W        W25996  33.897  39.534  13.390
57579W        W25997   3.366  18.076   2.731
57580W        W25998  42.876  18.608   3.866
57581W        W25999  25.196  19.134   3.784
57582W        W26000  33.099  12.749   3.249
57583W        W26001  11.749  28.437  14.877
57584W        W26002  38.916  20.269   4.282
57585W        W26003  42.290  17.727   2.402
57586W        W26004  34.007  42.417   2.199
57587W        W26005   4.422  34.939   3.668
57588W        W26006  35.410  24.618  13.989
57589W        W26007  29.637  17.181   5.247
57590W        W26008   4.886  23.993  14.279
57591W        W26009  35.392  40.041  14.938
57592W        W26010   4.416   4.331   1.783
57593W        W26011  39.491  19.091   4.807
57594W        W26012  41.397  38.011   4.296
57595W        W26013  16.744  38.510   3.283
57596W        W26014  22.694  35.941   0.289
57597W        W26015  17.712  31.437   0.806
57598W        W26016  26.501  19.040  14.760
57599W        W26017   5.756  32.117   3.365
57600W        W26018  34.907  39.521   5.136
57601W        W26019  41.338  44.813  11.947
57602W        W26020   0.941  23.077   0.854
57603W        W26021  40.348  17.222  10.134
57604W        W26022  41.895  28.471  12.580
57605W        W26023  33.596  25.202  12.415
57606W        W26024   2.879   1.840   3.245
57607W        W26025  39.926  32.976  10.458
57608W        W26026  33.613  16.225   3.660
57609W        W26027  12.244   6.787   2.278
57610W        W26028  26.594  33.496  14.959
57611W        W26029  43.778   1.751  14.962
57612W        W26030   8.221   3.795  13.946
57613W        W26031  28.132  14.775  11.406
57614W        W26032  44.477  44.901  12.095
57615W        W26033   2.853  22.189  10.907
57616W        W26034  13.308  25.069  12.392
57617W        W26035  21.178  24.707   1.306
57618W        W26036  44.006  30.421  11.060
57619W        W26037   3.458  26.514   0.932
57620W        W26038  29.548  27.642   4.151
57621W        W26039  24.513  43.293   3.723
57622W        W26040  37.051  35.045  10.968
57623W        W26041  17.219  43.998  14.471
57624W        W26042  11.825  30.547   0.925
57625W        W26043  41.375   7.331  12.380
57626W        W26044  21.088  17.755  14.824
57627W        W26045   8.731  24.570   0.440
57628W        W26046  15.786  23.062   3.160
57629W        W26047   2.334  37.394   5.092
57630W        W26048   6.238   4.703   4.140
57631W        W26049  44.790   1.267   3.332
57632W        W26050  34.985   1.957   1.318
57633W        W26051  17.088   3.275  13.410
57634W        W26052   9.337   2.791  13.436
57635W        W26053  33.072   1.313   4.339
57636W        W26054  37.008   3.415   2.403
57637W        W26055  13.130   5.324  14.384
57638W        W26056  12.352  15.159   0.357
57639W        W26057   3.822   6.349   1.775
57640W        W26058  44.905  19.699  10.911
57641W        W26059  10.311   1.918   4.338
57642W        W26060  18.765  13.284  11.463
57643W        W26061  34.457   3.283  11.065
57644W        W26062  37.452  36.517  11.606
57645W        W26063  15.635  32.038   1.362
57646W        W26064  10.180  35.053  14.475
57647W        W26065  33.578  35.928   0.853
57648W        W26066  13.334  24.977   1.287
57649W        W26067  16.104  29.969   1.892
57650W        W26068  20.524  29.647   1.795
57651W        W26069  30.505   6.318  12.933
57652W        W26070  14.711  44.816  12.894
57653W        W26071   5.324  21.744   4.294
57654W        W26072  29.039  25.636   0.811
57655W        W26073   3.721  36.513   0.730
57656W        W26074  33.105  15.154   4.292
57657W        W26075  19.218  22.034   1.746
57658W        W26076  44.426  18.679   2.339
57659W        W26077  17.123  44.006  13.392
57660W        W26078   4.283  26.161  10.456
57661W        W26079  17.707  15.757  10.563
57662W        W26080  30.439   5.752   0.297
57663W        W26081  27.167  18.776  11.984
57664W        W26082   6.265  22.072  12.351
57665W        W26083  31.590  42.388  13.492
57666W        W26084  20.224  22.076   4.604
57667W        W26085   7.316   6.249   4.193
57668W        W26086  43.370  27.476  13.440
57669W        W26087  25.677   0.379   2.679
57670W        W26088  22.077  29.494   2.381
57671W        W26089  35.485   4.792  11.514
57672W        W26090  13.211  14.300  14.795
57673W        W26091  29.089  30.606  14.474
57674W        W26092  36.383  19.680   1.710
57675W        W26093  12.222  28.512   3.323
57676W        W26094  27.074  28.177  12.434
57677W        W26095   6.810  31.452   0.307
57678W        W26096  26.650  22.711  14.769
57679W        W26097  43.921   1.405  11.475
57680W        W26098  25.503  29.031  14.319
57681W        W26099  14.630  24.092   1.801
57682W        W26100  26.700  36.912  13.334
57683W        W26101   2.299   3.815   1.257
57684W        W26102  29.953  18.678   0.479
57685W        W26103  39.007  20.064   3.219
57686W        W26104   0.938  20.230   2.673
57687W        W26105  30.616  11.734   3.687
57688W        W26106  25.662  13.670   4.629
57689W        W26107  31.993   0.828  11.527
57690W        W26108  34.391  11.695   4.321
57691W        W26109   8.843  39.898   2.689
57692W        W26110  22.577  16.750   3.287
57693W        W26111  24.533   5.434   4.736
57694W        W26112  10.301  16.317   0.346
57695W        W26113  28.975  29.994  10.560
57696W        W26114  10.670  31.642   0.843
57697W        W26115  29.627  11.275   2.182
57698W        W26116  23.117  25.994   3.365
57699W        W26117  29.965  33.919  12.409
57700W        W26118  28.030  33.604   5.156
57701W        W26119  13.296  24.710  11.035
57702W        W26120   3.394  13.765   0.917
57703W        W26121  27.047  22.068  11.403
57704W        W26122   8.870  43.477   0.743
57705W        W26123   6.338  13.337   1.328
57706W        W26124   1.337  36.925   2.688
57707W        W26125   8.193   3.777   1.813
57708W        W26126  26.048  10.308   4.324
57709W        W26127  25.145  21.599   3.744
57710W        W26128  19.089  34.563  12.355
57711W        W26129  34.436  36.097   1.364
57712W        W26130  11.733  13.714   1.290
57713W        W26131   3.301  14.151  14.770
57714W        W26132   3.301   0.445  13.470
57715W        W26133  40.377  27.445  13.979
57716W        W26134  30.576  18.591  10.601
57717W        W26135  37.418  38.430   0.820
57718W        W26136  28.462  15.284  12.390
57719W        W26137  27.970  17.250   2.239
57720W        W26138   7.815  16.299  12.569
57721W        W26139  37.458  29.924   0.296
57722W        W26140  43.770   4.230  14.926
57723W        W26141  12.715   0.480   2.228
57724W        W26142   2.367  23.546  14.908
57725W        W26143   5.820  29.590   4.165
57726W        W26144  29.521  13.693   1.306
57727W        W26145  13.652  29.609  11.517
57728W        W26146  16.662   6.322  12.876
57729W        W26147  33.389  16.641  13.032
57730W        W26148  30.153  19.055   0.808
57731W        W26149  20.741  32.090  10.071
57732W        W26150  25.164  33.875   2.724
57733W        W26151   2.380  17.302   1.785
57734W        W26152  39.824  19.543   1.727
57735W        W26153  36.099  44.495   1.767
57736W        W26154  36.402   8.224  11.937
57737W        W26155  38.911  19.644  10.493
57738W        W26156  14.781  27.493   1.902
57739W        W26157   6.204  12.320   0.246
57740W        W26158   9.653  37.423  12.049
57741W        W26159  22.572   5.369   1.386
57742W        W26160  18.706   9.310  12.558
57743W        W26161   4.399   4.841   3.157
57744W        W26162  35.043   4.340  13.386
57745W        W26163   0.886  32.128   0.941
57746W        W26164   1.406   9.262  12.987
57747W        W26165   6.770  17.125   1.344
57748W        W26166  40.355  34.101   1.753
57749W        W26167   5.246   1.248  13.884
57750W        W26168  28.044  33.565  10.519
57751W        W26169   3.243  20.569   5.176
57752W        W26170   2.351  25.677   4.685
57753W        W26171  26.968  37.069  12.011
57754W        W26172  30.628  29.615  10.467
57755W        W26173  14.759  32.445  10.407
57756W        W26174  20.240  21.094   2.219
57757W        W26175   0.447   5.888   3.742
57758W        W26176  15.290  44.293   1.901
57759W        W26177  23.043  34.918   1.331
57760W        W26178  37.466  30.146   3.309
57761W        W26179   4.835  18.707  11.478
57762W        W26180  36.050  27.987   2.878
57763W        W26181  35.008  18.290  13.001
57764W        W26182  38.991  19.204  14.422
57765W        W26183  29.105  39.003  13.356
57766W        W26184  30.019  36.051  14.446
57767W        W26185  42.491  17.300   2.323
57768W        W26186  12.677  12.284  14.503
57769W        W26187  16.255  32.998  11.452
57770W        W26188  44.927  11.812  14.386
57771W        W26189  21.035  25.597  13.460
57772W        W26190  44.776  31.497   1.402
57773W        W26191  42.299  28.631   4.651
57774W        W26192   8.227  30.994  10.915
57775W        W26193  19.719   0.465  11.568
57776W        W26194  13.283  20.594  12.930
57777W        W26195  28.953  20.140  12.837
57778W        W26196  11.666  40.333   4.230
57779W        W26197   2.864   2.304   0.860
57780W        W26198  33.440   1.478  11.945
57781W        W26199   1.473  36.424   0.756
57782W        W26200   5.383  29.649   0.904
57783W        W26201  17.570  39.482   0.751
57784W        W26202  35.397  29.610  13.484
57785W        W26203  27.593  33.597   0.791
57786W        W26204  28.460  44.907  12.015
57787W        W26205  44.921  35.553   3.841
57788W        W26206  16.254   4.372   2.292
57789W        W26207  38.354  28.456  14.966
57790W        W26208  19.565  16.751  12.451
57791W        W26209  21.626  41.840   0.878
57792W        W26210  20.240  40.409   3.215
57793W        W26211  17.682   4.340   2.229
57794W        W26212   7.750   7.864   0.264
57795W        W26213  38.536  41.836  10.974
57796W        W26214  12.271  11.220   1.881
57797W        W26215  21.654   7.200  10.524
57798W        W26216  29.927  14.324   4.737
57799W        W26217  37.508  44.805   4.323
57800W        W26218  20.136  35.410   4.827
57801W        W26219  35.386  14.120  14.858
57802W        W26220   9.326  39.422  12.515
57803W        W26221  12.699  33.481   4.767
57804W        W26222  29.038  12.182  12.520
57805W        W26223  28.550   8.222   4.256
57806W        W26224   2.906  35.589   0.959
57807W        W26225  44.965  19.206  10.975
57808W        W26226  28.647  22.635   2.411
57809W        W26227   6.894   8.824  13.347
57810W        W26228  36.576  34.903   1.337
57811W        W26229   2.857  24.590   0.409
57812W        W26230  24.158  32.447   4.161
57813W        W26231  29.948  27.502  13.518
57814W        W26232  33.437  40.874   3.220
57815W        W26233  18.111  36.445   2.851
57816W        W26234  18.129  42.986  13.462
57817W        W26235   3.453  33.891   1.746
57818W        W26236   0.326   8.214   2.836
57819W        W26237  10.827  10.217   9.956
57820W        W26238   1.899  18.166  10.573
57821W        W26239  43.298  17.653  10.500
57822W        W26240  29.928  13.326  14.288
57823W        W26241  24.037  13.663   4.657
57824W        W26242  17.171   8.802   0.944
57825W        W26243  28.051  42.949  14.497
57826W        W26244  18.786  28.455   4.150
57827W        W26245  33.568  29.131  10.626
57828W        W26246  43.955  37.881  11.598
57829W        W26247  21.039  29.168   1.397
57830W        W26248  35.093  22.522   0.915
57831W        W26249  30.543  21.180   1.892
57832W        W26250  31.468  40.799  12.502
57833W        W26251  12.146   7.280  13.961
57834W        W26252   9.270   5.351   1.805
57835W        W26253   2.258  22.626  12.447
57836W        W26254   1.782  14.284   4.787
57837W        W26255  15.257  36.086   2.761
57838W        W26256  17.738  37.003  11.423
57839W        W26257   1.432  29.648  13.820
57840W        W26258   8.662  43.842   2.257
57841W        W26259  37.081  12.802   1.761
57842W        W26260  13.815  16.789   3.857
57843W        W26261  39.461  12.162  12.492
57844W        W26262  23.081  19.217  12.567
57845W        W26263  26.654  32.128   2.360
57846W        W26264  13.248  28.670  12.903
57847W        W26265  29.172  26.587  11.067
57848W        W26266   1.389  34.978  13.485
57849W        W26267  27.465  31.638   0.438
57850W        W26268  31.149  15.328  13.868
57851W        W26269  43.284  30.413   2.758
57852W        W26270  17.192   2.936   2.181
57853W        W26271  22.524  11.832  10.406
57854W        W26272  33.047  31.639  14.474
57855W        W26273  33.420  38.942   5.319
57856W        W26274   6.276  27.995   1.753
57857W        W26275  17.243  27.630   0.394
57858W        W26276  16.765  18.159   1.781
57859W        W26277  32.117  27.508  13.513
57860W        W26278  17.695  23.602  14.295
57861W        W26279  42.796  34.885   3.161
57862W        W26280  30.434  38.351  13.415
57863W        W26281  32.535  13.309  13.402
57864W        W26282  23.734  24.098  13.452
57865W        W26283  29.155   5.913  13.842
57866W        W26284  42.877   0.896  12.534
57867W        W26285  23.581  35.037  12.013
57868W        W26286  14.300  41.423  12.451
57869W        W26287  20.535  18.278  14.860
57870W        W26288  14.720   6.321   2.884
57871W        W26289  10.358  19.674  10.455
57872W        W26290  24.991  30.146   0.869
57873W        W26291  24.015  12.309   0.833
57874W        W26292  24.542   4.723  14.778
57875W        W26293  15.784  41.292   2.404
57876W        W26294  13.258  39.038  14.379
57877W        W26295  32.933  10.281  13.336
57878W        W26296   2.948  28.935   2.212
57879W        W26297  16.726  26.650   0.261
57880W        W26298  33.565   7.408   3.765
57881W        W26299  21.521   8.238   1.703
57882W        W26300  28.660  17.659  10.569
57883W        W26301  12.801  43.801   4.720
57884W        W26302  28.678   1.950  14.438
57885W        W26303   7.708  30.563   2.406
57886W        W26304  42.360   4.354   2.366
57887W        W26305   1.760  23.231  11.048
57888W        W26306  21.172  35.083   1.373
57889W        W26307  10.839   2.436   0.947
57890W        W26308  28.517  41.524   3.695
57891W        W26309  30.088  32.998  10.565
57892W        W26310  25.571   7.798  10.511
57893W        W26311  23.711  24.712   0.928
57894W        W26312   1.335  18.267  10.924
57895W        W26313  14.595  32.921   3.729
57896W        W26314  22.135   1.342  12.890
57897W        W26315  12.164  30.574  11.392
57898W        W26316  40.438  18.730  11.611
57899W        W26317   5.365  19.689   1.273
57900W        W26318  10.196  37.517   4.336
57901W        W26319  16.743   4.358  13.510
57902W        W26320  27.639  21.676  12.439
57903W        W26321  14.125  40.854   1.412
57904W        W26322   0.306  13.783  14.827
57905W        W26323  10.207  34.935   2.705
57906W        W26324  43.389  41.381   0.293
57907W        W26325  29.625  33.426   0.392
57908W        W26326  22.125  35.563  14.503
57909W        W26327  11.733  32.056  13.469
57910W        W26328   6.854  26.133   4.243
57911W        W26329  40.544  35.592  13.816
57912W        W26330  16.270  30.102   0.338
57913W        W26331  30.972  26.194  14.998
57914W        W26332  20.628  27.944  13.543
57915W        W26333  13.275   5.756  12.371
57916W        W26334  40.805  44.298  11.960
57917W        W26335  20.564  38.487  12.902
57918W        W26336  18.590   6.279  10.055
57919W        W26337   5.226  20.150  11.525
57920W        W26338  13.207  39.441   0.359
57921W        W26339   8.658  44.947   2.392
57922W        W26340  13.202  28.494   4.295
57923W        W26341   3.391   6.845   0.757
57924W        W26342  18.590  28.604   1.266
57925W        W26343  43.890  21.673  13.508
57926W        W26344  36.893  23.991  14.423
57927W        W26345  24.124  41.371  14.354
57928W        W26346  18.757  43.789   3.354
57929W        W26347  26.475  29.515  13.944
57930W        W26348  27.686   1.917   1.213
57931W        W26349   9.871  26.658   4.146
57932W        W26350   9.324   2.327   0.360
57933W        W26351  19.235  14.717  11.029
57934W        W26352  41.520  36.588  14.318
57935W        W26353  28.080   4.430   2.359
57936W        W26354  42.876   5.213  13.532
57937W        W26355  38.485   9.262  13.313
57938W        W26356  42.779  41.903  10.960
57939W        W26357  23.732   0.975  14.425
57940W        W26358  16.596   8.869   3.267
57941W        W26359   7.758  18.198   2.874
57942W        W26360  15.814   6.346   3.179
57943W        W26361  21.674  34.904  12.994
57944W        W26362  33.493  16.592  10.636
57945W        W26363  15.681  32.558  11.870
57946W        W26364   1.767   6.716   1.329
57947W        W26365  42.337  38.349   5.608
57948W        W26366  15.177  41.295  14.015
57949W        W26367  42.478  40.037   3.258
57950W        W26368  11.835  42.956   2.862
57951W        W26369  27.536  19.613  12.573
57952W        W26370  10.819  44.927  10.981
57953W        W26371  34.036   2.808  13.990
57954W        W26372   7.315  40.383   0.901
57955W        W26373  24.096  43.941  13.943
57956W        W26374  28.937  18.723   1.817
57957W        W26375  36.906  20.142  14.913
57958W        W26376  31.589  15.193  10.945
57959W        W26377  31.906  39.030   3.265
57960W        W26378  20.767  37.553  13.420
57961W        W26379  22.533  26.966  11.392
57962W        W26380  19.219   2.364   4.772
57963W        W26381  27.539  30.518   0.249
57964W        W26382  27.539  39.060   4.722
57965W        W26383  43.499   4.777  14.955
57966W        W26384  14.234  32.967   1.362
57967W        W26385  25.678   7.890   3.817
57968W        W26386   0.945  34.530   4.170
57969W        W26387   7.901  43.987   1.873
57970W        W26388  31.981  29.537   2.318
57971W        W26389  25.591   6.402  11.458
57972W        W26390   9.698  28.958   1.838
57973W        W26391  40.303  40.346   2.251
57974W        W26392   7.897  25.621  12.076
57975W        W26393  15.130  19.694   4.284
57976W        W26394  33.035  10.208  11.039
57977W        W26395   8.807  16.744   0.745
57978W        W26396  35.375  35.919  10.142
57979W        W26397  37.569  19.675  13.372
57980W        W26398   9.303  29.099  14.920
57981W        W26399  11.800  38.348   1.232
57982W        W26400  21.618  22.237  14.002
57983W        W26401  26.150  38.972  10.952
57984W        W26402  22.544   5.365   2.827
57985W        W26403  12.791  13.734  13.865
57986W        W26404  40.871   5.229   0.798
57987W        W26405  33.095  26.185   4.818
57988W        W26406  28.523  43.854  14.428
57989W        W26407  32.061  20.029   0.346
57990W        W26408  39.908   1.851  13.445
57991W        W26409   8.309  24.678  11.885
57992W        W26410  41.807  36.843   4.293
57993W        W26411  11.835   5.768   1.763
57994W        W26412  24.633  18.645  14.823
57995W        W26413  30.417  10.772   4.631
57996W        W26414  21.586  39.842   5.207
57997W        W26415  41.998   1.413   2.683
57998W        W26416   8.745  20.085  13.853
57999W        W26417  33.016  23.084   1.891
58000W        W26418  31.531  32.031   3.757
58001W        W26419  31.998  11.709  12.057
58002W        W26420  21.141   0.774   3.802
58003W        W26421  11.329  19.072   2.768
58004W        W26422  39.498  21.168  14.932
58005W        W26423  35.072  16.706  10.561
58006W        W26424   1.451   4.335   3.634
58007W        W26425  17.594   0.814  13.059
58008W        W26426   9.847  10.827   2.212
58009W        W26427  40.821  41.893   1.366
58010W        W26428  40.011  40.799   4.259
58011W        W26429  33.024   1.468   0.848
58012W        W26430   7.691  12.853   0.267
58013W        W26431   4.330  31.077  13.983
58014W        W26432  37.936  24.503   1.757
58015W        W26433  22.524   8.811  10.579
58016W        W26434  21.521  34.535   3.295
58017W        W26435  29.040   3.441   0.349
58018W        W26436   3.271  22.566   0.903
58019W        W26437  25.490  10.852  13.971
58020W        W26438   2.845  20.079  11.470
58021W        W26439  31.027   6.818  13.896
58022W        W26440  25.483  36.935  12.849
58023W        W26441  10.328   5.237   1.821
58024W        W26442  26.032   8.852  13.404
58025W        W26443  20.179  19.113   3.724
58026W        W26444  41.854  15.802   2.705
58027W        W26445  28.653  22.707  14.816
58028W        W26446  34.944  23.144  11.944
58029W        W26447  14.164  23.120   4.226
58030W        W26448  15.132  20.097   1.224
58031W        W26449  43.823  36.362   1.879
58032W        W26450  32.070  18.176  11.380
58033W        W26451  35.359  22.071  12.868
58034W        W26452   1.955  30.424   4.335
58035W        W26453  10.723  17.179  12.530
58036W        W26454  23.054  25.691   4.683
58037W        W26455   0.934  24.037   5.136
58038W        W26456  10.354  21.073  10.600
58039W        W26457  39.002   3.943   4.218
58040W        W26458  31.623  15.229  13.495
58041W        W26459  37.064  13.771  13.387
58042W        W26460  28.575  43.820   4.615
58043W        W26461  16.094  40.800  12.374
58044W        W26462  31.518   9.753   2.736
58045W        W26463   1.454  18.077   3.837
58046W        W26464   5.691  19.136  14.789
58047W        W26465  12.795  33.042   2.730
58048W        W26466   9.687  20.090  13.968
58049W        W26467  40.392   7.255  11.065
58050W        W26468  40.359  31.450  11.402
58051W        W26469  17.256  13.120   5.789
58052W        W26470  27.512  39.005   3.224
58053W        W26471  25.500  29.077  13.475
58054W        W26472  37.566   2.253   5.134
58055W        W26473  16.641   9.659   2.871
58056W        W26474  12.289  17.735   0.902
58057W        W26475   4.836  38.955  11.469
58058W        W26476  14.700  31.061  12.021
58059W        W26477  31.410  11.808   0.247
58060W        W26478  11.129  12.226  14.826
58061W        W26479   1.469  34.439  12.389
58062W        W26480  29.051  17.234  13.546
58063W        W26481  24.530  13.819  13.380
58064W        W26482  12.697  38.884   4.307
58065W        W26483  41.797  44.948   2.226
58066W        W26484  27.101   0.861  12.366
58067W        W26485  10.745  40.419   2.827
58068W        W26486  34.000  27.594  12.884
58069W        W26487  25.035  18.233  11.541
58070W        W26488   1.967   9.369   1.265
58071W        W26489  14.305  15.126   3.227
58072W        W26490  41.953   5.339  13.949
58073W        W26491   1.455   2.898   0.381
58074W        W26492  13.617  34.112  10.575
58075W        W26493  29.929   7.304  14.509
58076W        W26494  26.622  27.056   2.355
58077W        W26495   5.425   1.446  12.992
58078W        W26496  24.591  34.061   2.351
58079W        W26497  44.919   6.829   2.740
58080W        W26498  21.623   6.745   4.158
58081W        W26499  15.304  35.470   0.368
58082W        W26500   3.879  43.977  13.417
58083W        W26501  22.217  32.116  14.935
58084W        W26502  18.582   1.349  14.444
58085W        W26503  30.588   1.959   3.307
58086W        W26504  22.204  13.125   3.200
58087W        W26505   9.373  39.937   3.224
58088W        W26506   5.236  27.487  14.392
58089W        W26507  32.900  11.276  11.543
58090W        W26508  35.525  25.637   0.253
58091W        W26509  39.500  18.213   3.810
58092W        W26510  11.635  31.947  10.626
58093W        W26511  40.991  18.635  14.465
58094W        W26512  38.483  33.085   4.230
58095W        W26513  21.557  39.896   2.415
58096W        W26514   8.399  40.051   4.158
58097W        W26515  14.706  34.527   2.853
58098W        W26516  14.282  36.925   0.814
58099W        W26517  18.786  17.693   1.890
58100W        W26518  43.805  14.792   9.993
58101W        W26519  18.651   6.839  11.080
58102W        W26520  25.156  34.455  11.054
58103W        W26521  36.415  34.493  13.866
58104W        W26522  35.004  12.271   3.387
58105W        W26523  39.560   8.725   1.758
58106W        W26524  28.971  30.413  13.802
58107W        W26525  37.383  33.471   0.966
58108W        W26526  29.592  28.942  12.920
58109W        W26527  23.018  19.247  10.952
58110W        W26528  41.443  39.837  13.036
58111W        W26529  20.101  15.219  12.095
58112W        W26530  39.439  32.948  11.016
58113W        W26531   3.883  20.695  13.512
58114W        W26532  42.380  38.070  13.548
58115W        W26533  41.472  41.484  13.804
58116W        W26534  18.638  37.540   0.855
58117W        W26535  44.927  40.547   4.696
58118W        W26536   8.218  36.086  12.494
58119W        W26537   0.844  44.893   3.181
58120W        W26538   4.832  33.383   3.326
58121W        W26539   2.401  31.491  10.462
58122W        W26540  19.100  14.623  14.423
58123W        W26541  27.506  15.627  13.041
58124W        W26542  30.946  19.674  10.549
58125W        W26543   8.289  43.009   4.622
58126W        W26544   3.324  33.419  11.391
58127W        W26545  40.847  39.011  12.422
58128W        W26546  12.709  23.004   2.876
58129W        W26547  29.461   4.739   5.088
58130W        W26548   6.907  44.494   3.822
58131W        W26549  38.829   2.913   4.352
58132W        W26550   4.811   8.180   0.736
58133W        W26551  30.046  30.513   4.334
58134W        W26552  29.636   4.340   2.411
58135W        W26553  38.363  38.432  14.860
58136W        W26554   2.910  13.766  14.499
58137W        W26555   5.850  35.022  11.537
58138W        W26556  30.031  28.979   0.417
58139W        W26557  42.401  28.166  13.397
58140W        W26558  20.767  28.101   2.807
58141W        W26559  19.075   1.836   3.189
58142W        W26560   9.702  22.246  12.864
58143W        W26561  22.038   6.869  11.457
58144W        W26562  21.524  17.579   3.739
58145W        W26563   3.869  19.586  12.025
58146W        W26564  14.231  33.535   0.895
58147W        W26565  26.608   0.486   0.280
58148W        W26566  33.012  19.155  13.419
58149W        W26567  12.179   1.318  13.998
58150W        W26568  18.122  23.208   1.400
58151W        W26569   8.213  41.351  11.000
58152W        W26570  25.207  13.672   0.798
58153W        W26571  27.976  11.722   0.266
58154W        W26572  30.152  13.612  13.337
58155W        W26573  36.055   7.226  12.958
58156W        W26574  20.263  43.016  10.593
58157W        W26575  25.026  16.162   3.196
58158W        W26576  26.566  41.383  14.020
58159W        W26577  17.186  33.576  12.875
58160W        W26578  28.046   4.897  10.549
58161W        W26579  13.108  13.685  12.342
58162W        W26580  36.400  37.998   3.739
58163W        W26581   2.414   3.927  13.804
58164W        W26582   8.732   0.333   0.347
58165W        W26583  36.040  39.451   3.755
58166W        W26584  23.708  44.834  12.042
58167W        W26585  32.567  37.374   2.323
58168W        W26586  10.793   5.734  14.332
58169W        W26587  12.686  29.659   3.861
58170W        W26588  22.563  17.103   2.401
58171W        W26589  20.235  10.359   2.754
58172W        W26590  10.675   6.338   4.187
58173W        W26591   1.787  31.612  14.375
58174W        W26592   5.399  20.182  14.864
58175W        W26593  12.177   2.803   2.722
58176W        W26594  33.095   8.814  14.512
58177W        W26595  27.062  40.347   0.776
58178W        W26596   4.264  42.504   3.781
58179W        W26597  44.410  22.064  13.377
58180W        W26598  20.266  10.817   0.421
58181W        W26599   3.914  41.332  13.793
58182W        W26600   7.803  12.676  12.931
58183W        W26601  39.043   3.401   3.717
58184W        W26602  32.596  29.155  12.095
58185W        W26603  29.641   6.331   5.316
58186W        W26604   5.887   7.832  12.523
58187W        W26605  40.988   3.773   1.398
58188W        W26606  25.072  27.989  13.468
58189W        W26607   5.350  31.095   1.822
58190W        W26608   9.720  33.021  13.915
58191W        W26609  26.995  40.846   0.293
58192W        W26610  40.546  18.280  10.594
58193W        W26611  32.032  27.988   1.772
58194W        W26612   9.354  25.549  13.877
58195W        W26613   6.353  28.589  11.481
58196W        W26614   1.375  36.464   4.761
58197W        W26615   9.653  24.501  11.901
58198W        W26616  42.885   0.262   3.741
58199W        W26617  41.005   3.377   4.192
58200W        W26618   9.778  36.491   2.259
58201W        W26619  30.027  18.189   0.391
58202W        W26620  44.276   9.198   1.833
58203W        W26621   1.256  28.096  14.514
58204W        W26622  40.029  21.754   1.242
58205W        W26623   9.294  40.530  11.522
58206W        W26624   3.376  32.099   1.413
58207W        W26625   5.394  24.070  12.426
58208W        W26626  24.542   4.248  12.384
58209W        W26627  41.441  39.452   0.769
58210W        W26628  43.815  40.425  11.944
58211W        W26629  36.046  42.381  14.348
58212W        W26630  27.033  39.916  14.428
58213W        W26631  41.006  43.310  14.504
58214W        W26632  13.190  33.549  10.070
58215W        W26633   5.259   2.286   2.401
58216W        W26634  29.462  23.179   4.638
58217W        W26635   7.361   6.391   2.709
58218W        W26636   0.818  15.263  13.362
58219W        W26637  34.509   0.944  14.463
58220W        W26638  34.112  11.843   2.262
58221W        W26639  16.666  41.378   4.250
58222W        W26640  39.020   9.223  14.910
58223W        W26641   6.374  30.931  12.390
58224W        W26642   4.291  14.338  10.945
58225W        W26643  31.057  17.786   3.231
58226W        W26644   0.762   4.728  14.281
58227W        W26645  21.705  35.405  13.855
58228W        W26646  36.082   8.341  11.082
58229W        W26647  20.201  24.185  10.430
58230W        W26648  12.345  30.128   2.365
58231W        W26649  39.028  15.153  13.397
58232W        W26650  31.947   7.365  14.959
58233W        W26651  44.763  18.652  13.333
58234W        W26652  14.674  39.318  11.901
58235W        W26653   0.457   2.378   2.333
58236W        W26654  24.681  40.908   2.186
58237W        W26655  37.943  16.620   2.728
58238W        W26656  30.142   9.302   1.924
58239W        W26657   0.465  17.670  10.514
58240W        W26658  36.522  34.863   0.307
58241W        W26659  35.531  21.249  13.439
58242W        W26660   4.783  15.707  11.950
58243W        W26661   3.414  28.067  13.442
58244W        W26662  21.576  44.931  11.435
58245W        W26663  39.019  29.056  10.976
58246W        W26664   6.413   0.342   0.284
58247W        W26665  36.438  33.007  14.430
58248W        W26666  26.148   9.794  10.564
58249W        W26667  12.281  17.762  12.832
58250W        W26668  28.961  10.204  12.082
58251W        W26669   1.393  17.738  13.436
58252W        W26670  31.930   0.779   1.903
58253W        W26671   6.834  14.833  13.835
58254W        W26672   6.282  43.353   3.866
58255W        W26673  11.329  28.958   1.336
58256W        W26674  28.670  34.423  10.406
58257W        W26675  39.476  29.474  14.292
58258W        W26676  19.080  33.078   4.753
58259W        W26677  43.410   8.676  10.898
58260W        W26678  24.104  29.451  14.336
58261W        W26679   6.893  12.323  14.764
58262W        W26680  18.086  31.047   0.947
58263W        W26681  16.616  38.974   0.394
58264W        W26682  36.969  31.591  12.562
58265W        W26683  40.964  40.545  14.479
58266W        W26684  29.462  29.147  11.008
58267W        W26685  40.954  31.445  11.490
58268W        W26686   4.353  43.902   1.364
58269W        W26687   6.774  15.690  14.932
58270W        W26688   1.774  29.931  11.041
58271W        W26689   2.352  27.468  10.502
58272W        W26690   6.390  44.869  10.999
58273W        W26691  18.612  17.200   1.449
58274W        W26692  43.507  15.598  10.425
58275W        W26693   2.318  22.081   4.185
58276W        W26694   0.856  24.661  13.822
58277W        W26695   9.829  10.871  10.456
58278W        W26696  41.817  21.662   1.872
58279W        W26697  14.327  30.001  14.881
58280W        W26698  14.617  37.418  13.948
58281W        W26699  44.778  44.844   4.148
58282W        W26700   0.987  36.379   0.741
58283W        W26701   8.872   4.283   4.115
58284W        W26702  12.635  34.385   1.879
58285W        W26703  28.621  38.983   1.387
58286W        W26704  19.147   0.442  11.377
58287W        W26705  25.218  18.549  14.346
58288W        W26706   3.840  14.687  12.917
58289W        W26707   9.686   4.879  14.486
58290W        W26708  11.321  30.485   4.649
58291W        W26709  20.101  39.024   3.697
58292W        W26710  14.613  33.026   4.303
58293W        W26711  23.051  16.129  10.414
58294W        W26712  41.396  41.496  13.366
58295W        W26713  28.034  14.624  13.319
58296W        W26714  17.253  21.039   4.155
58297W        W26715  24.690   0.381   0.945
58298W        W26716  38.360  29.964   3.302
58299W        W26717  24.563  13.692  12.500
58300W        W26718  43.312  31.900   0.475
58301W        W26719  34.453  24.008  12.085
58302W        W26720  23.711   1.766  13.859
58303W        W26721   3.928  30.970  14.284
58304W        W26722  15.284  19.583  14.844
58305W        W26723  32.521  11.704   3.356
58306W        W26724  41.894   8.710  11.449
58307W        W26725  14.338  27.150  11.127
58308W        W26726  23.675  17.682   4.206
58309W        W26727  20.522   2.724   1.930
58310W        W26728  14.297  21.135  10.090
58311W        W26729  44.367  41.869  10.544
58312W        W26730   7.188  20.549  13.932
58313W        W26731  35.010  18.549   0.246
58314W        W26732  34.450  33.582  12.912
58315W        W26733   7.351  36.952   1.841
58316W        W26734  30.553  32.558   2.369
58317W        W26735  22.637   6.235   2.291
58318W        W26736   7.346  38.861  13.029
58319W        W26737   8.783  33.948   4.794
58320W        W26738   2.253   3.806   1.923
58321W        W26739   7.314  24.054   0.932
58322W        W26740  32.018  42.776   1.329
58323W        W26741  27.516  32.111  14.764
58324W        W26742  11.287   6.207   4.598
58325W        W26743  22.024  30.489  14.881
58326W        W26744  34.400  36.868  11.598
58327W        W26745   2.871  12.290  12.401
58328W        W26746  30.471  19.231   4.345
58329W        W26747  12.636  14.594   0.386
58330W        W26748  44.269  25.013   3.722
58331W        W26749   2.298   6.224  14.367
58332W        W26750  14.644  27.008  13.817
58333W        W26751  41.528   5.272  10.914
58334W        W26752   1.466  19.683   3.256
58335W        W26753  35.104  34.016   4.799
58336W        W26754  16.762  36.044   3.339
58337W        W26755  34.389  23.027   4.322
58338W        W26756   3.389  13.131  11.041
58339W        W26757   0.339  35.382  10.943
58340W        W26758  41.440  38.995   0.885
58341W        W26759  34.925  18.117   1.900
58342W        W26760  33.099  43.981  11.039
58343W        W26761  37.404  35.381  13.383
58344W        W26762  28.451  32.048   2.330
58345W        W26763  33.441   0.778   5.157
58346W        W26764  20.633  14.097   0.784
58347W        W26765  39.928   5.688   0.937
58348W        W26766  40.485  23.645   4.676
58349W        W26767  19.090  28.536  13.403
58350W        W26768  15.111   4.858   3.208
58351W        W26769  33.612   1.785  12.850
58352W        W26770  32.136   3.836  14.423
58353W        W26771  31.982  31.540  13.959
58354W        W26772  39.021   6.232   1.286
58355W        W26773   9.263  30.077   0.772
58356W        W26774  28.990  19.079   3.176
58357W        W26775  30.912  20.714  14.368
58358W        W26776  41.876  40.855   4.225
58359W        W26777  31.572  26.034   2.775
58360W        W26778  34.399   7.398   4.286
58361W        W26779  28.646  29.028  14.341
58362W        W26780  18.621  34.419  14.968
58363W        W26781   2.857  29.962   3.795
58364W        W26782  12.342   3.318   3.718
58365W        W26783  41.943  21.229  13.796
58366W        W26784  30.472   5.898   4.622
58367W        W26785  18.602  21.702   2.228
58368W        W26786  21.540  23.684  12.574
58369W        W26787  27.061   7.811   2.305
58370W        W26788   0.947  25.075   4.263
58371W        W26789   3.276   6.220   5.192
58372W        W26790  26.957  14.305  10.896
58373W        W26791  24.494   0.295  14.352
58374W        W26792  40.960   0.919  10.606
58375W        W26793  19.774  39.479  12.907
58376W        W26794  20.620   2.749  12.915
58377W        W26795  17.271   6.875  11.117
58378W        W26796  40.892  31.022   3.738
58379W        W26797  41.043  38.349   0.444
58380W        W26798   9.768   4.738  12.440
58381W        W26799   6.886  14.778   0.407
58382W        W26800  39.013  39.888  13.337
58383W        W26801  39.545  23.210  12.956
58384W        W26802   1.399  43.455   3.314
58385W        W26803  28.137  29.069   0.449
58386W        W26804  11.224   3.861  11.576
58387W        W26805  38.374  41.803  13.001
58388W        W26806   0.831  37.001  11.011
58389W        W26807   7.389  44.261  12.026
58390W        W26808  41.924  27.646   1.368
58391W        W26809  11.259   1.262   4.650
58392W        W26810  41.814  43.352   0.895
58393W        W26811   4.932  17.130   1.827
58394W        W26812  18.634  32.454   0.779
58395W        W26813  20.084  10.251  10.938
58396W        W26814   3.920  35.053   0.910
58397W        W26815  34.985  11.703  11.058
58398W        W26816  44.476  10.185  14.921
58399W        W26817  25.162   2.848  12.398
58400W        W26818  14.663  36.085   3.803
58401W        W26819   6.828  31.457  11.526
58402W        W26820  39.991  22.630  12.355
58403W        W26821  19.606   1.788   3.366
58404W        W26822  28.126   2.919  12.384
58405W        W26823  42.397  30.103   0.409
58406W        W26824   3.386  15.666  13.487
58407W        W26825  19.229  32.476   4.718
58408W        W26826  22.064  41.355  10.577
58409W        W26827  24.661   2.731   4.158
58410W        W26828  10.648   2.799   4.643
58411W        W26829  17.268  23.098  11.379
58412W        W26830  40.336  21.219   0.484
58413W        W26831  42.283  43.513   0.386
58414W        W26832   9.340  12.127   1.236
58415W        W26833  13.236  41.451   1.842
58416W        W26834  25.617  10.827  10.605
58417W        W26835  31.598  10.265   0.412
58418W        W26836  19.163   6.890  11.479
58419W        W26837  14.772  28.439  10.471
58420W        W26838  15.668  40.871   0.263
58421W        W26839  35.443   2.267  13.830
58422W        W26840   2.875  10.331  13.355
58423W        W26841   5.818  30.007  10.477
58424W        W26842  32.113  29.948  11.559
58425W        W26843   1.377  30.075  12.981
58426W        W26844  40.315  22.038  10.548
58427W        W26845  43.911   7.753  14.438
58428W        W26846  25.545   5.307   0.410
58429W        W26847  12.787  20.132   0.944
58430W        W26848  16.718  27.631   0.267
58431W        W26849  35.439  27.490  14.335
58432W        W26850   7.758   6.849  13.876
58433W        W26851  30.651  39.405  11.116
58434W        W26852  21.221  21.221   3.749
58435W        W26853  21.118  23.678  12.095
58436W        W26854  29.122  19.044  12.564
58437W        W26855  43.997  42.787  13.473
58438W        W26856  24.638   0.743  14.864
58439W        W26857  37.994  31.031  12.823
58440W        W26858  39.034  38.949   3.195
58441W        W26859   6.309  32.462  11.534
58442W        W26860   1.253   5.890  11.399
58443W        W26861  19.231  28.655  14.386
58444W        W26862  44.882  10.701   1.418
58445W        W26863  13.809  33.884   4.273
58446W        W26864  22.672   9.753  14.459
58447W        W26865  39.825  38.982  10.911
58448W        W26866  32.447  36.007   0.300
58449W        W26867   8.782   1.887   3.253
58450W        W26868  35.941  23.183   2.356
58451W        W26869  20.029  14.634   0.843
58452W        W26870   7.241  31.493  12.877
58453W        W26871  13.194  38.437   4.275
58454W        W26872   9.823  15.137  12.553
58455W        W26873  18.062  22.697   3.675
58456W        W26874  13.147   2.854   2.707
58457W        W26875  22.161  43.366   4.352
58458W        W26876  10.648   7.346   1.787
58459W        W26877  36.563  11.282  13.421
58460W        W26878   6.393  27.958  12.903
58461W        W26879   2.839  16.766  11.985
58462W        W26880   0.889  23.661  10.008
58463W        W26881  17.590  34.514   2.360
58464W        W26882  43.004   6.266  10.491
58465W        W26883  41.386  23.642  10.570
58466W        W26884  18.185  14.179  12.559
58467W        W26885   9.165  36.520  14.293
58468W        W26886  23.549  19.704  14.331
58469W        W26887  28.178  41.879  11.438
58470W        W26888  33.995  34.611  12.440
58471W        W26889  35.994  36.378  12.372
58472W        W26890  29.504  31.608  12.368
58473W        W26891  17.584   8.190  13.372
58474W        W26892  21.226  30.986  14.496
58475W        W26893   1.357  36.870  11.556
58476W        W26894  27.072  11.748   4.696
58477W        W26895  17.754   7.906  13.444
58478W        W26896  17.714  39.326   3.854
58479W        W26897  30.587  20.234   4.332
58480W        W26898  10.665  15.101  12.948
58481W        W26899  27.985  32.921  14.766
58482W        W26900   1.973  17.288  13.883
58483W        W26901  28.496   0.971   1.311
58484W        W26902   6.237  35.069   4.628
58485W        W26903  16.585  27.524   1.853
58486W        W26904   4.825  22.123   1.803
58487W        W26905   9.688  11.129  11.935
58488W        W26906  15.274   4.742  10.093
58489W        W26907  32.526   1.868   3.169
58490W        W26908  27.600  24.670  14.019
58491W        W26909  17.136  30.921   4.744
58492W        W26910   2.789  15.205  10.425
58493W        W26911   9.309  17.301   1.699
58494W        W26912  31.421   0.482   3.377
58495W        W26913  32.018  13.836   0.470
58496W        W26914  17.188  42.002   0.947
58497W        W26915  21.731  18.791   4.694
58498W        W26916  11.741  22.048  14.414
58499W        W26917  42.444  35.055   2.668
58500W        W26918  21.704  31.091  14.973
58501W        W26919  37.841  28.094   0.751
58502W        W26920  44.783  26.517  13.331
58503W        W26921  42.811  37.881   1.737
58504W        W26922   5.215  22.722   9.927
58505W        W26923  14.154  22.069   1.293
58506W        W26924   2.384  10.253   4.602
58507W        W26925  10.251  11.233  10.405
58508W        W26926  30.579  18.116  13.971
58509W        W26927   0.821   0.437  12.427
58510W        W26928  30.156   0.929   0.398
58511W        W26929  20.131   5.694   1.918
58512W        W26930  25.552  18.118  13.059
58513W        W26931  33.484  38.445  11.560
58514W        W26932  40.923  18.191   2.898
58515W        W26933  33.448  35.430  12.411
58516W        W26934  20.704   7.273   4.778
58517W        W26935  24.208  33.584   3.320
58518W        W26936  14.260  12.806  12.416
58519W        W26937  10.325  36.066  10.091
58520W        W26938  34.579   5.871  14.989
58521W        W26939  32.430  27.536  11.556
58522W        W26940   9.342  39.012   2.676
58523W        W26941   4.280  10.877   1.235
58524W        W26942   5.275  12.623   4.118
58525W        W26943  17.794   9.332  11.596
58526W        W26944  22.704  31.929  12.351
58527W        W26945  21.676  33.511   1.865
58528W        W26946  22.013   9.823   3.214
58529W        W26947  26.973  15.128  10.906
58530W        W26948  27.133  21.203   4.194
58531W        W26949  19.171   5.361   3.198
58532W        W26950  13.338  28.070  12.000
58533W        W26951  24.599  31.529   4.604
58534W        W26952   4.374  34.054  10.432
58535W        W26953  26.031   1.906  14.765
58536W        W26954  10.719  25.589  12.960
58537W        W26955  42.890  44.937   1.890
58538W        W26956  42.435  33.466  10.587
58539W        W26957  35.411   6.892  13.812
58540W        W26958   8.233  43.333  11.856
58541W        W26959  28.936   1.284   1.728
58542W        W26960  18.125  16.151  13.518
58543W        W26961  35.864  22.068  12.340
58544W        W26962  22.228  36.083  14.772
58545W        W26963  17.658  24.060  12.565
58546W        W26964   0.271  15.725   3.241
58547W        W26965  21.048  27.943   4.827
58548W        W26966  19.627  25.618   1.406
58549W        W26967  33.109  24.102  13.856
58550W        W26968  32.457  37.482  13.972
58551W        W26969  36.875  33.601  12.352
58552W        W26970  31.924  26.096  11.596
58553W        W26971  34.544  19.260  12.036
58554W        W26972  24.142  33.098   2.767
58555W        W26973  15.264  32.490  10.972
58556W        W26974  29.016   0.309   0.387
58557W        W26975  44.992  20.030  10.519
58558W        W26976  26.059  31.898  11.509
58559W        W26977  23.604  12.642  10.564
58560W        W26978  16.631  25.681   1.374
58561W        W26979  43.312  22.224  10.553
58562W        W26980  37.426  27.531  13.526
58563W        W26981  23.164   4.204   2.831
58564W        W26982  25.989  10.355  10.899
58565W        W26983  13.661  32.903   3.857
58566W        W26984  22.236   9.319   1.831
58567W        W26985  38.536   7.219   1.282
58568W        W26986  37.862  15.252  11.956
58569W        W26987  25.205  41.895   1.372
58570W        W26988   1.748  23.077  13.507
58571W        W26989  25.523  18.770  14.504
58572W        W26990  33.099   5.842  14.499
58573W        W26991  43.983  12.813   2.757
58574W        W26992  30.936  41.963   1.298
58575W        W26993  28.067  36.926  12.385
58576W        W26994  25.575  27.978  14.940
58577W        W26995  37.467   5.836   0.463
58578W        W26996  30.971  17.658  14.287
58579W        W26997   4.310   1.737   0.307
58580W        W26998  36.886  19.257  14.495
58581W        W26999  26.688   5.819   4.349
58582W        W27000  34.890  35.391  14.010
58583W        W27001  28.962  30.998  11.479
58584W        W27002   7.257  23.683   3.653
58585W        W27003  32.418  27.165   4.198
58586W        W27004  27.538   2.766   0.887
58587W        W27005   1.864  23.615  12.375
58588W        W27006  27.007  37.510   4.650
58589W        W27007   8.300  16.676  11.117
58590W        W27008  41.987  27.083   2.684
58591W        W27009  10.660  15.304  10.500
58592W        W27010  28.965   4.437  11.033
58593W        W27011  10.295  40.403   3.810
58594W        W27012   8.315  40.829   1.711
58595W        W27013  11.725   1.437   4.275
58596W        W27014  13.651  18.707  14.391
58597W        W27015  35.567  20.237   2.850
58598W        W27016  20.525  37.467  12.037
58599W        W27017   0.910  25.636  14.017
58600W        W27018   6.256  35.603  10.464
58601W        W27019  28.063  16.086   0.864
58602W        W27020  25.508   0.364  14.460
58603W        W27021  21.515  13.143   3.304
58604W        W27022  16.135  43.858  10.978
58605W        W27023   1.839  43.802   0.859
58606W        W27024  12.845  27.998  12.386
58607W        W27025  35.854  15.762   2.781
58608W        W27026  13.343  34.615  12.553
58609W        W27027  25.503   1.270   4.827
58610W        W27028  41.803  16.231   2.228
58611W        W27029  19.601   7.279   2.739
58612W        W27030  42.861  28.678  13.424
58613W        W27031   8.322  16.803   4.797
58614W        W27032  14.743  42.335   3.223
58615W        W27033  13.271  11.253   4.615
58616W        W27034  11.354  22.738  14.290
58617W        W27035   3.904  36.073   4.350
58618W        W27036  29.447  26.460   5.197
58619W        W27037  16.573  12.788   1.366
58620W        W27038   4.207  35.095   0.325
58621W        W27039  35.493  25.163  11.889
58622W        W27040  39.435  18.197  11.392
58623W        W27041  20.091  18.051   3.213
58624W        W27042   0.764   0.430  11.456
58625W        W27043   1.935  35.514   4.233
58626W        W27044   1.250  13.273  11.565
58627W        W27045  25.624   1.375   2.894
58628W        W27046  10.859  28.680  14.834
58629W        W27047  35.441  30.039   2.292
58630W        W27048  21.629  24.580   2.310
58631W        W27049  30.137  39.560  11.428
58632W        W27050  12.339   7.230  14.794
58633W        W27051  20.095  25.974  10.501
58634W        W27052  44.291  34.554  13.449
58635W        W27053  21.133   5.196  10.984
58636W        W27054  39.365  41.501   3.860
58637W        W27055  29.008   9.189   1.283
58638W        W27056  12.289   8.271   0.847
58639W        W27057   4.891  40.510  11.601
58640W        W27058  32.116  35.460  14.816
58641W        W27059  32.038  40.029  12.952
58642W        W27060   6.377  42.441   3.174
58643W        W27061  10.840  24.649  12.376
58644W        W27062  29.429  12.708   2.262
58645W        W27063  26.703  29.505   1.884
58646W        W27064  17.061  41.398   0.905
58647W        W27065  17.296  14.122  10.484
58648W        W27066  34.938  18.290   0.451
58649W        W27067   5.288  25.035  14.422
58650W        W27068  14.268  37.398  10.157
58651W        W27069  10.288  40.454  10.629
58652W        W27070  10.228   4.224  10.954
58653W        W27071  32.994  41.010  10.461
58654W        W27072  44.962  34.383   3.342
58655W        W27073  41.825  15.147  12.930
58656W        W27074  38.851  34.489   0.456
58657W        W27075  39.057   1.889  12.006
58658W        W27076  39.559  20.039  11.915
58659W        W27077   5.280   0.444   2.415
58660W        W27078  11.766  19.633  10.505
58661W        W27079  19.571  35.536  12.019
58662W        W27080  26.639   0.749  14.908
58663W        W27081   8.861  12.614   9.931
58664W        W27082  15.620  35.084   4.723
58665W        W27083  22.637  38.892  14.950
58666W        W27084  24.092  21.099   4.834
58667W        W27085  19.156  14.737   0.831
58668W        W27086  25.113  29.003   0.844
58669W        W27087  25.983  32.018   4.309
58670W        W27088  34.019  21.615   2.706
58671W        W27089  36.496  12.230   3.696
58672W        W27090   9.683  30.641   3.380
58673W        W27091  28.528  13.205   2.358
58674W        W27092  17.231  10.323   2.733
58675W        W27093   8.168  12.749   1.868
58676W        W27094  24.002  20.713   4.796
58677W        W27095  35.395  44.326   3.369
58678W        W27096  40.395   3.910   0.324
58679W        W27097  27.561  41.825   0.808
58680W        W27098  40.958  20.624   0.862
58681W        W27099  39.847  26.473  14.422
58682W        W27100  13.742  42.414   3.183
58683W        W27101  41.027  43.921  13.338
58684W        W27102   3.833   5.316  14.822
58685W        W27103  14.326   6.336   1.866
58686W        W27104  38.923  16.593  14.800
58687W        W27105  18.656  22.563   3.258
58688W        W27106  37.993  44.873  13.500
58689W        W27107   6.399  35.091  14.506
58690W        W27108  16.723  27.131  10.970
58691W        W27109   7.667  19.772  11.475
58692W        W27110   3.847  18.274  11.585
58693W        W27111  38.957  39.444   4.610
58694W        W27112  32.427  29.581   0.271
58695W        W27113  30.105  20.728  12.914
58696W        W27114  35.546  16.609  11.500
58697W        W27115  44.868  34.109   0.436
58698W        W27116   0.486  20.624  13.967
58699W        W27117  18.630  34.027   3.831
58700W        W27118  21.595   8.692  10.479
58701W        W27119  37.447  44.844   1.833
58702W        W27120  24.553  41.493   4.617
58703W        W27121  14.292  19.094   0.732
58704W        W27122   6.223  32.109   0.839
58705W        W27123  36.992   3.861   1.808
58706W        W27124  31.065  11.859   5.279
58707W        W27125  29.953   9.359   0.830
58708W        W27126  32.479  31.636  12.446
58709W        W27127  33.544   0.412   4.248
58710W        W27128  41.895  30.056  11.513
58711W        W27129   0.367  18.143   1.337
58712W        W27130  28.464  24.643  14.391
58713W        W27131  35.019  29.656   0.483
58714W        W27132  19.674  17.755   2.360
58715W        W27133  24.604  23.722  11.465
58716W        W27134  19.110   1.451   4.266
58717W        W27135  26.462  11.164   9.958
58718W        W27136  30.982  26.478   9.922
58719W        W27137  26.089  11.145   2.881
58720W        W27138  25.011  43.920   3.725
58721W        W27139  38.005  42.979   3.339
58722W        W27140  43.800  44.995   2.325
58723W        W27141  14.266  37.031  10.444
58724W        W27142   2.730  44.978   0.379
58725W        W27143   2.780   5.435  14.926
58726W        W27144   9.179  26.691  11.899
58727W        W27145  23.044  11.333  11.879
58728W        W27146  44.843  24.037   5.131
58729W        W27147   4.288  34.382   2.730
58730W        W27148  13.658   9.358   2.883
58731W        W27149  33.578   1.428  14.475
58732W        W27150  17.789  39.895   2.256
58733W        W27151  23.086  14.588  12.403
58734W        W27152  34.412  43.925  12.841
58735W        W27153  29.486   6.192   3.147
58736W        W27154  15.714   5.792   1.795
58737W        W27155  28.676   9.277   2.846
58738W        W27156  26.182  19.671  11.490
58739W        W27157  34.994  30.621  12.924
58740W        W27158  20.586   8.832  13.796
58741W        W27159   1.942  19.164   9.562
58742W        W27160   9.741  33.130  12.006
58743W        W27161   8.901  10.181   3.192
58744W        W27162   4.405  30.917  11.955
58745W        W27163   0.752   6.716  14.992
58746W        W27164  30.520   7.189   3.275
58747W        W27165  19.753  41.489  12.865
58748W        W27166   1.752  15.762   0.833
58749W        W27167  16.675  42.401   0.484
58750W        W27168   0.955   8.898   4.802
58751W        W27169  32.141  29.061   0.430
58752W        W27170  40.378  11.313  10.536
58753W        W27171   8.845  13.794  11.863
58754W        W27172  20.555   4.295   1.303
58755W        W27173  22.016  27.448  12.902
58756W        W27174   1.937   3.417  11.603
58757W        W27175   9.310  44.295   4.683
58758W        W27176  33.066  38.378   3.671
58759W        W27177  40.949   7.175  13.052
58760W        W27178  37.479  37.467  12.831
58761W        W27179   9.890   9.740   4.797
58762W        W27180  16.681  32.988  11.100
58763W        W27181   3.248  19.240  12.379
58764W        W27182  13.805  44.505   4.669
58765W        W27183  39.330  16.202   1.441
58766W        W27184   1.743  18.093  13.059
58767W        W27185  41.422  26.127   0.916
58768W        W27186  23.189  22.693   3.818
58769W        W27187  12.736  16.285   1.445
58770W        W27188  18.737  33.893  12.440
58771W        W27189   2.375  29.542  10.581
58772W        W27190  12.675  12.193   3.811
58773W        W27191  38.538   4.300  14.343
58774W        W27192  32.921  20.160   4.276
58775W        W27193  19.175  25.662   5.086
58776W        W27194  24.621  27.643   0.873
58777W        W27195  34.411  37.837   1.701
58778W        W27196  17.572  40.466   4.338
58779W        W27197  31.897   5.221  13.025
58780W        W27198  41.832  25.108   2.846
58781W        W27199  24.141  16.701  10.559
58782W        W27200   4.862  15.613   0.852
58783W        W27201   0.305  42.455   0.319
58784W        W27202  38.443  11.371  11.433
58785W        W27203  28.524  32.574   2.246
58786W        W27204  44.967  34.994   3.738
58787W        W27205  29.935  39.062  10.014
58788W        W27206  35.568  11.734   3.193
58789W        W27207  35.361  11.670   2.322
58790W        W27208  24.982  10.728   1.298
58791W        W27209  36.849  23.054  12.441
58792W        W27210  44.435  10.233  11.541
58793W        W27211  28.590  40.943   4.158
58794W        W27212  26.670  24.528   1.254
58795W        W27213  30.458  33.570   2.258
58796W        W27214  10.216   3.897   0.483
58797W        W27215  26.113  26.501  13.874
58798W        W27216  24.199  33.555   4.206
58799W        W27217  10.642   5.842   2.876
58800W        W27218   8.792  43.900  14.999
58801W        W27219  27.013  24.594   1.220
58802W        W27220  12.291  43.389   3.304
58803W        W27221  43.360  34.960   1.398
58804W        W27222   6.887   9.819   4.766
58805W        W27223  23.093  29.123  13.515
58806W        W27224  39.008  10.635   3.715
58807W        W27225  24.104  17.790  14.945
58808W        W27226  27.173   6.744   9.958
58809W        W27227  40.491  41.412   2.674
58810W        W27228  38.826  18.099   5.089
58811W        W27229  33.610  44.343  14.508
58812W        W27230   0.797  27.120  14.437
58813W        W27231  35.529   5.372  11.470
58814W        W27232  14.306  19.042   4.599
58815W        W27233   0.370   3.286   0.898
58816W        W27234   2.963  37.027  14.912
58817W        W27235  35.516  26.648   1.325
58818W        W27236  41.904   2.899  14.870
58819W        W27237  38.852  35.925  11.019
58820W        W27238   7.290   5.758   2.283
58821W        W27239  43.797  13.313   4.710
58822W        W27240  42.889  15.597   4.778
58823W        W27241  36.385  27.051  12.017
58824W        W27242  33.914  33.449   2.307
58825W        W27243  17.575   5.928   4.642
58826W        W27244  14.644  13.181  10.939
58827W        W27245   5.919  33.117   4.834
58828W        W27246  15.702  31.643  10.894
58829W        W27247   2.809  17.126  10.960
58830W        W27248  27.072  36.530   3.371
58831W        W27249  15.614   2.354   5.085
58832W        W27250  19.238  41.425   4.135
58833W        W27251  19.701   2.385  14.774
58834W        W27252  17.237  10.756  10.569
58835W        W27253   1.812  41.846  13.397
58836W        W27254  38.519  22.080   1.806
58837W        W27255  27.197   9.391   1.732
58838W        W27256   8.832  39.415  13.443
58839W        W27257   3.953   0.968   3.650
58840W        W27258   6.705  20.713   2.320
58841W        W27259  30.151  35.882   0.961
58842W        W27260  22.514   3.922  12.088
58843W        W27261   7.745  17.645   3.669
58844W        W27262  38.997  41.482   3.153
58845W        W27263  14.703  44.804  14.323
58846W        W27264   7.273  38.330  13.811
58847W        W27265  28.153   1.317   2.841
58848W        W27266  31.909  43.014   5.141
58849W        W27267  24.132  25.655  13.863
58850W        W27268  20.554  32.096  11.378
58851W        W27269   5.865  12.844  14.841
58852W        W27270  29.426   9.322   1.324
58853W        W27271  10.638  20.726   0.935
58854W        W27272  38.523  13.714  10.971
58855W        W27273  21.681  10.646  13.386
58856W        W27274  33.382  25.173  10.100
58857W        W27275   4.869  17.673   3.727
58858W        W27276   1.391  26.593   2.755
58859W        W27277  14.315  22.723  12.470
58860W        W27278  28.600  21.614   2.795
58861W        W27279  44.793  27.632  11.380
58862W        W27280  22.161   7.288   1.743
58863W        W27281   0.479  21.675   2.265
58864W        W27282   0.361  30.486  13.385
58865W        W27283  21.238  25.130   3.707
58866W        W27284   2.952   8.312   0.393
58867W        W27285   9.721   5.832   1.899
58868W        W27286  13.174  42.972   1.824
58869W        W27287  17.188  34.551  13.490
58870W        W27288   0.300   6.722  13.904
58871W        W27289  21.608  32.933  14.462
58872W        W27290  40.310  44.912  10.429
58873W        W27291  35.508  44.320  10.596
58874W        W27292  17.161   5.386   2.724
58875W        W27293  37.419  23.587  10.539
58876W        W27294  13.670   5.847  10.133
58877W        W27295  11.628  20.653  14.770
58878W        W27296  36.000  35.576   4.275
58879W        W27297  29.661  14.642   4.151
58880W        W27298   4.809  29.471  13.522
58881W        W27299  31.973  25.076   1.885
58882W        W27300  10.205  17.758   3.371
58883W        W27301  42.863  26.986   0.310
58884W        W27302  26.098  13.676   3.165
58885W        W27303  29.554   8.726   5.292
58886W        W27304  27.511  39.044   3.835
58887W        W27305  31.963  26.014   4.345
58888W        W27306  12.791  43.872  12.086
58889W        W27307  25.559  28.472   2.662
58890W        W27308  42.494   0.279   4.829
58891W        W27309  33.924  23.084   1.770
58892W        W27310  34.605  42.003  13.917
58893W        W27311  33.582  19.204   0.932
58894W        W27312  34.468  33.895  11.406
58895W        W27313  20.163  23.107  12.452
58896W        W27314  32.067   3.331  10.420
58897W        W27315  16.183  11.661  11.091
58898W        W27316  11.248  44.324  10.644
58899W        W27317  18.169  39.921  11.931
58900W        W27318  28.482  11.686   1.933
58901W        W27319  41.941   4.916   0.849
58902W        W27320  31.003  16.744   4.170
58903W        W27321  29.119   0.461  11.887
58904W        W27322  20.753  42.313   4.307
58905W        W27323  43.475   3.323   5.190
58906W        W27324  33.019  33.556   3.830
58907W        W27325   3.325   0.404   4.351
58908W        W27326  14.643  14.201   4.338
58909W        W27327   0.280  36.919  14.837
58910W        W27328  33.016   0.960   2.224
58911W        W27329  30.591  25.501  14.875
58912W        W27330  43.398  21.191   1.716
58913W        W27331  32.417  14.171  13.005
58914W        W27332   7.701  41.012  12.340
58915W        W27333  15.275  34.435   3.314
58916W        W27334  30.502  28.468   1.853
58917W        W27335  41.871  13.241  13.983
58918W        W27336  17.096  18.774   4.776
58919W        W27337  29.616  16.675  14.364
58920W        W27338  40.834   7.218   0.462
58921W        W27339  35.876  41.860   1.229
58922W        W27340  26.127  36.036   1.355
58923W        W27341  22.568  30.941   2.810
58924W        W27342  41.843   3.343   4.672
58925W        W27343   3.904  35.458  10.896
58926W        W27344  18.206  41.485  13.325
58927W        W27345   3.892  38.459   1.220
58928W        W27346  38.883  19.065  14.886
58929W        W27347  24.040  19.239   3.811
58930W        W27348   2.879  19.570   3.694
58931W        W27349  41.996   1.256  13.393
58932W        W27350   1.345  23.002   0.911
58933W        W27351  24.575  25.994   0.817
58934W        W27352  31.976  39.886  13.961
58935W        W27353   1.850  37.843  10.910
58936W        W27354   3.425  31.902   4.822
58937W        W27355   8.239  43.416  14.288
58938W        W27356  33.121  37.982  11.863
58939W        W27357  21.570  31.092  12.073
58940W        W27358  36.918   6.747  11.024
58941W        W27359  10.350  34.025   1.401
58942W        W27360  22.707  25.091  14.947
58943W        W27361   3.862  44.820  12.096
58944W        W27362   3.856  12.773   4.214
58945W        W27363  29.582  11.741   2.405
58946W        W27364   4.793  17.587  12.074
58947W        W27365  17.184  30.643   2.339
58948W        W27366  17.241  33.505  11.954
58949W        W27367   7.828  38.851  13.344
58950W        W27368  39.492  24.621  10.561
58951W        W27369  29.117  15.220   2.314
58952W        W27370  31.144   9.666  12.046
58953W        W27371   2.395  43.456   2.743
58954W        W27372  42.800  19.671  13.826
58955W        W27373  30.948  37.367  13.333
58956W        W27374  37.519  33.432   0.433
58957W        W27375  22.099  15.797   2.330
58958W        W27376  20.148  39.857  14.468
58959W        W27377  15.692  21.737  12.462
58960W        W27378  15.162  10.763   1.754
58961W        W27379  26.501  22.090   4.819
58962W        W27380  36.916  31.521  12.877
58963W        W27381  20.766   8.676  14.846
58964W        W27382  33.948   4.759   0.951
58965W        W27383  26.176  20.209   0.350
58966W        W27384  25.487  12.334   4.601
58967W        W27385  44.959   9.842  13.955
58968W        W27386   5.234  32.973  11.880
58969W        W27387  44.957  20.085   0.366
58970W        W27388  25.085  14.232  10.953
58971W        W27389  24.974  22.727  11.581
58972W        W27390  19.248  31.988   3.765
58973W        W27391  26.613  26.107   3.636
58974W        W27392  11.864   6.719   4.681
58975W        W27393  42.283   0.292  11.587
58976W        W27394  42.969  10.178   2.827
58977W        W27395  27.956  32.600   4.614
58978W        W27396   0.901  32.124  10.442
58979W        W27397  25.051  18.722   2.718
58980W        W27398  26.103  12.239   2.392
58981W        W27399  39.947  11.631  14.320
58982W        W27400  40.325  44.424  12.550
58983W        W27401  20.535  23.065  12.950
58984W        W27402  44.490  29.511   1.233
58985W        W27403  38.830   2.261   4.237
58986W        W27404  15.774  39.360   1.276
58987W        W27405  32.042  18.259  10.019
58988W        W27406  26.665  42.820   0.791
58989W        W27407  10.332  40.486  14.008
58990W        W27408  17.229  42.359  13.863
58991W        W27409   7.255  12.647  11.394
58992W        W27410  40.447   0.472   0.349
58993W        W27411  15.289  29.988   3.382
58994W        W27412  12.171  22.615  11.419
58995W        W27413  29.082  12.206   3.701
58996W        W27414  36.434   7.683   1.868
58997W        W27415   4.244  41.316  13.031
58998W        W27416   7.359  29.643  10.457
58999W        W27417   2.414   0.297  13.003
59000W        W27418   0.408  37.991   0.275
59001W        W27419  33.610  35.531  10.989
59002W        W27420   8.832  19.753  10.564
59003W        W27421   0.850  14.094   3.673
59004W        W27422  21.201  40.403  11.489
59005W        W27423  10.373  21.127  12.042
59006W        W27424  14.247  11.239   1.313
59007W        W27425  38.394  28.494   3.359
59008W        W27426  29.946   5.929   3.772
59009W        W27427   5.764  30.657  12.428
59010W        W27428  13.211  31.466  10.480
59011W        W27429   4.756  32.505   2.688
59012W        W27430  37.988  35.933  14.311
59013W        W27431  23.239   1.928   1.350
59014W        W27432  41.938   0.961  12.872
59015W        W27433  26.664  16.777   0.477
59016W        W27434  16.215  13.172   4.205
59017W        W27435   0.417  26.058   4.116
59018W        W27436   1.360   8.663  12.567
59019W        W27437   0.819  19.708  12.846
59020W        W27438   2.755  12.191  14.456
59021W        W27439  38.395   4.864   2.291
59022W        W27440  18.666   7.176  14.812
59023W        W27441  43.274  16.694  10.445
59024W        W27442  18.786  31.558   4.721
59025W        W27443  20.528  25.008  10.914
59026W        W27444  37.350   3.795  10.955
59027W        W27445   8.731  20.559   1.291
59028W        W27446   7.318  38.061  12.512
59029W        W27447  26.993  24.986   2.785
59030W        W27448  31.620  39.456  13.473
59031W        W27449  16.803   8.801  13.384
59032W        W27450   0.837  21.067  13.394
59033W        W27451  37.418  41.305  13.535
59034W        W27452   6.308  29.613   3.346
59035W        W27453  32.456  10.731  10.642
59036W        W27454  36.975  33.385   4.130
59037W        W27455  17.261   3.388  13.949
59038W        W27456  10.817  28.637   3.862
59039W        W27457  35.559   0.794  12.536
59040W        W27458  40.407   6.191   2.380
59041W        W27459  11.705  31.066  12.876
59042W        W27460  32.057  29.572   1.243
59043W        W27461  11.199  25.503  10.422
59044W        W27462  11.286  28.122  12.569
59045W        W27463  43.445  28.029   0.280
59046W        W27464  21.546  21.261  13.504
59047W        W27465   1.830  20.141  12.531
59048W        W27466  14.658  27.674   0.906
59049W        W27467  40.999  43.851   4.166
59050W        W27468   3.852  22.142  13.012
59051W        W27469  35.488  41.450  14.792
59052W        W27470  10.743  19.748  12.912
59053W        W27471  33.902  40.825   1.851
59054W        W27472  17.282  43.508   1.418
59055W        W27473  12.188   9.189   3.690
59056W        W27474  44.914   6.279  12.343
59057W        W27475   2.838   9.212   1.698
59058W        W27476  43.837  31.108  14.415
59059W        W27477  27.116  21.587  12.873
59060W        W27478  42.362   2.736  14.503
59061W        W27479  39.892   1.250   0.471
59062W        W27480   8.739  24.199  13.359
59063W        W27481  30.005  34.910  14.282
59064W        W27482  17.192  29.639   2.708
59065W        W27483  15.724  41.533   0.449
59066W        W27484   9.750  18.082   1.925
59067W        W27485  20.181  33.916  14.006
59068W        W27486  37.909  36.953  11.939
59069W        W27487  23.095  30.547  11.909
59070W        W27488  37.416  35.483   4.715
59071W        W27489  12.734   8.320  10.936
59072W        W27490  32.120   1.392  14.853
59073W        W27491   9.717  44.396   3.744
59074W        W27492  42.439   7.835   0.331
59075W        W27493  17.763   6.395  10.456
59076W        W27494   0.799   2.806  10.643
59077W        W27495   9.714  12.736   4.827
59078W        W27496  22.570  23.588   1.445
59079W        W27497   1.772  32.132   0.254
59080W        W27498  11.736  32.616   4.651
59081W        W27499   5.714  27.956  10.535
59082W        W27500  27.054  41.421   4.598
59083W        W27501  35.030  31.965  12.927
59084W        W27502  16.163  43.829  14.398
59085W        W27503  13.190  16.590   2.413
59086W        W27504   3.394  20.526   1.295
59087W        W27505  12.333  32.937   2.806
59088W        W27506  38.485  36.370  12.059
59089W        W27507   6.231  35.513  13.820
59090W        W27508   1.266  22.612   4.352
59091W        W27509  36.971   4.727  12.878
59092W        W27510  43.962  11.164   3.188
59093W        W27511  25.215  43.951  14.302
59094W        W27512  23.723  15.817   5.249
59095W        W27513  12.135  13.731   2.381
59096W        W27514   0.790   5.329   4.201
59097W        W27515  15.750   5.258  11.948
59098W        W27516  20.075  35.109  13.468
59099W        W27517   9.302  18.719   3.743
59100W        W27518  31.041  16.153  14.785
59101W        W27519  43.458  27.135   0.436
59102W        W27520  20.081  29.424  11.437
59103W        W27521  20.248  29.050   1.860
59104W        W27522  23.156  15.756  14.024
59105W        W27523  36.465  19.663   3.681
59106W        W27524   6.380  19.739  13.965
59107W        W27525   1.962   1.457   2.883
59108W        W27526  11.847  15.686  10.997
59109W        W27527   1.884  16.158  14.962
59110W        W27528  43.282  21.044   3.696
59111W        W27529   3.298  18.137   4.321
59112W        W27530  18.065  18.592  12.842
59113W        W27531  16.238  12.149   4.284
59114W        W27532  31.461  16.713   1.911
59115W        W27533  43.503  21.737  13.496
59116W        W27534  34.468  44.456   4.737
59117W        W27535  21.185  29.583  13.904
59118W        W27536  16.314  32.559  14.322
59119W        W27537  16.750  15.653   0.866
59120W        W27538  33.879  29.089  11.075
59121W        W27539  42.788   5.249  14.511
59122W        W27540  39.908  28.169  11.569
59123W        W27541  23.107  24.538  12.923
59124W        W27542  42.014  37.836   1.248
59125W        W27543  31.088  38.465   3.151
59126W        W27544  23.724  28.580   0.346
59127W        W27545  20.729  15.814  11.446
59128W        W27546  21.545  12.244  11.965
59129W        W27547  33.571  32.612   0.448
59130W        W27548   5.820   9.332   2.260
59131W        W27549  29.550  13.682   3.859
59132W        W27550  26.121  15.105   0.905
59133W        W27551  15.622  18.160   4.355
59134W        W27552  15.586  30.103  14.358
59135W        W27553  32.544  39.443   0.414
59136W        W27554  30.608  18.111   0.353
59137W        W27555  33.595   6.717   1.393
59138W        W27556  37.422  10.226  13.462
59139W        W27557  10.242  41.904   3.647
59140W        W27558  25.190  16.601   2.418
59141W        W27559  26.547  35.388  14.495
59142W        W27560   5.418   4.844   4.223
59143W        W27561  11.339  27.119  12.363
59144W        W27562  36.941   6.841  13.851
59145W        W27563  41.368  25.202   0.424
59146W        W27564   5.194  42.286   4.208
59147W        W27565  41.533  31.415   1.399
59148W        W27566  22.158   2.737   0.326
59149W        W27567   8.378  14.673  12.516
59150W        W27568  25.487   4.722  14.950
59151W        W27569  24.111   0.248  14.827
59152W        W27570  35.863  20.543   4.115
59153W        W27571   5.415  13.316  12.003
59154W        W27572   4.834   3.756  12.989
59155W        W27573  29.049  36.478  10.414
59156W        W27574  29.533  37.426  10.965
59157W        W27575  29.990  43.822  10.613
59158W        W27576  24.024  42.880  11.519
59159W        W27577   2.302  37.574  10.898
59160W        W27578   1.464  42.776  12.421
59161W        W27579  38.044  18.761   0.466
59162W        W27580  41.811  16.094  10.908
59163W        W27581  28.631  44.395   1.759
59164W        W27582  44.490  33.454   0.451
59165W        W27583  19.157  28.081   4.319
59166W        W27584  43.871   5.879  13.953
59167W        W27585  24.053  36.488  10.598
59168W        W27586  10.657  44.319  13.923
59169W        W27587  42.959  33.419  10.480
59170W        W27588  15.693  36.367  11.419
59171W        W27589  35.403  14.650   0.953
59172W        W27590  12.623   0.866  11.122
59173W        W27591  11.251  32.447   0.362
59174W        W27592  35.514   2.863   1.400
59175W        W27593  35.533  15.295  12.035
59176W        W27594   2.875  30.599  11.970
59177W        W27595   4.739  24.213   0.776
59178W        W27596  35.870  12.698   0.301
59179W        W27597  11.667  40.942  13.367
59180W        W27598  31.565  43.021   5.089
59181W        W27599  28.499  19.662   2.402
59182W        W27600  28.602  32.608  14.450
59183W        W27601   5.743   9.676   2.693
59184W        W27602  17.749  14.147   2.776
59185W        W27603  21.220   2.748   0.301
59186W        W27604  39.453  29.017   4.599
59187W        W27605  20.665  44.448  11.929
59188W        W27606   8.164  11.749   0.735
59189W        W27607  32.079  32.051  10.636
59190W        W27608  40.839  38.550  10.642
59191W        W27609  30.029  14.129  14.456
59192W        W27610  36.579  41.376  13.872
59193W        W27611  29.470   1.914   2.360
59194W        W27612   7.191  40.861   1.819
59195W        W27613  25.640  29.972  10.459
59196W        W27614  33.622   7.798   0.754
59197W        W27615  12.249  23.116  12.523
59198W        W27616   8.239  17.660  10.467
59199W        W27617  20.260  31.459  12.902
59200W        W27618  29.612  34.059   3.707
59201W        W27619  41.030  23.667   0.815
59202W        W27620   4.290   7.756   3.224
59203W        W27621   7.201  14.239  12.052
59204W        W27622  30.604  37.012  10.428
59205W        W27623  14.627   7.886   2.327
59206W        W27624  14.215   1.337   0.455
59207W        W27625  31.111   9.854  14.012
59208W        W27626  31.897  23.075  12.085
59209W        W27627  33.945   0.757   3.343
59210W        W27628  29.504  16.263   3.798
59211W        W27629  44.351  23.031  12.372
59212W        W27630  12.721  29.473   2.756
59213W        W27631  23.147   3.872  11.420
59214W        W27632  26.653  25.097   1.728
59215W        W27633  10.671  12.745  14.826
59216W        W27634  42.478  21.139  14.915
59217W        W27635  44.410  14.109  11.074
59218W        W27636  32.023   8.730   4.209
59219W        W27637  31.046   5.403  12.946
59220W        W27638  18.236  13.160  11.542
59221W        W27639  18.169  40.436   4.615
59222W        W27640  33.945  37.856   1.444
59223W        W27641  12.155  33.507   2.388
59224W        W27642  12.347  17.648   3.744
59225W        W27643  23.597  40.501  13.527
59226W        W27644  23.530  27.121   1.285
59227W        W27645  16.647  19.129   2.832
59228W        W27646   9.197  28.064  11.874
59229W        W27647  31.085   6.795  14.776
59230W        W27648  14.690   9.832   4.651
59231W        W27649  41.964  44.936  14.845
59232W        W27650  10.735  43.319   1.855
59233W        W27651  43.924   5.355  10.520
59234W        W27652  34.604  16.684  13.871
59235W        W27653  31.114  15.213  14.490
59236W        W27654   0.293   1.405  12.094
59237W        W27655  33.987   5.406   2.897
59238W        W27656  32.915   6.681   1.388
59239W        W27657  14.612  35.532   4.639
59240W        W27658   3.927  27.041  11.122
59241W        W27659  38.041  37.571   1.230
59242W        W27660  29.064   8.893   1.885
59243W        W27661  21.757   4.715  14.897
59244W        W27662   0.377   8.820  12.916
59245W        W27663   7.342  27.535  14.384
59246W        W27664  16.136  27.076  12.981
59247W        W27665   9.774  26.658  13.547
59248W        W27666  34.001  16.234   2.265
59249W        W27667  32.527  27.064   4.664
59250W        W27668  10.769  17.064  13.361
59251W        W27669  20.274   2.750   4.206
59252W        W27670  21.160   0.939  12.380
59253W        W27671  10.826  44.962  12.483
59254W        W27672  18.606  21.727  10.503
59255W        W27673  25.618  22.735  14.769
59256W        W27674   1.768  11.649  13.473
59257W        W27675   6.361   4.886  11.588
59258W        W27676   6.417  21.073  11.394
59259W        W27677  10.856  21.211  10.595
59260W        W27678  22.538   6.387  14.401
59261W        W27679   0.321  36.519   4.341
59262W        W27680   5.928  25.099  13.371
59263W        W27681  37.995  27.110  14.371
59264W        W27682  42.342   0.369  10.447
59265W        W27683  26.567   9.292   2.319
59266W        W27684  30.050  37.993  14.393
59267W        W27685  19.643  18.780   1.929
59268W        W27686  31.988  17.790  12.496
59269W        W27687  31.426   8.345   4.264
59270W        W27688  38.876   6.420  10.918
59271W        W27689  22.098  23.669  12.049
59272W        W27690  35.360  14.831  10.473
59273W        W27691  29.528  13.675  12.474
59274W        W27692   8.167  34.058   0.803
59275W        W27693  20.604   7.671  13.938
59276W        W27694  42.934   1.257   4.345
59277W        W27695  12.812  30.639   3.185
59278W        W27696  12.623   5.901   1.755
59279W        W27697   1.456  23.014  13.046
59280W        W27698   9.184  14.316   2.713
59281W        W27699  38.879  17.636   4.734
59282W        W27700  12.625   4.785  14.770
59283W        W27701  31.438  11.344  13.547
59284W        W27702   6.834   7.822  14.293
59285W        W27703  38.988  18.082   2.271
59286W        W27704  37.030   4.436   2.707
59287W        W27705  40.910  32.603   0.282
59288W        W27706  22.229  28.556  14.456
59289W        W27707  27.151  40.456  13.917
59290W        W27708  22.734  26.005   1.906
59291W        W27709   6.393  42.824  13.897
59292W        W27710  15.711  27.534  12.873
59293W        W27711   1.782  34.445  11.552
59294W        W27712  43.926  42.839  11.088
59295W        W27713  32.593  29.100   3.381
59296W        W27714   0.854  21.703   2.813
59297W        W27715   5.412  18.096   1.230
59298W        W27716  14.118   8.666   3.815
59299W        W27717  30.585  33.444   2.668
59300W        W27718  29.022   1.732   0.362
59301W        W27719  30.995   7.693   0.846
59302W        W27720  15.105  38.847  12.347
59303W        W27721   8.179  33.946   0.338
59304W        W27722  43.017  37.382   4.281
59305W        W27723  20.069  27.551   3.332
59306W        W27724   8.285  23.081  11.894
59307W        W27725  42.855   1.482   0.938
59308W        W27726  29.568  29.940   1.430
59309W        W27727   8.789  27.601  10.093
59310W        W27728  31.964  41.028  13.953
59311W        W27729   6.695  23.588  14.796
59312W        W27730  26.604  39.317   4.342
59313W        W27731  42.402  34.017   2.413
59314W        W27732  20.623   4.712   0.435
59315W        W27733  30.965   3.751  13.446
59316W        W27734   5.349   0.488  13.518
59317W        W27735  19.056  33.419  13.031
59318W        W27736  44.990  39.937   1.252
59319W        W27737   6.425  20.037  12.899
59320W        W27738   8.207  30.636   4.262
59321W        W27739  14.607  37.088  14.277
59322W        W27740  43.870  42.428  14.456
59323W        W27741  20.636  21.176  11.883
59324W        W27742  26.030  14.761  14.943
59325W        W27743   6.223   7.851  13.435
59326W        W27744  21.717  37.519  13.545
59327W        W27745   3.256  42.301   2.714
59328W        W27746  22.687  44.275  14.507
59329W        W27747  21.123  27.000   1.300
59330W        W27748  42.495  13.137   2.886
59331W        W27749   5.758  11.739   4.779
59332W        W27750   9.299  22.701   3.353
59333W        W27751  26.485  43.376   0.365
59334W        W27752  17.142   8.695   3.167
59335W        W27753  21.187  22.061  10.948
59336W        W27754  34.586   9.181   4.352
59337W        W27755  13.760  12.731  14.884
59338W        W27756  29.120   6.335   2.320
59339W        W27757  14.701   3.372   1.434
59340W        W27758  42.296  10.274   3.692
59341W        W27759  37.388  37.519  14.474
59342W        W27760  15.278   8.270   2.350
59343W        W27761  28.651  35.428   0.778
59344W        W27762  25.580   6.195  12.841
59345W        W27763  15.113  27.644   0.749
59346W        W27764   8.383  32.097   3.735
59347W        W27765   4.347  12.749  12.922
59348W        W27766  17.132  31.575   9.935
59349W        W27767   9.771   3.319   4.776
59350W        W27768  11.799  42.416  12.044
59351W        W27769  44.851  44.886  13.889
59352W        W27770  18.573  18.152   2.783
59353W        W27771  18.783   5.375   3.204
59354W        W27772   5.216   2.842   2.379
59355W        W27773  40.828  20.061  12.533
59356W        W27774  10.305   6.310  10.590
59357W        W27775  38.477  20.691  11.988
59358W        W27776  35.415   2.763   2.276
59359W        W27777  41.031  31.000  13.430
59360W        W27778  39.984  13.646  14.511
59361W        W27779  22.649  31.477  13.041
59362W        W27780  26.471  40.991   0.938
59363W        W27781  41.894  12.335   0.366
59364W        W27782  41.832  24.651   3.159
59365W        W27783  11.692  28.051  11.966
59366W        W27784  39.369  34.474   3.198
59367W        W27785  31.910   7.318   1.923
59368W        W27786  22.530  12.178  14.280
59369W        W27787  16.805   5.208  14.898
59370W        W27788   5.308  26.657   5.225
59371W        W27789  17.064  24.076   1.212
59372W        W27790  42.332  15.682   0.748
59373W        W27791  17.224  20.730   0.343
59374W        W27792   9.245  41.404   3.760
59375W        W27793  20.709  28.631  13.520
59376W        W27794  24.514  37.558  10.488
59377W        W27795  35.100   5.891   2.253
59378W        W27796  44.326   8.746  11.890
59379W        W27797  20.605   7.713  14.443
59380W        W27798  12.626  15.107   0.939
59381W        W27799   9.845   3.327  11.080
59382W        W27800   8.870  40.977   0.966
59383W        W27801  27.572   1.773   2.283
59384W        W27802  23.108  36.088   0.770
59385W        W27803  40.543  35.492  12.569
59386W        W27804  36.570  29.611   3.335
59387W        W27805  39.972   2.260  12.910
59388W        W27806  34.071  36.548  13.416
59389W        W27807   5.435  39.956   0.420
59390W        W27808   8.349  11.332  11.029
59391W        W27809  34.557   9.668   1.811
59392W        W27810   9.168  38.467  10.557
59393W        W27811  11.815  11.654  13.347
59394W        W27812   1.905   1.859   2.776
59395W        W27813  43.801  24.706   3.320
59396W        W27814   7.867  37.565   0.447
59397W        W27815   9.258   7.301   0.914
59398W        W27816  22.052   8.859   1.701
59399W        W27817  32.417   7.841   0.927
59400W        W27818  10.652  44.878   1.694
59401W        W27819  26.084  35.909   4.305
59402W        W27820  28.480  15.730  10.421
59403W        W27821  33.008  40.006   1.868
59404W        W27822  36.525  22.224   0.460
59405W        W27823  33.606  21.127  13.837
59406W        W27824  13.810  23.199   3.853
59407W        W27825   2.352  36.527   1.238
59408W        W27826  33.428   6.398   1.763
59409W        W27827  32.021  39.064  12.032
59410W        W27828  32.425   9.719   1.358
59411W        W27829   4.318  42.894  12.824
59412W        W27830  34.000   6.890  12.023
59413W        W27831  28.533  34.052  12.921
59414W        W27832  36.094  34.612  10.594
59415W        W27833  15.253  40.484   0.334
59416W        W27834  26.005  27.015   4.640
59417W        W27835  31.127  21.144  13.880
59418W        W27836  35.913   6.235  12.529
59419W        W27837   4.933  16.216   3.826
59420W        W27838  17.090   0.268   0.803
59421W        W27839  37.079  12.288   3.382
59422W        W27840   6.719  36.482  11.972
59423W        W27841  21.730  41.518  13.021
59424W        W27842  35.009  11.811  14.476
59425W        W27843  15.085   6.204   1.923
59426W        W27844  17.283   5.810  14.870
59427W        W27845  18.064  16.146  12.374
59428W        W27846   0.766  38.061  10.442
59429W        W27847  44.274  11.741   5.188
59430W        W27848   4.266  11.319  13.947
59431W        W27849  10.818  38.472  11.059
59432W        W27850  11.692  38.361   0.330
59433W        W27851   2.310  13.283  14.772
59434W        W27852  11.203  14.735  13.912
59435W        W27853  30.962  38.012  11.610
59436W        W27854  31.639   5.424  10.895
59437W        W27855  30.099  30.141  12.968
59438W        W27856  27.499  31.574   4.304
59439W        W27857  40.877   0.871  13.965
59440W        W27858  40.894  27.448  14.340
59441W        W27859  32.447  42.820  11.449
59442W        W27860  32.602   6.831   2.191
59443W        W27861   2.946  13.216  11.482
59444W        W27862   1.312  29.582  11.068
59445W        W27863  19.758  12.809  11.885
59446W        W27864  13.831  15.270   4.660
59447W        W27865  24.691  16.272   1.383
59448W        W27866  21.588  10.768  11.902
59449W        W27867   3.331  40.806  11.004
59450W        W27868  38.365  37.348  11.418
59451W        W27869   2.446   9.389  14.352
59452W        W27870  19.077  26.191   0.376
59453W        W27871  27.524  30.916  13.440
59454W        W27872  20.654   1.254  13.372
59455W        W27873  22.721  33.519   4.733
59456W        W27874  43.291  24.699  11.977
59457W        W27875  25.530  25.640   3.695
59458W        W27876  17.705  27.115  10.524
59459W        W27877  41.458   7.694   0.334
59460W        W27878   4.791  19.549  13.404
59461W        W27879  30.070  21.529  11.400
59462W        W27880  38.415  18.724  13.474
59463W        W27881   1.385  35.038  14.020
59464W        W27882  15.239  26.619  11.963
59465W        W27883  25.107   1.324  11.590
59466W        W27884  22.688  37.466   4.761
59467W        W27885  32.508  44.909   2.779
59468W        W27886  22.164  31.060  12.925
59469W        W27887  40.959  14.630   2.408
59470W        W27888   9.357  37.927   2.255
59471W        W27889  21.240  19.050   3.852
59472W        W27890  43.288  10.176   2.824
59473W        W27891  42.818  23.144  10.980
59474W        W27892  38.411  12.222   1.288
59475W        W27893  16.075  40.807   4.353
59476W        W27894  38.496   0.853   0.744
59477W        W27895  15.211  15.611  13.849
59478W        W27896  24.576  44.470   0.320
59479W        W27897  36.045  12.357   1.711
59480W        W27898  27.048   5.241   3.347
59481W        W27899  20.658   4.428   0.409
59482W        W27900  33.403   1.758   9.935
59483W        W27901  25.034  32.099   1.343
59484W        W27902  12.736  24.149  13.836
59485W        W27903   6.806  21.755   0.397
59486W        W27904  43.331  31.430   1.367
59487W        W27905   8.262  16.674   1.229
59488W        W27906  27.072  18.551  13.545
59489W        W27907  21.078   3.250   9.921
59490W        W27908   4.737  39.394   1.410
59491W        W27909  22.115   4.900  13.826
59492W        W27910  24.146  44.360  11.967
59493W        W27911  27.675   9.269  10.157
59494W        W27912  34.863  38.497   2.326
59495W        W27913  15.282  35.408  10.555
59496W        W27914  28.177  32.925   0.326
59497W        W27915   8.220  31.006   2.812
59498W        W27916   5.431  21.100   4.705
59499W        W27917  14.302  22.508  12.088
59500W        W27918  25.081  36.929  12.454
59501W        W27919   6.787   0.797  14.406
59502W        W27920  15.742  13.843   0.729
59503W        W27921  31.097  18.292  14.286
59504W        W27922  14.713   9.315  11.896
59505W        W27923  31.441  21.225   4.211
59506W        W27924  22.521   5.880  12.429
59507W        W27925  37.451  33.932  13.811
59508W        W27926   0.767  35.445  11.085
59509W        W27927  22.584   0.467  12.958
59510W        W27928  13.781  15.620  11.513
59511W        W27929  33.595   0.901  11.960
59512W        W27930  40.539  34.101   2.751
59513W        W27931  27.047  29.532  11.892
59514W        W27932  41.966  37.546  12.378
59515W        W27933  31.094  33.608   3.632
59516W        W27934  41.810  14.825  14.405
59517W        W27935  17.264  24.165  11.052
59518W        W27936  23.091  25.552   0.445
59519W        W27937  43.909  28.438   1.851
59520W        W27938  12.819  26.078   0.388
59521W        W27939  43.003   9.181   1.739
59522W        W27940  44.314  36.915   1.851
59523W        W27941  11.736  25.154  12.843
59524W        W27942  34.949  32.572  11.538
59525W        W27943  31.461  40.024  11.420
59526W        W27944   3.373  23.144   2.679
59527W        W27945  33.612  35.946  13.328
59528W        W27946  40.027  30.133   2.680
59529W        W27947   8.673  32.051  13.371
59530W        W27948   9.673   3.765   4.767
59531W        W27949  18.214  23.087  11.553
59532W        W27950   7.744  31.049   1.920
59533W        W27951  28.050  21.143  10.981
59534W        W27952   4.942  33.471  10.049
59535W        W27953  20.163   6.187  13.986
59536W        W27954  29.970  23.151  14.468
59537W        W27955  18.253  30.165  14.790
59538W        W27956  34.058   7.398  12.836
59539W        W27957  37.901  29.049  12.947
59540W        W27958   1.884   8.796  12.924
59541W        W27959  27.645   5.404   1.890
59542W        W27960   6.340   4.752  10.898
59543W        W27961  15.271  24.174   3.384
59544W        W27962  32.047  35.094   1.886
59545W        W27963  17.281  37.476   2.715
59546W        W27964  42.825   1.378   1.383
59547W        W27965   1.831  27.515  13.846
59548W        W27966  42.791   8.322   2.784
59549W        W27967  28.602  25.496  12.850
59550W        W27968  34.890  37.500  14.443
59551W        W27969  27.025  35.925  11.456
59552W        W27970   2.412   2.828   3.254
59553W        W27971  26.161   6.880   3.271
59554W        W27972  34.063  21.028   3.808
59555W        W27973  23.985  38.068  14.941
59556W        W27974  25.564  38.409  13.345
59557W        W27975  44.900  23.203   4.229
59558W        W27976  17.290   6.292   5.245
59559W        W27977  39.872  32.451   3.321
59560W        W27978  19.271  33.488  13.805
59561W        W27979  35.000  38.428   0.801
59562W        W27980  14.326  17.100  10.560
59563W        W27981  39.832   0.806  11.968
59564W        W27982   1.884   5.725  10.475
59565W        W27983  16.673  31.496  12.965
59566W        W27984  40.812  14.177  10.419
59567W        W27985  42.945   4.241   9.982
59568W        W27986  20.045  25.185  11.596
59569W        W27987   9.214  10.164   3.733
59570W        W27988  37.496  40.488   5.084
59571W        W27989  26.976   5.343   4.748
59572W        W27990   2.878  20.053  13.494
59573W        W27991  35.422  34.000  14.938
59574W        W27992  31.947  18.198  14.396
59575W        W27993  24.091   0.827  12.996
59576W        W27994  21.151   2.763  12.423
59577W        W27995  44.821  13.786   1.213
59578W        W27996   0.872  38.867  11.581
59579W        W27997  16.692   6.825   4.753
59580W        W27998  18.284  40.543   4.133
59581W        W27999  17.752  26.075  11.868
59582W        W28000  28.672  42.471  13.861
59583W        W28001  29.926  16.225   3.185
59584W        W28002   0.428  33.384   4.633
59585W        W28003  10.148  23.106   4.802
59586W        W28004   2.253  38.062   3.790
59587W        W28005   8.263  26.531  14.341
59588W        W28006  33.566   2.880  14.771
59589W        W28007  44.347  30.496   4.310
59590W        W28008   4.897  31.903   0.813
59591W        W28009  32.564  13.619  13.815
59592W        W28010  43.811  34.932  10.409
59593W        W28011  32.938   4.751  13.962
59594W        W28012  10.172   4.398  12.352
59595W        W28013  32.887  21.117  10.634
59596W        W28014  11.188   0.295   0.828
59597W        W28015  26.195  31.634  14.437
59598W        W28016  27.582   0.904   1.869
59599W        W28017  21.581  40.363   3.297
59600W        W28018  19.230  15.677   3.157
59601W        W28019  17.631  41.344  11.889
59602W        W28020  27.145  42.336   1.329
59603W        W28021  11.127   2.273   2.865
59604W        W28022  14.259  23.993   3.275
59605W        W28023  22.170  35.077   0.261
59606W        W28024  30.582   2.871   1.430
59607W        W28025  28.638  22.650   0.841
59608W        W28026  39.358  16.301  11.032
59609W        W28027  13.777  11.859   0.919
59610W        W28028  11.864  32.962  11.025
59611W        W28029  12.303  34.953   4.821
59612W        W28030  14.116  39.373  14.951
59613W        W28031  12.352   2.886  11.098
59614W        W28032  36.030  12.733  12.358
59615W        W28033  35.366   7.196   1.372
59616W        W28034   6.338  41.872   3.358
59617W        W28035   8.673  40.464   4.212
59618W        W28036  17.703  28.029  12.997
59619W        W28037   2.957  36.470   4.178
59620W        W28038  38.863  11.647  12.355
59621W        W28039  35.416   0.371  10.465
59622W        W28040  10.181  13.207   3.204
59623W        W28041  39.339  39.969   0.898
59624W        W28042   2.773  12.837  13.994
59625W        W28043  27.643  40.466  11.930
59626W        W28044  21.093  42.851   4.248
59627W        W28045  40.329  44.777  13.852
59628W        W28046  10.856   3.301   2.745
59629W        W28047   2.240  26.053   2.748
59630W        W28048   0.426  36.874  11.054
59631W        W28049  42.377   6.912  11.981
59632W        W28050   0.987  19.100   3.241
59633W        W28051  13.773  21.645   2.784
59634W        W28052   4.867  14.174   5.158
59635W        W28053  17.786  39.320  12.892
59636W        W28054  19.211  28.680   4.754
59637W        W28055  37.073  11.793   2.363
59638W        W28056  32.576  29.962   2.847
59639W        W28057  18.119   4.373  14.445
59640W        W28058  41.479  16.664  11.526
59641W        W28059  25.979  41.992  10.938
59642W        W28060   6.342   1.782   3.378
59643W        W28061  30.108   3.780  11.461
59644W        W28062  36.431  38.951   0.416
59645W        W28063   9.692   3.827   1.391
59646W        W28064  29.008  13.272   1.448
59647W        W28065  34.462  33.988  13.430
59648W        W28066  25.184  24.531   3.384
59649W        W28067  15.119  17.603   2.273
59650W        W28068  23.985  21.045  14.948
59651W        W28069  23.734  13.131   3.203
59652W        W28070  29.962   8.233  12.935
59653W        W28071  30.558  34.938   4.719
59654W        W28072  12.755  28.165   0.372
59655W        W28073  34.430  35.853  12.025
59656W        W28074  24.721  25.154   1.908
59657W        W28075  31.467  36.924   2.240
59658W        W28076  34.867  13.609  14.399
59659W        W28077  31.475  19.186  10.451
59660W        W28078  34.959  24.525   2.880
59661W        W28079  36.384  23.985   0.810
59662W        W28080   2.393  28.970   4.162
59663W        W28081   0.327  36.511   3.300
59664W        W28082  19.247  21.221   2.183
59665W        W28083  17.261   7.769   3.688
59666W        W28084  19.210   0.971  11.108
59667W        W28085  43.930  19.545   4.804
59668W        W28086  15.603   8.735   4.206
59669W        W28087  36.845  40.325  14.942
59670W        W28088  29.565  14.291  11.530
59671W        W28089  17.064  15.329   0.458
59672W        W28090  39.868  28.018  12.073
59673W        W28091  19.641   2.963  11.113
59674W        W28092   3.893  35.860   3.383
59675W        W28093  41.381  13.735   2.364
59676W        W28094  14.750  32.494   0.442
59677W        W28095   2.793  34.546  12.442
59678W        W28096  31.084   5.311  11.961
59679W        W28097  11.690  34.535  12.486
59680W        W28098  42.827  41.423   9.602
59681W        W28099   3.331  10.216  14.768
59682W        W28100   1.314  24.180   4.698
59683W        W28101  44.814  12.196   4.164
59684W        W28102  13.336  39.477  13.799
59685W        W28103  27.536   6.726  10.496
59686W        W28104   2.251   5.317   4.795
59687W        W28105  40.338  38.332   2.270
59688W        W28106  40.524  44.930   1.405
59689W        W28107  25.025   5.826  13.051
59690W        W28108  32.915  33.935   2.812
59691W        W28109  17.789  23.685   4.125
59692W        W28110  42.503  20.198  12.066
59693W        W28111  37.402  24.165  10.492
59694W        W28112  31.973  17.116  12.965
59695W        W28113   7.320  15.594   1.834
59696W        W28114  32.084  36.354  14.483
59697W        W28115   8.661  38.391   3.323
59698W        W28116  44.904  21.632   2.275
59699W        W28117   1.743  34.955  12.446
59700W        W28118  15.116  19.053  14.007
59701W        W28119  23.654  43.316   3.742
59702W        W28120  30.612  19.631   1.329
59703W        W28121   2.815  38.459   0.375
59704W        W28122  32.531  35.385  12.843
59705W        W28123  25.130  12.619   3.246
59706W        W28124  33.437  10.311   1.430
59707W        W28125  23.028   0.453   2.726
59708W        W28126  36.877  31.000   2.218
59709W        W28127  42.923  41.859  13.428
59710W        W28128   6.880  40.987  11.019
59711W        W28129  15.780   0.897   3.826
59712W        W28130  36.894  23.172  13.932
59713W        W28131  11.257  16.090  10.457
59714W        W28132  12.802   0.476  14.311
59715W        W28133   7.880  27.578  12.426
59716W        W28134  17.288  11.641   4.820
59717W        W28135   3.901  12.840  12.970
59718W        W28136  35.994   5.753  10.615
59719W        W28137   2.946  25.180   3.373
59720W        W28138  18.729  42.517  12.477
59721W        W28139  43.807  18.658  11.861
59722W        W28140   1.772  30.054   4.218
59723W        W28141  16.216  27.576  13.810
59724W        W28142  34.876  17.798   4.167
59725W        W28143  10.725  20.210  11.002
59726W        W28144   1.305  39.474  14.918
59727W        W28145  39.017   2.306  12.034
59728W        W28146   3.860   8.696  11.473
59729W        W28147  35.880  32.616  12.958
59730W        W28148  44.903  34.577   3.755
59731W        W28149  10.335  41.374   0.316
59732W        W28150  12.170  33.586  11.008
59733W        W28151  34.870   6.388  13.939
59734W        W28152  42.348  25.693   3.228
59735W        W28153  43.795  38.853  12.024
59736W        W28154  36.846  11.340  12.344
59737W        W28155  36.044  41.829  10.530
59738W        W28156  42.458  22.587   1.753
59739W        W28157  17.578  41.940   0.249
59740W        W28158   2.751  41.954   4.765
59741W        W28159  44.359  23.000   3.184
59742W        W28160  24.575  20.103   1.716
59743W        W28161  17.280  37.450  11.881
59744W        W28162  30.994  42.828   4.290
59745W        W28163  33.579  24.523   4.139
59746W        W28164  10.278  15.582   1.858
59747W        W28165   6.766  31.078  10.910
59748W        W28166  41.372  34.956  13.878
59749W        W28167  33.894  30.471   1.355
59750W        W28168  38.432  19.623   1.870
59751W        W28169  10.878   7.861   2.742
59752W        W28170   2.443  13.722  12.033
59753W        W28171  43.454  42.289  10.571
59754W        W28172  16.148  42.860   4.270
59755W        W28173  25.568  14.258   3.746
59756W        W28174  40.921  33.534   4.645
59757W        W28175  22.738   3.283  14.810
59758W        W28176  35.455   4.449   4.616
59759W        W28177   3.447  10.754   3.666
59760W        W28178  43.321  30.952  13.010
59761W        W28179  18.091   1.731  12.460
59762W        W28180  24.515  40.522  11.945
59763W        W28181  33.441  19.671   0.818
59764W        W28182  28.585  10.149   1.361
59765W        W28183  18.638  14.606   5.132
59766W        W28184  34.900  39.977  14.825
59767W        W28185  23.666   6.353   4.614
59768W        W28186  12.337  34.091  11.953
59769W        W28187  17.303  29.638   0.936
59770W        W28188  20.728  43.979  13.959
59771W        W28189  20.060   1.935   3.687
59772W        W28190  36.376  13.777  11.047
59773W        W28191  38.979  23.067   4.764
59774W        W28192  44.927  37.077  13.499
59775W        W28193  10.770  39.840  10.970
59776W        W28194   7.405  38.983   3.354
59777W        W28195  43.333  28.452  14.909
59778W        W28196  14.126   6.700   2.822
59779W        W28197   7.748  14.682   2.392
59780W        W28198   8.378   2.340  14.870
59781W        W28199  35.856   4.207   2.383
59782W        W28200  23.562  14.708   1.696
59783W        W28201  42.876  11.243  12.451
59784W        W28202  44.976  14.707   5.262
59785W        W28203  34.563  37.347  11.894
59786W        W28204  16.709  16.258   2.677
59787W        W28205  30.580  40.485   1.926
59788W        W28206  44.797  40.005   0.457
59789W        W28207  28.582  39.556   1.825
59790W        W28208  13.743  27.981  10.986
59791W        W28209  11.161  43.013  14.445
59792W        W28210   0.820  33.537  11.877
59793W        W28211   9.185  27.093   3.168
59794W        W28212  29.944   4.797   2.396
59795W        W28213  29.445  36.377   4.694
59796W        W28214  24.205   1.437   3.181
59797W        W28215  26.523  12.709  10.627
59798W        W28216  14.216  16.669   0.743
59799W        W28217  24.082   8.367   0.751
59800W        W28218  33.523   3.793  11.510
59801W        W28219   8.850  25.146  12.848
59802W        W28220  21.019   3.425   5.124
59803W        W28221  10.769   5.715   2.388
59804W        W28222  15.324  22.736   1.879
59805W        W28223  11.774  34.433   1.786
59806W        W28224  41.881  42.517   4.741
59807W        W28225   1.878  38.856   2.383
59808W        W28226  40.355   4.823  10.438
59809W        W28227  10.874  44.281  12.076
59810W        W28228  30.066  37.551   3.656
59811W        W28229  39.422   8.372   2.690
59812W        W28230  32.089  37.378  14.493
59813W        W28231  17.235  33.434  11.093
59814W        W28232   4.721  13.313  14.767
59815W        W28233  35.438   4.849  10.429
59816W        W28234  29.599   3.228   3.829
59817W        W28235  30.917  14.252  11.964
59818W        W28236   6.723  24.201  12.088
59819W        W28237  18.107  19.119   2.226
59820W        W28238   0.845  38.863   1.832
59821W        W28239  19.632   1.833  11.008
59822W        W28240  15.655  15.283   9.935
59823W        W28241  40.912  24.976   2.233
59824W        W28242   4.767  18.762   0.848
59825W        W28243  27.610  26.971  13.497
59826W        W28244  11.327  21.107   0.858
59827W        W28245  18.761  10.847   0.244
59828W        W28246   4.896  23.524   4.701
59829W        W28247  39.842  44.864   3.745
59830W        W28248  11.247  31.510   4.144
59831W        W28249   9.734   7.749   0.385
59832W        W28250  10.156  42.831  13.862
59833W        W28251   0.458  26.686  14.897
59834W        W28252   0.450  19.129  14.774
59835W        W28253  36.092   7.822  13.541
59836W        W28254  31.544   9.338   3.156
59837W        W28255  29.049   1.440  11.068
59838W        W28256  24.032  11.264  13.412
59839W        W28257  20.234  19.563   9.922
59840W        W28258  44.936  18.698  12.941
59841W        W28259  10.818  19.605   0.382
59842W        W28260  39.035   4.801  10.483
59843W        W28261  34.520  19.066   2.244
59844W        W28262  20.761  19.752  14.983
59845W        W28263  20.669  30.111  12.998
59846W        W28264  42.800  42.419  10.936
59847W        W28265  37.468  20.175   1.794
59848W        W28266  38.349   6.400  14.964
59849W        W28267  19.249   2.908   1.405
59850W        W28268  42.495  10.833   0.406
59851W        W28269  44.388  27.530   1.305
59852W        W28270  39.859  10.833   0.793
59853W        W28271  10.349  15.182  13.826
59854W        W28272   2.911  10.840   0.452
59855W        W28273   1.953  12.328   1.295
59856W        W28274   1.267  38.457  10.479
59857W        W28275  43.272  23.221   1.835
59858W        W28276  11.299  31.017   1.722
59859W        W28277  39.868   3.359   2.239
59860W        W28278   5.725  15.287   0.823
59861W        W28279  37.477   1.905   0.838
59862W        W28280  31.576  15.143   0.423
59863W        W28281  13.263  26.564   5.126
59864W        W28282  27.940  38.976  12.430
59865W        W28283  38.396  27.167  14.887
59866W        W28284  32.590  10.711  14.967
59867W        W28285  37.501  14.777  12.407
59868W        W28286  34.079   5.931   2.396
59869W        W28287  43.512   7.676  10.593
59870W        W28288   5.782  21.531   4.326
59871W        W28289  35.511  40.335  13.990
59872W        W28290  34.952  29.575   1.225
59873W        W28291  11.205  40.460  14.933
59874W        W28292  27.171  25.130  11.927
59875W        W28293  44.761  28.177   0.250
59876W        W28294  40.497  15.242   2.783
59877W        W28295   5.908  15.101  14.960
59878W        W28296  22.037   0.822   2.276
59879W        W28297  27.984  27.177   3.263
59880W        W28298  33.611  39.400   1.444
59881W        W28299  14.764  27.143  14.934
59882W        W28300   4.371  15.814  12.865
59883W        W28301   7.288   2.336   3.147
59884W        W28302  24.000  39.315  14.824
59885W        W28303  29.050  13.301   0.751
59886W        W28304  16.176  40.375  10.437
59887W        W28305  15.590  12.180   0.783
59888W        W28306  24.679  37.346   0.910
59889W        W28307  16.810   9.179  11.067
59890W        W28308  10.249  44.302  12.089
59891W        W28309   7.384  13.781   3.349
59892W        W28310  12.147  43.858   4.344
59893W        W28311  42.334  29.148  14.994
59894W        W28312  36.464   5.353   4.238
59895W        W28313  42.382   8.285   4.664
59896W        W28314  42.873   8.817   4.780
59897W        W28315  29.120  36.576   2.197
59898W        W28316  15.296  30.918   2.799
59899W        W28317   5.853   3.377   4.302
59900W        W28318  19.599  25.654   3.722
59901W        W28319  22.068  16.073   2.712
59902W        W28320  35.427  25.703   2.256
59903W        W28321  27.137  43.002   9.980
59904W        W28322  38.540  19.147  14.776
59905W        W28323  29.092   8.877  14.784
59906W        W28324  40.383  11.782   2.883
59907W        W28325  17.300  29.981  11.401
59908W        W28326   7.354  27.946   0.290
59909W        W28327   4.738  40.873  11.469
59910W        W28328   5.822  34.970   4.700
59911W        W28329  26.178  26.652  10.602
59912W        W28330  41.333  13.777  12.989
59913W        W28331  12.287  24.102   0.947
59914W        W28332  20.216  38.409   1.717
59915W        W28333  19.570  23.235  14.993
59916W        W28334  13.734  23.000  14.482
59917W        W28335  15.579  33.948   3.356
59918W        W28336  18.268  31.515   3.732
59919W        W28337  33.584  17.662   0.301
59920W        W28338  24.639  35.517  10.407
59921W        W28339  28.168  29.997   1.429
59922W        W28340  15.207  37.077  13.386
59923W        W28341  10.698  43.292   3.306
59924W        W28342  20.577  25.214  12.866
59925W        W28343   0.811  36.591   2.270
59926W        W28344  44.905  21.173  10.980
59927W        W28345   6.416  28.673  13.420
59928W        W28346  30.526   7.826  11.039
59929W        W28347  28.052  22.586   2.736
59930W        W28348   2.431  31.624  14.014
59931W        W28349  27.065  43.417  14.398
59932W        W28350  19.285  34.095   3.173
59933W        W28351  40.448  11.712   1.890
59934W        W28352  28.565   3.372   4.765
59935W        W28353  11.237  11.639   4.163
59936W        W28354   1.851   1.442  14.003
59937W        W28355  44.374  18.709  13.329
59938W        W28356  12.717  19.090   3.751
59939W        W28357  10.298  24.696  12.064
59940W        W28358  22.035   6.920   3.650
59941W        W28359  15.668  13.808   4.255
59942W        W28360  39.046   1.328   1.306
59943W        W28361  19.238  10.260   1.785
59944W        W28362  14.230  35.486  14.804
59945W        W28363  11.225  10.700   3.659
59946W        W28364  17.719  26.099   3.342
59947W        W28365  14.823   6.296  13.368
59948W        W28366  27.158  40.955   0.908
59949W        W28367  24.223  39.829   5.766
59950W        W28368  13.799  19.605   0.311
59951W        W28369  44.849  15.780   3.654
59952W        W28370  20.037  29.112   3.803
59953W        W28371  27.552   8.889   4.290
59954W        W28372  15.096  31.432  14.308
59955W        W28373  41.009  35.561  10.559
59956W        W28374  31.436  12.325   2.823
59957W        W28375  35.381  24.222   0.918
59958W        W28376  17.087   2.242   0.357
59959W        W28377  26.536  13.129   2.729
59960W        W28378   0.984  38.920  14.447
59961W        W28379  40.829   6.334   3.844
59962W        W28380  11.680   7.894  13.936
59963W        W28381   5.825   9.187  13.373
59964W        W28382   3.723   8.325   4.354
59965W        W28383  33.555  17.169   3.165
59966W        W28384  40.420   2.877   0.478
59967W        W28385  42.517  14.797   0.757
59968W        W28386  37.376  40.321  11.522
59969W        W28387  15.719  12.841   3.300
59970W        W28388  29.956  16.214   1.431
59971W        W28389  32.602  26.008  11.493
59972W        W28390  27.962   8.224  11.413
59973W        W28391  17.695  24.113  14.506
59974W        W28392  39.917  28.678  11.872
59975W        W28393  35.984  14.114   0.856
59976W        W28394   5.922   3.424  14.000
59977W        W28395  23.059  16.173  12.832
59978W        W28396  34.519  32.574   0.853
59979W        W28397  41.036  40.953   4.129
59980W        W28398  33.112   6.848  12.422
59981W        W28399  34.951  29.956  11.068
59982W        W28400  44.356   6.882  12.508
59983W        W28401  42.965   4.796   1.773
59984W        W28402   5.701  28.030  13.909
59985W        W28403  17.710  33.531  11.944
59986W        W28404  25.181  30.646   3.705
59987W        W28405   2.304  23.154  12.387
59988W        W28406  12.343  30.159  12.342
59989W        W28407  34.957  18.187  10.020
59990W        W28408  34.918   1.936   5.134
59991W        W28409  17.304  43.880  10.964
59992W        W28410  24.495   2.948   1.872
59993W        W28411  27.978  18.191  12.082
59994W        W28412   7.880   0.876   5.222
59995W        W28413  12.783  33.511  12.430
59996W        W28414  21.093   8.251   4.138
59997W        W28415  42.813  25.651   0.444
59998W        W28416  26.571  37.549  13.327
59999W        W28417  14.201  43.992  14.986
60000W        W28418  30.142   7.750   2.694
60001W        W28419  44.268  33.411  11.536
60002W        W28420  35.518  16.198  14.440
60003W        W28421  21.057   1.283   0.316
60004W        W28422  25.637  27.682   1.880
60005W        W28423   1.872   4.838   2.395
60006W        W28424   2.803  44.341  11.906
60007W        W28425  17.670   0.902   4.694
60008W        W28426  30.964  10.711   2.397
60009W        W28427  32.415  28.085  10.427
60010W        W28428  28.602  15.263   1.277
60011W        W28429   9.824  37.537  12.564
60012W        W28430  31.127  12.200  11.575
60013W        W28431  16.304  18.741  13.873
60014W        W28432  29.601  15.705   0.428
60015W        W28433  35.882   4.250   1.274
60016W        W28434  33.477  35.480  12.088
60017W        W28435  11.281   3.447  14.327
60018W        W28436   7.219  13.154  11.476
60019W        W28437   4.724  21.238  12.390
60020W        W28438  36.390  32.081   1.325
60021W        W28439  41.474   1.898  14.507
60022W        W28440  19.708  38.923  12.040
60023W        W28441  42.419  19.268   3.160
60024W        W28442  42.306  34.535  13.937
60025W        W28443  13.838  39.430   2.386
60026W        W28444   3.886  34.949   3.166
60027W        W28445  12.716   8.239  14.434
60028W        W28446   5.203  37.982  10.466
60029W        W28447   9.668  14.740  14.791
60030W        W28448  26.132  22.075   4.337
60031W        W28449  41.821  40.950   5.098
60032W        W28450  42.454   5.324   2.364
60033W        W28451  37.969  39.015   3.642
60034W        W28452   2.260  28.530   4.738
60035W        W28453  23.001   6.387  13.322
60036W        W28454   8.861  40.464   3.816
60037W        W28455  38.875   9.227   3.209
60038W        W28456  42.807  26.625  13.936
60039W        W28457  17.611  12.326   1.286
60040W        W28458  29.649  10.855  14.796
60041W        W28459  12.316  20.214   1.901
60042W        W28460  39.446  24.196   1.843
60043W        W28461  27.643  24.113   0.464
60044W        W28462  31.413   8.294  13.891
60045W        W28463  33.931  23.076   2.191
60046W        W28464  16.757  12.727  13.910
60047W        W28465  36.875  22.075   3.350
60048W        W28466  15.608   9.394   1.274
60049W        W28467  12.839   9.156  13.914
60050W        W28468  17.666  31.970  12.547
60051W        W28469  16.654   4.263   3.856
60052W        W28470  41.458  40.849  11.021
60053W        W28471  16.228  37.460  10.992
60054W        W28472  41.437  43.019  10.589
60055W        W28473  44.898  22.234   3.187
60056W        W28474  10.267  37.082   0.818
60057W        W28475  31.582   7.870   4.323
60058W        W28476  33.068  27.556  12.571
60059W        W28477  40.417  39.347  11.380
60060W        W28478  36.060  33.553   4.225
60061W        W28479  33.486  20.204   3.277
60062W        W28480  42.968  35.532   2.848
60063W        W28481  43.786  31.427   3.218
60064W        W28482   6.210  20.226  14.456
60065W        W28483  28.088  38.412   0.404
60066W        W28484  36.548  15.204  12.478
60067W        W28485   2.760  40.900  11.065
60068W        W28486  29.549   0.341   0.737
60069W        W28487  25.604  29.595  10.427
60070W        W28488  22.738  42.011   2.184
60071W        W28489  40.529   7.876  10.475
60072W        W28490   5.335  44.356  11.511
60073W        W28491  27.193  12.239   1.885
60074W        W28492   8.773  37.881   0.799
60075W        W28493  17.584   5.207   0.922
60076W        W28494  10.201  37.448  12.840
60077W        W28495   8.323  24.629   1.726
60078W        W28496  26.096   7.250   1.766
60079W        W28497   6.876  39.371  11.400
60080W        W28498  39.845  31.645   2.834
60081W        W28499  33.024  26.137   2.880
60082W        W28500   5.397  16.151  13.436
60083W        W28501  23.042  38.028  10.029
60084W        W28502  24.537  32.555   0.252
60085W        W28503  27.476  24.060   4.169
60086W        W28504  26.020  14.258  14.857
60087W        W28505  39.000  18.102  10.005
60088W        W28506   4.730  29.522   0.287
60089W        W28507   0.490  21.107  12.392
60090W        W28508   9.868  26.652  11.483
60091W        W28509  30.515   3.780   4.118
60092W        W28510   8.778  39.867  10.592
60093W        W28511  28.603   6.687   4.763
60094W        W28512  33.512  23.178  11.569
60095W        W28513  37.978  35.980  11.556
60096W        W28514  27.064   7.297   1.831
60097W        W28515  31.529  37.459   0.859
60098W        W28516  18.572  39.998   3.668
60099W        W28517  42.870  31.524   3.258
60100W        W28518  23.039  32.050  13.420
60101W        W28519   6.802  13.786   0.892
60102W        W28520  30.909  37.068  11.505
60103W        W28521   6.747  37.425  12.489
60104W        W28522   9.394  28.013  11.424
60105W        W28523  14.184  25.143   1.391
60106W        W28524  18.731  28.999  12.555
60107W        W28525   2.924   7.353   1.931
60108W        W28526  13.800  36.533  13.529
60109W        W28527  33.976   2.811  14.910
60110W        W28528  20.073   0.345  13.331
60111W        W28529  17.097  43.369  13.416
60112W        W28530   5.352  14.682   3.805
60113W        W28531  24.058  21.131   3.771
60114W        W28532  40.915  24.521  10.540
60115W        W28533  31.472  11.754   1.921
60116W        W28534   3.878  34.448   2.765
60117W        W28535  12.691  34.055   0.290
60118W        W28536   1.750  24.714  14.514
60119W        W28537  14.295  10.732  12.520
60120W        W28538  17.107  41.823  11.584
60121W        W28539  18.284  10.845  13.793
60122W        W28540  43.982  36.941  10.605
60123W        W28541  10.850  34.570  14.882
60124W        W28542  32.431  16.085  13.915
60125W        W28543  13.839  30.441  13.055
60126W        W28544   9.155   3.238  12.900
60127W        W28545  44.971  11.640   3.207
60128W        W28546  35.558   7.872  14.844
60129W        W28547  10.381   9.765   1.399
60130W        W28548   2.897  11.702   1.886
60131W        W28549  20.734  35.559   0.446
60132W        W28550  40.936  33.985  13.397
60133W        W28551  16.788   8.802   1.324
60134W        W28552  30.578  20.547   2.823
60135W        W28553  44.829  43.487  14.351
60136W        W28554  14.262  12.687   3.817
60137W        W28555  10.808  33.445  12.517
60138W        W28556  37.882  36.574   4.133
60139W        W28557  29.432  18.226   9.981
60140W        W28558  25.591  32.511  11.580
60141W        W28559  35.402  36.075  14.979
60142W        W28560  33.586  25.206   0.286
60143W        W28561  11.749  40.979   3.264
60144W        W28562   6.236  28.948  13.350
60145W        W28563  28.169   6.803  10.047
60146W        W28564  37.878   7.891   3.151
60147W        W28565  41.041  42.986   1.868
60148W        W28566   2.955  18.647  14.778
60149W        W28567  34.579   5.370  11.558
60150W        W28568  10.171  16.724   1.925
60151W        W28569  38.509  12.762  13.535
60152W        W28570   4.945  31.073   0.938
60153W        W28571   5.420  14.628  14.981
60154W        W28572   0.949  20.647   1.806
60155W        W28573  27.954   7.246  14.511
60156W        W28574  11.654  44.289   3.274
60157W        W28575   4.885   1.438  13.009
60158W        W28576   4.846  25.598   4.208
60159W        W28577  20.238   9.260  11.536
60160W        W28578   9.152   5.336   2.728
60161W        W28579   2.871  29.962   1.777
60162W        W28580  30.551  43.375   3.848
60163W        W28581  39.473  30.493   3.794
60164W        W28582   2.919  12.146  10.972
60165W        W28583  36.454   4.213   2.228
60166W        W28584   1.317  28.672   3.223
60167W        W28585  43.447  26.096  14.356
60168W        W28586  23.549  18.636  12.451
60169W        W28587  35.962   7.175   1.259
60170W        W28588   4.838  12.302  13.447
60171W        W28589  40.332   0.811   5.187
60172W        W28590  22.733  41.897   3.705
60173W        W28591  43.940  43.296  12.523
60174W        W28592  26.095  17.291   4.126
60175W        W28593  20.133  44.984   4.627
60176W        W28594  40.340  21.677   0.814
60177W        W28595  25.966  29.598  11.951
60178W        W28596  39.008  33.019   1.889
60179W        W28597  42.927  18.627   5.204
60180W        W28598  39.337  22.566   3.775
60181W        W28599   7.705  18.063  10.492
60182W        W28600  18.772   5.372  13.044
60183W        W28601  38.926  23.637  13.820
60184W        W28602   5.756  36.031   2.736
60185W        W28603  35.567  16.632  14.870
60186W        W28604   3.393  40.046  11.981
60187W        W28605  34.446  38.421  10.478
60188W        W28606  35.601  20.036  14.409
60189W        W28607  38.389  17.731  11.059
60190W        W28608  39.992  35.476  12.077
60191W        W28609  10.216  34.586   3.252
60192W        W28610  38.907   1.818  11.600
60193W        W28611  30.144  37.395   0.952
60194W        W28612   7.810  36.514  11.089
60195W        W28613  13.221   4.208  10.497
60196W        W28614   3.771  26.952   0.856
60197W        W28615  27.545  26.178   1.833
60198W        W28616   8.691  42.336  11.420
60199W        W28617  17.168  26.009   9.921
60200W        W28618   2.824  43.958  12.507
60201W        W28619  14.131  44.428  11.533
60202W        W28620  14.781  18.161   0.740
60203W        W28621  36.591  13.246   3.248
60204W        W28622  44.420   3.373   2.192
60205W        W28623  40.316  18.279   2.178
60206W        W28624   4.823  20.273  10.045
60207W        W28625   1.246  32.414  13.331
60208W        W28626  27.453   7.349   0.770
60209W        W28627  22.603  21.721   3.228
60210W        W28628  23.509  44.368   0.891
60211W        W28629   2.750   4.734  10.911
60212W        W28630  39.003   9.319   2.704
60213W        W28631  31.042   0.871  11.521
60214W        W28632   6.244  27.667   3.203
60215W        W28633  23.011  11.310   2.796
60216W        W28634  21.613  25.118   3.301
60217W        W28635  25.175  34.486  10.459
60218W        W28636   0.865  33.974   3.816
60219W        W28637   7.686  43.974  14.935
60220W        W28638  33.500  40.798   3.647
60221W        W28639  20.733  13.647  12.006
60222W        W28640   5.755   4.746  14.435
60223W        W28641  24.100  28.064   2.279
60224W        W28642   5.756  37.449  10.981
60225W        W28643  39.007  27.101   1.807
60226W        W28644   5.310  12.848   4.615
60227W        W28645  25.683  26.022  11.093
60228W        W28646  24.509  37.045  11.465
60229W        W28647  10.201  36.898   3.782
60230W        W28648  33.933  29.947  11.387
60231W        W28649  42.296   4.386   3.170
60232W        W28650  24.004  21.520   3.341
60233W        W28651  35.899  20.532   0.404
60234W        W28652  34.907  17.684  11.931
60235W        W28653   3.328  11.215   0.917
60236W        W28654   0.472  34.573   3.268
60237W        W28655  23.216  37.416   1.399
60238W        W28656  37.035  12.774   2.248
60239W        W28657  18.063  25.617   3.321
60240W        W28658  36.379  30.088  13.956
60241W        W28659  31.983  10.189   3.314
60242W        W28660  10.139  14.278   4.642
60243W        W28661  33.462  38.328  13.497
60244W        W28662  29.563   0.799   2.255
60245W        W28663  37.375   8.378  13.996
60246W        W28664  38.938  20.100  13.057
60247W        W28665   7.187  12.618   0.456
60248W        W28666   4.384  11.846  11.476
60249W        W28667  19.112  29.566   0.847
60250W        W28668  18.661  26.120   4.200
60251W        W28669  38.877  12.123  10.426
60252W        W28670   3.428   8.166   4.707
60253W        W28671  30.456  32.562  12.883
60254W        W28672  14.792   8.223   0.942
60255W        W28673   6.240  27.535   2.258
60256W        W28674  28.972  38.439  11.112
60257W        W28675  16.135  29.491   0.734
60258W        W28676  11.633  30.445  11.580
60259W        W28677  23.664  42.416   2.801
60260W        W28678  42.919  22.638  12.870
60261W        W28679   2.890  36.434  13.054
60262W        W28680  13.314  29.028  11.551
60263W        W28681  12.271  43.771  13.468
60264W        W28682   3.895   9.676   4.773
60265W        W28683  14.260  42.433   2.350
60266W        W28684  16.165  44.911  10.944
60267W        W28685  34.005  16.800   2.790
60268W        W28686  15.664  19.649  10.564
60269W        W28687   9.197  24.611  14.470
60270W        W28688  30.595  23.985  14.459
60271W        W28689  25.528  44.963   4.720
60272W        W28690   5.793  11.784  14.505
60273W        W28691  25.609  25.584   1.237
60274W        W28692  33.594  28.101  11.589
60275W        W28693  41.906  29.657  11.596
60276W        W28694  27.961  35.061  13.043
60277W        W28695  12.299   4.444   1.324
60278W        W28696  25.128  24.068   3.808
60279W        W28697  12.752  30.101   2.406
60280W        W28698  28.440   5.738   2.302
60281W        W28699   5.786   4.413   0.894
60282W        W28700  43.509  31.931   0.954
60283W        W28701  31.135  40.976  12.485
60284W        W28702   4.348  44.964  14.789
60285W        W28703  42.788   7.174   2.331
60286W        W28704  28.628  25.215   2.266
60287W        W28705   0.261  33.126  13.533
60288W        W28706   1.237  21.190  11.881
60289W        W28707  21.726   0.814  10.558
60290W        W28708  19.257  24.039  14.453
60291W        W28709   2.814  19.737  11.030
60292W        W28710  34.463  41.945  12.505
60293W        W28711  34.099  15.197  11.992
60294W        W28712  25.152  18.686  11.055
60295W        W28713  40.867   5.327  10.480
60296W        W28714   6.258  42.302  11.434
60297W        W28715  28.531  34.011  10.437
60298W        W28716  21.225  31.901  12.082
60299W        W28717  10.831  29.429   4.272
60300W        W28718  18.560  39.912  14.811
60301W        W28719  35.521   4.726   3.739
60302W        W28720  22.025  32.936   4.610
60303W        W28721  15.171  44.467  14.945
60304W        W28722  18.762  44.791  13.829
60305W        W28723   5.222  11.318  14.514
60306W        W28724  16.258  44.265  10.627
60307W        W28725   0.802  23.041   2.709
60308W        W28726  14.247  25.161   2.275
60309W        W28727  39.378  21.539   2.843
60310W        W28728   6.778  17.192   2.847
60311W        W28729  35.020  12.745   5.274
60312W        W28730  26.677  11.661   2.312
60313W        W28731  43.408  22.085  11.941
60314W        W28732  15.238  18.260   2.675
60315W        W28733   5.802   9.676  13.928
60316W        W28734  42.954  27.603   3.345
60317W        W28735  18.200   4.259  11.467
60318W        W28736   7.227   3.303  13.026
60319W        W28737  43.890  22.516   4.651
60320W        W28738  36.587  23.489  14.477
60321W        W28739  42.812   0.773   4.147
60322W        W28740   8.385  31.538   0.405
60323W        W28741  10.150  16.613   0.844
60324W        W28742  11.293  23.618   1.231
60325W        W28743  34.586  32.459  14.506
60326W        W28744  14.136  22.148  14.833
60327W        W28745  19.073  32.046  14.363
60328W        W28746  39.404  22.607  11.881
60329W        W28747   2.756  17.173  14.875
60330W        W28748   5.229   1.746  14.962
60331W        W28749  35.395  39.969   2.745
60332W        W28750  33.090  43.798   3.773
60333W        W28751  33.046  31.630   1.697
60334W        W28752  24.541  39.042  10.118
60335W        W28753  18.279  25.530   2.895
60336W        W28754   6.284   4.706   2.782
60337W        W28755  30.560  40.416   1.385
60338W        W28756  10.325  35.512   3.145
60339W        W28757  40.434  37.464   2.281
60340W        W28758  25.541  26.504   5.318
60341W        W28759   9.352  41.978  13.375
60342W        W28760   8.212  33.422   0.860
60343W        W28761  15.763  17.143  13.965
60344W        W28762   1.823   2.724  14.770
60345W        W28763  19.771   4.355  12.960
60346W        W28764  17.671  44.898   3.289
60347W        W28765   6.283  43.310  13.374
60348W        W28766   5.392   2.394   0.303
60349W        W28767   7.353  44.961   0.779
60350W        W28768  16.596  20.098  13.465
60351W        W28769  39.527  44.777  11.935
60352W        W28770  33.003  31.951   0.949
60353W        W28771  13.735  37.523  10.406
60354W        W28772  24.088  40.024   9.971
60355W        W28773   5.794   8.305   3.356
60356W        W28774   3.454   7.319   1.876
60357W        W28775   5.692  31.053   2.793
60358W        W28776  20.679  12.330  13.055
60359W        W28777  42.453  13.224  10.483
60360W        W28778  29.465  28.663  13.023
60361W        W28779   6.309  22.564   3.768
60362W        W28780  25.128   8.832   1.889
60363W        W28781  21.235  36.563   2.841
60364W        W28782  29.007  36.851   0.259
60365W        W28783   4.795   3.803   2.796
60366W        W28784   4.288  20.644   4.712
60367W        W28785  33.898  14.661  14.920
60368W        W28786  34.593  18.746  13.929
60369W        W28787  39.830  25.207   4.192
60370W        W28788  27.176  29.166  10.957
60371W        W28789  42.288  20.141  12.954
60372W        W28790  36.941  11.130  11.870
60373W        W28791  33.428   1.753  10.918
60374W        W28792  42.391  26.074  10.585
60375W        W28793  39.055  44.428  12.985
60376W        W28794  35.572   6.264   2.696
60377W        W28795   4.706   8.741   2.712
60378W        W28796  36.523  39.884  10.917
60379W        W28797  12.214  28.436   1.717
60380W        W28798  28.544  39.952   2.188
60381W        W28799  17.093  37.973  12.417
60382W        W28800  22.104  40.455   3.849
60383W        W28801  32.051   2.791   1.251
60384W        W28802   1.731   7.356   4.329
60385W        W28803   5.348   3.885   0.436
60386W        W28804   0.974  21.134  12.843
60387W        W28805   4.786  33.504   2.849
60388W        W28806  44.870   5.829  12.068
60389W        W28807  17.716  16.128  10.418
60390W        W28808  43.852  16.698   2.373
60391W        W28809  14.745  19.145   2.381
60392W        W28810   3.891  25.683  11.947
60393W        W28811  29.949  32.014   4.705
60394W        W28812  26.093  44.895  10.898
60395W        W28813  37.362  19.592   0.800
60396W        W28814  10.222  38.472   1.411
60397W        W28815  32.553  44.285  14.383
60398W        W28816  34.977  14.740  11.449
60399W        W28817  25.110  19.109  12.401
60400W        W28818   3.285   2.942  12.401
60401W        W28819  15.096   6.792  13.541
60402W        W28820   9.699  29.525  14.419
60403W        W28821   5.361   9.193   3.347
60404W        W28822   7.233  26.660   1.280
60405W        W28823  10.305  39.451   2.755
60406W        W28824   2.893  12.635   4.619
60407W        W28825  11.632   3.924  13.428
60408W        W28826   2.926  32.909   4.761
60409W        W28827   4.872  41.346   1.415
60410W        W28828  12.299  32.441   3.159
60411W        W28829  16.713  19.241  13.489
60412W        W28830  34.415  44.809   2.409
60413W        W28831  17.166   4.777  14.780
60414W        W28832  31.491  22.558  14.995
60415W        W28833   5.817  19.627   2.677
60416W        W28834  11.864  21.575  12.383
60417W        W28835  28.677   4.438  12.511
60418W        W28836  42.776  21.098  12.488
60419W        W28837   4.359  35.064   1.743
60420W        W28838  17.587  30.999   0.245
60421W        W28839  31.096  32.626   4.290
60422W        W28840   9.236  27.129  12.950
60423W        W28841  12.818   2.257   4.345
60424W        W28842  35.094  22.116  12.472
60425W        W28843  37.555   7.314  10.547
60426W        W28844  24.214  12.166  11.895
60427W        W28845   2.388  28.001  13.965
60428W        W28846  36.037   7.334   3.276
60429W        W28847  19.185  22.527   4.793
60430W        W28848  43.775  16.196  13.499
60431W        W28849  37.515  33.465   1.310
60432W        W28850   8.697  14.100   9.950
60433W        W28851  18.639  10.708  13.519
60434W        W28852  25.531  23.548   3.216
60435W        W28853  22.671   6.826  14.761
60436W        W28854   9.739  38.418  10.493
60437W        W28855  19.718   8.808  13.826
60438W        W28856  21.094  30.048   0.273
60439W        W28857  31.046  31.992  12.052
60440W        W28858  34.955   7.842  12.448
60441W        W28859  18.703  43.399   4.135
60442W        W28860  39.989  19.775   3.297
60443W        W28861  31.633  10.274   1.748
60444W        W28862  10.872  29.436   2.304
60445W        W28863  21.082  14.706  12.874
60446W        W28864   4.710  30.103   0.916
60447W        W28865  20.653  18.776  12.363
60448W        W28866  32.482  32.929   1.798
60449W        W28867  33.923   0.901  13.042
60450W        W28868  19.260   3.935  10.932
60451W        W28869  19.586  44.891   1.896
60452W        W28870  14.273  30.578  12.366
60453W        W28871  24.645  43.832   1.702
60454W        W28872  37.392  16.785   3.207
60455W        W28873  23.018  26.048  11.433
60456W        W28874   7.714  13.236  14.996
60457W        W28875  17.752  20.172   3.265
60458W        W28876   6.369  43.292   9.924
60459W        W28877  42.985  20.702   4.679
60460W        W28878  35.087  43.902   3.210
60461W        W28879   7.358  12.773   1.337
60462W        W28880  15.084  36.450  14.941
60463W        W28881  37.842  28.513   4.818
60464W        W28882  13.107  16.136  13.359
60465W        W28883  15.253   4.449   9.480
60466W        W28884  40.366  16.701  11.950
60467W        W28885  28.487  33.396   4.722
60468W        W28886  20.687  27.085   4.741
60469W        W28887   3.857   5.887  10.946
60470W        W28888  32.936  42.300  13.538
60471W        W28889  15.608  27.948  14.489
60472W        W28890  14.103  41.957  11.427
60473W        W28891   7.910   4.382   1.424
60474W        W28892  28.590  26.484   0.879
60475W        W28893  27.020  29.538   2.262
60476W        W28894  30.565  24.224  13.792
60477W        W28895  33.409  40.363  13.963
60478W        W28896  36.424  16.754  12.963
60479W        W28897   4.436  39.861   0.446
60480W        W28898  25.593  20.236  11.989
60481W        W28899  11.724  33.529   1.761
60482W        W28900  23.027  22.198   1.919
60483W        W28901  30.588   8.674  14.899
60484W        W28902  37.373  24.570   2.317
60485W        W28903   8.732  26.488   1.230
60486W        W28904  25.015  23.581   0.797
60487W        W28905   4.367  43.433   4.328
60488W        W28906  43.004  30.564   1.380
60489W        W28907  22.677  34.019  11.102
60490W        W28908   4.444  25.140   4.287
60491W        W28909  37.393  31.602  13.319
60492W        W28910   5.829  17.165  14.867
60493W        W28911  24.586   5.889   0.795
60494W        W28912  26.674  40.974   4.320
60495W        W28913   0.950  20.128  13.901
60496W        W28914  41.504  35.964  12.511
60497W        W28915   0.776  25.971   2.824
60498W        W28916   0.251  18.126   4.608
60499W        W28917  13.655  21.584   2.365
60500W        W28918  44.293  22.665   3.862
60501W        W28919  40.884   7.797  12.878
60502W        W28920   1.383  21.173  11.489
60503W        W28921  43.902   7.722   3.157
60504W        W28922   2.941  34.932  14.425
60505W        W28923  27.682  10.363  14.939
60506W        W28924  17.757   3.337   1.356
60507W        W28925  20.636   6.222  12.059
60508W        W28926  43.016  38.537   3.200
60509W        W28927  38.955  24.073   2.409
60510W        W28928  18.118   7.747  12.025
60511W        W28929  22.703  28.010  14.884
60512W        W28930  33.400  16.184  13.892
60513W        W28931  42.025  33.075  10.416
60514W        W28932  37.463   4.407  11.508
60515W        W28933  32.009   3.322  13.038
60516W        W28934   8.779  15.279   1.439
60517W        W28935  38.533  15.182  12.386
60518W        W28936  29.128  15.685   4.616
60519W        W28937   5.907  30.518  12.868
60520W        W28938  23.525  35.868  10.416
60521W        W28939  13.727  11.349  11.413
60522W        W28940   6.879  38.553  13.416
60523W        W28941  14.147  27.614   1.446
60524W        W28942  29.610  25.173   0.857
60525W        W28943  14.128   5.241   0.246
60526W        W28944   7.682   9.819  13.921
60527W        W28945  26.665  40.476  13.886
60528W        W28946  22.608   7.399   4.645
60529W        W28947  43.413  27.532   4.665
60530W        W28948  33.032  14.735   3.316
60531W        W28949  10.663   9.699   1.252
60532W        W28950  16.570  15.682   0.321
60533W        W28951   0.830  38.015   4.833
60534W        W28952  28.605   6.733  13.885
60535W        W28953   7.342   4.766  13.519
60536W        W28954  21.116  43.014   5.163
60537W        W28955   1.897  14.141  12.860
60538W        W28956  30.122   5.779  14.331
60539W        W28957  39.845  36.997   2.745
60540W        W28958  17.634  34.873   1.365
60541W        W28959  20.057  25.558   5.200
60542W        W28960  35.464  32.012  10.992
60543W        W28961  41.518  38.934   3.313
60544W        W28962  17.248  29.986   3.184
60545W        W28963  42.312  12.683  13.042
60546W        W28964  23.990  24.040  13.331
60547W        W28965  37.499  26.477  13.406
60548W        W28966  38.364  13.239  14.374
60549W        W28967  19.711  38.524   2.771
60550W        W28968  16.721   5.825  14.827
60551W        W28969  24.608  23.197  13.449
60552W        W28970   2.756   7.392   2.264
60553W        W28971  31.579  13.613  12.045
60554W        W28972   4.820  10.729   0.438
60555W        W28973  38.971  30.519   5.117
60556W        W28974  20.266  13.698  12.518
60557W        W28975  37.908  30.122   3.149
60558W        W28976  23.068   9.837  12.937
60559W        W28977  41.294  34.949   1.445
60560W        W28978  44.443  16.808   0.315
60561W        W28979  18.702  37.879   2.726
60562W        W28980   0.417  28.462  12.091
60563W        W28981  34.002  32.901   4.262
60564W        W28982  23.197  39.532   3.642
60565W        W28983  19.622   4.255   3.265
60566W        W28984  15.744  16.187  14.472
60567W        W28985  19.053  11.275  11.416
60568W        W28986  35.531  18.755   1.400
60569W        W28987  40.810  19.664   1.832
60570W        W28988  28.929  21.536   2.320
60571W        W28989  38.560  18.140   0.393
60572W        W28990  31.048  44.492   1.925
60573W        W28991  24.562   3.431  11.111
60574W        W28992   6.339   2.908   0.300
60575W        W28993  33.598  35.074   0.859
60576W        W28994   5.768  26.068  14.927
60577W        W28995  29.978  29.612  11.868
60578W        W28996  40.961  11.244   1.732
60579W        W28997  41.447  37.897  12.413
60580W        W28998  23.553  18.619  11.042
60581W        W28999  41.020  36.075  14.976
60582W        W29000  22.045  35.958   3.308
60583W        W29001  31.493  42.470  14.385
60584W        W29002  34.881  26.502   4.230
60585W        W29003  26.469  28.930   1.736
60586W        W29004  19.546  31.960  10.903
60587W        W29005  23.620  32.890  13.872
60588W        W29006  28.550  17.574  11.497
60589W        W29007  34.041  30.600  10.633
60590W        W29008  29.442  44.995  10.597
60591W        W29009   3.739   4.251  13.849
60592W        W29010   0.753  26.171  12.084
60593W        W29011   8.745  44.264  13.064
60594W        W29012  36.935   7.358  11.479
60595W        W29013  14.210  34.096   2.729
60596W        W29014  30.517  30.570   3.230
60597W        W29015  39.342   0.325   2.684
60598W        W29016  42.378   6.341  12.049
60599W        W29017  44.973  15.751   1.701
60600W        W29018  25.124   0.749  12.947
60601W        W29019  19.662  35.862  10.623
60602W        W29020  14.670  43.478  12.423
60603W        W29021   0.867  24.988  12.580
60604W        W29022  12.802  44.451   2.856
60605W        W29023  34.401  36.556  12.045
60606W        W29024   7.721  19.120  12.388
60607W        W29025   2.391  32.437  11.415
60608W        W29026  31.480  27.134   4.814
60609W        W29027  12.358  16.567   4.232
60610W        W29028  10.725  20.537   2.829
60611W        W29029  10.726   1.454  11.516
60612W        W29030  22.608  19.743   4.737
60613W        W29031  42.346  40.953  11.875
60614W        W29032   6.193  32.497  14.817
60615W        W29033  25.686  24.504  12.542
60616W        W29034  16.129  42.504   1.364
60617W        W29035  43.372  20.269  12.986
60618W        W29036  30.958   1.256  13.446
60619W        W29037   3.847  39.347   1.845
60620W        W29038  29.937   4.344   0.361
60621W        W29039  12.267  42.848  14.789
60622W        W29040   9.838  13.137  14.280
60623W        W29041  21.030  21.702  12.354
60624W        W29042  29.455  42.951  14.334
60625W        W29043  38.950  10.845   1.332
60626W        W29044  29.429   2.834   0.311
60627W        W29045  33.972  39.883  13.797
60628W        W29046   0.412  12.221   1.249
60629W        W29047  20.550   6.824  12.027
60630W        W29048  30.525  24.654   4.136
60631W        W29049  36.061  14.793   0.833
60632W        W29050  22.085  27.576   4.261
60633W        W29051   7.774  24.017  14.779
60634W        W29052  13.324  30.059   1.256
60635W        W29053  43.462  43.468  11.904
60636W        W29054  16.080  20.142   4.186
60637W        W29055  20.634   1.343  12.071
60638W        W29056  32.473  20.591  14.322
60639W        W29057   7.234  32.585   2.341
60640W        W29058  24.107  35.491  14.458
60641W        W29059   8.818  19.682   0.359
60642W        W29060  21.017  39.888  10.438
60643W        W29061   3.908  26.018  11.429
60644W        W29062  37.543  18.292   4.282
60645W        W29063  42.976  30.012   2.288
60646W        W29064   5.315  31.045  14.504
60647W        W29065  23.020  44.447  12.565
60648W        W29066  39.398  40.956   2.291
60649W        W29067  32.011  39.509   0.811
60650W        W29068  28.075  11.832  11.102
60651W        W29069   8.829  40.014   1.319
60652W        W29070   3.309  33.887   1.241
60653W        W29071  29.166  39.059   3.633
60654W        W29072  43.377  44.899  13.037
60655W        W29073  15.089  40.801   1.802
60656W        W29074  21.225  27.577   3.325
60657W        W29075  21.692  30.535   5.319
60658W        W29076  32.970   3.220  11.479
60659W        W29077  20.145  26.983   2.339
60660W        W29078  42.900  20.087  14.909
60661W        W29079  22.601  35.550  14.977
60662W        W29080  20.163  29.547  14.845
60663W        W29081  31.152  18.716   1.298
60664W        W29082  11.751   7.799  11.021
60665W        W29083   8.731  41.873  12.844
60666W        W29084  27.467  10.252   3.758
60667W        W29085  38.342  30.955   1.300
60668W        W29086   0.264   6.755  11.073
60669W        W29087  18.788  43.928   4.694
60670W        W29088  41.324   6.855   4.761
60671W        W29089  41.867  41.388  14.943
60672W        W29090  19.761  35.392  11.582
60673W        W29091   9.333   0.307   0.246
60674W        W29092  21.069  27.000  12.561
60675W        W29093  42.472  32.928   1.319
60676W        W29094  43.402  34.477   1.379
60677W        W29095  24.198  14.701   4.209
60678W        W29096  32.626   6.242  12.498
60679W        W29097  41.538  11.198  11.529
60680W        W29098  35.055  22.095   3.325
60681W        W29099  30.062  35.557  11.935
60682W        W29100  21.551  20.161  13.535
60683W        W29101  24.090   9.693  14.028
60684W        W29102   9.259   6.338  13.017
60685W        W29103  41.481   2.761   4.114
60686W        W29104  33.896  44.850   2.412
60687W        W29105   4.446  22.648   0.283
60688W        W29106  21.553  14.271  14.847
60689W        W29107   5.384   9.800  14.311
60690W        W29108   2.887  32.621  11.924
60691W        W29109   8.294  25.116   4.722
60692W        W29110  32.960  41.302   1.769
60693W        W29111   4.433  13.736  13.469
60694W        W29112  27.580  27.989   3.162
60695W        W29113  28.553  34.498   2.319
60696W        W29114   3.833  25.481  11.107
60697W        W29115  27.995  40.815   3.675
60698W        W29116  14.230  13.276   3.828
60699W        W29117  41.496  36.488   0.304
60700W        W29118  30.613  31.432  10.440
60701W        W29119  22.518  19.595   1.433
60702W        W29120  34.448  28.443  12.918
60703W        W29121  23.197  14.657  13.965
60704W        W29122   1.404   5.348   4.657
60705W        W29123  37.932  32.618   4.741
60706W        W29124  35.467  42.985   3.339
60707W        W29125  30.415  13.334   3.844
60708W        W29126  13.679  10.879  14.376
60709W        W29127  32.591  13.614   2.368
60710W        W29128  23.542   8.297   2.841
60711W        W29129   3.721  33.382  11.562
60712W        W29130  28.621  13.143  12.520
60713W        W29131  22.046  39.930  13.512
60714W        W29132  13.176  35.367   1.442
60715W        W29133  34.108   3.331  13.458
60716W        W29134   5.926  37.879   1.823
60717W        W29135  28.592  26.656  14.974
60718W        W29136  23.526  12.309  13.410
60719W        W29137  31.990  29.523   2.796
60720W        W29138  15.764  14.833  13.473
60721W        W29139  44.785   0.960   1.898
60722W        W29140   1.239  44.859   2.327
60723W        W29141   7.687   4.398  12.854
60724W        W29142  40.919  37.487   0.419
60725W        W29143  21.746  43.874  10.967
60726W        W29144  11.828  34.483   0.942
60727W        W29145  26.629  36.515  12.055
60728W        W29146  21.149  30.630  10.432
60729W        W29147   9.363  18.589   2.193
60730W        W29148   5.334  27.558   3.814
60731W        W29149  43.929  21.238  11.498
60732W        W29150  42.350   4.218   1.394
60733W        W29151  14.312  25.589   2.245
60734W        W29152  10.176  11.347   4.201
60735W        W29153  31.454  39.434   1.695
60736W        W29154  25.118   9.788  10.589
60737W        W29155  39.496   0.393   4.813
60738W        W29156  37.952   2.935  11.115
60739W        W29157   6.871  32.417   3.715
60740W        W29158   3.455  38.922   2.314
60741W        W29159  23.721  20.248   1.804
60742W        W29160  33.400  27.100  10.897
60743W        W29161  18.155  31.457  13.397
60744W        W29162   8.737   9.302   1.791
60745W        W29163  14.744  32.482   2.832
60746W        W29164  28.441  27.601  11.062
60747W        W29165   1.848  17.756   0.759
60748W        W29166   7.240  33.892   1.433
60749W        W29167  16.696  16.284   1.756
60750W        W29168  26.559  35.364   3.249
60751W        W29169  11.735  32.403   3.753
60752W        W29170   2.468  17.148   9.966
60753W        W29171  37.532  36.358   4.240
60754W        W29172  18.148  11.706  13.377
60755W        W29173  12.623  42.430   1.270
60756W        W29174  24.214  19.248  12.455
60757W        W29175  23.563  23.024  11.888
60758W        W29176  27.580  44.006   0.258
60759W        W29177  24.155  21.148  11.058
60760W        W29178  35.100   7.715  13.329
60761W        W29179   6.857   8.687  10.407
60762W        W29180  37.927  22.687  10.006
60763W        W29181  21.089  36.936   2.186
60764W        W29182  21.230  24.714  13.541
60765W        W29183  14.101   4.758  11.453
60766W        W29184  27.965  18.719   3.718
60767W        W29185  17.781  30.556  14.965
60768W        W29186  21.168  28.980   4.669
60769W        W29187  27.046  38.435  10.993
60770W        W29188  44.971   7.343   0.406
60771W        W29189  42.896  40.912   5.229
60772W        W29190  33.130  19.742  13.812
60773W        W29191  33.460  41.385   1.251
60774W        W29192   1.335  29.567   1.750
60775W        W29193  33.392   1.914  14.016
60776W        W29194   3.324  32.905  14.886
60777W        W29195  23.085  39.540  11.410
60778W        W29196  31.996  19.131   4.779
60779W        W29197  13.203  10.705  12.908
60780W        W29198   8.878  20.218   1.887
60781W        W29199   0.939  22.027   2.783
60782W        W29200  34.945   2.928  10.450
60783W        W29201  25.709  17.735   0.413
60784W        W29202  13.170  29.590  10.437
60785W        W29203  29.963   2.358   3.165
60786W        W29204  41.436  34.497  11.474
60787W        W29205  11.233   6.829  11.900
60788W        W29206  39.324  10.652   4.342
60789W        W29207  41.421   5.851  12.567
60790W        W29208  24.037  25.683  11.471
60791W        W29209   8.264   2.758  10.919
60792W        W29210  28.160  28.597   0.298
60793W        W29211  14.283   8.327   1.359
60794W        W29212  11.737  14.196   4.738
60795W        W29213  36.063  35.593  13.887
60796W        W29214  44.922  43.857  12.080
60797W        W29215  30.154  17.705  10.544
60798W        W29216  20.195  16.075  10.429
60799W        W29217   6.400  18.096   9.955
60800W        W29218  27.570  12.330   0.922
60801W        W29219  38.432  33.506  11.112
60802W        W29220  10.325  24.032   0.409
60803W        W29221  14.318  38.950   0.351
60804W        W29222  19.699   2.398   2.716
60805W        W29223   1.741  25.607  10.643
60806W        W29224   4.250   9.374  13.387
60807W        W29225   6.375   1.280  13.460
60808W        W29226  33.997   4.421   2.222
60809W        W29227  37.483   0.890  12.461
60810W        W29228   3.252  33.527   2.736
60811W        W29229  42.390   7.691   2.183
60812W        W29230  33.014  41.949  13.951
60813W        W29231  15.084  42.999   2.700
60814W        W29232   4.720  29.921  11.908
60815W        W29233  44.973  25.098  10.958
60816W        W29234  26.527  15.718   0.396
60817W        W29235  22.531  15.244  13.842
60818W        W29236  11.249  12.131  13.310
60819W        W29237  37.901  10.201   0.266
60820W        W29238  30.572  22.688   0.963
60821W        W29239   8.291   3.811  14.328
60822W        W29240  39.370  14.768  13.815
60823W        W29241   6.792  18.690   0.249
60824W        W29242   2.287   6.245  11.569
60825W        W29243  37.579  28.145   2.262
60826W        W29244   6.204  25.202   1.836
60827W        W29245  21.539  36.404   0.429
60828W        W29246   6.768  35.411   3.642
60829W        W29247  43.818   9.683   4.209
60830W        W29248  14.287  16.627   4.172
60831W        W29249  39.811   5.764  14.352
60832W        W29250  23.494  20.090  10.996
60833W        W29251   5.322  34.383   1.799
60834W        W29252   2.762  17.745  13.478
60835W        W29253  24.576  40.521   1.742
60836W        W29254   7.215  40.986   4.211
60837W        W29255  29.571  21.131  13.403
60838W        W29256  17.243  36.877  14.402
60839W        W29257  16.704  21.256   1.773
60840W        W29258  12.259  13.302   2.329
60841W        W29259  12.778   9.265  10.938
60842W        W29260  39.506   1.478   4.810
60843W        W29261   2.451  36.936  11.560
60844W        W29262  17.612  13.771   1.766
60845W        W29263  44.887  10.284  13.947
60846W        W29264  21.149   0.270   4.120
60847W        W29265  37.029  12.292  13.457
60848W        W29266  40.966  28.661  13.361
60849W        W29267  21.180   7.176  13.895
60850W        W29268  37.949  11.840  13.466
60851W        W29269  38.445  20.698   1.223
60852W        W29270  38.349  17.303   1.825
60853W        W29271  33.464   1.447   2.820
60854W        W29272   9.166  37.992   0.394
60855W        W29273  10.795  10.258   2.183
60856W        W29274  25.101  20.576  14.328
60857W        W29275  14.762  19.597   4.245
60858W        W29276  22.518   8.849  11.925
60859W        W29277  31.949  29.619  12.455
60860W        W29278  11.249   5.310  12.893
60861W        W29279  18.128  35.877   0.735
60862W        W29280   1.420   6.240  13.853
60863W        W29281  43.289  13.231  13.364
60864W        W29282   7.770   4.739   0.274
60865W        W29283  11.144   5.205   3.246
60866W        W29284  23.549  23.190  12.364
60867W        W29285  15.213  19.577  12.917
60868W        W29286  10.663  13.824  10.435
60869W        W29287  19.559  15.283  13.383
60870W        W29288   7.194  26.038  10.980
60871W        W29289  38.404  10.144  14.914
60872W        W29290  35.391   2.433   1.315
60873W        W29291  39.413  24.088   0.404
60874W        W29292  27.083   4.838   0.955
60875W        W29293  38.955  38.459  12.933
60876W        W29294  41.993   2.793  13.331
60877W        W29295   2.271  16.312  14.316
60878W        W29296  27.023  33.445  13.942
60879W        W29297  40.937  28.979   1.828
60880W        W29298  42.981  19.635   2.811
60881W        W29299  40.039  19.098  11.908
60882W        W29300   3.759  20.553  14.926
60883W        W29301   6.872   1.838  12.968
60884W        W29302   8.807   8.191  11.022
60885W        W29303  17.153   9.714   0.274
60886W        W29304  24.210   9.722   1.909
60887W        W29305   3.827   2.382  14.011
60888W        W29306  30.024  19.543   1.368
60889W        W29307  38.851  36.373  11.579
60890W        W29308  15.149  23.631   1.254
60891W        W29309  32.963  23.657  14.432
60892W        W29310  23.553  25.059   1.714
60893W        W29311  12.160   9.699  12.466
60894W        W29312   3.289  38.358   3.726
60895W        W29313  24.658  41.489   1.829
60896W        W29314  12.142  14.589   1.772
60897W        W29315   2.850  25.543   2.808
60898W        W29316  16.685  23.729   4.130
60899W        W29317  35.977  33.105   1.343
60900W        W29318  22.164  44.805  12.371
60901W        W29319  44.886  38.979  14.350
60902W        W29320   0.267  41.522   0.892
60903W        W29321  29.021  15.664  10.513
60904W        W29322  17.567  12.337  13.947
60905W        W29323  26.193  11.858   2.261
60906W        W29324  29.025  13.182  12.900
60907W        W29325  28.142  28.625   2.347
60908W        W29326  39.550  26.065  14.950
60909W        W29327  33.405  28.547   3.385
60910W        W29328  29.575  39.942  14.508
60911W        W29329  15.718  44.969   0.912
60912W        W29330  36.903  43.337  12.026
60913W        W29331  17.261  33.010   0.728
60914W        W29332  33.545  36.956   2.685
60915W        W29333  32.995  32.897   3.643
60916W        W29334  15.789  44.999   3.861
60917W        W29335  14.243  15.720  13.940
60918W        W29336  31.929  38.513   0.751
60919W        W29337  19.618  25.625  13.426
60920W        W29338   5.817  17.675   4.143
60921W        W29339  43.011  44.413   1.797
60922W        W29340   0.474  26.553  14.410
60923W        W29341   5.205  19.579  12.474
60924W        W29342  18.270  15.315  12.902
60925W        W29343  38.516   4.707  11.428
60926W        W29344  41.337  41.458   0.437
60927W        W29345  22.240  25.024   0.453
60928W        W29346   8.248  30.560   2.847
60929W        W29347  24.152   2.811   0.364
60930W        W29348  38.947  41.348   2.686
60931W        W29349  36.505  15.799   2.865
60932W        W29350  44.434  34.999  11.043
60933W        W29351  31.550   4.359  12.360
60934W        W29352  33.403  23.114   3.788
60935W        W29353  44.338  37.513  12.357
60936W        W29354  34.998   4.365  11.569
60937W        W29355  44.930   5.381  14.931
60938W        W29356  38.865  32.540  11.104
60939W        W29357  34.096  39.930   4.173
60940W        W29358  31.104   1.967   5.211
60941W        W29359  24.724   3.878   2.363
60942W        W29360   0.786   4.867   3.296
60943W        W29361  19.641   5.253  13.535
60944W        W29362   0.953  35.035   3.651
60945W        W29363   9.232  36.356   1.805
60946W        W29364   0.327  12.322  11.508
60947W        W29365  19.535  27.143   0.426
60948W        W29366   1.759   5.422   3.239
60949W        W29367   2.385  27.554  14.385
60950W        W29368   7.671  11.771   3.170
60951W        W29369  33.519  23.030   0.479
60952W        W29370  41.480  33.493  11.383
60953W        W29371  22.167  43.774  12.545
60954W        W29372  15.754  12.664  12.347
60955W        W29373   2.279  26.663  12.428
60956W        W29374  29.068  43.774  12.379
60957W        W29375  44.340  35.514  14.790
60958W        W29376  18.128  34.417   2.839
60959W        W29377  17.267   2.923   0.400
60960W        W29378  26.972  43.798   1.867
60961W        W29379  31.485   0.751   4.755
60962W        W29380  31.914  10.180  12.412
60963W        W29381  37.495  44.834   3.709
60964W        W29382  43.308  22.720   9.926
60965W        W29383  16.158  39.041   2.256
60966W        W29384  39.492  25.689  11.082
60967W        W29385   0.950   4.717  12.421
60968W        W29386   8.712  20.172   3.803
60969W        W29387  37.951  22.197  12.573
60970W        W29388  38.516   4.330  12.903
60971W        W29389  39.874  16.570  13.030
60972W        W29390  41.927  12.731   1.724
60973W        W29391  21.538   3.769   2.269
60974W        W29392  19.757   6.738   4.337
60975W        W29393  20.750  29.637   3.314
60976W        W29394  41.340  20.135   3.699
60977W        W29395   8.240  36.061  13.049
60978W        W29396  32.548  15.677  11.918
60979W        W29397  36.537  44.437   0.806
60980W        W29398  40.389   6.699   3.861
60981W        W29399  15.246  37.563   3.243
60982W        W29400  38.872   8.403  14.786
60983W        W29401  14.310  37.083   4.121
60984W        W29402  36.850   5.787  11.466
60985W        W29403  13.199   0.952  12.398
60986W        W29404  17.564  44.950  13.058
60987W        W29405  40.545  11.751  10.153
60988W        W29406  44.955  43.433   1.243
60989W        W29407  22.006  27.631   1.444
60990W        W29408  28.070  30.913   4.205
60991W        W29409  28.006  36.442   4.680
60992W        W29410  35.569  14.593   3.680
60993W        W29411  14.652  28.033   0.382
60994W        W29412  35.384  33.543  13.412
60995W        W29413  17.160  15.178  11.527
60996W        W29414   0.832  31.048   0.917
60997W        W29415   5.373  25.701   0.785
60998W        W29416  14.649  24.545   4.687
60999W        W29417  16.170  30.602  10.567
61000W        W29418  23.147  11.360   2.414
61001W        W29419  26.489  33.399   3.642
61002W        W29420  12.338  22.197  14.002
61003W        W29421  32.575  26.968   1.372
61004W        W29422  16.110  28.519   1.327
61005W        W29423  11.849  21.053  10.992
61006W        W29424   1.360  25.602  11.414
61007W        W29425  21.731   6.715   1.699
61008W        W29426  42.283  43.498  13.440
61009W        W29427  42.318   4.431  14.472
61010W        W29428  25.060  39.061   2.365
61011W        W29429  42.282   0.295  13.499
61012W        W29430  33.033   1.256  10.639
61013W        W29431  42.792  37.876   3.717
61014W        W29432   4.848  44.838  14.345
61015W        W29433  30.959  35.968   1.227
61016W        W29434   3.340  27.992   2.402
61017W        W29435  24.613   0.475   1.870
61018W        W29436  41.960  25.215   3.739
61019W        W29437  21.202  19.732  12.923
61020W        W29438  17.686  16.302   0.268
61021W        W29439  12.674  33.040  14.819
61022W        W29440  20.717  16.204  14.979
61023W        W29441  37.959  20.732   4.783
61024W        W29442  25.092  14.244  13.853
61025W        W29443   6.428   8.742  12.497
61026W        W29444  24.580   9.382   3.243
61027W        W29445   9.216  13.182  13.404
61028W        W29446  38.830  24.073  14.998
61029W        W29447  21.155   5.913  14.857
61030W        W29448   8.758  11.796   0.318
61031W        W29449   7.265  13.333   4.172
61032W        W29450  23.117  15.670  10.500
61033W        W29451  42.859   6.762   1.879
61034W        W29452  43.949  42.450  10.467
61035W        W29453   0.945  41.388   1.291
61036W        W29454   1.833   7.721   2.243
61037W        W29455  36.387  23.133   4.156
61038W        W29456  21.204   8.662  12.485
61039W        W29457  38.883  12.178   0.813
61040W        W29458  18.722  22.031   4.793
61041W        W29459  17.215   7.874  14.766
61042W        W29460  12.173  12.268   1.387
61043W        W29461  19.124  41.927   0.774
61044W        W29462  43.361  43.893  13.541
61045W        W29463  42.848   5.914  12.538
61046W        W29464  13.763   6.390  11.115
61047W        W29465  10.138  17.635  13.445
61048W        W29466  12.277  32.952  13.524
61049W        W29467   8.874  22.589   3.750
61050W        W29468  15.662  36.964   0.841
61051W        W29469  41.038  29.967   2.356
61052W        W29470  36.410  17.175  10.437
61053W        W29471  28.526  10.763   0.425
61054W        W29472  37.968  18.128   0.734
61055W        W29473  28.517  29.617  10.427
61056W        W29474   1.895  14.134  11.876
61057W        W29475  37.396   7.837   3.709
61058W        W29476   2.934  15.232   1.354
61059W        W29477  25.986   6.748   4.774
61060W        W29478  30.134  16.227  13.060
61061W        W29479   7.791  13.645   1.215
61062W        W29480  13.632   5.424   2.206
61063W        W29481  37.461   7.180  12.845
61064W        W29482  38.462  13.347  13.012
61065W        W29483  13.293  34.040   1.322
61066W        W29484  32.409   6.909  11.005
61067W        W29485  19.539  42.487   2.360
61068W        W29486  11.826  12.141  12.878
61069W        W29487  44.343   4.317   0.767
61070W        W29488  33.435   1.757  13.380
61071W        W29489   8.359   1.921  10.907
61072W        W29490   6.700   4.835   3.240
61073W        W29491  18.653   2.442  10.953
61074W        W29492  39.549  33.036   2.682
61075W        W29493  40.993   1.772  11.038
61076W        W29494   0.797  42.912  11.001
61077W        W29495  15.628  18.706  14.340
61078W        W29496  15.097   7.889  12.916
61079W        W29497  19.091  39.995  14.881
61080W        W29498  38.024  39.929   4.712
61081W        W29499  20.705  31.517  11.995
61082W        W29500  24.212   9.199   1.860
61083W        W29501  24.194   0.448   2.690
61084W        W29502   4.835  26.093  13.866
61085W        W29503  31.480  42.884  13.799
61086W        W29504  15.781   8.307  11.434
61087W        W29505  14.310   6.807   2.356
61088W        W29506  24.057   4.870   5.130
61089W        W29507  21.598  19.205   3.202
61090W        W29508  21.720  11.321   2.744
61091W        W29509  37.457  28.629  10.620
61092W        W29510   8.197  21.052   4.348
61093W        W29511  42.473  28.028   2.195
61094W        W29512   0.876   1.262   0.931
61095W        W29513  28.530  15.231  12.995
61096W        W29514  36.045   7.905  11.480
61097W        W29515  32.068   0.856   3.253
61098W        W29516  33.384  21.123  13.534
61099W        W29517  44.831  43.482  12.357
61100W        W29518  33.973  37.845  13.830
61101W        W29519  18.737  29.527   3.699
61102W        W29520  19.238   7.350   0.750
61103W        W29521  23.538  14.738  11.464
61104W        W29522  37.489   5.714   4.836
61105W        W29523   3.230  29.024   3.351
61106W        W29524   8.264   8.852   2.684
61107W        W29525  38.032  40.480   0.479
61108W        W29526   6.354  27.179  14.918
61109W        W29527  39.000  35.956  11.418
61110W        W29528  25.559  34.465  14.835
61111W        W29529  32.554  43.784  11.024
61112W        W29530  19.559  38.919  10.144
61113W        W29531  15.779  16.255  10.969
61114W        W29532  19.155  31.979   2.837
61115W        W29533  29.174  27.074   3.635
61116W        W29534   8.838  10.761  13.434
61117W        W29535  34.398  13.123  14.434
61118W        W29536  35.930  32.557   0.741
61119W        W29537  24.609  23.657  10.545
61120W        W29538  13.244  31.424   4.331
61121W        W29539   1.739   6.848   2.862
61122W        W29540  39.538   0.436  14.839
61123W        W29541  31.090  17.672  10.909
61124W        W29542  29.450  26.567  14.385
61125W        W29543  21.070  29.142  13.830
61126W        W29544  20.032  21.120  11.553
61127W        W29545  40.957  11.744  12.474
61128W        W29546  22.642  31.957  11.598
61129W        W29547  17.238   6.694   1.350
61130W        W29548  24.481  24.004  11.406
61131W        W29549  12.355  43.839   4.707
61132W        W29550  31.059  11.201   4.703
61133W        W29551   6.681  28.092   0.479
61134W        W29552   6.302   3.366  12.919
61135W        W29553  41.398  29.600  10.499
61136W        W29554  43.012   2.407   5.132
61137W        W29555  26.638  14.602  13.516
61138W        W29556   8.753  24.063   2.283
61139W        W29557  13.120   1.878   3.348
61140W        W29558  35.992   2.956   3.338
61141W        W29559  29.102  23.070  12.005
61142W        W29560  20.251   6.721  12.878
61143W        W29561  23.128  28.980   0.382
61144W        W29562  27.540  15.603   1.802
61145W        W29563   9.761  40.484   2.691
61146W        W29564  24.030  26.562  13.009
61147W        W29565   6.711  11.229  11.409
61148W        W29566  16.790   7.680   4.173
61149W        W29567  11.367  11.148   4.319
61150W        W29568   6.343  39.957  12.987
61151W        W29569  29.532  33.550   4.116
61152W        W29570  12.279  30.496   0.334
61153W        W29571   2.272   8.842  13.381
61154W        W29572  43.882  25.689   1.705
61155W        W29573   1.738  28.499   0.244
61156W        W29574  11.722  38.376  10.546
61157W        W29575  31.633  32.040   4.290
61158W        W29576   9.880   9.652  13.428
61159W        W29577  26.080   7.830   1.862
61160W        W29578  15.330   5.898   4.835
61161W        W29579  26.061  25.609  11.056
61162W        W29580  33.588  19.613   1.864
61163W        W29581  10.242  19.616  14.488
61164W        W29582  25.506  30.002   3.723
61165W        W29583  20.133   0.376   3.778
61166W        W29584   7.673   7.352   2.209
61167W        W29585  11.199  20.603   2.215
61168W        W29586  42.488  35.419   4.733
61169W        W29587  20.758  41.534   4.658
61170W        W29588  31.118  29.104  13.494
61171W        W29589  12.712  21.194  11.510
61172W        W29590  12.851  15.176  13.532
61173W        W29591  44.373  12.793   4.652
61174W        W29592   1.376  15.764  10.935
61175W        W29593  29.064  31.103  10.480
61176W        W29594   7.716  36.587   4.685
61177W        W29595  36.395  42.896   2.217
61178W        W29596  17.068  30.475   4.646
61179W        W29597  39.907  11.134   0.838
61180W        W29598  43.795  24.000   1.359
61181W        W29599  29.110   7.901   2.378
61182W        W29600  20.725   2.345  14.961
61183W        W29601  16.073  20.768  13.022
61184W        W29602  14.756  20.661  13.458
61185W        W29603   9.755   0.813  12.514
61186W        W29604  34.111  14.612   0.362
61187W        W29605  28.529  43.800   2.179
61188W        W29606  11.290  34.485  11.061
61189W        W29607  10.151  41.829  10.514
61190W        W29608   1.319   8.696   1.391
61191W        W29609  26.650  35.876   2.228
61192W        W29610  35.953   6.709   1.849
61193W        W29611  27.066  32.531  11.987
61194W        W29612  13.327  28.514  10.602
61195W        W29613  37.043  35.106  13.866
61196W        W29614  12.285  31.477   0.810
61197W        W29615  43.301  14.773   5.762
61198W        W29616  20.729  17.227  11.485
61199W        W29617   4.770  22.199  11.564
61200W        W29618  44.458  18.698   4.354
61201W        W29619   5.723  10.371  11.977
61202W        W29620  34.399  35.459  14.438
61203W        W29621   5.194  30.075  12.970
61204W        W29622   5.351  16.754   4.117
61205W        W29623  21.101   8.828   1.264
61206W        W29624  22.573  26.140   0.813
61207W        W29625  24.724  31.000   2.680
61208W        W29626  12.756   0.783  14.507
61209W        W29627  35.908   4.916   2.860
61210W        W29628  17.736  10.745  13.309
61211W        W29629  29.487   8.271   2.370
61212W        W29630   7.340  33.119   3.225
61213W        W29631  17.061   8.665  14.408
61214W        W29632  10.354   9.651   4.315
61215W        W29633  20.039  18.175  14.377
61216W        W29634  18.609  31.457   3.305
61217W        W29635  18.071  42.359  11.570
61218W        W29636   4.350  39.350   1.380
61219W        W29637  21.077  35.886  10.031
61220W        W29638  22.683  10.693  11.400
61221W        W29639  27.165   9.887   2.663
61222W        W29640  17.578  21.209  12.963
61223W        W29641   9.164  42.958   0.357
61224W        W29642  32.119  23.068  14.428
61225W        W29643  33.125   9.861   0.455
61226W        W29644  25.161  25.574  10.484
61227W        W29645  34.444  27.014   0.822
61228W        W29646   1.768  23.097  14.872
61229W        W29647  39.036  44.424  14.944
61230W        W29648  16.283  44.436   0.267
61231W        W29649  22.681  32.946  11.891
61232W        W29650  16.779  11.861   3.696
61233W        W29651   0.839  23.080  11.982
61234W        W29652   2.924  32.608   2.884
61235W        W29653  16.794  43.359   1.360
61236W        W29654  23.191  43.952  12.563
61237W        W29655  15.092  29.580   1.427
61238W        W29656  22.654  21.550  12.071
61239W        W29657  31.112  10.359  12.010
61240W        W29658  16.797  43.467  13.817
61241W        W29659  43.873   1.347  12.456
61242W        W29660   9.378   6.711  13.381
61243W        W29661  10.298  41.937   1.286
61244W        W29662  32.134  12.272   4.314
61245W        W29663  19.165  24.508  13.397
61246W        W29664  39.844  17.635   4.633
61247W        W29665   6.762   6.378   4.683
61248W        W29666  31.922  27.640   2.267
61249W        W29667  24.698  10.827   0.463
61250W        W29668  11.813  21.201   5.151
61251W        W29669  16.279   3.756   2.897
61252W        W29670  11.215   2.901   0.344
61253W        W29671  43.965  15.767  13.934
61254W        W29672   1.936  36.875   0.857
61255W        W29673  13.245   6.706   0.365
61256W        W29674  10.309   8.836  14.348
61257W        W29675  17.165   0.878  11.072
61258W        W29676  38.967  25.491   9.960
61259W        W29677   8.210  23.586  14.833
61260W        W29678  23.628  10.309   3.849
61261W        W29679  31.488  15.232   3.179
61262W        W29680  21.251  21.663   2.831
61263W        W29681  15.782  39.969  14.417
61264W        W29682  37.857  25.038   5.312
61265W        W29683  15.141  37.364   0.874
61266W        W29684  13.261  14.144  10.089
61267W        W29685  33.471   2.820   4.332
61268W        W29686  44.356  12.788  11.403
61269W        W29687  30.431  27.028  10.568
61270W        W29688  25.588  19.540  14.901
61271W        W29689  42.371  11.284  10.928
61272W        W29690  33.514  44.261   4.673
61273W        W29691  36.991  43.857   2.720
61274W        W29692   3.803   3.219   4.640
61275W        W29693  14.298  13.106  11.511
61276W        W29694  20.582  17.274  13.489
61277W        W29695  21.516  43.942  11.998
61278W        W29696  37.985  43.904   2.182
61279W        W29697  41.495  42.846  12.835
61280W        W29698   0.359  13.629  10.950
61281W        W29699  21.250   4.858  10.152
61282W        W29700  41.867  36.924  13.432
61283W        W29701  31.927  25.108   3.705
61284W        W29702   5.375  19.751   3.347
61285W        W29703   5.288  40.366   2.872
61286W        W29704  37.582  20.137   0.957
61287W        W29705  27.490  29.098   4.835
61288W        W29706  16.660  44.435   4.141
61289W        W29707  39.529  35.013   0.464
61290W        W29708  15.253   5.260   0.825
61291W        W29709   2.811  40.909   4.294
61292W        W29710   3.427  36.079   4.318
61293W        W29711   6.207   2.245  14.481
61294W        W29712   9.202  24.532   1.723
61295W        W29713  40.525   1.310   1.890
61296W        W29714   1.324   2.952  11.541
61297W        W29715  42.812  24.982   2.334
61298W        W29716  28.041  22.526  11.951
61299W        W29717  31.597  42.847  11.372
61300W        W29718  21.733  26.953  12.401
61301W        W29719  40.466   3.227   1.431
61302W        W29720  38.394   8.254  14.955
61303W        W29721  28.957  36.905   3.153
61304W        W29722  26.531  29.071  12.355
61305W        W29723  42.935  24.029   0.887
61306W        W29724  25.553  24.570  13.991
61307W        W29725  42.506  30.002   4.245
61308W        W29726  24.170  17.765  10.455
61309W        W29727   9.763   3.732  12.015
61310W        W29728  26.152  30.564   4.197
61311W        W29729  23.056  44.901   2.386
61312W        W29730  16.138  26.978   4.620
61313W        W29731  14.747   4.400  13.795
61314W        W29732  14.244  39.057  11.118
61315W        W29733  36.932  24.186  10.512
61316W        W29734  34.422   2.730   3.693
61317W        W29735  18.085   2.230   0.371
61318W        W29736  31.563  35.854  12.857
61319W        W29737   0.268  34.091  11.937
61320W        W29738  24.508  15.206   4.190
61321W        W29739   6.707  41.479  10.624
61322W        W29740  11.689  25.004   1.387
61323W        W29741   8.801   8.737  12.879
61324W        W29742  10.708  23.113  14.492
61325W        W29743  41.883   5.787  12.049
61326W        W29744  31.561   5.391  10.456
61327W        W29745  30.966  37.498   1.278
61328W        W29746  18.671   0.434   2.245
61329W        W29747   1.255   6.847   2.673
61330W        W29748  12.207  40.522  14.761
61331W        W29749  30.973   7.277   3.218
61332W        W29750  16.305  21.059   3.274
61333W        W29751  15.809  34.894  10.988
61334W        W29752   3.407   3.910   3.207
61335W        W29753   0.473  28.096   4.642
61336W        W29754  41.450   8.313   2.275
61337W        W29755   3.732  22.555   3.799
61338W        W29756  18.771  30.632  10.535
61339W        W29757  29.580  31.922   3.639
61340W        W29758  38.451  35.014  10.466
61341W        W29759  39.876   3.863   3.333
61342W        W29760  34.502   1.970   1.873
61343W        W29761  37.466  13.764   2.269
61344W        W29762   7.260  42.893  12.920
61345W        W29763  40.334  31.584  14.004
61346W        W29764  36.469  26.540   4.689
61347W        W29765   3.731   5.817   2.726
61348W        W29766  24.994   6.758  11.376
61349W        W29767  21.633  16.182  12.920
61350W        W29768   1.775  16.649  12.094
61351W        W29769  31.581  12.786   4.270
61352W        W29770  18.667  41.502   5.088
61353W        W29771   4.922  31.464   1.872
61354W        W29772  30.415  23.710   3.175
61355W        W29773   6.406  25.977  12.406
61356W        W29774  20.754  27.141  14.429
61357W        W29775  41.302   3.797  11.499
61358W        W29776  11.149  17.612   1.928
61359W        W29777  24.486  39.471   2.294
61360W        W29778  22.138   8.736  12.857
61361W        W29779   1.900  17.290  12.443
61362W        W29780   8.694  37.562   0.313
61363W        W29781  27.099  43.338  11.049
61364W        W29782  40.539  28.178  10.963
61365W        W29783  26.115  10.251   0.334
61366W        W29784   3.305  33.069   0.784
61367W        W29785   8.790  26.598  11.070
61368W        W29786  33.093  27.677   2.735
61369W        W29787  14.285  40.031   3.821
61370W        W29788   7.828  24.152   2.734
61371W        W29789  15.649  20.597  11.953
61372W        W29790  15.805  12.613   0.379
61373W        W29791  42.894  18.200  12.837
61374W        W29792   0.813  24.651   3.169
61375W        W29793  11.767  23.209   0.480
61376W        W29794   1.425  15.163   2.813
61377W        W29795   8.342  23.023   2.358
61378W        W29796   5.824  28.573   1.887
61379W        W29797  12.351  28.163  11.587
61380W        W29798   8.387   3.774  10.609
61381W        W29799  11.193  12.154   4.687
61382W        W29800  27.988  35.384   1.313
61383W        W29801   0.427   7.360  11.992
61384W        W29802   9.194  20.080   3.692
61385W        W29803  31.550  36.042   3.862
61386W        W29804   0.850  39.513  13.475
61387W        W29805  36.395  19.572   0.955
61388W        W29806  24.557  18.185   0.336
61389W        W29807  11.691  33.585   4.124
61390W        W29808  34.864  32.057   0.322
61391W        W29809  13.704  15.693   2.794
61392W        W29810   2.966  12.639  14.779
61393W        W29811  42.961  31.976  13.420
61394W        W29812  17.677  39.995   4.163
61395W        W29813   7.817   2.446   1.828
61396W        W29814  38.330   8.361   3.234
61397W        W29815   7.738  36.855   3.771
61398W        W29816  32.092  23.235   0.767
61399W        W29817  31.094  44.861   0.405
61400W        W29818  27.984   5.845   3.230
61401W        W29819  24.512  28.187  13.414
61402W        W29820  21.188  38.849   9.963
61403W        W29821  33.593  24.999  10.609
61404W        W29822  14.779   8.823  14.858
61405W        W29823  18.187  28.087  11.384
61406W        W29824  29.965  27.120   4.611
61407W        W29825  16.131  33.095   2.375
61408W        W29826  22.681  15.649  10.050
61409W        W29827  26.981  11.626  12.064
61410W        W29828   3.323  37.049  13.379
61411W        W29829  23.219  32.407   4.164
61412W        W29830  33.624  22.603  14.914
61413W        W29831  10.139   2.419  13.795
61414W        W29832   7.873  12.261  13.426
61415W        W29833   8.743   2.415   0.878
61416W        W29834  32.941  20.619   0.259
61417W        W29835  10.208   7.885   1.263
61418W        W29836  15.705  15.614  10.407
61419W        W29837  35.097  30.128   4.300
61420W        W29838  11.214  40.537  12.430
61421W        W29839  43.886  40.384  10.084
61422W        W29840   4.339  28.120   3.222
61423W        W29841  41.043  43.432   1.392
61424W        W29842   2.790  32.121  12.068
61425W        W29843   6.867   3.777   4.647
61426W        W29844  11.136   9.238   4.135
61427W        W29845  37.401  21.171   1.364
61428W        W29846  30.529  41.401  13.987
61429W        W29847   7.749  42.010   4.609
61430W        W29848  27.064  23.585  12.538
61431W        W29849  40.838  17.062  11.964
61432W        W29850  10.376  12.849   2.670
61433W        W29851  35.482  40.976   0.836
61434W        W29852   6.883  15.772  11.380
61435W        W29853  22.582  17.701  13.959
61436W        W29854  11.853  33.043  14.952
61437W        W29855  39.468  43.770   0.383
61438W        W29856  22.530   7.707   2.195
61439W        W29857  44.452  19.612  10.134
61440W        W29858  38.479   6.281   4.623
61441W        W29859  20.588  39.009   5.139
61442W        W29860  21.696  27.677  13.037
61443W        W29861  15.796  10.239   0.749
61444W        W29862   1.397  11.670   3.683
61445W        W29863  14.680   4.435  10.538
61446W        W29864  11.805  28.469  12.829
61447W        W29865  23.733   3.223   0.752
61448W        W29866  31.490  24.615  13.025
61449W        W29867   1.906  36.896  10.476
61450W        W29868  29.561  28.596  14.997
61451W        W29869   2.763  16.574   1.413
61452W        W29870   9.240  28.485  10.908
61453W        W29871  11.184  38.879   1.694
61454W        W29872  19.283  27.663  11.054
61455W        W29873  19.705   5.710  12.550
61456W        W29874  31.644  30.468  13.008
61457W        W29875   5.416  15.261   1.751
61458W        W29876  20.657  21.175   4.612
61459W        W29877  42.020  15.211  11.957
61460W        W29878  19.135  43.833   1.715
61461W        W29879  41.533  17.270   0.749
61462W        W29880  16.270  35.055  10.067
61463W        W29881  35.953  32.399  11.495
61464W        W29882  37.994   5.830   1.315
61465W        W29883  23.659   8.743  13.546
61466W        W29884   6.200  20.713  10.482
61467W        W29885   4.835   4.808  14.892
61468W        W29886   2.373  30.486  13.497
61469W        W29887  14.653  17.584  11.883
61470W        W29888  27.174  37.426  13.441
61471W        W29889  28.961  25.674  12.082
61472W        W29890   0.469   3.723   1.218
61473W        W29891  19.153  15.258   0.404
61474W        W29892  23.655  16.307  10.894
61475W        W29893   2.795  43.492  12.438
61476W        W29894  42.885  32.886   4.209
61477W        W29895  40.499  34.544   0.361
61478W        W29896   5.374  34.546   4.691
61479W        W29897  20.605  26.650  11.096
61480W        W29898  15.736  10.757  13.908
61481W        W29899  22.504  40.414  10.582
61482W        W29900  16.116   6.427   3.291
61483W        W29901  25.611   7.842  14.880
61484W        W29902  13.306   8.292   1.905
61485W        W29903  16.576  22.513  12.085
61486W        W29904  33.552  36.449   2.409
61487W        W29905  15.151  16.152  14.353
61488W        W29906  43.467  33.068  10.472
61489W        W29907  14.607  36.909  14.901
61490W        W29908  15.619  27.054   1.212
61491W        W29909  36.915  44.783  11.563
61492W        W29910   4.231   3.736  10.416
61493W        W29911  42.887   7.230  14.464
61494W        W29912  28.528   6.765   2.237
61495W        W29913  36.953  34.508   4.750
61496W        W29914  12.150  22.997   3.297
61497W        W29915   8.312  16.141  10.404
61498W        W29916  32.065  18.088  12.896
61499W        W29917   8.316  10.166  13.475
61500W        W29918  15.737  41.416  12.381
61501W        W29919  11.687  38.396   3.340
61502W        W29920  26.528  38.848  14.385
61503W        W29921  39.809   9.248  13.380
61504W        W29922   5.382  32.115  14.960
61505W        W29923   6.889  32.913   4.640
61506W        W29924   9.368   9.214   4.255
61507W        W29925   1.932  39.367  13.056
61508W        W29926  23.691  31.964  14.363
61509W        W29927  23.668   0.421   1.804
61510W        W29928  32.515  39.514   1.389
61511W        W29929   4.820  37.933   1.387
61512W        W29930  30.021  40.543   3.342
61513W        W29931   7.771  41.468   3.188
61514W        W29932  33.979   0.983   2.268
61515W        W29933  30.465   2.352   1.822
61516W        W29934  20.740  42.322   3.632
61517W        W29935  11.675  30.506   2.221
61518W        W29936  21.538  22.634   3.306
61519W        W29937  23.663  43.294  11.433
61520W        W29938   8.788  24.517  13.975
61521W        W29939  21.055   9.238  11.423
61522W        W29940  30.039   1.340   1.383
61523W        W29941   9.295  35.361   3.819
61524W        W29942   5.856  18.662  12.895
61525W        W29943  42.999  41.475   1.383
61526W        W29944  40.532  39.452  13.984
61527W        W29945  24.173  22.565  13.963
61528W        W29946  20.090  29.923  12.924
61529W        W29947  40.971  35.987   4.312
61530W        W29948  11.624  23.722   9.953
61531W        W29949  24.635  25.043   4.282
61532W        W29950   8.686  40.839  11.980
61533W        W29951  27.673  16.093   2.819
61534W        W29952   4.843  10.309  13.480
61535W        W29953  15.613  23.116  13.872
61536W        W29954   7.301  27.525   4.807
61537W        W29955   7.239  30.420   1.367
61538W        W29956  39.954  26.672   3.350
61539W        W29957  43.273  33.525  12.544
61540W        W29958   8.194   0.323   1.242
61541W        W29959  31.434  19.237   4.792
61542W        W29960  13.653  31.003   0.743
61543W        W29961   9.788  43.475   0.311
61544W        W29962  33.040  18.190   2.790
61545W        W29963  19.171  11.218   9.971
61546W        W29964  21.206  35.965   4.642
61547W        W29965  32.561  41.858  12.364
61548W        W29966  17.641   9.151   1.449
61549W        W29967  20.074  37.045  12.985
61550W        W29968  26.013  10.872   1.696
61551W        W29969  38.492   4.406   4.754
61552W        W29970  32.107  10.740   2.400
61553W        W29971  15.599  38.358   4.790
61554W        W29972  16.276  30.481   4.667
61555W        W29973  22.635  28.141  14.335
61556W        W29974  30.148  40.991   4.615
61557W        W29975  14.126  31.433   2.683
61558W        W29976  36.469   6.391  12.959
61559W        W29977   1.403  35.550  12.051
61560W        W29978   5.330  10.796  12.040
61561W        W29979  26.116  12.840   4.228
61562W        W29980  34.076   3.828   3.799
61563W        W29981   4.935  18.781  12.435
61564W        W29982  12.278  24.190  14.340
61565W        W29983  34.034  23.163  14.491
61566W        W29984  21.255   3.221   1.797
61567W        W29985   8.283  26.680   3.364
61568W        W29986   9.205   4.357   4.142
61569W        W29987  10.250  37.512   1.920
61570W        W29988   2.402  44.499   2.365
61571W        W29989  25.485   4.704   1.804
61572W        W29990  41.369  43.910  14.329
61573W        W29991   0.406  31.974   1.740
61574W        W29992  17.191  32.929   2.711
61575W        W29993  20.708  28.034   1.226
61576W        W29994  17.594  22.137  12.941
61577W        W29995   8.734  32.970   4.652
61578W        W29996  15.770  39.046  14.497
61579W        W29997  34.886  29.128   1.695
61580W        W29998   4.265  11.747   0.860
61581W        W29999  31.639  30.917  10.933
61582W        W30000  29.175  42.312   0.406
61583W        W30001  23.114   4.357   1.294
61584W        W30002  16.796  11.266   4.282
61585W        W30003  19.080  20.620   2.720
61586W        W30004  35.010   4.861   3.186
61587W        W30005  41.378  12.631   0.429
61588W        W30006  40.346  42.441  13.337
61589W        W30007  25.209  24.198  13.323
61590W        W30008  41.476  35.496  10.619
61591W        W30009  17.267  40.392  13.317
61592W        W30010  21.234  11.302   2.263
61593W        W30011   2.396  17.158   1.412
61594W        W30012  27.666  21.753  10.643
61595W        W30013   2.910  25.999   2.301
61596W        W30014  30.060  43.371  11.979
61597W        W30015  13.188   9.852   2.737
61598W        W30016   9.170  39.417  13.919
61599W        W30017  44.811   4.230   4.713
61600W        W30018   1.377  32.577  13.827
61601W        W30019   9.225   4.934   3.171
61602W        W30020  41.837  16.172  12.564
61603W        W30021  10.326  21.543   1.768
61604W        W30022   0.845  37.505   1.408
61605W        W30023   3.914  33.482  10.420
61606W        W30024  30.420  22.243  12.061
61607W        W30025  19.570  32.474   4.116
61608W        W30026  26.065  24.509   4.618
61609W        W30027  12.718  16.150   3.777
61610W        W30028  26.087   4.826   2.762
61611W        W30029   2.385  22.656  11.466
61612W        W30030  18.715  30.551   4.730
61613W        W30031  29.007  21.656   4.147
61614W        W30032   2.878  32.102  12.835
61615W        W30033   7.874  16.595  13.470
61616W        W30034  33.122  17.165  10.541
61617W        W30035  43.788  38.498  10.964
61618W        W30036   9.867  19.057  14.499
61619W        W30037   5.289  38.390   2.874
61620W        W30038  29.936  10.801   4.330
61621W        W30039  22.038  22.056   0.451
61622W        W30040   6.413  44.499   0.816
61623W        W30041  14.711  23.093   4.217
61624W        W30042  22.549  34.054   2.371
61625W        W30043   9.764  22.610   2.717
61626W        W30044   7.284  35.008  10.467
61627W        W30045   7.882  13.169  14.375
61628W        W30046   5.695  18.189  14.414
61629W        W30047  44.761  43.462  14.777
61630W        W30048  15.234   3.826  12.485
61631W        W30049  21.110  40.816   0.737
61632W        W30050  21.542  33.055   4.706
61633W        W30051   5.707  40.303   2.684
61634W        W30052  39.977  41.297  13.953
61635W        W30053   7.408  26.997  13.032
61636W        W30054   9.818  26.018   0.455
61637W        W30055   9.646  10.201  11.513
61638W        W30056  27.453  15.620  14.492
61639W        W30057   9.221  19.128  13.882
61640W        W30058   8.246   8.875  10.459
61641W        W30059  37.475  32.910   2.854
61642W        W30060  38.488  14.761   1.784
61643W        W30061  19.097  17.066  10.582
61644W        W30062  11.257  40.445   0.267
61645W        W30063  39.522  20.666   0.284
61646W        W30064  40.805  25.655   4.667
61647W        W30065   6.294  29.632   2.751
61648W        W30066  11.760  22.069   2.744
61649W        W30067  40.342  20.722   0.345
61650W        W30068  36.592  14.140   2.279
61651W        W30069  19.599  41.830  10.927
61652W        W30070   2.305  27.625   1.387
61653W        W30071  19.063  21.108   3.164
61654W        W30072  44.868  18.277   1.694
61655W        W30073  30.003  15.318   4.155
61656W        W30074   4.340  16.154   1.829
61657W        W30075  30.944  19.715  13.428
61658W        W30076  41.955  32.544  12.392
61659W        W30077   9.747  44.920   1.283
61660W        W30078   3.408  15.137   2.375
61661W        W30079   0.891  16.741  12.956
61662W        W30080  29.147  11.240  11.480
61663W        W30081  34.093  28.640   2.393
61664W        W30082  22.025  19.725  13.433
61665W        W30083   5.223  35.914   4.154
61666W        W30084  36.081  13.734  14.965
61667W        W30085  26.668  40.916   4.640
61668W        W30086   0.837  40.385  12.829
61669W        W30087  18.688   7.247   3.801
61670W        W30088  38.519  27.646   2.747
61671W        W30089  43.837  41.829  11.609
61672W        W30090  27.605   4.845  13.308
61673W        W30091  39.536  23.042   0.414
61674W        W30092   0.415  40.807  13.387
61675W        W30093  23.173  43.013  13.940
61676W        W30094  31.581  38.890   4.245
61677W        W30095  41.297  21.587  14.002
61678W        W30096  22.746  18.167  10.626
61679W        W30097   8.796  40.993  14.787
61680W        W30098  11.819  35.462   2.241
61681W        W30099  20.158  19.554   3.236
61682W        W30100   5.369   8.849   2.373
61683W        W30101  14.796  41.940  11.503
61684W        W30102  21.247   6.904  13.354
61685W        W30103   4.808  15.223   1.234
61686W        W30104   6.897   4.368   3.165
61687W        W30105  18.688  38.020   0.408
61688W        W30106  30.481   0.764  11.973
61689W        W30107  30.478  18.127  11.127
61690W        W30108  16.228  37.043   3.201
61691W        W30109  32.945  20.078  10.409
61692W        W30110  23.066  22.115   3.172
61693W        W30111  17.587  36.365   1.394
61694W        W30112   9.742  20.274  13.038
61695W        W30113   7.862  16.668   1.795
61696W        W30114  10.638  29.035  14.354
61697W        W30115  32.545  43.994  14.298
61698W        W30116  26.591  26.507   2.180
61699W        W30117  32.086  43.870  12.555
61700W        W30118  35.039  27.998  11.085
61701W        W30119  16.282   9.778  12.498
61702W        W30120   6.278  32.043  10.430
61703W        W30121  38.879  10.254  12.920
61704W        W30122  17.290  42.018  13.329
61705W        W30123   8.245   9.380   1.839
61706W        W30124  43.782  15.285  12.975
61707W        W30125  34.424  44.329  12.004
61708W        W30126  20.561  36.975  11.412
61709W        W30127   4.908  43.403  11.917
61710W        W30128   6.303  23.133  13.346
61711W        W30129   2.269   7.745  11.534
61712W        W30130  18.621   7.757   1.724
61713W        W30131   9.201  27.490   4.829
61714W        W30132  29.584  16.690  13.045
61715W        W30133  37.992  44.365  11.855
61716W        W30134  35.549  18.714   4.294
61717W        W30135  20.684  24.103  13.983
61718W        W30136  29.148  31.026  14.943
61719W        W30137  24.714  26.629  11.540
61720W        W30138  44.378   5.913   3.322
61721W        W30139  27.486  10.141  10.635
61722W        W30140  31.133  34.085  10.908
61723W        W30141   4.397  29.092  13.368
61724W        W30142   0.346   4.698   0.953
61725W        W30143  43.306  33.927  12.958
61726W        W30144  37.527  14.338   2.867
61727W        W30145  20.561  22.144  10.463
61728W        W30146  40.338  20.534  14.932
61729W        W30147  18.700  27.659  14.007
61730W        W30148  28.481  26.025  11.454
61731W        W30149  41.498   5.919  12.870
61732W        W30150  37.477   6.886  14.429
61733W        W30151  22.209  26.075   3.238
61734W        W30152   7.733  30.441   2.862
61735W        W30153   6.227  25.488   2.712
61736W        W30154  42.350  43.273   2.792
61737W        W30155  18.244  23.220  12.057
61738W        W30156  10.145  42.011   0.431
61739W        W30157  34.899  35.565  12.524
61740W        W30158  19.573  16.127  13.898
61741W        W30159  31.492  42.894   0.251
61742W        W30160  44.759  36.077   3.354
61743W        W30161   2.923   3.228  14.798
61744W        W30162  24.607   1.422  14.378
61745W        W30163  18.760  41.830  13.384
61746W        W30164  18.112  29.163  14.283
61747W        W30165  18.551   2.752   2.798
61748W        W30166   5.693  39.545  12.340
61749W        W30167  37.877  43.018   3.650
61750W        W30168  10.182   5.296   3.277
61751W        W30169   3.927   5.928   3.761
61752W        W30170  26.688  16.309  13.548
61753W        W30171   9.668   7.207  12.367
61754W        W30172  42.854  39.477   0.906
61755W        W30173  21.216  42.465  13.419
61756W        W30174  31.936   1.251   1.765
61757W        W30175  11.348   2.793  10.929
61758W        W30176  17.185  30.991   3.156
61759W        W30177  36.452  13.655  14.856
61760W        W30178   7.860  12.231  13.870
61761W        W30179  16.718  11.303   3.324
61762W        W30180  18.081  12.312  10.916
61763W        W30181  27.664   9.672  10.934
61764W        W30182  26.091  11.193  13.488
61765W        W30183  13.178  11.758  12.501
61766W        W30184  10.182  37.060   3.303
61767W        W30185   4.806  10.152   5.207
61768W        W30186  22.119  41.039  14.886
61769W        W30187  19.665  43.335  14.951
61770W        W30188  24.660  29.035   2.900
61771W        W30189  33.467  15.591   3.328
61772W        W30190  28.053  33.979  14.946
61773W        W30191  25.655  14.735  11.059
61774W        W30192  31.000  37.471   5.275
61775W        W30193  26.002  34.056   0.321
61776W        W30194   3.891  17.109  10.554
61777W        W30195  24.531   2.895   0.416
61778W        W30196   1.936  16.591  13.813
61779W        W30197   7.239  23.204  14.021
61780W        W30198  18.067  37.830   3.642
61781W        W30199   9.221   8.868  10.558
61782W        W30200  40.986  44.393   4.323
61783W        W30201  22.192  22.065   4.652
61784W        W30202   2.853   7.374  10.550
61785W        W30203  25.191   5.437   0.442
61786W        W30204   9.153  43.908  13.947
61787W        W30205   6.771  25.596  12.921
61788W        W30206   0.945   6.382  12.956
61789W        W30207  29.491  25.021   4.294
61790W        W30208  26.060   9.354   1.755
61791W        W30209   7.889  14.731   0.464
61792W        W30210  35.367  12.271   0.836
61793W        W30211   7.362  34.478  12.843
61794W        W30212  29.984  38.509  13.481
61795W        W30213   6.792   9.162   4.222
61796W        W30214  13.202  17.070  10.440
61797W        W30215   0.788  21.735   4.346
61798W        W30216  20.611  32.409   3.352
61799W        W30217   3.371  23.596  10.975
61800W        W30218  25.087  18.141  14.896
61801W        W30219  28.004  32.964  11.890
61802W        W30220  39.988  19.086   0.792
61803W        W30221  43.770  29.583   4.119
61804W        W30222  42.366  12.195  12.026
61805W        W30223  28.107   6.857   3.284
61806W        W30224  22.707  31.043  14.971
61807W        W30225  12.778  41.025   1.914
61808W        W30226  31.135  32.442  12.992
61809W        W30227  23.123  35.944   1.890
61810W        W30228  34.545  39.898   0.473
61811W        W30229   8.799  11.297  11.385
61812W        W30230  11.158  29.446  10.905
61813W        W30231  24.052  42.902  12.450
61814W        W30232  11.240  15.604  13.543
61815W        W30233  14.218  18.647  11.517
61816W        W30234  12.216  24.146   3.857
61817W        W30235  24.494   9.218   1.892
61818W        W30236  40.528  41.407  11.957
61819W        W30237  23.569  32.467   1.374
61820W        W30238  13.839  19.660  14.485
61821W        W30239   7.206  33.909  14.332
61822W        W30240   3.455   7.796   1.817
61823W        W30241  34.932   2.726   3.236
61824W        W30242  29.120  22.016  11.098
61825W        W30243  29.571  34.950   2.313
61826W        W30244  10.288  12.164   3.784
61827W        W30245  42.828  26.059  13.939
61828W        W30246  26.006  10.679  11.491
61829W        W30247   8.773  42.313   4.617
61830W        W30248  22.134   4.827   3.282
61831W        W30249   0.849   1.912  10.942
61832W        W30250   5.876  24.524   2.706
61833W        W30251  27.485  36.573  11.482
61834W        W30252  30.455  40.957   2.706
61835W        W30253  37.461  19.712  14.469
61836W        W30254  23.619  14.613  12.081
61837W        W30255   4.317  44.849   1.886
61838W        W30256   1.802  10.746  10.465
61839W        W30257  29.136  41.015  12.397
61840W        W30258  39.443  37.398   2.313
61841W        W30259  31.492   9.774   2.379
61842W        W30260  32.115   5.845   0.377
61843W        W30261  40.848  33.031  14.384
61844W        W30262   0.272  23.201   3.769
61845W        W30263   8.372  18.690   3.307
61846W        W30264  18.098  33.482   1.418
61847W        W30265  26.131   4.935  12.359
61848W        W30266   6.259  35.434   4.833
61849W        W30267  27.098   4.908   3.725
61850W        W30268  44.437  23.578   1.253
61851W        W30269   4.230  25.000  11.515
61852W        W30270   7.903  43.466  10.507
61853W        W30271  20.111  21.125  14.790
61854W        W30272  33.395  36.969  12.090
61855W        W30273  19.722  31.645  13.856
61856W        W30274  20.218  40.536  10.999
61857W        W30275   7.733   3.276   5.309
61858W        W30276  19.681  35.518  10.454
61859W        W30277  13.210   6.343  14.007
61860W        W30278   8.318  10.644   3.630
61861W        W30279  32.913   6.792  11.397
61862W        W30280  34.601  37.039   1.869
61863W        W30281  33.968  38.063   0.244
61864W        W30282  11.245  37.493  14.783
61865W        W30283  42.469  36.527  13.386
61866W        W30284   5.832  26.073   4.260
61867W        W30285  15.667  33.030  10.895
61868W        W30286  15.101  10.701   3.320
61869W        W30287  32.596   3.786  14.426
61870W        W30288  12.717  30.549  12.364
61871W        W30289  42.988  33.456   1.259
61872W        W30290  13.737  14.151  11.595
61873W        W30291  17.091  38.340   2.828
61874W        W30292  10.827  17.145   3.639
61875W        W30293  30.445  19.711  14.025
61876W        W30294  13.191   0.467  14.276
61877W        W30295  18.746   7.834  11.376
61878W        W30296  16.292  29.634   4.117
61879W        W30297   8.712  39.913  11.919
61880W        W30298  29.517  40.361  11.480
61881W        W30299  16.650  20.758  11.039
61882W        W30300  36.989  23.733  12.044
61883W        W30301  27.006  20.085   2.707
61884W        W30302   9.390  34.527   1.334
61885W        W30303  15.669  22.012  12.523
61886W        W30304  42.010  22.146  11.075
61887W        W30305   6.748  31.102   0.400
61888W        W30306  11.285  21.632  13.990
61889W        W30307   5.382  29.460   2.762
61890W        W30308  44.360  17.762   1.694
61891W        W30309  36.086  38.454   4.729
61892W        W30310  44.276  15.169   5.136
61893W        W30311  37.923   2.745   1.219
61894W        W30312  24.151   3.749  13.872
61895W        W30313  17.253  36.509   3.648
61896W        W30314  29.603  22.607  14.438
61897W        W30315  12.685  25.543   0.916
61898W        W30316   3.793   5.240  11.392
61899W        W30317  43.511  16.094  12.559
61900W        W30318   9.159  38.995  14.931
61901W        W30319   1.939  30.942  12.027
61902W        W30320  29.105  26.080  13.862
61903W        W30321  12.125  19.650   0.830
61904W        W30322  32.468  29.456   2.845
61905W        W30323   1.328   4.829   4.821
61906W        W30324  37.918  40.544  14.351
61907W        W30325  14.831  13.839  10.565
61908W        W30326   3.838  36.963  12.039
61909W        W30327  39.468  10.372   1.780
61910W        W30328  18.670  28.570   3.836
61911W        W30329  42.411  29.986  10.474
61912W        W30330  33.432  14.632  12.982
61913W        W30331  16.308   3.766  13.865
61914W        W30332  38.066   7.805  11.560
61915W        W30333  29.130  14.664   3.263
61916W        W30334   1.409  43.902   2.369
61917W        W30335   2.344  38.361  12.953
61918W        W30336  29.984   1.856   1.875
61919W        W30337  40.897   5.332  12.830
61920W        W30338  28.995  22.514  11.020
61921W        W30339   7.376  21.693   0.442
61922W        W30340  37.439  14.105   2.272
61923W        W30341  18.082  31.403   2.672
61924W        W30342  12.187  28.679   4.677
61925W        W30343  10.286  17.568   4.354
61926W        W30344  43.860  31.027   3.228
61927W        W30345  15.329   8.797   2.218
61928W        W30346  37.568  25.978  12.072
61929W        W30347  22.547  25.488  13.436
61930W        W30348  28.125   4.220  11.442
61931W        W30349  41.998  14.176   1.719
61932W        W30350   4.863  20.716   2.701
61933W        W30351  26.617  18.136   4.709
61934W        W30352  15.328  20.545   4.610
61935W        W30353  35.443  37.445   3.699
61936W        W30354  39.371  21.036  10.921
61937W        W30355  42.912  11.350   4.153
61938W        W30356  17.157   9.871   4.141
61939W        W30357  17.284  28.170  14.866
61940W        W30358  18.659  24.645   3.349
61941W        W30359  37.981  30.656   4.273
61942W        W30360  20.226  40.342   5.215
61943W        W30361  38.954  29.651   0.807
61944W        W30362  30.415  41.898  12.987
61945W        W30363  29.619  20.103  14.903
61946W        W30364  31.114   9.262  12.453
61947W        W30365   8.789  31.585  14.480
61948W        W30366   1.741  23.239   2.891
61949W        W30367  21.675  16.755   0.800
61950W        W30368   7.706   3.747  13.459
61951W        W30369   2.228   6.229  10.483
61952W        W30370  18.704  31.152  12.050
61953W        W30371  44.363  33.456   4.340
61954W        W30372  38.466  27.102  11.584
61955W        W30373  44.941  27.602  13.887
61956W        W30374  12.743  42.022  10.487
61957W        W30375  27.651  20.245  10.588
61958W        W30376   4.883  30.077   5.144
61959W        W30377  22.704  21.208   0.331
61960W        W30378  27.508  23.714  12.967
61961W        W30379   7.278  29.096  12.909
61962W        W30380  17.136  20.170   4.146
61963W        W30381  36.007  27.650  14.514
61964W        W30382   0.848  24.031  14.885
61965W        W30383  29.151  32.487   0.477
61966W        W30384   6.808  44.446   1.889
61967W        W30385   8.680   9.725  11.472
61968W        W30386  34.097   2.949  11.412
61969W        W30387  28.473  20.593  12.839
61970W        W30388  16.238   4.941   0.316
61971W        W30389  20.708  16.305   0.797
61972W        W30390  28.037  20.636  10.956
61973W        W30391   3.744  40.921   3.629
61974W        W30392  16.122  24.494   0.431
61975W        W30393   4.938   4.243   0.771
61976W        W30394  35.939   1.815   3.185
61977W        W30395  38.053  11.848  12.859
61978W        W30396  27.674  33.976   4.736
61979W        W30397  19.641   0.912   1.271
61980W        W30398  27.169  29.124  11.996
61981W        W30399  22.199  27.546   2.865
61982W        W30400  36.573  25.475  12.895
61983W        W30401  22.232  18.557   0.905
61984W        W30402   5.206  37.502   0.914
61985W        W30403  17.078  21.079   1.903
61986W        W30404  31.132  30.023  13.910
61987W        W30405  13.846  32.580  14.981
61988W        W30406  19.188  17.136   1.846
61989W        W30407   7.719  21.040   9.962
61990W        W30408  20.655  31.613  10.926
61991W        W30409  20.705  38.019   1.899
61992W        W30410   9.768  23.524   4.286
61993W        W30411  10.225  12.195  14.874
61994W        W30412  43.287   2.869   1.347
61995W        W30413  37.346  30.021  13.516
61996W        W30414  14.125  16.121  14.337
61997W        W30415  37.450   9.243   1.427
61998W        W30416   1.915  27.131  13.864
61999W        W30417  41.508  20.744  10.458
62000W        W30418  21.028   0.754   4.638
62001W        W30419   4.785   5.424  13.860
62002W        W30420  23.627  23.226  13.034
62003W        W30421  42.873   8.200  11.490
62004W        W30422  26.094  27.628  14.867
62005W        W30423   2.271  29.999   4.670
62006W        W30424   0.823  32.941   3.219
62007W        W30425   0.437  25.988  14.452
62008W        W30426  28.938   2.958  13.523
62009W        W30427  39.361   4.278  12.491
62010W        W30428  23.034  24.023  10.973
62011W        W30429  15.176  29.003   2.850
62012W        W30430  16.193  15.723   1.811
62013W        W30431  25.123   5.204  12.497
62014W        W30432  34.909  36.471  12.040
62015W        W30433  36.365   6.351   1.284
62016W        W30434  11.137  44.389   0.841
62017W        W30435   8.256   2.276   4.729
62018W        W30436  25.973   9.198  10.495
62019W        W30437   0.894  29.521  10.002
62020W        W30438  20.607  29.131   1.713
62021W        W30439  30.568  30.642   2.673
62022W        W30440   5.247  23.612  14.356
62023W        W30441  37.981  32.041   0.770
62024W        W30442  22.622  20.092   4.600
62025W        W30443  28.613   8.336  11.503
62026W        W30444   6.190  44.755   4.809
62027W        W30445  19.537  24.548  13.880
62028W        W30446  35.852  18.072  11.498
62029W        W30447   9.369  44.378  10.642
62030W        W30448  26.682  10.377   1.790
62031W        W30449  35.549  11.279  13.866
62032W        W30450   6.257  42.788   3.662
62033W        W30451  19.542  14.177  13.351
62034W        W30452  40.543  24.043  12.419
62035W        W30453   0.968   2.795  14.301
62036W        W30454  44.795  21.667   0.858
62037W        W30455   5.415  24.698   3.335
62038W        W30456   1.751  42.493   0.956
62039W        W30457  33.516  15.149   4.179
62040W        W30458  14.675   7.820  11.003
62041W        W30459  43.913  22.162  14.345
62042W        W30460   4.237   1.344   1.896
62043W        W30461   3.424  25.543   2.667
62044W        W30462  19.145  40.026  13.995
62045W        W30463  36.895   6.294   3.754
62046W        W30464   7.862  15.665  13.948
62047W        W30465  24.563  12.253   4.316
62048W        W30466   3.292  17.640  14.299
62049W        W30467  40.542  21.259  10.160
62050W        W30468  18.200  11.664   4.113
62051W        W30469  23.614   8.733   2.746
62052W        W30470  30.082  44.830  11.599
62053W        W30471  24.037   6.283  13.950
62054W        W30472  28.016  42.284  13.397
62055W        W30473  44.006  18.774  10.425
62056W        W30474   4.215  27.165  10.533
62057W        W30475  37.476  25.084  12.482
62058W        W30476   3.239   6.281  12.878
62059W        W30477  13.771  26.207   2.851
62060W        W30478  13.189   4.791  14.380
62061W        W30479  24.649  37.841  11.931
62062W        W30480   0.424  34.113   4.634
62063W        W30481  28.579  25.145  13.963
62064W        W30482   9.766  42.026  14.027
62065W        W30483  30.164  39.473   0.824
62066W        W30484  28.554  13.701   2.665
62067W        W30485  44.364  11.198   2.670
62068W        W30486  31.621  44.317  14.871
62069W        W30487  30.108   4.389  12.432
62070W        W30488  34.873  20.204   2.858
62071W        W30489  11.231   8.363   4.233
62072W        W30490  32.637  14.258   0.458
62073W        W30491  22.028  23.572  10.896
62074W        W30492  32.416   6.322  11.380
62075W        W30493   8.662  26.029  13.004
62076W        W30494  33.495  19.728  10.491
62077W        W30495  24.227  39.011   3.801
62078W        W30496  44.380   2.809   4.779
62079W        W30497  19.255  43.384   2.256
62080W        W30498  44.394  10.149  12.055
62081W        W30499  33.417  17.195  11.598
62082W        W30500  12.704  13.165   4.667
62083W        W30501  21.106  19.582   2.378
62084W        W30502  12.791  40.841  10.541
62085W        W30503  34.999   5.317  10.638
62086W        W30504   5.315  32.989  11.019
62087W        W30505  29.042  14.654  12.058
62088W        W30506   0.891  39.461  10.480
62089W        W30507  41.415  34.554  10.944
62090W        W30508   1.287  18.750  12.094
62091W        W30509  10.743  13.795   0.730
62092W        W30510  42.460   1.876   1.428
62093W        W30511  22.629  25.514   4.667
62094W        W30512  32.594   8.309  11.416
62095W        W30513  36.984  26.109  11.583
62096W        W30514  23.623   4.914  14.871
62097W        W30515  29.540  24.227   1.773
62098W        W30516  11.758   5.297   1.318
62099W        W30517  20.078  24.112  12.040
62100W        W30518   2.250  14.747  10.488
62101W        W30519   6.335   8.897  12.073
62102W        W30520  14.771  18.787   2.864
62103W        W30521  40.424  27.110   0.943
62104W        W30522   1.977  39.823   2.189
62105W        W30523  12.338  22.586  12.349
62106W        W30524  25.513   4.414  10.987
62107W        W30525  20.214  13.125   2.700
62108W        W30526  43.947  33.890  10.443
62109W        W30527  31.489   2.918  14.006
62110W        W30528   6.343  19.172   3.725
62111W        W30529  20.573  18.781   2.706
62112W        W30530   3.373  32.468   3.831
62113W        W30531   5.689  19.185   2.198
62114W        W30532   3.301   6.352   3.674
62115W        W30533  15.207  25.130   3.715
62116W        W30534  36.081  33.459  13.531
62117W        W30535  32.957  35.896  10.947
62118W        W30536  14.779  15.148   2.414
62119W        W30537  18.716  33.025  14.327
62120W        W30538  41.975   3.875  11.030
62121W        W30539  34.034   8.167   1.354
62122W        W30540  20.169  11.251   5.112
62123W        W30541   5.321  31.909   2.285
62124W        W30542  24.169   2.885   2.770
62125W        W30543  22.648  43.785  12.027
62126W        W30544  28.972   2.795  14.450
62127W        W30545   0.876  42.303   1.436
62128W        W30546  21.118  38.536  11.558
62129W        W30547   5.284  27.955  10.898
62130W        W30548   6.712  37.920   1.747
62131W        W30549  25.670  12.666  10.120
62132W        W30550  35.973  26.986  10.449
62133W        W30551  11.822   0.301   4.144
62134W        W30552  10.284  44.892   2.342
62135W        W30553  21.739   0.254  14.781
62136W        W30554  26.557  32.079  11.060
62137W        W30555   0.429  40.366  12.480
62138W        W30556  15.278  39.983   2.860
62139W        W30557  29.962  42.818   4.695
62140W        W30558  16.303  42.321   1.870
62141W        W30559  20.551  30.929  14.818
62142W        W30560   6.372  30.594   2.414
62143W        W30561  40.508  35.053  13.471
62144W        W30562  18.077  26.014   4.238
62145W        W30563  39.483  10.259  11.499
62146W        W30564   9.272  31.015   0.372
62147W        W30565  28.186   0.262  14.503
62148W        W30566  19.227  15.191   5.749
62149W        W30567   3.283  31.059  10.577
62150W        W30568  11.329   9.645  12.842
62151W        W30569  21.098  13.113   2.231
62152W        W30570  43.363  38.845   4.632
62153W        W30571  31.010  31.558   4.138
62154W        W30572  38.495  19.175  13.978
62155W        W30573  30.985  11.370   3.254
62156W        W30574  32.948  28.456   2.784
62157W        W30575  11.809  26.631   2.888
62158W        W30576  16.804   1.295   2.224
62159W        W30577  26.697   7.312   2.395
62160W        W30578  41.304   2.912  13.475
62161W        W30579  39.443  36.453   0.954
62162W        W30580  34.531  17.718   2.217
62163W        W30581  31.524   5.824   2.281
62164W        W30582  35.425  42.836   2.706
62165W        W30583  15.226  31.510  13.922
62166W        W30584  23.610  26.173   1.410
62167W        W30585   3.392  27.681  11.471
62168W        W30586   2.747  14.340  12.524
62169W        W30587  34.581  37.923  10.934
62170W        W30588   9.656  33.883  11.907
62171W        W30589  27.108  17.667   1.388
62172W        W30590  32.954  33.126  12.373
62173W        W30591  23.520  21.191  11.073
62174W        W30592  31.955  32.909  11.058
62175W        W30593  35.875  31.994   5.303
62176W        W30594  37.854  36.549   0.397
62177W        W30595  15.240  26.207   4.300
62178W        W30596  34.530   2.315  13.019
62179W        W30597   0.986  25.654  12.471
62180W        W30598  16.147   1.330   1.234
62181W        W30599   8.679  44.886   1.743
62182W        W30600   8.819  17.306   4.342
62183W        W30601  31.039  28.648   0.914
62184W        W30602  32.470   9.666   3.151
62185W        W30603  17.182  42.321  14.329
62186W        W30604  13.158  18.131   4.682
62187W        W30605  10.260   8.746  11.436
62188W        W30606  10.748  16.612  10.913
62189W        W30607  44.874  18.621  11.431
62190W        W30608  14.165  14.823  11.521
62191W        W30609  36.546   3.812   3.238
62192W        W30610  26.695  27.501   4.140
62193W        W30611  15.627   6.257  12.839
62194W        W30612  31.080  38.873  12.857
62195W        W30613  34.948  24.973  14.349
62196W        W30614  13.845  32.420  14.420
62197W        W30615   7.353   2.266   1.701
62198W        W30616   0.838  23.560  13.808
62199W        W30617  28.643  24.606   1.892
62200W        W30618  11.181   8.815  12.060
62201W        W30619  38.514  14.149   0.861
62202W        W30620  32.618  39.344   3.349
62203W        W30621  13.747  12.222  12.990
62204W        W30622  40.947  39.027  11.027
62205W        W30623   4.412   2.284  12.384
62206W        W30624  25.627   8.242   3.333
62207W        W30625  15.288   8.843  14.946
62208W        W30626  11.318  44.830  14.305
62209W        W30627  14.316   7.335   3.275
62210W        W30628  42.856  39.924  13.539
62211W        W30629  21.101  11.839  13.319
62212W        W30630  36.949  18.717   4.245
62213W        W30631  33.924   8.786   3.331
62214W        W30632  35.364  36.546   5.603
62215W        W30633  35.993  43.461   2.766
62216W        W30634  39.341   0.968  12.351
62217W        W30635  44.828  22.514  12.390
62218W        W30636  40.925  27.163   2.280
62219W        W30637   1.338  41.538  14.781
62220W        W30638  12.247   6.209  13.485
62221W        W30639  26.456  36.095   0.306
62222W        W30640  12.122  44.958   3.321
62223W        W30641  25.066  38.347   2.321
62224W        W30642  35.076  37.832   2.675
62225W        W30643  12.171  23.683  14.970
62226W        W30644  42.788   8.876   4.180
62227W        W30645  35.444  35.852  12.987
62228W        W30646  36.511  10.734   2.780
62229W        W30647  31.569  10.733   2.407
62230W        W30648  20.123   3.846  11.530
62231W        W30649  15.795  39.384   2.384
62232W        W30650  35.014  33.933   4.270
62233W        W30651   3.455  21.147  12.892
62234W        W30652  32.582  30.593  11.508
62235W        W30653   8.365  30.129  13.534
62236W        W30654  27.099  37.439  11.408
62237W        W30655  27.562  35.019   1.396
62238W        W30656  16.677  40.865  12.843
62239W        W30657  22.019  18.674  12.846
62240W        W30658  14.799  35.954   4.268
62241W        W30659   9.753  12.841  11.943
62242W        W30660  19.707  37.013  10.894
62243W        W30661  14.103  13.134   2.281
62244W        W30662  31.122  43.019  10.892
62245W        W30663  34.931  34.968   4.671
62246W        W30664  37.474  33.417  11.398
62247W        W30665  44.826   7.390   4.622
62248W        W30666  30.952  40.408   1.291
62249W        W30667  38.010  40.889  14.302
62250W        W30668   4.890  44.964  11.510
62251W        W30669  38.855  13.645  11.040
62252W        W30670  15.691   0.767   4.207
62253W        W30671   5.415  29.942  11.458
62254W        W30672  32.074  31.946  11.560
62255W        W30673  38.438   8.304  13.475
62256W        W30674  26.183   7.883   5.190
62257W        W30675  14.712  34.553   9.979
62258W        W30676  20.130  42.469   0.876
62259W        W30677  36.438  13.135   3.847
62260W        W30678  28.073  44.845   2.234
62261W        W30679  41.794  37.065  11.101
62262W        W30680  43.768  23.003   5.150
62263W        W30681  32.109  14.701  10.893
62264W        W30682  12.125  10.162   4.246
62265W        W30683  20.700  41.325   0.370
62266W        W30684  28.984  29.083  10.545
62267W        W30685   8.864  18.285   2.353
62268W        W30686  31.937  17.105   1.821
62269W        W30687  28.490  43.827   1.853
62270W        W30688  31.464  33.128   4.769
62271W        W30689  42.888   2.438   1.889
62272W        W30690  33.961   1.357   2.729
62273W        W30691  43.471  33.081   2.331
62274W        W30692  32.888  44.450  13.990
62275W        W30693  14.643  30.031   0.817
62276W        W30694  18.776  19.224   1.421
62277W        W30695   5.344  28.999   4.345
62278W        W30696  21.214  41.023  11.859
62279W        W30697  10.725  43.782  13.027
62280W        W30698  12.781  19.228  10.524
62281W        W30699  13.730   2.767   4.824
62282W        W30700  15.735  34.884  13.528
62283W        W30701  44.984   9.175  11.447
62284W        W30702   6.340  42.455  12.455
62285W        W30703   6.877  32.013  14.825
62286W        W30704   6.319   7.375   3.849
62287W        W30705  12.205  21.032   4.149
62288W        W30706  29.537  19.201  14.340
62289W        W30707  14.641   8.274   1.220
62290W        W30708  11.850   4.923   2.182
62291W        W30709   4.348  17.566   0.736
62292W        W30710   0.908   4.797  14.845
62293W        W30711  31.623   0.472  10.626
62294W        W30712  36.888   1.420   0.284
62295W        W30713  13.280  35.103   2.751
62296W        W30714  11.847  36.884  12.339
62297W        W30715   5.750  31.637  11.925
62298W        W30716   6.276   1.322  13.898
62299W        W30717  32.093   5.247   3.164
62300W        W30718  42.885  13.268  12.026
62301W        W30719  43.378   8.680  10.527
62302W        W30720  25.479  11.330   3.237
62303W        W30721  34.085  21.185  14.442
62304W        W30722  41.863   3.247  14.288
62305W        W30723   7.372   3.371  13.988
62306W        W30724  38.841  33.391  12.910
62307W        W30725  13.602   7.370  14.871
62308W        W30726  17.569  16.072   2.801
62309W        W30727  34.901  13.735   0.736
62310W        W30728   3.452  40.338  12.838
62311W        W30729  28.980  44.843  14.356
62312W        W30730   2.351  43.379  14.902
62313W        W30731  16.283  29.565  13.840
62314W        W30732  36.476   2.248  12.907
62315W        W30733  29.561  31.610  13.981
62316W        W30734  28.965  21.125   2.870
62317W        W30735  37.996  15.774   4.234
62318W        W30736  23.050  25.188   3.277
62319W        W30737  31.008   5.769   2.760
62320W        W30738  22.735  22.505  13.018
62321W        W30739   8.838  31.118   2.875
62322W        W30740  41.411  19.148   4.166
62323W        W30741  43.958  17.690   2.195
62324W        W30742  42.486  12.692  13.360
62325W        W30743  20.588  40.515   5.255
62326W        W30744  39.490  30.627  10.417
62327W        W30745  43.489  30.078  12.893
62328W        W30746  35.961  27.499   3.685
62329W        W30747  40.521   5.396  11.030
62330W        W30748  33.995   5.402   0.773
62331W        W30749  21.086   8.377  13.922
62332W        W30750  16.660  31.526   2.251
62333W        W30751  41.975  33.047   1.828
62334W        W30752  19.057  39.847   0.289
62335W        W30753  20.196  14.181  12.963
62336W        W30754  26.087   7.288  12.004
62337W        W30755  35.359  39.559   3.202
62338W        W30756  22.729  35.076  12.014
62339W        W30757  36.072  11.807   3.796
62340W        W30758  15.793  13.658  11.410
62341W        W30759  28.131  41.382   2.809
62342W        W30760   5.433  16.805   0.940
62343W        W30761   8.891   3.216   0.431
62344W        W30762  26.665  23.025  12.529
62345W        W30763  18.103   5.357   0.297
62346W        W30764  17.284  37.558   3.803
62347W        W30765   9.720   7.787   2.264
62348W        W30766  31.107   7.822   3.213
62349W        W30767  34.572  19.746  11.522
62350W        W30768  21.720  15.266  13.946
62351W        W30769  21.714  10.310  10.577
62352W        W30770  25.082  31.533   2.670
62353W        W30771   0.375  21.685   5.085
62354W        W30772   4.241  15.134   2.416
62355W        W30773   5.316  14.686   2.782
62356W        W30774  16.282  16.769  14.864
62357W        W30775  30.537   3.882  11.476
62358W        W30776  30.449  30.455  14.012
62359W        W30777  16.195  18.602   1.832
62360W        W30778  26.671  33.482  13.482
62361W        W30779  27.006   3.852   3.335
62362W        W30780  18.114  11.227  10.114
62363W        W30781  29.456  18.072   2.706
62364W        W30782  36.894  43.418   2.360
62365W        W30783  17.611  22.564   2.266
62366W        W30784   7.341  11.141   3.685
62367W        W30785   1.821  44.350   4.705
62368W        W30786  21.161  31.062   1.794
62369W        W30787   9.380  24.077  11.593
62370W        W30788  13.812  16.281   1.349
62371W        W30789   5.727  36.874  13.369
62372W        W30790   9.729  34.987  11.094
62373W        W30791  13.291  41.958  10.568
62374W        W30792   0.409  31.925   4.272
62375W        W30793  38.504  18.701   2.222
62376W        W30794  13.798  12.753  11.467
62377W        W30795  28.186  31.532  12.898
62378W        W30796  12.172  14.312   4.659
62379W        W30797  40.418  29.463   4.302
62380W        W30798   1.755  25.045   1.357
62381W        W30799  17.645  28.024   2.704
62382W        W30800  18.148  29.635  13.413
62383W        W30801  44.300  12.159   3.231
62384W        W30802  12.666  24.131   1.258
62385W        W30803  16.704  39.925   2.778
62386W        W30804   6.815  33.980  14.339
62387W        W30805  13.326  39.912   4.207
62388W        W30806  32.052  20.740   1.822
62389W        W30807   5.383  23.050  13.858
62390W        W30808   9.711  31.406  14.836
62391W        W30809  24.194   9.196   1.451
62392W        W30810  32.996  35.005   3.646
62393W        W30811  41.459  11.234   0.312
62394W        W30812  14.273  12.840   2.770
62395W        W30813  41.797  30.972   2.881
62396W        W30814  15.583  19.120   0.269
62397W        W30815  30.913  13.113  14.429
62398W        W30816  21.144   5.232  14.368
62399W        W30817  14.641  30.551  11.984
62400W        W30818  22.728  28.952   1.871
62401W        W30819  42.883  43.468  13.386
62402W        W30820  31.976  44.791   2.848
62403W        W30821   8.803  14.304  13.936
62404W        W30822  30.038  20.045  13.525
62405W        W30823  40.820  22.170  13.802
62406W        W30824  43.492  14.822  14.798
62407W        W30825  25.210   5.303  12.020
62408W        W30826  26.093  15.647  12.538
62409W        W30827   6.381  14.674  10.541
62410W        W30828   1.772   9.814  10.574
62411W        W30829  16.644  44.897   1.311
62412W        W30830  31.911   7.899  14.914
62413W        W30831   8.226   1.428   1.782
62414W        W30832  28.997  38.338  14.961
62415W        W30833  31.541   9.368  11.398
62416W        W30834   7.301  16.661   1.263
62417W        W30835  43.914   3.369   3.217
62418W        W30836  35.923  26.665  14.947
62419W        W30837  24.196   0.831   0.422
62420W        W30838  20.121   6.835  11.582
62421W        W30839  33.874  30.491   1.846
62422W        W30840  11.271  38.054   1.343
62423W        W30841  11.244   5.430   0.355
62424W        W30842   6.217  42.354  13.804
62425W        W30843  40.310  19.129   4.274
62426W        W30844  14.807  23.050  13.410
62427W        W30845  33.615   4.435   1.860
62428W        W30846  33.103  31.485  12.369
62429W        W30847  18.250  22.634  11.917
62430W        W30848  22.634  40.490  12.362
62431W        W30849  38.033   7.895   4.311
62432W        W30850  11.235  37.552  12.441
62433W        W30851  37.363  41.956  11.903
62434W        W30852  31.432  41.507  14.393
62435W        W30853  28.600  16.801  13.061
62436W        W30854  44.471  39.980  13.898
62437W        W30855  30.583   8.850  13.547
62438W        W30856  39.410  13.317  12.353
62439W        W30857   7.902  22.218  13.978
62440W        W30858   2.958  32.439  12.852
62441W        W30859  23.147  20.643  10.405
62442W        W30860  43.928  42.793  10.498
62443W        W30861  43.343  30.570  10.471
62444W        W30862  33.130  14.739  11.456
62445W        W30863   8.298  18.122   0.375
62446W        W30864  42.775  17.107  11.054
62447W        W30865  22.648  20.201   1.904
62448W        W30866  11.835   7.239   1.776
62449W        W30867  43.003  25.159   9.945
62450W        W30868  23.727  31.998   4.204
62451W        W30869   6.739  36.848  10.974
62452W        W30870  44.883   0.874   3.691
62453W        W30871  18.114   9.683   3.178
62454W        W30872  40.897  37.349  13.915
62455W        W30873   2.862  37.889  12.380
62456W        W30874  35.941  19.124  13.908
62457W        W30875  40.325  24.642   1.860
62458W        W30876  44.330   9.679   2.193
62459W        W30877   9.389  29.605   1.240
62460W        W30878  11.321  27.166   3.180
62461W        W30879  20.255  26.159  11.856
62462W        W30880  26.687  33.957  13.884
62463W        W30881  27.521  12.706   3.238
62464W        W30882  40.506  21.593  14.348
62465W        W30883  15.654  22.093  13.415
62466W        W30884   5.335  34.939   4.319
62467W        W30885  13.837  32.983  14.794
62468W        W30886  21.542  23.636   4.696
62469W        W30887  44.342  38.989   1.319
62470W        W30888  21.576  21.252  14.988
62471W        W30889  44.481  33.516  10.439
62472W        W30890  24.553  15.666   0.800
62473W        W30891   8.670  32.519   0.888
62474W        W30892   1.334  11.175  13.842
62475W        W30893  28.082  19.064  10.562
62476W        W30894  31.551  43.803   0.391
62477W        W30895  29.424  44.330   2.693
62478W        W30896  29.555  12.736  14.871
62479W        W30897  13.660  12.320   3.381
62480W        W30898  21.229  36.049  13.986
62481W        W30899  11.853  33.024  13.533
62482W        W30900  36.992  13.829   2.805
62483W        W30901  18.555  42.372   4.120
62484W        W30902  29.151  23.724  13.392
62485W        W30903  26.985  33.938   3.173
62486W        W30904   1.904  36.000   0.801
62487W        W30905  35.081  35.436  12.049
62488W        W30906  20.638  24.005  11.491
62489W        W30907  20.106   9.660   4.338
62490W        W30908  15.790   4.254   5.618
62491W        W30909   9.692  21.681   3.776
62492W        W30910  15.757  21.080   0.850
62493W        W30911  40.521  29.522  13.913
62494W        W30912  18.714  25.159   0.387
62495W        W30913  35.982  16.758   0.392
62496W        W30914  10.316  21.560   0.825
62497W        W30915  42.300  39.434  10.157
62498W        W30916  19.127  27.964  11.910
62499W        W30917  20.707   9.394  11.881
62500W        W30918  14.117  18.550   3.262
62501W        W30919  18.639  11.178   4.345
62502W        W30920   0.485   8.160  12.931
62503W        W30921  32.966  10.218   2.852
62504W        W30922  32.895  14.599   3.723
62505W        W30923  32.022  25.030  12.361
62506W        W30924  34.468  35.537   1.229
62507W        W30925   9.264  44.833  14.853
62508W        W30926  20.239  12.121  14.010
62509W        W30927  22.539  44.355   4.746
62510W        W30928  41.930  41.370  10.993
62511W        W30929  22.157  33.905   4.168
62512W        W30930  35.538  26.189  10.912
62513W        W30931  11.775  34.615  13.045
62514W        W30932  34.110  30.608   4.604
62515W        W30933  17.282  27.015  12.900
62516W        W30934   4.775  11.175   0.337
62517W        W30935  26.967  10.291  10.963
62518W        W30936  32.637  33.400  12.897
62519W        W30937  20.604  24.537   4.690
62520W        W30938   9.299   1.748   4.697
62521W        W30939   6.409  43.769  14.835
62522W        W30940  20.632  31.919   3.740
62523W        W30941  20.128   1.301  14.465
62524W        W30942  21.742  15.288  13.494
62525W        W30943  32.061  32.916  13.370
62526W        W30944  38.329  41.458   0.408
62527W        W30945  18.614  24.665   5.191
62528W        W30946  39.970  39.871   4.246
62529W        W30947  12.272  15.324  12.400
62530W        W30948  20.557  28.616   4.147
62531W        W30949  25.632  37.951   3.828
62532W        W30950   0.310  39.509  13.476
62533W        W30951  35.420  23.658  12.545
62534W        W30952  30.508   2.258   3.296
62535W        W30953  27.086  16.678  14.989
62536W        W30954  11.307  38.340  13.982
62537W        W30955  36.919   6.236   2.747
62538W        W30956   9.348   8.751  11.993
62539W        W30957  15.230  27.644   4.694
62540W        W30958   9.358  15.763   5.195
62541W        W30959  30.425  20.122  14.382
62542W        W30960   5.272   9.220  11.066
62543W        W30961  14.100  32.910  12.518
62544W        W30962  21.522  25.525   1.230
62545W        W30963  32.895   7.674  12.343
62546W        W30964  18.051   4.784   1.253
62547W        W30965  14.756  10.636   4.654
62548W        W30966   7.403  15.237   3.262
62549W        W30967  19.057  13.299  14.021
62550W        W30968  23.028  40.010   3.226
62551W        W30969  40.404  37.537   4.341
62552W        W30970  44.341  39.406  10.489
62553W        W30971  33.401  17.801  11.556
62554W        W30972   5.762  12.809  11.455
62555W        W30973  25.515   3.221  12.505
62556W        W30974   2.857  40.881   3.238
62557W        W30975  29.554  24.553  12.474
62558W        W30976  15.671   4.779  11.591
62559W        W30977  16.302  13.767   2.745
62560W        W30978  14.683  20.765  12.823
62561W        W30979  11.290  38.528  14.900
62562W        W30980  17.105  10.646   2.252
62563W        W30981   1.801  35.592  13.332
62564W        W30982  11.645   5.807   2.347
62565W        W30983  34.516   8.851  12.397
62566W        W30984  37.950   5.195   0.258
62567W        W30985  19.152  28.596  10.941
62568W        W30986  13.121  25.013   0.941
62569W        W30987   9.223  32.484   1.733
62570W        W30988  44.876  33.509  10.906
62571W        W30989  27.629  12.289   2.320
62572W        W30990  32.066  32.591  11.600
62573W        W30991   7.804   4.930   1.823
62574W        W30992  44.945   8.684   2.785
62575W        W30993   4.723  30.435  14.382
62576W        W30994  29.473  15.303  13.440
62577W        W30995  30.130  39.052   2.266
62578W        W30996   3.287  25.523   2.278
62579W        W30997  24.020  31.104   4.322
62580W        W30998  38.342  37.986  12.422
62581W        W30999   1.383  35.521   0.340
62582W        W31000  24.506  28.484   4.742
62583W        W31001   2.892   8.891  12.441
62584W        W31002   5.232   6.189   4.765
62585W        W31003  21.072  11.232   4.354
62586W        W31004  15.263  44.939  12.579
62587W        W31005  32.394   4.922   1.346
62588W        W31006   3.756  28.125  13.485
62589W        W31007  30.059  35.474   1.707
62590W        W31008  23.611   0.263  10.435
62591W        W31009  14.212   9.326   3.194
62592W        W31010   2.818  29.006   3.823
62593W        W31011  23.137  42.402   2.685
62594W        W31012   3.363  13.817   3.176
62595W        W31013   6.829  42.479  12.565
62596W        W31014   3.744  27.977  12.926
62597W        W31015  27.499  23.231  13.812
62598W        W31016  39.406  34.091   4.334
62599W        W31017  43.463   9.338   2.723
62600W        W31018   7.794  37.906  13.925
62601W        W31019   3.749  22.145  13.347
62602W        W31020  25.515  19.209   2.303
62603W        W31021  19.655  19.699   0.478
62604W        W31022  14.163  26.021   0.731
62605W        W31023   8.660  24.100   2.796
62606W        W31024  32.608  16.255   0.740
62607W        W31025  10.383   4.443  10.148
62608W        W31026  19.114  21.624  11.115
62609W        W31027  36.868  21.249  10.472
62610W        W31028  32.486  14.139  11.872
62611W        W31029  23.109  30.129  12.442
62612W        W31030  43.995  36.533  11.464
62613W        W31031   5.324   8.660   4.195
62614W        W31032   9.166  19.548  13.812
62615W        W31033  15.274  35.067  10.526
62616W        W31034  10.275  44.894  10.464
62617W        W31035  34.981   1.470   3.631
62618W        W31036  25.670  28.176   3.236
62619W        W31037  20.176  13.798  10.033
62620W        W31038  11.349  18.236   3.826
62621W        W31039  40.042   9.153   3.210
62622W        W31040  19.166   4.937  12.840
62623W        W31041  16.313   3.822  11.937
62624W        W31042  34.540  21.654  14.431
62625W        W31043  24.639  18.230  14.769
62626W        W31044  38.427  23.553  14.823
62627W        W31045  14.679  41.462   3.847
62628W        W31046  29.990  39.043  11.551
62629W        W31047  11.320  29.033  12.341
62630W        W31048   9.844  36.958  14.326
62631W        W31049  40.407   5.840   4.182
62632W        W31050  16.139  28.509   0.244
62633W        W31051  10.175   7.297  11.420
62634W        W31052  10.196   5.417  14.275
62635W        W31053  11.166  44.989   0.390
62636W        W31054  22.139  26.685   0.736
62637W        W31055  29.563  18.167  13.358
62638W        W31056  12.634  21.162  13.358
62639W        W31057  41.456  24.563  13.047
62640W        W31058  34.476  36.979  14.776
62641W        W31059  29.533   8.225  11.040
62642W        W31060  37.538  24.161   3.171
62643W        W31061  44.498  39.511  11.434
62644W        W31062  11.280   0.955  10.458
62645W        W31063  14.693  22.997   1.809
62646W        W31064  17.267  26.140  12.429
62647W        W31065  44.946  11.227  13.842
62648W        W31066   2.244   9.174  11.879
62649W        W31067   2.261  31.899   0.733
62650W        W31068  26.588  11.769  12.562
62651W        W31069  18.289  31.034  13.494
62652W        W31070  38.865  31.643   1.720
62653W        W31071  13.224  43.318   4.242
62654W        W31072  27.686  39.516  11.566
62655W        W31073  13.614  42.901   5.137
62656W        W31074   1.303  10.323   0.464
62657W        W31075  25.138   9.871   0.399
62658W        W31076  13.202  13.309  10.946
62659W        W31077  32.610  40.886   4.618
62660W        W31078  34.483  35.440   4.221
62661W        W31079  26.508  41.402  11.515
62662W        W31080  22.113  22.225   3.721
62663W        W31081  33.574  17.748   4.621
62664W        W31082  26.470   7.237  14.418
62665W        W31083  23.625   1.952  14.336
62666W        W31084  22.184  25.529  10.050
62667W        W31085  32.123  24.101  11.504
62668W        W31086  29.575  17.705  13.307
62669W        W31087   9.247   0.268  11.908
62670W        W31088  30.062   7.288   2.765
62671W        W31089  37.395  11.343  14.365
62672W        W31090   3.923   1.408   3.245
62673W        W31091   8.853   4.208   2.330
62674W        W31092   5.239  28.511   1.322
62675W        W31093  42.305  30.969  12.881
62676W        W31094  19.243   5.275  14.502
62677W        W31095  11.719  26.954  12.518
62678W        W31096  12.348  12.204   3.214
62679W        W31097  11.770  19.100   2.720
62680W        W31098  43.487  32.467  11.586
62681W        W31099  30.649  35.407   0.924
62682W        W31100   9.327   1.764  12.483
62683W        W31101  18.096  41.306  12.024
62684W        W31102  37.073  20.207   1.257
62685W        W31103  26.196  16.566  14.864
62686W        W31104  32.076  11.823   2.185
62687W        W31105   2.826  21.131   0.442
62688W        W31106  36.537  40.867  11.587
62689W        W31107  43.357   4.219   4.332
62690W        W31108  32.591   3.339   2.397
62691W        W31109  43.411   3.396   1.879
62692W        W31110  30.121  41.818   3.156
62693W        W31111  26.969  13.725  14.849
62694W        W31112  38.034   2.833  14.846
62695W        W31113  23.501  41.476  14.791
62696W        W31114  40.028  40.892  11.563
62697W        W31115  41.391  23.657   3.866
62698W        W31116  37.498  23.596  11.860
62699W        W31117   4.310  34.388  11.031
62700W        W31118  17.163  12.714   0.391
62701W        W31119  16.799  39.912  12.504
62702W        W31120  39.526  39.894  12.476
62703W        W31121  21.237  34.920  13.913
62704W        W31122  17.733  36.984  10.922
62705W        W31123  21.701   1.368   0.425
62706W        W31124   0.927  37.523   9.959
62707W        W31125  28.674  25.492   4.221
62708W        W31126  32.114  37.351  13.038
62709W        W31127   0.325   5.889   1.762
62710W        W31128  39.463   1.308  11.905
62711W        W31129  31.043   6.710   0.856
62712W        W31130  31.583  14.220  10.404
62713W        W31131  40.463  24.527   0.328
62714W        W31132  24.218  39.323   1.371
62715W        W31133  22.738  41.828  10.463
62716W        W31134  20.106  13.620   9.634
62717W        W31135  36.994  14.771   3.370
62718W        W31136  17.763   7.870   3.730
62719W        W31137  31.942  38.530  13.881
62720W        W31138   3.247  14.157  11.026
62721W        W31139  30.603  37.507   1.440
62722W        W31140  27.604  20.697   4.245
62723W        W31141   3.711  41.403  10.944
62724W        W31142   9.175  21.051   0.290
62725W        W31143   6.727  20.089   2.233
62726W        W31144  35.882  25.579  10.642
62727W        W31145  35.076   1.355   3.352
62728W        W31146   8.186  39.830  10.540
62729W        W31147  28.173  28.050   5.301
62730W        W31148  29.452  44.307  10.948
62731W        W31149  18.594  43.398   1.450
62732W        W31150  13.713  44.816  13.916
62733W        W31151  29.153  30.464   3.653
62734W        W31152  34.011  42.340  14.358
62735W        W31153  30.918  31.111   4.236
62736W        W31154   2.377  26.547   3.695
62737W        W31155   6.835  31.566   1.721
62738W        W31156   5.384   4.296   3.179
62739W        W31157   2.881   1.471  13.411
62740W        W31158   3.864  18.665  13.930
62741W        W31159  29.926  15.787   3.241
62742W        W31160  16.117  15.722   2.899
62743W        W31161  39.447  12.768  11.452
62744W        W31162  11.796  29.458  10.564
62745W        W31163  41.993   0.336   4.612
62746W        W31164  10.707  19.698   3.159
62747W        W31165   7.385   8.320   0.254
62748W        W31166  24.660  43.462   2.311
62749W        W31167  20.093  13.151   4.778
62750W        W31168  22.607  36.861  14.782
62751W        W31169  28.508   9.857   4.826
62752W        W31170   3.230  19.582  11.079
62753W        W31171   7.813   6.372  11.980
62754W        W31172  42.030  15.623  11.956
62755W        W31173  17.277   2.308  11.932
62756W        W31174  31.024   4.294   1.406
62757W        W31175   9.690  24.485   4.618
62758W        W31176   3.750   7.383   2.191
62759W        W31177  36.401  18.680  12.413
62760W        W31178  29.063  32.461   3.356
62761W        W31179   7.201  27.105  13.486
62762W        W31180  13.113  10.785   4.313
62763W        W31181   0.320  42.018  12.492
62764W        W31182  21.703   6.421  12.971
62765W        W31183  23.086   7.390   1.212
62766W        W31184  44.310  30.983   4.151
62767W        W31185  42.997  33.949   4.160
62768W        W31186   7.414  14.677   1.396
62769W        W31187  17.100  10.182   4.288
62770W        W31188  31.117   0.789   3.855
62771W        W31189  41.535   9.825   2.299
62772W        W31190  17.067  28.459  11.376
62773W        W31191   4.205   0.340  14.482
62774W        W31192  19.122  30.118  14.994
62775W        W31193  10.224  32.042  11.577
62776W        W31194   9.216  38.408   3.743
62777W        W31195  30.483  25.548   1.256
62778W        W31196  22.031  29.919  14.834
62779W        W31197  41.527  22.704  11.985
62780W        W31198  13.801  38.071   0.347
62781W        W31199   1.383  11.239   3.737
62782W        W31200  16.767  17.627  13.798
62783W        W31201  17.227  42.303   4.260
62784W        W31202  13.695  17.111   4.763
62785W        W31203  27.633  44.877   0.392
62786W        W31204  22.055   5.413  12.353
62787W        W31205  41.342  31.583  14.915
62788W        W31206   1.419  13.714   1.404
62789W        W31207  42.002  26.002  12.366
62790W        W31208  25.964  20.109  12.431
62791W        W31209  25.483   5.825   4.622
62792W        W31210  21.018   7.383   2.227
62793W        W31211  11.708  17.604   0.261
62794W        W31212   3.215  21.581  14.374
62795W        W31213  30.579  23.163   3.777
62796W        W31214  28.169  39.504   0.728
62797W        W31215  12.613  33.519  14.908
62798W        W31216  10.731  34.548   4.335
62799W        W31217  11.330  19.561   3.814
62800W        W31218   7.388  27.088  10.619
62801W        W31219  40.026  33.457   1.301
62802W        W31220  38.415  28.603  14.344
62803W        W31221  33.904  37.369   5.276
62804W        W31222  36.526  23.683  13.543
62805W        W31223  33.490  24.657   0.422
62806W        W31224  25.608  18.101  11.526
62807W        W31225  20.129  18.672   4.201
62808W        W31226  35.397  34.549  14.834
62809W        W31227  11.292  43.386  10.926
62810W        W31228  30.544  39.392  12.048
62811W        W31229  15.275  41.828  12.854
62812W        W31230  44.432  32.896   1.900
62813W        W31231   7.228  33.447   2.718
62814W        W31232  33.381   7.872   4.800
62815W        W31233  33.045  44.480   1.902
62816W        W31234   5.776  28.514  11.374
62817W        W31235  26.203  20.727   4.690
62818W        W31236  38.878  38.835   1.319
62819W        W31237   6.249   5.331  11.877
62820W        W31238   0.480  17.214   0.468
62821W        W31239  19.655  12.761   3.355
62822W        W31240  39.980  22.632   1.779
62823W        W31241   8.815  21.069   2.880
62824W        W31242  22.501  14.770   0.382
62825W        W31243  10.261  40.826  13.992
62826W        W31244  22.091  25.997   1.929
62827W        W31245  25.510  39.852  13.518
62828W        W31246  17.193  28.978   2.231
62829W        W31247   7.254  21.631  13.838
62830W        W31248  23.217  21.182  11.560
62831W        W31249  38.389  10.211  14.302
62832W        W31250  35.415  18.695  11.397
62833W        W31251  27.021  38.438  12.033
62834W        W31252  12.181  20.624   2.887
62835W        W31253   0.945  22.084   3.252
62836W        W31254  37.553  23.495  14.456
62837W        W31255  13.661  36.997   3.703
62838W        W31256   6.920  38.033   3.735
62839W        W31257  29.644   0.818   0.889
62840W        W31258  19.089  19.728  12.998
62841W        W31259   6.769  16.177  11.612
62842W        W31260  15.796  30.159   0.335
62843W        W31261  22.670  31.539  10.519
62844W        W31262  34.610  24.620   4.165
62845W        W31263  25.089  28.017   4.170
62846W        W31264  31.524  27.008   3.846
62847W        W31265  35.093  17.199   2.300
62848W        W31266   0.818   7.412   0.276
62849W        W31267   1.813  30.594  13.925
62850W        W31268  17.614  15.301   3.829
62851W        W31269  10.780   0.893   1.220
62852W        W31270  26.478  22.745   2.296
62853W        W31271  33.977  21.680   1.748
62854W        W31272  26.582  27.506   0.430
62855W        W31273   5.228  31.429  10.473
62856W        W31274   2.720  40.020   2.701
62857W        W31275  17.103   7.197  12.994
62858W        W31276   6.333  40.355   0.793
62859W        W31277   5.326   4.252   3.748
62860W        W31278  29.039  13.308  11.434
62861W        W31279  29.955  21.096   0.802
62862W        W31280  23.108   1.478  14.803
62863W        W31281  43.303  35.922   4.159
62864W        W31282  12.775  24.058   4.291
62865W        W31283  15.723  44.871   3.273
62866W        W31284   6.733  34.011   3.370
62867W        W31285   3.881  43.802  14.839
62868W        W31286   1.734   6.401  10.906
62869W        W31287  32.973  12.356   2.846
62870W        W31288  28.533   1.763   4.612
62871W        W31289   5.860  20.253  14.500
62872W        W31290  32.574  18.251   5.120
62873W        W31291  38.864   7.895  11.017
62874W        W31292  15.719   4.440  12.031
62875W        W31293  43.002   9.714  14.822
62876W        W31294  19.241  15.232   9.587
62877W        W31295  11.705  36.942  13.910
62878W        W31296  15.266  34.019  10.531
62879W        W31297  14.785   6.360   1.780
62880W        W31298  23.990  33.448   3.773
62881W        W31299  33.547  20.115  11.529
62882W        W31300   0.758  38.029  13.476
62883W        W31301  42.380  18.589  11.465
62884W        W31302  39.835  44.335   0.325
62885W        W31303   0.248   3.332  12.954
62886W        W31304  36.483   7.860  12.872
62887W        W31305  17.642  38.422   2.662
62888W        W31306  41.471   1.852  13.891
62889W        W31307  42.294  30.003  13.952
62890W        W31308  25.653  31.146  11.432
62891W        W31309  18.668  34.569   4.749
62892W        W31310  37.360  22.647  11.538
62893W        W31311  13.797   3.930   3.324
62894W        W31312  34.120  10.186  14.789
62895W        W31313   5.393  13.807   0.812
62896W        W31314  41.026  38.497   1.738
62897W        W31315  36.518  38.569  13.518
62898W        W31316   2.351  40.965  11.110
62899W        W31317  27.129  31.986  12.954
62900W        W31318  40.003  10.214   0.421
62901W        W31319  11.835  41.822  11.120
62902W        W31320  31.563  26.962  11.559
62903W        W31321  22.713  26.036   3.675
62904W        W31322  36.532  19.165   1.423
62905W        W31323   8.222  11.193   2.393
62906W        W31324  16.705  31.939   4.202
62907W        W31325  37.061  37.994  14.365
62908W        W31326  25.591   5.722   3.378
62909W        W31327  18.653   8.778  14.476
62910W        W31328  36.018  35.104  13.457
62911W        W31329   0.821  28.138  14.316
62912W        W31330  30.914  32.121   5.313
62913W        W31331  24.527  34.050   1.224
62914W        W31332  16.640  40.851  14.884
62915W        W31333  32.079  11.224   3.332
62916W        W31334  10.226  25.051  14.435
62917W        W31335  42.423  39.546   3.767
62918W        W31336  43.337  18.635  10.502
62919W        W31337   6.292  10.866  10.137
62920W        W31338  41.410  12.233   5.249
62921W        W31339  39.388   6.862  12.372
62922W        W31340  39.899   4.718  13.342
62923W        W31341  34.890   3.236   2.329
62924W        W31342  39.492  32.402   3.253
62925W        W31343  20.255  43.488  13.924
62926W        W31344  17.181  39.480   2.797
62927W        W31345  22.710  44.292  14.945
62928W        W31346  28.949  18.118  11.960
62929W        W31347   0.440  40.547  14.010
62930W        W31348  15.303  29.541  12.385
62931W        W31349  43.491  19.180  10.965
62932W        W31350  29.664  10.165   3.169
62933W        W31351  44.948  21.208   5.165
62934W        W31352  14.148  38.013  11.532
62935W        W31353  35.544  23.543  12.983
62936W        W31354  19.753  34.415   1.303
62937W        W31355  28.530  30.125   4.262
62938W        W31356  44.444  40.399   1.841
62939W        W31357  31.525  21.198   3.263
62940W        W31358  31.553  26.605   0.455
62941W        W31359  24.529  44.503   2.819
62942W        W31360  16.787   9.259  11.424
62943W        W31361  33.998  32.593   4.334
62944W        W31362   1.395   9.736   4.711
62945W        W31363  38.906  42.292  11.922
62946W        W31364  41.787  17.186  10.517
62947W        W31365   4.871  24.501  14.461
62948W        W31366  26.474   1.755  10.422
62949W        W31367  11.799   6.378  10.079
62950W        W31368  14.220   2.391   1.373
62951W        W31369  11.237  25.148   4.308
62952W        W31370   0.875  15.286   1.413
62953W        W31371   1.808  35.532  12.009
62954W        W31372  21.556  34.571   4.784
62955W        W31373  11.233   3.321   3.646
62956W        W31374  10.311  14.304  12.437
62957W        W31375   4.744   9.273   2.795
62958W        W31376  30.010  21.683   3.192
62959W        W31377  13.118  39.814   2.419
62960W        W31378  12.281  32.450   0.859
62961W        W31379  38.021  30.964  13.483
62962W        W31380  44.857  28.037  14.399
62963W        W31381  44.300  17.202   4.660
62964W        W31382  39.320   8.388   0.462
62965W        W31383   1.795  26.128   4.612
62966W        W31384  22.565  23.519   0.407
62967W        W31385   6.742  15.161   3.645
62968W        W31386   7.333  25.004  13.826
62969W        W31387   3.721   7.833  13.537
62970W        W31388  10.304   6.336  14.027
62971W        W31389  23.028  44.004  14.501
62972W        W31390  41.900  22.226  12.829
62973W        W31391   8.354  26.963   2.745
62974W        W31392  31.477  29.992   3.869
62975W        W31393  39.404  22.645   2.297
62976W        W31394  30.126  20.224   1.295
62977W        W31395   8.218   4.714  11.024
62978W        W31396  34.413  35.093   4.232
62979W        W31397  14.664   0.348  13.528
62980W        W31398   1.837  41.955  12.350
62981W        W31399  23.235  13.137  13.343
62982W        W31400   2.828  30.430   2.666
62983W        W31401  35.445  12.212   1.240
62984W        W31402  21.579  36.056   0.890
62985W        W31403   4.849   1.255   0.791
62986W        W31404   4.705  21.056  13.864
62987W        W31405  40.033  41.028  13.973
62988W        W31406  16.222   9.727   1.785
62989W        W31407  11.748  34.960   2.696
62990W        W31408  34.033   3.852  12.973
62991W        W31409  27.011  25.578  11.092
62992W        W31410  33.524  28.105  13.007
62993W        W31411  40.536  21.725  12.453
62994W        W31412  33.036  15.670  14.467
62995W        W31413   4.219  20.230  14.343
62996W        W31414  10.298  30.506   1.384
62997W        W31415  25.040   2.324   4.748
62998W        W31416  11.860  36.439   3.323
62999W        W31417   8.306   5.837   3.211
63000W        W31418  15.767  28.172   2.310
63001W        W31419   0.839  23.713   5.196
63002W        W31420  18.768  29.945   1.229
63003W        W31421  11.224  22.731   0.478
63004W        W31422  40.886  25.649   2.340
63005W        W31423   0.292  29.559  13.889
63006W        W31424   7.747  30.065  12.857
63007W        W31425  22.680  31.094  14.343
63008W        W31426  22.504  33.434  12.083
63009W        W31427   2.245  31.631   4.701
63010W        W31428  28.967   7.404   9.528
63011W        W31429   2.398  42.951  12.093
63012W        W31430   0.274  39.437   4.338
63013W        W31431   2.336  38.888  14.301
63014W        W31432   5.216   6.402   1.900
63015W        W31433  16.765  15.119  14.017
63016W        W31434  15.711   9.380  10.558
63017W        W31435  14.315  19.272  14.456
63018W        W31436   8.221  28.671  13.921
63019W        W31437  34.574  37.485   9.531
63020W        W31438  10.693  12.139   0.438
63021W        W31439   0.744  15.662   2.252
63022W        W31440  26.032  25.042   1.293
63023W        W31441  38.417   6.778  10.894
63024W        W31442   9.838  13.316   3.824
63025W        W31443  42.342   3.718  13.343
63026W        W31444  22.669  24.706  11.083
63027W        W31445  29.174   6.210  14.459
63028W        W31446   5.749  13.251  13.892
63029W        W31447  29.425  33.918  13.358
63030W        W31448  22.109  29.975  13.427
63031W        W31449  22.535  21.063   2.393
63032W        W31450  21.590  15.083  12.941
63033W        W31451  43.002   3.925   1.352
63034W        W31452  22.050   5.703   4.352
63035W        W31453  18.594  32.488   2.706
63036W        W31454  10.190   1.931   1.400
63037W        W31455  25.990   5.900   4.705
63038W        W31456  11.282  41.901   3.362
63039W        W31457  35.065  15.651   1.870
63040W        W31458  19.545  26.672  11.878
63041W        W31459  37.908  36.081   0.874
63042W        W31460  32.452  28.628  11.534
63043W        W31461  25.003  44.950  13.395
63044W        W31462  28.021  34.564   2.891
63045W        W31463  21.038   1.952   1.276
63046W        W31464   9.688  37.441   0.883
63047W        W31465  41.318  28.975  12.571
63048W        W31466  15.231   7.699   2.181
63049W        W31467  21.169  25.121   4.650
63050W        W31468  35.933   3.291   3.299
63051W        W31469  38.453   8.832  12.549
63052W        W31470   6.749   2.939   4.173
63053W        W31471  13.161  18.549  10.968
63054W        W31472  22.015  23.085  14.328
63055W        W31473  38.025  24.721  10.910
63056W        W31474  26.043  25.110  13.037
63057W        W31475  43.485   3.918   2.867
63058W        W31476   3.459  21.216   1.907
63059W        W31477  30.995  16.161   2.370
63060W        W31478   1.741  32.419   0.362
63061W        W31479  21.629  26.526  10.640
63062W        W31480  36.397  14.199   3.730
63063W        W31481  27.956  26.686   1.253
63064W        W31482  12.352  29.669  13.884
63065W        W31483  34.991  41.842   4.701
63066W        W31484  22.101  31.607   4.113
63067W        W31485  39.993  25.539  14.369
63068W        W31486   8.211   2.960  12.372
63069W        W31487  21.023  40.052   4.802
63070W        W31488  17.134  35.513  14.781
63071W        W31489  18.067  40.434  11.921
63072W        W31490  10.735  27.669  11.067
63073W        W31491  22.712   0.284   3.358
63074W        W31492  39.494  30.071  13.970
63075W        W31493  39.958  27.473  14.331
63076W        W31494   2.233   7.411   5.263
63077W        W31495  43.803  43.773  12.060
63078W        W31496   8.744   8.249   1.898
63079W        W31497  34.374   2.911  11.101
63080W        W31498  32.890   4.917   4.813
63081W        W31499  20.757  40.958  11.033
63082W        W31500  13.845  11.152  13.330
63083W        W31501  16.302   7.231  12.568
63084W        W31502  33.601  30.108   0.859
63085W        W31503  42.464  26.654  12.068
63086W        W31504  40.322  22.718  14.333
63087W        W31505  39.349   6.722   4.222
63088W        W31506  15.139  16.306   1.422
63089W        W31507  43.504   3.866   4.838
63090W        W31508  21.630   6.222  14.316
63091W        W31509  42.406  44.869  13.960
63092W        W31510  29.430  25.160   5.293
63093W        W31511  40.903  33.036  14.021
63094W        W31512  31.147  41.475  14.327
63095W        W31513  20.698  27.642  14.366
63096W        W31514  44.969   5.896   4.346
63097W        W31515  15.777  38.018  11.886
63098W        W31516  37.459  27.564   1.444
63099W        W31517  41.914  43.912   2.322
63100W        W31518  26.671  20.207  12.044
63101W        W31519  28.530  10.868   2.309
63102W        W31520  28.572   4.834  13.521
63103W        W31521   5.835  27.547  11.914
63104W        W31522  31.979  12.243  11.420
63105W        W31523   8.304  10.819  11.439
63106W        W31524   9.835  23.124   3.237
63107W        W31525  20.113  44.915   3.639
63108W        W31526  12.651  14.591  14.395
63109W        W31527  18.719  44.781  13.038
63110W        W31528  12.250  35.566  12.925
63111W        W31529  34.092  32.107  13.006
63112W        W31530   6.912  39.878   4.320
63113W        W31531  35.954  15.185  13.510
63114W        W31532  37.015  25.634   4.700
63115W        W31533  21.122  15.589  11.964
63116W        W31534  14.623   6.406   3.632
63117W        W31535  35.961  33.938   2.805
63118W        W31536  29.986  34.909   3.700
63119W        W31537  35.995   1.265   0.762
63120W        W31538  14.331  40.939   2.730
63121W        W31539  38.009  34.022   2.798
63122W        W31540  34.877  37.076   3.298
63123W        W31541   1.867  42.501   2.375
63124W        W31542  23.200  15.670   4.733
63125W        W31543  23.048  43.498  14.893
63126W        W31544  31.601  14.154   1.907
63127W        W31545  12.735  33.586   4.170
63128W        W31546   6.210  33.441   4.147
63129W        W31547  25.150  42.474   0.292
63130W        W31548   3.222  37.950  14.370
63131W        W31549  17.561  17.565   2.365
63132W        W31550  11.234  43.883   0.341
63133W        W31551  18.295  39.993   1.851
63134W        W31552   3.879  15.774  13.308
63135W        W31553  43.376  13.316  11.594
63136W        W31554  11.811  10.674  12.862
63137W        W31555  31.039  43.382   1.304
63138W        W31556  26.621  42.387   3.347
63139W        W31557  10.373   9.871   4.700
63140W        W31558   8.672  10.349   4.330
63141W        W31559   0.386   1.870  12.575
63142W        W31560  19.048   4.738   3.247
63143W        W31561  40.971   3.932   3.738
63144W        W31562   5.233  30.512   3.776
63145W        W31563  41.530  17.633   0.393
63146W        W31564  26.530  10.257  14.283
63147W        W31565  39.995  15.777   0.914
63148W        W31566  37.503   7.174  13.522
63149W        W31567  32.600   5.237  14.483
63150W        W31568  34.486  35.102   4.803
63151W        W31569  21.060  24.096   1.249
63152W        W31570  19.097  17.751  12.049
63153W        W31571  41.452   6.789   2.375
63154W        W31572  11.288  23.719  12.956
63155W        W31573  40.482  42.959   4.727
63156W        W31574  28.474  25.120  14.301
63157W        W31575  36.501  28.988  11.089
63158W        W31576   6.700  22.052  13.052
63159W        W31577  22.088  11.688   0.904
63160W        W31578  11.626   6.238   0.747
63161W        W31579   7.367   9.240  12.928
63162W        W31580   2.341  15.236   0.290
63163W        W31581  32.404  43.765  12.443
63164W        W31582  43.869  16.753  11.525
63165W        W31583  35.405  30.018   1.226
63166W        W31584  40.811  38.902  14.364
63167W        W31585  20.671  41.918  13.910
63168W        W31586  42.403  24.650  11.496
63169W        W31587  16.306   7.220   1.884
63170W        W31588  28.130  33.918   2.265
63171W        W31589  10.721   8.867  11.377
63172W        W31590   2.736  39.044   4.214
63173W        W31591  28.937  19.282   1.888
63174W        W31592  41.340  28.619   3.191
63175W        W31593  27.606  37.857  10.944
63176W        W31594  20.095  44.866  13.339
63177W        W31595  21.714  33.059   1.742
63178W        W31596  24.096  26.143  13.806
63179W        W31597  18.265   4.849   3.846
63180W        W31598   3.728  20.271  10.612
63181W        W31599   1.736  17.179  13.496
63182W        W31600   0.829  40.548  13.390
63183W        W31601  14.737  13.281   4.346
63184W        W31602   8.196  11.358   0.903
63185W        W31603  26.630  27.083  12.537
63186W        W31604  32.605  41.352   4.773
63187W        W31605   2.254  19.098  14.889
63188W        W31606  28.636  21.211   0.385
63189W        W31607   6.857   2.426   4.256
63190W        W31608  34.548   8.657  14.449
63191W        W31609  30.163   6.215   2.306
63192W        W31610   6.758  19.735   2.190
63193W        W31611  34.025  21.149  14.898
63194W        W31612  10.167   3.225   2.256
63195W        W31613  19.664  13.643   1.374
63196W        W31614  28.999   1.249   1.357
63197W        W31615  38.346  31.410  13.545
63198W        W31616  20.769  30.042  12.483
63199W        W31617   7.217  21.059   1.350
63200W        W31618  21.044   7.415   4.699
63201W        W31619  12.237  15.197   2.265
63202W        W31620  11.137  10.318   0.863
63203W        W31621  16.791   0.467  11.600
63204W        W31622  43.827   2.942  10.464
63205W        W31623  39.037   8.348   4.212
63206W        W31624  20.068   5.370   1.860
63207W        W31625  32.595  26.644  14.485
63208W        W31626  43.784  14.695   9.486
63209W        W31627  32.909  38.371   2.783
63210W        W31628   8.814  13.131   2.326
63211W        W31629  39.934  33.539  12.089
63212W        W31630  11.692   4.914   5.246
63213W        W31631  26.100  32.514   4.808
63214W        W31632  16.166  20.708   2.308
63215W        W31633  43.389  44.338   4.205
63216W        W31634   2.340  42.883   0.946
63217W        W31635  42.015   6.818  12.825
63218W        W31636  20.181  31.407   1.403
63219W        W31637  30.561  32.956  11.118
63220W        W31638  15.309  33.115   2.792
63221W        W31639  15.308  16.199  12.389
63222W        W31640   6.230   4.253   4.660
63223W        W31641  19.746  38.068  12.933
63224W        W31642  29.078  26.108  11.600
63225W        W31643   5.379   8.668  11.949
63226W        W31644  36.087  15.791  12.838
63227W        W31645   2.733   2.348  11.913
63228W        W31646  10.254  37.017   2.403
63229W        W31647  39.356   7.776  14.823
63230W        W31648  27.114  40.506  10.974
63231W        W31649  25.025   3.305  13.393
63232W        W31650  10.733  17.636  11.068
63233W        W31651  19.212  14.819   0.298
63234W        W31652  35.022  36.073   9.939
63235W        W31653  16.573  14.617   1.802
63236W        W31654  10.809  31.920   3.234
63237W        W31655  19.775  25.086  11.121
63238W        W31656  28.966  44.486  14.867
63239W        W31657  29.650  35.905  10.536
63240W        W31658  15.763  13.836   2.820
63241W        W31659  32.004  26.097  12.911
63242W        W31660  36.058  34.575   4.231
63243W        W31661   0.874  17.648  10.587
63244W        W31662  28.663  14.599  11.587
63245W        W31663  27.500  42.425   1.310
63246W        W31664  25.612  17.258   2.721
63247W        W31665   8.895  12.757   4.188
63248W        W31666  26.555  36.424   0.422
63249W        W31667  25.179   6.798   1.733
63250W        W31668   2.745  32.391  14.892
63251W        W31669  37.017  24.591   4.789
63252W        W31670  26.472  34.988  11.551
63253W        W31671  34.576   7.363  13.002
63254W        W31672  43.817   9.793   2.212
63255W        W31673   8.718   0.897   4.703
63256W        W31674  15.612  44.313  13.792
63257W        W31675  33.518  14.225   1.828
63258W        W31676  10.748  20.713  14.786
63259W        W31677  17.558  16.146  11.009
63260W        W31678  44.005   6.324  14.281
63261W        W31679  24.651  36.397  13.988
63262W        W31680   4.859  37.059   2.244
63263W        W31681  29.078  12.664   3.163
63264W        W31682  28.050  25.141   1.762
63265W        W31683  43.433  31.948  10.598
63266W        W31684  31.069  40.806   3.855
63267W        W31685   0.352   5.892  10.610
63268W        W31686  20.164  37.397  14.808
63269W        W31687  14.100  17.724  11.065
63270W        W31688  33.524  27.643  10.021
63271W        W31689   9.850  25.116   4.199
63272W        W31690  18.553  13.617  13.464
63273W        W31691  18.186  11.138  14.772
63274W        W31692  32.134  36.904  14.844
63275W        W31693   9.888  31.495  12.419
63276W        W31694  20.194   0.299  11.936
63277W        W31695  21.669  44.853   2.211
63278W        W31696   9.385   3.419  14.845
63279W        W31697  18.259   7.815   2.693
63280W        W31698  30.471   4.824  12.346
63281W        W31699  40.823  15.307   1.876
63282W        W31700   9.849  19.745   4.749
63283W        W31701   2.451   8.699   2.771
63284W        W31702  32.920  30.632  14.432
63285W        W31703  20.769  18.145  10.935
63286W        W31704  28.454  12.661   3.637
63287W        W31705  13.313   9.698  14.999
63288W        W31706  42.845   2.842   2.245
63289W        W31707  24.607  20.027  11.446
63290W        W31708  15.293  16.171   3.309
63291W        W31709  25.619  21.259  11.962
63292W        W31710  44.410  23.143   0.248
63293W        W31711  20.604  22.072   4.664
63294W        W31712  20.109  35.961  13.856
63295W        W31713   6.894  30.554  11.900
63296W        W31714  40.966   9.862  12.431
63297W        W31715   1.848  19.746  10.069
63298W        W31716  34.413  41.791   4.198
63299W        W31717  16.282  40.399  14.818
63300W        W31718   8.702  25.023   0.423
63301W        W31719  41.487  35.390   0.730
63302W        W31720   7.722  24.018   0.424
63303W        W31721  16.759  33.595   1.435
63304W        W31722   0.790  38.353  11.530
63305W        W31723   6.241   4.903  10.607
63306W        W31724  29.979  43.877  11.086
63307W        W31725  22.244  32.029  13.810
63308W        W31726   5.356  16.744  10.451
63309W        W31727  33.050  33.064  12.046
63310W        W31728   1.779  19.598  11.462
63311W        W31729  31.509  22.170   2.415
63312W        W31730  33.408   1.885   2.671
63313W        W31731  10.728   4.788  11.562
63314W        W31732  23.099  32.513  10.523
63315W        W31733   4.286   4.702  13.501
63316W        W31734  21.255  36.995  13.358
63317W        W31735  25.084  36.970  10.447
63318W        W31736  39.397  21.241  10.428
63319W        W31737  36.508  42.380   2.805
63320W        W31738  44.985  21.710  12.072
63321W        W31739  36.454   4.835   3.382
63322W        W31740  38.350  35.878  13.463
63323W        W31741  16.596   9.315   3.250
63324W        W31742   2.281   5.314  13.829
63325W        W31743  25.087  43.902   2.207
63326W        W31744  11.710  33.908   1.316
63327W        W31745  22.533  42.843  10.057
63328W        W31746  44.818   2.460  12.851
63329W        W31747  30.114  42.018   1.375
63330W        W31748   7.203  44.917   3.734
63331W        W31749  44.307  39.992  10.454
63332W        W31750  11.710  34.427   2.377
63333W        W31751   0.942  28.068  11.969
63334W        W31752   4.820  24.544  14.906
63335W        W31753   7.326   9.744   1.392
63336W        W31754  28.538  24.706  12.483
63337W        W31755  10.876  23.150   3.682
63338W        W31756  17.103  12.117   4.603
63339W        W31757   9.309  36.459  13.911
63340W        W31758  42.971  24.066  10.974
63341W        W31759  28.143   4.910   3.783
63342W        W31760  34.972   5.830   4.686
63343W        W31761  14.252  15.740   3.715
63344W        W31762  24.592  43.284  11.439
63345W        W31763  29.143  11.829  10.618
63346W        W31764  15.728  23.624   0.409
63347W        W31765  23.032   6.902  11.535
63348W        W31766  43.790  26.002  11.075
63349W        W31767  22.601  34.490   4.603
63350W        W31768  37.462   5.858   3.150
63351W        W31769  33.536  22.245   3.297
63352W        W31770  38.956  18.259   4.224
63353W        W31771  12.256  31.497  13.385
63354W        W31772   0.259  32.082   2.363
63355W        W31773  13.165  22.194   0.264
63356W        W31774   2.920  21.581  12.832
63357W        W31775   1.888  37.348  11.104
63358W        W31776  26.035  35.523  11.539
63359W        W31777  43.871  39.024   2.244
63360W        W31778  18.731  27.646   0.849
63361W        W31779  30.629  21.748  11.397
63362W        W31780  33.579  21.571  14.865
63363W        W31781  41.399  22.544  14.973
63364W        W31782  18.549  38.039   4.162
63365W        W31783   1.392  12.735   1.911
63366W        W31784  11.733  14.613   3.168
63367W        W31785  21.019   9.256  10.451
63368W        W31786  42.805   0.433  12.825
63369W        W31787   0.836  34.072   4.124
63370W        W31788   5.265  27.179  13.854
63371W        W31789   5.691   8.269   1.730
63372W        W31790  29.018  12.736   0.764
63373W        W31791  39.377  15.312  11.468
63374W        W31792  33.129  40.383  13.308
63375W        W31793  18.686   1.271   2.757
63376W        W31794  42.346  43.916  10.922
63377W        W31795  42.436  11.686   4.762
63378W        W31796   3.421  34.026  12.529
63379W        W31797  23.582  27.689   2.217
63380W        W31798  23.536  30.960  14.466
63381W        W31799   8.293  39.349   0.835
63382W        W31800   3.435  14.733   0.778
63383W        W31801  26.536  32.611  14.770
63384W        W31802  13.626  23.659   1.363
63385W        W31803  18.125  44.302  10.901
63386W        W31804  44.416  24.573  13.329
63387W        W31805  38.989  38.874   0.411
63388W        W31806  20.734  35.528   1.840
63389W        W31807   3.377   0.893  11.093
63390W        W31808  27.978  37.413  11.985
63391W        W31809  27.614  35.931   4.353
63392W        W31810  22.743  44.805   4.680
63393W        W31811  33.467  39.966  10.444
63394W        W31812  36.897   2.955  12.393
63395W        W31813   1.932  43.952   1.409
63396W        W31814   1.438  10.347   4.779
63397W        W31815  40.465   8.250   3.167
63398W        W31816   4.424  32.471   3.242
63399W        W31817  16.589  25.679   1.897
63400W        W31818   2.768  44.988  11.034
63401W        W31819  22.740  27.461  12.922
63402W        W31820  29.467  11.256   2.808
63403W        W31821  31.557  27.168   2.865
63404W        W31822  31.428  44.953   1.320
63405W        W31823  43.476   7.782   4.188
63406W        W31824   2.811  40.356  13.014
63407W        W31825   1.446  26.146  13.958
63408W        W31826  33.055  34.873  14.417
63409W        W31827  16.722  36.503   1.404
63410W        W31828  23.609  12.273  10.975
63411W        W31829  35.049  18.241  10.467
63412W        W31830  12.272  40.937  12.092
63413W        W31831  16.810   5.338   4.642
63414W        W31832  19.601   5.390   2.228
63415W        W31833  26.985  18.615   1.246
63416W        W31834   9.262  11.848   0.416
63417W        W31835  22.701  31.086  13.044
63418W        W31836  38.889   0.886   0.895
63419W        W31837  21.018  43.914  10.463
63420W        W31838   7.203  40.353  14.855
63421W        W31839  31.110  20.155   1.367
63422W        W31840  37.837  12.836  14.915
63423W        W31841  11.143  32.415  10.969
63424W        W31842   8.889  31.897  12.463
63425W        W31843  31.503  15.136  14.954
63426W        W31844  14.237  14.094   3.663
63427W        W31845  22.047  29.055   4.805
63428W        W31846  41.367  33.900  12.382
63429W        W31847  22.051  15.107   1.767
63430W        W31848   4.838  40.939  10.950
63431W        W31849  42.958  13.165   1.902
63432W        W31850   7.714  33.953   4.335
63433W        W31851  28.164  28.649   4.668
63434W        W31852  39.862  17.301  10.609
63435W        W31853   8.215  42.808   3.260
63436W        W31854  14.300  21.519  14.010
63437W        W31855  14.213  42.281  10.603
63438W        W31856  20.579  36.986  13.021
63439W        W31857  35.903  27.102   0.414
63440W        W31858  30.532   2.928   0.797
63441W        W31859   4.811  23.125  10.985
63442W        W31860  32.126  36.989   1.315
63443W        W31861   6.772  12.767  10.643
63444W        W31862  23.668   6.917   0.483
63445W        W31863  24.200  43.394   1.378
63446W        W31864  13.297  29.039  14.821
63447W        W31865  25.495  11.277  10.012
63448W        W31866  37.040   5.856   4.344
63449W        W31867  43.286   7.669  13.448
63450W        W31868  41.362  40.448   2.395
63451W        W31869  38.562  44.490  10.619
63452W        W31870  16.622  39.013  13.822
63453W        W31871  27.084  14.663  13.850
63454W        W31872  24.585  25.512  12.978
63455W        W31873  36.417   2.922  13.421
63456W        W31874   6.798   8.189  12.553
63457W        W31875  27.625   5.820  14.841
63458W        W31876  37.465  17.645  12.384
63459W        W31877  41.042  43.810  12.503
63460W        W31878  36.066   7.897  14.769
63461W        W31879  22.540  13.106   2.214
63462W        W31880   4.777  25.184  14.840
63463W        W31881  14.097  44.850  11.877
63464W        W31882  29.025  34.977  12.844
63465W        W31883  36.494  14.777   2.189
63466W        W31884  24.058  19.244  14.495
63467W        W31885  23.004  40.365   0.851
63468W        W31886   1.309  26.659  10.071
63469W        W31887  26.542   2.292  12.858
63470W        W31888   4.427  19.564   0.746
63471W        W31889  17.218   0.288   2.813
63472W        W31890  34.492  36.919   0.347
63473W        W31891   6.212  34.971  12.035
63474W        W31892  17.614   4.841  11.909
63475W        W31893  10.641  12.181  10.928
63476W        W31894  11.724   3.446   1.341
63477W        W31895  25.595   7.299   3.817
63478W        W31896  24.156   0.972  10.984
63479W        W31897   8.350   0.819   0.381
63480W        W31898   2.967  40.037  10.986
63481W        W31899  16.191  20.739  12.074
63482W        W31900   7.751   0.290   0.740
63483W        W31901   0.820  23.060  12.982
63484W        W31902  33.539  23.674   2.246
63485W        W31903  13.226  36.414  13.472
63486W        W31904   5.923  13.172   4.126
63487W        W31905   8.338  42.027  10.890
63488W        W31906  40.313   9.731   0.942
63489W        W31907  29.445  42.869  11.453
63490W        W31908  21.145  24.672   2.221
63491W        W31909  23.536  35.531  12.565
63492W        W31910  35.417   0.354   4.155
63493W        W31911  16.701  17.300  11.433
63494W        W31912   8.389  13.779   1.309
63495W        W31913  13.839   8.875  14.823
63496W        W31914  33.584   5.343  11.412
63497W        W31915   9.321  21.690   4.129
63498W        W31916  37.988  28.680  14.419
63499W        W31917   1.811  22.585  12.543
63500W        W31918  31.604   3.402   2.210
63501W        W31919  37.396  32.098  12.527
63502W        W31920  39.507  28.677  13.989
63503W        W31921  26.158  28.574   2.372
63504W        W31922  29.612  21.528  11.508
63505W        W31923  21.123   7.180   1.287
63506W        W31924   1.334  39.900  14.999
63507W        W31925   7.267   0.364   1.783
63508W        W31926  25.074  23.159   1.929
63509W        W31927  17.565  20.265  11.487
63510W        W31928  18.613  26.198   0.782
63511W        W31929  11.711   9.756   4.790
63512W        W31930   5.214  26.967  13.520
63513W        W31931  28.063  23.044  14.898
63514W        W31932  14.202  19.261  12.082
63515W        W31933  39.039  17.599  14.867
63516W        W31934  36.893  15.233   2.899
63517W        W31935   1.853  29.449  14.316
63518W        W31936  38.331  33.544   4.236
63519W        W31937   5.875  21.090   4.597
63520W        W31938   1.814  44.949   4.323
63521W        W31939  24.667   1.738  13.807
63522W        W31940  40.023  34.949   4.142
63523W        W31941  35.527  42.448  14.894
63524W        W31942  28.126   3.271   0.248
63525W        W31943  39.021  25.652   3.309
63526W        W31944  38.981  11.826   4.269
63527W        W31945  10.831  10.371   1.448
63528W        W31946  39.404  20.602   0.887
63529W        W31947   4.223  31.900   2.223
63530W        W31948  10.203  43.281  14.445
63531W        W31949  44.905  43.990   1.276
63532W        W31950  21.642  41.817  14.815
63533W        W31951  16.165   3.767  12.884
63534W        W31952  39.005  38.989  12.078
63535W        W31953  30.082  14.589   3.322
63536W        W31954  38.843  18.661   3.659
63537W        W31955   5.738   4.378   3.664
63538W        W31956  38.425  18.669   3.762
63539W        W31957   0.415  41.935   2.865
63540W        W31958  38.412  18.083   0.816
63541W        W31959  37.448  10.273   1.294
63542W        W31960  43.388  13.289  11.976
63543W        W31961   4.348   2.233   3.330
63544W        W31962  24.162  18.277   1.882
63545W        W31963  14.689  30.124  14.498
63546W        W31964  21.223  41.532   1.935
63547W        W31965  12.652  18.618   1.871
63548W        W31966   9.799  43.296  12.545
63549W        W31967  36.932  17.719  12.864
63550W        W31968  26.161   4.220   3.839
63551W        W31969  28.971  16.101  13.930
63552W        W31970  32.957   5.287   2.713
63553W        W31971  10.224  40.904   2.712
63554W        W31972   1.850  36.498   3.258
63555W        W31973   3.733   7.759  11.407
63556W        W31974  20.529  18.779  14.889
63557W        W31975   6.200  13.790  12.548
63558W        W31976   3.953  20.764  10.970
63559W        W31977  31.537  40.499  14.019
63560W        W31978  16.625  28.516   2.823
63561W        W31979  17.197  38.989   3.164
63562W        W31980  29.631  43.776   1.343
63563W        W31981  23.150  37.351  12.071
63564W        W31982  11.228  11.816   0.446
63565W        W31983  29.159  31.055  13.512
63566W        W31984   0.760  16.812   4.680
63567W        W31985  27.647  38.837   0.483
63568W        W31986  17.733  31.926   1.905
63569W        W31987  12.118  37.085  10.622
63570W        W31988  37.874  19.564  13.312
63571W        W31989  35.043  40.356   2.230
63572W        W31990  44.828  27.482   3.833
63573W        W31991  26.598  33.986  10.619
63574W        W31992   0.961  11.288  14.911
63575W        W31993  18.545  21.103  12.483
63576W        W31994  26.654  24.565  13.873
63577W        W31995  28.661   4.240  13.037
63578W        W31996  43.988  42.313   0.435
63579W        W31997  11.751  22.724  11.098
63580W        W31998  16.696  24.138  11.017
63581W        W31999  19.575  14.146   0.334
63582W        W32000   0.778  20.580   0.913
63583W        W32001  39.368  37.851   3.784
63584W        W32002  26.133  43.799   3.321
63585W        W32003  37.934  12.220  14.852
63586W        W32004  24.560  21.099   4.623
63587W        W32005  19.075  23.103   2.302
63588W        W32006  40.921  12.221   0.921
63589W        W32007   5.332  26.685   0.403
63590W        W32008  12.610   9.881   2.291
63591W        W32009   7.910  27.688  11.546
63592W        W32010  13.741  18.714   4.748
63593W        W32011  44.863  17.701   0.290
63594W        W32012  19.770  30.425   0.768
63595W        W32013  15.764  28.056   0.368
63596W        W32014  19.152   7.696   3.248
63597W        W32015  41.031   2.804  14.415
63598W        W32016  10.730   0.378  14.971
63599W        W32017  10.303  32.402  14.381
63600W        W32018  14.294  44.450  11.029
63601W        W32019  10.269  37.964   4.233
63602W        W32020  22.626   3.447   2.231
63603W        W32021  29.617  24.570  11.118
63604W        W32022  13.718  32.902   1.870
63605W        W32023  31.075  26.634  11.377
63606W        W32024   9.377  34.478   0.924
63607W        W32025  13.266  29.647  14.862
63608W        W32026  36.365  41.904   1.929
63609W        W32027   0.942  24.634  13.039
63610W        W32028  31.914  21.149   4.794
63611W        W32029  19.095  42.451   1.360
63612W        W32030  17.779  33.008  14.915
63613W        W32031  27.033  42.823  13.312
63614W        W32032   2.753  26.020   0.351
63615W        W32033   9.220  12.295  14.025
63616W        W32034  32.551  12.125  13.415
63617W        W32035   3.216   2.300   1.423
63618W        W32036  31.451  26.165  13.457
63619W        W32037  22.218  20.206  14.401
63620W        W32038  16.277  13.739  11.924
63621W        W32039  11.716   3.877  11.454
63622W        W32040  16.777  19.564   2.183
63623W        W32041  26.141  18.132   0.334
63624W        W32042   9.389  40.477   2.670
63625W        W32043   7.375  39.898  11.124
63626W        W32044   4.877  37.850   4.781
63627W        W32045  31.980   6.775  12.010
63628W        W32046   7.820  26.696   0.356
63629W        W32047  13.242  10.241   0.934
63630W        W32048  27.613  10.691   2.239
63631W        W32049  25.519  17.227   3.759
63632W        W32050  44.424   2.379   3.177
63633W        W32051  41.988   6.313  14.292
63634W        W32052   1.431  36.014   4.342
63635W        W32053  41.976   5.924  13.815
63636W        W32054  27.623  25.171  12.409
63637W        W32055  29.167   9.307  11.950
63638W        W32056  37.566  26.513   2.698
63639W        W32057  21.104  32.101  13.056
63640W        W32058   4.242   1.738  14.511
63641W        W32059   2.433  38.963   0.307
63642W        W32060   7.852  39.821   2.879
63643W        W32061  25.127  38.534   1.717
63644W        W32062  11.160   7.416   3.320
63645W        W32063  19.263   7.414   2.803
63646W        W32064  23.533  38.019   1.243
63647W        W32065   7.210  40.373  11.942
63648W        W32066  40.907  33.582  13.049
63649W        W32067   5.861   1.878  13.999
63650W        W32068   7.230  11.851  12.009
63651W        W32069  44.343   1.249  14.788
63652W        W32070  33.422  41.343   0.849
63653W        W32071   2.409  19.650  14.388
63654W        W32072  14.620   3.899   4.796
63655W        W32073  26.480  30.077   1.854
63656W        W32074  41.848  13.222   1.213
63657W        W32075  11.685  22.545   2.706
63658W        W32076  21.753  44.768  14.775
63659W        W32077  15.174  13.178   0.289
63660W        W32078  44.315   6.858  11.568
63661W        W32079  38.047  13.601  13.856
63662W        W32080  20.072  22.732   4.346
63663W        W32081   0.748  40.399  11.584
63664W        W32082   4.825   2.814  12.055
63665W        W32083  32.495  16.734   0.893
63666W        W32084  27.143  42.526  12.427
63667W        W32085  15.790  34.895  12.479
63668W        W32086  28.670   1.741  13.341
63669W        W32087  23.042  29.563   3.303
63670W        W32088  16.590  15.286   4.117
63671W        W32089  36.902  37.353   1.694
63672W        W32090   0.756  43.928   1.763
63673W        W32091  42.286   3.757   1.431
63674W        W32092  31.599  19.771  11.500
63675W        W32093  12.615  18.089  11.609
63676W        W32094  16.688  17.195  14.808
63677W        W32095  25.680  13.314  10.421
63678W        W32096  22.154  39.851  14.855
63679W        W32097   8.896   4.212  11.589
63680W        W32098  39.885  12.847   0.870
63681W        W32099  24.682   9.201  13.956
63682W        W32100   9.848  15.685   3.181
63683W        W32101  19.150  30.147   4.837
63684W        W32102   6.776   1.866   1.815
63685W        W32103   2.401  41.367   5.192
63686W        W32104   9.815  13.137   1.381
63687W        W32105  10.358  26.202  13.936
63688W        W32106  31.413  13.807  12.437
63689W        W32107  18.156  15.189   0.443
63690W        W32108   5.219  29.025   2.419
63691W        W32109  19.111  32.525   3.855
63692W        W32110  14.103  32.630  11.954
63693W        W32111  31.995  19.662   1.805
63694W        W32112  34.583  26.161  12.514
63695W        W32113  12.721  37.442   5.318
63696W        W32114   6.741  23.151  11.593
63697W        W32115  29.936   6.198  12.553
63698W        W32116   1.356   1.352  14.489
63699W        W32117  25.545  21.248  10.555
63700W        W32118  25.648  38.906  10.946
63701W        W32119  38.852   3.308  12.386
63702W        W32120   1.859  34.590   0.890
63703W        W32121  33.415   9.195  11.535
63704W        W32122  36.098  39.974   2.190
63705W        W32123  38.414  43.001  10.527
63706W        W32124  26.603  16.306   4.788
63707W        W32125  10.271   6.343   0.857
63708W        W32126  32.042   0.268   1.378
63709W        W32127  18.243  31.896  11.128
63710W        W32128  23.222  36.408   0.745
63711W        W32129  36.892  38.949  10.893
63712W        W32130  18.191  20.232  10.479
63713W        W32131   0.419  35.550   1.315
63714W        W32132  23.162  30.058   3.353
63715W        W32133  21.240  26.457  11.976
63716W        W32134  21.591  20.714   0.888
63717W        W32135  33.914  37.833   4.829
63718W        W32136  14.796   5.688   1.832
63719W        W32137  23.689  36.843   4.714
63720W        W32138  11.286  24.095   2.812
63721W        W32139  43.499  38.403  13.821
63722W        W32140  44.361  40.388  12.938
63723W        W32141  17.261  16.212   4.631
63724W        W32142  41.845  30.504   1.390
63725W        W32143   8.854  42.898  14.389
63726W        W32144   3.946   8.276  11.550
63727W        W32145  26.074  41.491  11.126
63728W        W32146  19.631  30.439   2.692
63729W        W32147  30.604  30.055  10.472
63730W        W32148  42.395  23.615  13.539
63731W        W32149  22.216  37.960   0.378
63732W        W32150  34.437  26.561   0.306
63733W        W32151  43.014  23.141  12.035
63734W        W32152   3.742   2.835  12.028
63735W        W32153  19.675  41.347   4.178
63736W        W32154   9.341  11.224  10.446
63737W        W32155   8.780  36.062   3.844
63738W        W32156  14.716  22.188  14.433
63739W        W32157   8.278  32.906   1.327
63740W        W32158  20.053  23.664  13.543
63741W        W32159  24.134  30.097  10.463
63742W        W32160  21.738  33.086  13.362
63743W        W32161  29.009  37.879  14.998
63744W        W32162  35.940   9.773   4.736
63745W        W32163   3.326   0.434  10.602
63746W        W32164  16.697  25.153  11.997
63747W        W32165  10.819  38.478  13.468
63748W        W32166  28.153  39.462   3.157
63749W        W32167  38.477   0.339  13.492
63750W        W32168  37.885  12.729  13.424
63751W        W32169  40.341  28.489   4.619
63752W        W32170  35.487  14.766  12.368
63753W        W32171  42.793   4.803  13.940
63754W        W32172  17.635  21.198  14.905
63755W        W32173  43.273   7.308  10.087
63756W        W32174  27.513   2.335   4.836
63757W        W32175   0.273  28.507  13.979
63758W        W32176  36.571  42.797  12.490
63759W        W32177   1.741  43.876  10.560
63760W        W32178   0.915  37.028   0.243
63761W        W32179  43.422  21.065  10.436
63762W        W32180  12.700   4.708   4.243
63763W        W32181  35.487  44.452   0.771
63764W        W32182  27.488  43.328   0.280
63765W        W32183  30.609  38.523  11.551
63766W        W32184   7.415  31.511  13.836
63767W        W32185  29.433  12.183  13.936
63768W        W32186   3.920  37.448  13.324
63769W        W32187  29.595  36.082  10.076
63770W        W32188  21.132  39.832   9.508
63771W        W32189   6.875  16.074  13.060
63772W        W32190  10.785   7.736  10.989
63773W        W32191  17.094  20.769   4.606
63774W        W32192   4.833  39.887   1.720
63775W        W32193  11.127  44.305   4.196
63776W        W32194  15.189   6.223  14.958
63777W        W32195  31.447  43.324   2.874
63778W        W32196   9.377  24.504  11.041
63779W        W32197   8.778  21.161  11.523
63780W        W32198  21.513  23.186  12.453
63781W        W32199   7.417  19.645   4.139
63782W        W32200  27.132  42.494  10.995
63783W        W32201   6.875  22.218   4.296
63784W        W32202  25.537  44.278   2.856
63785W        W32203  23.605  40.458   4.283
63786W        W32204  39.407  44.887  11.506
63787W        W32205  40.818   8.192  13.989
63788W        W32206  17.230  24.072   4.792
63789W        W32207  34.984   9.331   2.258
63790W        W32208  43.387  16.199  10.549
63791W        W32209   8.706   6.248  11.566
63792W        W32210  25.506  39.441   4.131
63793W        W32211   5.724   9.824  14.315
63794W        W32212  40.964  14.179  11.469
63795W        W32213  17.613  21.084  11.088
63796W        W32214  31.029   7.324   4.679
63797W        W32215  23.155  26.488   3.357
63798W        W32216  38.400  33.076   0.425
63799W        W32217  38.417  39.022  11.612
63800W        W32218  15.638  13.616   2.381
63801W        W32219  16.168  18.742  14.391
63802W        W32220   5.298  38.937   0.940
63803W        W32221   9.654   0.444  13.906
63804W        W32222  13.289  44.825   2.391
63805W        W32223  40.948  32.508  13.990
63806W        W32224   3.439  39.502   1.780
63807W        W32225   3.455  14.228  14.352
63808W        W32226  21.586  12.221  11.381
63809W        W32227   6.411  38.927   2.290
63810W        W32228   3.252  20.673  14.776
63811W        W32229  27.980  26.596  10.048
63812W        W32230  40.988   0.293   3.861
63813W        W32231  41.524  31.108   3.352
63814W        W32232  36.352   8.299  10.982
63815W        W32233  10.763  44.374  12.503
63816W        W32234  44.881  23.142   9.515
63817W        W32235  22.670  40.970  14.466
63818W        W32236  39.473  42.435   0.802
63819W        W32237   9.300   1.396   2.855
63820W        W32238   1.256  13.833  14.025
63821W        W32239   6.256  14.817   2.356
63822W        W32240  19.540  28.510   3.742
63823W        W32241   7.297  40.415   1.418
63824W        W32242  16.687  26.013  11.016
63825W        W32243  44.938  31.467  12.445
63826W        W32244  14.187  35.527   1.779
63827W        W32245  34.957   2.370   4.251
63828W        W32246  23.610   0.789   1.443
63829W        W32247  21.173   3.218  14.447
63830W        W32248  31.546  11.698  11.059
63831W        W32249  41.874  30.424  14.463
63832W        W32250  37.060  28.050   1.815
63833W        W32251   2.429  11.789   4.620
63834W        W32252  24.073  10.706  12.003
63835W        W32253  14.189  16.777  10.503
63836W        W32254  43.967  14.178  11.903
63837W        W32255  42.905   1.774  11.378
63838W        W32256   7.857   5.251  14.433
63839W        W32257  33.526  10.147   5.160
63840W        W32258  31.039  22.209   4.131
63841W        W32259  37.079  29.532  14.870
63842W        W32260  43.493  28.982   2.803
63843W        W32261  19.691   4.417  10.412
63844W        W32262  20.229  34.576  11.551
63845W        W32263  18.604  35.543   4.161
63846W        W32264  37.950  11.719   0.837
63847W        W32265  16.730   5.277   3.171
63848W        W32266   1.835  38.073   2.239
63849W        W32267  20.147  12.825  11.110
63850W        W32268  18.728   2.283   3.747
63851W        W32269  18.597   0.796   1.712
63852W        W32270  10.303  21.204  14.416
63853W        W32271   7.369  11.698  11.408
63854W        W32272  36.852  15.225  10.415
63855W        W32273   4.731  30.085  12.568
63856W        W32274   3.921  25.554   2.226
63857W        W32275   3.226  29.032  12.853
63858W        W32276  25.072  22.223   1.239
63859W        W32277   4.336   5.265  13.944
63860W        W32278  26.622  28.563   0.773
63861W        W32279  41.511  20.751   4.705
63862W        W32280  31.590  42.881   4.663
63863W        W32281  24.995  42.406   0.789
63864W        W32282  37.509   0.248  11.093
63865W        W32283  34.412  38.917  13.353
63866W        W32284  24.665  11.227  11.085
63867W        W32285   7.284  20.728   4.809
63868W        W32286  43.472  36.376  12.065
63869W        W32287  30.118   7.689   5.685
63870W        W32288  22.579   9.823   9.950
63871W        W32289  36.373   1.381  12.376
63872W        W32290  19.644  10.873   2.754
63873W        W32291   2.411   0.401   4.186
63874W        W32292   8.716  34.063   3.763
63875W        W32293  25.171   8.350   2.667
63876W        W32294   3.760  18.769  11.054
63877W        W32295  20.137  25.649  11.029
63878W        W32296  32.542  35.075  12.467
63879W        W32297  11.156  36.442  13.011
63880W        W32298   8.788  14.264   4.640
63881W        W32299   4.383  18.110   0.328
63882W        W32300  37.484  10.141  12.847
63883W        W32301   6.291  19.683  14.507
63884W        W32302  13.634  27.008   0.916
63885W        W32303  25.577  27.100  14.283
63886W        W32304   9.201  27.997   1.817
63887W        W32305  37.981  21.050   4.794
63888W        W32306  16.580  24.037  13.531
63889W        W32307  34.604   4.740   2.830
63890W        W32308   7.830   7.735  10.963
63891W        W32309  43.923  29.143  14.384
63892W        W32310  21.062  22.638  13.852
63893W        W32311   7.351  17.559  12.352
63894W        W32312  23.629  24.486   2.873
63895W        W32313  36.954  22.527  10.570
63896W        W32314  23.577  38.403  10.509
63897W        W32315   6.763  26.602  12.449
63898W        W32316   2.961  35.093   3.778
63899W        W32317  36.407  39.018  13.809
63900W        W32318   4.424  20.703   0.843
63901W        W32319  14.640  36.513   2.269
63902W        W32320  33.131  37.465  14.441
63903W        W32321  35.484  33.005  10.629
63904W        W32322  42.479  33.941   2.755
63905W        W32323  15.253   6.695   3.848
63906W        W32324  13.737  14.150  13.902
63907W        W32325  16.128  23.694  12.838
63908W        W32326  21.248  30.985  14.861
63909W        W32327  13.686  40.866   2.862
63910W        W32328   3.423  35.049   5.160
63911W        W32329   6.401  20.680   0.327
63912W        W32330  33.606  40.330  11.493
63913W        W32331  13.690  16.104   1.747
63914W        W32332   4.817  39.981  12.428
63915W        W32333  22.595  17.704  10.452
63916W        W32334  26.180  40.910  12.846
63917W        W32335  16.622   0.461   4.259
63918W        W32336  33.445   0.256  14.909
63919W        W32337  37.985  27.158  12.831
63920W        W32338  32.569  26.459   1.372
63921W        W32339  42.492  32.075   0.938
63922W        W32340  22.511   5.425   1.810
63923W        W32341   7.240  20.618  12.973
63924W        W32342  35.871  31.435   0.850
63925W        W32343  21.618  28.161   4.305
63926W        W32344  28.144  44.499  14.280
63927W        W32345  41.465  36.922   0.269
63928W        W32346   2.361   1.240  13.893
63929W        W32347   4.727  20.625  12.442
63930W        W32348  32.627  32.483  14.955
63931W        W32349  22.721  27.083  10.494
63932W        W32350  21.619  17.628  10.404
63933W        W32351  24.119  14.201  12.009
63934W        W32352   6.698  41.414   3.789
63935W        W32353  32.468   7.203  14.811
63936W        W32354  18.730   8.251  13.913
63937W        W32355  35.552  10.693  14.979
63938W        W32356  13.826  16.254  14.355
63939W        W32357  37.455  43.851  11.862
63940W        W32358   5.927  40.308   4.244
63941W        W32359   8.830  16.182  13.867
63942W        W32360   1.397   0.435  14.796
63943W        W32361  44.278  17.163  11.577
63944W        W32362  23.543  38.056   1.793
63945W        W32363   8.369  40.920  11.062
63946W        W32364   4.439  26.684   0.327
63947W        W32365  39.880  11.259  14.288
63948W        W32366   9.728  23.219  13.829
63949W        W32367  24.546   3.846   3.192
63950W        W32368  16.714   5.882  14.474
63951W        W32369  17.706  37.368  13.943
63952W        W32370  44.853   1.820  14.488
63953W        W32371  34.116  27.119  14.793
63954W        W32372   0.411  12.774   4.602
63955W        W32373  34.580  32.468   3.368
63956W        W32374  32.083  22.051  12.427
63957W        W32375  31.601   2.254  13.383
63958W        W32376   2.326  19.648   0.754
63959W        W32377  35.870  13.627   1.245
63960W        W32378   1.461  14.792   0.470
63961W        W32379  27.508  34.920  10.588
63962W        W32380   1.791  32.404   1.214
63963W        W32381   9.741  17.069   1.918
63964W        W32382  17.245   2.348   9.988
63965W        W32383  35.593  13.274   2.352
63966W        W32384  39.063  22.561  12.016
63967W        W32385  34.086  11.200   3.374
63968W        W32386  44.333  13.637  11.064
63969W        W32387  43.273   5.860  13.018
63970W        W32388  11.831  36.094  14.284
63971W        W32389  15.183  16.162  13.033
63972W        W32390  29.557  24.060  13.396
63973W        W32391  31.532  39.472   2.694
63974W        W32392  40.887  33.457  14.022
63975W        W32393  15.820  36.931  10.962
63976W        W32394  20.046  38.981  12.886
63977W        W32395  27.651   4.308   0.309
63978W        W32396  35.876   0.764   3.703
63979W        W32397  15.093   3.912   4.815
63980W        W32398   3.822   9.698  14.764
63981W        W32399   9.724   8.756  12.952
63982W        W32400  19.729  17.192  11.579
63983W        W32401  35.071  20.601  11.987
63984W        W32402  30.624  37.078  13.513
63985W        W32403  27.621  39.374  12.975
63986W        W32404  24.555  16.235  11.893
63987W        W32405  29.429  25.100   1.350
63988W        W32406  17.560  34.960   2.273
63989W        W32407   8.290   6.327  13.500
63990W        W32408  34.914  11.175   1.792
63991W        W32409  10.372  24.566  14.426
63992W        W32410   9.232  34.370   2.664
63993W        W32411  20.228  40.378  13.527
63994W        W32412  10.731   9.264  11.425
63995W        W32413   3.344  40.379  13.540
63996W        W32414  19.217   0.896   3.284
63997W        W32415   0.890  11.734   2.405
63998W        W32416  27.505   0.786  13.435
63999W        W32417  21.182  28.965  14.407
64000W        W32418  40.043  21.213   0.940
64001W        W32419  39.054  28.460   1.840
64002W        W32420  40.442  41.331  13.324
64003W        W32421  41.463   9.849  12.541
64004W        W32422  18.644  36.408   2.837
64005W        W32423  44.295  27.648   3.643
64006W        W32424  30.602  28.060   2.296
64007W        W32425   5.427  13.843   0.476
64008W        W32426  33.958  14.333   1.433
64009W        W32427  22.185  13.775  11.980
64010W        W32428  18.141   0.459  11.421
64011W        W32429  41.810  40.381  11.004
64012W        W32430  16.568   8.196   1.235
64013W        W32431  17.654  30.004   1.389
64014W        W32432   5.846  36.000   4.828
64015W        W32433  21.216  35.942   0.859
64016W        W32434  24.214  41.488   5.116
64017W        W32435  30.001  26.985   1.714
64018W        W32436   9.202  32.591  12.527
64019W        W32437  37.374  18.561   3.820
64020W        W32438   9.178  42.927   5.159
64021W        W32439  23.072   5.389  14.988
64022W        W32440  11.812   0.420  11.072
64023W        W32441  36.363   0.958  10.629
64024W        W32442   4.228  19.191  14.855
64025W        W32443  25.139   1.272  14.318
64026W        W32444   5.895  33.474   4.705
64027W        W32445  26.600  12.618   0.836
64028W        W32446  35.993  14.635  13.932
64029W        W32447  21.104  29.467  10.942
64030W        W32448  36.872  11.648  12.870
64031W        W32449  40.378  20.574   4.290
64032W        W32450   7.828  40.900   0.285
64033W        W32451   9.262  41.841   1.831
64034W        W32452   0.266  44.796  11.612
64035W        W32453   8.238  22.584  11.127
64036W        W32454  12.813  30.912  11.461
64037W        W32455  31.412  30.654   3.170
64038W        W32456   9.713  33.120   2.775
64039W        W32457  39.057  21.648   2.709
64040W        W32458  22.086  41.809  14.368
64041W        W32459   8.257  11.834   2.268
64042W        W32460  15.211   7.202   4.661
64043W        W32461  15.737  18.194  12.843
64044W        W32462  28.996  44.367   3.697
64045W        W32463  18.294  17.768  13.890
64046W        W32464  10.330  33.458  10.561
64047W        W32465  25.100   0.431  12.507
64048W        W32466   8.282   8.890  13.989
64049W        W32467  42.305  22.174   4.212
64050W        W32468   3.277  30.569  11.921
64051W        W32469  11.834  11.823  12.347
64052W        W32470  42.320  11.853   3.282
64053W        W32471  27.501  17.072   4.187
64054W        W32472   3.308  19.255   4.178
64055W        W32473  35.534  37.556  14.392
64056W        W32474  16.762  42.953   0.344
64057W        W32475  25.476   4.409  14.018
64058W        W32476  34.976  28.079   1.798
64059W        W32477  24.495  22.129   0.288
64060W        W32478  38.838  11.268  12.563
64061W        W32479  37.902  39.405   5.625
64062W        W32480   4.303  30.509   1.362
64063W        W32481  40.546   4.855   4.827
64064W        W32482  43.498   7.387   1.295
64065W        W32483  16.087  22.576   9.951
64066W        W32484   7.263   4.365   3.241
64067W        W32485  16.751  31.074  10.964
64068W        W32486  22.177   9.826  10.598
64069W        W32487  16.813   3.260   2.242
64070W        W32488  28.005  20.627   2.389
64071W        W32489  24.140  44.295   3.244
64072W        W32490  27.119  42.986  12.481
64073W        W32491  23.521  18.716   2.781
64074W        W32492  31.949  17.591  13.873
64075W        W32493  25.501  11.306   0.808
64076W        W32494  29.638  11.752  12.404
64077W        W32495  41.339   8.675   1.875
64078W        W32496  41.023   9.304  12.043
64079W        W32497  29.922  18.692   4.303
64080W        W32498  35.107  20.233  12.551
64081W        W32499  33.392   5.900   3.749
64082W        W32500  33.625  23.503  13.926
64083W        W32501  24.656  22.591  13.407
64084W        W32502  23.540   5.385  13.976
64085W        W32503  22.089  22.227  13.353
64086W        W32504  14.118  24.164   0.844
64087W        W32505   9.161  39.857   3.721
64088W        W32506  23.717   3.952   0.802
64089W        W32507  16.693  29.597  12.974
64090W        W32508  40.959  11.845   3.227
64091W        W32509  39.537  25.193  14.331
64092W        W32510  28.156   5.361   3.860
64093W        W32511   6.860  34.962   4.164
64094W        W32512  24.508   2.379  12.899
64095W        W32513  13.203   3.739   2.251
64096W        W32514  29.977  41.918  12.914
64097W        W32515  42.881   8.214  10.438
64098W        W32516  37.839  11.137   2.364
64099W        W32517   5.846  38.830   2.901
64100W        W32518  14.774  20.139  14.839
64101W        W32519  44.758  41.854  12.507
64102W        W32520  39.956  40.877   0.269
64103W        W32521  28.935   2.720   1.895
64104W        W32522   2.776  23.687  13.425
64105W        W32523  26.650  15.588   2.671
64106W        W32524  42.312  15.673  13.501
64107W        W32525  39.984  43.327  11.964
64108W        W32526  39.432  30.998  14.451
64109W        W32527   3.886   3.378   0.812
64110W        W32528  25.560  32.078   3.735
64111W        W32529  26.104  28.480   1.355
64112W        W32530  27.045   9.876   4.251
64113W        W32531  11.677   8.782  13.522
64114W        W32532  18.112  10.671   0.329
64115W        W32533  25.532  10.302  13.503
64116W        W32534  40.898  16.305  14.289
64117W        W32535  12.832  36.017   1.431
64118W        W32536  38.823  36.864   1.929
64119W        W32537   8.862   8.318   3.173
64120W        W32538  19.133  34.878   3.785
64121W        W32539   8.893  31.141  11.893
64122W        W32540  29.481  30.556   3.270
64123W        W32541  12.708   8.219  11.382
64124W        W32542  42.480   5.889  13.003
64125W        W32543  37.908  44.310   2.697
64126W        W32544  25.583  15.740   4.650
64127W        W32545  37.385  36.896   3.642
64128W        W32546  18.104  31.990   3.155
64129W        W32547  32.461  44.844   4.679
64130W        W32548  10.140  32.054  13.900
64131W        W32549  34.591  32.534  11.484
64132W        W32550   2.876  34.053   1.395
64133W        W32551  30.046  16.186  12.082
64134W        W32552  34.018   2.941   1.717
64135W        W32553   3.828  31.482   2.743
64136W        W32554  19.578  17.627  10.951
64137W        W32555   8.701  38.480  10.153
64138W        W32556  18.585  10.705   3.672
64139W        W32557  36.078  44.269  13.548
64140W        W32558   9.170  20.078  10.617
64141W        W32559  24.656   7.824   3.156
64142W        W32560  20.159  12.730  12.016
64143W        W32561  22.685  17.085   3.718
64144W        W32562  25.503  40.898   1.331
64145W        W32563  40.473  35.568  10.511
64146W        W32564  26.603  29.581  12.416
64147W        W32565   1.290  31.994   5.160
64148W        W32566   2.306  33.876   0.376
64149W        W32567   1.887  33.073   4.258
64150W        W32568  27.055  22.027  12.472
64151W        W32569  25.031  22.619   2.307
64152W        W32570  15.219  28.156   0.893
64153W        W32571  19.736  28.015   1.812
64154W        W32572  16.189  31.142  14.327
64155W        W32573   1.273  41.385   2.241
64156W        W32574  43.959  28.451  10.594
64157W        W32575  16.309  19.051  14.286
64158W        W32576  26.208  15.809   1.797
64159W        W32577  32.601  44.455   3.868
64160W        W32578  25.146   3.924   3.217
64161W        W32579  19.661  19.237  13.835
64162W        W32580  25.017  12.726   2.342
64163W        W32581  39.398  34.609  12.437
64164W        W32582  11.128  20.716  13.035
64165W        W32583  21.636  24.637   1.740
64166W        W32584  20.610   6.185   0.411
64167W        W32585  23.568  18.295  12.504
64168W        W32586   7.189  10.693   1.895
64169W        W32587   2.721  24.602  14.836
64170W        W32588  29.020  34.584   0.424
64171W        W32589  38.011   4.283   3.767
64172W        W32590  28.000  18.207   1.407
64173W        W32591  10.365   5.429  12.911
64174W        W32592  40.826  18.206  13.027
64175W        W32593  13.774   6.413  11.444
64176W        W32594  11.271  18.158   1.245
64177W        W32595  12.298  36.853   3.807
64178W        W32596  31.113  11.717  12.911
64179W        W32597  28.610  29.444   2.854
64180W        W32598  32.570  32.091  10.466
64181W        W32599  29.928  14.639  11.965
64182W        W32600  20.119  37.348   3.341
64183W        W32601  14.806  19.245  10.960
64184W        W32602  29.070  28.482   4.769
64185W        W32603  29.666   6.400  11.953
64186W        W32604  21.525  16.677  14.298
64187W        W32605   4.402  16.197  14.299
64188W        W32606  23.517   0.333  14.441
64189W        W32607  20.128  28.108   3.179
64190W        W32608  19.219  19.639   5.298
64191W        W32609  28.182  17.706   4.606
64192W        W32610   3.841  44.288   0.480
64193W        W32611  42.507  31.970   0.320
64194W        W32612  21.170   7.867  13.879
64195W        W32613   9.662  21.234  14.834
64196W        W32614  31.492  42.028  14.370
64197W        W32615  44.953  44.430   4.251
64198W        W32616  30.997  32.622   4.676
64199W        W32617  21.738  20.143   4.202
64200W        W32618  36.077  44.937   0.744
64201W        W32619  12.234  33.888  13.972
64202W        W32620   1.416   3.407  11.085
64203W        W32621  31.039  15.582   3.239
64204W        W32622   9.860  11.740   3.831
64205W        W32623  42.308   8.782   0.453
64206W        W32624   9.856  29.169   1.278
64207W        W32625  11.206  43.455   4.169
64208W        W32626  33.975   1.299   4.314
64209W        W32627  21.241   2.460   1.256
64210W        W32628  41.380  42.470   1.394
64211W        W32629  31.574   2.234  11.095
64212W        W32630  14.823  25.083   0.399
64213W        W32631  23.515  14.336   3.780
64214W        W32632  23.533  30.999  10.981
64215W        W32633   9.738  35.377   4.603
64216W        W32634  30.619   2.888  10.532
64217W        W32635  21.652  13.677   4.712
64218W        W32636   0.341  35.938  13.796
64219W        W32637   1.481  35.912  11.972
64220W        W32638  36.472   7.306   4.126
64221W        W32639  30.951  38.489   3.646
64222W        W32640  23.014  29.594  14.851
64223W        W32641  19.667  25.075  14.847
64224W        W32642  24.585  31.019  12.043
64225W        W32643  15.247  38.931  14.796
64226W        W32644  33.570   9.269   1.756
64227W        W32645   4.838  44.284   4.636
64228W        W32646  41.807  30.659  10.616
64229W        W32647  19.751  30.592  14.432
64230W        W32648   6.269  13.815  11.068
64231W        W32649  12.288  32.002  11.579
64232W        W32650  26.511   7.667  10.901
64233W        W32651  44.974  43.952   1.899
64234W        W32652  34.382  32.963   2.189
64235W        W32653  16.789  11.186   4.820
64236W        W32654  24.534  16.708   4.116
64237W        W32655   7.886  17.088   4.324
64238W        W32656  30.139   0.753  14.299
64239W        W32657  16.697  14.788   2.288
64240W        W32658  30.043  33.932  11.560
64241W        W32659  13.127  14.185  11.986
64242W        W32660  29.080  11.217  14.320
64243W        W32661  36.989  12.270   4.825
64244W        W32662  29.069  30.453   2.206
64245W        W32663  24.155  11.786  13.368
64246W        W32664   0.964  14.212  10.017
64247W        W32665  12.720  20.063  12.958
64248W        W32666  21.707  11.739  11.046
64249W        W32667  28.625  10.753   1.742
64250W        W32668  29.951  21.607  13.895
64251W        W32669  39.899  35.946   0.746
64252W        W32670  36.986   8.184  10.942
64253W        W32671  42.525  17.152  14.029
64254W        W32672  29.521   8.702  10.543
64255W        W32673  13.269  17.580   2.739
64256W        W32674  22.042  16.216  11.076
64257W        W32675   8.167  38.332  10.634
64258W        W32676  10.378   5.790   4.772
64259W        W32677  37.857   8.867  10.554
64260W        W32678   8.892   3.380  14.955
64261W        W32679   1.367  38.529   2.359
64262W        W32680  30.564  14.691  11.508
64263W        W32681  43.810  30.624  14.780
64264W        W32682  16.595   6.198   3.733
64265W        W32683  15.749  29.552  12.476
64266W        W32684  42.468  11.181  13.842
64267W        W32685   7.353  23.693   4.659
64268W        W32686  37.862  43.911   4.321
64269W        W32687  28.992  15.122  13.014
64270W        W32688  23.231   6.890  14.424
64271W        W32689  29.987  26.175   4.122
64272W        W32690   0.263  41.530   2.778
64273W        W32691  41.383  30.649   3.769
64274W        W32692  16.083  28.989   3.767
64275W        W32693  33.904  40.342   0.755
64276W        W32694  30.911  17.110   3.330
64277W        W32695   6.797  23.118   3.837
64278W        W32696  35.082  39.819  13.448
64279W        W32697  35.438   7.902   0.911
64280W        W32698  20.558   9.759   2.756
64281W        W32699  14.724  18.106  12.357
64282W        W32700  42.804  18.157   0.467
64283W        W32701  43.955  25.706  10.533
64284W        W32702  22.238  16.142   4.279
64285W        W32703  44.942  35.024  13.488
64286W        W32704  42.301   1.367  13.494
64287W        W32705  22.637  37.913  13.815
64288W        W32706  20.036  36.005  13.322
64289W        W32707   0.979  15.764   3.720
64290W        W32708  24.680  22.082   2.709
64291W        W32709  27.502   4.360  14.909
64292W        W32710  25.562  19.191   4.718
64293W        W32711  31.413  21.515  10.407
64294W        W32712  38.405   1.430   2.899
64295W        W32713   4.846  26.484   3.366
64296W        W32714  21.661   8.244   4.795
64297W        W32715  28.599   4.923   2.768
64298W        W32716  27.563  14.663   4.786
64299W        W32717   1.880  24.581   3.667
64300W        W32718  28.485  34.902  11.976
64301W        W32719  31.450  18.557   4.800
64302W        W32720  39.876  15.328   4.204
64303W        W32721  36.966   8.387  13.390
64304W        W32722   5.890  21.228  12.947
64305W        W32723  21.044  25.696   1.932
64306W        W32724  39.428   5.766  10.953
64307W        W32725  43.930   8.682   0.903
64308W        W32726  33.052  35.577   3.301
64309W        W32727  32.097  37.455   3.171
64310W        W32728  21.557  30.601  14.358
64311W        W32729  37.910  10.833   2.787
64312W        W32730  18.248   2.233  13.828
64313W        W32731  36.363  42.849   1.305
64314W        W32732   2.956  36.042   3.808
64315W        W32733  10.310   0.760   0.795
64316W        W32734  17.165  10.679   0.743
64317W        W32735  33.004  16.236   1.894
64318W        W32736   8.168  41.483  14.386
64319W        W32737  37.057   8.677   4.338
64320W        W32738   1.421  13.263   1.379
64321W        W32739  25.565  43.354   2.297
64322W        W32740  17.748  28.983  10.627
64323W        W32741  13.668  37.983   1.883
64324W        W32742  18.720  35.859   4.261
64325W        W32743  21.564  20.149   0.413
64326W        W32744   6.735   2.255   2.393
64327W        W32745  28.523  16.694  14.839
64328W        W32746  38.526  38.426   2.417
64329W        W32747  12.836  39.895   1.256
64330W        W32748   7.229  24.618  10.580
64331W        W32749  38.404   1.914  12.502
64332W        W32750  36.542  42.840   9.999
64333W        W32751  39.509  18.240   0.773
64334W        W32752  23.682  26.053  11.545
64335W        W32753  31.907   9.651   2.899
64336W        W32754  23.569  17.120  14.312
64337W        W32755  40.426  15.696   9.939
64338W        W32756  26.695   5.429   2.823
64339W        W32757  19.733   1.777   4.794
64340W        W32758  37.502  19.192  12.433
64341W        W32759  18.067  10.875  13.533
64342W        W32760   0.445   6.860   3.868
64343W        W32761   8.732   8.397  11.991
64344W        W32762  27.979  40.004  11.432
64345W        W32763   2.936  29.613   3.693
64346W        W32764  13.138  26.202  13.985
64347W        W32765  40.515  17.102  11.373
64348W        W32766   3.756   3.869  14.388
64349W        W32767  10.232   2.919  12.436
64350W        W32768  16.232  32.051  11.545
64351W        W32769  32.112  27.450   4.116
64352W        W32770  17.302  34.089   4.207
64353W        W32771  24.661   8.708   1.379
64354W        W32772   4.765  31.013   3.355
64355W        W32773  16.168  29.004  11.958
64356W        W32774   5.695  24.193  12.998
64357W        W32775  21.740  16.264  14.488
64358W        W32776  17.300  12.687  11.601
64359W        W32777  29.590   2.827   2.302
64360W        W32778  31.001  29.608   0.903
64361W        W32779  41.482  30.521  13.424
64362W        W32780  12.838  16.636   3.299
64363W        W32781   3.227  14.740   0.445
64364W        W32782  27.017   7.882   1.826
64365W        W32783  14.754   1.241   3.773
64366W        W32784  44.907  38.562   2.381
64367W        W32785  26.572  19.088   0.327
64368W        W32786  44.434  34.588   4.655
64369W        W32787   7.780  19.640   4.170
64370W        W32788  26.028  28.648   2.856
64371W        W32789  35.432  33.460  11.431
64372W        W32790  11.781  36.543  12.081
64373W        W32791  39.865   0.252   4.728
64374W        W32792  24.087  12.854   3.820
64375W        W32793  40.317   2.466  10.461
64376W        W32794  26.508  13.644   0.798
64377W        W32795  29.503  15.148  14.417
64378W        W32796  36.592  14.120   0.345
64379W        W32797  39.334  11.638  14.332
64380W        W32798  43.323  28.173  14.869
64381W        W32799  24.554   3.445   1.802
64382W        W32800   9.255  32.104  11.452
64383W        W32801  16.200  43.824  13.440
64384W        W32802   7.788  33.551   1.841
64385W        W32803   4.349  27.489   0.952
64386W        W32804  31.020  20.694  13.435
64387W        W32805  23.554  41.972   1.451
64388W        W32806   5.327  14.666  11.413
64389W        W32807  15.595  42.351  12.036
64390W        W32808  31.973  34.095   4.342
64391W        W32809  13.619  11.323  12.994
64392W        W32810  34.449  39.959   1.767
64393W        W32811  35.976  25.996   3.188
64394W        W32812   3.371  11.831  11.059
64395W        W32813   5.293   8.723  14.985
64396W        W32814  28.664  12.205   4.827
64397W        W32815  30.135  16.778   0.845
64398W        W32816   4.420  37.581   1.813
64399W        W32817   1.848  12.821   2.793
64400W        W32818  42.782  26.628  12.550
64401W        W32819  42.024  33.876  10.935
64402W        W32820   3.776  10.737  10.897
64403W        W32821  41.826  27.636  11.542
64404W        W32822  19.063   2.910   2.320
64405W        W32823  14.779   3.924  13.396
64406W        W32824   1.937  24.503  11.383
64407W        W32825  41.811  35.937  13.351
64408W        W32826  44.803  29.483  12.437
64409W        W32827   4.343  31.427   3.307
64410W        W32828  25.585   8.746   3.672
64411W        W32829   7.243  19.082  11.102
64412W        W32830  40.331  10.269  15.000
64413W        W32831  24.098  27.497   2.391
64414W        W32832  21.710  43.435  12.918
64415W        W32833  43.827  38.554   4.265
64416W        W32834  27.043   5.204  11.078
64417W        W32835  41.879  32.489   3.845
64418W        W32836  29.030  40.464   2.404
64419W        W32837   9.335  10.241   1.840
64420W        W32838  23.196  34.406   3.338
64421W        W32839  19.728  10.654   3.664
64422W        W32840  30.646  12.773   3.184
64423W        W32841  41.009   2.757   1.288
64424W        W32842   3.275  36.061  14.938
64425W        W32843  43.514  42.934   2.300
64426W        W32844   5.925  18.126  14.883
64427W        W32845   4.782   7.242  13.969
64428W        W32846  44.949  11.674   3.671
64429W        W32847  17.569  27.183  14.395
64430W        W32848  21.552   6.780   3.646
64431W        W32849  11.633  25.062  14.881
64432W        W32850   4.241  37.892   4.746
64433W        W32851   7.806  21.678   3.753
64434W        W32852  31.530  24.223   1.891
64435W        W32853   9.220  38.905  13.023
64436W        W32854  35.475   9.369  11.060
64437W        W32855  12.731  36.434  14.776
64438W        W32856  30.958  28.513  12.432
64439W        W32857  44.262  27.942   4.154
64440W        W32858   5.273  18.563  11.373
64441W        W32859   4.737  17.765   0.910
64442W        W32860  36.348  16.276   2.197
64443W        W32861   4.937  13.158  14.341
64444W        W32862  32.117  15.206   3.323
64445W        W32863  25.093   9.356   3.258
64446W        W32864  15.583  34.531   3.145
64447W        W32865  27.639  12.791   2.662
64448W        W32866  43.864  16.184   4.143
64449W        W32867  25.589  39.392   3.787
64450W        W32868   0.916  43.410   3.852
64451W        W32869  10.157  28.552   2.265
64452W        W32870   3.846   5.913  12.923
64453W        W32871  28.561  29.122  11.976
64454W        W32872   0.937  18.096   2.776
64455W        W32873  38.822  27.679  12.492
64456W        W32874  34.995  28.956  13.999
64457W        W32875  15.664  20.528   1.362
64458W        W32876  43.983  43.767  13.829
64459W        W32877   6.716  18.118  13.365
64460W        W32878  15.125   8.332  13.916
64461W        W32879   1.806  14.695   0.301
64462W        W32880  23.586  43.429  11.078
64463W        W32881  13.776  23.042   0.424
64464W        W32882  20.198   3.356  14.397
64465W        W32883  23.239   3.318  11.942
64466W        W32884  24.203  40.508  13.973
64467W        W32885  21.600   0.772   4.818
64468W        W32886  28.946  25.153   1.272
64469W        W32887  36.382  31.615   0.882
64470W        W32888   6.707  28.574  12.399
64471W        W32889  22.187  34.936  14.380
64472W        W32890  33.950  22.536   2.804
64473W        W32891  14.622  25.060  13.797
64474W        W32892   7.901  40.802  13.959
64475W        W32893  14.832   9.178   2.331
64476W        W32894  17.664  29.949  14.795
64477W        W32895  18.586  11.800  12.824
64478W        W32896  29.501  35.580   4.181
64479W        W32897  16.118  16.801   1.429
64480W        W32898  15.244   9.647   4.731
64481W        W32899  17.697   2.822  14.279
64482W        W32900  23.216   2.438  10.545
64483W        W32901  16.072  37.904   1.291
64484W        W32902  22.699   1.443   4.316
64485W        W32903  15.587  21.734   2.249
64486W        W32904  15.274  27.523  10.629
64487W        W32905  26.652  21.147   1.741
64488W        W32906  32.043  35.600   2.790
64489W        W32907  27.066  42.405  11.439
64490W        W32908  29.669  28.018   2.739
64491W        W32909  31.048  33.510  10.154
64492W        W32910   6.775   2.341   3.386
64493W        W32911  32.954  30.108  10.642
64494W        W32912  42.913  32.937   0.385
64495W        W32913  31.576   8.784  13.420
64496W        W32914  29.145  43.507  11.972
64497W        W32915  34.516  31.012  11.954
64498W        W32916  30.580  42.334  11.119
64499W        W32917  19.219   6.764   0.784
64500W        W32918  17.123   7.769   2.776
64501W        W32919  23.985  35.407  13.432
64502W        W32920  20.690  32.082  13.392
64503W        W32921   0.858  10.295  11.875
64504W        W32922  28.145  21.085   2.281
64505W        W32923  25.979  19.722  11.053
64506W        W32924   4.274  25.634  12.834
64507W        W32925  17.605   3.416   3.334
64508W        W32926  14.731   4.749  13.494
64509W        W32927  25.046   3.948  13.432
64510W        W32928   5.278  10.745  11.496
64511W        W32929  11.283  44.926  11.926
64512W        W32930  17.134  33.060   1.767
64513W        W32931  43.017   5.369  10.547
64514W        W32932   9.244  41.865  14.978
64515W        W32933  21.151  20.043   2.231
64516W        W32934  21.020   6.746   4.620
64517W        W32935  30.565   3.232  11.023
64518W        W32936  29.486   4.805   0.953
64519W        W32937  15.113  37.911   4.124
64520W        W32938  37.346   1.913  11.511
64521W        W32939  43.954   3.885   0.753
64522W        W32940  10.823   2.372  14.453
64523W        W32941  28.656  31.430  13.953
64524W        W32942  22.044  41.812   1.277
64525W        W32943  14.717  13.754   2.816
64526W        W32944  38.462  36.372  13.009
64527W        W32945   0.432  23.526   5.736
64528W        W32946  40.523  37.839   1.240
64529W        W32947   9.886  37.048  12.897
64530W        W32948   0.836  43.779   1.440
64531W        W32949  35.565   8.263  12.339
64532W        W32950  31.514  41.929  13.505
64533W        W32951  29.978  23.710  13.857
64534W        W32952  25.006  40.448  14.759
64535W        W32953   3.752  31.469   3.259
64536W        W32954  10.321  37.466  13.803
64537W        W32955   6.810   6.394  11.101
64538W        W32956  21.562  15.661   0.402
64539W        W32957  22.213  15.814   3.209
64540W        W32958  16.653   9.869   1.899
64541W        W32959  17.127   7.903  13.309
64542W        W32960  19.708  29.585   1.928
64543W        W32961  38.492  30.587   4.144
64544W        W32962  31.522  20.193  14.990
64545W        W32963  12.627  20.736  10.599
64546W        W32964  37.478  17.242  10.469
64547W        W32965  22.534  10.309   2.715
64548W        W32966   8.260  37.043   0.762
64549W        W32967  43.424  42.880   1.369
64550W        W32968   3.300  17.239  10.934
64551W        W32969  12.346  37.999   2.712
64552W        W32970  31.120  27.119  14.015
64553W        W32971  37.524   7.745   0.869
64554W        W32972   7.831  25.088  14.301
64555W        W32973  20.648  40.417   2.725
64556W        W32974  39.049  24.039   4.605
64557W        W32975   5.761   3.846  11.519
64558W        W32976  18.136  30.603   3.334
64559W        W32977  23.677   3.402  13.441
64560W        W32978  22.133  43.455   1.804
64561W        W32979  36.020  42.916   3.669
64562W        W32980  40.804  25.085   0.251
64563W        W32981  35.932  28.049  13.438
64564W        W32982  17.098  11.815   3.869
64565W        W32983  33.000  16.651   4.807
64566W        W32984  39.352  35.358  11.526
64567W        W32985  34.389  25.010   0.312
64568W        W32986  23.029  33.554  10.489
64569W        W32987  25.126  42.020  13.953
64570W        W32988  41.529  10.815  14.333
64571W        W32989   0.382  22.024  11.117
64572W        W32990  33.030  24.178   4.611
64573W        W32991  15.721   3.289  10.499
64574W        W32992  11.179  13.320  14.999
64575W        W32993  25.546  14.154   3.263
64576W        W32994  31.028  28.464   0.434
64577W        W32995  34.598  34.049   3.838
64578W        W32996  22.604   4.741  13.485
64579W        W32997  20.098  12.182   9.524
64580W        W32998  34.592  17.579  10.942
64581W        W32999  29.480  41.949   4.272
64582W        W33000  42.486  38.997  10.084
64583W        W33001  39.377  31.007  12.946
64584W        W33002  24.159  29.035  10.553
64585W        W33003   8.744   7.790   4.602
64586W        W33004   2.289  44.910   4.313
64587W        W33005  33.919   4.332  14.504
64588W        W33006  43.400   7.205   3.286
64589W        W33007  35.434   7.902  10.903
64590W        W33008  17.596  42.800   4.273
64591W        W33009  25.164  32.914   0.345
64592W        W33010  13.829   2.260   1.351
64593W        W33011  22.705  15.122  12.074
64594W        W33012  18.711  27.184  12.893
64595W        W33013  30.576  11.161  12.943
64596W        W33014   3.747  42.877  12.999
64597W        W33015   7.754  15.202   2.718
64598W        W33016   9.222  26.657   2.783
64599W        W33017  14.727  36.088  13.801
64600W        W33018  17.184  41.511   2.877
64601W        W33019  10.316   7.174  14.908
64602W        W33020  13.182   1.357  12.572
64603W        W33021  33.965  17.190  10.547
64604W        W33022  44.286  29.014   1.763
64605W        W33023  18.736  24.622   9.608
64606W        W33024  41.312   7.720  11.863
64607W        W33025  36.537  10.351  12.067
64608W        W33026  44.912  30.581   2.839
64609W        W33027  43.341  12.362   2.695
64610W        W33028  41.421  12.706   2.302
64611W        W33029   0.391  20.686   2.899
64612W        W33030  29.565  35.419   2.852
64613W        W33031  42.301  10.807  10.998
64614W        W33032   4.326   6.427  12.472
64615W        W33033  43.388  25.091  11.594
64616W        W33034   0.919   8.268  13.955
64617W        W33035   2.850  19.616   4.223
64618W        W33036  35.564  27.641  13.040
64619W        W33037  43.333  15.619  12.463
64620W        W33038  36.407  41.971  13.902
64621W        W33039  34.532  27.656   4.711
64622W        W33040   4.293  27.101  11.601
64623W        W33041  24.099   6.733   4.834
64624W        W33042  23.219   3.932   1.702
64625W        W33043  22.204  34.403  13.792
64626W        W33044  33.102  33.489  12.077
64627W        W33045  27.146  32.545   2.678
64628W        W33046  44.489   9.752   0.432
64629W        W33047  43.977  33.609  14.356
64630W        W33048  33.411  29.617   4.834
64631W        W33049  36.968  39.885   3.743
64632W        W33050  37.837  44.480  10.620
64633W        W33051  44.797  43.846  10.888
64634W        W33052   4.271  34.084   1.366
64635W        W33053   1.388   2.431  14.504
64636W        W33054   7.715  30.415   1.909
64637W        W33055   7.343  22.176   3.696
64638W        W33056  16.721   9.281  12.473
64639W        W33057  33.969  22.637  12.019
64640W        W33058  26.674  25.993   1.210
64641W        W33059  18.291  10.225  11.395
64642W        W33060  27.091  30.121  14.903
64643W        W33061   3.450  16.768   0.769
64644W        W33062  26.179  10.706   4.191
64645W        W33063  42.329  11.315   0.483
64646W        W33064  15.144  40.546  11.989
64647W        W33065  23.233  20.671  13.865
64648W        W33066  17.694   8.791  11.567
64649W        W33067  22.721  33.949  13.809
64650W        W33068  10.355  38.497   3.639
64651W        W33069  34.929   7.812  11.532
64652W        W33070  11.136  40.030   3.805
64653W        W33071  28.972  35.559  11.506
64654W        W33072   0.781  10.746   2.834
64655W        W33073   0.336  33.619  13.410
64656W        W33074  27.558  12.772   4.824
64657W        W33075   1.317  37.532  14.812
64658W        W33076  24.137  25.712  13.308
64659W        W33077  28.636   9.746   2.725
64660W        W33078  41.997  10.139   2.671
64661W        W33079  28.097  33.611  14.426
64662W        W33080   6.772  27.464   0.839
64663W        W33081  17.242  11.839  13.904
64664W        W33082  31.029  11.760  13.464
64665W        W33083  22.145   5.814  10.483
64666W        W33084  30.082  31.597  10.475
64667W        W33085  11.802  19.620   0.316
64668W        W33086  22.196  35.876  12.851
64669W        W33087  30.553  39.857  14.382
64670W        W33088  22.716  12.176   3.248
64671W        W33089   0.300  38.885   0.465
64672W        W33090   6.905  32.113  12.390
64673W        W33091  38.937  22.113  11.925
64674W        W33092  34.608  29.595   2.722
64675W        W33093  40.538  17.648   0.855
64676W        W33094   6.374  12.161  12.942
64677W        W33095  41.872  25.979  11.036
64678W        W33096   8.893  21.196  13.493
64679W        W33097  30.030  31.987  11.578
64680W        W33098   6.333  22.669   3.344
64681W        W33099  33.063   0.949   3.154
64682W        W33100  38.435  44.884  14.515
64683W        W33101  21.616   0.815   1.806
64684W        W33102  44.312  33.078  11.948
64685W        W33103  36.915  44.374   3.716
64686W        W33104   0.959  40.335   4.655
64687W        W33105  22.570  44.869   2.284
64688W        W33106   2.902  19.593  12.902
64689W        W33107  28.007  44.772  13.845
64690W        W33108  11.213  28.958  10.420
64691W        W33109   1.464   6.335  14.472
64692W        W33110  11.194  35.106   3.726
64693W        W33111   6.330  44.984   1.414
64694W        W33112  11.135   2.940  10.505
64695W        W33113   4.762  21.102   2.880
64696W        W33114  29.452  26.075   1.287
64697W        W33115   7.230   5.759   4.276
64698W        W33116  40.983  18.113  13.544
64699W        W33117   6.791  33.567   1.420
64700W        W33118   0.465  32.081  11.523
64701W        W33119  20.684   2.464   3.199
64702W        W33120  25.640   1.314   1.745
64703W        W33121  29.644  32.031   3.277
64704W        W33122  22.097  27.556   0.949
64705W        W33123  10.328  41.347  10.954
64706W        W33124  19.571  41.306  13.522
64707W        W33125   4.773   0.418   0.352
64708W        W33126   8.731  38.516  11.972
64709W        W33127  28.511  28.484  14.822
64710W        W33128   3.801  19.244  11.590
64711W        W33129   5.693   7.771  10.565
64712W        W33130  27.571  37.931   2.381
64713W        W33131  26.651  19.056  14.002
64714W        W33132  40.816  27.657  13.835
64715W        W33133  22.580  38.059   0.951
64716W        W33134  40.519   9.348  12.898
64717W        W33135   0.812  14.192  11.397
64718W        W33136  31.947  21.592   1.428
64719W        W33137  16.742   0.417  13.899
64720W        W33138  14.790   9.647  12.557
64721W        W33139  31.981  24.220   0.257
64722W        W33140  43.453  42.799   4.689
64723W        W33141  32.896  23.597   4.153
64724W        W33142   8.726  21.536  10.475
64725W        W33143  20.708  14.179   5.700
64726W        W33144  36.009   9.648  14.011
64727W        W33145  25.487  41.867   0.281
64728W        W33146   9.758  25.546   1.895
64729W        W33147  30.453  15.813   4.716
64730W        W33148  41.442  26.006  14.506
64731W        W33149   3.734   1.763  14.861
64732W        W33150  11.150  38.835   3.756
64733W        W33151  13.107  39.442  10.536
64734W        W33152  29.968  29.668   1.234
64735W        W33153  23.511  31.955  10.011
64736W        W33154  26.514  37.563  13.034
64737W        W33155  20.191  19.209   2.870
64738W        W33156  30.528   7.348   4.239
64739W        W33157   5.858  35.448  12.077
64740W        W33158  33.537  29.446   3.764
64741W        W33159  14.596  29.481  14.777
64742W        W33160  36.866  14.760  12.407
64743W        W33161  37.033  38.424  14.398
64744W        W33162  14.766  20.077  14.382
64745W        W33163   1.281  36.427   1.808
64746W        W33164  26.587  39.899  12.946
64747W        W33165  32.947  44.879   2.708
64748W        W33166  35.853  42.522   4.723
64749W        W33167  12.198  43.972  11.063
64750W        W33168  20.098  25.999  13.402
64751W        W33169  40.037  40.968  11.932
64752W        W33170  16.197   8.348  12.358
64753W        W33171  23.490  23.579  14.016
64754W        W33172  41.304  43.827  10.583
64755W        W33173  43.777   6.873  12.005
64756W        W33174  34.115  10.799   4.344
64757W        W33175  22.222   9.733   2.899
64758W        W33176  43.975  14.588  11.858
64759W        W33177  20.210   4.779   4.613
64760W        W33178  28.666  15.287   3.307
64761W        W33179  28.588  34.913  14.305
64762W        W33180  40.857  39.389   9.926
64763W        W33181  14.707  15.162  14.489
64764W        W33182  11.758   0.421  10.070
64765W        W33183   7.377  32.087   2.828
64766W        W33184  12.216  41.429   0.966
64767W        W33185  30.485  31.555   2.349
64768W        W33186  27.505  31.977  13.053
64769W        W33187   4.386  24.070  14.513
64770W        W33188  40.980  17.119   3.641
64771W        W33189   3.337   2.360   0.263
64772W        W33190  33.946   8.300  13.491
64773W        W33191   0.769  34.932   3.160
64774W        W33192  17.247  30.538   0.374
64775W        W33193   0.279  33.469   4.116
64776W        W33194  26.582  34.605   1.772
64777W        W33195   4.714   4.862   1.848
64778W        W33196  16.108  36.031   4.759
64779W        W33197   1.777  38.521   1.765
64780W        W33198  37.890   1.956   5.109
64781W        W33199  16.125  41.291   2.859
64782W        W33200  28.067  10.799   0.286
64783W        W33201  25.173  32.097  13.498
64784W        W33202  26.964  43.845  12.847
64785W        W33203  36.920  15.622  12.571
64786W        W33204  26.558  16.737   1.713
64787W        W33205  28.545  15.233  11.378
64788W        W33206   8.170  29.046   3.770
64789W        W33207  30.641   5.289   0.946
64790W        W33208  19.264   1.337   1.766
64791W        W33209  25.471  27.583  11.554
64792W        W33210  25.010  10.680   4.665
64793W        W33211  26.030  12.230  10.940
64794W        W33212  19.262   2.835   0.755
64795W        W33213  20.098   0.975  12.838
64796W        W33214   1.802  29.981  12.365
64797W        W33215  14.169   5.335   1.346
64798W        W33216  43.946   9.870   1.307
64799W        W33217  20.116  42.463   2.896
64800W        W33218   5.387  37.355   0.458
64801W        W33219  32.035   3.843  12.572
64802W        W33220  18.057   3.763  12.982
64803W        W33221  42.786   9.167   0.924
64804W        W33222  10.812   2.347  14.766
64805W        W33223  17.711  17.742   0.395
64806W        W33224  24.004  30.451   2.263
64807W        W33225  42.863  32.491  14.899
64808W        W33226  38.474  24.185   4.822
64809W        W33227   0.828  21.261  12.378
64810W        W33228  33.499  34.934   4.799
64811W        W33229  12.255  28.593   0.795
64812W        W33230   7.709  32.486  11.911
64813W        W33231  23.575  34.503   4.338
64814W        W33232  31.446   8.195  11.867
64815W        W33233  37.893  31.444   1.902
64816W        W33234   8.743  15.188  14.299
64817W        W33235  11.723  26.633  10.633
64818W        W33236   4.339   7.406   1.410
64819W        W33237   4.776  16.270  13.325
64820W        W33238  26.671  31.449   3.227
64821W        W33239  33.119  28.528   0.750
64822W        W33240   0.336  21.703  14.369
64823W        W33241  40.016  37.354  11.609
64824W        W33242   9.338   1.850   3.308
64825W        W33243   5.861  44.494  11.064
64826W        W33244  14.684  35.570   0.853
64827W        W33245  40.961  14.128  13.333
64828W        W33246  29.133   6.870   5.282
64829W        W33247  22.618   9.838   2.771
64830W        W33248  10.814  15.617  11.084
64831W        W33249   7.241  22.171  14.878
64832W        W33250   5.693   7.869   4.271
64833W        W33251   3.357  39.025   5.102
64834W        W33252  41.370  25.533   2.352
64835W        W33253  12.164  44.470   3.668
64836W        W33254   6.254  18.675  14.365
64837W        W33255  11.860  34.999  10.410
64838W        W33256  13.107  29.559  13.968
64839W        W33257  19.636  27.673   3.253
64840W        W33258  13.736  17.245  11.596
64841W        W33259   9.817  19.255  11.495
64842W        W33260  27.449  36.372  11.994
64843W        W33261  30.039  18.770   3.288
64844W        W33262  13.709  10.214   4.171
64845W        W33263  16.702  11.136   2.354
64846W        W33264  33.531  31.641  10.404
64847W        W33265  39.427  23.084  10.531
64848W        W33266  15.715   0.948   4.805
64849W        W33267  14.629  39.364  14.863
64850W        W33268  33.481  10.732   0.474
64851W        W33269  29.655  36.400  11.471
64852W        W33270  15.128  30.911   1.857
64853W        W33271  13.709  43.370   4.158
64854W        W33272  33.980   8.708   4.250
64855W        W33273  10.655   7.829   4.718
64856W        W33274  24.540  37.435   3.764
64857W        W33275   9.351  36.425  10.935
64858W        W33276  38.456  14.753  11.562
64859W        W33277  20.695  14.644  13.973
64860W        W33278  25.149  36.531   0.443
64861W        W33279  34.922  23.722   3.861
64862W        W33280  15.164  32.959  10.413
64863W        W33281  28.016  15.721   1.800
64864W        W33282  36.543   9.157  14.811
64865W        W33283   3.717  10.330   2.310
64866W        W33284  35.540  13.236   4.296
64867W        W33285   9.164   7.277  10.634
64868W        W33286   8.234  41.439   2.323
64869W        W33287   8.351  17.676  13.975
64870W        W33288   3.315  35.915  14.490
64871W        W33289  14.123  31.137   4.682
64872W        W33290  15.754  11.703  12.853
64873W        W33291  39.387  12.826   2.359
64874W        W33292  11.674  26.191  11.424
64875W        W33293  33.465  36.541  14.985
64876W        W33294   2.377  35.384   0.351
64877W        W33295  21.628  14.145   3.310
64878W        W33296   0.872  44.502   0.735
64879W        W33297  14.207   7.746   0.358
64880W        W33298  12.683  12.307   1.928
64881W        W33299  38.883  38.544   0.287
64882W        W33300  32.623  11.694   1.297
64883W        W33301  15.203  29.929   2.665
64884W        W33302  25.549  23.207   4.627
64885W        W33303  21.560   1.733   3.797
64886W        W33304  41.351   2.254  12.496
64887W        W33305  36.577  21.588  11.552
64888W        W33306  11.259  33.902  13.343
64889W        W33307  33.023   6.336  12.555
64890W        W33308  33.882   9.330  11.582
64891W        W33309  44.461  32.517  12.919
64892W        W33310  37.442  43.882  14.782
64893W        W33311  26.486  40.320  13.359
64894W        W33312  43.292  33.582   2.219
64895W        W33313  14.268   5.910  10.597
64896W        W33314  35.046  10.852  11.064
64897W        W33315   3.399  18.571  12.508
64898W        W33316  37.008  34.520   0.281
64899W        W33317  27.688  23.590   0.249
64900W        W33318   5.419   5.926  12.008
64901W        W33319  27.656  18.230   4.241
64902W        W33320  41.475  25.062   0.924
64903W        W33321   2.379  19.607   4.300
64904W        W33322  44.282  24.596   0.921
64905W        W33323   9.820   5.274   1.301
64906W        W33324  20.104  43.429  11.502
64907W        W33325  34.555  12.712   1.740
64908W        W33326  22.714  17.743   3.215
64909W        W33327  30.492   3.280  12.093
64910W        W33328  39.846  13.607  12.533
64911W        W33329  17.575  29.158   1.446
64912W        W33330  37.358   5.767  14.874
64913W        W33331  28.507  38.045  10.965
64914W        W33332   9.851  40.963  11.559
64915W        W33333  39.443   5.700   4.338
64916W        W33334  25.582  35.992  12.378
64917W        W33335   7.751   4.828   3.858
64918W        W33336  26.025  36.479   0.785
64919W        W33337  40.446  16.273   0.391
64920W        W33338   9.180  35.463  12.400
64921W        W33339  43.999   6.267  10.498
64922W        W33340   1.855  10.351   0.462
64923W        W33341  27.131  41.528   3.218
64924W        W33342  43.354  11.167  11.985
64925W        W33343  33.556   9.772  10.413
64926W        W33344   7.877   0.379  14.361
64927W        W33345  23.690  44.336  13.525
64928W        W33346  22.665  35.967  12.384
64929W        W33347   8.800  20.053  10.996
64930W        W33348  36.012  36.446  13.874
64931W        W33349  29.018  22.599  14.928
64932W        W33350  25.471  13.235   1.790
64933W        W33351  34.090  25.499  11.972
64934W        W33352   2.811   0.834  14.891
64935W        W33353  21.196  40.954   4.770
64936W        W33354  20.208  23.586  11.468
64937W        W33355   9.860  42.416  14.440
64938W        W33356  44.486  38.024   0.792
64939W        W33357  25.695  28.477  14.465
64940W        W33358  35.383  26.514  12.498
64941W        W33359   3.710  34.898   4.335
64942W        W33360   8.275  35.056  10.937
64943W        W33361  27.176  23.130  12.893
64944W        W33362  41.434   7.776  13.806
64945W        W33363  38.931   0.265  14.292
64946W        W33364  41.794   8.195  10.458
64947W        W33365  23.726  16.213  10.584
64948W        W33366  25.539  14.618  10.628
64949W        W33367  26.652   5.334   1.231
64950W        W33368   6.730  34.401  10.579
64951W        W33369  10.253  14.707  11.974
64952W        W33370  32.462   2.849  10.535
64953W        W33371  29.975  40.866  14.282
64954W        W33372  14.101  11.136  14.006
64955W        W33373  42.457  39.503  11.579
64956W        W33374  42.461  12.158  11.495
64957W        W33375   5.349  40.017  14.934
64958W        W33376  36.080  13.668   4.818
64959W        W33377   8.885  26.189   1.850
64960W        W33378  39.055  42.335  13.025
64961W        W33379  14.339  36.408   2.861
64962W        W33380  43.379  35.553  10.959
64963W        W33381   5.850  33.027  11.537
64964W        W33382  13.801   0.850   1.416
64965W        W33383  19.066  26.495  14.001
64966W        W33384  11.815  10.186  10.497
64967W        W33385  34.532  32.982   2.863
64968W        W33386   8.708  41.843   4.191
64969W        W33387  34.894   2.929   1.226
64970W        W33388   1.381  24.529   2.214
64971W        W33389  24.568  36.913  13.051
64972W        W33390   7.268  39.963  14.860
64973W        W33391  32.626  41.481  10.987
64974W        W33392  26.995  38.862  10.500
64975W        W33393  26.123  13.255  11.909
64976W        W33394   9.707  40.506   4.198
64977W        W33395  26.163  11.780   3.847
64978W        W33396  30.982   4.852   5.125
64979W        W33397  32.544  19.075  11.886
64980W        W33398   9.768  16.727  11.553
64981W        W33399  27.485  10.677  14.028
64982W        W33400  22.609  16.573  14.941
64983W        W33401  23.173  39.990   1.238
64984W        W33402  31.510  38.822  11.090
64985W        W33403  11.715  24.092   4.819
64986W        W33404  33.477  33.587  11.044
64987W        W33405  39.423   2.407  13.942
64988W        W33406  40.409  13.688   4.159
64989W        W33407  31.589  19.199  12.502
64990W        W33408  39.023  37.983  11.042
64991W        W33409  27.682   1.811   4.205
64992W        W33410  18.786  15.205  11.958
64993W        W33411  36.869  11.704  12.032
64994W        W33412  24.995  40.419  13.997
64995W        W33413  12.828  11.754   2.216
64996W        W33414  22.210   1.462  13.814
64997W        W33415  34.549   8.803  13.876
64998W        W33416  17.202   5.713  10.934
64999W        W33417  36.843  41.505   0.734
65000W        W33418   4.795  36.452   2.762
65001W        W33419  13.721   5.774   4.208
65002W        W33420   2.457  39.337  13.373
65003W        W33421  33.424  38.848   1.779
65004W        W33422  43.457  43.830  11.475
65005W        W33423   7.830  34.574   0.837
65006W        W33424  14.831  29.558   3.821
65007W        W33425   0.793   8.800   2.820
65008W        W33426  26.193  10.261  13.468
65009W        W33427  30.998  36.357   2.235
65010W        W33428  21.205  21.259  12.537
65011W        W33429  21.021  39.047   3.865
65012W        W33430  19.190  21.063  11.001
65013W        W33431   0.866   2.407   5.131
65014W        W33432  18.107  27.593  10.549
65015W        W33433  30.909  16.216   0.852
65016W        W33434  43.992   1.944  12.921
65017W        W33435   7.769  23.103   1.837
65018W        W33436   7.326   0.936  10.645
65019W        W33437  28.951  16.096  12.872
65020W        W33438  27.588  24.692  10.630
65021W        W33439  37.335  30.956   3.638
65022W        W33440  28.186   1.897  10.567
65023W        W33441  35.604   6.717  10.505
65024W        W33442  39.464  36.418  13.910
65025W        W33443  37.846  40.485   4.671
65026W        W33444  15.140  18.282  13.960
65027W        W33445  38.851  14.267   4.662
65028W        W33446  38.448  32.495  12.975
65029W        W33447   5.810  40.047  13.862
65030W        W33448  21.679  43.905  10.506
65031W        W33449  29.996  36.959   0.440
65032W        W33450  28.949   0.960  13.320
65033W        W33451  24.507  19.715   2.276
65034W        W33452  38.466  36.091   1.751
65035W        W33453  27.599  22.178  10.607
65036W        W33454  14.776  12.839   2.731
65037W        W33455  43.909  25.640  12.518
65038W        W33456  16.113  44.819   0.728
65039W        W33457   5.833  27.161  12.538
65040W        W33458  44.757   7.192  13.835
65041W        W33459  20.232  13.270  12.852
65042W        W33460   9.150  42.318  13.050
65043W        W33461  31.409   7.203  13.028
65044W        W33462  38.369   0.430   3.348
65045W        W33463   2.739   8.858   0.881
65046W        W33464  33.538  35.865   5.085
65047W        W33465  30.601  10.165   4.288
65048W        W33466  31.089  22.067  13.846
65049W        W33467   4.215  13.218  12.825
65050W        W33468  32.445  34.518   3.243
65051W        W33469   0.770  44.481  14.800
65052W        W33470  29.061  33.529  11.119
65053W        W33471   5.786  18.555   1.772
65054W        W33472  23.235  10.693   1.422
65055W        W33473  38.061  10.143  13.007
65056W        W33474   8.832   4.740  13.412
65057W        W33475  24.669  27.654  14.469
65058W        W33476   9.266   3.223  10.601
65059W        W33477  44.315  32.980   3.797
65060W        W33478   6.691  34.490  14.851
65061W        W33479  43.894   5.901  11.063
65062W        W33480  25.511   3.344   2.788
65063W        W33481   6.870  34.507  14.373
65064W        W33482   3.885  29.077  10.143
65065W        W33483  40.430  28.040   4.137
65066W        W33484   4.736  38.459   2.661
65067W        W33485   7.851   7.341   3.643
65068W        W33486   6.344  44.830   0.361
65069W        W33487  19.701   5.741  12.830
65070W        W33488  35.973  13.650  11.077
65071W        W33489  15.219   6.727   1.372
65072W        W33490  41.349  24.638   1.289
65073W        W33491   6.203   0.448   1.743
65074W        W33492  22.549  15.610   4.672
65075W        W33493  37.418   5.420   3.176
65076W        W33494  35.949   2.385  11.056
65077W        W33495   7.212  33.910  11.975
65078W        W33496  26.063  11.287   4.788
65079W        W33497  22.018  17.776   4.635
65080W        W33498  32.518  31.603   4.692
65081W        W33499  22.172  36.521  12.546
65082W        W33500  31.417  32.451  13.792
65083W        W33501  39.514  40.938  14.368
65084W        W33502  21.098  15.734   3.746
65085W        W33503  21.172   4.363   3.284
65086W        W33504   2.352   1.316   1.835
65087W        W33505  44.907  42.928   0.404
65088W        W33506  33.470  20.218  11.900
65089W        W33507  21.563  33.542   3.633
65090W        W33508   3.373   8.202   2.667
65091W        W33509  11.813  36.414   1.286
65092W        W33510   5.328  30.622  11.086
65093W        W33511  43.815  29.547  11.920
65094W        W33512  41.988   7.382   1.783
65095W        W33513   6.261  35.094  12.953
65096W        W33514  23.692  23.693  10.576
65097W        W33515  27.996  24.199   1.276
65098W        W33516  21.215  28.023   2.761
65099W        W33517  39.399   4.248   1.720
65100W        W33518   4.238  19.713  11.969
65101W        W33519  19.077  27.129   1.282
65102W        W33520  42.430  19.163  14.462
65103W        W33521  11.732  35.047   4.730
65104W        W33522  27.511  43.928   4.611
65105W        W33523  42.452  43.275  14.007
65106W        W33524  10.824   4.230   1.859
65107W        W33525  34.921  16.286  12.524
65108W        W33526  35.954  37.343  13.410
65109W        W33527  11.357  17.091  14.990
65110W        W33528  21.602  17.088  14.379
65111W        W33529  40.886   4.758   0.951
65112W        W33530  20.140  14.783  13.978
65113W        W33531  26.559  33.925   4.815
65114W        W33532  24.099   9.667   3.361
65115W        W33533  19.758  22.094  10.569
65116W        W33534  35.946  29.967  11.589
65117W        W33535  41.944  25.148  14.352
65118W        W33536  34.422  24.035   3.306
65119W        W33537   5.198   8.202  13.424
65120W        W33538   8.689  24.042   3.282
65121W        W33539  35.566  11.369   4.819
65122W        W33540   5.771  42.850   1.894
65123W        W33541  17.772  29.514   2.803
65124W        W33542  44.279   3.373  14.893
65125W        W33543  21.190  16.286  12.473
65126W        W33544  34.381  16.265   1.324
65127W        W33545  16.129  25.084   3.810
65128W        W33546  19.687   8.783  12.834
65129W        W33547  33.117  41.787  14.892
65130W        W33548  38.427  19.243  14.480
65131W        W33549  21.083  33.618   0.811
65132W        W33550  15.185  32.463  11.941
65133W        W33551  18.671   4.792  13.848
65134W        W33552  14.768  26.156   1.369
65135W        W33553  18.702  21.085   3.785
65136W        W33554  12.179  10.192   3.373
65137W        W33555   9.837  35.068   1.726
65138W        W33556  33.917  43.337   2.855
65139W        W33557  29.023  39.911  13.404
65140W        W33558  42.808  16.603  13.521
65141W        W33559  28.175  16.576  11.488
65142W        W33560  28.979  38.445  12.012
65143W        W33561  42.831  37.940  12.401
65144W        W33562  11.776  44.294   1.710
65145W        W33563  40.012  31.527   0.753
65146W        W33564  21.184  37.915  13.311
65147W        W33565  16.567   0.983   4.204
65148W        W33566   3.217   7.376  13.475
65149W        W33567  25.473  39.012  12.972
65150W        W33568  44.831  31.473   3.686
65151W        W33569  31.615   1.388   2.245
65152W        W33570  37.887   4.269   4.634
65153W        W33571  43.836  17.675  14.951
65154W        W33572  28.625   5.356  11.591
65155W        W33573  15.641  13.652  14.387
65156W        W33574  24.554  20.608  13.324
65157W        W33575   4.939  44.971   4.129
65158W        W33576   3.389   4.376   4.694
65159W        W33577  43.804  20.575   9.643
65160W        W33578   9.757  21.253   2.332
65161W        W33579  39.382  22.246   4.715
65162W        W33580  28.054  31.111   4.643
65163W        W33581  31.989   6.887  10.974
65164W        W33582  25.006  30.482   0.303
65165W        W33583  37.519  20.261  14.378
65166W        W33584  21.605  27.450   1.885
65167W        W33585  10.732  43.837   0.738
65168W        W33586  11.359  43.390   3.700
65169W        W33587  18.780  31.460  14.013
65170W        W33588  10.374  35.497  11.562
65171W        W33589  24.702  21.103  10.016
65172W        W33590  11.356  35.485   1.272
65173W        W33591  44.860  27.449   3.369
65174W        W33592   6.414  31.908   1.417
65175W        W33593  24.181  36.024  12.887
65176W        W33594  43.467  11.324   0.293
65177W        W33595  35.025   9.716  10.619
65178W        W33596  26.608  20.034   3.698
65179W        W33597  17.753  13.809  11.104
65180W        W33598  26.096  41.978  11.553
65181W        W33599   2.248   1.404   2.270
65182W        W33600  42.843  25.984   0.372
65183W        W33601  35.548  11.129  12.944
65184W        W33602  10.256   8.261  10.417
65185W        W33603  10.715  13.245  14.466
65186W        W33604  29.059  23.612   0.272
65187W        W33605  25.096  26.616   1.926
65188W        W33606  28.482  41.810   3.816
65189W        W33607   1.331  18.247  14.461
65190W        W33608   4.807  43.800   0.775
65191W        W33609  35.402  42.340   2.865
65192W        W33610  27.194  21.172  14.923
65193W        W33611   3.240  23.985   2.816
65194W        W33612  25.539   0.903   2.281
65195W        W33613  25.596  27.021  11.430
65196W        W33614  14.648  28.505   3.689
65197W        W33615  18.263  15.238  11.587
65198W        W33616  42.018   3.715  13.436
65199W        W33617   3.347  11.147  11.531
65200W        W33618  24.533  21.561   4.781
65201W        W33619  39.873  23.595  11.073
65202W        W33620  20.742  18.620   0.350
65203W        W33621  24.089  38.054   3.331
65204W        W33622  30.958  11.656   1.696
65205W        W33623  29.087  39.047  13.054
65206W        W33624  15.311  26.110  12.014
65207W        W33625  22.528  42.902   1.438
65208W        W33626  21.738  36.503   1.821
65209W        W33627   2.421  42.838  12.823
65210W        W33628   8.229   8.262  12.952
65211W        W33629  10.191   3.406  11.034
65212W        W33630   0.473  28.973   1.317
65213W        W33631  24.004   2.764  11.602
65214W        W33632   0.926  29.107  14.957
65215W        W33633  29.004   6.250   2.736
65216W        W33634  39.924   4.214   2.800
65217W        W33635  42.788  16.298  11.531
65218W        W33636  38.497  18.735   2.741
65219W        W33637   8.783  34.967  13.341
65220W        W33638   3.909  25.136  11.886
65221W        W33639  27.007  39.871  10.594
65222W        W33640  19.255  20.672   1.935
65223W        W33641  35.909  26.666   1.905
65224W        W33642  10.736   7.410  11.593
65225W        W33643  13.332  34.478  12.825
65226W        W33644  29.587  31.006  12.000
65227W        W33645  18.164  35.936  13.801
65228W        W33646  43.844   7.408   2.840
65229W        W33647   3.832   4.311   4.752
65230W        W33648  16.175   2.807   2.841
65231W        W33649  38.008  26.123  12.396
65232W        W33650  33.904  15.261   0.272
65233W        W33651  17.665  33.042   1.790
65234W        W33652  25.536  13.812  13.410
65235W        W33653  30.586  14.791   0.916
65236W        W33654  22.503  31.418  10.083
65237W        W33655  43.451  43.868   4.707
65238W        W33656   3.915  24.997   1.421
65239W        W33657  36.376  33.620  10.590
65240W        W33658   6.199   7.202   0.311
65241W        W33659   7.751  19.585  12.389
65242W        W33660  31.460   8.389   0.802
65243W        W33661  44.379  35.552   2.266
65244W        W33662  19.134  13.135   4.267
65245W        W33663   4.827   0.406  12.420
65246W        W33664  13.279  16.172   1.829
65247W        W33665  12.619  43.346   4.230
65248W        W33666  43.324   5.416   3.386
65249W        W33667   2.318  37.507   1.334
65250W        W33668  43.943  14.599  10.456
65251W        W33669  35.560   7.213  13.836
65252W        W33670  34.464  18.760  14.811
65253W        W33671  16.587  29.461   0.270
65254W        W33672  11.243  28.071   3.350
65255W        W33673   3.938  38.851   4.787
65256W        W33674  27.567  12.132   1.236
65257W        W33675   5.862  14.642   3.736
65258W        W33676   0.785  23.059   5.169
65259W        W33677  34.427   2.445  14.762
65260W        W33678  37.354  28.031  13.334
65261W        W33679   5.399   7.689  14.413
65262W        W33680  16.210  26.529   0.732
65263W        W33681   6.332  17.195  14.951
65264W        W33682  37.873  38.001  14.014
65265W        W33683   3.233   6.859  14.382
65266W        W33684  37.570  44.285  13.460
65267W        W33685  26.602  36.482  11.504
65268W        W33686  37.075   8.717   0.758
65269W        W33687  32.041   8.836  12.537
65270W        W33688  12.654  23.136  10.585
65271W        W33689  30.474   0.302   1.702
65272W        W33690   3.415  11.834   3.697
65273W        W33691  25.507   0.908  10.508
65274W        W33692  33.526  25.168  13.850
65275W        W33693   3.908  11.345  13.447
65276W        W33694   1.337  44.453  12.565
65277W        W33695  35.416  12.290   0.271
65278W        W33696  36.882  15.283   0.869
65279W        W33697  27.973  42.888   4.334
65280W        W33698  16.299  34.422  11.940
65281W        W33699  34.945  38.029  13.815
65282W        W33700   2.369  10.643  13.343
65283W        W33701  33.582  42.358   1.370
65284W        W33702  12.299  42.434  12.426
65285W        W33703  39.995  32.935  13.007
65286W        W33704   5.829  44.351   2.817
65287W        W33705  42.884  25.576   1.700
65288W        W33706   4.364  37.985   0.764
65289W        W33707   6.371  35.424   0.443
65290W        W33708   0.468  40.944   1.364
65291W        W33709  24.648   2.831   2.723
65292W        W33710  23.117   3.764  14.950
65293W        W33711  42.838  42.963  12.890
65294W        W33712  40.839  25.177   3.634
65295W        W33713  44.341  36.376   0.920
65296W        W33714  29.039   9.282   9.926
65297W        W33715  13.240  37.011   3.276
65298W        W33716  31.923  17.776  10.967
65299W        W33717   8.829  43.853  11.515
65300W        W33718  11.739   9.165   3.690
65301W        W33719  25.021   6.390  14.830
65302W        W33720  13.692   7.692  13.809
65303W        W33721  32.985  21.604  11.944
65304W        W33722  24.086   3.381   1.809
65305W        W33723   8.214  11.651   4.790
65306W        W33724  24.720  43.905  14.369
65307W        W33725  35.482  24.030  14.021
65308W        W33726  10.708  27.038   1.228
65309W        W33727   7.376  16.793   4.144
65310W        W33728   8.321  28.171   2.369
65311W        W33729  18.198   3.841  10.427
65312W        W33730  40.994  27.951   0.455
65313W        W33731   1.397  22.034   1.435
65314W        W33732  32.511  29.542  12.029
65315W        W33733  44.949  15.085  11.608
65316W        W33734  21.660   9.786   0.775
65317W        W33735   3.790   1.460  13.021
65318W        W33736   3.339  38.992  10.913
65319W        W33737  14.589   7.213  14.929
65320W        W33738  43.874  33.408   4.673
65321W        W33739  16.688   8.373  11.374
65322W        W33740  43.886  35.985   1.427
65323W        W33741  38.347  30.985  12.365
65324W        W33742  34.422  35.573  12.973
65325W        W33743  41.882  32.095  10.417
65326W        W33744   7.392  18.583   0.915
65327W        W33745  41.022  42.405  10.645
65328W        W33746  16.678   2.292  14.931
65329W        W33747   6.417  16.158   3.229
65330W        W33748  36.400  20.169   0.787
65331W        W33749   1.914  33.914   3.697
65332W        W33750  22.589   8.160  11.524
65333W        W33751  36.569  22.689   3.663
65334W        W33752  35.399  15.304   2.190
65335W        W33753  19.041  26.700   0.786
65336W        W33754  39.001  27.563   0.921
65337W        W33755  20.036  23.113  12.948
65338W        W33756   4.241  19.742   2.770
65339W        W33757  25.996  11.778  11.046
65340W        W33758   6.923  42.994  11.587
65341W        W33759  10.303  40.327   5.086
65342W        W33760  41.995  12.200  14.468
65343W        W33761  44.908  30.078  13.453
65344W        W33762  30.644  18.183  12.020
65345W        W33763  19.656  33.951  11.512
65346W        W33764   8.166  19.199   2.689
65347W        W33765  14.650  25.030   2.858
65348W        W33766   3.955   6.200  10.946
65349W        W33767  36.915  29.575  11.105
65350W        W33768  33.936  15.815  11.450
65351W        W33769   6.266  14.155  11.424
65352W        W33770  34.534  28.640  12.367
65353W        W33771  26.019  30.143  10.598
65354W        W33772  36.518  35.950   3.244
65355W        W33773   7.730  25.062   2.709
65356W        W33774  42.383  20.066   2.789
65357W        W33775  10.141  12.211   3.379
65358W        W33776  15.817  20.093  11.938
65359W        W33777  20.676  23.507   5.253
65360W        W33778  40.008  31.461   1.727
65361W        W33779  44.876  41.034  14.330
65362W        W33780   0.798  39.320   3.680
65363W        W33781  19.104  42.798  10.905
65364W        W33782   8.209  37.400  12.390
65365W        W33783  21.593  37.524   2.690
65366W        W33784  37.527  36.047  14.327
65367W        W33785  44.383  13.781  13.865
65368W        W33786  21.211   5.841   0.347
65369W        W33787  13.133  35.476   3.264
65370W        W33788  19.764  17.076   1.433
65371W        W33789  22.233  19.605  11.573
65372W        W33790  32.047  12.637  12.987
65373W        W33791   3.292  16.283   1.400
65374W        W33792  44.489   9.295  11.483
65375W        W33793  41.431  41.837  11.508
65376W        W33794   6.290   9.773  14.893
65377W        W33795   3.450  42.975   1.801
65378W        W33796  12.291  41.405   2.854
65379W        W33797  17.801   2.758   4.733
65380W        W33798  42.501  31.402   4.620
65381W        W33799  33.552   3.416   1.278
65382W        W33800  14.736  34.015   0.279
65383W        W33801  37.471  15.629   0.847
65384W        W33802  14.618  24.632   2.763
65385W        W33803  32.130   3.913  12.894
65386W        W33804  38.547   5.428   1.703
65387W        W33805  40.474   9.830   2.898
65388W        W33806   5.422  24.572  14.515
65389W        W33807  25.220  18.701   0.965
65390W        W33808  40.898  26.034  14.466
65391W        W33809   6.694  37.981  11.861
65392W        W33810  38.519   8.899  11.979
65393W        W33811  30.077   1.340  13.961
65394W        W33812  33.023  21.080  12.053
65395W        W33813  22.724   7.801  14.974
65396W        W33814  27.664  43.016   0.322
65397W        W33815   0.876  28.614   1.877
65398W        W33816  38.532  44.291   4.650
65399W        W33817  27.458   2.404  13.456
65400W        W33818   4.277  17.598  12.553
65401W        W33819  31.005  22.221  10.530
65402W        W33820   1.757  26.552   9.995
65403W        W33821   4.715  10.687   4.701
65404W        W33822   3.955  11.730  14.888
65405W        W33823  38.335  21.105  11.858
65406W        W33824  40.014  42.369  11.489
65407W        W33825  33.122  10.262  14.829
65408W        W33826  39.902  25.502  12.431
65409W        W33827   5.247   0.407   4.734
65410W        W33828  15.245  40.934   2.293
65411W        W33829   6.323  16.155  11.881
65412W        W33830  38.482  12.696  13.042
65413W        W33831  37.384   2.455   2.194
65414W        W33832  17.583   4.933  11.609
65415W        W33833   7.306  37.066   1.311
65416W        W33834   0.375  18.664  11.596
65417W        W33835  28.000  23.595   1.338
65418W        W33836  21.604  34.522   2.828
65419W        W33837  15.208   6.893   4.253
65420W        W33838  35.989  30.940  13.493
65421W        W33839   6.780   9.843  13.494
65422W        W33840   6.208  26.487   4.680
65423W        W33841  18.544  32.429   3.808
65424W        W33842  31.563  19.776  12.889
65425W        W33843  44.443   2.426  13.370
65426W        W33844  11.782  34.903   1.772
65427W        W33845  28.536  15.122   2.768
65428W        W33846   8.713  19.601  12.094
65429W        W33847  38.057  28.634  11.124
65430W        W33848  42.904  28.584   2.318
65431W        W33849  16.603  36.502   4.678
65432W        W33850  25.189  20.092  12.094
65433W        W33851  27.472  39.451   4.314
65434W        W33852  39.982   2.883  13.901
65435W        W33853   1.344  36.054  14.295
65436W        W33854  19.694  43.423   4.790
65437W        W33855   7.189  29.065  11.068
65438W        W33856  12.194   7.328   1.840
65439W        W33857  16.187  37.569  11.512
65440W        W33858   5.772  35.422  12.925
65441W        W33859  13.165  29.922   0.814
65442W        W33860  43.784   4.831  13.446
65443W        W33861  32.490  10.305  14.309
65444W        W33862  16.307  44.382   1.329
65445W        W33863   1.294  41.909  14.967
65446W        W33864  26.598  36.455  14.487
65447W        W33865  37.534  42.875   1.216
65448W        W33866  41.352  10.189   2.786
65449W        W33867   7.694  42.818  10.064
65450W        W33868  35.944  10.751   2.380
65451W        W33869  32.091  21.207   1.211
65452W        W33870  40.023   4.709   1.287
65453W        W33871  19.089  12.793   0.810
65454W        W33872   8.404  31.475   0.886
65455W        W33873  13.207  40.013  12.910
65456W        W33874  21.557  15.586  14.767
65457W        W33875  11.833  25.609   3.250
65458W        W33876  18.229  13.153  13.429
65459W        W33877   4.812  17.198   5.309
65460W        W33878  30.012  17.208  14.442
65461W        W33879  15.787  36.072  11.928
65462W        W33880  40.355  39.861  14.987
65463W        W33881  43.880  25.195   0.411
65464W        W33882  26.080  27.949  11.910
65465W        W33883  12.126  44.896  11.471
65466W        W33884   6.851  13.804  12.081
65467W        W33885  22.054  13.820   3.686
65468W        W33886  27.545  22.015   4.706
65469W        W33887  22.553  42.782  13.006
65470W        W33888  30.152   4.888   4.313
65471W        W33889  20.717  38.860  10.014
65472W        W33890   2.877  20.755  10.139
65473W        W33891  15.265  13.117   0.771
65474W        W33892  22.236  38.951   5.272
65475W        W33893  27.978  12.678   3.669
65476W        W33894   1.884  22.188   5.752
65477W        W33895   8.294   5.821   1.409
65478W        W33896   8.163  22.013  10.532
65479W        W33897  42.005   6.724   3.289
65480W        W33898  23.697  31.144  13.819
65481W        W33899  29.101  16.580   0.768
65482W        W33900  27.129  36.461  12.558
65483W        W33901   6.358  43.479  10.597
65484W        W33902  17.757  22.044   2.855
65485W        W33903  39.547  35.027  13.046
65486W        W33904  27.040  34.434  14.501
65487W        W33905  25.194  15.198  10.568
65488W        W33906  23.088  10.636  11.042
65489W        W33907  19.269  16.227  14.760
65490W        W33908  18.265  23.027   3.242
65491W        W33909  20.555  16.226  12.463
65492W        W33910  25.197  19.637  14.868
65493W        W33911  44.330  23.112  11.976
65494W        W33912  14.691  14.340  14.027
65495W        W33913  39.917   4.239   2.281
65496W        W33914  28.075  15.763   3.862
65497W        W33915  35.421  16.202   4.181
65498W        W33916  37.349  39.049  11.957
65499W        W33917   7.834   5.386   4.608
65500W        W33918  29.539  11.260   1.349
65501W        W33919  12.794  39.423  13.433
65502W        W33920   6.799  38.935   2.730
65503W        W33921   4.840   8.288  12.050
65504W        W33922  39.429  34.501   4.200
65505W        W33923  41.429  40.470  10.989
65506W        W33924  18.151  22.220  13.532
65507W        W33925  12.355  31.067  12.906
65508W        W33926  40.428  41.448  10.000
65509W        W33927  44.342  29.998   0.892
65510W        W33928  35.527   1.809   0.915
65511W        W33929  24.212   9.806   0.899
65512W        W33930  31.898   6.424   2.383
65513W        W33931  37.517   3.274   1.720
65514W        W33932  16.571  44.287   2.318
65515W        W33933  20.118   4.929  12.017
65516W        W33934  25.057   9.346  14.987
65517W        W33935  16.568   9.702  10.406
65518W        W33936   5.332  21.581   0.404
65519W        W33937   0.293  23.018   1.423
65520W        W33938  22.523   5.433   3.243
65521W        W33939  36.356  37.924  13.892
65522W        W33940  18.669  42.291   4.828
65523W        W33941  24.041  20.235  14.422
65524W        W33942   8.801   8.668   1.409
65525W        W33943  33.071  28.621  11.537
65526W        W33944  37.086  44.322  11.085
65527W        W33945  42.386   3.294   3.651
65528W        W33946  36.392  31.088   1.340
65529W        W33947  29.427  29.575  10.624
65530W        W33948  12.116  36.935  14.799
65531W        W33949  13.122   6.248  10.978
65532W        W33950   4.259  41.514   4.155
65533W        W33951  42.455  32.534  12.439
65534W        W33952  23.633  37.572  15.000
65535W        W33953  29.546   6.720  13.462
65536W        W33954  32.628   5.282  13.884
65537W        W33955  27.655   4.299   2.228
65538W        W33956  14.667   8.245   4.622
65539W        W33957  27.126  24.659  10.965
65540W        W33958  22.606  43.005   2.696
65541W        W33959  15.791  42.827   2.408
65542W        W33960  23.688  35.018  13.907
65543W        W33961  10.380  36.856  12.517
65544W        W33962  20.203  44.394   0.267
65545W        W33963  36.945  41.878   4.223
65546W        W33964  33.596   3.402  12.475
65547W        W33965   2.347  22.613   3.791
65548W        W33966  33.574  35.857  11.999
65549W        W33967  34.065  10.225  14.371
65550W        W33968  26.144   5.397  11.384
65551W        W33969  25.125  26.611  10.107
65552W        W33970  24.564  32.400  12.855
65553W        W33971   3.733   9.812   3.373
65554W        W33972  35.025   1.882  12.579
65555W        W33973  24.042   4.931   2.814
65556W        W33974  40.875  12.327   0.298
65557W        W33975  10.312  34.494   4.621
65558W        W33976   5.344  11.159   2.312
65559W        W33977  37.520  38.441   4.753
65560W        W33978  27.692  13.613   3.766
65561W        W33979  44.859   1.264  10.608
65562W        W33980  26.603  26.479  11.511
65563W        W33981  19.538  13.625  11.980
65564W        W33982  19.054  35.565  12.511
65565W        W33983  42.949  28.465   1.373
65566W        W33984  14.189  16.300  14.020
65567W        W33985  36.391  37.520  11.885
65568W        W33986  15.088   7.408  11.871
65569W        W33987  27.998  39.466  12.856
65570W        W33988  11.745  19.119   3.755
65571W        W33989  19.739  16.087  14.478
65572W        W33990  44.343  26.180  13.535
65573W        W33991  28.012   4.759   3.299
65574W        W33992  37.871  16.246   2.758
65575W        W33993  33.564  25.468   2.868
65576W        W33994  17.724   2.755   2.356
65577W        W33995   3.283  34.115  13.937
65578W        W33996  23.221  38.345  11.975
65579W        W33997  20.574  16.778   0.469
65580W        W33998  35.587  12.784  11.392
65581W        W33999  21.070  12.229  11.859
65582W        W34000  41.865  39.000  10.468
65583W        W34001   0.444  33.022   2.669
65584W        W34002  29.605  37.492  13.490
65585W        W34003  44.489  22.603   1.220
65586W        W34004  24.721   6.743  10.986
65587W        W34005   7.179  38.842   1.212
65588W        W34006  25.186  19.043  12.922
65589W        W34007  40.042  34.901   1.317
65590W        W34008  15.111  43.276   4.202
65591W        W34009  44.854   9.676  10.429
65592W        W34010  28.959  18.782  13.971
65593W        W34011  13.793   8.874   1.380
65594W        W34012  13.725  13.292  11.984
65595W        W34013  13.607  23.985  11.047
65596W        W34014  22.229  19.278   0.355
65597W        W34015  33.050  14.113   3.745
65598W        W34016   8.399  36.888   1.934
65599W        W34017  39.409  40.371  13.439
65600W        W34018  29.163  25.103   0.882
65601W        W34019  10.652  33.412  13.535
65602W        W34020  16.771  42.327  13.500
65603W        W34021  41.902  11.289   2.820
65604W        W34022   7.908   7.804  11.992
65605W        W34023   7.857   7.356   1.874
65606W        W34024  43.875   1.953  12.492
65607W        W34025   6.366  24.041   1.211
65608W        W34026  10.828  42.508   2.797
65609W        W34027  34.527   6.685  11.995
65610W        W34028   0.923  41.496  12.914
65611W        W34029  31.448   5.782  10.486
65612W        W34030  43.008  23.081   2.740
65613W        W34031   5.789  18.592  14.456
65614W        W34032  25.975  16.212   3.729
65615W        W34033  19.259   8.867  13.928
65616W        W34034  29.930  19.142  12.825
65617W        W34035  31.033  41.008  11.437
65618W        W34036  32.413  33.088  10.607
65619W        W34037   9.761  14.235   3.151
65620W        W34038   0.977  14.108   2.270
65621W        W34039  19.109   7.260  14.445
65622W        W34040  39.830  24.619  11.015
65623W        W34041  28.435  22.077  12.859
65624W        W34042  21.171  15.326   0.348
65625W        W34043  31.633  41.862  12.502
65626W        W34044  39.447  19.070   2.213
65627W        W34045  19.558  36.372  13.426
65628W        W34046  13.218  25.052  13.022
65629W        W34047  27.551   2.297   0.873
65630W        W34048  20.229  14.691  13.048
65631W        W34049  38.477  39.948  12.460
65632W        W34050  23.659  15.805  13.012
65633W        W34051  38.987  41.372  14.345
65634W        W34052  37.856  29.645   1.814
65635W        W34053  38.072   9.808  11.975
65636W        W34054  19.595  31.485  10.979
65637W        W34055  11.143   8.697   0.430
65638W        W34056  28.111  38.847   4.615
65639W        W34057   6.219   4.766  13.866
65640W        W34058   5.859  38.963   2.374
65641W        W34059  29.064  40.438   3.792
65642W        W34060   0.745  39.490   1.286
65643W        W34061   3.302  18.267  14.344
65644W        W34062  43.319  18.702   2.710
65645W        W34063  42.496  33.422  11.957
65646W        W34064  10.277   0.314  13.884
65647W        W34065  38.861   5.908   1.214
65648W        W34066  34.436  16.806   2.384
65649W        W34067   3.741  19.262   2.786
65650W        W34068  30.952  32.560  11.882
65651W        W34069  40.512  42.354   1.881
65652W        W34070  25.023  37.448   2.346
65653W        W34071  36.455   0.950   1.823
65654W        W34072  34.911  23.223   2.665
65655W        W34073  23.097  10.280  12.367
65656W        W34074  10.751  38.496   3.311
65657W        W34075   4.775  34.052  14.024
65658W        W34076  12.698  31.418   2.774
65659W        W34077  31.950   6.776  11.406
65660W        W34078  37.973  21.180  14.277
65661W        W34079  29.502  27.522  11.496
65662W        W34080  20.619  20.080  11.864
65663W        W34081  20.062  26.067  10.050
65664W        W34082  36.877  28.531   3.639
65665W        W34083   6.698  27.060  10.466
65666W        W34084   9.308  20.640   1.351
65667W        W34085  15.262   5.732  12.577
65668W        W34086  18.108  24.704  11.886
65669W        W34087  10.708  23.537  14.965
65670W        W34088  41.384  21.532  14.441
65671W        W34089  24.980  44.003   1.330
65672W        W34090  38.001  42.477  14.786
65673W        W34091  14.200   8.384  10.483
65674W        W34092   7.387  20.688  10.471
65675W        W34093   6.401  33.018  11.552
65676W        W34094  31.926  33.519   0.409
65677W        W34095  37.410  29.166   2.700
65678W        W34096  24.634  12.769   1.303
65679W        W34097  42.946  41.338   4.154
65680W        W34098  16.655  39.387   1.340
65681W        W34099  27.178  36.499  14.312
65682W        W34100   1.309  34.376   1.395
65683W        W34101  17.171   7.741   4.192
65684W        W34102  19.216  37.402   3.689
65685W        W34103  18.291  28.588   3.725
65686W        W34104  39.809   5.348  12.387
65687W        W34105  23.051  42.972   0.913
65688W        W34106  15.175  34.946   0.457
65689W        W34107  16.109  27.972   3.253
65690W        W34108  16.259  13.697   3.214
65691W        W34109  10.229  25.699   3.160
65692W        W34110   1.811  19.562  12.958
65693W        W34111   1.349  23.039  13.324
65694W        W34112   9.746  36.442   4.708
65695W        W34113  41.793  42.845  11.883
65696W        W34114  20.197   5.378  11.931
65697W        W34115  32.139  41.961  14.402
65698W        W34116  15.266  31.480  11.927
65699W        W34117  35.579   9.841  14.934
65700W        W34118   6.403   4.213  11.120
65701W        W34119  27.504  23.661   2.254
65702W        W34120  39.399  15.754  14.892
65703W        W34121  42.510  44.881   3.737
65704W        W34122   7.248   4.246  13.461
65705W        W34123  18.694  19.690  10.576
65706W        W34124   9.367  11.665  12.538
65707W        W34125  41.350  30.654   1.726
65708W        W34126  41.432   2.259   1.867
65709W        W34127   6.826  26.595   3.271
65710W        W34128  36.360  42.904  13.344
65711W        W34129  28.077   8.300   2.845
65712W        W34130   8.900  22.064   2.236
65713W        W34131  21.714   7.417  14.488
65714W        W34132  22.096  18.210   2.204
65715W        W34133  42.330  39.946   1.725
65716W        W34134   9.244  44.907   3.294
65717W        W34135   4.315  18.706   3.805
65718W        W34136  10.329  13.623   3.318
65719W        W34137  27.522   0.952  11.032
65720W        W34138  21.543  14.269   4.136
65721W        W34139   5.270  37.931  11.419
65722W        W34140  21.547  18.747  10.520
65723W        W34141  33.602  31.095  12.901
65724W        W34142  17.159  40.845   3.743
65725W        W34143   1.967   4.341   2.404
65726W        W34144  39.053  26.142  12.950
65727W        W34145  21.173  26.206   2.701
65728W        W34146  44.362  30.917  10.999
65729W        W34147  41.026  26.603   5.247
65730W        W34148  39.869  12.663  10.627
65731W        W34149  41.850  39.360   1.899
65732W        W34150  19.568   3.405   3.844
65733W        W34151  21.237   4.899   2.739
65734W        W34152   7.327  26.586  12.947
65735W        W34153  27.156  41.417  11.096
65736W        W34154  12.816   1.302  14.758
65737W        W34155   4.706   0.406   1.279
65738W        W34156  38.416  30.477  12.923
65739W        W34157  37.919  34.095   3.718
65740W        W34158  28.471  16.172  11.900
65741W        W34159   0.405  16.706  14.345
65742W        W34160   7.795  17.601   3.224
65743W        W34161  16.112   8.291  11.888
65744W        W34162  44.886  22.611  13.374
65745W        W34163  17.109  23.640   0.327
65746W        W34164  28.488  26.174  11.946
65747W        W34165  13.815  13.651  11.079
65748W        W34166   7.786  44.969  13.960
65749W        W34167  41.858  24.973   3.369
65750W        W34168  19.710  40.363   3.851
65751W        W34169  32.105   6.244  11.606
65752W        W34170  21.542   3.942   4.692
65753W        W34171  18.265  35.088   4.771
65754W        W34172  31.481   2.426   3.217
65755W        W34173  18.143  29.045   4.764
65756W        W34174   6.699   5.263  12.565
65757W        W34175   5.889  20.272   2.729
65758W        W34176  11.843  33.111   3.350
65759W        W34177  41.809  12.117  13.531
65760W        W34178  19.053   7.886  13.022
65761W        W34179  32.443  17.642  11.914
65762W        W34180  15.202  44.889   3.325
65763W        W34181  37.572  30.446  13.416
65764W        W34182   9.171   5.270   3.644
65765W        W34183  15.692  40.847  12.380
65766W        W34184   2.952  12.241   1.289
65767W        W34185   2.247  29.528   0.478
65768W        W34186  11.813  18.256  11.865
65769W        W34187  33.615  16.220  12.447
65770W        W34188  15.123  15.776  14.780
65771W        W34189  30.130  26.205   3.164
65772W        W34190  13.724  43.003   4.762
65773W        W34191  43.461  25.971  13.941
65774W        W34192  26.980  20.546  11.116
65775W        W34193   7.861  27.117   0.739
65776W        W34194  15.642  10.766   1.231
65777W        W34195  41.364   4.761  14.464
65778W        W34196  44.777   3.807  14.865
65779W        W34197  18.244  12.714  13.953
65780W        W34198  28.006  13.836  10.894
65781W        W34199  41.796  17.653  11.113
65782W        W34200  36.568  41.427   1.294
65783W        W34201  14.683   1.311   0.374
65784W        W34202   1.251  23.671  11.416
65785W        W34203  26.114  23.671   3.298
65786W        W34204  41.347  29.059   3.786
65787W        W34205   2.363  31.423  13.484
65788W        W34206   2.254   0.361  11.964
65789W        W34207   5.795  26.103  14.021
65790W        W34208  44.382   8.736   1.721
65791W        W34209   5.395  29.025  11.575
65792W        W34210  37.499  21.588   1.241
65793W        W34211  31.951   8.819  10.519
65794W        W34212  26.136  12.319  14.029
65795W        W34213  13.717  41.488   3.717
65796W        W34214  13.700  27.569   1.706
65797W        W34215   4.807   3.273   3.818
65798W        W34216  29.070  24.721  13.861
65799W        W34217  20.664  43.504   4.330
65800W        W34218  25.109  17.652  14.924
65801W        W34219  31.596  18.789  11.070
65802W        W34220   8.164  38.930   1.877
65803W        W34221  38.342  16.676  12.969
65804W        W34222   4.253  10.276  11.591
65805W        W34223  44.440  10.758  12.843
65806W        W34224  42.497  30.653   3.813
65807W        W34225  40.843  23.233   2.282
65808W        W34226  35.980   6.797  12.382
65809W        W34227  20.098  26.960   4.309
65810W        W34228  20.657  32.087  12.467
65811W        W34229  21.551  19.629   0.331
65812W        W34230  27.196   3.269   0.927
65813W        W34231  39.473  32.142  13.439
65814W        W34232  21.056  43.979   0.955
65815W        W34233   7.176  27.646   3.249
65816W        W34234   3.804   3.272   5.231
65817W        W34235  25.667  15.094   4.166
65818W        W34236  42.296   8.346  14.461
65819W        W34237  21.747  13.312  14.935
65820W        W34238  42.510  22.190   4.695
65821W        W34239  30.002  22.620  14.978
65822W        W34240  34.041  14.227  10.454
65823W        W34241  22.072  26.585  14.994
65824W        W34242  15.259   8.399  12.484
65825W        W34243  40.995  40.042  14.924
65826W        W34244  44.328  28.030   0.483
65827W        W34245   5.252  36.892  14.031
65828W        W34246  31.043  36.423   4.640
65829W        W34247   8.729   7.886  14.473
65830W        W34248  11.286  32.093  10.536
65831W        W34249  18.749  17.191  13.960
65832W        W34250  39.028  18.654   0.875
65833W        W34251   2.259  18.620   1.247
65834W        W34252  33.422   0.821  10.972
65835W        W34253   9.389   4.433  13.853
65836W        W34254  11.622  20.054   0.729
65837W        W34255  21.181  43.339  13.006
65838W        W34256  34.058  38.828   4.625
65839W        W34257  37.040  13.317   1.706
65840W        W34258  35.077  32.067   1.447
65841W        W34259  20.245  22.190  10.457
65842W        W34260  21.668  35.044   4.833
65843W        W34261  19.618  24.515   0.331
65844W        W34262  27.636   4.863   3.657
65845W        W34263  18.224  12.254  10.142
65846W        W34264  34.037  14.305   2.867
65847W        W34265   4.282  33.497  10.403
65848W        W34266  30.971  30.019  13.507
65849W        W34267   0.979   4.813   1.872
65850W        W34268  17.096  22.250   0.256
65851W        W34269   5.837  18.154   3.235
65852W        W34270   5.774  20.273  12.967
65853W        W34271  30.950   6.413  14.357
65854W        W34272  14.603  33.531  12.057
65855W        W34273   5.782  42.441  13.321
65856W        W34274  34.878  10.138  12.840
65857W        W34275   0.482   4.837   4.154
65858W        W34276  16.219  29.609   1.739
65859W        W34277   2.868  29.952  11.043
65860W        W34278   4.703  33.000   2.248
65861W        W34279  28.562  32.485  12.371
65862W        W34280  27.137  35.453  13.311
65863W        W34281  42.896  39.336  13.791
65864W        W34282  43.870   8.720  11.485
65865W        W34283  15.713  37.890   2.318
65866W        W34284  38.550  33.957   3.188
65867W        W34285   3.865   9.274   3.788
65868W        W34286   1.886  41.413   2.781
65869W        W34287  40.851   9.205  11.494
65870W        W34288  11.658  11.305   4.653
65871W        W34289  12.190   3.912   1.761
65872W        W34290  37.078  40.882   1.256
65873W        W34291  39.002  36.452   2.856
65874W        W34292  33.109  32.090  13.935
65875W        W34293  40.381  26.679  13.848
65876W        W34294  39.520  44.928  13.349
65877W        W34295  18.279  27.558  12.948
65878W        W34296   5.777  15.642   1.253
65879W        W34297  15.201   2.409   0.953
65880W        W34298  35.940  16.255   1.714
65881W        W34299   1.946  35.079  13.822
65882W        W34300  13.269  32.445  10.465
65883W        W34301  11.150  19.133  11.091
65884W        W34302  44.468  24.702  10.591
65885W        W34303  20.111  25.615   1.812
65886W        W34304  21.606   9.831  14.428
65887W        W34305   5.342   7.181  10.994
65888W        W34306  17.797  39.397   2.318
65889W        W34307  40.486  35.020  14.903
65890W        W34308   4.714   4.889  11.604
65891W        W34309  17.706   5.834   5.701
65892W        W34310   2.851  37.350  13.041
65893W        W34311   3.294  21.666   1.384
65894W        W34312  21.099  19.740  14.290
65895W        W34313  35.491  26.192  10.620
65896W        W34314  33.431   6.696  12.903
65897W        W34315  18.638  25.144  12.580
65898W        W34316  38.482   2.893  14.880
65899W        W34317  41.893   3.745   1.393
65900W        W34318   9.673   5.862  11.050
65901W        W34319  36.000  24.492  13.528
65902W        W34320  15.232  14.141   4.225
65903W        W34321  18.780  35.973   0.765
65904W        W34322  28.080  34.437   2.212
65905W        W34323   9.342  24.501   3.670
65906W        W34324   5.214  37.845  13.413
65907W        W34325  28.987  35.868   0.246
65908W        W34326  12.759  18.615   1.355
65909W        W34327  36.007   9.721   0.924
65910W        W34328  13.217   6.427   3.852
65911W        W34329   5.887  26.474  14.776
65912W        W34330  33.922  29.100   3.152
65913W        W34331  16.676  40.979   1.852
65914W        W34332  30.929  42.525  13.337
65915W        W34333  27.613   1.335   2.316
65916W        W34334  32.917  42.341  14.405
65917W        W34335  38.477   8.820   4.284
65918W        W34336  25.502  33.905   0.371
65919W        W34337   7.284  17.771  13.869
65920W        W34338  22.064  32.483  12.514
65921W        W34339  38.843  41.801  13.537
65922W        W34340   0.262  10.668   3.385
65923W        W34341   3.361  26.003   0.729
65924W        W34342   8.361  34.895   2.677
65925W        W34343  17.742  41.883  14.367
65926W        W34344  39.912  36.899  12.516
65927W        W34345  27.583  24.013  12.865
65928W        W34346  42.979  28.182  10.581
65929W        W34347  34.987  43.989   4.299
65930W        W34348  30.551   4.906  11.474
65931W        W34349   3.813  39.023   0.274
65932W        W34350  11.301  37.527   5.204
65933W        W34351  25.611  23.626  11.094
65934W        W34352  29.081  28.963  11.376
65935W        W34353  28.986  11.749  13.885
65936W        W34354  39.985  16.752   2.183
65937W        W34355  29.543  29.556  13.474
65938W        W34356  31.411  24.570   0.397
65939W        W34357  23.093  24.194   2.840
65940W        W34358  24.503  21.029   3.834
65941W        W34359  44.836  33.022  12.577
65942W        W34360  35.539   6.834   1.870
65943W        W34361  35.574  13.144   1.916
65944W        W34362  33.945  43.351  13.417
65945W        W34363  41.305  21.185  14.391
65946W        W34364  29.564  41.859   3.868
65947W        W34365  23.015  16.590   1.824
65948W        W34366   3.777  13.777   1.397
65949W        W34367  13.621  13.639   1.805
65950W        W34368  16.251  37.945  13.324
65951W        W34369  23.165  14.654   1.235
65952W        W34370  41.017  38.352   3.796
65953W        W34371  43.788  30.628   1.402
65954W        W34372  10.221  26.668  12.859
65955W        W34373  44.419  43.334   3.198
65956W        W34374  26.604  15.678  12.074
65957W        W34375  20.584  18.683  11.525
65958W        W34376  43.987  41.522  14.368
65959W        W34377  39.468  35.959   1.717
65960W        W34378  19.110  19.560  12.440
65961W        W34379   4.874   8.691  12.419
65962W        W34380  29.073  13.770   0.843
65963W        W34381  21.671   7.768   4.256
65964W        W34382  28.595   5.305  12.532
65965W        W34383   5.770   5.869   1.875
65966W        W34384   2.778  13.342   3.282
65967W        W34385   7.828  28.006  13.384
65968W        W34386  21.708  12.174   0.408
65969W        W34387  16.688   6.209  13.974
65970W        W34388  29.648  14.666  11.910
65971W        W34389   0.387  27.505  10.635
65972W        W34390   4.361  26.576   0.966
65973W        W34391   5.854  14.154  11.089
65974W        W34392  28.143  16.155   2.272
65975W        W34393  37.538  34.864  10.594
65976W        W34394  20.099  38.413  14.312
65977W        W34395  39.551  41.307  13.327
65978W        W34396  20.084  15.186   4.705
65979W        W34397  30.533   2.441  11.976
65980W        W34398  27.059  37.390  10.641
65981W        W34399  40.321  24.646   3.225
65982W        W34400  39.535   7.308  11.537
65983W        W34401  26.530  36.085  12.516
65984W        W34402  11.713  34.043  11.379
65985W        W34403  44.825  18.097  13.011
65986W        W34404  42.384  10.287  12.514
65987W        W34405  35.469  27.686  13.458
65988W        W34406   6.315  11.684   4.780
65989W        W34407  28.135  12.647  11.115
65990W        W34408  34.943  40.422  13.990
65991W        W34409  33.922  19.173   2.186
65992W        W34410  32.553  25.091   2.244
65993W        W34411  32.140  32.458  14.931
65994W        W34412  40.384  16.202   3.318
65995W        W34413  15.812  25.131  14.494
65996W        W34414  24.198   7.265  10.519
65997W        W34415  18.184  41.461   3.339
65998W        W34416  36.524   9.156  12.349
65999W        W34417  25.098  25.097   0.255
66000W        W34418   4.424  12.691  14.953
66001W        W34419  29.622  20.173   0.412
66002W        W34420  44.500   4.742  11.584
66003W        W34421   6.786  29.990   0.793
66004W        W34422  39.450  17.697  13.791
66005W        W34423  12.300  33.973  14.439
66006W        W34424  20.251  35.095   3.681
66007W        W34425  38.918  12.273  13.337
66008W        W34426  16.213  32.462   2.724
66009W        W34427  23.533  11.656  12.465
66010W        W34428   7.242   1.954  11.011
66011W        W34429  29.117  41.001  12.982
66012W        W34430   9.838  42.028   2.901
66013W        W34431   7.335  17.603   2.227
66014W        W34432  21.217  33.958   2.241
66015W        W34433  14.200  29.039  14.946
66016W        W34434  16.783  23.134   4.609
66017W        W34435  33.893  25.642   3.685
66018W        W34436   4.269  18.567  13.893
66019W        W34437   3.351   0.281  13.003
66020W        W34438  29.919  17.274   4.252
66021W        W34439   2.468  40.331  14.999
66022W        W34440  30.983  30.588   2.729
66023W        W34441   5.400   6.880  12.919
66024W        W34442  13.302  19.778  14.976
66025W        W34443  27.971  24.990  11.038
66026W        W34444  35.423   0.834  12.027
66027W        W34445  41.876   4.759   2.410
66028W        W34446  34.111  34.055  10.920
66029W        W34447  42.982  29.143   0.947
66030W        W34448   9.365   9.176   2.317
66031W        W34449  41.480  14.204   3.286
66032W        W34450  19.579  14.785   3.282
66033W        W34451  41.815  24.205   2.262
66034W        W34452  34.518   9.218   3.291
66035W        W34453  42.447  33.940  14.904
66036W        W34454  24.654  43.314  10.564
66037W        W34455  36.473   8.216   0.376
66038W        W34456  30.463  26.542  10.530
66039W        W34457   5.345  16.585  11.577
66040W        W34458  38.037  22.706   1.432
66041W        W34459  15.592   8.397  13.987
66042W        W34460  44.316  25.520   2.900
66043W        W34461  32.017  19.140   0.776
66044W        W34462   0.976  23.172  13.475
66045W        W34463  19.680  24.636  10.005
66046W        W34464   1.754   3.245  14.859
66047W        W34465  21.145   9.807  12.840
66048W        W34466  13.226  16.602  13.476
66049W        W34467  36.470  44.338  14.430
66050W        W34468  10.232   5.851   2.297
66051W        W34469  44.919   3.811   1.915
66052W        W34470  23.209  23.010   3.218
66053W        W34471  36.954  41.811  10.601
66054W        W34472   4.386  39.452   0.802
66055W        W34473  13.181  23.197   0.956
66056W        W34474   5.355  33.501   3.243
66057W        W34475  36.061   6.699  14.808
66058W        W34476  30.144  31.601   3.176
66059W        W34477  18.770  26.669   1.799
66060W        W34478   6.842  39.007   0.445
66061W        W34479  33.069  10.872  13.358
66062W        W34480  42.981   5.227   2.892
66063W        W34481  20.028   2.897   2.248
66064W        W34482   7.360  39.405   4.698
66065W        W34483   2.448  31.995  11.972
66066W        W34484  17.215  36.095  10.949
66067W        W34485  22.625  20.728  10.639
66068W        W34486  39.494   9.663   4.696
66069W        W34487  40.315  39.932  12.499
66070W        W34488  41.856   5.262   4.270
66071W        W34489   7.873  43.021  14.385
66072W        W34490   6.742   2.908  13.801
66073W        W34491  33.602  42.786  14.797
66074W        W34492  14.825  31.991   0.285
66075W        W34493   0.252  44.444   1.747
66076W        W34494   1.975  26.559  10.558
66077W        W34495  36.552  11.632   3.330
66078W        W34496   4.877  25.682  14.903
66079W        W34497  15.680  29.519   5.248
66080W        W34498  27.545  37.007  11.116
66081W        W34499  34.392   0.745  13.416
66082W        W34500  37.036  10.243  11.933
66083W        W34501  15.821  31.552   4.755
66084W        W34502   5.380  29.460  11.105
66085W        W34503  40.875  11.179   3.769
66086W        W34504   6.769   4.218  13.312
66087W        W34505  40.425  29.668   1.443
66088W        W34506  31.975   1.435   5.213
66089W        W34507  39.874  10.268  15.000
66090W        W34508  24.707  18.635   1.751
66091W        W34509   9.185  43.469   3.215
66092W        W34510  26.503  13.192  12.976
66093W        W34511  27.964  18.194   4.821
66094W        W34512  30.026  33.458   3.719
66095W        W34513  19.707  34.995   1.239
66096W        W34514   0.760  44.375   2.673
66097W        W34515  30.542   3.278  14.973
66098W        W34516  11.804  40.047  13.948
66099W        W34517  30.039   7.213   5.271
66100W        W34518  16.657  15.639  12.909
66101W        W34519  37.543  36.437   0.742
66102W        W34520   0.807  19.194  11.481
66103W        W34521   9.346   2.943  13.813
66104W        W34522  43.336  38.366  14.885
66105W        W34523  21.070   2.917  13.026
66106W        W34524   1.952  34.432  13.988
66107W        W34525  14.832  33.949  14.833
66108W        W34526  27.183  30.633   3.207
66109W        W34527  30.643  37.037   0.352
66110W        W34528   0.817  42.503  12.833
66111W        W34529  34.377  20.556   2.673
66112W        W34530  15.268  15.232   4.680
66113W        W34531  16.639   9.887   1.419
66114W        W34532  36.856  43.358   0.248
66115W        W34533  19.046  12.224  13.856
66116W        W34534  25.564  42.312   3.363
66117W        W34535  14.111  42.329   2.811
66118W        W34536  26.531  44.807  13.346
66119W        W34537  12.146  21.555  11.120
66120W        W34538  21.263  28.590   1.381
66121W        W34539   6.867   7.298   1.444
66122W        W34540  17.139   9.374  13.490
66123W        W34541  32.979  39.896  11.084
66124W        W34542   1.801  34.558   4.296
66125W        W34543  25.524  24.537  12.051
66126W        W34544  32.478  36.973  14.980
66127W        W34545  41.958  10.187  14.843
66128W        W34546  21.600  24.622  12.369
66129W        W34547   9.708   2.335   1.801
66130W        W34548   5.280  33.615  14.987
66131W        W34549  39.955   8.691   4.664
66132W        W34550  16.812  19.576   2.738
66133W        W34551   6.239  35.553   1.418
66134W        W34552  36.512  40.000  11.485
66135W        W34553   3.818  41.043   0.792
66136W        W34554  32.417  14.668   0.899
66137W        W34555  10.206  10.346   4.328
66138W        W34556  15.776  39.020  11.924
66139W        W34557  35.580  31.538   2.269
66140W        W34558  25.126  32.913  11.060
66141W        W34559  44.348   9.234  14.326
66142W        W34560  24.978  17.569   0.736
66143W        W34561   7.906   9.178  11.900
66144W        W34562  42.883  15.286   4.655
66145W        W34563  41.470  27.030  11.909
66146W        W34564   6.916  42.315   3.286
66147W        W34565   2.789  22.678   2.891
66148W        W34566  31.534   7.226   1.399
66149W        W34567  11.729  36.925   2.318
66150W        W34568  14.756   8.299  12.072
66151W        W34569   7.785  11.222   2.741
66152W        W34570  17.754  12.187  11.001
66153W        W34571  12.281  13.678  10.920
66154W        W34572  18.096  14.757  12.546
66155W        W34573  22.025  13.704   4.210
66156W        W34574  28.999  18.746  10.996
66157W        W34575   0.416  34.542   2.674
66158W        W34576  22.582  23.165   2.696
66159W        W34577  14.329  30.963   5.126
66160W        W34578  13.162  13.127  14.899
66161W        W34579  34.962   2.955  14.899
66162W        W34580  19.578  39.835  12.008
66163W        W34581  22.597   2.448  14.453
66164W        W34582  38.930   3.890   1.406
66165W        W34583  29.557  18.735  11.079
66166W        W34584  26.135  31.939   1.745
66167W        W34585  19.222  26.987   3.765
66168W        W34586  16.175  29.438  10.533
66169W        W34587   5.840  41.011   0.769
66170W        W34588  36.955   5.242  13.944
66171W        W34589  23.140  12.776  12.496
66172W        W34590  44.285   5.800  12.535
66173W        W34591   4.854  37.386  10.041
66174W        W34592  19.582   8.694   4.790
66175W        W34593  23.526  27.594   0.907
66176W        W34594   3.268  39.017   2.854
66177W        W34595   6.888  14.805  12.345
66178W        W34596   0.380   2.333  13.995
66179W        W34597   1.774  18.287   3.220
66180W        W34598  13.696   6.365   0.937
66181W        W34599  19.265  27.139  14.893
66182W        W34600  30.488  44.328   4.203
66183W        W34601  29.492  41.992   4.761
66184W        W34602  22.212  27.016   2.820
66185W        W34603   6.331  38.010  11.459
66186W        W34604  44.795  15.595  10.640
66187W        W34605  41.800  43.009  10.433
66188W        W34606  32.938  24.072   0.428
66189W        W34607  23.640  23.490   1.865
66190W        W34608  27.978  18.053   5.186
66191W        W34609  20.043  11.835   2.873
66192W        W34610  14.728  41.537  11.583
66193W        W34611  41.896  27.511   2.217
66194W        W34612   3.754  37.900   4.188
66195W        W34613   9.173   6.370  12.475
66196W        W34614  19.603   8.276  13.990
66197W        W34615  38.367  43.951   2.746
66198W        W34616   6.210   4.819   3.302
66199W        W34617  33.880  22.630   4.830
66200W        W34618  18.762  22.706  14.502
66201W        W34619  26.203  17.234  14.796
66202W        W34620  22.250  10.759   0.733
66203W        W34621   6.423  24.485  10.549
66204W        W34622   2.828   3.215   4.346
66205W        W34623   4.393  30.488   4.244
66206W        W34624  32.611  31.947  10.036
66207W        W34625   4.937  32.114   3.374
66208W        W34626  11.157   9.656  12.371
66209W        W34627   5.231  13.284  10.920
66210W        W34628  28.590  19.110  12.534
66211W        W34629  43.890  28.034  12.898
66212W        W34630  37.493  16.081  12.962
66213W        W34631  19.248  21.137   1.389
66214W        W34632  10.192  30.065  10.604
66215W        W34633  37.532  18.675  12.995
66216W        W34634  42.899  24.655   4.753
66217W        W34635   6.403  22.639   1.377
66218W        W34636   5.836  22.631   2.321
66219W        W34637  38.425   8.789   3.724
66220W        W34638   8.194   0.408  12.373
66221W        W34639  14.129   3.930  14.509
66222W        W34640  36.881  44.915  14.274
66223W        W34641  25.683  35.509   4.597
66224W        W34642   3.284  32.053   0.299
66225W        W34643  27.098   2.426  10.570
66226W        W34644  38.339   1.899   1.250
66227W        W34645  22.084  39.832   1.302
66228W        W34646  13.226  12.707  13.857
66229W        W34647  26.475  14.172  11.066
66230W        W34648   0.318  39.954  10.455
66231W        W34649  30.563  14.711  13.531
66232W        W34650  22.195  18.557  13.461
66233W        W34651  31.117   4.708  13.503
66234W        W34652  16.787  17.256  14.297
66235W        W34653  40.032  18.169   2.831
66236W        W34654   5.853  10.168  13.018
66237W        W34655  25.976  34.120   2.370
66238W        W34656  40.952   8.847   0.329
66239W        W34657  44.478  11.794  14.776
66240W        W34658  28.066  17.167  14.326
66241W        W34659   5.226  22.104   3.714
66242W        W34660  19.151  18.740   0.472
66243W        W34661  26.545  30.495  13.826
66244W        W34662   0.908   2.923  11.513
66245W        W34663  11.328  39.852   1.779
66246W        W34664  23.154  12.635   0.450
66247W        W34665  43.785   9.375  12.551
66248W        W34666   4.704   9.650   1.821
66249W        W34667  17.288  26.061  13.368
66250W        W34668  28.115  15.116  11.608
66251W        W34669  19.274  13.777  10.420
66252W        W34670  17.125  40.877   4.344
66253W        W34671  17.065  10.264  11.413
66254W        W34672   7.300   4.274   4.607
66255W        W34673   3.904  23.664  13.342
66256W        W34674   9.229  12.196  13.365
66257W        W34675  38.532  28.052   4.300
66258W        W34676  43.456  12.278   1.905
66259W        W34677  17.068  21.017  12.470
66260W        W34678  33.465  36.009  14.378
66261W        W34679  14.144   1.472  11.471
66262W        W34680  25.091  28.172   5.252
66263W        W34681  31.430  38.833  13.907
66264W        W34682  34.387  11.701  10.918
66265W        W34683  18.674  25.086   9.611
66266W        W34684  42.285  18.113  11.504
66267W        W34685   0.915   0.776   3.254
66268W        W34686   9.298  13.791   0.303
66269W        W34687  33.456   7.800  12.898
66270W        W34688  17.216  21.096   1.242
66271W        W34689  12.361   4.733  12.565
66272W        W34690  31.598  16.241  14.001
66273W        W34691   8.685  26.113   2.184
66274W        W34692  29.031  20.178  10.466
66275W        W34693  11.355  37.398   1.716
66276W        W34694   8.895   5.831  14.444
66277W        W34695  15.821  31.990  10.027
66278W        W34696  27.506  22.145  14.394
66279W        W34697   7.848   6.790   1.403
66280W        W34698   0.975   9.349   3.782
66281W        W34699  10.279  38.545   4.661
66282W        W34700  27.530   0.918  13.796
66283W        W34701  30.942  25.153   3.221
66284W        W34702  40.980  38.400  14.998
66285W        W34703  20.208  19.184  10.573
66286W        W34704  42.951  28.129   5.227
66287W        W34705   9.650  20.044  14.330
66288W        W34706   5.192  37.079  11.122
66289W        W34707  13.784  17.788  11.473
66290W        W34708  36.050  26.681  14.017
66291W        W34709  36.941  26.464   3.191
66292W        W34710  34.490   2.772   2.283
66293W        W34711  42.906  15.139  13.845
66294W        W34712   1.859  14.655  14.486
66295W        W34713  39.999  17.749   1.290
66296W        W34714  40.824  40.976  13.522
66297W        W34715  36.011  10.229  14.011
66298W        W34716   2.397  16.260   0.767
66299W        W34717   6.920  18.633  10.441
66300W        W34718  42.966  29.456  11.874
66301W        W34719   8.837  39.384  10.419
66302W        W34720  39.020   1.323  14.361
66303W        W34721  22.193   8.832   1.325
66304W        W34722   0.452  30.131  12.445
66305W        W34723  43.966  18.758   2.748
66306W        W34724  19.775  40.483  11.990
66307W        W34725  16.138   2.751  10.536
66308W        W34726  24.527  18.621  12.871
66309W        W34727  13.148  19.730   1.879
66310W        W34728  23.728  36.541   3.157
66311W        W34729  18.598  14.159  11.936
66312W        W34730   5.317  32.495  11.428
66313W        W34731  14.617  35.369   4.307
66314W        W34732  39.995  44.004   0.908
66315W        W34733  36.023  13.177   3.222
66316W        W34734  10.150  39.409   0.870
66317W        W34735  12.748  38.350  13.995
66318W        W34736  10.273  10.249   4.634
66319W        W34737  26.576   8.358  10.519
66320W        W34738   5.300   5.218   1.350
66321W        W34739  38.000  12.761   0.747
66322W        W34740   6.378  23.607  11.371
66323W        W34741  16.241  36.472  11.124
66324W        W34742  27.172  19.707  14.807
66325W        W34743  24.172  31.423   1.418
66326W        W34744  26.070  31.136   3.651
66327W        W34745  39.863  24.593   0.750
66328W        W34746  17.584  25.082  10.527
66329W        W34747  42.010  44.357   1.811
66330W        W34748  22.149   8.796   3.644
66331W        W34749  44.763  23.048  14.346
66332W        W34750  11.318  41.386  13.941
66333W        W34751  28.675  29.428   1.883
66334W        W34752  43.957  39.036  12.902
66335W        W34753  40.470   4.858   3.173
66336W        W34754   6.289  38.548   1.290
66337W        W34755   2.425  30.456   1.922
66338W        W34756   4.870  39.913  11.468
66339W        W34757  33.968   7.741  11.390
66340W        W34758  18.228  33.950  11.462
66341W        W34759   0.397   3.840  14.458
66342W        W34760  40.806  27.195   4.618
66343W        W34761  23.646  23.153   4.796
66344W        W34762  12.792  28.614   0.927
66345W        W34763   0.270  34.439  14.407
66346W        W34764  14.230  13.741  11.992
66347W        W34765  41.008   8.892   2.318
66348W        W34766   0.742  44.335  11.943
66349W        W34767  19.167   7.410  13.486
66350W        W34768  24.501  11.373  14.015
66351W        W34769  26.206   6.405   3.707
66352W        W34770   0.889  18.701  11.965
66353W        W34771  18.229  37.877  13.865
66354W        W34772  26.111  41.491   0.795
66355W        W34773  30.009  43.860   2.413
66356W        W34774  43.844  32.041  10.960
66357W        W34775   2.927  28.445   4.153
66358W        W34776   6.241  14.591   0.738
66359W        W34777  40.537  32.016   1.914
66360W        W34778  13.681  26.023  14.915
66361W        W34779   2.445  10.366  10.975
66362W        W34780  34.503  18.577  13.491
66363W        W34781  16.214  10.674  14.846
66364W        W34782   7.887  29.469   1.862
66365W        W34783  13.681  37.432  14.798
66366W        W34784  38.997  12.751   1.868
66367W        W34785  35.450  11.240   0.795
66368W        W34786  24.222  24.117  14.427
66369W        W34787   2.883  44.492  11.516
66370W        W34788  13.279  14.647   0.807
66371W        W34789  26.159   1.291   2.320
66372W        W34790  35.485  26.070   0.963
66373W        W34791   7.668  17.648  13.960
66374W        W34792  11.299  19.664  14.023
66375W        W34793  16.689  29.470  11.000
66376W        W34794  31.579  14.635   2.294
66377W        W34795  13.213  15.689   0.890
66378W        W34796   4.724  44.771  12.873
66379W        W34797  40.982  36.448   3.759
66380W        W34798  40.528   0.974  11.951
66381W        W34799  22.658  44.381  13.407
66382W        W34800  38.957  20.652  13.891
66383W        W34801  12.853  42.484  11.856
66384W        W34802  11.624  13.650   0.887
66385W        W34803  11.816   3.373  10.952
66386W        W34804  30.439  36.080  10.936
66387W        W34805  10.745  32.417  10.441
66388W        W34806  34.481  18.668  11.394
66389W        W34807  44.315  12.185   4.319
66390W        W34808  39.809  43.002  11.105
66391W        W34809  27.685  27.077   1.249
66392W        W34810   1.749  18.753  10.992
66393W        W34811  21.042  42.885  11.459
66394W        W34812  13.636  41.293  13.401
66395W        W34813  18.575  39.517   1.336
66396W        W34814  10.739  14.295  12.379
66397W        W34815   1.911  19.134   0.481
66398W        W34816  14.245  35.989   1.320
66399W        W34817  39.518  15.623   0.339
66400W        W34818  41.454  32.526  13.810
66401W        W34819   8.334  29.512  11.986
66402W        W34820  28.031  44.977   3.201
66403W        W34821  11.710  12.339  10.474
66404W        W34822  25.701   3.246  14.854
66405W        W34823   1.272  42.451   0.309
66406W        W34824   9.829   5.893   4.801
66407W        W34825  37.450  38.376  12.390
66408W        W34826  14.255  39.435  13.341
66409W        W34827   2.297  27.500  13.444
66410W        W34828  15.204  29.980  13.923
66411W        W34829   3.369   4.429   2.869
66412W        W34830  40.495  16.702   2.680
66413W        W34831  16.169  21.182  13.863
66414W        W34832  12.342   1.756  10.531
66415W        W34833  35.053   2.843   0.906
66416W        W34834  21.658   5.710  14.769
66417W        W34835  11.705  30.623  10.937
66418W        W34836  37.015  26.117   2.221
66419W        W34837  41.365  12.322  14.373
66420W        W34838  41.500  37.547  13.546
66421W        W34839  29.025  28.553   1.371
66422W        W34840  19.610  16.597   1.343
66423W        W34841  29.556  40.326  12.387
66424W        W34842  14.297  40.426   4.712
66425W        W34843  39.371   5.321   4.230
66426W        W34844   2.256  29.012   2.264
66427W        W34845  37.899  37.485  13.017
66428W        W34846   6.299  38.461   1.853
66429W        W34847  31.570  35.563  13.489
66430W        W34848  21.532  19.100  11.010
66431W        W34849  33.512  42.936  14.374
66432W        W34850  14.221  37.381  11.118
66433W        W34851  10.303  15.597  12.342
66434W        W34852  31.610  37.431   1.377
66435W        W34853   9.797  13.188  10.640
66436W        W34854  11.206  40.310   1.847
66437W        W34855  24.502  12.183  13.857
66438W        W34856   6.750  14.287  13.927
66439W        W34857  11.774  29.061  13.020
66440W        W34858  33.590  16.115   1.445
66441W        W34859  30.584   9.262   0.401
66442W        W34860   3.722  37.540  12.561
66443W        W34861  39.514  36.043  12.938
66444W        W34862  13.157  44.956   3.793
66445W        W34863  36.543  33.580   4.814
66446W        W34864   0.913   2.414  14.001
66447W        W34865  41.466   8.667  14.341
66448W        W34866  39.894  29.472   3.851
66449W        W34867  14.098  36.053   2.884
66450W        W34868   8.883  15.084   2.729
66451W        W34869  17.151  23.699   3.764
66452W        W34870  41.945  41.919  12.023
66453W        W34871  44.482   7.798   0.762
66454W        W34872  34.981   7.371   2.362
66455W        W34873  17.769   3.331   1.823
66456W        W34874  32.592  26.457  14.872
66457W        W34875  39.818   2.750   2.240
66458W        W34876  28.477  23.136   0.332
66459W        W34877  38.908   4.899  14.829
66460W        W34878  23.612  10.718   2.885
66461W        W34879  28.995   0.329  12.505
66462W        W34880  42.883  35.058  11.060
66463W        W34881   5.391  14.275   0.374
66464W        W34882  14.752  21.130  11.533
66465W        W34883  22.120  19.625   2.179
66466W        W34884  41.355  34.040   3.863
66467W        W34885  29.610  24.572  14.935
66468W        W34886  37.933  24.480   3.326
66469W        W34887  15.794  25.128  13.961
66470W        W34888  16.603   4.911   9.492
66471W        W34889  36.080  37.044   1.796
66472W        W34890  14.166  29.487  10.496
66473W        W34891   4.308  42.855  11.097
66474W        W34892  36.492  35.370   2.209
66475W        W34893  26.614  32.473  12.015
66476W        W34894  34.471  37.857  12.494
66477W        W34895  15.632  36.075   4.688
66478W        W34896  31.966  37.846  10.453
66479W        W34897  24.063   5.752   4.647
66480W        W34898  32.135  44.475  10.908
66481W        W34899  10.285  25.684  11.419
66482W        W34900  33.585  30.585   1.393
66483W        W34901  32.535  36.355   0.820
66484W        W34902   3.713  17.168   2.731
66485W        W34903  23.173  40.938  10.479
66486W        W34904  19.586  31.469  11.861
66487W        W34905  19.725  27.648   4.213
66488W        W34906  35.367   2.924  10.908
66489W        W34907   8.817  35.956   1.319
66490W        W34908  36.449  17.753   1.884
66491W        W34909   3.377  44.814   0.920
66492W        W34910  24.541  29.443   2.297
66493W        W34911  10.763  42.306   0.937
66494W        W34912   6.832  12.691  13.059
66495W        W34913   4.299   2.811   0.947
66496W        W34914  12.225   8.719   4.144
66497W        W34915   1.253  14.804   0.851
66498W        W34916  32.599  36.393  12.905
66499W        W34917  43.811  35.415   3.710
66500W        W34918  23.113  40.432  14.870
66501W        W34919   2.887  18.565   1.442
66502W        W34920  36.355  41.398  10.942
66503W        W34921  32.964  29.576   1.241
66504W        W34922  24.028   6.211  14.371
66505W        W34923   7.855  42.376   1.803
66506W        W34924  44.317  41.797   4.814
66507W        W34925  42.966  25.514   2.394
66508W        W34926  10.197   9.349   1.417
66509W        W34927   3.329  25.990  13.827
66510W        W34928  25.062  36.372  14.824
66511W        W34929  13.254  43.973  10.419
66512W        W34930   2.454  14.798   3.370
66513W        W34931   1.743   5.305   0.416
66514W        W34932  23.072  26.644   3.640
66515W        W34933  40.940  44.471  13.823
66516W        W34934  13.673  19.112  10.984
66517W        W34935   4.769  32.430  14.936
66518W        W34936  19.092  25.617   4.201
66519W        W34937  26.666  38.507   4.601
66520W        W34938  12.853  32.533  10.461
66521W        W34939  41.889  14.798   1.882
66522W        W34940  33.051  37.991   2.770
66523W        W34941  44.447  34.051   1.343
66524W        W34942  17.596  41.528  14.981
66525W        W34943  22.044  41.915  11.976
66526W        W34944   9.165  29.434   0.252
66527W        W34945  21.143  16.795  14.284
66528W        W34946  23.571   1.480  14.922
66529W        W34947  22.175  13.741   1.909
66530W        W34948  41.478   6.193  10.641
66531W        W34949   1.464  21.643   1.865
66532W        W34950  14.715   1.865  13.057
66533W        W34951   6.873  36.984  14.439
66534W        W34952  37.532  17.571   4.232
66535W        W34953  44.428   4.348  13.436
66536W        W34954  11.175  26.584   0.393
66537W        W34955  26.638  42.453   4.744
66538W        W34956  44.269  20.044   4.651
66539W        W34957   4.747  39.490   2.854
66540W        W34958  44.774  42.969  10.581
66541W        W34959  40.440   1.942   2.216
66542W        W34960  42.964   0.897  13.538
66543W        W34961  14.337   2.347  11.093
66544W        W34962  29.429  31.964  14.894
66545W        W34963  10.755  21.663   0.838
66546W        W34964  35.506  13.632  10.950
66547W        W34965   5.844  43.333  12.041
66548W        W34966   0.762   0.929  12.533
66549W        W34967  40.461  41.424  14.902
66550W        W34968   3.301  29.003  11.988
66551W        W34969  28.477   8.366  10.911
66552W        W34970  19.191   9.372   1.400
66553W        W34971   0.332   8.313   2.405
66554W        W34972  30.161  16.172  14.497
66555W        W34973  17.729  33.885  11.993
66556W        W34974  33.911  33.524  11.469
66557W        W34975  36.862   3.345  12.016
66558W        W34976  43.993   5.820   3.201
66559W        W34977  41.449   3.260   0.957
66560W        W34978   3.273  14.322  13.442
66561W        W34979  26.698  17.109   1.402
66562W        W34980  30.953  38.382  13.972
66563W        W34981   4.909  12.291   4.773
66564W        W34982  38.010  34.431   3.769
66565W        W34983  15.659   1.247   3.212
66566W        W34984  29.038  34.486  13.545
66567W        W34985  30.096  41.527  12.340
66568W        W34986  34.077  22.114  13.950
66569W        W34987  24.034  42.413  12.439
66570W        W34988  35.958  26.034  14.007
66571W        W34989  16.633  11.623   4.306
66572W        W34990   9.829  20.560  12.929
66573W        W34991   8.354  11.127  12.060
66574W        W34992  12.154   7.665  11.420
66575W        W34993  12.721  44.493  14.969
66576W        W34994  34.068  11.303   2.868
66577W        W34995   8.819  14.714   3.656
66578W        W34996  15.112   3.741  11.890
66579W        W34997  43.421  38.066  12.500
66580W        W34998  30.657  15.256  10.908
66581W        W34999  32.593   6.807  13.413
66582W        W35000  31.585   7.409  10.441
66583W        W35001  39.875   4.407  13.871
66584W        W35002  21.053  36.989   0.416
66585W        W35003  35.881  33.515   3.193
66586W        W35004  11.674  15.322  10.422
66587W        W35005  18.258  16.123  14.432
66588W        W35006  42.943   7.320   4.141
66589W        W35007   5.739   6.325  14.858
66590W        W35008   6.291  18.653  13.533
66591W        W35009  44.315   8.392   1.430
66592W        W35010   7.200  25.149   4.226
66593W        W35011  36.426  30.913  10.496
66594W        W35012  24.110  38.333  14.507
66595W        W35013  15.084   3.908  14.441
66596W        W35014  37.408  39.315  12.051
66597W        W35015  20.082   9.678   2.734
66598W        W35016   3.814  19.716  11.114
66599W        W35017   6.918  40.326   4.832
66600W        W35018  15.630  37.356   0.289
66601W        W35019  34.494  24.684  12.411
66602W        W35020  36.495  42.310  13.314
66603W        W35021  32.096   8.203   0.332
66604W        W35022   3.273  15.264   4.660
66605W        W35023  35.014  18.679  11.937
66606W        W35024   3.718  20.159   4.730
66607W        W35025  12.139  17.221  12.044
66608W        W35026  20.106  24.208  10.960
66609W        W35027  33.531  12.119   4.121
66610W        W35028  24.050  36.436   3.642
66611W        W35029  13.230  32.996  14.985
66612W        W35030  11.274  29.091   1.904
66613W        W35031  14.109   1.319  14.479
66614W        W35032  17.291  34.373  14.508
66615W        W35033  16.081  26.674  13.008
66616W        W35034   9.204  11.164   2.791
66617W        W35035  22.122   4.247  14.876
66618W        W35036  37.495  35.074   1.215
66619W        W35037  28.073  10.338  14.021
66620W        W35038  11.627  29.101  14.401
66621W        W35039  20.524   4.365  13.812
66622W        W35040   9.304  41.787   3.154
66623W        W35041  25.040  29.435  14.406
66624W        W35042   9.190  25.480   0.359
66625W        W35043  12.306  21.570   2.741
66626W        W35044  41.517  30.909   1.327
66627W        W35045   1.837  28.605  11.033
66628W        W35046  14.124  22.050  10.435
66629W        W35047  27.617   5.779  10.901
66630W        W35048  37.974  34.595  12.440
66631W        W35049   8.784  28.673  12.965
66632W        W35050   7.352  33.083  12.959
66633W        W35051  15.200  17.681   4.790
66634W        W35052  22.525  16.265   1.837
66635W        W35053   4.821  39.056   0.408
66636W        W35054  26.184   9.889   0.288
66637W        W35055  40.364  33.893   2.401
66638W        W35056   6.289  18.601  12.380
66639W        W35057  44.295  13.193   5.162
66640W        W35058  19.173  26.605   3.777
66641W        W35059  32.408  13.246  11.440
66642W        W35060   2.250  10.793   0.966
66643W        W35061  17.158  12.199  14.858
66644W        W35062  34.406   0.331  12.988
66645W        W35063   4.207  40.339  13.056
66646W        W35064   3.360  13.195  13.057
66647W        W35065  18.188  14.812  13.892
66648W        W35066  20.239   0.910   0.852
66649W        W35067  44.919   2.891   3.655
66650W        W35068   9.770  21.631   0.799
66651W        W35069  30.582  28.119   1.875
66652W        W35070  39.538   6.910  13.519
66653W        W35071  26.014  43.878   0.265
66654W        W35072  35.377   6.335  13.315
66655W        W35073   5.339   6.409   3.287
66656W        W35074  12.843  43.939  14.428
66657W        W35075   8.658   3.713  14.468
66658W        W35076   3.736  36.588  11.389
66659W        W35077   9.800  37.427  12.879
66660W        W35078  44.835  38.851   0.866
66661W        W35079  21.024  31.942  11.120
66662W        W35080   9.287  24.093   0.879
66663W        W35081  17.610  34.496  13.460
66664W        W35082   4.839  21.584  11.998
66665W        W35083  44.002  12.763  13.366
66666W        W35084  30.093   8.762   3.715
66667W        W35085   2.373  25.066  14.343
66668W        W35086  24.132  32.450   1.441
66669W        W35087  18.260  32.391   3.670
66670W        W35088  38.534  22.682  11.602
66671W        W35089  22.747   0.945   5.176
66672W        W35090  35.088  41.325   1.254
66673W        W35091  21.711   4.746   2.843
66674W        W35092  42.922  39.993   4.332
66675W        W35093  33.968  15.258   2.889
66676W        W35094  33.580  14.332   0.279
66677W        W35095   4.306  24.017  13.957
66678W        W35096  36.530  29.990  10.546
66679W        W35097   0.775  10.769  13.840
66680W        W35098  27.587  38.876  11.607
66681W        W35099  32.499   5.823   1.798
66682W        W35100  34.490  26.984   2.696
66683W        W35101  11.686  43.879   4.635
66684W        W35102   1.754   7.819  14.022
66685W        W35103  18.270   5.252  11.094
66686W        W35104  38.433  31.554   1.719
66687W        W35105  33.459  16.665  14.338
66688W        W35106  33.479   6.872   2.747
66689W        W35107  24.601  16.595  10.907
66690W        W35108  24.220   3.332  12.040
66691W        W35109  10.724  39.840   4.180
66692W        W35110  44.359  25.537   3.297
66693W        W35111  22.056   9.222  14.956
66694W        W35112  24.987  23.020  13.928
66695W        W35113  17.188  38.938  13.969
66696W        W35114   1.330   1.467   0.362
66697W        W35115  25.479  24.034   2.294
66698W        W35116  30.994   8.252   3.748
66699W        W35117  37.525  32.018   2.865
66700W        W35118  33.066  24.047  12.407
66701W        W35119  42.404   4.442  11.373
66702W        W35120  39.377  27.460  13.853
66703W        W35121   0.744  12.273  13.043
66704W        W35122  30.121  14.629   4.641
66705W        W35123  12.249  29.585   0.417
66706W        W35124  11.793   4.315   4.242
66707W        W35125  19.253  36.379  12.910
66708W        W35126  16.567   9.332   0.741
66709W        W35127  34.418  37.856  14.775
66710W        W35128  33.894  33.520   3.365
66711W        W35129  34.489  39.062  13.920
66712W        W35130  13.217   1.866   4.707
66713W        W35131   6.272  16.609  13.872
66714W        W35132   1.444  29.528  10.633
66715W        W35133  10.666   3.430  10.947
66716W        W35134   6.769   5.867   3.273
66717W        W35135  27.650   2.292  12.390
66718W        W35136  27.598  24.644   1.817
66719W        W35137   1.441  35.496   1.906
66720W        W35138  39.816  33.915  11.879
66721W        W35139   6.330  28.049  13.804
66722W        W35140  21.512  26.463   3.152
66723W        W35141  19.090  29.457   2.400
66724W        W35142  28.639   7.407  14.936
66725W        W35143  31.448   7.705   0.337
66726W        W35144   2.391  18.286  12.005
66727W        W35145  21.035  27.655   3.684
66728W        W35146   9.335   6.703  11.376
66729W        W35147  43.343  24.992  12.386
66730W        W35148  33.477  25.089   1.411
66731W        W35149  15.612   3.304  13.492
66732W        W35150  25.177  39.330  14.961
66733W        W35151   4.917  36.958   0.368
66734W        W35152  38.045  14.697   4.641
66735W        W35153  25.185  29.961   4.350
66736W        W35154  41.909   2.290  14.869
66737W        W35155  30.416   5.763  10.994
66738W        W35156  32.095  40.437   2.848
66739W        W35157  11.641  39.936  14.413
66740W        W35158  28.642  41.418   1.406
66741W        W35159  18.730  19.079  13.462
66742W        W35160   9.659  29.135  14.844
66743W        W35161  21.530  20.254   2.272
66744W        W35162  30.586  38.976   0.923
66745W        W35163  21.116   2.735   1.848
66746W        W35164  33.625  42.839  13.912
66747W        W35165  38.407  28.534   0.419
66748W        W35166  16.725  26.671   3.654
66749W        W35167  29.480  37.891  14.455
66750W        W35168  18.782   3.812   2.404
66751W        W35169  40.022  33.455   0.841
66752W        W35170  39.350   6.828  11.013
66753W        W35171  20.527  38.482  10.517
66754W        W35172   8.663   1.242  10.629
66755W        W35173  24.151  40.473   9.960
66756W        W35174  44.333  21.041   0.782
66757W        W35175  12.651  35.470  10.905
66758W        W35176   0.281  10.352  12.942
66759W        W35177  18.692  24.088  14.896
66760W        W35178  14.804  24.500   3.666
66761W        W35179  21.162  30.610   0.317
66762W        W35180   1.312  30.553  12.577
66763W        W35181  31.597  14.736   0.877
66764W        W35182  37.959  11.731   2.401
66765W        W35183  25.026   9.292   1.257
66766W        W35184  37.864  30.018   1.805
66767W        W35185  27.190   5.842  13.985
66768W        W35186  39.469  44.902   1.705
66769W        W35187   3.764  16.127  12.002
66770W        W35188  19.665  41.851  11.603
66771W        W35189  20.740  31.629   0.924
66772W        W35190  34.058   4.775  11.070
66773W        W35191  35.414  23.003  13.520
66774W        W35192  18.170  19.056   0.290
66775W        W35193  29.586  21.126  11.068
66776W        W35194   1.795  14.224  14.814
66777W        W35195  31.933  37.076  10.502
66778W        W35196  25.496   8.874  14.309
66779W        W35197  34.998  20.057  13.438
66780W        W35198  28.186  12.628  13.051
66781W        W35199  17.783  33.535  13.536
66782W        W35200  40.356  42.297  11.860
66783W        W35201  35.520  11.666  14.895
66784W        W35202  25.990  27.493   0.763
66785W        W35203  44.431   9.653   3.772
66786W        W35204  12.277  38.891   0.816
66787W        W35205  39.840   7.330  12.838
66788W        W35206  12.126  38.552  10.979
66789W        W35207   9.827  28.969   0.381
66790W        W35208  18.070  27.984   4.283
66791W        W35209  13.292   3.898   1.725
66792W        W35210  42.418  17.202   2.807
66793W        W35211  38.847  12.745  11.389
66794W        W35212  34.114  20.693   0.465
66795W        W35213  43.333  30.005   2.227
66796W        W35214   3.357   0.868  13.384
66797W        W35215  27.082   6.291   4.601
66798W        W35216  18.608  16.587   2.309
66799W        W35217  15.611  15.723  11.381
66800W        W35218   4.448  19.552   4.241
66801W        W35219  21.106   9.796   1.888
66802W        W35220  11.860  34.046  11.124
66803W        W35221  14.159  34.460   0.965
66804W        W35222  11.157  25.714  14.418
66805W        W35223  15.814   3.732  10.615
66806W        W35224  30.013  17.739  12.403
66807W        W35225  35.983   0.768  13.989
66808W        W35226  23.211  10.729  13.889
66809W        W35227  33.033   8.376  12.828
66810W        W35228  15.119  19.700   1.218
66811W        W35229  29.109   6.818   9.616
66812W        W35230  16.671  31.502   3.859
66813W        W35231  30.998  18.146  11.106
66814W        W35232  30.084  31.937  13.382
66815W        W35233  22.195  28.474  10.549
66816W        W35234  38.031  22.624   1.915
66817W        W35235  34.504  23.108   4.823
66818W        W35236  15.761   0.837   2.248
66819W        W35237   8.673  13.615  12.515
66820W        W35238  35.422  27.108  14.438
66821W        W35239  22.574  16.112  10.534
66822W        W35240  34.886   2.469   0.470
66823W        W35241  20.762  39.933   9.550
66824W        W35242  13.156  35.406   2.787
66825W        W35243  13.693  40.486   4.758
66826W        W35244  21.247  20.669   3.177
66827W        W35245   7.362   6.839   1.388
66828W        W35246  21.518  20.143   4.827
66829W        W35247  31.602  33.388   1.713
66830W        W35248   8.358  30.137  14.448
66831W        W35249   9.757   6.406   4.719
66832W        W35250  31.034  29.515  10.967
66833W        W35251  28.509  17.690   2.199
66834W        W35252  20.763  16.729   1.426
66835W        W35253  36.952  44.483   0.906
66836W        W35254  32.623  38.331   0.405
66837W        W35255  42.947  22.034  11.011
66838W        W35256  38.827   2.307  13.926
66839W        W35257  12.352  25.179   1.399
66840W        W35258  39.810  16.184   1.290
66841W        W35259  42.788  39.538   3.672
66842W        W35260  33.551  36.967   4.135
66843W        W35261   5.285  12.692  10.529
66844W        W35262   7.212   3.445   2.384
66845W        W35263  21.512  42.861  13.799
66846W        W35264  24.694  19.740   3.313
66847W        W35265  34.019  14.318  11.598
66848W        W35266  42.375   6.340  14.808
66849W        W35267   1.791   3.353   4.120
66850W        W35268   5.847   1.239   1.301
66851W        W35269   9.833  19.649   0.743
66852W        W35270  12.721  40.994  13.972
66853W        W35271   3.755   2.729  13.844
66854W        W35272  14.754  11.234   3.191
66855W        W35273  38.559   4.224   0.884
66856W        W35274  36.864  29.569   4.263
66857W        W35275  15.190   0.910  13.805
66858W        W35276  20.688  22.029   3.335
66859W        W35277  30.593  44.944  13.857
66860W        W35278  32.994  11.842  12.551
66861W        W35279  44.813   2.882  11.078
66862W        W35280   0.811  11.234  14.342
66863W        W35281   0.835  22.692  14.277
66864W        W35282  10.721  17.127   3.169
66865W        W35283  32.489  13.676  11.584
66866W        W35284  24.193  19.584  11.445
66867W        W35285  26.122  29.963  12.537
66868W        W35286   0.457   4.354   3.713
66869W        W35287  10.678  17.116  12.062
66870W        W35288  10.836  16.302   1.732
66871W        W35289  39.007   7.176   5.217
66872W        W35290  15.187  22.617   4.658
66873W        W35291  20.256  24.622  12.449
66874W        W35292  44.976  10.833   0.792
66875W        W35293  31.017  21.758  12.071
66876W        W35294  13.346  29.640   4.266
66877W        W35295  40.348   7.352   4.787
66878W        W35296   4.229  33.022   0.943
66879W        W35297   6.255   8.285   1.360
66880W        W35298  29.985  15.173  10.524
66881W        W35299  42.437   2.243  13.973
66882W        W35300  44.441  25.075   0.812
66883W        W35301  22.606  11.646   4.738
66884W        W35302   8.195   2.746   3.338
66885W        W35303  41.324  43.488   0.934
66886W        W35304  31.482  42.978  10.560
66887W        W35305  15.593   4.740  10.572
66888W        W35306  38.438  24.655  13.448
66889W        W35307  18.089  40.327  14.866
66890W        W35308   7.234   6.692   4.264
66891W        W35309  13.735  35.549  14.859
66892W        W35310  36.914  41.025  11.541
66893W        W35311  23.532  21.233   5.241
66894W        W35312  42.332   7.273  12.378
66895W        W35313  18.230   3.780   0.307
66896W        W35314  26.999   8.834  14.978
66897W        W35315   9.881  20.109  12.028
66898W        W35316  20.524  23.121  14.972
66899W        W35317  43.419  11.249   2.806
66900W        W35318  30.634  20.733   4.630
66901W        W35319  16.124  16.122  11.002
66902W        W35320  42.365  14.625  10.532
66903W        W35321  16.090  42.390   0.449
66904W        W35322  40.033  32.075   1.698
66905W        W35323  43.455  33.923   0.404
66906W        W35324  43.298   8.831   3.711
66907W        W35325  18.160  28.020   1.275
66908W        W35326  13.784  27.642  12.573
66909W        W35327   1.346   5.304  11.392
66910W        W35328   5.810  16.611   1.890
66911W        W35329   5.902   4.911  14.815
66912W        W35330   8.256  22.187   3.382
66913W        W35331  22.098  21.116  14.885
66914W        W35332   4.737   8.742  11.098
66915W        W35333  38.325  12.186  13.356
66916W        W35334  24.650  18.054   4.187
66917W        W35335  24.553   0.389  10.436
66918W        W35336  35.016  28.660   1.898
66919W        W35337  41.403  14.168  11.082
66920W        W35338   8.765  32.123  12.951
66921W        W35339  16.730  15.226  12.988
66922W        W35340  10.703  35.602   0.747
66923W        W35341   2.950  34.425   3.201
66924W        W35342  24.148  16.747  13.521
66925W        W35343  13.734  33.956  13.045
66926W        W35344  13.771  22.137   4.605
66927W        W35345  26.965   6.185  13.913
66928W        W35346  32.902  37.082  12.018
66929W        W35347  21.550   9.798  12.035
66930W        W35348  26.984  44.405   2.775
66931W        W35349   6.268  29.944   1.859
66932W        W35350  44.999   3.362  12.981
66933W        W35351  39.866  28.646  14.367
66934W        W35352  35.478  27.606   3.263
66935W        W35353  12.664  25.058   4.680
66936W        W35354  32.501  43.273   0.322
66937W        W35355  23.533  22.224  14.997
66938W        W35356   4.834  27.094  13.404
66939W        W35357  37.464  22.105  10.993
66940W        W35358  32.470  15.269   4.188
66941W        W35359  14.601  14.107   9.989
66942W        W35360   4.291  33.882  11.455
66943W        W35361  10.773  27.002  13.516
66944W        W35362  32.633  35.937  11.600
66945W        W35363  38.494  10.338   1.812
66946W        W35364  35.460  24.030  11.012
66947W        W35365  15.667  14.098   9.968
66948W        W35366  42.813  30.138  13.327
66949W        W35367  14.254  26.004  12.392
66950W        W35368  42.499  14.593   4.760
66951W        W35369  26.016  12.280  14.948
66952W        W35370   2.428  39.843   2.224
66953W        W35371   4.930  16.167   4.709
66954W        W35372  19.717  21.026   3.281
66955W        W35373  16.656   0.406   3.776
66956W        W35374   6.728  17.081   4.814
66957W        W35375  12.232   1.244   2.764
66958W        W35376  30.437  23.633   0.936
66959W        W35377  10.823  22.744   0.929
66960W        W35378  24.159   3.742  10.934
66961W        W35379   1.370  31.954   3.319
66962W        W35380   1.819   5.207   0.844
66963W        W35381  29.606  29.108   2.882
66964W        W35382  13.305  13.309   2.245
66965W        W35383   3.769  36.848  13.380
66966W        W35384  34.892  27.179  12.008
66967W        W35385  14.658  10.870  10.416
66968W        W35386   0.322   9.327   3.370
66969W        W35387  22.191  23.089  14.867
66970W        W35388   7.411   5.339  10.915
66971W        W35389  34.940  33.582   4.316
66972W        W35390   0.358  10.217   1.775
66973W        W35391  17.245  18.280  13.923
66974W        W35392  41.329  15.634   0.392
66975W        W35393  24.079  17.103  11.938
66976W        W35394  23.535  21.594  13.966
66977W        W35395  40.979  33.447   3.303
66978W        W35396  39.918  33.480   1.877
66979W        W35397  25.015  41.440   3.769
66980W        W35398  20.201  34.506   9.964
66981W        W35399  23.697  11.722  11.043
66982W        W35400   8.875  25.582  14.470
66983W        W35401  13.672   0.310   1.738
66984W        W35402  30.545  26.966   0.355
66985W        W35403  43.839   5.913   4.658
66986W        W35404  26.981  23.994  12.052
66987W        W35405  19.229  20.671   1.434
66988W        W35406  16.812   1.799  13.465
66989W        W35407  33.974   7.908   3.682
66990W        W35408  14.179  39.422  11.585
66991W        W35409  17.665  40.968  14.939
66992W        W35410  22.091  23.013  12.008
66993W        W35411  19.233  10.200  13.058
66994W        W35412   3.812  35.459  10.440
66995W        W35413  13.112  34.551  11.454
66996W        W35414  36.892  36.433   0.893
66997W        W35415  20.635  14.158  11.043
66998W        W35416  29.039  31.512  14.841
66999W        W35417   7.239   3.843   3.193
67000W        W35418  39.846   8.390  11.058
67001W        W35419  19.635  22.678  10.608
67002W        W35420  21.710  38.510  11.964
67003W        W35421  33.046   6.182  14.318
67004W        W35422  20.645   0.818  12.925
67005W        W35423  20.063  41.359  12.069
67006W        W35424   3.731  31.037   3.174
67007W        W35425  12.709  35.537   1.425
67008W        W35426  17.147  33.069  13.020
67009W        W35427  25.498  14.142   4.171
67010W        W35428  34.610  38.913  10.405
67011W        W35429   6.745  32.635  11.872
67012W        W35430  20.117  30.979  11.987
67013W        W35431   9.682  29.540  11.008
67014W        W35432  12.238  15.156   4.152
67015W        W35433  39.960  41.383  10.456
67016W        W35434  36.087  17.678  14.785
67017W        W35435   7.775  24.519  14.498
67018W        W35436  23.506  43.849   1.897
67019W        W35437   5.312  25.706  12.439
67020W        W35438   0.447   8.733   2.758
67021W        W35439  35.599  11.142  13.456
67022W        W35440  42.305  17.231   0.764
67023W        W35441  43.932  26.572  14.793
67024W        W35442  30.533  17.072   1.756
67025W        W35443  42.964   4.763   0.320
67026W        W35444   2.325   6.811  14.960
67027W        W35445  17.296  18.265   3.200
67028W        W35446   0.333  22.030   2.815
67029W        W35447  39.472  35.013  13.445
67030W        W35448  20.610   4.852   1.735
67031W        W35449  18.726  38.873  11.947
67032W        W35450  32.030  28.176  12.564
67033W        W35451  35.956   0.852  13.542
67034W        W35452  30.002  28.653  13.992
67035W        W35453   0.744  10.213   0.949
67036W        W35454  19.121  31.095  11.474
67037W        W35455  40.325   3.857  14.893
67038W        W35456  20.193  17.157  12.371
67039W        W35457   3.341  17.776  12.874
67040W        W35458   4.372  42.357  10.573
67041W        W35459  12.181  42.289   0.438
67042W        W35460  40.453  32.401  11.384
67043W        W35461   2.905  24.059   3.366
67044W        W35462  22.642   3.446   0.302
67045W        W35463  22.033  33.386   4.303
67046W        W35464  11.751  42.875  12.068
67047W        W35465  14.297   4.245  11.930
67048W        W35466  33.047  22.581   4.188
67049W        W35467  21.112  15.165   1.754
67050W        W35468  26.633  30.421  14.891
67051W        W35469  43.892  21.708  10.938
67052W        W35470  22.696  22.738  11.932
67053W        W35471   6.684   0.350  13.416
67054W        W35472  44.427  42.500  13.380
67055W        W35473  22.093  22.573  11.981
67056W        W35474   6.188  43.950  13.474
67057W        W35475  40.480  33.972   3.802
67058W        W35476  16.792  25.671   0.843
67059W        W35477   7.349   6.801   0.824
67060W        W35478  36.021  39.521   5.723
67061W        W35479  23.034   9.811   3.265
67062W        W35480  18.600  42.304  14.837
67063W        W35481  31.027   5.812   3.169
67064W        W35482  38.527  15.730  10.050
67065W        W35483  31.026  32.631   2.676
67066W        W35484  29.469  23.527   0.472
67067W        W35485   6.834  26.153  10.519
67068W        W35486  34.076  13.157   1.724
67069W        W35487  27.689  41.378  10.472
67070W        W35488   9.745  33.561  14.485
67071W        W35489   5.887  10.310  13.475
67072W        W35490  43.809  38.011   4.776
67073W        W35491  14.772  39.823  12.433
67074W        W35492  12.195  13.714   1.400
67075W        W35493  23.049  41.492  11.974
67076W        W35494   7.406   5.269   0.884
67077W        W35495  16.138   5.431  14.487
67078W        W35496  14.679  33.582   4.171
67079W        W35497   7.714  42.925   0.274
67080W        W35498  14.335  29.034  13.950
67081W        W35499  12.838   7.320  12.450
67082W        W35500  21.198   1.924   0.869
67083W        W35501  11.130   0.434   2.234
67084W        W35502   7.405  36.547  10.979
67085W        W35503  17.283  41.494   1.402
67086W        W35504  30.563   0.483   4.723
67087W        W35505  38.876  30.539  12.485
67088W        W35506  26.990  28.110   0.281
67089W        W35507  24.645  16.184   0.933
67090W        W35508  35.042  36.431  10.406
67091W        W35509  37.535  42.324   2.673
67092W        W35510  24.626   9.168  12.046
67093W        W35511  25.631   0.313   1.289
67094W        W35512  35.506  22.696  10.511
67095W        W35513  32.939  15.171   2.790
67096W        W35514   9.176  16.266   3.160
67097W        W35515   6.207   3.436   1.325
67098W        W35516  14.308  32.442   2.739
67099W        W35517  20.588  11.677   4.823
67100W        W35518   2.369  19.679   1.763
67101W        W35519  23.596  17.675   3.367
67102W        W35520  13.330  30.122   0.400
67103W        W35521  43.022  13.338   0.430
67104W        W35522  13.802  24.091   3.837
67105W        W35523   7.843  18.239  13.033
67106W        W35524  37.061   2.352  12.836
67107W        W35525  18.232  41.525   0.747
67108W        W35526  30.473  17.626   3.340
67109W        W35527  21.156  16.267   2.764
67110W        W35528  38.888  39.529  12.531
67111W        W35529  20.041  22.139  14.514
67112W        W35530  30.528  27.587  10.962
67113W        W35531  24.509  26.626   1.362
67114W        W35532  21.522  29.168  10.410
67115W        W35533  35.036  41.452   2.220
67116W        W35534  42.509  31.940  13.950
67117W        W35535  23.170   5.314   2.349
67118W        W35536  17.276  27.023   1.781
67119W        W35537  36.428   3.792  14.280
67120W        W35538  31.041  28.608  13.541
67121W        W35539  19.629  42.465   2.673
67122W        W35540   4.265  38.467  12.404
67123W        W35541   0.265  26.685  13.876
67124W        W35542  43.936  20.182   4.798
67125W        W35543  35.523  12.296   3.331
67126W        W35544  25.645  20.613  12.865
67127W        W35545  44.386  21.224   9.439
67128W        W35546  12.640  39.857   4.702
67129W        W35547  40.866  27.596  12.561
67130W        W35548  15.717  41.909  14.871
67131W        W35549   7.412   4.892   4.326
67132W        W35550  19.243  10.687   2.883
67133W        W35551  39.371   1.893  14.500
67134W        W35552  29.031  23.642   2.867
67135W        W35553  41.934  21.719   5.672
67136W        W35554   0.456  24.050  12.090
67137W        W35555   8.299  28.037  12.086
67138W        W35556   5.917  40.517  10.900
67139W        W35557  30.511  31.911  11.598
67140W        W35558   6.680  34.937  11.957
67141W        W35559  17.580  17.296  14.486
67142W        W35560  20.071  31.125  10.589
67143W        W35561  13.775  27.947  13.501
67144W        W35562  38.388  14.189  10.609
67145W        W35563  34.913  41.483   0.329
67146W        W35564  17.148  23.600  11.116
67147W        W35565  42.382   2.341  13.020
67148W        W35566  13.671  36.091   2.415
67149W        W35567  36.380  30.991  12.404
67150W        W35568  18.199  23.048  13.906
67151W        W35569   4.845  29.084   1.726
67152W        W35570  41.932  36.410   0.292
67153W        W35571  15.264   4.219   4.762
67154W        W35572  15.682   5.245  10.509
67155W        W35573  23.005  26.123   0.469
67156W        W35574  33.031  44.418  10.504
67157W        W35575  27.565  19.659   0.361
67158W        W35576  26.573  14.665   3.844
67159W        W35577  17.307   5.810   5.662
67160W        W35578  12.779   9.722  13.855
67161W        W35579  15.214  30.555  13.024
67162W        W35580   5.872  13.678   0.832
67163W        W35581   6.809  13.628   4.731
67164W        W35582  25.098  10.675  12.968
67165W        W35583  25.032  36.427  14.001
67166W        W35584  15.767  11.289   3.149
67167W        W35585  40.983  39.835  13.520
67168W        W35586  17.061   0.771  11.402
67169W        W35587  41.807   9.881  14.293
67170W        W35588  29.115  43.292   3.354
67171W        W35589  29.647   3.742   1.790
67172W        W35590  27.502  31.436  13.861
67173W        W35591  10.717  25.547  10.582
67174W        W35592  30.924  20.582  12.429
67175W        W35593  44.341  41.442  11.021
67176W        W35594  30.599  39.000   3.362
67177W        W35595  14.751  12.705  13.004
67178W        W35596  35.988  38.540   0.752
67179W        W35597  16.266  29.926  10.628
67180W        W35598  30.097   4.844  11.404
67181W        W35599  22.670   4.295  12.512
67182W        W35600  18.631   8.707  10.011
67183W        W35601  22.524  37.345  10.895
67184W        W35602  30.949  19.094  12.043
67185W        W35603  41.941  24.020  11.964
67186W        W35604   6.840   3.246  11.528
67187W        W35605  16.175   3.310   4.315
67188W        W35606  39.835  22.710   2.770
67189W        W35607  12.727   5.297   0.844
67190W        W35608  34.960  24.068   2.363
67191W        W35609  41.452  12.612  12.880
67192W        W35610  23.139  21.706  12.475
67193W        W35611  25.507  43.972   2.797
67194W        W35612  24.647  28.509  13.434
67195W        W35613   2.765  15.268  14.505
67196W        W35614  29.621   8.782   2.806
67197W        W35615  29.097  30.165   1.823
67198W        W35616   1.250  11.634   1.393
67199W        W35617  17.621  17.603  10.918
67200W        W35618  42.799  31.967  11.472
67201W        W35619   0.356   0.390  13.973
67202W        W35620   3.315   0.394  14.284
67203W        W35621  44.501  34.565   4.139
67204W        W35622  14.162  28.116   0.865
67205W        W35623  39.369  40.467   4.813
67206W        W35624  15.137  20.611  13.464
67207W        W35625  17.738   1.855  14.994
67208W        W35626  24.553  27.576  10.969
67209W        W35627  41.367   5.416  13.991
67210W        W35628  40.925  12.710  14.914
67211W        W35629   7.294  42.778   0.735
67212W        W35630  28.536  42.893  14.004
67213W        W35631  27.480  42.294   0.482
67214W        W35632   1.758   4.742  14.845
67215W        W35633  32.601  44.304   2.196
67216W        W35634  41.401   0.355  11.091
67217W        W35635  29.480  38.422  12.353
67218W        W35636  20.573  13.331   3.370
67219W        W35637   2.253  12.783   2.816
67220W        W35638  34.871  16.244  10.916
67221W        W35639  24.076  16.161  10.584
67222W        W35640  35.359  12.826  12.909
67223W        W35641  41.886  18.180   4.351
67224W        W35642  42.401   4.779  13.859
67225W        W35643  19.207  29.958   3.757
67226W        W35644  20.059  12.779  11.530
67227W        W35645   3.315  27.544  14.845
67228W        W35646   6.685  10.787  11.467
67229W        W35647  25.629  40.392   2.300
67230W        W35648   7.200  12.350   4.318
67231W        W35649  10.248  38.354  14.015
67232W        W35650  32.510  29.566   3.252
67233W        W35651  30.429  17.727   1.419
67234W        W35652  27.015  43.842  11.011
67235W        W35653  40.338   8.229   0.799
67236W        W35654  29.597   5.338   1.840
67237W        W35655  28.454   4.898  12.561
67238W        W35656  24.672  12.325  11.982
67239W        W35657  17.706  19.158  10.639
67240W        W35658  10.703  24.724   2.895
67241W        W35659  30.639  10.258  14.923
67242W        W35660   0.880  24.159   1.711
67243W        W35661  26.488  10.647  10.474
67244W        W35662  11.687  13.206  12.836
67245W        W35663  28.608  42.369   4.268
67246W        W35664  40.504  40.464  10.907
67247W        W35665  23.546  39.551   2.858
67248W        W35666  16.769  15.236   3.175
67249W        W35667  39.887  31.902  13.364
67250W        W35668  27.611  37.855   1.367
67251W        W35669  34.379  37.426   1.749
67252W        W35670  23.683  34.987   1.357
67253W        W35671  24.158  30.031  12.076
67254W        W35672  35.895  44.845   0.302
67255W        W35673   4.911  18.267  12.834
67256W        W35674  24.107  21.679  13.899
67257W        W35675  38.851   0.489  13.922
67258W        W35676  24.688  21.141   3.239
67259W        W35677  37.486  36.409  13.445
67260W        W35678  40.336  12.362  14.902
67261W        W35679  26.623  31.049   1.798
67262W        W35680  22.700   0.924  13.862
67263W        W35681  27.687  21.110   0.764
67264W        W35682  13.670  38.421  12.827
67265W        W35683  30.089  31.635   2.274
67266W        W35684  22.999  21.634   1.742
67267W        W35685  28.034  12.844  12.551
67268W        W35686  12.154  34.102   0.807
67269W        W35687  17.127  43.897   0.842
67270W        W35688   3.774  10.875  12.031
67271W        W35689   9.202  42.368   1.746
67272W        W35690  44.879   0.279  11.504
67273W        W35691   2.820  19.701  11.570
67274W        W35692  38.543  25.994  10.403
67275W        W35693  40.919  23.612  12.368
67276W        W35694  13.334  23.711   3.232
67277W        W35695   8.690   7.738  10.451
67278W        W35696  33.888  15.318  11.052
67279W        W35697  30.026  14.697  10.435
67280W        W35698   4.297  30.553   0.257
67281W        W35699   5.249  17.714  13.412
67282W        W35700  37.503  24.551   2.675
67283W        W35701   4.795  28.624  13.864
67284W        W35702   7.346  28.179  13.019
67285W        W35703  16.681  24.225   3.247
67286W        W35704   2.899   3.255  13.015
67287W        W35705  10.669   3.717  12.388
67288W        W35706  34.579  41.489   0.481
67289W        W35707  15.232  12.180  13.384
67290W        W35708  15.306   3.449  11.465
67291W        W35709  13.257   0.474   2.863
67292W        W35710  35.901  17.640   2.207
67293W        W35711  40.803   8.255   2.300
67294W        W35712  18.105  35.517  12.943
67295W        W35713  25.540  25.019   1.822
67296W        W35714  35.458  38.422   0.922
67297W        W35715  43.477  23.681  10.476
67298W        W35716  36.366  13.298  12.973
67299W        W35717   9.836  14.774   4.816
67300W        W35718  15.669   8.738   3.688
67301W        W35719  11.677  14.212  11.011
67302W        W35720  26.664   4.293  13.000
67303W        W35721  19.262   2.398  10.458
67304W        W35722  11.622  11.326  13.412
67305W        W35723  30.020   6.860   2.694
67306W        W35724   7.416   0.917   0.864
67307W        W35725   2.247  15.096  14.886
67308W        W35726  12.632  30.648   2.314
67309W        W35727  29.508  16.242   2.414
67310W        W35728  39.915   9.859  12.995
67311W        W35729   8.293   3.761  13.309
67312W        W35730  27.452  41.317  12.933
67313W        W35731  26.585   1.319  13.413
67314W        W35732  10.189   2.402  14.884
67315W        W35733  34.526   4.227  13.440
67316W        W35734  24.121  39.843  14.908
67317W        W35735  38.332  25.676  12.348
67318W        W35736  25.707  20.168  11.495
67319W        W35737  19.603  28.537  13.398
67320W        W35738  43.826  10.330  12.026
67321W        W35739  38.521   7.347  13.365
67322W        W35740  13.604  32.438  10.520
67323W        W35741  36.460  44.869  11.006
67324W        W35742  11.829   0.980  12.870
67325W        W35743  33.036  16.247  14.336
67326W        W35744  10.685  33.603   1.407
67327W        W35745  31.049  10.242  10.438
67328W        W35746  34.117  16.762  10.984
67329W        W35747  30.597   6.332   0.934
67330W        W35748  35.495  43.999   2.835
67331W        W35749   9.233  11.352   3.150
67332W        W35750   6.755  31.627  14.979
67333W        W35751  22.694  43.503  14.005
67334W        W35752  26.587   0.744  14.337
67335W        W35753   7.298  23.637  10.579
67336W        W35754  29.437   1.455  12.422
67337W        W35755  27.053  38.946  11.590
67338W        W35756   5.286  15.616  10.916
67339W        W35757  25.038  17.615   0.401
67340W        W35758  18.106   0.319   1.319
67341W        W35759   1.803  19.729  14.863
67342W        W35760  22.674   0.952   0.848
67343W        W35761  14.174  10.233   0.855
67344W        W35762   2.448   9.273  10.414
67345W        W35763   4.938   0.883  11.453
67346W        W35764   9.676  44.964   0.878
67347W        W35765  18.787  44.496   3.684
67348W        W35766   2.258  44.367  11.918
67349W        W35767  11.643  11.786   3.656
67350W        W35768  35.500  33.036   3.173
67351W        W35769  17.189  24.077  11.864
67352W        W35770  43.932  32.414  13.385
67353W        W35771  35.398  11.327  10.522
67354W        W35772  11.862  11.142  14.487
67355W        W35773  12.841  32.410   3.166
67356W        W35774  38.390  28.947   1.228
67357W        W35775   6.913  10.167   3.352
67358W        W35776  29.153  18.286  12.545
67359W        W35777  18.639   6.403   3.810
67360W        W35778  21.623  28.120   0.770
67361W        W35779   5.834  16.669  13.452
67362W        W35780  15.621   5.773  12.949
67363W        W35781  43.324  10.235   1.347
67364W        W35782  11.369   9.348  12.429
67365W        W35783  27.531  43.466  13.441
67366W        W35784  27.533   3.392   2.889
67367W        W35785  41.974  23.665   4.823
67368W        W35786  34.076  21.091   0.408
67369W        W35787  25.107  29.531   3.773
67370W        W35788   4.278  11.865   2.237
67371W        W35789  27.172  19.609   1.439
67372W        W35790  22.036  33.899   0.301
67373W        W35791  19.742  38.544   3.298
67374W        W35792  11.373  37.999   2.400
67375W        W35793   0.932  33.380   2.690
67376W        W35794   1.410  22.691  10.015
67377W        W35795   1.779  19.186  13.370
67378W        W35796   5.307  33.914   4.151
67379W        W35797  22.096  22.743   3.175
67380W        W35798   6.888  13.769  11.469
67381W        W35799  43.977  13.612  11.405
67382W        W35800   3.775  21.261   2.699
67383W        W35801   6.807  31.580   4.337
67384W        W35802  43.922  10.795   1.910
67385W        W35803   4.837  13.793  12.941
67386W        W35804   8.300   5.761   4.237
67387W        W35805   6.412   4.215   0.408
67388W        W35806  19.625  36.347  11.923
67389W        W35807  37.534   6.849  14.923
67390W        W35808  36.858  25.116  11.546
67391W        W35809  42.016  22.632  10.473
67392W        W35810  41.340  12.325   1.328
67393W        W35811  26.677  25.975  11.959
67394W        W35812  40.316   7.734  11.598
67395W        W35813  24.518   4.215   4.680
67396W        W35814  41.349  43.839   4.669
67397W        W35815  29.601  16.180   0.466
67398W        W35816  12.180  22.239   3.263
67399W        W35817  42.871  30.483  11.073
67400W        W35818  43.461  26.092   0.873
67401W        W35819  10.193  10.259  14.972
67402W        W35820  38.377  21.162  13.541
67403W        W35821  11.628  15.664  10.419
67404W        W35822  23.726  25.984   0.801
67405W        W35823  44.985  39.042  12.578
67406W        W35824  19.147  20.101  10.407
67407W        W35825  27.463  42.345  14.893
67408W        W35826  11.172   0.982  13.880
67409W        W35827  35.871  39.516   1.811
67410W        W35828  43.914  21.217  11.086
67411W        W35829  37.947  27.127   0.252
67412W        W35830  39.813  20.762   0.283
67413W        W35831   0.848   4.448   3.734
67414W        W35832  40.366  42.344   1.393
67415W        W35833   5.786   9.194  10.950
67416W        W35834  38.951  22.599   0.393
67417W        W35835  16.203   8.687   1.879
67418W        W35836   5.694  12.132   1.334
67419W        W35837  24.075  37.938  12.343
67420W        W35838  15.735   4.822  13.387
67421W        W35839  34.006   1.797  10.967
67422W        W35840  33.107  23.572  13.978
67423W        W35841  18.651  24.171   3.695
67424W        W35842  36.476  33.614  11.018
67425W        W35843  13.273  23.182   3.276
67426W        W35844  38.875  10.759  10.456
67427W        W35845  25.120  17.204   3.228
67428W        W35846  31.499  29.665  12.076
67429W        W35847  19.253  24.211  11.597
67430W        W35848  32.521  21.654  13.941
67431W        W35849  23.148   6.353   3.376
67432W        W35850   0.279  25.027  11.428
67433W        W35851  15.198   9.178  12.569
67434W        W35852  43.464  33.524  13.460
67435W        W35853  12.349   5.435   3.662
67436W        W35854  20.696  18.105  10.593
67437W        W35855  23.049  44.464  12.845
67438W        W35856   6.816  15.272  14.027
67439W        W35857  43.921  26.536  13.490
67440W        W35858  21.741   7.739  14.377
67441W        W35859  38.548  30.972   3.705
67442W        W35860  40.452   0.356  12.521
67443W        W35861  44.381   2.379  14.988
67444W        W35862   0.804  40.452  14.962
67445W        W35863  36.088  29.089  11.919
67446W        W35864  17.712  44.005   0.798
67447W        W35865   1.900   9.332  13.984
67448W        W35866  26.545  14.251  12.568
67449W        W35867  24.116   0.477   2.368
67450W        W35868   4.909  35.498  14.828
67451W        W35869   5.421  10.679   4.312
67452W        W35870  10.300  41.320  11.443
67453W        W35871   4.209   3.722  14.028
67454W        W35872  12.852  10.285   3.833
67455W        W35873  33.889   8.678   0.255
67456W        W35874  42.502  15.773   3.349
67457W        W35875   5.868  16.702  13.834
67458W        W35876  15.083  30.044   4.233
67459W        W35877  17.749   0.300   0.820
67460W        W35878  15.223  13.645   3.658
67461W        W35879  13.814  26.199  11.565
67462W        W35880  16.196   2.783   4.253
67463W        W35881  41.954  14.107  14.785
67464W        W35882   3.717  18.107  13.472
67465W        W35883  14.646  32.984   2.356
67466W        W35884  33.906  38.364   2.858
67467W        W35885   6.753  36.559   4.121
67468W        W35886  14.812  23.650  11.592
67469W        W35887   8.815   0.464  12.907
67470W        W35888   6.715  44.792   1.785
67471W        W35889  14.728  40.379  11.491
67472W        W35890  14.794  22.503  11.426
67473W        W35891   6.722  23.045   4.169
67474W        W35892   1.973  36.039   1.870
67475W        W35893   2.793  15.635   2.819
67476W        W35894  22.127  44.888  14.007
67477W        W35895   2.371   7.768  14.028
67478W        W35896  19.234  43.005  11.372
67479W        W35897  34.416  14.168   3.270
67480W        W35898  31.904  30.112   1.728
67481W        W35899   2.467  25.195   3.745
67482W        W35900   6.734  38.421  12.875
67483W        W35901   1.428  37.342   1.402
67484W        W35902  40.858  43.846  12.871
67485W        W35903   8.309  25.679  13.493
67486W        W35904  35.038  22.679   5.256
67487W        W35905  13.746  30.541   2.824
67488W        W35906   0.763  29.632   2.236
67489W        W35907  41.931  29.993  12.580
67490W        W35908   2.305  11.863   1.903
67491W        W35909  17.558   1.976  11.067
67492W        W35910  19.659  35.085   0.965
67493W        W35911  27.491  19.146  10.558
67494W        W35912  25.086  35.485  12.984
67495W        W35913  21.253  42.878   1.933
67496W        W35914  39.457  31.430  10.520
67497W        W35915  19.763  35.881   0.290
67498W        W35916  20.542  24.208  13.317
67499W        W35917  35.870  32.455   2.238
67500W        W35918  23.583  41.013  11.409
67501W        W35919  43.500  10.654  11.595
67502W        W35920   3.932  39.858  10.956
67503W        W35921  34.003  37.457  12.566
67504W        W35922   2.237  31.922   3.697
67505W        W35923   2.342   8.840  12.563
67506W        W35924   1.755  17.764  10.614
67507W        W35925  13.723   7.820   3.300
67508W        W35926  21.655  36.975  14.291
67509W        W35927   1.403  31.123   1.249
67510W        W35928  32.465  31.468  11.041
67511W        W35929  11.172  15.293   1.917
67512W        W35930   4.923   0.820   0.461
67513W        W35931  36.506  32.534   1.347
67514W        W35932  17.123  41.799   2.197
67515W        W35933  39.403  39.384  12.068
67516W        W35934   8.282  16.641   3.309
67517W        W35935  31.098  18.228  10.448
67518W        W35936  33.897  44.909   2.728
67519W        W35937   9.389   2.230  14.477
67520W        W35938  17.577  21.733  10.590
67521W        W35939  16.217  19.130   4.777
67522W        W35940   8.691  35.560  13.362
67523W        W35941  11.672   4.727  11.373
67524W        W35942   4.322  36.358   3.352
67525W        W35943  12.137   5.420   4.227
67526W        W35944  37.435  35.601  12.401
67527W        W35945   4.442   6.199   0.320
67528W        W35946  23.034   1.347   2.334
67529W        W35947   0.810  14.161  10.410
67530W        W35948  24.050  34.875  12.042
67531W        W35949  36.555  14.766   1.840
67532W        W35950   3.869  35.999   3.782
67533W        W35951  44.291  42.925  14.487
67534W        W35952  28.128   6.290   2.210
67535W        W35953  41.424  24.217  12.901
67536W        W35954  40.541  30.573   3.701
67537W        W35955  42.991  30.990   5.114
67538W        W35956   6.750  38.420   2.893
67539W        W35957  33.419  23.064  13.397
67540W        W35958  41.345  26.073  11.478
67541W        W35959  19.576  44.775   2.414
67542W        W35960  37.910  35.074  13.497
67543W        W35961  24.203  12.162   4.822
67544W        W35962  39.043  43.505  12.360
67545W        W35963   3.895  32.910   1.444
67546W        W35964  25.111  42.032   2.718
67547W        W35965  31.489   6.800  10.943
67548W        W35966  17.707  29.665  12.546
67549W        W35967  21.519  20.245  14.788
67550W        W35968  38.540   4.835  10.639
67551W        W35969  10.298  14.108  10.601
67552W        W35970  17.073  28.508  10.577
67553W        W35971  38.545  34.951   1.889
67554W        W35972  38.883  34.910   3.761
67555W        W35973  42.840   8.181  11.875
67556W        W35974  28.135  19.111  11.965
67557W        W35975   7.380   4.391   1.217
67558W        W35976  37.069  43.490   2.866
67559W        W35977  17.612  19.246  14.897
67560W        W35978  32.114  22.704   5.182
67561W        W35979  42.990   2.825  13.874
67562W        W35980  12.119  30.963  13.827
67563W        W35981   7.688  33.103  14.275
67564W        W35982  14.224   0.361   4.153
67565W        W35983  17.769  42.871  11.485
67566W        W35984   3.721  19.060   4.774
67567W        W35985  12.327  27.115   0.302
67568W        W35986   1.790  37.920   3.234
67569W        W35987  33.578   7.668  13.888
67570W        W35988  41.866  23.191  14.348
67571W        W35989   1.828  39.402  13.498
67572W        W35990   7.765  16.269  14.880
67573W        W35991  18.205   0.487  10.450
67574W        W35992  36.000   0.493  14.849
67575W        W35993   5.735  15.674   2.182
67576W        W35994  40.994  25.017   4.326
67577W        W35995  33.905  19.274  10.934
67578W        W35996  25.963  28.448   3.806
67579W        W35997  25.626  14.136  13.327
67580W        W35998  16.709  39.922   0.308
67581W        W35999  19.156  35.075  13.360
67582W        W36000  33.404  29.166  10.155
67583W        W36001   0.951   6.722   0.424
67584W        W36002  18.777  37.917  14.884
67585W        W36003   4.904   1.947   2.344
67586W        W36004  22.731  23.662   4.280
67587W        W36005  27.981  28.019  10.102
67588W        W36006  19.040  14.827   1.236
67589W        W36007  43.483  20.680  11.891
67590W        W36008  44.992  14.153  12.487
67591W        W36009  36.572  34.977  13.991
67592W        W36010  39.541   9.163   4.294
67593W        W36011   9.694  26.545   2.243
67594W        W36012  34.892   4.370  14.822
67595W        W36013  38.387  23.032   0.411
67596W        W36014   1.740  17.572   2.371
67597W        W36015   0.777   6.281   5.253
67598W        W36016   8.191  37.066  13.424
67599W        W36017  19.074  18.726  10.891
67600W        W36018  44.310  39.993   4.717
67601W        W36019  12.734  31.134  11.991
67602W        W36020  21.035  17.560   0.269
67603W        W36021   6.812  24.555  12.088
67604W        W36022  17.638   8.340   2.801
67605W        W36023  19.593  10.873   3.289
67606W        W36024  28.996  43.825  12.056
67607W        W36025  16.232  43.284   0.751
67608W        W36026  22.512  18.784  11.500
67609W        W36027  44.778   5.748  12.441
67610W        W36028  42.013   3.301  14.968
67611W        W36029  31.591  30.494  13.823
67612W        W36030  12.347  24.097  10.947
67613W        W36031  32.052  10.767  10.574
67614W        W36032  13.729  24.481   1.347
67615W        W36033   0.384  25.568   2.815
67616W        W36034  40.895  42.020   2.284
67617W        W36035  27.629  25.691   1.395
67618W        W36036  10.245  17.132  10.506
67619W        W36037  15.646  12.612   2.243
67620W        W36038  13.736  39.436  11.129
67621W        W36039  21.657   4.250  12.042
67622W        W36040  12.201  39.520  12.452
67623W        W36041  13.805  22.711  11.447
67624W        W36042   9.807  35.926   0.840
67625W        W36043  14.128  35.416  11.986
67626W        W36044  19.738  44.350  11.974
67627W        W36045  32.544   2.275  12.538
67628W        W36046  35.987  41.327   2.733
67629W        W36047  43.022   6.305   5.256
67630W        W36048   3.233  10.276  12.867
67631W        W36049  39.057  33.953  11.525
67632W        W36050   9.750  42.942  12.536
67633W        W36051  22.629  40.949   1.412
67634W        W36052   3.788  15.787  14.341
67635W        W36053  15.714  13.112   2.402
67636W        W36054  40.988  30.964  12.423
67637W        W36055   0.270  21.731   0.273
67638W        W36056   4.703  31.078   2.810
67639W        W36057   8.701  43.382   4.348
67640W        W36058  22.193  36.358  13.547
67641W        W36059   7.774  41.328  14.317
67642W        W36060   3.370   5.358  11.915
67643W        W36061   8.336  13.672  12.483
67644W        W36062   8.264   5.241  12.536
67645W        W36063  34.402  29.042   4.135
67646W        W36064  22.731  37.543  10.482
67647W        W36065  43.921  39.968  14.793
67648W        W36066  37.476  31.584  10.460
67649W        W36067  16.237  25.598  12.377
67650W        W36068  20.568  23.210  12.493
67651W        W36069  29.017  24.062  11.452
67652W        W36070   8.872   6.690  10.639
67653W        W36071   6.907   7.319   2.683
67654W        W36072  31.116  33.081   3.156
67655W        W36073  21.200   7.383   2.674
67656W        W36074  38.015  44.304   0.457
67657W        W36075  24.104  22.154   0.267
67658W        W36076   0.981  22.153  12.080
67659W        W36077   4.372   7.388  10.941
67660W        W36078  43.806  41.530  12.540
67661W        W36079  25.692  35.020  12.578
67662W        W36080  14.258   9.778  11.548
67663W        W36081  13.247  36.879   0.844
67664W        W36082  21.045  17.271   0.777
67665W        W36083  33.073  18.690  14.479
67666W        W36084  18.679  11.349   3.690
67667W        W36085  39.528  40.373  13.811
67668W        W36086   6.912  28.437  11.102
67669W        W36087  29.037  14.204   4.712
67670W        W36088  30.050  27.481   2.692
67671W        W36089  36.889  16.794  14.300
67672W        W36090  39.956  42.002   1.286
67673W        W36091  14.318   4.913   3.383
67674W        W36092   0.935  32.541   2.330
67675W        W36093  28.648  26.990  12.946
67676W        W36094  18.589  43.387   1.813
67677W        W36095   0.816  21.584   0.470
67678W        W36096  13.110  15.753  13.822
67679W        W36097  44.449   9.239   4.600
67680W        W36098  38.835   4.755   2.368
67681W        W36099  23.686  26.077   3.737
67682W        W36100  37.841  43.278   3.168
67683W        W36101  14.097  40.530   1.272
67684W        W36102  20.250   5.759   0.301
67685W        W36103   3.306  40.841   2.718
67686W        W36104   2.868  17.647   2.313
67687W        W36105   2.833  34.909   2.843
67688W        W36106  25.475  11.218   2.772
67689W        W36107   8.698  10.384  14.866
67690W        W36108  34.392  19.716   0.891
67691W        W36109   0.404   5.902   3.212
67692W        W36110  43.964  28.181   2.685
67693W        W36111  21.613  43.349  14.961
67694W        W36112   2.271  42.808   2.744
67695W        W36113  35.426  31.492   3.224
67696W        W36114   3.392  33.882   2.185
67697W        W36115  32.044  41.028  10.534
67698W        W36116  32.535  14.648   3.687
67699W        W36117  31.610  35.039   4.330
67700W        W36118  25.563  19.620   1.228
67701W        W36119  37.925  29.457   2.859
67702W        W36120  10.138   5.820  13.932
67703W        W36121  15.633  17.747  14.964
67704W        W36122  22.123  28.450   1.231
67705W        W36123  21.072  36.940   3.662
67706W        W36124  19.137  15.695  13.031
67707W        W36125  33.992  20.738   1.845
67708W        W36126   5.298  44.837  11.607
67709W        W36127  32.888  44.406  12.379
67710W        W36128   5.361  19.157   3.712
67711W        W36129  23.033  18.789  13.004
67712W        W36130  12.360   0.415  12.470
67713W        W36131  40.943  34.073   1.831
67714W        W36132  21.242  35.968   2.311
67715W        W36133   2.879  10.231  12.990
67716W        W36134  22.106  12.253   0.761
67717W        W36135  26.018  23.622   4.805
67718W        W36136  23.499  43.959  14.929
67719W        W36137  38.512  11.353   3.217
67720W        W36138  34.935  16.143  14.408
67721W        W36139  13.340   8.683  12.853
67722W        W36140  27.021  14.625   1.390
67723W        W36141  24.586  21.710   3.153
67724W        W36142  29.427  27.533   2.207
67725W        W36143  29.148  18.260  11.578
67726W        W36144  25.625   5.769   2.718
67727W        W36145  41.999   5.733   2.284
67728W        W36146   8.729  38.893  14.384
67729W        W36147  16.805  42.503  12.982
67730W        W36148  34.442  35.896  13.472
67731W        W36149  30.063  28.017  14.354
67732W        W36150  21.088   1.426  11.029
67733W        W36151  11.340  37.561  14.388
67734W        W36152  34.865  33.453   1.352
67735W        W36153  11.358  40.854   2.239
67736W        W36154  26.003  40.027  10.495
67737W        W36155  29.459  36.361  13.845
67738W        W36156  16.796   8.363   2.751
67739W        W36157  32.500   6.821   0.402
67740W        W36158  28.959   4.400  12.543
67741W        W36159  23.661  31.642  12.449
67742W        W36160  31.499  43.908  14.977
67743W        W36161  26.009  20.272   2.668
67744W        W36162  28.036  10.735  13.376
67745W        W36163  20.767  27.489   0.936
67746W        W36164  13.108  21.699   4.630
67747W        W36165   7.405  28.008  12.574
67748W        W36166  23.181  42.791   3.167
67749W        W36167   9.668  25.160   1.878
67750W        W36168  43.380  27.012   1.793
67751W        W36169  33.049  41.942   0.323
67752W        W36170  33.397   9.842  14.858
67753W        W36171  23.016   5.881  10.463
67754W        W36172  37.448  18.190  10.972
67755W        W36173  11.865  35.590  11.879
67756W        W36174  21.575  20.552   3.355
67757W        W36175  25.087  42.309   2.191
67758W        W36176  39.918  38.516  11.029
67759W        W36177  38.518   3.804   4.752
67760W        W36178   2.930  43.012  11.024
67761W        W36179  38.890  32.529  14.475
67762W        W36180   4.251  12.220   2.281
67763W        W36181  24.610  38.925  13.801
67764W        W36182  28.653   7.667  11.086
67765W        W36183  29.124  33.558  11.495
67766W        W36184  37.974   4.776  13.479
67767W        W36185  30.037   6.263   1.332
67768W        W36186  26.669   1.302   3.223
67769W        W36187  25.529  34.890   0.857
67770W        W36188  37.550  28.942   4.195
67771W        W36189  31.446  39.994   4.733
67772W        W36190   1.936  17.621  10.932
67773W        W36191   6.752  16.705   4.624
67774W        W36192  11.677  27.582   2.348
67775W        W36193  28.055  11.327  12.505
67776W        W36194  37.566   3.799   3.817
67777W        W36195  19.752  20.080   1.836
67778W        W36196   5.787  18.135  10.564
67779W        W36197  11.305  26.518   3.317
67780W        W36198  14.251  42.321  12.004
67781W        W36199  27.661  11.373  11.993
67782W        W36200  36.004   3.864  13.534
67783W        W36201   1.879  16.311   4.261
67784W        W36202  36.401  37.542  10.945
67785W        W36203  21.058  38.855   5.291
67786W        W36204  36.003  16.208  13.937
67787W        W36205  37.364  10.637  10.618
67788W        W36206  40.908  29.429   1.845
67789W        W36207   6.699   5.279   4.649
67790W        W36208  16.566  38.968  13.368
67791W        W36209  23.510  29.497  12.933
67792W        W36210  34.085  43.782   3.261
67793W        W36211  44.351  30.656   2.241
67794W        W36212  29.651  35.920   5.233
67795W        W36213  43.367  39.020   1.856
67796W        W36214   0.809   3.402  12.976
67797W        W36215  23.009  10.640  13.454
67798W        W36216  16.614  35.431   2.394
67799W        W36217  27.111  30.987   3.202
67800W        W36218   8.220  40.370   1.447
67801W        W36219  18.111  25.490  14.349
67802W        W36220  15.721  29.614   1.396
67803W        W36221  10.154  41.410   2.693
67804W        W36222  32.414  21.592   3.645
67805W        W36223   1.941  35.944   4.248
67806W        W36224  36.565  36.940  12.048
67807W        W36225   1.320  33.420  13.310
67808W        W36226   6.910  33.039   2.323
67809W        W36227   4.813  22.033   0.911
67810W        W36228   5.781  21.650   2.311
67811W        W36229  15.733  35.902   2.260
67812W        W36230  20.699  28.444  11.516
67813W        W36231  35.861   1.257  14.898
67814W        W36232   1.945  34.073   4.295
67815W        W36233  27.039  40.385  14.871
67816W        W36234  20.646  16.675   0.960
67817W        W36235  36.508  25.689  13.345
67818W        W36236  41.388  35.460  11.047
67819W        W36237   2.461  29.500  13.911
67820W        W36238  23.708  44.789   4.781
67821W        W36239  38.433   7.177   1.703
67822W        W36240  26.482  21.186   3.289
67823W        W36241  14.323   7.284   1.794
67824W        W36242  32.939  24.016  12.887
67825W        W36243   1.367  25.098   1.376
67826W        W36244  44.376  22.699  13.307
67827W        W36245  39.416  25.057   4.620
67828W        W36246  29.029  37.576   4.207
67829W        W36247  38.412  26.010  12.978
67830W        W36248  18.269  28.557   1.219
67831W        W36249  14.118  38.023   0.742
67832W        W36250  31.137  41.348   0.278
67833W        W36251  34.548  30.634   2.864
67834W        W36252  28.467  19.693  13.341
67835W        W36253  43.416  24.220  12.392
67836W        W36254  41.824  10.305   4.118
67837W        W36255  34.503  29.665  10.949
67838W        W36256  21.023   2.322  11.113
67839W        W36257  16.303  10.195   4.184
67840W        W36258  19.738  16.314  14.838
67841W        W36259  13.699  39.969  14.367
67842W        W36260  10.778  14.829   3.255
67843W        W36261  21.734  19.084  10.578
67844W        W36262  42.391  17.626  13.376
67845W        W36263  39.980  23.510  13.453
67846W        W36264   9.347   3.332   1.342
67847W        W36265  32.085  20.651  14.430
67848W        W36266   5.775  11.371   3.374
67849W        W36267  24.653  35.366   4.632
67850W        W36268  40.907  42.958  12.989
67851W        W36269  36.851  32.435   1.895
67852W        W36270   0.931   8.395   2.787
67853W        W36271  35.862  26.649  11.486
67854W        W36272  24.042  42.980  14.795
67855W        W36273  17.253  19.684  10.615
67856W        W36274   3.914  22.020  11.065
67857W        W36275  27.650   2.903   1.380
67858W        W36276  16.228  38.001   0.376
67859W        W36277  44.482  27.177   1.813
67860W        W36278  43.419  21.581   4.244
67861W        W36279  10.276  30.109   4.763
67862W        W36280  11.776  37.440   2.191
67863W        W36281  14.652  38.019   4.617
67864W        W36282  26.999   3.337  10.992
67865W        W36283   1.378  16.780   0.340
67866W        W36284  27.569  43.292  10.616
67867W        W36285  13.834  17.169  14.285
67868W        W36286  26.647   3.343  12.033
67869W        W36287  32.395  34.599  13.905
67870W        W36288  26.601   7.686  11.564
67871W        W36289  40.522  25.996   1.766
67872W        W36290  43.876  32.567  12.351
67873W        W36291  12.185  40.400  13.447
67874W        W36292  33.603  21.189   1.823
67875W        W36293  22.715  12.147  14.836
67876W        W36294   9.796  25.584  12.426
67877W        W36295  28.629  23.032  11.545
67878W        W36296  11.658  41.827   2.894
67879W        W36297   3.341   5.923  12.938
67880W        W36298  23.554  11.754   1.214
67881W        W36299   1.751  39.904  13.886
67882W        W36300   7.891  19.045   0.374
67883W        W36301  41.425   8.829   3.189
67884W        W36302  18.080  25.094  10.949
67885W        W36303  22.695  17.590   1.707
67886W        W36304  16.146  23.061  14.791
67887W        W36305   2.360  34.603  12.915
67888W        W36306   2.963  11.698  14.997
67889W        W36307  38.340  34.109   0.325
67890W        W36308  41.518  24.646  12.464
67891W        W36309  44.785  31.935   3.790
67892W        W36310   8.350   1.780  14.004
67893W        W36311   5.714  43.879  10.502
67894W        W36312   9.231  26.644   1.426
67895W        W36313  36.374  42.793   4.757
67896W        W36314   8.191  27.129   1.816
67897W        W36315  42.372   0.932  10.579
67898W        W36316   1.406   1.248   4.771
67899W        W36317   5.318  38.465   4.777
67900W        W36318  33.618  27.975  14.451
67901W        W36319  33.511  42.793  10.585
67902W        W36320  10.308  36.880  14.480
67903W        W36321  34.587  31.485  13.816
67904W        W36322  34.463  43.408  12.507
67905W        W36323  13.805  24.161   0.877
67906W        W36324  10.306  42.364  13.464
67907W        W36325   9.726  15.247  10.452
67908W        W36326   2.372   4.361   1.738
67909W        W36327  44.853  33.092   2.844
67910W        W36328  33.418   8.302  12.076
67911W        W36329  30.626  31.016  14.358
67912W        W36330  34.004  25.605   0.458
67913W        W36331  42.489  16.756  10.905
67914W        W36332   6.257   8.292   3.726
67915W        W36333  29.541   3.421  12.952
67916W        W36334  12.334  44.462  14.502
67917W        W36335   1.886  22.135   5.309
67918W        W36336  17.620  39.879   1.441
67919W        W36337  29.005  34.046  12.011
67920W        W36338   3.428  21.173   5.640
67921W        W36339  24.597   0.467   2.732
67922W        W36340  14.166  43.440  14.355
67923W        W36341   1.343  23.172   2.688
67924W        W36342  31.123  26.091   0.753
67925W        W36343  27.944  16.792   1.242
67926W        W36344  38.338   2.359   0.900
67927W        W36345  16.747   6.283   2.682
67928W        W36346  13.741  42.947   0.890
67929W        W36347  16.293  26.633   4.689
67930W        W36348  16.075  38.358   0.250
67931W        W36349  40.408  27.017   4.152
67932W        W36350  24.179  36.448   4.181
67933W        W36351  25.547  21.259   4.163
67934W        W36352  37.533  11.625  12.878
67935W        W36353   5.432  38.077   3.378
67936W        W36354  36.885  39.376   0.339
67937W        W36355  22.141  30.629   2.323
67938W        W36356   5.299  11.651   1.746
67939W        W36357  37.481  30.053   1.403
67940W        W36358  33.046  26.021  11.972
67941W        W36359   9.787  23.576  13.943
67942W        W36360  37.446  40.916  11.513
67943W        W36361  31.603  25.013  14.315
67944W        W36362  14.206  24.555  11.956
67945W        W36363   4.923   0.298  14.324
67946W        W36364   5.313   9.769   0.966
67947W        W36365   9.816  25.990  14.924
67948W        W36366  39.524   8.796  14.007
67949W        W36367  20.161  12.201   5.227
67950W        W36368  20.638  37.498  14.326
67951W        W36369  41.986  22.009   2.888
67952W        W36370  23.646  38.969  13.355
67953W        W36371  14.781  30.454  13.325
67954W        W36372  30.123  14.730  11.001
67955W        W36373   3.446   7.209   3.842
67956W        W36374   6.724  24.614  12.888
67957W        W36375   8.270  24.562  12.931
67958W        W36376  13.788  27.453   4.642
67959W        W36377   2.370  23.237  12.039
67960W        W36378  41.498  35.380  11.440
67961W        W36379  40.528  41.812  13.510
67962W        W36380  37.524   5.869   2.789
67963W        W36381  31.117  24.641   2.792
67964W        W36382  16.179  30.548  11.890
67965W        W36383  18.065  18.082   2.354
67966W        W36384  36.541  36.538   3.753
67967W        W36385  14.110   3.905  14.819
67968W        W36386  27.675  33.109   2.223
67969W        W36387  15.702  28.664   0.388
67970W        W36388  34.487  32.009  12.925
67971W        W36389   0.450  14.255   2.729
67972W        W36390  17.163   4.272   4.709
67973W        W36391  32.102  14.193  13.845
67974W        W36392   3.418   0.909   5.267
67975W        W36393  21.562  30.614   1.714
67976W        W36394  19.536   3.955   0.884
67977W        W36395  19.637  34.485   3.832
67978W        W36396  15.167  11.249  11.514
67979W        W36397  29.146  42.436  10.609
67980W        W36398  22.540  44.894   2.835
67981W        W36399  10.686  37.923  10.491
67982W        W36400  42.929  42.028   4.720
67983W        W36401   5.795  12.643  14.324
67984W        W36402  27.112  22.132   3.383
67985W        W36403   2.449   8.360  11.572
67986W        W36404  32.583  11.314  14.954
67987W        W36405   2.286  30.472   1.237
67988W        W36406   0.827  12.275  13.339
67989W        W36407  33.126  14.231   1.432
67990W        W36408  16.229  23.677  13.498
67991W        W36409   5.723  15.243   2.783
67992W        W36410  23.708   0.830   3.169
67993W        W36411  24.095  24.013  13.829
67994W        W36412  39.834   1.925  11.536
67995W        W36413  20.194  44.973  11.411
67996W        W36414  35.458  39.464  10.576
67997W        W36415   8.289  30.020   0.954
67998W        W36416  21.644   0.342  10.485
67999W        W36417  13.184  20.671   2.260
68000W        W36418  15.765  38.074   1.720
68001W        W36419   1.283  33.414   3.169
68002W        W36420  29.051  33.966  14.435
68003W        W36421  31.550   6.329   0.277
68004W        W36422  39.442  21.045  13.979
68005W        W36423  23.630  18.643   0.767
68006W        W36424  19.773  16.260  12.025
68007W        W36425  40.468  29.127  13.450
68008W        W36426   4.714  34.388   3.769
68009W        W36427  44.875  44.872  14.771
68010W        W36428  34.948  32.115   5.168
68011W        W36429   9.703  24.481  11.545
68012W        W36430  42.285  12.307  15.000
68013W        W36431  43.800  41.849  14.347
68014W        W36432  43.820  16.142  14.022
68015W        W36433  39.507  20.221   4.715
68016W        W36434  21.625   1.319  12.928
68017W        W36435  15.107   4.368   3.273
68018W        W36436  33.613   5.344  12.539
68019W        W36437  35.365  30.523  10.637
68020W        W36438  17.728  44.834  11.003
68021W        W36439  30.582  36.939   1.806
68022W        W36440   3.413  26.510   4.146
68023W        W36441  34.431  20.684  13.501
68024W        W36442  35.917   7.760  13.063
68025W        W36443  15.659   2.806   4.808
68026W        W36444   0.465  31.640  11.909
68027W        W36445   0.807  15.700   1.443
68028W        W36446  24.491  36.573   4.119
68029W        W36447  34.582  19.659  12.829
68030W        W36448  42.912   6.707   3.860
68031W        W36449  42.966  22.608   3.275
68032W        W36450   9.753  32.483   4.638
68033W        W36451  20.248  18.125   1.301
68034W        W36452  18.788   3.270  14.797
68035W        W36453  38.950  38.837  12.342
68036W        W36454  29.121   5.372  11.439
68037W        W36455  10.198  20.052  12.412
68038W        W36456  15.316  18.240  14.503
68039W        W36457  34.558   7.898  14.923
68040W        W36458   8.225   0.923   2.314
68041W        W36459   0.338  14.826  12.059
68042W        W36460   3.839  36.898  13.037
68043W        W36461  44.892  19.587  11.583
68044W        W36462  22.567  15.594   2.827
68045W        W36463  23.493  19.246  13.921
68046W        W36464  17.600  14.099  14.339
68047W        W36465  18.249   6.302  10.628
68048W        W36466  10.147  23.069   0.408
68049W        W36467  16.212   8.763  12.072
68050W        W36468  39.549  43.856  12.373
68051W        W36469  34.558  21.198  11.042
68052W        W36470   0.775  20.181  10.549
68053W        W36471  10.810  23.601   1.370
68054W        W36472  18.627  16.137   2.338
68055W        W36473  33.124   5.330   0.363
68056W        W36474  11.843   2.386   2.721
68057W        W36475  38.967  31.985   4.183
68058W        W36476  31.018   6.802  12.096
68059W        W36477  36.396   6.202  11.962
68060W        W36478  17.219   6.886  14.776
68061W        W36479  11.699  44.877  13.015
68062W        W36480  23.027  14.785  12.043
68063W        W36481  35.032  16.299  14.817
68064W        W36482  25.531   3.927  13.487
68065W        W36483  33.123  40.955   4.329
68066W        W36484  12.616   5.867  13.503
68067W        W36485  13.199  44.405   4.216
68068W        W36486  30.916  37.046  10.927
68069W        W36487  33.933  40.374   2.237
68070W        W36488   4.742  44.458   3.751
68071W        W36489  35.020  40.825  14.979
68072W        W36490  39.054   2.844   0.481
68073W        W36491  30.512  29.494   4.707
68074W        W36492   7.901  35.973   5.224
68075W        W36493  36.589   4.307   1.923
68076W        W36494  11.666  22.129  12.379
68077W        W36495  24.171  34.908   2.248
68078W        W36496  14.137  35.912  14.822
68079W        W36497  28.451  33.591   3.271
68080W        W36498  38.405  42.385  12.508
68081W        W36499  25.480  25.999   0.407
68082W        W36500   0.798  23.236   4.273
68083W        W36501  30.964  18.235  12.833
68084W        W36502  39.872   3.286   3.750
68085W        W36503  17.585  41.491   3.337
68086W        W36504  39.485   0.837   2.879
68087W        W36505  26.490   1.750   1.217
68088W        W36506  30.920  13.315   4.749
68089W        W36507  35.437  27.973   0.812
68090W        W36508  23.140   2.286  11.127
68091W        W36509   8.851  42.324   1.439
68092W        W36510   8.749   7.777   0.804
68093W        W36511   5.926  44.459  12.922
68094W        W36512  13.221  10.329   4.621
68095W        W36513   3.457  34.056  14.311
68096W        W36514  11.671  13.703   9.975
68097W        W36515  27.117  22.550  14.355
68098W        W36516  30.525  15.197  11.524
68099W        W36517  15.621  40.913  13.400
68100W        W36518  31.989  27.144   1.337
68101W        W36519  10.655  11.308  14.481
68102W        W36520  31.986   9.782   2.415
68103W        W36521   5.838  11.321  12.442
68104W        W36522  16.252   7.216   9.618
68105W        W36523  24.550  39.043  14.338
68106W        W36524  14.235   7.379  11.559
68107W        W36525   8.833  15.155  12.878
68108W        W36526  22.639   5.777   1.907
68109W        W36527  11.268  38.055  10.630
68110W        W36528  32.092   9.835  10.988
68111W        W36529  39.544  44.352  11.054
68112W        W36530  23.615  41.422   2.413
68113W        W36531  36.930  30.141   4.707
68114W        W36532  10.137  24.215  14.412
68115W        W36533   7.381   4.804   0.820
68116W        W36534   2.346  32.590   2.257
68117W        W36535  30.967   2.828  11.120
68118W        W36536  31.938   1.944  12.883
68119W        W36537   0.969  40.010  12.444
68120W        W36538   4.397  36.572  10.948
68121W        W36539  31.938  36.355   1.387
68122W        W36540  28.102  18.089   2.808
68123W        W36541  21.551   2.742   2.861
68124W        W36542   7.670   9.151   3.634
68125W        W36543  38.495   0.313   1.918
68126W        W36544  30.135  24.501   0.323
68127W        W36545  20.766  42.031  14.857
68128W        W36546  33.421   4.711   3.791
68129W        W36547  42.031  13.658  14.796
68130W        W36548  41.300  16.150   1.443
68131W        W36549  29.918   6.864   1.804
68132W        W36550  19.043  33.587  12.081
68133W        W36551  19.157  26.687   1.921
68134W        W36552  15.327   4.803  12.041
68135W        W36553  19.535  32.991  14.889
68136W        W36554  16.629  26.184  12.077
68137W        W36555  18.582  26.970  12.493
68138W        W36556  24.040   2.952   1.266
68139W        W36557  43.450   6.405  12.500
68140W        W36558  14.603   2.875   0.944
68141W        W36559  10.682  29.084   3.223
68142W        W36560  31.940  20.604  13.871
68143W        W36561  32.926  30.147  14.896
68144W        W36562   9.229  26.049  11.063
68145W        W36563  38.327  41.345  10.900
68146W        W36564  10.150  25.097   2.190
68147W        W36565  35.449   6.922   2.836
68148W        W36566  20.576   2.950   0.264
68149W        W36567  30.592  34.556  12.446
68150W        W36568  34.104  33.076   3.870
68151W        W36569  12.259  18.191  11.039
68152W        W36570  16.702  39.951  10.534
68153W        W36571  17.138  22.116   4.197
68154W        W36572  44.259  24.032   3.815
68155W        W36573  23.985  32.050   4.736
68156W        W36574  13.222  11.658   3.322
68157W        W36575  37.376  11.740  13.481
68158W        W36576  39.981  15.713   3.313
68159W        W36577  14.125  22.627   0.369
68160W        W36578   8.732  20.533   4.693
68161W        W36579  23.624   0.397  13.049
68162W        W36580  38.889   1.874   2.730
68163W        W36581   4.875  28.633   4.276
68164W        W36582  21.663   3.259  11.405
68165W        W36583  18.562  18.663  11.510
68166W        W36584   2.256  23.197   1.803
68167W        W36585  15.319   0.744  10.924
68168W        W36586  20.552  19.619  12.951
68169W        W36587  14.636   2.377  12.541
68170W        W36588   2.276  30.913   2.376
68171W        W36589  30.621   3.742   1.765
68172W        W36590  12.641  18.169   4.136
68173W        W36591   0.815  28.992   3.324
68174W        W36592  42.789  25.000  12.984
68175W        W36593   1.402  41.501   3.201
68176W        W36594  38.974  22.214  11.405
68177W        W36595  10.728  41.843   2.713
68178W        W36596  29.439  21.064   9.951
68179W        W36597  19.658  21.034   3.697
68180W        W36598  18.152   1.797   2.902
68181W        W36599  24.079   8.361  14.504
68182W        W36600  34.488  26.517  11.924
68183W        W36601   3.421  24.981   4.123
68184W        W36602   4.421  39.955  14.277
68185W        W36603  32.486   8.191   4.206
68186W        W36604   6.820   1.829   0.475
68187W        W36605   9.335  21.624  14.286
68188W        W36606   7.813  19.645  13.855
68189W        W36607   8.260  19.184  13.953
68190W        W36608  21.732  39.950  10.908
68191W        W36609   9.760   7.773  10.995
68192W        W36610  34.558  43.381  11.471
68193W        W36611  39.953  11.827   1.399
68194W        W36612   8.360  38.347   4.657
68195W        W36613  38.064  38.070  14.281
68196W        W36614  17.710  30.578  10.905
68197W        W36615  29.442  23.636   1.309
68198W        W36616  22.511   5.744   4.151
68199W        W36617   9.840  22.529  12.039
68200W        W36618   5.199  13.324   1.441
68201W        W36619  40.327  40.547  10.404
68202W        W36620   7.315  27.575   2.270
68203W        W36621  31.438  24.591  14.390
68204W        W36622  31.034  25.060  12.371
68205W        W36623  15.102  15.134  14.019
68206W        W36624  21.208   7.666   4.798
68207W        W36625  29.463   2.848   2.667
68208W        W36626  10.672   4.345  10.958
68209W        W36627  25.094   7.383  11.972
68210W        W36628  12.283  24.700   2.418
68211W        W36629  10.847  43.827  13.449
68212W        W36630  27.138  16.621   3.852
68213W        W36631  15.742  17.167   0.829
68214W        W36632   1.270  43.444  11.957
68215W        W36633  33.918   0.408   4.271
68216W        W36634  38.068   3.315  12.909
68217W        W36635  10.292   6.292  14.498
68218W        W36636  28.150   6.366   5.595
68219W        W36637  25.550  13.765  14.774
68220W        W36638  42.908  41.934  14.295
68221W        W36639  16.683   0.768  12.858
68222W        W36640  28.998  31.944   3.831
68223W        W36641  22.174  12.727  10.546
68224W        W36642  33.609  11.773   4.160
68225W        W36643   9.214  26.963  13.991
68226W        W36644  14.209  34.012  13.376
68227W        W36645  11.220  27.477  14.489
68228W        W36646   2.397  34.504   4.772
68229W        W36647  39.927  18.765   0.883
68230W        W36648   3.951  42.898   3.372
68231W        W36649  32.137   1.866  11.548
68232W        W36650  17.781  13.629   3.749
68233W        W36651   8.665   8.710   4.275
68234W        W36652  33.038  31.102  13.491
68235W        W36653  11.209  14.705   1.244
68236W        W36654  28.540  11.207  12.478
68237W        W36655  32.631  37.454   4.251
68238W        W36656  23.577  11.716  10.544
68239W        W36657   4.234  43.884  12.865
68240W        W36658  30.972   4.372  10.981
68241W        W36659  24.601  44.276  14.912
68242W        W36660  38.565   3.397   3.169
68243W        W36661  44.838  12.334   1.776
68244W        W36662   8.280   3.833  11.011
68245W        W36663  40.359  11.253  11.382
68246W        W36664  31.418   4.402  11.495
68247W        W36665  37.402   0.854  14.764
68248W        W36666  30.002  22.697  10.492
68249W        W36667  24.117   7.282  11.390
68250W        W36668  44.315   8.334   5.171
68251W        W36669  43.785   7.782   2.409
68252W        W36670  40.860   6.189   1.703
68253W        W36671  11.283  35.438   1.892
68254W        W36672  44.884  42.461   2.318
68255W        W36673   5.891  37.445   2.727
68256W        W36674   9.278  20.033  12.417
68257W        W36675   1.756  26.955  12.081
68258W        W36676  10.315  37.895  12.351
68259W        W36677  27.574   0.261   4.597
68260W        W36678  22.108  21.585  14.969
68261W        W36679  13.797  35.469   4.161
68262W        W36680  23.725  39.813   2.662
68263W        W36681  38.059  23.142  11.048
68264W        W36682  43.317  39.025  10.080
68265W        W36683  13.669  11.790   1.769
68266W        W36684  29.078  38.823  14.989
68267W        W36685  38.376  29.158  13.403
68268W        W36686   8.267  22.524   4.799
68269W        W36687   1.415  22.578   5.176
68270W        W36688  11.258  24.997   3.307
68271W        W36689  33.081   6.211  13.851
68272W        W36690  20.725  11.264   4.669
68273W        W36691  36.425  34.114   2.775
68274W        W36692  35.560   9.890   1.436
68275W        W36693  18.092   4.264   0.348
68276W        W36694  26.983  28.620  13.040
68277W        W36695  41.302  10.269   1.288
68278W        W36696  15.688  31.898  14.489
68279W        W36697  44.916   3.372   2.859
68280W        W36698  11.272  44.258   1.866
68281W        W36699  27.597  16.644  12.038
68282W        W36700   8.303  13.118   1.274
68283W        W36701  31.116   7.829  14.956
68284W        W36702   3.872  20.551   4.336
68285W        W36703   1.751  17.300   3.792
68286W        W36704  34.445  35.383  11.945
68287W        W36705   8.771   1.375  14.859
68288W        W36706  43.445  27.515   0.749
68289W        W36707  16.267  33.437  13.901
68290W        W36708   7.681  11.814  10.148
68291W        W36709   1.400  19.701   4.345
68292W        W36710  12.660  23.071  14.372
68293W        W36711  13.259  28.051   1.740
68294W        W36712   3.439  31.494  10.482
68295W        W36713  15.642  38.834   2.691
68296W        W36714  11.166  25.496  12.566
68297W        W36715  30.446  27.455   3.714
68298W        W36716  35.363  23.560  14.844
68299W        W36717   8.690  27.967   4.778
68300W        W36718  17.698  21.255   3.719
68301W        W36719   6.912   5.865   0.280
68302W        W36720  18.715  25.966  10.630
68303W        W36721  17.681  12.260  13.339
68304W        W36722  25.986  15.700   0.893
68305W        W36723  19.645   1.358   3.212
68306W        W36724  38.550  36.502   1.923
68307W        W36725  21.756   7.840   1.383
68308W        W36726  11.767  27.037  14.933
68309W        W36727  33.518  36.988  12.850
68310W        W36728  10.247  35.476   3.675
68311W        W36729  25.609  20.161  10.604
68312W        W36730  18.657   5.877   4.701
68313W        W36731  25.692  21.116  14.009
68314W        W36732  36.055  36.999   5.233
68315W        W36733   8.398  17.107  13.424
68316W        W36734  21.071  27.122  13.954
68317W        W36735  40.387  17.258  13.386
68318W        W36736   1.413  24.189   3.703
68319W        W36737  11.320  28.645  13.922
68320W        W36738  38.077   3.457  14.438
68321W        W36739  35.569  29.096  13.850
68322W        W36740  39.815  11.136   4.250
68323W        W36741  24.614  11.223  10.500
68324W        W36742  34.382  25.521  13.387
68325W        W36743   7.784  29.626  13.944
68326W        W36744  24.188  10.138  14.865
68327W        W36745  25.184   5.733  14.365
68328W        W36746  29.567   5.268   4.600
68329W        W36747  41.802  43.845  11.931
68330W        W36748  29.081   5.360  13.856
68331W        W36749   5.812  18.097   0.938
68332W        W36750  42.358  44.801  12.547
68333W        W36751   7.859   3.827   3.756
68334W        W36752  36.040  18.150  13.393
68335W        W36753  10.259  40.322   2.875
68336W        W36754  38.980  24.669  11.874
68337W        W36755  23.193  19.163  10.436
68338W        W36756  35.911  19.166   4.266
68339W        W36757  20.746  41.031   2.768
68340W        W36758  17.272  43.821  14.868
68341W        W36759  29.596   8.887  12.452
68342W        W36760  16.117   0.392  12.345
68343W        W36761  22.535  40.467  11.908
68344W        W36762  37.056  25.568   1.773
68345W        W36763  34.570  29.603   3.631
68346W        W36764  30.592  24.521   0.886
68347W        W36765  32.993  18.630   1.897
68348W        W36766  28.159  23.079   4.743
68349W        W36767  13.266   6.779  13.891
68350W        W36768  33.452   9.794   0.297
68351W        W36769  13.137  15.666  12.491
68352W        W36770   0.874  44.467  11.493
68353W        W36771  34.411  27.011   4.823
68354W        W36772  38.514  15.766   0.305
68355W        W36773  30.043  27.062  11.104
68356W        W36774  30.981   8.312   0.882
68357W        W36775   9.365  17.180   3.250
68358W        W36776  44.780  12.291   5.589
68359W        W36777   8.379  28.964   2.712
68360W        W36778  24.542  39.558   3.156
68361W        W36779  15.119  15.579   3.329
68362W        W36780   1.318  24.108  10.627
68363W        W36781  12.122  21.535   1.702
68364W        W36782  37.941  31.410  14.369
68365W        W36783  20.217  27.116  12.832
68366W        W36784  28.566  40.435   4.128
68367W        W36785  10.756  13.795  14.767
68368W        W36786  22.718  30.959  10.415
68369W        W36787  19.163  23.191   0.270
68370W        W36788  11.217  24.547   1.766
68371W        W36789   0.301  17.065   0.829
68372W        W36790  38.010  15.251  13.819
68373W        W36791  27.454  43.475  13.983
68374W        W36792  38.837  13.119   4.751
68375W        W36793   0.319   8.397  13.911
68376W        W36794   4.912  29.530  11.111
68377W        W36795  18.667   6.825  12.003
68378W        W36796  29.630  38.910   3.673
68379W        W36797  26.194   0.354   3.740
68380W        W36798  14.239  26.569   4.326
68381W        W36799  29.602  25.552   2.182
68382W        W36800   9.210  33.383   0.288
68383W        W36801  30.963  43.410  11.126
68384W        W36802  31.540   9.375  10.442
68385W        W36803  11.298  26.587  13.815
68386W        W36804  34.060  22.022  10.509
68387W        W36805  20.041  12.710   1.888
68388W        W36806  16.718  25.136   1.227
68389W        W36807  21.253  16.116  10.553
68390W        W36808  42.926   6.200  14.820
68391W        W36809  37.018  20.563   1.896
68392W        W36810  12.177   0.417  13.431
68393W        W36811  43.942  12.208   2.373
68394W        W36812  23.571  14.282  10.929
68395W        W36813  44.959  23.127  13.025
68396W        W36814   0.433  24.196  10.889
68397W        W36815  28.111  41.798   3.184
68398W        W36816  35.102  12.273  13.064
68399W        W36817  24.645  30.102  11.889
68400W        W36818  32.916  26.978  14.453
68401W        W36819  43.515  30.120  11.523
68402W        W36820  25.620  34.963   4.149
68403W        W36821  35.494  30.567  11.968
68404W        W36822  41.972  25.130   4.204
68405W        W36823  16.743  37.434   2.888
68406W        W36824   6.246  41.937  13.366
68407W        W36825  10.839  29.453  10.545
68408W        W36826  31.607  32.407   2.296
68409W        W36827  23.117  39.004   0.827
68410W        W36828  12.279  43.853   0.312
68411W        W36829   7.726  15.803   1.232
68412W        W36830  32.049  35.005   3.150
68413W        W36831   7.690  43.328   4.355
68414W        W36832  10.152  33.458  13.849
68415W        W36833  31.050  27.112  11.439
68416W        W36834  17.716  28.644   3.206
68417W        W36835  19.663   4.876   1.235
68418W        W36836  18.146  10.139  10.119
68419W        W36837  43.860  24.230   9.507
68420W        W36838  10.379   8.380  10.948
68421W        W36839  27.579  28.515  14.927
68422W        W36840  27.463   6.287  12.471
68423W        W36841  36.031   5.782  12.345
68424W        W36842  39.001  15.173  14.882
68425W        W36843  39.442   3.865  10.428
68426W        W36844  28.573  34.091   1.755
68427W        W36845  33.937  14.639   4.276
68428W        W36846  11.155   0.879   4.804
68429W        W36847  38.866  31.559   2.338
68430W        W36848  30.629  39.337   3.822
68431W        W36849  13.339   1.477   3.296
68432W        W36850  32.987  16.789  11.096
68433W        W36851  26.462  31.897  10.071
68434W        W36852  42.390   6.277  10.489
68435W        W36853  36.517  13.330  10.974
68436W        W36854  43.358  27.590   1.391
68437W        W36855  27.971  10.361   1.234
68438W        W36856   2.237  27.562   4.292
68439W        W36857  27.598  42.320  14.440
68440W        W36858  22.232  34.528  14.825
68441W        W36859  35.524  43.944  12.407
68442W        W36860   0.414  30.918  11.952
68443W        W36861  29.153   8.353  11.381
68444W        W36862  40.405  14.335   5.234
68445W        W36863  14.674  37.362  11.095
68446W        W36864   5.868  21.740   0.919
68447W        W36865  36.079   0.487   1.355
68448W        W36866   9.368  31.530  14.851
68449W        W36867  39.953  16.079  14.442
68450W        W36868  31.484   2.821   4.690
68451W        W36869   9.199  37.076  12.437
68452W        W36870  25.591  22.009  14.296
68453W        W36871  12.753  24.592  13.882
68454W        W36872  28.016  11.155   0.445
68455W        W36873  30.046  21.650  11.109
68456W        W36874  43.441   7.765   3.385
68457W        W36875   1.250  21.117  12.856
68458W        W36876  10.348  14.315  14.429
68459W        W36877  39.984  24.614   3.275
68460W        W36878  42.362  23.682  11.014
68461W        W36879  38.819  25.207  13.339
68462W        W36880  18.718  25.169   4.608
68463W        W36881   5.795  36.581  10.548
68464W        W36882  17.617  21.653  12.349
68465W        W36883  36.453  30.083  12.964
68466W        W36884  32.957  38.924  11.606
68467W        W36885  38.013  18.231   2.708
68468W        W36886  22.054   7.409  13.307
68469W        W36887   7.383  30.624  13.002
68470W        W36888  23.685  40.925   0.819
68471W        W36889  27.961  25.067   4.638
68472W        W36890  34.588  32.566  13.874
68473W        W36891  17.559  28.555  11.044
68474W        W36892  43.881  38.884   3.156
68475W        W36893  39.912  40.897  13.394
68476W        W36894   9.340   6.234   4.227
68477W        W36895   4.400  37.020  12.921
68478W        W36896   8.723   1.282   0.477
68479W        W36897   1.380  12.792   2.887
68480W        W36898  16.297  37.905  10.923
68481W        W36899  31.522   4.319  10.606
68482W        W36900  17.077  29.033  10.025
68483W        W36901  12.307   4.376   1.771
68484W        W36902  34.040  41.519  12.881
68485W        W36903  31.081  37.380   1.935
68486W        W36904  16.807  39.508   4.641
68487W        W36905  31.105  40.501   5.300
68488W        W36906  38.826  42.780  13.401
68489W        W36907  27.017   0.917  14.821
68490W        W36908  20.558  23.148  11.900
68491W        W36909  14.689  28.667   4.763
68492W        W36910  39.017  11.143   1.451
68493W        W36911  18.224   6.834   2.316
68494W        W36912  35.901   3.294  11.018
68495W        W36913  13.194  11.768   4.827
68496W        W36914  18.233   3.777  12.470
68497W        W36915  11.781  34.528   0.408
68498W        W36916  17.117   2.346   1.308
68499W        W36917   2.895   9.270  14.900
68500W        W36918  18.135  32.616  10.634
68501W        W36919  34.547  42.334   0.275
68502W        W36920  24.652   3.298  12.876
68503W        W36921   3.445  15.268  13.848
68504W        W36922  38.923  31.028   4.680
68505W        W36923  15.588  44.795  11.377
68506W        W36924  26.171  26.050  11.079
68507W        W36925   7.756  35.505  11.879
68508W        W36926  23.238   3.448   2.761
68509W        W36927  40.523   5.904  11.497
68510W        W36928   5.301  36.035  12.048
68511W        W36929   5.269  29.631  14.289
68512W        W36930  24.006  36.383   2.711
68513W        W36931  15.163  13.264  14.799
68514W        W36932  12.650  10.385  12.914
68515W        W36933  14.152   7.253   3.719
68516W        W36934  23.020   1.921   0.413
68517W        W36935  11.270  35.860   4.169
68518W        W36936   3.270  10.361  12.040
68519W        W36937  21.590  18.267  11.951
68520W        W36938  11.258   1.951  14.282
68521W        W36939  34.566  14.264   1.917
68522W        W36940  13.844  37.004  11.117
68523W        W36941  37.071  27.156  11.945
68524W        W36942  35.548  31.583  14.393
68525W        W36943  18.741  23.516  13.372
68526W        W36944   6.762  12.224   3.305
68527W        W36945   9.799   8.254   0.737
68528W        W36946   8.376  22.608  11.410
68529W        W36947  28.463   7.374   2.295
68530W        W36948  15.089  38.439   4.726
68531W        W36949  40.013  39.408  10.404
68532W        W36950   9.297   1.379   1.288
68533W        W36951  43.460  36.543   0.785
68534W        W36952  43.416   4.326   1.933
68535W        W36953  34.946  15.154  10.608
68536W        W36954  38.462   4.804   1.322
68537W        W36955   0.406   7.308  11.106
68538W        W36956  38.561  32.629   1.296
68539W        W36957   8.353  36.385   2.708
68540W        W36958  37.077  39.348  10.553
68541W        W36959   7.399  41.004   4.669
68542W        W36960  18.775  16.761   4.113
68543W        W36961   0.471  42.470   1.707
68544W        W36962  13.805   2.859   0.868
68545W        W36963  31.919   6.209   1.858
68546W        W36964  17.682  15.603   0.760
68547W        W36965  30.429   8.864   3.633
68548W        W36966  17.155  14.232  14.293
68549W        W36967  25.524  26.663   4.296
68550W        W36968  40.497  43.006   3.725
68551W        W36969  35.477   9.781   4.288
68552W        W36970  19.102  26.190   3.778
68553W        W36971  32.470  37.529  13.353
68554W        W36972  27.145  43.931   0.432
68555W        W36973  26.566  36.940   1.366
68556W        W36974  40.883  34.598  13.019
68557W        W36975   5.270  38.051  14.283
68558W        W36976  38.470  26.183   3.657
68559W        W36977  14.263  39.460   4.618
68560W        W36978  33.967  13.652   1.699
68561W        W36979   6.275   4.737  13.510
68562W        W36980  20.052  16.185  14.303
68563W        W36981  15.195   3.283  14.444
68564W        W36982  21.570  18.611  14.774
68565W        W36983  11.844  22.200   1.401
68566W        W36984   6.782  31.082   2.328
68567W        W36985   9.855  33.114   4.227
68568W        W36986   7.298   4.429  11.012
68569W        W36987  28.644  38.951  13.405
68570W        W36988  30.121   5.387  13.001
68571W        W36989   4.906   3.939   0.933
68572W        W36990  27.682  16.284  10.443
68573W        W36991  13.707  25.697   0.250
68574W        W36992  28.552  30.459  13.377
68575W        W36993  34.442  11.300  10.948
68576W        W36994  18.157  27.547   0.833
68577W        W36995  17.098  36.574   0.303
68578W        W36996  17.305  16.582  11.006
68579W        W36997  33.023  30.114  13.057
68580W        W36998  23.518  24.531  14.992
68581W        W36999  35.920   4.356  12.948
68582W        W37000  39.464  29.151  13.363
68583W        W37001   9.812  39.343   0.355
68584W        W37002  40.437  22.531  12.903
68585W        W37003  31.948   4.799  10.945
68586W        W37004   6.710  33.397  14.992
68587W        W37005  40.814  40.338   2.704
68588W        W37006  39.510   4.936   4.184
68589W        W37007  12.663   9.207  14.962
68590W        W37008  42.282  41.887  13.391
68591W        W37009   9.865  13.662  14.320
68592W        W37010  35.861  34.384  10.911
68593W        W37011  40.420  18.651   1.275
68594W        W37012  44.935  44.827   3.821
68595W        W37013  31.590  27.961   4.234
68596W        W37014  20.060   6.206   1.441
68597W        W37015  28.021  22.714   4.177
68598W        W37016   0.909  15.748  12.899
68599W        W37017  29.504  35.073  14.408
68600W        W37018  38.365  38.036  13.546
68601W        W37019  12.773  30.961   0.806
68602W        W37020   8.169  32.489  12.083
68603W        W37021  17.082  44.321   1.318
68604W        W37022   0.808  33.100   3.747
68605W        W37023  30.085  10.845  10.531
68606W        W37024   5.892  11.751  12.454
68607W        W37025  30.522  23.034   0.731
68608W        W37026  29.961   6.292  14.812
68609W        W37027  42.484  40.973  10.611
68610W        W37028  35.957  17.683   4.219
68611W        W37029  17.062  44.886   3.643
68612W        W37030  44.860   8.681  13.493
68613W        W37031  13.717   3.303  14.917
68614W        W37032  26.164   4.791   3.232
68615W        W37033  11.291  34.956  10.894
68616W        W37034   3.913  11.345   4.254
68617W        W37035   0.318  13.137   4.237
68618W        W37036  33.615  15.275  12.531
68619W        W37037  31.516   4.851   4.270
68620W        W37038  43.415  42.385   3.206
68621W        W37039  13.245   3.412  14.772
68622W        W37040   1.827  31.064   3.201
68623W        W37041  22.559  10.179   2.294
68624W        W37042  15.210  13.302  12.455
68625W        W37043  37.036  19.773  14.865
68626W        W37044  26.538  38.017   4.249
68627W        W37045  19.264  20.256  11.493
68628W        W37046  41.425  15.162  11.486
68629W        W37047  12.821   6.784   3.798
68630W        W37048  42.352  20.242   0.887
68631W        W37049  17.701  18.678   1.319
68632W        W37050  27.017  18.218  11.386
68633W        W37051  33.999   3.397  12.518
68634W        W37052  43.378  13.265  12.844
68635W        W37053  29.591  20.700  14.334
68636W        W37054  13.681  15.711  13.394
68637W        W37055  16.702  43.511   4.222
68638W        W37056  39.483  44.799  10.579
68639W        W37057   6.380  24.480   2.219
68640W        W37058  15.233  39.380  13.797
68641W        W37059  16.132   7.673   1.331
68642W        W37060  39.483  21.737  14.760
68643W        W37061  19.619  28.063   3.711
68644W        W37062  22.142  16.731   4.687
68645W        W37063  44.941  11.373   5.707
68646W        W37064  40.528   8.726   5.189
68647W        W37065   4.324   5.930  12.087
68648W        W37066   9.849  18.728   0.332
68649W        W37067  29.560   3.922   2.757
68650W        W37068   4.895   8.698  11.948
68651W        W37069   4.358   5.707   1.791
68652W        W37070  42.323  43.473  11.949
68653W        W37071  13.108  21.587  11.856
68654W        W37072  23.736  37.856  12.420
68655W        W37073   6.870  31.567   2.708
68656W        W37074   7.875  35.489   2.874
68657W        W37075   7.678  27.060  10.983
68658W        W37076  19.083  31.953   1.416
68659W        W37077  41.789  29.428   0.804
68660W        W37078  34.485   5.390  13.986
68661W        W37079   9.882  11.260   2.848
68662W        W37080  33.414   6.752  10.124
68663W        W37081  17.140  14.106   2.739
68664W        W37082  15.214   4.701   0.395
68665W        W37083  18.654  27.157   2.259
68666W        W37084   8.894  34.079  14.985
68667W        W37085  17.124   3.268   1.368
68668W        W37086  42.824   3.234  11.497
68669W        W37087  41.975  31.107  13.476
68670W        W37088  20.133  23.167   1.356
68671W        W37089  41.878  32.062   1.752
68672W        W37090   9.300  23.554  14.501
68673W        W37091  26.555  35.430   0.481
68674W        W37092  44.404  16.583  13.957
68675W        W37093  31.604   8.334  13.540
68676W        W37094  10.759  38.339  12.373
68677W        W37095  21.713  41.806   0.383
68678W        W37096  39.894  35.400  11.408
68679W        W37097  28.628  30.014   0.814
68680W        W37098  25.503  14.592   1.223
68681W        W37099   8.393  38.851  10.474
68682W        W37100  27.014  35.472   2.883
68683W        W37101   8.401  30.010  12.920
68684W        W37102   0.381   4.794  11.895
68685W        W37103  21.081  44.006   2.210
68686W        W37104  14.658  21.076   0.894
68687W        W37105   0.889   6.388   0.857
68688W        W37106  21.151  44.799   3.765
68689W        W37107  34.906  11.158   0.863
68690W        W37108  31.618  28.525   2.187
68691W        W37109  21.522   2.843  14.508
68692W        W37110  26.126  43.428  13.338
68693W        W37111  37.423   4.860   1.711
68694W        W37112  17.122  21.052  12.058
68695W        W37113  17.589  37.451  14.963
68696W        W37114   3.927  17.773  14.513
68697W        W37115  10.355  37.871   0.457
68698W        W37116  14.739   1.374  12.960
68699W        W37117  34.025  44.844   1.896
68700W        W37118  22.712  18.662   3.233
68701W        W37119  36.546  43.369   3.849
68702W        W37120  13.666  24.566  13.993
68703W        W37121  12.830  31.459  12.844
68704W        W37122   3.218  27.979  11.036
68705W        W37123   6.747   2.966   0.442
68706W        W37124  27.185   8.403  13.960
68707W        W37125  35.092  44.847  14.505
68708W        W37126  37.843  17.637   3.170
68709W        W37127   0.311  31.067  10.509
68710W        W37128  27.691  41.978   3.327
68711W        W37129   4.310  15.800  14.489
68712W        W37130  33.079  44.422  11.479
68713W        W37131  33.937  28.180  12.885
68714W        W37132  11.737  14.625   4.745
68715W        W37133  24.083  35.034   0.313
68716W        W37134  29.079  42.854  12.989
68717W        W37135  23.987  34.916   1.376
68718W        W37136   1.413  25.484  14.436
68719W        W37137  14.108  16.648   0.442
68720W        W37138   7.875  25.067  10.443
68721W        W37139  24.134  35.548  14.987
68722W        W37140  32.512   1.822  13.984
68723W        W37141   5.766  17.155  11.022
68724W        W37142  31.012  13.672  14.471
68725W        W37143  30.974  24.137  14.941
68726W        W37144  13.638   1.388  11.897
68727W        W37145  10.810   9.653   3.172
68728W        W37146   8.298  11.373  12.572
68729W        W37147  17.566  38.020   4.289
68730W        W37148  10.850   0.276  14.457
68731W        W37149  15.611   0.758  14.813
68732W        W37150  25.980  29.534   1.792
68733W        W37151  19.226  40.809  13.018
68734W        W37152  20.131  22.096  11.008
68735W        W37153   8.878  13.612   3.342
68736W        W37154  33.482   4.415   4.642
68737W        W37155  24.629  14.729   4.354
68738W        W37156  13.233  32.095   3.635
68739W        W37157  23.020  29.586   3.673
68740W        W37158   4.873  32.540   2.218
68741W        W37159  19.737  28.483  13.034
68742W        W37160  19.656   6.213   3.868
68743W        W37161  11.701  25.573   2.877
68744W        W37162  11.247  11.355  11.899
68745W        W37163   6.803  16.623   1.381
68746W        W37164   8.401  27.616   2.749
68747W        W37165   6.234  24.139   3.703
68748W        W37166  43.298  26.165  11.527
68749W        W37167  40.969  24.196   4.342
68750W        W37168   5.892  39.874   1.906
68751W        W37169  37.448  21.116   1.934
68752W        W37170  35.078  16.186   4.115
68753W        W37171  33.559  36.552   0.324
68754W        W37172   4.322  14.752   1.812
68755W        W37173  33.614   5.773  14.822
68756W        W37174   1.890  40.525   4.142
68757W        W37175  44.908  42.925   4.780
68758W        W37176   0.981  44.271   3.698
68759W        W37177  32.108  40.897   2.816
68760W        W37178  26.955  39.026   3.232
68761W        W37179  15.303  33.622   1.824
68762W        W37180  39.036  21.719  12.031
68763W        W37181  10.148   3.369  11.563
68764W        W37182  27.172  40.346   3.192
68765W        W37183  43.772  20.064   2.189
68766W        W37184  35.384   5.228  14.759
68767W        W37185  12.323  34.595   4.793
68768W        W37186  30.433  17.157  13.806
68769W        W37187  17.782  38.376   3.158
68770W        W37188  20.220   7.881  12.411
68771W        W37189   4.733  14.598   0.354
68772W        W37190  16.774  11.660  10.967
68773W        W37191  33.886  14.219  12.943
68774W        W37192  30.951  20.164  13.372
68775W        W37193  20.607  43.807  10.987
68776W        W37194  12.231  27.109  12.983
68777W        W37195  18.636  38.071   0.737
68778W        W37196  32.472  31.585  11.388
68779W        W37197  18.088  13.625  12.351
68780W        W37198  38.825   5.201  14.015
68781W        W37199  23.664  38.872   0.281
68782W        W37200  13.646  28.941  11.426
68783W        W37201  12.621  31.434   1.725
68784W        W37202   1.808   9.676  13.914
68785W        W37203   6.812  15.241   0.779
68786W        W37204   5.241   8.293  10.959
68787W        W37205  13.271   9.191   2.666
68788W        W37206  26.658  25.139  11.868
68789W        W37207  41.788  41.902   5.626
68790W        W37208   9.781  34.506   3.658
68791W        W37209  29.439  29.068   2.272
68792W        W37210   3.819  21.649   3.633
68793W        W37211  40.344   3.866  13.848
68794W        W37212  19.638  28.162   2.320
68795W        W37213  37.522  33.974  13.495
68796W        W37214  40.364  25.580   4.770
68797W        W37215  39.878  26.554  10.591
68798W        W37216  31.476  14.156  12.401
68799W        W37217  15.164  30.552   0.341
68800W        W37218  28.657   7.845  14.917
68801W        W37219  14.658  25.486   4.783
68802W        W37220   3.912  23.501   2.312
68803W        W37221  40.991  10.140   0.338
68804W        W37222  18.578  14.313   2.703
68805W        W37223  31.633  38.505   0.777
68806W        W37224  28.599   2.794  13.422
68807W        W37225   6.393   6.270  13.397
68808W        W37226  43.833   0.424   1.791
68809W        W37227  12.143  37.463   4.808
68810W        W37228  33.950  11.264   3.849
68811W        W37229  32.585   1.382  13.842
68812W        W37230  15.202  18.568  13.326
68813W        W37231  18.277   0.886  12.041
68814W        W37232  22.025   3.819  11.403
68815W        W37233  19.252  36.475  12.447
68816W        W37234  28.583  12.663  13.517
68817W        W37235  39.032  24.622  14.366
68818W        W37236   6.244   7.357   5.266
68819W        W37237  38.855  31.980   5.263
68820W        W37238   7.721   4.884  11.570
68821W        W37239   8.797  19.093   3.856
68822W        W37240  39.981   9.318  12.840
68823W        W37241  36.906  39.851  12.361
68824W        W37242  41.001  37.566   4.749
68825W        W37243   9.201  12.186  11.437
68826W        W37244   9.854   8.205   3.236
68827W        W37245  39.520  27.455  12.507
68828W        W37246  22.039  10.366  11.023
68829W        W37247  28.601  38.064   0.944
68830W        W37248  17.593  41.971  13.450
68831W        W37249  28.116  29.640   3.733
68832W        W37250  20.182  12.139   3.810
68833W        W37251   0.755  29.595  11.565
68834W        W37252  18.682  14.724  10.609
68835W        W37253   3.877  26.494  11.931
68836W        W37254  30.145  38.999  14.011
68837W        W37255  31.099   0.784   4.216
68838W        W37256   9.177  32.623   1.332
68839W        W37257  35.026  28.015  12.932
68840W        W37258  36.956  17.151  11.465
68841W        W37259  10.163  22.165  13.961
68842W        W37260   0.974  35.598   2.372
68843W        W37261  12.755  27.514  14.881
68844W        W37262   3.894   9.835   0.456
68845W        W37263  29.463  27.652   1.694
68846W        W37264  42.847  28.514  10.466
68847W        W37265  44.282  37.365  14.427
68848W        W37266  31.024  10.875  13.822
68849W        W37267  32.075  31.430   0.937
68850W        W37268  15.683  35.001   2.782
68851W        W37269  14.106  36.534  10.631
68852W        W37270  38.858  14.635  14.454
68853W        W37271  10.333  10.814  13.053
68854W        W37272  20.055   5.814  11.989
68855W        W37273  14.266  19.550   3.773
68856W        W37274  15.722  24.514  13.332
68857W        W37275  42.804  35.494  12.422
68858W        W37276  29.561  38.331  10.548
68859W        W37277  22.045  20.162   1.383
68860W        W37278  35.884  29.653   2.768
68861W        W37279  35.064  38.994   3.762
68862W        W37280  23.684  15.282  11.996
68863W        W37281  10.145  12.806  10.513
68864W        W37282  44.355  31.407  10.619
68865W        W37283  33.530   3.805   0.461
68866W        W37284  25.700  29.929   4.128
68867W        W37285  34.539  20.229   2.833
68868W        W37286  36.991   0.804  10.587
68869W        W37287  26.132   5.394  14.482
68870W        W37288  21.594  25.986   9.952
68871W        W37289  44.948  12.313   4.628
68872W        W37290   2.288  17.696   2.760
68873W        W37291  23.008  17.090   3.216
68874W        W37292  10.833  31.521   1.890
68875W        W37293   1.359  36.871   4.734
68876W        W37294  27.020  11.806  10.934
68877W        W37295  19.225   0.796   4.119
68878W        W37296   3.359   9.735  13.318
68879W        W37297  34.372   7.333   0.926
68880W        W37298  40.971  24.024   1.935
68881W        W37299  41.511  27.008   1.757
68882W        W37300  39.857  36.355  12.878
68883W        W37301  15.768   0.934   0.418
68884W        W37302  13.647  31.963  11.378
68885W        W37303  28.439  25.676   0.297
68886W        W37304  40.876  11.245  12.432
68887W        W37305  28.988  37.415  11.992
68888W        W37306  15.636  16.225  10.427
68889W        W37307  12.704  27.041  13.986
68890W        W37308  12.231  26.616  13.799
68891W        W37309  39.888  22.240   0.360
68892W        W37310  29.071  22.193  14.942
68893W        W37311  15.315  11.696  14.940
68894W        W37312   0.330  29.474   1.748
68895W        W37313  17.303   2.762   0.951
68896W        W37314  29.006   1.761   4.634
68897W        W37315  25.208  42.512   3.631
68898W        W37316  32.515  16.198   2.896
68899W        W37317  35.005   5.331  11.959
68900W        W37318  36.567  24.601  11.969
68901W        W37319  24.537  37.941  11.098
68902W        W37320  43.335  42.526   0.773
68903W        W37321  33.490  24.016  14.298
68904W        W37322  22.064  29.429  13.527
68905W        W37323  38.949  16.098  11.030
68906W        W37324  40.999  27.634   3.254
68907W        W37325  14.291   7.779  13.011
68908W        W37326   5.833  43.920   4.328
68909W        W37327  40.891  26.657   2.811
68910W        W37328   0.383  28.062   1.800
68911W        W37329  35.915  37.839   4.740
68912W        W37330  34.935  16.641   3.813
68913W        W37331  22.127  36.960   1.340
68914W        W37332   3.311  18.231  11.435
68915W        W37333  28.964  34.500   2.845
68916W        W37334  37.071  30.082   1.731
68917W        W37335  31.116  28.005  13.947
68918W        W37336  10.317  18.665  12.075
68919W        W37337  23.221  13.185   1.882
68920W        W37338  42.790  23.643   4.283
68921W        W37339  11.218  44.264   3.249
68922W        W37340  27.538  34.522  12.574
68923W        W37341  14.103  31.539   1.828
68924W        W37342  39.530  10.196   3.756
68925W        W37343   4.312  12.311  11.423
68926W        W37344  18.570  42.873   1.377
68927W        W37345  35.994  10.871   4.696
68928W        W37346   2.233   9.659   2.402
68929W        W37347  33.435   5.725  12.354
68930W        W37348  29.559  43.847  14.376
68931W        W37349  36.373  21.222  13.902
68932W        W37350  13.666  23.196  12.554
68933W        W37351  32.902  38.884  10.628
68934W        W37352  19.676  13.332   2.194
68935W        W37353  32.060  14.272  14.805
68936W        W37354  42.960  33.889  14.805
68937W        W37355  43.460  43.793   0.929
68938W        W37356  30.935  12.153  14.006
68939W        W37357  14.117  43.975  11.976
68940W        W37358  31.956  27.509  13.861
68941W        W37359  11.252   6.862   2.222
68942W        W37360  33.998  36.012   2.342
68943W        W37361  30.049   1.894  12.891
68944W        W37362  28.559  20.627  10.632
68945W        W37363  19.727   9.860  11.902
68946W        W37364  21.568  24.064  12.465
68947W        W37365  30.005   9.888   2.841
68948W        W37366  38.378  40.034  10.950
68949W        W37367  44.838  11.226  11.463
68950W        W37368  36.942  35.949  13.474
68951W        W37369  43.439  19.056   1.928
68952W        W37370   0.908  43.477  10.547
68953W        W37371  26.994  21.197  12.420
68954W        W37372   0.983  28.445  11.113
68955W        W37373   9.364  27.559   4.341
68956W        W37374  27.523  42.519  13.469
68957W        W37375  24.516  29.136   1.429
68958W        W37376  41.426  44.362  13.056
68959W        W37377   6.692  10.636   3.356
68960W        W37378  25.105   2.280  13.330
68961W        W37379   1.769  23.063   0.471
68962W        W37380  43.439  25.660  11.516
68963W        W37381  18.145  16.631   0.416
68964W        W37382  40.345  13.313  13.498
68965W        W37383  28.546  37.424   5.147
68966W        W37384  27.036   8.368  12.382
68967W        W37385  25.517  18.593   2.810
68968W        W37386   2.900  14.816   3.866
68969W        W37387  14.214  38.048   2.193
68970W        W37388  23.663  39.921   2.360
68971W        W37389   4.432  16.798   3.206
68972W        W37390  14.274   6.728   4.598
68973W        W37391  26.608  20.050   1.255
68974W        W37392  29.524  25.506  14.462
68975W        W37393  19.683  10.839  12.006
68976W        W37394  16.139  40.974   4.663
68977W        W37395  18.677  31.543   2.885
68978W        W37396  18.111  23.506   4.168
68979W        W37397   8.703  19.552  14.494
68980W        W37398  34.908  32.985  12.459
68981W        W37399  16.672  40.977  11.467
68982W        W37400  36.881   8.397   2.750
68983W        W37401  16.109  12.258   1.239
68984W        W37402  22.155   9.760   0.426
68985W        W37403  19.755  17.604   1.925
68986W        W37404  44.379  33.913  13.381
68987W        W37405   4.867  23.683  14.956
68988W        W37406   5.270   3.350  12.543
68989W        W37407  28.560   0.293   0.805
68990W        W37408  44.776   8.737  12.480
68991W        W37409   6.222  14.760  12.386
68992W        W37410  31.628   1.848  13.529
68993W        W37411  37.504  19.239  11.880
68994W        W37412  14.204  25.522   1.762
68995W        W37413  30.081  42.004  11.094
68996W        W37414  38.351   8.343  11.437
68997W        W37415   4.415   8.807   0.324
68998W        W37416  32.435  11.819   9.931
68999W        W37417   0.452  15.305   1.360
69000W        W37418  34.464   7.730  13.799
69001W        W37419  44.790   7.293   2.830
69002W        W37420   4.804  18.734   3.747
69003W        W37421  43.298  41.819  13.541
69004W        W37422  34.957  28.479  10.945
69005W        W37423   1.480  24.544  10.406
69006W        W37424   4.864   4.881   1.214
69007W        W37425  13.616  34.398  12.366
69008W        W37426  28.108  37.956   0.908
69009W        W37427  35.855   9.377   2.355
69010W        W37428  35.367  25.195   0.951
69011W        W37429  21.091  17.766  14.477
69012W        W37430  11.308  15.699   4.689
69013W        W37431  22.602  24.562   0.454
69014W        W37432  21.228  42.929  13.382
69015W        W37433  43.366   9.771   1.266
69016W        W37434  39.487  21.127   1.268
69017W        W37435   2.343  41.330  11.406
69018W        W37436  27.999  36.018  10.001
69019W        W37437  17.731  26.466  14.815
69020W        W37438  15.315   5.342   1.752
69021W        W37439  41.359  23.200   4.725
69022W        W37440  25.972  19.057  14.488
69023W        W37441   1.458  35.027   1.747
69024W        W37442  38.856  25.476   2.807
69025W        W37443  32.020  31.054   1.856
69026W        W37444  34.501  39.504   1.770
69027W        W37445  11.798  21.263  12.414
69028W        W37446  30.915  42.434  13.880
69029W        W37447   8.873  18.201   3.363
69030W        W37448  10.876  34.916   0.769
69031W        W37449  19.632   8.886   3.718
69032W        W37450  16.186  35.897  14.932
69033W        W37451   8.791   1.786   2.226
69034W        W37452   2.256   9.871  14.790
69035W        W37453  10.181  44.784  12.082
69036W        W37454  20.731  38.388   1.734
69037W        W37455   4.910  35.395  12.093
69038W        W37456  39.982  23.234  13.440
69039W        W37457   2.951  14.319   3.248
69040W        W37458  34.492  44.947  14.320
69041W        W37459  12.138  22.066  12.850
69042W        W37460   2.858  12.301   0.480
69043W        W37461  38.489   2.231  14.774
69044W        W37462   4.738  12.132  14.314
69045W        W37463  12.348   8.742  11.378
69046W        W37464   1.745   0.303  12.524
69047W        W37465  17.125  39.985  11.887
69048W        W37466  40.975  44.290   0.362
69049W        W37467   1.439   5.224   2.413
69050W        W37468  24.154  27.952  12.976
69051W        W37469  34.558  17.656   4.718
69052W        W37470   4.714  29.644  11.988
69053W        W37471  41.523  39.331  11.077
69054W        W37472  16.073  43.484   1.353
69055W        W37473  21.576   2.408  10.549
69056W        W37474   7.685  22.550   3.360
69057W        W37475  16.203  12.142   3.687
69058W        W37476  28.586  36.529  14.505
69059W        W37477  35.934   1.784   4.727
69060W        W37478  20.665  35.920   2.348
69061W        W37479  24.108  39.010  12.420
69062W        W37480   0.353  22.595   3.206
69063W        W37481  38.419  24.005   2.386
69064W        W37482  25.492  34.470  13.467
69065W        W37483  38.933   7.902  14.282
69066W        W37484   8.216  10.144  15.000
69067W        W37485  11.343  10.155   3.274
69068W        W37486  16.210  41.821  13.425
69069W        W37487  11.823  40.496   3.209
69070W        W37488  11.865  22.218  11.008
69071W        W37489  28.679  42.779   0.422
69072W        W37490  43.863  13.628  14.991
69073W        W37491  22.191  11.364  13.985
69074W        W37492  37.511  30.582  14.461
69075W        W37493  32.916  26.018   3.794
69076W        W37494  29.473  18.591  13.429
69077W        W37495  23.168   2.737  12.014
69078W        W37496  29.028   4.771  10.487
69079W        W37497  40.477  16.654  11.586
69080W        W37498   3.291  40.867  11.908
69081W        W37499   0.965   5.270  14.495
69082W        W37500  37.350  23.210  11.515
69083W        W37501   0.382  15.141  11.488
69084W        W37502  41.381  27.099  10.589
69085W        W37503  18.550  15.678  12.854
69086W        W37504  42.416  33.532  13.999
69087W        W37505  12.789   3.814  13.518
69088W        W37506  38.460  31.626   4.185
69089W        W37507  37.951  13.788   0.389
69090W        W37508  41.862  26.578   1.232
69091W        W37509  28.149   7.738  13.418
69092W        W37510  23.219  17.791   1.817
69093W        W37511  26.171   8.676   1.845
69094W        W37512  28.516  24.076  13.486
69095W        W37513   6.210  13.216  14.493
69096W        W37514  41.824  28.034  11.072
69097W        W37515  25.507  27.145   1.326
69098W        W37516  26.574   4.700   3.730
69099W        W37517  39.340  30.632  13.987
69100W        W37518   3.446  26.986   4.351
69101W        W37519   1.793  36.089  12.378
69102W        W37520  11.726  31.133   1.425
69103W        W37521  23.011  44.792  13.430
69104W        W37522  10.254  38.495  10.486
69105W        W37523   8.244  42.816   1.314
69106W        W37524  22.242   3.806   3.346
69107W        W37525  30.082   1.477   4.686
69108W        W37526  43.454   8.725   3.271
69109W        W37527  44.009  35.375  13.499
69110W        W37528  12.770  33.980   1.252
69111W        W37529  31.433  27.107  12.015
69112W        W37530   0.471   8.872   5.176
69113W        W37531  35.039  24.144  14.321
69114W        W37532  24.482   1.356  13.955
69115W        W37533  29.627   5.320  13.314
69116W        W37534   2.912  29.432  11.054
69117W        W37535  34.544   9.248  13.931
69118W        W37536  19.053  37.365   2.392
69119W        W37537   9.848  22.531   3.334
69120W        W37538  31.127  39.356  12.433
69121W        W37539  29.166  43.770   4.805
69122W        W37540  33.087  18.189  13.444
69123W        W37541  18.586  21.691   4.808
69124W        W37542  22.135  39.056  12.905
69125W        W37543  40.998  23.041  12.546
69126W        W37544  21.746  20.064   2.740
69127W        W37545  20.565  18.295  12.970
69128W        W37546  20.085  37.086   4.167
69129W        W37547   0.744  28.173  13.454
69130W        W37548  37.417   9.268   2.295
69131W        W37549   0.309   4.430   4.260
69132W        W37550   9.648  11.805  13.497
69133W        W37551  43.494  40.515   1.751
69134W        W37552  40.992  24.127  14.336
69135W        W37553  27.057  35.391  14.427
69136W        W37554   5.925  29.952   3.868
69137W        W37555   4.385  21.199  13.370
69138W        W37556  41.847   1.376  13.887
69139W        W37557  33.604  38.562   1.318
69140W        W37558  25.608   5.852  10.539
69141W        W37559  36.939   2.722   3.350
69142W        W37560  16.301  17.153  10.635
69143W        W37561  17.077  28.445   4.317
69144W        W37562  10.332  32.075  12.070
69145W        W37563  14.309  38.898  13.515
69146W        W37564  28.050  39.864  14.977
69147W        W37565  24.176  42.310   4.136
69148W        W37566   4.855  13.249  11.404
69149W        W37567  23.601  14.252   2.411
69150W        W37568  20.653   6.866   3.805
69151W        W37569  19.698   2.381   3.241
69152W        W37570  23.553  30.535   2.307
69153W        W37571  32.892  31.496  11.874
69154W        W37572  29.592   6.241   1.718
69155W        W37573   9.676  24.680   1.900
69156W        W37574  31.075  41.948  14.945
69157W        W37575  15.229  21.203   2.721
69158W        W37576  23.639   5.789  14.025
69159W        W37577  32.479  15.733  13.371
69160W        W37578  43.869  42.019   0.925
69161W        W37579   8.389  19.134  14.384
69162W        W37580  42.981  28.040  14.445
69163W        W37581   4.798  31.015  12.406
69164W        W37582  16.579   4.701  13.380
69165W        W37583  34.980  32.098   2.769
69166W        W37584   0.251  29.951  14.436
69167W        W37585   3.845  13.722  10.964
69168W        W37586  19.257  30.917  14.837
69169W        W37587   4.941   7.826  11.416
69170W        W37588  14.808   9.308  12.837
69171W        W37589  24.582  18.719  12.579
69172W        W37590   3.715   5.281   1.911
69173W        W37591  42.869  42.953   4.249
69174W        W37592   3.922  17.286  14.876
69175W        W37593   6.294  43.803   3.255
69176W        W37594  39.339  43.959   3.647
69177W        W37595  32.924  22.696  13.913
69178W        W37596   2.870   3.376   0.469
69179W        W37597   0.968  39.434   4.183
69180W        W37598  27.561  40.435  13.874
69181W        W37599   0.791  28.523   2.800
69182W        W37600  20.644   0.863  14.353
69183W        W37601  28.443  26.157  13.440
69184W        W37602  39.426  42.869  10.631
69185W        W37603  38.386  32.886   3.185
69186W        W37604  39.468  17.645   3.317
69187W        W37605  38.440  41.362  10.630
69188W        W37606  12.693  36.872  13.466
69189W        W37607  37.971  15.286  13.547
69190W        W37608  29.565  41.515   4.733
69191W        W37609   3.399  19.172   0.933
69192W        W37610  19.202  38.982   4.213
69193W        W37611   7.198  20.028   0.292
69194W        W37612  41.803   6.208   4.808
69195W        W37613   1.756  17.724  14.431
69196W        W37614  36.016  29.929   1.385
69197W        W37615  11.226  34.584   4.301
69198W        W37616  26.581  29.546  14.857
69199W        W37617  42.372  25.616  12.030
69200W        W37618  26.691  15.224   9.955
69201W        W37619  32.918  40.960   0.961
69202W        W37620  44.949  26.167   0.420
69203W        W37621  28.609  41.499  11.428
69204W        W37622  18.678   7.871  12.914
69205W        W37623  19.549  43.907  12.863
69206W        W37624  43.297  29.940   1.401
69207W        W37625  28.470   5.735   5.640
69208W        W37626   2.953   1.778   1.902
69209W        W37627   4.904  13.660   0.870
69210W        W37628  33.432   6.771   2.280
69211W        W37629  19.748  32.005   0.346
69212W        W37630  30.412   7.277   1.891
69213W        W37631  18.094  36.097  10.912
69214W        W37632  23.666  31.455  13.543
69215W        W37633  19.645  25.992   5.185
69216W        W37634  10.797  34.391  13.533
69217W        W37635  37.908  32.081  12.004
69218W        W37636  42.876  43.894   0.470
69219W        W37637  40.886  11.342  10.627
69220W        W37638  11.693   9.167   2.403
69221W        W37639   4.745  40.860  11.985
69222W        W37640   9.237  30.993  13.024
69223W        W37641  33.598   7.782  10.515
69224W        W37642  35.599  38.883   4.338
69225W        W37643  42.785   6.280  14.347
69226W        W37644   8.270  39.889   2.412
69227W        W37645  20.229  31.543   0.448
69228W        W37646  44.772  42.295   4.672
69229W        W37647  20.211  30.049  14.891
69230W        W37648   5.742   9.792  12.454
69231W        W37649   5.736  20.062   4.782
69232W        W37650  31.916  37.889  12.063
69233W        W37651  12.648  21.727   1.267
69234W        W37652  40.443  44.453  10.408
69235W        W37653  13.341  40.841   1.713
69236W        W37654   4.310  29.010   3.199
69237W        W37655  30.073  26.572   4.812
69238W        W37656   4.905   7.869  12.456
69239W        W37657  14.709  27.143  13.346
69240W        W37658  17.759  21.130   1.870
69241W        W37659  28.169  12.283  12.500
69242W        W37660   2.881  15.738   2.407
69243W        W37661  26.521  21.194  13.923
69244W        W37662  14.295   9.202  10.575
69245W        W37663  43.942  38.420  13.869
69246W        W37664  26.073   9.301   2.841
69247W        W37665  10.817  33.936  14.793
69248W        W37666   5.252  40.839  11.538
69249W        W37667  21.132  33.999  11.900
69250W        W37668   5.712   2.318  10.524
69251W        W37669  22.013  41.456   1.883
69252W        W37670   5.897  25.474  12.473
69253W        W37671  15.306  30.588  14.882
69254W        W37672  44.915  27.072  13.017
69255W        W37673  10.171  39.976   3.714
69256W        W37674  26.082  17.701   2.407
69257W        W37675  19.668  31.023  13.472
69258W        W37676  14.223  19.657  10.628
69259W        W37677   0.924  34.084  14.844
69260W        W37678  32.424   4.249  10.962
69261W        W37679   5.387  27.660  12.001
69262W        W37680   3.396  12.284   4.761
69263W        W37681  33.381  13.153  13.835
69264W        W37682  28.930  39.915   4.160
69265W        W37683   5.866  41.961   0.319
69266W        W37684  33.444   5.888  11.405
69267W        W37685   0.281   1.300   2.183
69268W        W37686  18.052  43.426   0.446
69269W        W37687  13.655  37.954   2.255
69270W        W37688   8.188  19.214   0.423
69271W        W37689   3.312  23.574  10.071
69272W        W37690  39.000  18.113   3.221
69273W        W37691   8.758  33.449  14.018
69274W        W37692  12.856  26.166   2.322
69275W        W37693  14.219  29.079   2.771
69276W        W37694   2.821  41.524   2.702
69277W        W37695   3.448  30.432   2.350
69278W        W37696   9.312  29.556  14.382
69279W        W37697  10.723   1.266  14.768
69280W        W37698   9.210  31.034  11.934
69281W        W37699   6.885  37.865  13.908
69282W        W37700  32.959  11.682   3.631
69283W        W37701  17.679  30.039   2.674
69284W        W37702  16.114   5.833   4.661
69285W        W37703   0.749  25.485   2.301
69286W        W37704  22.700  33.508  14.356
69287W        W37705   6.775  41.428   4.161
69288W        W37706  43.307  15.794  14.354
69289W        W37707  10.794  39.832  13.437
69290W        W37708  22.747  39.333   1.397
69291W        W37709  19.065  25.056   3.729
69292W        W37710   6.754  29.579  11.972
69293W        W37711  14.591  43.832   0.359
69294W        W37712  35.379  35.014  11.451
69295W        W37713  40.547   8.271  10.487
69296W        W37714  20.667  26.603   3.668
69297W        W37715   8.712  26.031   3.670
69298W        W37716  44.464  42.831  10.959
69299W        W37717  44.765  31.981  11.012
69300W        W37718  26.696   8.745  11.102
69301W        W37719  26.700   3.749   4.653
69302W        W37720  38.940   6.370   5.173
69303W        W37721  31.591  42.830  13.413
69304W        W37722  30.566   4.251  14.017
69305W        W37723  33.944  36.995  14.927
69306W        W37724  11.657  26.084   0.291
69307W        W37725   4.809  16.743  13.914
69308W        W37726   3.369  10.700   2.750
69309W        W37727   4.219  41.923  12.560
69310W        W37728  23.655   4.851   1.786
69311W        W37729  44.946   8.282  12.465
69312W        W37730  15.735   5.346   3.857
69313W        W37731   6.285  18.146   3.652
69314W        W37732  42.381  44.267   3.740
69315W        W37733  33.551  25.615   0.464
69316W        W37734   6.864  21.556   1.386
69317W        W37735  25.036  20.199  10.892
69318W        W37736  15.242  14.774   2.869
69319W        W37737   7.686  21.020  12.437
69320W        W37738  19.195  36.852  12.533
69321W        W37739  15.215  14.695   1.905
69322W        W37740  17.274  14.660   2.203
69323W        W37741  36.871   1.264  14.986
69324W        W37742  39.809   8.386   1.234
69325W        W37743  44.308   6.388   0.263
69326W        W37744  39.323  29.664   0.443
69327W        W37745  36.873  43.498  13.052
69328W        W37746  12.710  31.644  12.537
69329W        W37747  29.011  12.686   1.450
69330W        W37748  37.369   4.798   0.898
69331W        W37749  33.016  31.130   0.264
69332W        W37750  39.500  20.645   4.754
69333W        W37751  40.434   4.286   3.373
69334W        W37752  28.068   2.386  12.437
69335W        W37753  17.240  36.857  13.959
69336W        W37754  35.953  24.214   2.755
69337W        W37755  11.210  11.259  14.959
69338W        W37756  11.345   4.865  10.957
69339W        W37757  16.081  12.266  11.864
69340W        W37758  40.523  35.086   0.875
69341W        W37759   5.731  24.976   0.314
69342W        W37760   0.251   1.739   2.765
69343W        W37761   1.425   9.767   1.752
69344W        W37762  16.082  24.152   2.806
69345W        W37763  21.063  23.677  12.374
69346W        W37764   8.390  34.397   4.140
69347W        W37765  23.072  18.746   2.386
69348W        W37766  24.043  41.996  11.007
69349W        W37767  44.805  20.617  11.507
69350W        W37768  29.514  23.566  11.056
69351W        W37769  43.993   0.392  13.520
69352W        W37770  19.724   4.920   3.226
69353W        W37771  25.706   2.324  13.436
69354W        W37772  30.576  32.558   1.881
69355W        W37773  18.266   4.358   2.729
69356W        W37774  26.064   9.657   0.786
69357W        W37775  41.522   2.751  10.549
69358W        W37776  40.309  20.626   4.756
69359W        W37777  15.785   1.277   1.738
69360W        W37778  13.806  23.210   2.708
69361W        W37779  14.264  24.222   3.715
69362W        W37780  28.623  27.577   4.289
69363W        W37781   8.786  24.627   1.911
69364W        W37782   2.411   7.304   2.861
69365W        W37783  25.685  29.132   0.748
69366W        W37784  12.253  38.039  12.985
69367W        W37785  40.900  11.715   0.958
69368W        W37786   7.330  14.755  14.307
69369W        W37787  13.271  14.814   3.209
69370W        W37788  10.359  22.244  12.414
69371W        W37789  42.793  33.083   0.850
69372W        W37790   5.712  37.071  11.379
69373W        W37791  20.747   2.264   4.760
69374W        W37792  16.221  42.883   2.878
69375W        W37793  28.603   3.891  14.496
69376W        W37794  36.430  23.678   2.181
69377W        W37795  35.988  31.544   4.179
69378W        W37796  26.695  30.159  12.447
69379W        W37797   5.754  18.252  11.493
69380W        W37798  20.270  38.477   4.654
69381W        W37799  39.917  39.876   3.362
69382W        W37800   9.380  32.546  11.030
69383W        W37801  27.553  27.039  11.445
69384W        W37802  32.075  40.393  12.477
69385W        W37803  21.062  18.547   1.344
69386W        W37804  33.401  28.623   0.387
69387W        W37805  27.526  42.989   1.776
69388W        W37806  31.474  34.958   1.446
69389W        W37807   1.837  36.454  12.578
69390W        W37808  14.104  28.456   1.703
69391W        W37809  12.813  16.612  14.868
69392W        W37810  22.707  16.293  11.051
69393W        W37811   9.285  20.211   0.867
69394W        W37812   5.251   4.919   3.768
69395W        W37813  29.172  39.390   0.871
69396W        W37814   1.944  21.693  13.407
69397W        W37815  28.607   7.903  12.918
69398W        W37816  33.393   6.294  10.015
69399W        W37817  18.737  40.015   9.939
69400W        W37818   5.315   8.692   0.364
69401W        W37819   0.823  18.545   4.297
69402W        W37820  28.167  14.146  13.907
69403W        W37821   1.247   9.272  14.971
69404W        W37822  20.202  17.104   0.265
69405W        W37823  16.152  11.678  11.567
69406W        W37824  23.140  42.818   1.275
69407W        W37825  32.900  41.916   3.716
69408W        W37826  15.597  15.587  11.048
69409W        W37827  18.238  38.538   0.793
69410W        W37828  11.766  33.415  11.455
69411W        W37829  27.022  20.088   3.850
69412W        W37830  43.496  11.735   5.768
69413W        W37831  22.718  44.999  10.921
69414W        W37832   3.727  31.090   0.415
69415W        W37833  19.185  38.529   2.882
69416W        W37834  13.722  25.520   4.152
69417W        W37835  35.855  21.112  14.947
69418W        W37836  33.454  35.922   1.400
69419W        W37837   8.383  37.577  14.802
69420W        W37838  27.503  43.002   3.644
69421W        W37839  21.718   0.934   0.948
69422W        W37840  35.907  44.359   1.386
69423W        W37841  15.110  15.775  10.982
69424W        W37842  25.102   8.888  14.361
69425W        W37843   5.882  31.945   0.751
69426W        W37844  26.554  10.359  13.937
69427W        W37845   0.770   3.847   4.687
69428W        W37846  43.344  26.020   2.326
69429W        W37847  43.429  31.915  11.474
69430W        W37848   1.882  42.992  13.932
69431W        W37849   1.306  31.969  11.979
69432W        W37850  27.552  19.770  14.999
69433W        W37851   4.752  13.318   1.741
69434W        W37852  23.650   4.830   3.740
69435W        W37853  41.325  39.046  10.011
69436W        W37854   7.888  35.575  11.435
69437W        W37855  19.137  21.710   0.304
69438W        W37856  23.166  32.995  14.878
69439W        W37857  44.338   5.232  10.449
69440W        W37858  24.996  27.010  13.922
69441W        W37859   8.830  35.409  10.526
69442W        W37860  35.558  24.080  12.397
69443W        W37861   0.765  42.840   9.954
69444W        W37862  33.916  17.708  13.386
69445W        W37863  22.590  28.488  13.800
69446W        W37864  34.591   5.345   4.305
69447W        W37865   5.381  12.667  12.576
69448W        W37866  42.327   5.821  11.378
69449W        W37867  29.957  34.573  12.860
69450W        W37868  13.659   4.817   0.276
69451W        W37869  13.844  27.510  14.353
69452W        W37870   4.293  32.392   3.783
69453W        W37871  28.595   3.371  12.577
69454W        W37872   4.315   0.350  13.485
69455W        W37873   3.712  22.047  10.642
69456W        W37874  12.141  10.220   1.812
69457W        W37875   5.814  32.480   3.869
69458W        W37876   4.339   5.728   2.265
69459W        W37877  35.585  41.887  12.987
69460W        W37878  30.035  16.609  10.592
69461W        W37879  33.458  32.496  10.928
69462W        W37880  41.453  39.315  13.442
69463W        W37881  37.340  41.855  14.011
69464W        W37882  36.393  42.338  14.398
69465W        W37883  25.154  27.121   1.380
69466W        W37884  34.943  14.118   2.259
69467W        W37885  34.559  10.802  10.902
69468W        W37886   9.284  16.103   2.331
69469W        W37887  26.980   9.306  10.606
69470W        W37888  36.042  18.647  13.828
69471W        W37889  37.950   2.409   1.789
69472W        W37890  28.092  29.438   4.748
69473W        W37891   3.434  31.125   3.383
69474W        W37892  31.514  25.697  12.533
69475W        W37893  20.154  17.771   1.735
69476W        W37894  13.687  36.883   3.311
69477W        W37895  12.334  19.284  10.549
69478W        W37896  15.808   5.388  13.489
69479W        W37897  16.204  15.610  12.369
69480W        W37898  16.225  31.559  10.984
69481W        W37899  19.266   2.840  13.370
69482W        W37900  23.632  25.499  11.907
69483W        W37901   5.806  23.112  14.344
69484W        W37902  18.711  26.145  14.493
69485W        W37903  37.976  32.521  14.005
69486W        W37904   6.843   1.926   4.759
69487W        W37905  35.021  17.658   4.790
69488W        W37906   2.313  23.595  11.999
69489W        W37907  19.652   6.738  12.535
69490W        W37908  19.136  28.930  13.539
69491W        W37909  17.607  33.992  14.804
69492W        W37910   7.342  43.484  12.917
69493W        W37911  38.477  34.498   2.772
69494W        W37912  33.574  39.818  13.325
69495W        W37913  35.929  26.503  14.440
69496W        W37914  40.928  32.548  12.982
69497W        W37915  35.867  12.361  11.414
69498W        W37916  43.962   8.684  11.054
69499W        W37917  28.141  24.723  11.900
69500W        W37918  38.457  17.621   1.434
69501W        W37919  14.818  24.189  13.512
69502W        W37920  35.465  20.665   1.738
69503W        W37921  39.860  42.284   1.412
69504W        W37922  35.991   9.851  12.522
69505W        W37923   0.938  27.961  11.412
69506W        W37924  10.335  10.716  10.941
69507W        W37925  31.451  18.754   0.382
69508W        W37926  44.784  44.814  11.888
69509W        W37927  14.130   6.869  13.350
69510W        W37928  38.333   2.316   0.260
69511W        W37929  10.318   4.789   4.736
69512W        W37930  11.851  14.707  14.029
69513W        W37931  29.008  24.040   2.750
69514W        W37932  28.531  31.619  12.375
69515W        W37933  31.446   1.434  13.058
69516W        W37934  18.219  44.306  14.510
69517W        W37935   9.749  33.925  11.580
69518W        W37936  23.172  35.389   3.334
69519W        W37937  22.728  15.254  14.410
69520W        W37938  38.375  24.530   2.317
69521W        W37939  19.171   8.812  10.918
69522W        W37940  43.920  34.081   4.656
69523W        W37941  22.548  30.952   0.961
69524W        W37942   1.953  31.452  14.770
69525W        W37943  43.513  26.129  13.317
69526W        W37944  32.904  39.530   0.335
69527W        W37945  23.577  41.820   4.224
69528W        W37946  36.918  23.202  10.436
69529W        W37947   1.240  13.720   3.785
69530W        W37948  11.267  39.981  12.935
69531W        W37949  29.966  20.240  14.480
69532W        W37950  19.705  10.176  14.403
69533W        W37951  24.030  33.056  13.428
69534W        W37952  32.423  38.427   1.841
69535W        W37953   3.312   4.848   1.327
69536W        W37954   1.317  28.971   3.699
69537W        W37955  24.159  22.094  11.482
69538W        W37956  28.999   5.364  10.892
69539W        W37957  33.409  23.691   3.740
69540W        W37958  40.386  22.143  12.479
69541W        W37959  41.017  31.062   4.627
69542W        W37960  17.673  37.456  12.381
69543W        W37961   3.903   4.941  11.872
69544W        W37962  16.710  25.486   0.334
69545W        W37963  13.754  13.146   4.343
69546W        W37964  14.313  24.085  12.468
69547W        W37965  15.711   8.200  14.351
69548W        W37966  36.555  20.258   3.791
69549W        W37967  29.548   7.732   3.297
69550W        W37968  21.051  34.563  12.965
69551W        W37969  43.312   3.376   0.787
69552W        W37970  28.487  13.341  12.844
69553W        W37971  14.219  18.610   4.710
69554W        W37972  28.104  40.546   0.381
69555W        W37973  37.536  26.524  13.909
69556W        W37974  40.401  10.236   1.701
69557W        W37975  18.637  15.143   2.373
69558W        W37976   3.390  39.849  14.305
69559W        W37977   5.709  36.939   2.745
69560W        W37978  44.299  38.346   0.285
69561W        W37979  25.689  30.607   3.776
69562W        W37980  34.559  40.854  11.573
69563W        W37981  42.916  20.653  14.780
69564W        W37982  21.679  25.693   0.818
69565W        W37983  40.888  16.592  11.408
69566W        W37984  44.965  39.866  10.505
69567W        W37985  11.833   7.368  10.004
69568W        W37986  13.247   2.746   3.686
69569W        W37987  33.463   2.871   2.373
69570W        W37988  29.540  27.680  14.964
69571W        W37989  21.600  12.775  11.414
69572W        W37990  43.928  41.020  10.142
69573W        W37991  33.955   1.837  14.504
69574W        W37992  44.869  43.833   0.316
69575W        W37993  11.253  20.176   2.810
69576W        W37994  24.140  43.293  10.492
69577W        W37995   1.366  34.575  12.902
69578W        W37996  23.682  35.590   0.388
69579W        W37997   5.363  39.476  11.433
69580W        W37998  43.515  12.847  12.021
69581W        W37999   4.919  11.189   1.241
69582W        W38000  24.100  22.243   2.205
69583W        W38001  13.710  40.487   3.713
69584W        W38002  20.653  26.700   0.361
69585W        W38003  21.155  43.849  11.534
69586W        W38004   1.294  19.218   1.704
69587W        W38005  28.000  43.995   4.662
69588W        W38006   7.828  15.161  10.616
69589W        W38007   3.310  10.329   1.922
69590W        W38008  15.210   3.393  14.936
69591W        W38009  30.005  35.542   2.404
69592W        W38010  25.632  44.490   1.873
69593W        W38011  23.694   9.371   4.305
69594W        W38012  23.212  44.441  11.430
69595W        W38013   6.795  44.443  12.854
69596W        W38014  42.305   7.197   2.744
69597W        W38015  25.009  28.487  10.403
69598W        W38016   0.823  34.952  13.468
69599W        W38017  28.024   9.784  12.535
69600W        W38018  21.733  24.012   2.297
69601W        W38019  12.341  39.883  12.531
69602W        W38020  25.539  25.112   0.796
69603W        W38021  40.474  14.178  10.975
69604W        W38022  34.000  35.900  14.473
69605W        W38023  20.729  21.560   0.341
69606W        W38024  11.717   1.391  13.477
69607W        W38025  27.501  37.424  13.849
69608W        W38026  25.012  18.688   4.121
69609W        W38027  38.955  36.486  12.024
69610W        W38028  32.021  24.085  14.453
69611W        W38029  30.934  30.496  13.015
69612W        W38030  40.511   1.917   1.849
69613W        W38031  11.230  33.498  10.624
69614W        W38032  44.824   3.920  13.393
69615W        W38033  11.813  27.139   4.343
69616W        W38034   9.340  25.972  12.014
69617W        W38035   8.801  19.773   1.419
69618W        W38036   2.736  42.008   2.275
69619W        W38037  22.559  25.053   1.309
69620W        W38038  40.422   1.465   4.143
69621W        W38039  21.191  41.331  13.478
69622W        W38040  33.998  33.504   4.196
69623W        W38041  28.516  25.994  10.920
69624W        W38042  29.001  43.295   4.732
69625W        W38043  38.939  17.287   3.773
69626W        W38044   9.294   3.748  11.998
69627W        W38045  35.600  44.329   1.354
69628W        W38046  27.530  10.759  10.616
69629W        W38047  14.812   3.410   5.214
69630W        W38048  25.589  35.992  10.042
69631W        W38049   3.882  13.328  12.497
69632W        W38050   5.924  13.639   3.184
69633W        W38051  17.308  31.064  14.892
69634W        W38052  30.019  28.667  11.603
69635W        W38053  25.512   7.842   4.812
69636W        W38054  38.431  23.133  11.967
69637W        W38055  25.999  26.058  14.332
69638W        W38056  39.911  35.496  10.984
69639W        W38057  39.364   6.315  11.097
69640W        W38058  31.032  12.617  12.849
69641W        W38059  38.940  42.383  14.009
69642W        W38060  27.981  12.770  10.632
69643W        W38061  17.101  35.874   4.627
69644W        W38062  44.982  32.613  12.869
69645W        W38063   5.267   9.783  13.319
69646W        W38064  35.454  26.667  14.347
69647W        W38065   6.312  39.527   1.325
69648W        W38066  40.320  12.350   1.742
69649W        W38067   0.388   4.324  10.439
69650W        W38068  40.524  21.138   2.237
69651W        W38069  30.426  31.111  13.045
69652W        W38070  17.678  24.005   4.770
69653W        W38071  32.620  25.112   1.407
69654W        W38072  33.930  23.151  12.863
69655W        W38073  19.176  10.633  12.580
69656W        W38074  19.041  25.215  10.484
69657W        W38075  12.293  16.240  14.308
69658W        W38076  11.832  41.967  12.483
69659W        W38077  25.476  32.109   2.238
69660W        W38078  22.683  39.903   0.750
69661W        W38079  22.706  38.034   0.351
69662W        W38080  20.156   2.420  10.455
69663W        W38081  23.185  21.553   0.836
69664W        W38082  19.615  19.096   0.771
69665W        W38083   1.887  15.683  10.439
69666W        W38084  36.867  44.841  13.885
69667W        W38085  28.991  42.850   1.867
69668W        W38086   5.384  36.348   3.850
69669W        W38087  10.317  32.525   0.942
69670W        W38088  18.568   9.341  11.107
69671W        W38089  13.215  36.485  12.009
69672W        W38090  18.144  28.551  14.475
69673W        W38091   4.736  17.147  12.460
69674W        W38092   6.677  10.673   4.154
69675W        W38093  16.584  25.564  11.421
69676W        W38094  43.452  31.024  14.465
69677W        W38095  16.226  23.720   3.715
69678W        W38096   2.352  36.988   0.414
69679W        W38097   6.685  40.485   0.431
69680W        W38098  44.837  24.690   1.336
69681W        W38099  17.711  28.112   1.711
69682W        W38100   4.741  28.614  12.052
69683W        W38101   7.271  15.102   3.685
69684W        W38102   4.733   2.907   0.869
69685W        W38103   1.952  25.979   1.904
69686W        W38104   5.753   7.811   3.861
69687W        W38105  23.642  44.924   4.275
69688W        W38106   6.420   4.913   5.093
69689W        W38107  39.037  25.982   1.768
69690W        W38108  10.153  37.377   3.707
69691W        W38109  33.893  29.587  13.923
69692W        W38110  34.471  27.030   1.213
69693W        W38111  42.794  22.210  14.917
69694W        W38112  14.779  24.581  12.070
69695W        W38113  16.719  44.492  12.031
69696W        W38114  13.348  26.077   2.741
69697W        W38115  39.976  32.131   2.667
69698W        W38116  12.158  11.277  12.469
69699W        W38117   2.884  20.147   5.247
69700W        W38118   1.838  12.633  10.599
69701W        W38119  30.088  30.960  14.416
69702W        W38120  22.071  29.054  10.904
69703W        W38121  23.056  29.533  10.944
69704W        W38122  20.181  25.483   0.883
69705W        W38123  26.597  19.564  11.379
69706W        W38124   7.283  31.499  14.333
69707W        W38125  31.489  44.820  12.054
69708W        W38126   3.861  32.561   2.376
69709W        W38127   9.800  12.247  13.462
69710W        W38128  23.228  19.176   3.383
69711W        W38129  30.983  28.137  10.133
69712W        W38130  11.305  26.144   2.709
69713W        W38131  38.070  10.259  14.032
69714W        W38132  16.810  21.090  10.500
69715W        W38133  29.561   6.196   0.774
69716W        W38134  33.525  31.980   3.350
69717W        W38135  24.658  30.126  11.475
69718W        W38136  41.807  38.535   2.313
69719W        W38137   3.801  32.909  14.369
69720W        W38138  33.512  18.192  10.622
69721W        W38139  29.983  15.161  14.397
69722W        W38140  24.141   9.880  11.978
69723W        W38141  39.849  30.510   4.708
69724W        W38142   5.386  42.291  10.478
69725W        W38143  12.819   9.679   0.858
69726W        W38144  17.280  23.004  13.504
69727W        W38145   9.752   0.834   0.371
69728W        W38146  21.161   1.303   2.867
69729W        W38147  39.552  29.110  14.933
69730W        W38148  22.624  39.502  13.368
69731W        W38149  19.042   6.292  13.898
69732W        W38150  33.404  42.850  11.452
69733W        W38151  26.663  25.108   1.303
69734W        W38152  40.353  25.644   0.964
69735W        W38153  12.770  14.194  10.977
69736W        W38154  20.566   4.397  13.023
69737W        W38155   5.321   5.358  14.993
69738W        W38156   8.274   2.927   3.808
69739W        W38157  40.312  35.904   3.707
69740W        W38158  39.539  14.182  14.412
69741W        W38159  36.917  29.443  11.503
69742W        W38160   2.255  41.907   4.805
69743W        W38161  24.185  22.745   4.289
69744W        W38162  11.362   7.863  11.584
69745W        W38163   3.436  11.241  13.983
69746W        W38164  10.824  43.949  14.819
69747W        W38165  19.579   4.748  12.358
69748W        W38166  22.008  35.908   1.772
69749W        W38167  39.402  11.301   0.269
69750W        W38168  10.868  10.832   2.679
69751W        W38169  39.924  16.230  14.762
69752W        W38170  36.383  17.260  12.871
69753W        W38171  30.414  21.224  13.062
69754W        W38172  36.899   2.252  14.855
69755W        W38173   3.222   6.719   3.255
69756W        W38174  42.879   5.235   2.184
69757W        W38175  33.522  36.501  10.998
69758W        W38176  41.970  12.818   0.305
69759W        W38177  43.499  23.996   5.803
69760W        W38178   8.271  19.053   3.683
69761W        W38179  32.972  21.049   4.142
69762W        W38180   3.829  35.361   2.664
69763W        W38181  30.961  11.224  14.911
69764W        W38182  42.491  36.938   3.256
69765W        W38183  16.078  27.010   1.212
69766W        W38184  21.730  21.628  11.512
69767W        W38185  25.137  43.414   0.953
69768W        W38186  42.019  21.632  11.068
69769W        W38187   1.923  28.969  11.464
69770W        W38188  14.242   6.771  13.950
69771W        W38189  30.915  38.075  10.950
69772W        W38190  23.032  35.920   2.710
69773W        W38191  27.013  17.628   4.649
69774W        W38192  15.120   5.256   3.853
69775W        W38193   8.828  38.375  11.539
69776W        W38194  28.144  17.148   4.616
69777W        W38195   0.913  43.831  13.315
69778W        W38196  42.468  12.280  14.459
69779W        W38197   1.322  10.878  12.850
69780W        W38198  18.594  36.000  11.413
69781W        W38199  38.939  19.630  12.066
69782W        W38200   6.302   2.734  12.825
69783W        W38201  29.624  34.051   4.758
69784W        W38202   4.756  23.114  13.425
69785W        W38203  14.800  10.138  13.954
69786W        W38204  34.008  34.402   4.160
69787W        W38205   5.353   0.792  10.905
69788W        W38206   6.686  25.216   2.847
69789W        W38207  22.570  19.239  10.518
69790W        W38208   0.758  14.243   0.268
69791W        W38209  13.636   7.827   1.423
69792W        W38210  21.113   9.645   4.620
69793W        W38211  16.272   8.813  11.099
69794W        W38212  19.596  41.820   3.702
69795W        W38213  17.743  25.629  10.510
69796W        W38214  32.908  44.904  12.027
69797W        W38215  27.181  40.881   3.259
69798W        W38216  10.334  25.969  11.566
69799W        W38217  21.513  29.619  10.488
69800W        W38218  11.847  22.544   2.377
69801W        W38219   5.196   1.834   1.259
69802W        W38220   5.321  36.422  10.565
69803W        W38221   7.304  41.005  12.418
69804W        W38222  19.728  17.587  12.417
69805W        W38223  12.212   3.236   0.733
69806W        W38224  11.657  28.941   4.616
69807W        W38225  37.009  16.181  11.124
69808W        W38226   1.845  33.948   1.697
69809W        W38227  24.169  20.257   2.313
69810W        W38228  41.292  16.119  11.472
69811W        W38229  38.483  42.522  11.537
69812W        W38230   8.857   8.859  10.962
69813W        W38231   1.841  21.673  14.310
69814W        W38232  43.470  36.945   0.305
69815W        W38233  13.786   2.874  12.394
69816W        W38234   8.397   7.894  12.902
69817W        W38235  10.189  12.119  10.981
69818W        W38236  42.795  20.606  10.920
69819W        W38237  15.264  24.683   1.221
69820W        W38238  36.482   7.215  12.522
69821W        W38239  22.531  21.222  14.875
69822W        W38240   0.983  28.095   3.162
69823W        W38241  21.127  32.406  13.523
69824W        W38242   0.450  28.463  10.444
69825W        W38243  28.162  10.191  11.862
69826W        W38244  44.006  39.055   4.835
69827W        W38245   4.718  31.634   4.611
69828W        W38246  36.059  25.156  12.960
69829W        W38247   3.361  20.082   4.271
69830W        W38248   1.775  37.431  13.324
69831W        W38249  35.954  44.940  12.092
69832W        W38250   6.898   2.342  14.879
69833W        W38251   1.246  27.109   4.612
69834W        W38252  23.213  39.891  13.948
69835W        W38253  30.067  42.958   1.874
69836W        W38254  42.892  43.957   3.286
69837W        W38255  13.736   8.301  14.470
69838W        W38256  26.564  10.669   3.777
69839W        W38257   4.706  40.001   9.945
69840W        W38258  30.651  15.318  13.500
69841W        W38259  21.606  32.988  12.064
69842W        W38260  10.317  31.994   1.387
69843W        W38261  33.394  25.160  11.059
69844W        W38262   8.181  36.885   3.159
69845W        W38263  26.486  16.724  10.113
69846W        W38264   1.882   7.282  13.313
69847W        W38265  16.110  20.104   3.856
69848W        W38266  24.213  27.631  11.886
69849W        W38267  26.689  21.569  13.349
69850W        W38268  17.575  23.497  10.483
69851W        W38269  37.580  22.216   4.263
69852W        W38270  44.896  34.468  10.437
69853W        W38271  21.214  24.622  14.014
69854W        W38272  12.802   6.712  11.001
69855W        W38273  44.354  20.633  14.864
69856W        W38274  38.525  23.204  14.401
69857W        W38275  36.965  44.452   4.221
69858W        W38276   0.969  25.694   3.869
69859W        W38277  11.793  36.427  14.384
69860W        W38278  21.571  24.630  11.897
69861W        W38279  14.213  29.596  12.017
69862W        W38280  29.944  14.171  11.078
69863W        W38281  37.443  21.193  10.456
69864W        W38282  16.221  44.381  11.127
69865W        W38283  24.070  17.099   4.645
69866W        W38284  30.919   6.296  14.875
69867W        W38285  11.338  11.785   1.847
69868W        W38286  26.132  23.099   0.290
69869W        W38287  13.206  26.084   0.840
69870W        W38288  29.599  23.634  14.312
69871W        W38289  40.374  10.770  12.069
69872W        W38290  34.091  23.196   1.403
69873W        W38291  11.162  39.344  11.392
69874W        W38292  36.038   3.923  14.811
69875W        W38293  41.496  37.046  14.432
69876W        W38294  35.584  22.667  13.993
69877W        W38295  34.105  37.048   2.212
69878W        W38296   1.960   0.788  12.083
69879W        W38297   5.409  31.026  13.919
69880W        W38298  35.489  26.659  10.034
69881W        W38299  23.224  40.340   9.577
69882W        W38300   8.805  26.962   4.210
69883W        W38301  17.676  20.743   4.643
69884W        W38302  13.322  30.058  11.875
69885W        W38303  31.068  35.940   5.199
69886W        W38304  15.722  39.859  12.502
69887W        W38305   3.418   3.388  10.958
69888W        W38306  30.427  17.801  14.356
69889W        W38307  14.695   6.416   0.790
69890W        W38308  18.114  33.482  12.935
69891W        W38309  23.058   4.878   0.416
69892W        W38310  37.967   0.896  12.579
69893W        W38311   5.206  36.000  14.789
69894W        W38312  28.659   1.852  11.031
69895W        W38313  32.556   9.867  10.479
69896W        W38314  17.063   9.202  14.438
69897W        W38315  34.005  40.542  10.640
69898W        W38316   9.222  38.521   0.746
69899W        W38317  19.099  12.262   0.323
69900W        W38318   9.881   3.914  13.880
69901W        W38319  20.769  34.483   1.803
69902W        W38320   9.334  34.615   3.200
69903W        W38321  39.947  26.574   4.283
69904W        W38322  42.809  44.307  14.841
69905W        W38323   1.791  10.274   2.380
69906W        W38324   3.912  17.731   0.474
69907W        W38325  24.009  25.049  10.562
69908W        W38326  44.890  26.198   0.831
69909W        W38327   0.315  31.013  13.021
69910W        W38328  14.684  19.170   2.800
69911W        W38329  22.224  23.028  13.437
69912W        W38330   9.212   5.743  12.863
69913W        W38331   5.273  37.076  13.373
69914W        W38332   9.826  19.113   0.378
69915W        W38333  13.636  42.031   2.878
69916W        W38334  16.260  16.308  13.447
69917W        W38335  41.515  16.075  12.393
69918W        W38336  22.549   3.323   4.173
69919W        W38337  14.687  27.055   3.178
69920W        W38338  34.056  23.013   3.825
69921W        W38339  10.341  43.914  10.945
69922W        W38340  19.778  17.561   2.876
69923W        W38341  16.134  25.200   5.174
69924W        W38342  14.255  37.571   0.324
69925W        W38343  18.682  44.438   1.373
69926W        W38344  43.885   3.313  13.916
69927W        W38345  24.609  28.527  10.452
69928W        W38346  16.636   1.279  11.916
69929W        W38347  30.956   1.902  13.373
69930W        W38348  28.520  24.522   4.796
69931W        W38349  31.553   2.784  11.995
69932W        W38350  12.852  38.534  11.962
69933W        W38351  31.645  33.998   0.392
69934W        W38352  18.672  32.566   0.479
69935W        W38353   8.360  37.337   2.722
69936W        W38354   4.268   3.405  11.088
69937W        W38355  34.993  27.663   2.397
69938W        W38356  44.259  20.601   5.304
69939W        W38357  26.138   0.773  12.344
69940W        W38358   8.885  18.085  10.404
69941W        W38359  37.991  11.279   1.900
69942W        W38360  39.388  13.170  11.896
69943W        W38361   2.783  35.569  11.488
69944W        W38362  30.562  10.376  11.993
69945W        W38363   8.693  23.229   0.260
69946W        W38364  36.065  29.135  11.454
69947W        W38365  20.702  21.154   0.912
69948W        W38366  37.838   2.748   2.764
69949W        W38367   7.875   3.747  12.354
69950W        W38368   3.338  21.593  10.903
69951W        W38369  41.525  36.560   2.863
69952W        W38370  39.395   5.373   1.832
69953W        W38371   9.734  26.163  12.996
69954W        W38372  35.574  15.153   4.757
69955W        W38373  19.699  14.213  11.112
69956W        W38374  21.037  31.017   2.291
69957W        W38375  21.524  36.349   2.839
69958W        W38376  43.889  42.399   4.808
69959W        W38377  12.309  24.532   3.672
69960W        W38378  13.798  30.490  11.907
69961W        W38379   1.477  12.837   3.759
69962W        W38380   7.904  16.593   2.804
69963W        W38381  23.184  38.534  14.342
69964W        W38382   0.801  34.414  12.573
69965W        W38383  16.811  11.793   2.242
69966W        W38384  31.602   7.758   3.648
69967W        W38385  31.568   7.753  13.489
69968W        W38386  28.163  32.487   2.663
69969W        W38387  43.460  18.670  13.913
69970W        W38388  38.366  34.924  13.934
69971W        W38389  21.094   9.845  11.128
69972W        W38390  16.675  39.957  13.009
69973W        W38391   1.442  35.046  12.356
69974W        W38392  39.873  42.515   2.800
69975W        W38393   3.761  28.179  12.023
69976W        W38394  12.254   2.438  12.396
69977W        W38395  44.857  41.846   3.240
69978W        W38396  10.374  29.992   0.803
69979W        W38397  40.321  39.396  13.407
69980W        W38398  35.001  32.526  11.095
69981W        W38399   4.847  28.521   3.299
69982W        W38400  22.047  40.799   2.814
69983W        W38401  28.670  28.069  10.504
69984W        W38402  12.687  12.775  11.898
69985W        W38403  36.983   2.738  13.488
69986W        W38404   1.280  25.128   2.757
69987W        W38405  43.343  24.048   1.306
69988W        W38406  33.603  26.171   2.281
69989W        W38407  42.302   8.758   4.305
69990W        W38408  21.633  39.351  11.461
69991W        W38409  31.922  26.176   0.904
69992W        W38410   9.269  33.119   3.280
69993W        W38411  38.353  23.697   0.894
69994W        W38412   1.965  25.498  14.486
69995W        W38413  27.620  24.220   3.688
69996W        W38414   8.262  30.651  11.449
69997W        W38415  20.061  26.648   5.299
69998W        W38416  40.972  13.328  13.890
69999W        W38417  21.148  23.055  11.438
70000W        W38418  34.953  15.804   5.303
70001W        W38419   7.692   8.160   4.188
70002W        W38420  14.303  36.026   0.744
70003W        W38421  29.548  38.035   1.243
70004W        W38422  22.193  13.657   3.226
70005W        W38423  15.689  42.910  14.859
70006W        W38424   5.378  38.481   4.335
70007W        W38425   2.799   0.454  12.915
70008W        W38426  30.915   2.802   0.770
70009W        W38427   6.918  15.785   3.252
70010W        W38428  41.958  25.063  12.542
70011W        W38429  14.285  11.687  14.487
70012W        W38430  38.361  12.781  14.008
70013W        W38431  19.066   1.866  11.432
70014W        W38432  22.157   8.234   0.791
70015W        W38433  27.683  37.474  13.002
70016W        W38434  21.067  29.590   0.475
70017W        W38435   1.249  21.660  14.943
70018W        W38436  42.877   7.341   1.748
70019W        W38437  29.461   5.308  12.070
70020W        W38438  42.428  15.757   4.190
70021W        W38439   9.216  29.155   0.916
70022W        W38440  22.588  19.215  13.478
70023W        W38441  19.127  13.703   1.904
70024W        W38442  34.023  38.500   1.222
70025W        W38443  23.550  21.704   0.856
70026W        W38444  20.124   3.937  12.856
70027W        W38445   4.446   5.416   3.682
70028W        W38446  15.255  40.997   1.385
70029W        W38447   1.747  17.265  11.085
70030W        W38448  20.523  36.413   3.723
70031W        W38449   5.780  35.376   4.332
70032W        W38450  18.230   3.286   1.852
70033W        W38451  17.793   9.820  11.085
70034W        W38452  15.292  40.881  14.900
70035W        W38453  13.611  40.541   3.334
70036W        W38454  15.148  43.894  10.630
70037W        W38455  43.895  21.684   0.393
70038W        W38456  12.749   6.341   4.277
70039W        W38457   1.852  16.115  13.901
70040W        W38458   2.891  23.139  13.438
70041W        W38459  38.908  13.111  11.472
70042W        W38460  24.130  35.381   0.800
70043W        W38461  43.316  38.537   0.867
70044W        W38462  37.418  25.083   0.372
70045W        W38463  27.075  33.465  10.615
70046W        W38464  34.405  15.110  12.558
70047W        W38465   3.319  32.037  11.050
70048W        W38466  17.659  18.245   4.204
70049W        W38467  10.209  36.023  13.521
70050W        W38468  34.467   7.193   4.762
70051W        W38469  22.553  18.788  12.547
70052W        W38470  25.673  11.252   0.418
70053W        W38471   6.742   0.441  12.861
70054W        W38472  38.911  12.616   0.936
70055W        W38473  21.687  27.475   1.362
70056W        W38474   9.682  28.473  11.567
70057W        W38475  35.066  25.569  14.995
70058W        W38476   1.908  32.035  14.305
70059W        W38477  39.999  18.667  12.055
70060W        W38478  37.058  41.792   1.402
70061W        W38479  40.416   6.216   3.258
70062W        W38480  11.259  39.869  14.788
70063W        W38481  10.870  11.683   0.827
70064W        W38482   9.257  41.005   4.777
70065W        W38483  14.636  34.973   0.786
70066W        W38484  14.629   9.319  11.527
70067W        W38485  13.833  30.972  10.567
70068W        W38486   6.863  28.011  12.067
70069W        W38487  20.097  26.085   2.290
70070W        W38488  36.013   7.665   5.316
70071W        W38489   7.671  23.541   0.254
70072W        W38490   0.462   9.356  12.000
70073W        W38491  40.948   7.307  10.414
70074W        W38492  42.003  23.170   2.866
70075W        W38493  22.059  13.205   4.181
70076W        W38494  23.569  15.779   2.747
70077W        W38495  35.884  34.008  10.631
70078W        W38496   0.402  40.888   4.253
70079W        W38497  16.604  34.479   1.379
70080W        W38498  17.600  44.474   0.334
70081W        W38499   2.886  12.698  10.608
70082W        W38500   0.426   3.826   4.147
70083W        W38501  44.988  10.343  14.873
70084W        W38502  42.786  33.382   3.342
70085W        W38503  19.572   1.450   0.363
70086W        W38504  32.469  10.242  12.869
70087W        W38505  26.115  36.382  10.474
70088W        W38506  18.713   7.351  13.314
70089W        W38507  12.146  37.447   0.415
70090W        W38508  27.958  31.017  14.492
70091W        W38509   0.446  11.812   0.466
70092W        W38510  40.842  42.458  13.930
70093W        W38511  44.842  37.568  10.017
70094W        W38512  40.364  10.693   4.353
70095W        W38513  27.512  35.866  13.803
70096W        W38514  37.842  33.534  12.562
70097W        W38515   5.691  20.728   4.817
70098W        W38516  42.354  31.574   2.370
70099W        W38517  22.115  16.795  13.459
70100W        W38518  14.217  26.529   2.300
70101W        W38519   9.255  17.794   3.744
70102W        W38520  10.269   1.775  11.601
70103W        W38521  12.719   5.927  13.044
70104W        W38522  26.546  31.432  13.406
70105W        W38523   9.184   6.230   2.264
70106W        W38524  10.814  35.958   1.213
70107W        W38525  39.915  12.833   4.117
70108W        W38526  36.858  15.688  11.546
70109W        W38527   5.251  36.368   0.792
70110W        W38528   1.752   4.762   0.478
70111W        W38529  42.434  14.337   1.230
70112W        W38530  21.645  28.539   0.824
70113W        W38531  40.491  42.845   1.431
70114W        W38532  18.185  34.436   4.781
70115W        W38533  30.560  32.051   2.753
70116W        W38534  33.503  27.139  12.978
70117W        W38535  24.682  16.663  14.412
70118W        W38536  40.800   7.883  14.403
70119W        W38537   6.790  25.070   0.743
70120W        W38538  14.804  27.081  12.507
70121W        W38539  20.132  19.070   4.122
70122W        W38540  24.534  44.763  13.844
70123W        W38541  20.632   4.376  12.498
70124W        W38542  44.973   8.724   5.145
70125W        W38543  42.453  20.129  10.955
70126W        W38544   9.762  13.628  10.634
70127W        W38545  37.866  31.995  12.356
70128W        W38546  10.758  35.916   0.448
70129W        W38547   7.205   2.751   2.212
70130W        W38548  29.080  12.782   1.760
70131W        W38549   5.706  21.039  11.398
70132W        W38550  15.200  36.984   3.302
70133W        W38551  21.543  27.030  14.789
70134W        W38552  21.647  35.492  10.974
70135W        W38553  41.399  17.682  14.760
70136W        W38554  35.870  43.975   3.243
70137W        W38555  17.246   5.905  10.537
70138W        W38556  22.185  44.488  13.037
70139W        W38557  15.109  21.194   4.638
70140W        W38558  20.051  35.595   4.351
70141W        W38559  15.806  44.760   4.216
70142W        W38560   9.873  28.634  10.418
70143W        W38561  34.102  13.717  13.878
70144W        W38562  20.677  26.143  11.585
70145W        W38563  17.212  28.060  11.542
70146W        W38564  11.328  36.089   0.879
70147W        W38565   8.870  44.975  14.977
70148W        W38566   1.833  21.610   2.339
70149W        W38567  20.647  32.585  10.912
70150W        W38568  17.674  36.919  14.411
70151W        W38569  30.588  42.449   3.176
70152W        W38570  42.386  44.274  11.422
70153W        W38571  39.373   9.685  12.518
70154W        W38572  44.504  39.948  13.526
70155W        W38573   0.787   1.946   0.274
70156W        W38574  33.626  43.304  14.324
70157W        W38575   3.927  26.960   2.664
70158W        W38576  43.355  31.633  12.545
70159W        W38577  32.451  20.572  13.981
70160W        W38578  10.280  25.121  10.912
70161W        W38579   6.711   3.717  12.450
70162W        W38580   1.312  20.180   5.612
70163W        W38581   2.911  18.555   3.814
70164W        W38582  32.540   7.342   4.132
70165W        W38583  18.630  23.703  13.949
70166W        W38584  34.917  25.105   1.777
70167W        W38585  12.810  41.946   3.168
70168W        W38586  12.739   6.238   1.442
70169W        W38587  38.484   8.740  12.850
70170W        W38588  44.497  38.987   3.364
70171W        W38589  11.662  38.953  10.407
70172W        W38590  11.805  12.166   3.193
70173W        W38591   5.826  22.664  12.067
70174W        W38592   6.788  18.635   2.229
70175W        W38593  41.041  36.854   1.240
70176W        W38594  12.200  34.489   2.198
70177W        W38595  18.239  10.358   4.612
70178W        W38596   4.922  12.301  14.974
70179W        W38597  16.728  24.584   0.309
70180W        W38598  28.989  42.337  13.421
70181W        W38599  41.504  16.772   3.183
70182W        W38600   1.831  12.282   3.290
70183W        W38601   5.384  37.036   2.340
70184W        W38602   3.240  25.576  11.393
70185W        W38603  43.881  39.913  11.505
70186W        W38604  30.117  24.097  11.397
70187W        W38605  12.792   9.286   1.794
70188W        W38606  14.240  12.238  13.012
70189W        W38607   9.194  19.151   4.119
70190W        W38608  28.436  32.054  10.630
70191W        W38609  37.900  10.800   4.309
70192W        W38610  29.142  30.105  13.349
70193W        W38611  44.823   7.912   2.724
70194W        W38612  42.908  30.583   3.647
70195W        W38613   6.378  42.972   9.977
70196W        W38614  21.699   0.965  12.434
70197W        W38615  43.020  42.802   0.365
70198W        W38616  42.024  41.818   3.763
70199W        W38617  28.529  37.498   9.921
70200W        W38618  11.675  28.129  13.417
70201W        W38619  28.574  20.751   3.746
70202W        W38620  35.908   3.228   2.899
70203W        W38621  37.485  44.971  14.959
70204W        W38622  25.180  28.008   3.757
70205W        W38623  32.595  26.465  13.013
70206W        W38624  19.140  22.608   0.394
70207W        W38625  37.493   1.313  14.315
70208W        W38626  27.472  11.659   2.305
70209W        W38627  36.543  25.653   2.740
70210W        W38628  39.002  25.184   4.675
70211W        W38629  32.536  25.638   2.832
70212W        W38630  14.688  28.011   4.181
70213W        W38631  32.559   6.885  11.594
70214W        W38632  17.087  35.093  11.543
70215W        W38633  24.498  15.202   1.320
70216W        W38634  37.374  42.954   4.705
70217W        W38635  14.263   6.257   5.683
70218W        W38636  44.799  23.995  12.518
70219W        W38637  20.523   6.324  11.535
70220W        W38638  15.660  14.614  12.358
70221W        W38639  37.562   3.780  10.606
70222W        W38640   1.883   9.236  14.846
70223W        W38641  37.001  31.513   3.854
70224W        W38642   3.716  43.856  12.530
70225W        W38643   8.867  24.690   4.633
70226W        W38644  19.171  18.256  11.996
70227W        W38645  22.567   6.361   1.735
70228W        W38646  38.873   4.803  12.931
70229W        W38647   6.899  15.705   4.289
70230W        W38648  25.114  39.511  14.366
70231W        W38649  15.807  26.165  14.905
70232W        W38650  15.736  11.683   2.757
70233W        W38651  27.640  37.532   0.752
70234W        W38652   6.233  29.565   0.417
70235W        W38653  29.951  10.220   2.204
70236W        W38654  15.744  36.896   2.320
70237W        W38655  29.070  32.978   3.161
70238W        W38656  41.860  22.550   1.283
70239W        W38657  28.495  30.627  12.374
70240W        W38658  25.031  11.146  12.919
70241W        W38659   7.216  12.138   1.327
70242W        W38660   1.260  16.796  14.959
70243W        W38661   3.451  38.336  10.019
70244W        W38662  17.562   8.850  10.446
70245W        W38663   7.789  34.032   4.738
70246W        W38664   8.232   7.709   3.262
70247W        W38665  44.260  44.273  12.998
70248W        W38666  33.120  11.821   0.925
70249W        W38667  13.602  38.415   4.217
70250W        W38668  12.688  36.089  13.484
70251W        W38669  24.511  19.150  13.006
70252W        W38670   5.198  43.858  12.915
70253W        W38671  12.797   7.875   1.913
70254W        W38672  35.423  28.577  13.409
70255W        W38673   6.701   3.733  10.591
70256W        W38674  25.689  11.250  13.982
70257W        W38675  36.440  39.052  11.967
70258W        W38676   4.823   8.894   0.918
70259W        W38677   8.772   2.876  14.464
70260W        W38678   6.909  28.975  14.018
70261W        W38679  33.514  41.811  13.860
70262W        W38680  34.977   0.277   2.257
70263W        W38681  39.545  42.954  13.893
70264W        W38682  19.614  20.105  13.450
70265W        W38683  38.012  42.296  12.859
70266W        W38684  15.135   7.752   1.723
70267W        W38685  13.345   9.843  11.997
70268W        W38686  42.310  27.022   3.262
70269W        W38687  25.523  26.630  11.059
70270W        W38688   1.877  11.206   1.320
70271W        W38689   5.330  25.115  11.126
70272W        W38690  43.324  44.270   0.298
70273W        W38691  10.870  19.629   2.764
70274W        W38692  14.202  10.233   0.289
70275W        W38693  18.548  24.656   4.185
70276W        W38694  17.280   3.269  10.600
70277W        W38695  31.568  28.501  14.981
70278W        W38696  23.556  30.569   0.896
70279W        W38697  31.568  14.267   2.396
70280W        W38698  25.094  26.692   3.303
70281W        W38699  10.838  43.502   1.353
70282W        W38700  21.114  10.289   4.801
70283W        W38701  41.891  36.094   0.348
70284W        W38702   3.334  30.084  10.448
70285W        W38703  25.018  30.509   2.699
70286W        W38704  19.540  15.085   1.332
70287W        W38705  39.937  37.406   0.941
70288W        W38706  38.359  14.640  13.041
70289W        W38707  44.820  14.160  12.971
70290W        W38708  41.356  28.935  12.057
70291W        W38709  25.148  16.694  14.938
70292W        W38710   4.411  14.592   4.663
70293W        W38711  38.471  14.161  12.388
70294W        W38712  30.441  17.103   2.751
70295W        W38713  21.223  18.295   0.251
70296W        W38714  27.514  12.145   0.396
70297W        W38715   8.697  22.548  12.455
70298W        W38716  41.007  34.369   2.205
70299W        W38717  30.585  13.811   1.935
70300W        W38718   4.247   2.881   4.326
70301W        W38719  31.897  19.719   5.238
70302W        W38720  21.730  23.555  10.910
70303W        W38721  43.785  32.007   4.605
70304W        W38722   5.439  32.105   1.927
70305W        W38723  20.602  13.222  14.395
70306W        W38724  28.653  23.227   1.444
70307W        W38725  22.667  11.717  11.107
70308W        W38726   1.939  18.562   2.867
70309W        W38727  33.476  35.059   3.328
70310W        W38728  17.691  39.848  14.984
70311W        W38729  34.414   9.803   4.272
70312W        W38730  44.963  14.102   1.880
70313W        W38731  25.684  37.530   0.414
70314W        W38732   3.304  17.559   4.705
70315W        W38733  19.057  28.090   0.735
70316W        W38734  10.866  12.817   0.388
70317W        W38735  38.449  16.810   3.737
70318W        W38736   7.303  13.244   2.742
70319W        W38737  29.175  25.149  13.873
70320W        W38738  24.196  18.156   3.662
70321W        W38739  11.642   7.809   1.331
70322W        W38740  41.923  19.559   4.647
70323W        W38741  39.315   1.239  13.473
70324W        W38742  44.277  26.974  12.469
70325W        W38743  28.495  29.617  12.039
70326W        W38744  39.000   1.769  10.071
70327W        W38745  34.605  17.230   4.701
70328W        W38746   7.862   6.303   1.268
70329W        W38747  25.033  38.524  12.048
70330W        W38748   3.859  28.437  12.430
70331W        W38749  26.171  19.739   0.361
70332W        W38750  25.173  23.126  14.332
70333W        W38751  36.075  19.207   2.241
70334W        W38752  23.080  28.144  10.918
70335W        W38753  41.522  43.499   1.236
70336W        W38754  30.957  15.580   5.285
70337W        W38755  25.530   9.806   4.651
70338W        W38756  25.489  33.418  14.765
70339W        W38757  11.334  27.573  10.487
70340W        W38758   7.357  18.604   4.143
70341W        W38759  41.866   6.857   1.933
70342W        W38760  38.975  31.116   1.349
70343W        W38761  15.201  36.869   4.744
70344W        W38762  42.371  27.036   3.639
70345W        W38763   6.380  11.831   3.769
70346W        W38764  22.064  24.648  11.445
70347W        W38765  18.235  27.649   0.482
70348W        W38766  44.298   6.693  13.366
70349W        W38767   1.245  13.700   2.347
70350W        W38768   8.388  10.241  13.028
70351W        W38769  13.282  31.528  12.450
70352W        W38770   2.867  33.011   2.828
70353W        W38771   9.711  30.636   3.737
70354W        W38772  21.126  26.186   0.946
70355W        W38773  25.694  39.546  13.976
70356W        W38774  35.423  31.995   1.354
70357W        W38775  20.140  12.211  14.874
70358W        W38776  27.111  14.713   4.262
70359W        W38777  13.184  36.913  12.953
70360W        W38778   4.805  41.494   3.789
70361W        W38779   8.249  30.018   1.391
70362W        W38780  10.783  22.231  14.893
70363W        W38781  20.639   1.913   4.792
70364W        W38782  10.324  31.462   3.256
70365W        W38783  25.620  21.129  14.879
70366W        W38784  32.608   6.776  13.925
70367W        W38785   4.311  29.928   1.917
70368W        W38786  16.311  38.952  12.356
70369W        W38787  38.396  16.243  11.454
70370W        W38788  16.707  32.925   4.767
70371W        W38789  26.667  40.041   4.247
70372W        W38790  15.635   0.767  13.975
70373W        W38791  11.863  26.608  11.380
70374W        W38792  29.122  10.685   0.476
70375W        W38793  24.973  37.018  14.763
70376W        W38794  27.492  21.521   2.415
70377W        W38795  28.511  36.096  14.997
70378W        W38796  24.982  37.347   4.712
70379W        W38797  33.601  26.502   2.385
70380W        W38798  12.234   0.331  13.049
70381W        W38799  31.532  28.603   4.693
70382W        W38800  29.139  30.086   4.611
70383W        W38801  22.091  14.732   2.219
70384W        W38802  25.617  18.119  12.552
70385W        W38803  28.162  20.096   0.818
70386W        W38804  19.768   0.928  12.836
70387W        W38805  20.651  21.115   2.746
70388W        W38806  13.728  15.590   3.768
70389W        W38807  13.291  38.541  13.864
70390W        W38808   3.433  33.621   4.682
70391W        W38809  37.892  19.715   4.290
70392W        W38810  22.199  25.029   2.718
70393W        W38811  37.056  14.769   1.257
70394W        W38812   4.831  15.183   3.233
70395W        W38813  19.143  24.630   0.397
70396W        W38814  33.408   4.917   1.386
70397W        W38815  19.209  28.642  11.484
70398W        W38816  15.702   9.764  13.375
70399W        W38817  11.153  15.329   2.293
70400W        W38818  34.470  18.175  13.945
70401W        W38819  27.174  44.960  13.487
70402W        W38820  23.184  17.251  10.089
70403W        W38821   1.749  13.105  10.512
70404W        W38822  33.005  44.949  10.981
70405W        W38823  40.420  18.214   4.669
70406W        W38824  34.517  29.452  14.426
70407W        W38825   9.760  35.960  12.420
70408W        W38826  30.492  30.095  11.937
70409W        W38827  36.979  29.498   3.756
70410W        W38828   8.254   8.743  11.551
70411W        W38829  12.266  11.206  12.948
70412W        W38830  27.000  14.280  12.955
70413W        W38831  24.150   9.253  12.049
70414W        W38832  10.275  19.253   4.697
70415W        W38833  21.716  15.269   2.794
70416W        W38834  23.157  28.450  13.495
70417W        W38835   2.364  13.186  12.982
70418W        W38836  30.469  29.936   2.753
70419W        W38837  33.432  13.207  12.093
70420W        W38838  14.266  20.719  14.863
70421W        W38839  13.770  16.633  12.984
70422W        W38840  20.151  15.674  12.073
70423W        W38841  19.192   8.815  13.345
70424W        W38842  36.575  38.868  11.011
70425W        W38843  35.880  12.124  13.042
70426W        W38844  33.615  31.146   1.236
70427W        W38845  42.422   5.752   4.792
70428W        W38846   6.923   6.255  13.887
70429W        W38847   6.860  25.142  10.405
70430W        W38848  43.011  28.116   2.279
70431W        W38849  29.997  13.694   4.798
70432W        W38850  28.489  35.938   4.142
70433W        W38851  30.476  32.952   4.148
70434W        W38852  38.548  31.129  13.980
70435W        W38853  37.945  17.657  14.893
70436W        W38854  32.492  41.902   3.834
70437W        W38855  43.878  24.631   9.551
70438W        W38856   6.229  22.042   2.790
70439W        W38857   6.386  25.562  10.926
70440W        W38858  15.713  36.392   5.197
70441W        W38859   3.460   8.400  11.071
70442W        W38860  21.089  13.247   2.741
70443W        W38861  24.700   1.959   1.409
70444W        W38862  10.198   8.886   0.252
70445W        W38863  34.456  23.729   2.670
70446W        W38864  42.856  26.483   4.641
70447W        W38865   2.353   0.252   0.766
70448W        W38866   7.757   3.305  11.995
70449W        W38867   5.258  30.920  10.903
70450W        W38868  23.013  34.068  13.813
70451W        W38869  23.187  16.751  12.438
70452W        W38870  13.279  44.415  14.788
70453W        W38871   0.305  43.874   0.446
70454W        W38872  35.596   6.312  14.896
70455W        W38873  17.260  25.631   0.415
70456W        W38874  23.725  44.365  12.000
70457W        W38875  42.503  38.422   1.443
70458W        W38876  17.704   2.774   3.714
70459W        W38877   5.276  39.864   1.449
70460W        W38878   2.463  38.002  14.891
70461W        W38879   8.189  15.283   2.286
70462W        W38880   0.932   6.779   4.245
70463W        W38881  13.308  12.831   0.874
70464W        W38882  34.095  29.515  13.053
70465W        W38883  42.441  44.956   2.812
70466W        W38884  23.152  31.933  12.051
70467W        W38885   7.759   9.706   2.308
70468W        W38886  33.946  23.501   4.675
70469W        W38887  38.434  21.028  13.044
70470W        W38888  10.808  20.196  14.325
70471W        W38889  10.873  38.382  14.983
70472W        W38890   1.363  44.756  13.869
70473W        W38891  21.546   6.384  10.541
70474W        W38892  13.165   3.940  12.069
70475W        W38893   7.241   9.324   1.917
70476W        W38894   5.230  26.590  14.833
70477W        W38895  40.822  42.969  11.507
70478W        W38896  28.942  15.650  11.939
70479W        W38897  29.543  21.648  13.815
70480W        W38898   8.718  30.928  12.905
70481W        W38899  23.173   4.430  13.327
70482W        W38900  12.230  25.480  12.566
70483W        W38901  44.493   3.857   2.313
70484W        W38902  30.540  23.200   2.709
70485W        W38903   5.865   0.964   4.266
70486W        W38904   4.741  32.569  11.393
70487W        W38905  24.642   1.240   0.357
70488W        W38906  36.373  21.018   4.614
70489W        W38907  18.084   4.204  10.494
70490W        W38908  22.725  31.565  13.918
70491W        W38909  17.227  29.982  10.547
70492W        W38910   7.190   7.260  14.864
70493W        W38911  19.626   0.946   2.847
70494W        W38912  17.183   6.771  10.052
70495W        W38913  44.951   2.242  11.032
70496W        W38914  39.533   1.317  14.492
70497W        W38915  14.742   6.790  14.776
70498W        W38916  43.339  11.373   4.341
70499W        W38917  22.676  15.700   5.158
70500W        W38918  28.511   7.352   0.822
70501W        W38919  39.046  20.622  13.366
70502W        W38920  26.612   1.379   1.397
70503W        W38921   3.853  26.129  12.070
70504W        W38922  32.474   7.859   3.731
70505W        W38923  25.054  41.034   2.257
70506W        W38924  30.498  31.100   4.192
70507W        W38925  36.888  16.648   1.836
70508W        W38926  34.010  25.559  12.455
70509W        W38927  17.558  38.842  12.354
70510W        W38928  31.044  42.838   3.372
70511W        W38929  26.554  42.972   0.480
70512W        W38930  26.466   9.834  12.386
70513W        W38931   9.200  26.540  11.446
70514W        W38932  40.504   9.861   1.914
70515W        W38933  43.833  33.121   1.715
70516W        W38934   6.920  23.084  14.021
70517W        W38935  21.653   3.440   0.415
70518W        W38936  30.648   0.870   2.834
70519W        W38937  20.186  16.299   4.737
70520W        W38938  32.056  39.349  11.070
70521W        W38939  42.473   3.387   4.631
70522W        W38940  35.593  25.125   2.266
70523W        W38941  27.153  13.616   0.790
70524W        W38942  41.305  23.129   0.346
70525W        W38943   7.381   7.230   2.229
70526W        W38944  26.619  11.820   4.307
70527W        W38945  30.993  43.279  11.385
70528W        W38946   8.735  17.188   4.710
70529W        W38947  32.957   7.294  10.484
70530W        W38948  27.959  35.533  13.516
70531W        W38949  11.367   9.265  12.989
70532W        W38950  12.136  10.361   2.353
70533W        W38951  40.388  14.614  12.472
70534W        W38952  20.029  37.901   2.354
70535W        W38953  43.980  43.809  13.012
70536W        W38954  35.879  11.682  12.085
70537W        W38955  42.943   7.305  12.421
70538W        W38956  11.731  20.037  13.804
70539W        W38957  33.602  36.514  11.989
70540W        W38958  43.848  16.581  11.961
70541W        W38959  28.929  32.636  11.023
70542W        W38960  31.941   3.414  13.874
70543W        W38961  26.984  40.922  14.929
70544W        W38962   8.346  37.514  11.049
70545W        W38963  20.152  24.480   0.249
70546W        W38964  39.373  28.477   1.266
70547W        W38965  16.763  35.069   3.801
70548W        W38966  43.385   2.349  14.319
70549W        W38967  38.001  27.576   0.448
70550W        W38968  12.220  36.420  12.877
70551W        W38969  17.165  17.260  13.907
70552W        W38970  37.985  13.738  11.527
70553W        W38971  17.253  35.540   4.207
70554W        W38972  35.862  11.250   4.291
70555W        W38973  27.689  22.010   2.197
70556W        W38974  14.644  33.456  10.464
70557W        W38975  33.118  27.032  11.558
70558W        W38976  10.844  44.292   0.327
70559W        W38977   4.446  16.693  13.028
70560W        W38978   5.256  30.460  13.811
70561W        W38979   3.425  23.186   3.799
70562W        W38980   7.339  15.178  13.476
70563W        W38981  31.932  29.963  12.473
70564W        W38982  38.336  23.000  13.867
70565W        W38983   9.745  36.441   0.304
70566W        W38984   4.401  43.374  11.933
70567W        W38985  38.480  29.525  13.860
70568W        W38986  24.525  20.711  11.583
70569W        W38987  15.247  22.071   3.149
70570W        W38988  24.656   5.826  12.070
70571W        W38989  23.066  31.546  13.042
70572W        W38990  21.672  11.780  13.800
70573W        W38991  22.683  44.412  12.510
70574W        W38992  12.657   0.786   1.708
70575W        W38993  44.321  34.084   3.164
70576W        W38994  32.107  22.601   1.384
70577W        W38995  26.141  33.612  14.789
70578W        W38996  37.387  42.383  12.830
70579W        W38997  23.056  23.654  14.958
70580W        W38998   5.905  27.618   0.406
70581W        W38999  25.500  10.149   2.413
70582W        W39000   7.745  42.360   3.162
70583W        W39001  44.349   6.423   2.183
70584W        W39002  15.584  17.759  11.588
70585W        W39003  24.184  38.331   5.212
70586W        W39004  23.120  19.569   3.321
70587W        W39005   8.900  44.336   1.815
70588W        W39006  17.202   7.379   0.943
70589W        W39007   6.811  30.497  10.894
70590W        W39008  38.350  17.656   1.894
70591W        W39009  38.864   8.251  10.479
70592W        W39010  21.095  23.572  13.870
70593W        W39011  42.869  23.173  13.518
70594W        W39012  20.630   6.339  12.884
70595W        W39013  24.538  34.940   3.216
70596W        W39014  28.962  24.499   0.427
70597W        W39015  19.698  43.858   4.161
70598W        W39016  13.217  22.095  12.526
70599W        W39017  12.284  33.056  10.630
70600W        W39018   9.848   4.376   2.755
70601W        W39019  21.741   3.840  12.375
70602W        W39020  22.641   6.920   4.193
70603W        W39021  10.775  41.306   5.134
70604W        W39022  28.936  32.006  11.032
70605W        W39023   5.295  20.599   1.281
70606W        W39024   1.408   9.340   0.257
70607W        W39025  29.919  30.639  10.967
70608W        W39026  35.863   0.976   2.275
70609W        W39027  35.559   6.321  14.012
70610W        W39028  33.008   3.782   2.871
70611W        W39029  17.714   5.808  12.976
70612W        W39030   5.711  23.115  13.012
70613W        W39031  22.672   4.382  14.918
70614W        W39032   4.885  28.026  10.895
70615W        W39033  26.150  17.137  12.930
70616W        W39034  25.516  26.017   3.352
70617W        W39035  40.319  42.420   0.952
70618W        W39036  38.429  32.495  11.025
70619W        W39037  44.861  13.843   3.755
70620W        W39038  17.242  10.746  13.456
70621W        W39039   3.350   0.984  11.601
70622W        W39040  19.256  22.547  13.933
70623W        W39041   7.759  38.960   3.821
70624W        W39042  39.896   0.457  14.006
70625W        W39043   7.687  24.614   0.452
70626W        W39044  27.642  21.210   9.986
70627W        W39045  31.423  14.323  12.052
70628W        W39046  43.346  39.547  13.415
70629W        W39047  31.907  19.554  14.918
70630W        W39048  10.276   8.237   1.863
70631W        W39049  37.914   3.712  12.348
70632W        W39050  25.621   7.249   1.897
70633W        W39051  18.290  36.974   0.875
70634W        W39052  43.284  20.575   3.316
70635W        W39053  29.093  10.229   4.697
70636W        W39054  25.487  23.064   2.378
70637W        W39055  11.847  25.039   3.793
70638W        W39056  41.007  35.455  13.882
70639W        W39057  15.281  14.279   1.322
70640W        W39058  18.645  28.116   4.646
70641W        W39059  37.399  22.631   2.353
70642W        W39060   5.789  12.294  14.006
70643W        W39061  21.059  39.383  10.066
70644W        W39062  22.639   7.405  12.429
70645W        W39063  26.959  15.734   0.287
70646W        W39064  21.090   5.242  12.559
70647W        W39065  15.170  40.498  12.475
70648W        W39066  12.361  27.113  12.371
70649W        W39067  16.309   1.775   0.374
70650W        W39068   9.756  30.596   4.796
70651W        W39069  38.968  28.112  11.533
70652W        W39070  25.141  32.099   2.222
70653W        W39071  44.833  27.974   4.274
70654W        W39072   0.253  14.698   2.726
70655W        W39073   9.198  25.076   1.886
70656W        W39074   0.886  13.279   4.680
70657W        W39075  42.478  11.238  11.906
70658W        W39076  31.563  19.163   2.885
70659W        W39077  39.519  26.145  14.389
70660W        W39078  34.503   3.310   2.799
70661W        W39079  31.070   1.742   3.221
70662W        W39080   8.752  40.013   3.685
70663W        W39081   0.286  23.718   1.929
70664W        W39082  32.534  17.715   4.616
70665W        W39083  16.317  25.672  13.325
70666W        W39084  39.435   5.391  11.451
70667W        W39085  17.682  22.668   2.870
70668W        W39086  28.937  29.952  13.975
70669W        W39087  15.106   2.880  10.624
70670W        W39088  20.077  14.691   1.359
70671W        W39089  23.162  34.048   1.305
70672W        W39090  43.369  20.687   2.705
70673W        W39091  42.867  28.456  11.926
70674W        W39092  24.542  16.716   0.370
70675W        W39093  21.154  26.128  12.953
70676W        W39094  23.037   1.740  11.412
70677W        W39095  42.307  29.004   2.771
70678W        W39096  33.454  33.912  14.414
70679W        W39097  44.812  21.079   0.330
70680W        W39098  41.497  41.990   1.297
70681W        W39099  38.342  18.682  14.299
70682W        W39100  13.675  12.214  13.485
70683W        W39101  41.904  42.009   3.198
70684W        W39102   5.217  28.456   2.306
70685W        W39103  19.598  30.590  12.558
70686W        W39104  35.011  26.555   3.792
70687W        W39105  27.457  38.831  14.991
70688W        W39106  33.931  27.539  12.520
70689W        W39107  26.986  37.050   1.703
70690W        W39108  10.164  28.118   2.786
70691W        W39109  21.735  12.266   0.754
70692W        W39110  18.139  30.032   0.386
70693W        W39111  27.990  30.460  10.444
70694W        W39112  24.586  14.277   1.864
70695W        W39113  29.496  27.458   0.915
70696W        W39114  25.155  44.785  13.802
70697W        W39115  28.602  33.077  12.446
70698W        W39116  39.997  22.175  12.479
70699W        W39117  36.489   8.866  14.793
70700W        W39118  17.645  32.932  11.921
70701W        W39119   4.853   0.967   1.778
70702W        W39120  13.803  42.813  10.592
70703W        W39121  43.418  25.002   0.268
70704W        W39122   5.814  11.229   2.678
70705W        W39123  24.115  19.284  14.947
70706W        W39124   7.281  28.130  10.434
70707W        W39125  18.238  44.393  14.916
70708W        W39126   6.919  27.603   3.853
70709W        W39127  23.225   9.834  13.438
70710W        W39128  44.345   2.442   2.244
70711W        W39129  43.304   5.814   3.253
70712W        W39130  40.332  24.592  14.921
70713W        W39131  26.953  15.208   3.818
70714W        W39132  36.590   4.912   0.744
70715W        W39133  30.936  38.395  13.014
70716W        W39134  18.594  20.753  11.507
70717W        W39135  14.763  16.630  12.922
70718W        W39136   2.470  32.562   3.222
70719W        W39137  13.199  28.182   5.152
70720W        W39138   2.326  18.150  11.446
70721W        W39139   7.727  22.567   1.917
70722W        W39140   3.716  25.998  12.904
70723W        W39141  26.971  17.742   3.667
70724W        W39142   7.877  30.914  13.466
70725W        W39143  44.802   6.284   3.799
70726W        W39144   0.380   1.907  11.913
70727W        W39145  15.191   0.442  11.038
70728W        W39146  30.017  15.153   1.350
70729W        W39147  23.189  24.663  13.905
70730W        W39148  18.590  18.602   4.300
70731W        W39149  43.390  21.124  13.520
70732W        W39150  16.770   0.891   0.929
70733W        W39151   9.267  40.537   2.246
70734W        W39152  36.571  33.402   3.797
70735W        W39153  15.614   0.473   2.781
70736W        W39154  18.273  19.267  13.354
70737W        W39155  12.270  29.140  13.000
70738W        W39156  12.800  29.557   0.840
70739W        W39157   7.178  32.979   0.833
70740W        W39158  16.190   4.803   4.314
70741W        W39159  44.273  18.556   1.863
70742W        W39160   3.895  21.039   5.779
70743W        W39161  27.639  24.575  12.373
70744W        W39162  22.144   2.254   3.740
70745W        W39163  13.155   3.324  10.539
70746W        W39164  15.138   3.905  14.887
70747W        W39165  37.400  31.131   1.781
70748W        W39166  26.959  27.533  10.888
70749W        W39167  34.564  29.109   0.474
70750W        W39168  22.554  30.485   4.735
70751W        W39169  41.462  16.187   2.187
70752W        W39170  33.904  20.714  11.464
70753W        W39171  35.523  27.687   3.731
70754W        W39172  16.223   0.423   1.908
70755W        W39173   9.290   2.367  11.012
70756W        W39174  26.497  38.478  13.941
70757W        W39175   9.846  31.896   1.382
70758W        W39176  37.910  14.100   1.847
70759W        W39177  23.179   9.247   1.787
70760W        W39178  40.958  33.925  11.444
70761W        W39179  16.728  42.812  11.015
70762W        W39180  38.411   9.186  11.099
70763W        W39181  24.695  25.614  13.528
70764W        W39182   6.286  12.266   3.165
70765W        W39183   6.264   4.234   2.791
70766W        W39184   2.941   4.291   4.194
70767W        W39185  14.108  16.711   1.830
70768W        W39186  36.514   7.365  12.937
70769W        W39187  12.781  15.800   2.292
70770W        W39188   1.936   0.258   3.735
70771W        W39189  29.526  10.370   0.839
70772W        W39190  16.688  23.204  14.466
70773W        W39191  20.171  16.734   4.320
70774W        W39192  23.196  30.997  14.848
70775W        W39193  44.831  31.061   3.682
70776W        W39194   9.369  44.994  11.966
70777W        W39195  32.131  35.362  13.975
70778W        W39196  16.233  31.523   1.345
70779W        W39197  32.059  33.004   4.329
70780W        W39198  37.415   1.737   4.742
70781W        W39199  28.061  23.065   1.754
70782W        W39200  21.244  26.111  10.951
70783W        W39201   1.378  30.125  11.444
70784W        W39202  30.554  21.734   0.875
70785W        W39203  43.858  21.544   1.826
70786W        W39204   4.811  40.527   3.799
70787W        W39205  37.391  27.674  14.908
70788W        W39206  44.988  10.802  14.013
70789W        W39207  13.347  10.644  14.316
70790W        W39208   3.840  40.534  10.096
70791W        W39209  30.466  12.631  11.909
70792W        W39210  21.161  32.462   2.892
70793W        W39211   8.320   1.434   3.290
70794W        W39212   2.369  20.730  10.466
70795W        W39213  30.475  22.745  14.906
70796W        W39214  35.575   1.311  12.476
70797W        W39215  21.655   6.313   4.817
70798W        W39216  43.304  14.683  10.631
70799W        W39217   0.843   7.368   2.313
70800W        W39218  28.022  36.365  12.036
70801W        W39219  42.944   7.277  12.914
70802W        W39220  20.550  21.240   2.290
70803W        W39221  32.010  22.179  12.892
70804W        W39222  23.730  18.194  13.851
70805W        W39223   8.875  39.962  14.888
70806W        W39224  39.411  40.367  14.352
70807W        W39225  34.883   7.177   3.798
70808W        W39226  29.560   1.864  14.333
70809W        W39227  12.151   4.293  12.435
70810W        W39228   8.216  40.918  14.503
70811W        W39229  12.723   1.802   1.904
70812W        W39230  37.529  43.772   2.380
70813W        W39231  19.641  16.286  13.531
70814W        W39232  20.053   1.457   3.673
70815W        W39233  41.865   6.338   4.210
70816W        W39234  28.969  36.943   2.807
70817W        W39235  37.003   7.887  14.465
70818W        W39236  22.238  21.754   1.842
70819W        W39237  40.896  42.024  14.003
70820W        W39238   3.793  22.747   1.699
70821W        W39239   6.755  31.979   4.778
70822W        W39240  28.999  36.424  13.046
70823W        W39241  17.099  42.965   4.792
70824W        W39242  37.577  37.862   1.779
70825W        W39243  23.636  22.122   1.743
70826W        W39244  35.577   4.915   4.598
70827W        W39245  37.552  13.760   1.791
70828W        W39246  20.238  20.052  13.391
70829W        W39247  12.751  44.331   0.745
70830W        W39248   3.781  37.886  13.377
70831W        W39249   0.945  34.002   4.703
70832W        W39250  44.470  24.522  12.344
70833W        W39251   6.863  43.917  13.793
70834W        W39252  23.062  27.624  14.838
70835W        W39253  33.001  31.617  14.837
70836W        W39254   1.280  30.617   0.934
70837W        W39255  12.142  25.201  13.317
70838W        W39256   3.839   5.280   2.403
70839W        W39257   8.852  36.973  14.485
70840W        W39258  23.688  22.077  10.536
70841W        W39259  29.100  36.567   2.793
70842W        W39260  12.720  37.022  12.998
70843W        W39261  25.669  12.186   1.370
70844W        W39262  18.180  22.111   1.752
70845W        W39263   5.288   6.763   4.681
70846W        W39264   1.942  43.294   2.830
70847W        W39265   0.423  21.220   1.741
70848W        W39266  24.679  19.106  10.525
70849W        W39267  19.736  43.371   3.161
70850W        W39268  21.757  36.911  13.436
70851W        W39269  38.844  36.091   9.944
70852W        W39270  31.973  32.443   4.223
70853W        W39271  13.766  29.507   3.314
70854W        W39272  24.684  10.234  11.612
70855W        W39273  32.961   2.823  10.957
70856W        W39274  20.136   9.714  14.321
70857W        W39275  16.104  20.601  10.983
70858W        W39276   4.301  26.671   2.833
70859W        W39277  20.108  29.998  14.322
70860W        W39278  10.290   4.293   2.702
70861W        W39279  33.922  12.662  12.921
70862W        W39280  36.997  21.545  13.366
70863W        W39281  41.878   3.297   3.827
70864W        W39282  10.804  15.171   4.655
70865W        W39283  31.133  27.584  10.413
70866W        W39284  22.555  14.624  11.906
70867W        W39285  25.100  33.601  14.028
70868W        W39286  43.322  44.810  14.354
70869W        W39287  14.787  11.219   0.872
70870W        W39288   7.236   7.267   1.921
70871W        W39289  21.515  23.132  10.419
70872W        W39290  22.136  36.365   2.290
70873W        W39291  24.101   5.695   3.805
70874W        W39292  35.600  17.788   3.187
70875W        W39293  30.554  39.477  11.455
70876W        W39294  26.082  29.046  10.576
70877W        W39295  22.120  25.036   4.127
70878W        W39296  36.499  27.608   0.375
70879W        W39297  36.086   4.393   4.654
70880W        W39298   2.964  10.218   4.600
70881W        W39299  24.719   3.739  11.970
70882W        W39300  43.902  20.565   5.318
70883W        W39301  40.977  14.605   0.346
70884W        W39302  25.656  33.463  12.095
70885W        W39303  11.228  29.156  11.394
70886W        W39304   9.760   1.808   3.715
70887W        W39305  43.344  20.039  11.569
70888W        W39306  25.141   1.370   2.324
70889W        W39307   4.236  40.991   0.305
70890W        W39308  13.264  36.412   0.822
70891W        W39309  20.569  14.680   5.188
70892W        W39310  34.440   6.686   4.683
70893W        W39311  13.791   5.827   3.842
70894W        W39312  31.499  39.962  12.847
70895W        W39313  24.089  11.774   1.889
70896W        W39314   0.387  21.643   1.287
70897W        W39315  11.792  10.205   2.803
70898W        W39316  37.563  32.942   0.876
70899W        W39317  20.264  31.617  14.494
70900W        W39318  17.252  10.632   3.694
70901W        W39319  44.767   6.247  14.799
70902W        W39320   1.447  36.388   2.282
70903W        W39321  15.262   7.303   0.339
70904W        W39322  19.124   4.738  13.383
70905W        W39323  24.134  36.523   3.366
70906W        W39324  38.045   7.404   1.383
70907W        W39325  24.722  37.411  11.537
70908W        W39326  23.660  21.141  14.344
70909W        W39327  43.930  29.463   2.237
70910W        W39328  37.503   0.869   4.140
70911W        W39329  34.396  37.972  12.927
70912W        W39330  28.141  19.647  10.521
70913W        W39331  15.302  22.602   1.250
70914W        W39332  18.101   6.191  11.987
70915W        W39333  36.909  17.168   2.679
70916W        W39334  11.329   1.836  12.948
70917W        W39335   1.854  27.954   2.180
70918W        W39336  25.171  44.990   4.647
70919W        W39337  35.864  40.547  14.359
70920W        W39338  11.320  17.776  12.441
70921W        W39339   2.905  38.396   4.832
70922W        W39340  18.050  10.202   3.235
70923W        W39341   3.896  23.238  11.960
70924W        W39342  12.151   9.255  12.979
70925W        W39343  44.380  31.104  14.502
70926W        W39344   4.859   3.898   3.758
70927W        W39345  26.512  26.148  12.486
70928W        W39346  38.893  24.017  14.379
70929W        W39347  38.899  20.525   2.279
70930W        W39348  29.003   3.287  12.487
70931W        W39349  21.183  15.103  12.075
70932W        W39350  43.900  28.616  11.544
70933W        W39351  39.480  26.609   4.792
70934W        W39352  14.748  28.512   2.245
70935W        W39353   1.832  37.397  10.501
70936W        W39354  23.153   9.708   1.417
70937W        W39355   2.830  33.470  13.407
70938W        W39356  23.031  25.031   0.739
70939W        W39357   3.886  42.006  10.446
70940W        W39358  13.691  32.505   2.742
70941W        W39359   3.737  25.548  12.503
70942W        W39360  33.987  42.300  11.517
70943W        W39361  23.633   4.443  11.005
70944W        W39362  28.572  21.206  12.940
70945W        W39363  27.634  18.613   3.261
70946W        W39364  20.256  22.650  13.428
70947W        W39365  11.217  42.895   3.321
70948W        W39366  19.124   9.881   2.801
70949W        W39367  13.728  39.495   2.893
70950W        W39368  34.481  30.605   0.383
70951W        W39369  33.121  13.676  11.091
70952W        W39370  26.008  33.518  11.608
70953W        W39371  42.875  20.152  11.041
70954W        W39372  24.036  31.100   2.252
70955W        W39373  36.996  36.068  13.040
70956W        W39374  39.054  10.185   3.801
70957W        W39375  14.594  43.380  13.421
70958W        W39376  39.822  33.125   0.868
70959W        W39377   5.286  38.500  13.346
70960W        W39378  20.263   3.217  11.096
70961W        W39379  31.495  24.544   3.818
70962W        W39380  12.240  43.820  11.599
70963W        W39381   7.265  11.655  14.863
70964W        W39382  21.204   0.388   0.822
70965W        W39383  20.602  44.768   2.226
70966W        W39384  10.802  16.301  13.885
70967W        W39385  25.620  34.943   4.742
70968W        W39386   5.784   4.390   0.263
70969W        W39387  22.681  40.432  14.345
70970W        W39388  32.521  15.245   2.224
70971W        W39389  23.549  40.931   4.221
70972W        W39390  19.733  31.146   1.300
70973W        W39391   2.444  38.057   2.774
70974W        W39392  37.964  27.570  12.470
70975W        W39393  34.052  41.029  13.537
70976W        W39394  18.629   1.379   3.295
70977W        W39395  16.287   4.383   5.229
70978W        W39396  27.532  31.043   1.353
70979W        W39397  18.068  27.640   4.640
70980W        W39398  31.535   3.897   2.401
70981W        W39399   5.294   6.213  14.327
70982W        W39400  20.737  12.313  11.003
70983W        W39401   2.898   8.296  14.826
70984W        W39402  17.280   5.413   4.329
70985W        W39403  17.217   7.687  10.431
70986W        W39404  41.914  38.526  14.783
70987W        W39405  12.651  26.499  14.478
70988W        W39406  13.757  26.044  10.541
70989W        W39407  26.011  39.440  11.086
70990W        W39408  37.358  30.457   3.862
70991W        W39409  23.567  25.511   1.234
70992W        W39410  20.766  23.033   2.865
70993W        W39411  16.593  20.567   4.195
70994W        W39412  21.711   9.736  12.847
70995W        W39413  23.223  16.743   0.825
70996W        W39414   0.299  13.821  11.542
70997W        W39415  31.957  39.552   1.314
70998W        W39416  22.176  28.588   1.695
70999W        W39417  11.662  19.656  10.019
71000W        W39418  30.548  40.977   1.781
71001W        W39419   8.337  38.559  10.981
71002W        W39420  31.109  36.420  14.334
71003W        W39421   0.464   5.833  12.402
71004W        W39422  11.200   5.901   1.724
71005W        W39423  15.767  38.470   1.915
71006W        W39424   5.724  34.885  12.502
71007W        W39425   7.321   5.204   4.672
71008W        W39426  10.796  19.645   2.310
71009W        W39427  38.488  16.788  10.562
71010W        W39428  23.655  23.677  14.318
71011W        W39429  35.079   6.359   0.919
71012W        W39430   0.811  43.387  14.866
71013W        W39431  32.032   3.298  11.387
71014W        W39432  43.294  39.524  11.879
71015W        W39433  14.678  25.082  12.049
71016W        W39434  16.769   7.364   3.833
71017W        W39435   1.773  27.564   3.722
71018W        W39436  13.650  35.371  12.380
71019W        W39437  39.345  29.611  14.958
71020W        W39438  34.034  24.030   0.449
71021W        W39439  30.040  24.482   2.900
71022W        W39440   7.234  38.488   3.742
71023W        W39441  36.904  19.600   3.863
71024W        W39442   9.304  39.321   4.649
71025W        W39443  11.781  36.060   4.673
71026W        W39444   7.836  17.220  13.357
71027W        W39445  20.199   3.954   1.816
71028W        W39446   7.282  27.086   0.265
71029W        W39447   7.191   2.835   2.743
71030W        W39448  25.068  40.356   4.350
71031W        W39449  15.743   8.778   2.694
71032W        W39450  20.759  28.103   3.339
71033W        W39451  42.898   4.258  14.321
71034W        W39452  16.174  20.120  14.930
71035W        W39453   1.387   4.397   3.386
71036W        W39454   4.439  21.216   1.328
71037W        W39455  41.885   5.285  13.428
71038W        W39456  17.754   8.679   0.453
71039W        W39457  29.570  13.640  13.339
71040W        W39458  41.806  10.316  13.424
71041W        W39459  12.268  16.692  13.851
71042W        W39460  16.746  32.407   2.728
71043W        W39461  16.645  14.210  13.958
71044W        W39462  10.735  15.667   2.218
71045W        W39463   5.730  31.031  11.552
71046W        W39464  33.517   4.258  14.459
71047W        W39465  13.707  19.665   1.216
71048W        W39466   1.392  31.071  12.956
71049W        W39467  29.934  27.012   2.348
71050W        W39468   9.820   1.378  13.961
71051W        W39469  16.315  26.983  14.499
71052W        W39470  17.676  14.755  12.081
71053W        W39471  34.924   5.370   3.784
71054W        W39472   6.388  36.484   4.795
71055W        W39473  23.624  40.805   4.829
71056W        W39474  11.753  12.826   5.316
71057W        W39475  28.617  36.028   1.243
71058W        W39476  24.607   1.337   3.831
71059W        W39477  10.666  31.463  12.893
71060W        W39478  11.832  33.470  12.993
71061W        W39479   1.802  27.141   2.359
71062W        W39480  27.465  36.512   4.259
71063W        W39481  28.047  29.462  14.863
71064W        W39482   8.878  13.345  12.551
71065W        W39483  19.545  16.211  12.442
71066W        W39484  42.952  25.992  10.995
71067W        W39485  14.749  38.867   1.315
71068W        W39486  29.648  43.460   2.754
71069W        W39487   2.261   0.376   1.268
71070W        W39488   5.845   7.215   0.783
71071W        W39489  13.841   1.262  10.942
71072W        W39490  18.080  25.523  13.901
71073W        W39491  31.454  38.395  10.556
71074W        W39492  12.192  29.628  13.034
71075W        W39493  12.137  19.122  13.896
71076W        W39494  25.069  41.292  10.954
71077W        W39495  20.155  30.617  14.294
71078W        W39496  28.959  21.744   2.734
71079W        W39497  39.034   6.843   2.708
71080W        W39498   8.895  20.746  10.949
71081W        W39499  34.507  20.082   4.648
71082W        W39500  30.121  21.134   4.714
71083W        W39501  15.127  30.490   0.783
71084W        W39502  41.992  42.996   0.780
71085W        W39503  28.552  23.494   1.326
71086W        W39504  24.558  14.680  13.948
71087W        W39505   0.866   1.789  11.548
71088W        W39506  36.050  16.567  12.428
71089W        W39507  41.918   7.870   0.797
71090W        W39508   2.893  23.195   0.928
71091W        W39509  13.793  29.143   1.796
71092W        W39510  29.504  14.184  10.917
71093W        W39511  39.854  42.437   3.738
71094W        W39512  23.696  32.088  14.867
71095W        W39513  29.037  17.716   0.282
71096W        W39514  30.423  38.971   1.273
71097W        W39515  34.557  38.392  11.994
71098W        W39516  17.658  40.000  12.350
71099W        W39517  22.680  39.917   2.693
71100W        W39518  16.617   0.438   1.886
71101W        W39519  29.437  17.698   4.621
71102W        W39520  43.880  24.478   2.817
71103W        W39521   2.229  12.115  14.770
71104W        W39522  25.173   9.748  14.925
71105W        W39523  39.492  33.606  13.865
71106W        W39524   7.390  14.753   3.748
71107W        W39525  34.091  42.468   2.902
71108W        W39526  13.721  37.066   2.804
71109W        W39527   5.293  28.101   9.931
71110W        W39528   8.656   8.369  13.847
71111W        W39529  19.603   0.934   1.750
71112W        W39530  31.423  18.098  14.510
71113W        W39531  11.776  40.894  12.059
71114W        W39532  26.090   9.174  14.308
71115W        W39533  13.295  44.905   3.170
71116W        W39534  38.401   0.452   0.769
71117W        W39535  19.632  43.002  14.348
71118W        W39536  10.362  15.140   1.342
71119W        W39537  40.334  42.434  13.867
71120W        W39538  40.885   3.870  12.551
71121W        W39539  37.412   5.354  13.478
71122W        W39540   4.292  39.455  14.781
71123W        W39541  34.417   6.408   0.814
71124W        W39542  16.240   1.294  12.990
71125W        W39543   1.903  38.403  12.564
71126W        W39544  19.139  40.479  12.006
71127W        W39545  30.627  31.464   0.775
71128W        W39546  35.029  25.213   0.256
71129W        W39547  34.431  44.844  10.933
71130W        W39548  44.329  40.960  11.089
71131W        W39549  37.861  33.547  12.027
71132W        W39550  15.232  35.513   0.790
71133W        W39551   0.441  30.504  14.335
71134W        W39552  31.126  27.461  13.856
71135W        W39553  25.183  20.267  12.950
71136W        W39554   2.424  34.408  10.409
71137W        W39555   3.330  17.767  11.036
71138W        W39556  33.614   2.830   4.835
71139W        W39557  34.063  13.140   0.243
71140W        W39558  13.349  43.422  12.506
71141W        W39559   3.880   6.681  12.989
71142W        W39560   7.184  23.241   1.912
71143W        W39561  31.558  34.067   0.848
71144W        W39562  41.842  20.254  10.611
71145W        W39563  11.788  37.996  14.332
71146W        W39564  11.636  43.820   1.873
71147W        W39565  19.714  16.097   3.327
71148W        W39566  14.671   1.932  13.375
71149W        W39567  13.816  10.701  12.045
71150W        W39568  30.095   8.307   5.165
71151W        W39569   8.741  34.463   2.684
71152W        W39570  32.015   9.787  13.894
71153W        W39571  39.486   6.352  11.518
71154W        W39572  23.013   7.872  11.892
71155W        W39573  19.062  35.546  13.329
71156W        W39574  11.804  41.428  13.988
71157W        W39575  38.557   2.762  11.004
71158W        W39576  40.509  33.526   3.263
71159W        W39577   1.757  42.468   4.798
71160W        W39578  23.685  10.381   2.209
71161W        W39579  38.519   6.199  13.810
71162W        W39580   2.250   8.731  13.041
71163W        W39581  16.723  10.830  12.904
71164W        W39582  41.937   1.891  11.020
71165W        W39583  18.279  27.120  12.472
71166W        W39584  39.959  33.017   3.224
71167W        W39585   8.381   0.325   1.860
71168W        W39586  22.024  21.143  11.888
71169W        W39587  39.554  27.516  10.486
71170W        W39588  28.957  11.736   2.808
71171W        W39589   2.952  34.884   2.406
71172W        W39590  26.123   1.762  13.478
71173W        W39591  36.528  19.721   4.692
71174W        W39592   9.345   2.372   3.734
71175W        W39593  43.425  18.062  12.543
71176W        W39594  41.371  36.521  13.423
71177W        W39595   0.775  10.313   4.325
71178W        W39596  34.445  35.938  12.541
71179W        W39597  19.218   8.303   4.786
71180W        W39598  36.006  33.487  11.437
71181W        W39599   9.875  23.527   0.407
71182W        W39600  13.285  34.564   1.324
71183W        W39601  16.226  19.281   2.300
71184W        W39602  32.552  26.116  11.029
71185W        W39603  29.922  17.098   2.703
71186W        W39604  23.053  28.597  14.451
71187W        W39605  43.994   4.793   2.743
71188W        W39606  10.335  32.057  11.007
71189W        W39607  20.267  16.713   2.727
71190W        W39608  28.184  26.638   0.945
71191W        W39609   7.342  37.851  14.396
71192W        W39610  10.358   9.723  14.936
71193W        W39611  44.477  28.513   2.705
71194W        W39612  32.011  17.268  12.095
71195W        W39613  26.008   6.919  14.380
71196W        W39614   2.748  34.886   4.319
71197W        W39615  22.215   1.426   3.640
71198W        W39616  39.543  38.835  11.107
71199W        W39617  15.617  34.594  14.425
71200W        W39618  42.372  19.190  13.377
71201W        W39619  22.672  40.486  14.903
71202W        W39620  24.112   4.378   2.698
71203W        W39621  15.635  31.411   3.316
71204W        W39622   0.784   1.892   1.778
71205W        W39623   8.392  24.644   0.370
71206W        W39624  20.751   1.320  13.969
71207W        W39625  20.122   1.263  14.011
71208W        W39626  35.023  27.100  14.446
71209W        W39627   8.210   6.768   4.322
71210W        W39628  19.077   4.809  12.499
71211W        W39629  34.938  26.004  13.342
71212W        W39630  10.706  28.944   2.764
71213W        W39631  33.442   4.939  10.434
71214W        W39632  36.402  24.053   2.371
71215W        W39633   4.393   9.652  11.123
71216W        W39634  37.073  13.826  11.107
71217W        W39635  25.130  10.686   2.203
71218W        W39636  27.534  23.179   3.222
71219W        W39637  26.168   2.291  14.007
71220W        W39638  33.421  35.413  12.970
71221W        W39639  17.767   2.865  10.946
71222W        W39640  18.698  35.939   2.688
71223W        W39641  15.594   3.357  12.416
71224W        W39642  14.724  35.475  12.476
71225W        W39643   9.304  19.543   5.262
71226W        W39644   5.779  15.689   1.809
71227W        W39645  20.678   7.741  14.848
71228W        W39646  21.154  41.381  11.071
71229W        W39647   8.826  22.179   2.792
71230W        W39648  43.400  16.176  11.427
71231W        W39649  34.555  21.228  14.502
71232W        W39650  40.462  43.328   1.698
71233W        W39651   3.219   8.783   2.298
71234W        W39652  29.575  26.188   3.358
71235W        W39653  33.886  23.170  11.440
71236W        W39654   3.260  31.598   1.737
71237W        W39655  32.430  18.601  11.121
71238W        W39656  29.146  22.172  11.920
71239W        W39657  26.157  12.252  10.445
71240W        W39658   1.243  30.556  11.553
71241W        W39659  18.720  12.794   1.294
71242W        W39660  15.603  17.077   5.252
71243W        W39661   7.673  32.946   3.189
71244W        W39662  44.362  30.518  12.853
71245W        W39663  13.638  16.157  13.439
71246W        W39664  40.458  15.149   2.271
71247W        W39665  23.675  29.014  11.955
71248W        W39666  41.960   5.286   3.769
71249W        W39667   3.306   8.890   1.789
71250W        W39668  44.995  37.390   4.799
71251W        W39669  18.067  25.170   1.786
71252W        W39670   1.751  37.418   3.692
71253W        W39671   1.452  31.420  14.884
71254W        W39672  11.828   0.874   2.828
71255W        W39673  31.481  32.067  11.922
71256W        W39674  39.845   5.352   0.795
71257W        W39675  13.133  24.575  13.936
71258W        W39676  27.098  43.307  12.076
71259W        W39677   2.244   8.713   1.851
71260W        W39678  31.605  20.756  13.830
71261W        W39679   8.275   9.274  13.405
71262W        W39680  38.506  20.239  10.475
71263W        W39681  17.757  18.103  14.377
71264W        W39682  25.575  24.202   1.350
71265W        W39683  22.177  11.329   2.897
71266W        W39684  30.594  20.549  13.532
71267W        W39685  34.882  30.641  12.067
71268W        W39686  43.801  31.633  10.633
71269W        W39687  42.316  33.005   2.672
71270W        W39688  22.650  28.631  14.462
71271W        W39689  44.429  13.678   2.391
71272W        W39690  24.061  36.566  11.115
71273W        W39691   5.752  31.966  13.861
71274W        W39692  12.741  32.947  12.074
71275W        W39693  11.310  10.857   2.298
71276W        W39694   4.338  44.283  11.923
71277W        W39695  18.784  23.011   2.417
71278W        W39696  31.549   1.465   4.672
71279W        W39697  19.582   3.382   4.304
71280W        W39698   0.757  23.566  11.576
71281W        W39699  30.461  43.896   1.823
71282W        W39700  21.067  12.168   3.785
71283W        W39701  43.476   0.464  13.422
71284W        W39702  12.162  31.103   3.350
71285W        W39703  40.983  23.002   4.232
71286W        W39704  34.396  31.134   0.942
71287W        W39705  18.600  26.166   1.448
71288W        W39706  28.438  13.771  14.417
71289W        W39707  25.164  12.707  14.938
71290W        W39708   1.269  26.987  14.855
71291W        W39709  33.910  22.221   1.770
71292W        W39710   8.759  44.865   0.303
71293W        W39711  33.382  12.277   4.806
71294W        W39712  32.436  33.428  11.874
71295W        W39713  25.488   0.910   4.631
71296W        W39714  30.579  40.303  11.571
71297W        W39715  25.126  18.751   3.154
71298W        W39716   7.801  29.615  14.996
71299W        W39717  13.252   9.284  14.489
71300W        W39718  23.513  35.422  12.978
71301W        W39719  43.384   8.739   2.896
71302W        W39720  37.405  13.322  10.984
71303W        W39721  16.760  29.032   3.220
71304W        W39722   5.825  34.944  13.517
71305W        W39723  19.611  32.978  12.423
71306W        W39724  35.464   0.743   3.314
71307W        W39725  32.053  10.255  14.349
71308W        W39726  32.480  35.466  14.916
71309W        W39727  26.500  16.747   2.901
71310W        W39728  12.796   4.356  12.993
71311W        W39729  24.674  43.480   0.395
71312W        W39730  20.222  41.884   2.690
71313W        W39731  35.496  33.920   2.205
71314W        W39732  20.120  29.507   1.786
71315W        W39733  41.344  11.841  13.801
71316W        W39734   2.820   9.293  12.491
71317W        W39735   4.432  34.867  14.493
71318W        W39736  42.780  21.711   5.594
71319W        W39737   6.414  30.994  11.426
71320W        W39738   6.836  18.189  14.376
71321W        W39739  40.334  13.754  14.489
71322W        W39740  28.166   7.669   3.154
71323W        W39741  36.887  40.501  12.912
71324W        W39742  12.846   4.264  10.537
71325W        W39743   0.416   1.274   1.233
71326W        W39744   2.313  27.638   0.267
71327W        W39745  42.495   0.969  13.994
71328W        W39746  38.436  28.072  13.455
71329W        W39747  17.076   3.287   1.842
71330W        W39748   6.713  20.741   0.774
71331W        W39749  25.190  12.707  12.005
71332W        W39750  23.619  43.885  12.877
71333W        W39751  12.714  39.520  14.878
71334W        W39752  14.786  43.338   3.214
71335W        W39753  23.510   1.732  14.965
71336W        W39754  38.536   6.724  14.449
71337W        W39755  33.115  22.531   3.263
71338W        W39756  30.468  12.833   4.342
71339W        W39757  35.376  43.022  10.439
71340W        W39758  37.859  13.653  12.395
71341W        W39759  23.568  23.583   4.238
71342W        W39760  39.399  21.116   0.404
71343W        W39761   7.324  40.332   2.220
71344W        W39762  29.923  10.664   2.245
71345W        W39763   2.287   5.300   3.657
71346W        W39764  19.580  29.547  12.438
71347W        W39765   5.787   7.805   1.823
71348W        W39766  37.991   6.331  12.867
71349W        W39767  12.692  29.466   1.873
71350W        W39768  23.242  10.823   2.739
71351W        W39769  44.350  30.111  11.937
71352W        W39770   7.337  24.635   1.229
71353W        W39771   0.913  29.985  11.503
71354W        W39772  20.255  26.091   3.812
71355W        W39773  19.042  22.587   1.711
71356W        W39774  18.063  37.038  14.824
71357W        W39775  17.094  13.201  10.609
71358W        W39776  10.752  16.281  12.967
71359W        W39777  37.568  21.750   3.794
71360W        W39778  14.664  38.412  12.441
71361W        W39779   8.250  44.881   1.428
71362W        W39780  26.582  43.915   3.823
71363W        W39781  19.195   6.358   1.816
71364W        W39782  22.032  22.571  12.566
71365W        W39783  21.239  11.849  10.979
71366W        W39784  28.546   3.447  14.410
71367W        W39785  43.280  29.970  14.469
71368W        W39786  44.810  22.622  10.959
71369W        W39787  38.448  33.964  12.475
71370W        W39788  35.601  39.843  11.904
71371W        W39789  39.376  17.063  12.377
71372W        W39790  29.073  18.788  13.382
71373W        W39791   2.469  31.490   2.858
71374W        W39792  40.860  26.047  12.468
71375W        W39793  43.428  15.695  10.145
71376W        W39794   5.896  40.473   2.271
71377W        W39795  10.216  17.274  11.496
71378W        W39796  39.505  37.043  13.887
71379W        W39797  32.957   2.254  11.094
71380W        W39798  44.954  32.945   1.317
71381W        W39799  39.938   4.361  13.503
71382W        W39800  18.701  26.543  11.437
71383W        W39801  40.951  17.261  14.999
71384W        W39802   0.269   7.687   4.673
71385W        W39803   2.442  30.163   1.230
71386W        W39804   5.729   0.820   2.816
71387W        W39805  25.692  31.422  11.558
71388W        W39806  29.045  25.625   4.754
71389W        W39807  17.232  35.096  14.317
71390W        W39808  23.067  22.574   1.876
71391W        W39809  19.646  20.745   2.837
71392W        W39810  13.310  43.425   1.783
71393W        W39811  40.035  17.772   4.317
71394W        W39812  42.839  14.193   2.413
71395W        W39813  24.224   1.890  10.065
71396W        W39814  26.541  33.488   4.241
71397W        W39815  28.641  39.369   3.296
71398W        W39816   4.767  36.422  14.471
71399W        W39817  32.452   8.757  13.856
71400W        W39818  12.779  42.383   0.245
71401W        W39819  21.102  23.019   1.773
71402W        W39820  18.229  11.127  10.467
71403W        W39821  22.040   9.242  10.917
71404W        W39822  14.282  20.577  10.485
71405W        W39823  38.912   6.831   3.732
71406W        W39824   1.392  37.355  12.874
71407W        W39825  14.697  40.904  10.972
71408W        W39826  16.108  16.674  11.968
71409W        W39827  18.669  39.966  12.985
71410W        W39828  31.506   4.246  14.501
71411W        W39829   8.733  26.954  13.496
71412W        W39830  36.415  30.937   0.800
71413W        W39831  14.188   2.331   2.888
71414W        W39832  32.543   0.300   0.459
71415W        W39833   2.442  25.690  11.940
71416W        W39834  19.623   3.366   4.613
71417W        W39835   2.410  35.537  13.478
71418W        W39836  11.355  14.265   0.801
71419W        W39837   0.923  14.655  12.491
71420W        W39838  24.511  26.100   2.418
71421W        W39839  13.721  34.096  10.964
71422W        W39840  43.805  15.770  12.563
71423W        W39841  18.219  41.912  12.536
71424W        W39842  14.715  40.491   2.733
71425W        W39843  30.438  15.309  12.875
71426W        W39844  11.671  44.829  13.360
71427W        W39845  22.505  28.022   0.902
71428W        W39846   3.329  11.706   0.323
71429W        W39847   3.413  21.674  10.552
71430W        W39848   3.862  41.466  13.535
71431W        W39849  15.762  27.145   4.278
71432W        W39850  21.056   9.267   4.316
71433W        W39851   3.836  41.304   2.887
71434W        W39852  25.035  15.728  13.324
71435W        W39853  32.950  19.777   1.785
71436W        W39854  40.868  36.363   3.157
71437W        W39855  11.660   7.892  13.348
71438W        W39856  43.814   9.838  12.392
71439W        W39857  23.160  40.424  10.127
71440W        W39858  38.043  28.548   3.661
71441W        W39859  39.930  44.867  14.931
71442W        W39860   3.952  20.228   1.371
71443W        W39861  18.152  42.798  14.506
71444W        W39862  29.519   9.181  10.998
71445W        W39863  38.007  40.443  11.063
71446W        W39864  36.424  39.366  14.886
71447W        W39865   0.931   7.353   3.645
71448W        W39866  34.977  36.074   0.731
71449W        W39867  28.508  17.186  11.411
71450W        W39868  37.516  33.888   3.700
71451W        W39869  19.077  21.692  14.890
71452W        W39870  34.553  38.940  13.004
71453W        W39871  22.694  32.113   3.643
71454W        W39872  28.147  31.110  10.926
71455W        W39873   8.282   5.700  12.373
71456W        W39874  25.608  29.533  13.820
71457W        W39875   8.289  26.079   3.373
71458W        W39876  25.489  12.186   3.353
71459W        W39877  28.135  31.468  13.339
71460W        W39878  17.078  36.965   3.183
71461W        W39879  15.778  19.670   3.759
71462W        W39880  42.435  25.619   4.286
71463W        W39881  22.120  38.972   0.867
71464W        W39882  40.457  27.630   0.812
71465W        W39883   7.307  11.256  14.023
71466W        W39884  26.663  33.507   1.780
71467W        W39885   8.784  16.224   1.880
71468W        W39886   8.356  40.050   3.290
71469W        W39887  22.127   0.807  13.462
71470W        W39888  36.578  16.617  13.491
71471W        W39889  44.983  22.208  11.416
71472W        W39890   7.732   3.859  12.073
71473W        W39891  22.112   6.782  11.118
71474W        W39892  39.384   3.431   3.387
71475W        W39893  39.963   5.354  13.488
71476W        W39894  33.016  22.041  11.608
71477W        W39895   5.925  19.646  14.020
71478W        W39896  26.654  28.058  12.364
71479W        W39897  29.947  19.752  13.919
71480W        W39898  39.835  14.733   1.824
71481W        W39899   3.893  22.608   1.262
71482W        W39900  33.923  38.349   0.413
71483W        W39901  31.571  40.448  12.843
71484W        W39902  34.076  22.622  13.355
71485W        W39903  24.506  22.095  13.846
71486W        W39904  26.030   0.773  12.946
71487W        W39905  13.610  21.143  11.101
71488W        W39906  14.274  10.270  10.114
71489W        W39907  33.119   5.852   4.163
71490W        W39908   3.401  37.998  12.015
71491W        W39909  33.993  43.369   3.840
71492W        W39910  22.554   4.795   3.862
71493W        W39911   1.350  43.514   2.864
71494W        W39912   8.859  35.869  10.983
71495W        W39913   0.494  26.567  10.525
71496W        W39914   6.851  40.397   1.858
71497W        W39915  38.998  32.491  12.995
71498W        W39916  33.058  25.219  13.463
71499W        W39917  19.266  33.999  11.883
71500W        W39918  20.602   6.850   0.749
71501W        W39919  36.413  34.396  12.453
71502W        W39920  41.409   4.277   3.175
71503W        W39921   5.207  27.630  12.974
71504W        W39922  42.889  17.703   3.187
71505W        W39923  18.220  25.031   4.193
71506W        W39924  14.766  29.458   1.225
71507W        W39925  29.174   0.752   2.305
71508W        W39926  38.347  13.195   3.812
71509W        W39927   9.828  44.305  12.854
71510W        W39928  13.272  34.053  11.570
71511W        W39929  33.969  33.876  13.387
71512W        W39930  28.146  17.287   2.826
71513W        W39931  29.980  41.824  13.496
71514W        W39932  16.209   5.291  11.043
71515W        W39933  39.336  33.508   0.948
71516W        W39934  32.998  28.122   1.431
71517W        W39935   1.927   0.807   3.795
71518W        W39936  22.539   1.294  13.392
71519W        W39937  22.104   1.918  10.439
71520W        W39938  28.035  40.030   0.442
71521W        W39939  22.224  11.193  13.538
71522W        W39940   1.412   7.884  14.949
71523W        W39941  34.882  12.736  10.040
71524W        W39942  24.658  33.103   3.677
71525W        W39943  23.151  11.758  13.882
71526W        W39944  11.622  23.065   3.249
71527W        W39945  30.032  26.658   4.288
71528W        W39946  44.963  26.015  10.614
71529W        W39947  16.108  14.745   1.908
71530W        W39948  33.551  25.031   2.780
71531W        W39949  27.080  36.953   4.164
71532W        W39950  39.947  14.717  11.919
71533W        W39951   9.371  14.287  14.863
71534W        W39952   8.391  15.200  12.879
71535W        W39953  42.319   1.795  12.347
71536W        W39954  19.248   6.304   4.611
71537W        W39955  42.435   7.868   3.167
71538W        W39956  22.675   6.349   5.228
71539W        W39957   6.343   7.909   2.832
71540W        W39958  44.788   5.223  10.479
71541W        W39959  10.736  20.523  13.548
71542W        W39960   1.345  33.450   2.777
71543W        W39961   8.819  41.948   1.713
71544W        W39962  41.537   8.710   0.324
71545W        W39963   8.837  22.521  14.441
71546W        W39964  29.562  38.342   3.707
71547W        W39965  19.178   1.419   4.645
71548W        W39966   6.361  39.972   1.850
71549W        W39967  31.507  16.269   1.231
71550W        W39968  28.080  39.963   3.687
71551W        W39969  27.150  42.030  14.303
71552W        W39970  18.712  29.069   3.796
71553W        W39971   3.370  23.098  13.341
71554W        W39972  30.524  34.998  13.843
71555W        W39973  31.505  36.371  13.937
71556W        W39974  12.713   8.179  10.460
71557W        W39975  36.440  36.891  11.446
71558W        W39976   5.336  10.638   3.667
71559W        W39977  15.708  26.601  14.423
71560W        W39978  30.025  19.208  11.480
71561W        W39979   6.687  27.591  11.389
71562W        W39980  32.449   1.360   3.359
71563W        W39981   0.274  38.889   3.831
71564W        W39982  12.322  38.045   4.247
71565W        W39983  33.097  44.753   0.252
71566W        W39984  27.527  32.499  11.588
71567W        W39985  24.663  44.984   4.612
71568W        W39986  40.950  14.670  10.505
71569W        W39987  42.522  31.068  10.522
71570W        W39988  27.004  38.881   1.432
71571W        W39989  31.563  19.065   0.285
71572W        W39990  34.903  20.527   2.865
71573W        W39991   0.433  13.770   2.356
71574W        W39992   9.835  33.494   3.737
71575W        W39993  14.332  20.182   1.359
71576W        W39994  43.427   8.706  14.994
71577W        W39995   6.794  30.053   1.797
71578W        W39996  14.790  33.036   1.299
71579W        W39997  24.056  13.837  11.888
71580W        W39998  32.400  25.060  14.867
71581W        W39999  24.991  30.922   1.847
71582W        W40000  35.461  12.612   3.368
71583W        W40001  16.644  41.999  12.917
71584W        W40002   9.838   7.214   1.889
71585W        W40003  43.278  11.293   0.815
71586W        W40004  12.291  17.256  11.579
71587W        W40005  16.682  24.690  14.771
71588W        W40006  24.596  43.854   1.220
71589W        W40007  23.196  22.207  13.496
71590W        W40008  28.067   1.402   0.799
71591W        W40009  38.561  22.565   2.220
71592W        W40010  12.161  13.800  14.357
71593W        W40011  12.653   1.796   1.328
71594W        W40012  30.540   7.235  11.051
71595W        W40013  10.705  39.524   2.742
71596W        W40014  29.044  36.894  14.990
71597W        W40015  33.533  42.861  11.959
71598W        W40016  26.988  34.518   2.188
71599W        W40017  11.716  20.184   2.185
71600W        W40018  32.627  27.961  11.865
71601W        W40019  41.460  41.020   0.925
71602W        W40020   6.344  26.195   0.879
71603W        W40021  17.557   0.280   4.227
71604W        W40022  43.771  18.785  10.938
71605W        W40023  40.991  41.008  10.519
71606W        W40024  26.547   6.357   0.467
71607W        W40025  10.830  23.235   1.404
71608W        W40026  23.560  38.039  13.838
71609W        W40027  16.598  35.563  12.514
71610W        W40028   7.243  21.216   2.671
71611W        W40029  41.324   0.473   2.714
71612W        W40030   0.804   2.356  12.575
71613W        W40031  44.474   5.351   2.748
71614W        W40032  38.903  19.221  12.824
71615W        W40033  12.216   4.832  10.086
71616W        W40034  10.670  20.669  10.447
71617W        W40035  30.161  21.068   3.757
71618W        W40036  40.019  43.969   3.653
71619W        W40037  11.729  43.860   3.236
71620W        W40038  16.675  33.936  11.047
71621W        W40039   6.769  24.681  13.490
71622W        W40040  12.223   9.272  11.610
71623W        W40041  40.816  41.792  11.440
71624W        W40042  28.566   9.848  10.589
71625W        W40043  23.513  35.048   4.235
71626W        W40044  26.639   2.907  14.982
71627W        W40045   8.747  29.493   3.724
71628W        W40046   5.325  15.579   1.767
71629W        W40047   1.849   4.937   1.414
71630W        W40048  35.478   5.371  10.617
71631W        W40049  22.119  40.491  11.551
71632W        W40050  15.297  24.598  13.913
71633W        W40051  11.337  14.280   2.699
71634W        W40052  20.262  26.517  13.395
71635W        W40053  35.590   7.296  10.582
71636W        W40054  38.402   6.869  12.463
71637W        W40055   9.163  32.957  11.414
71638W        W40056  10.858   3.394   1.697
71639W        W40057  34.869   8.171  11.991
71640W        W40058  38.542  35.957  11.945
71641W        W40059  20.628  32.466  12.547
71642W        W40060   2.913  19.069  12.518
71643W        W40061  37.991   4.848   4.778
71644W        W40062  36.518  28.452   4.744
71645W        W40063  34.459  26.658   9.984
71646W        W40064  14.664  19.663  11.450
71647W        W40065  41.895   3.371  11.926
71648W        W40066  34.596  38.050  14.343
71649W        W40067  10.182  29.105   2.730
71650W        W40068  29.104  40.421   2.893
71651W        W40069  36.980  16.173  12.870
71652W        W40070   1.255  27.527   3.673
71653W        W40071  26.644  39.387   3.328
71654W        W40072  28.520   0.251   1.795
71655W        W40073  35.026  21.040   1.265
71656W        W40074   9.382  38.957   2.234
71657W        W40075  42.975  31.943   0.958
71658W        W40076  39.347  26.124  13.539
71659W        W40077  19.176  14.638   2.331
71660W        W40078  32.403   7.714   1.785
71661W        W40079  23.622  19.279   1.890
71662W        W40080  18.715  16.195   4.182
71663W        W40081  14.654  39.847   3.838
71664W        W40082   7.775  32.081  14.929
71665W        W40083  16.676  43.339   2.370
71666W        W40084   5.803  32.488   1.354
71667W        W40085  42.875  29.451   1.229
71668W        W40086   6.358  18.148   4.230
71669W        W40087  18.735  11.225  11.115
71670W        W40088  28.655   8.369   3.835
71671W        W40089  14.160  11.323  12.382
71672W        W40090  42.016   2.728  11.440
71673W        W40091   3.949  21.695   5.317
71674W        W40092  13.676  19.285  11.408
71675W        W40093  29.962  33.885  13.940
71676W        W40094  37.847   4.312   1.355
71677W        W40095   5.318  31.926   0.332
71678W        W40096  30.001   6.301   4.300
71679W        W40097   4.268  30.448  12.938
71680W        W40098   1.481  16.599  12.546
71681W        W40099  16.617   0.469   2.790
71682W        W40100  11.652   7.775  11.928
71683W        W40101  15.671   3.289   0.245
71684W        W40102   1.276  30.070  14.772
71685W        W40103  32.948  35.895  14.030
71686W        W40104  16.119   0.759   3.270
71687W        W40105   3.765   3.429  12.526
71688W        W40106  27.095  23.998   3.636
71689W        W40107  11.760   8.760   5.122
71690W        W40108  16.575  28.659  13.995
71691W        W40109  10.291  27.565   3.270
71692W        W40110  23.711  33.396  13.396
71693W        W40111  35.038  33.450  14.018
71694W        W40112  19.162  20.120  13.310
71695W        W40113   2.403  15.653  13.844
71696W        W40114  40.385  23.191   0.304
71697W        W40115  15.760  36.570   4.739
71698W        W40116   8.401  34.546   4.671
71699W        W40117  29.138   3.757   2.755
71700W        W40118  41.293   3.259  10.507
71701W        W40119   1.386  28.631   0.954
71702W        W40120  29.592  36.948   3.258
71703W        W40121  19.720  34.455  12.879
71704W        W40122  11.242  25.053  10.991
71705W        W40123  35.079  18.163  13.844
71706W        W40124   5.821   9.319   0.871
71707W        W40125   3.849  10.250  12.911
71708W        W40126  27.179  13.329  11.057
71709W        W40127  19.183   6.844  13.385
71710W        W40128  35.091  10.283   0.432
71711W        W40129  25.074  33.590   1.876
71712W        W40130  38.988  42.296   0.931
71713W        W40131  30.477  26.465   3.331
71714W        W40132  13.225  42.894   2.266
71715W        W40133  37.375  36.995   5.775
71716W        W40134  12.362  25.032   0.481
71717W        W40135  38.008   3.299   1.738
71718W        W40136  36.076  22.241  14.964
71719W        W40137  38.331   2.851   2.888
71720W        W40138   8.761  36.477   2.682
71721W        W40139  30.923  41.531   3.844
71722W        W40140   0.903  33.951  13.885
71723W        W40141  18.182  17.258  14.440
71724W        W40142  44.933  25.594  12.555
71725W        W40143  22.522  27.033  12.959
71726W        W40144  41.325  12.319  13.332
71727W        W40145  32.897   3.407  14.385
71728W        W40146  42.443  37.842  13.878
71729W        W40147  33.472   4.899   1.768
71730W        W40148  31.404  38.986  12.961
71731W        W40149   5.303  40.896   1.276
71732W        W40150  38.534  32.624  14.874
71733W        W40151  13.136  19.214   3.260
71734W        W40152  44.493  13.736  13.034
71735W        W40153  11.759  22.541  13.911
71736W        W40154  19.604   6.799  14.346
71737W        W40155  36.590  25.683  14.965
71738W        W40156  42.459  39.864   3.765
71739W        W40157  16.079   2.822   1.249
71740W        W40158  42.411  38.340   3.283
71741W        W40159  32.971  13.626   3.826
71742W        W40160  38.882   0.827   1.827
71743W        W40161   1.851  44.446   2.888
71744W        W40162  26.587  39.473  14.811
71745W        W40163  10.798  36.005  12.853
71746W        W40164  12.721  16.673  11.088
71747W        W40165  13.139   1.389   0.427
71748W        W40166  22.166   3.737  10.506
71749W        W40167   5.420  11.829  11.398
71750W        W40168   5.372  41.400  11.599
71751W        W40169  33.993  15.727   4.354
71752W        W40170  20.186  18.784   2.282
71753W        W40171  25.521  39.377   4.746
71754W        W40172   0.820  35.577  13.541
71755W        W40173   3.809  37.953   4.827
71756W        W40174  15.727   4.835   0.396
71757W        W40175  28.469   8.199  13.058
71758W        W40176  41.435   7.411  14.291
71759W        W40177   2.887  24.994  11.901
71760W        W40178  28.636  34.589   3.264
71761W        W40179   8.301  20.035   2.200
71762W        W40180   1.327  30.913   3.269
71763W        W40181  20.243  25.179   4.674
71764W        W40182  21.722  11.172   4.234
71765W        W40183  25.151   3.242  14.940
71766W        W40184   7.811  30.443   4.675
71767W        W40185  31.557  19.201   1.272
71768W        W40186  21.527  40.902   3.642
71769W        W40187  26.149  33.481   3.740
71770W        W40188  36.353  29.049   4.655
71771W        W40189  12.118  22.732   3.208
71772W        W40190  33.892   2.326  13.496
71773W        W40191  33.600  20.133  14.936
71774W        W40192  36.563  29.071  12.939
71775W        W40193  44.962  36.501  14.785
71776W        W40194  43.836  21.600  12.003
71777W        W40195   2.421  35.920   2.776
71778W        W40196  44.494  25.985   2.334
71779W        W40197   0.792  18.194  13.336
71780W        W40198  38.953  15.622  11.010
71781W        W40199  27.503  44.480  14.295
71782W        W40200  19.215  24.603   3.713
71783W        W40201  33.107   0.834  14.362
71784W        W40202  37.535  39.521   0.272
71785W        W40203  15.700  20.692  10.471
71786W        W40204  23.593  30.572  12.482
71787W        W40205  27.659  39.484  14.429
71788W        W40206  36.083  16.187  13.509
71789W        W40207  20.061  39.875   0.362
71790W        W40208  10.683   7.250  13.474
71791W        W40209  20.129  13.727   5.565
71792W        W40210  13.725  15.752   1.703
71793W        W40211  39.859  23.584   2.391
71794W        W40212  26.142  36.950   3.298
71795W        W40213  14.820  25.119  12.395
71796W        W40214  22.523  43.349  11.028
71797W        W40215  44.966  13.315   2.354
71798W        W40216   8.844  25.083   3.231
71799W        W40217  14.116  43.001   4.170
71800W        W40218  14.201   6.826   5.294
71801W        W40219  44.918  21.214  14.343
71802W        W40220  41.806  37.454   0.393
71803W        W40221  26.575  18.215  11.954
71804W        W40222  43.280   7.748   1.423
71805W        W40223  21.658   5.269   2.787
71806W        W40224   3.945  11.785   0.832
71807W        W40225  16.638   1.422   1.728
71808W        W40226  24.481  10.220  11.103
71809W        W40227  43.373  23.180  14.941
71810W        W40228  24.673  12.354   3.216
71811W        W40229  36.422  29.621   1.905
71812W        W40230  44.417  21.142   1.761
71813W        W40231  32.423  44.458  12.010
71814W        W40232  18.158  13.132   0.961
71815W        W40233  32.011  31.098   4.777
71816W        W40234  20.232  31.962   3.385
71817W        W40235  11.363  10.157  10.925
71818W        W40236  12.271  35.428   0.277
71819W        W40237   8.350  12.180   4.220
71820W        W40238  40.437  20.647  13.968
71821W        W40239  17.595  24.592  13.971
71822W        W40240  39.888   1.333  13.978
71823W        W40241  41.938  20.118  13.417
71824W        W40242   6.217  41.333   2.667
71825W        W40243  29.575  36.551   1.447
71826W        W40244  43.370  33.429  11.441
71827W        W40245  35.371  18.137  14.324
71828W        W40246   0.955  19.592  14.483
71829W        W40247  33.462  20.133   1.369
71830W        W40248  16.311   2.294   4.759
71831W        W40249   8.246  10.848  13.489
71832W        W40250   2.328  14.313  10.923
71833W        W40251   1.296   4.209  12.074
71834W        W40252  22.529  15.211  14.991
71835W        W40253  44.863  32.938  11.035
71836W        W40254  35.937  30.085   2.192
71837W        W40255  25.209  38.912  12.052
71838W        W40256  37.993   8.825  12.892
71839W        W40257  11.173  40.428   3.345
71840W        W40258   0.432  10.684   4.337
71841W        W40259   7.754  33.076   1.359
71842W        W40260  24.999  27.544   1.317
71843W        W40261   6.831  13.769  10.894
71844W        W40262   4.317  10.225  11.117
71845W        W40263  25.201  13.205  13.869
71846W        W40264   2.335  42.497   2.756
71847W        W40265  23.645  41.397  11.461
71848W        W40266  12.724  41.934  13.394
71849W        W40267  18.249  17.232   3.226
71850W        W40268  44.469   6.182   3.305
71851W        W40269  20.677   7.782   4.640
71852W        W40270  28.044  18.059  13.014
71853W        W40271  20.039  11.341   5.670
71854W        W40272  31.046  44.330   1.403
71855W        W40273  18.125   4.775   0.378
71856W        W40274  34.397   5.364   3.310
71857W        W40275  18.072  28.147   3.843
71858W        W40276   5.849  22.243  13.875
71859W        W40277  17.784  30.473  11.564
71860W        W40278  42.786  39.460   3.284
71861W        W40279   3.254  23.997   0.386
71862W        W40280  16.097   4.403   3.165
71863W        W40281  40.342   4.830   0.268
71864W        W40282  26.697  32.041  12.439
71865W        W40283  22.016  28.080   2.896
71866W        W40284  41.462  37.880   1.405
71867W        W40285  26.191  28.585   0.383
71868W        W40286  29.155   7.333  14.015
71869W        W40287  15.715  16.611   1.772
71870W        W40288   4.324  44.969  13.030
71871W        W40289  29.060  24.049   4.682
71872W        W40290  20.689  14.671   1.716
71873W        W40291  13.120  42.337   3.646
71874W        W40292  20.106  13.727  13.839
71875W        W40293  12.798  15.671  13.455
71876W        W40294  33.978  35.523   4.290
71877W        W40295  32.951  43.398  12.970
71878W        W40296  26.509  22.682  10.538
71879W        W40297  30.148  17.073   3.820
71880W        W40298   5.308  23.645  11.448
71881W        W40299  24.710  30.098   2.848
71882W        W40300  13.745   8.321   2.277
71883W        W40301  37.896  19.675  13.063
71884W        W40302  19.716  38.854  10.440
71885W        W40303  25.582  41.419  10.438
71886W        W40304  12.727  39.327   1.842
71887W        W40305  28.048  37.041  13.519
71888W        W40306  19.671  26.174   3.839
71889W        W40307   2.416  12.214  10.993
71890W        W40308  17.178  22.743   3.695
71891W        W40309  39.317  36.969   3.671
71892W        W40310  15.633  10.378  10.413
71893W        W40311  40.030   7.770  10.569
71894W        W40312  14.300  19.770   2.342
71895W        W40313  42.493   7.213  10.581
71896W        W40314  10.825  39.340  13.050
71897W        W40315  26.701  22.727  13.998
71898W        W40316  42.985  43.921   3.706
71899W        W40317  44.366  44.753   0.473
71900W        W40318  43.790  33.513  12.436
71901W        W40319  24.703  14.626   2.865
71902W        W40320   3.312  28.995   1.347
71903W        W40321   3.880  35.518  13.822
71904W        W40322  14.636   5.890   0.409
71905W        W40323  32.460  35.471  12.012
71906W        W40324  31.974  41.339   0.909
71907W        W40325   9.709  24.056   3.789
71908W        W40326  29.105   5.402   4.116
71909W        W40327  38.393  18.209   3.253
71910W        W40328  24.553  31.123   2.277
71911W        W40329  40.844  29.166  10.641
71912W        W40330  43.320  16.104  14.417
71913W        W40331  44.861  31.017  12.020
71914W        W40332  27.072  28.028  13.042
71915W        W40333   8.178  37.912   3.787
71916W        W40334  24.111  16.725   3.154
71917W        W40335  20.769  21.603   3.845
71918W        W40336  41.957   0.926   3.341
71919W        W40337   4.217  13.666   4.730
71920W        W40338  18.776  43.855  10.889
71921W        W40339  26.181   3.898  12.862
71922W        W40340  22.721  33.025  11.481
71923W        W40341  38.569  28.039   4.799
71924W        W40342  43.514  29.578  14.443
71925W        W40343  22.094   9.856   4.145
71926W        W40344  29.124  19.221  11.527
71927W        W40345   4.252  13.244  13.897
71928W        W40346  29.607  21.219   3.369
71929W        W40347  35.548  26.517   4.293
71930W        W40348  15.310  37.526  11.583
71931W        W40349  27.465  35.039   1.741
71932W        W40350  42.439  35.370  13.954
71933W        W40351  41.865   8.746  14.878
71934W        W40352  15.306  36.373   0.805
71935W        W40353  17.283  11.167   0.327
71936W        W40354   2.397  29.019  11.482
71937W        W40355  44.394  37.401  11.099
71938W        W40356   8.228  23.103   0.450
71939W        W40357  26.469  15.745  14.911
71940W        W40358  28.057  16.183  14.803
71941W        W40359  24.057  31.566  11.889
71942W        W40360   3.832  35.065   1.851
71943W        W40361  10.233  43.809   2.792
71944W        W40362  11.698  33.420  11.873
71945W        W40363  22.092  31.462  13.996
71946W        W40364  36.499  12.760   2.841
71947W        W40365  36.897  41.375  13.441
71948W        W40366  42.396  17.150  12.998
71949W        W40367   9.693  41.003   1.705
71950W        W40368  30.940  28.119   3.319
71951W        W40369   8.357  21.045   1.854
71952W        W40370  15.664  13.328  11.070
71953W        W40371  39.889  43.855   1.912
71954W        W40372  13.685  28.531  13.428
71955W        W40373   9.886   8.263  13.474
71956W        W40374   4.295  26.672   4.270
71957W        W40375  35.389  14.155   0.475
71958W        W40376  31.128  24.704  14.851
71959W        W40377  15.808  43.771  10.142
71960W        W40378  20.683   2.301   0.826
71961W        W40379   9.674   7.865  13.814
71962W        W40380  16.637   1.971  11.588
71963W        W40381  19.232  11.801  10.116
71964W        W40382  10.163  33.416   3.740
71965W        W40383  31.414  39.552  14.889
71966W        W40384  21.030  40.306  14.338
71967W        W40385  37.362  32.431  11.420
71968W        W40386  25.148  26.465   2.784
71969W        W40387   8.311  26.021  10.999
71970W        W40388  37.954  22.155   1.772
71971W        W40389  21.571  27.477   0.783
71972W        W40390   0.972   8.737   3.310
71973W        W40391  26.660  31.598   2.839
71974W        W40392  39.501  17.197  14.957
71975W        W40393   6.793   2.944  12.952
71976W        W40394  40.529  39.883   1.899
71977W        W40395  23.081  10.341   3.351
71978W        W40396  40.380   0.255  14.307
71979W        W40397  30.657  42.817  12.855
71980W        W40398  28.073   7.228  11.536
71981W        W40399   5.837  21.257   1.420
71982W        W40400   0.347  34.035   3.794
71983W        W40401  27.957  28.016  13.817
71984W        W40402   5.866  18.638   4.692
71985W        W40403   3.388  19.264   1.763
71986W        W40404  20.032  43.362  13.359
71987W        W40405  22.514  14.281   3.348
71988W        W40406   7.768  13.750  13.434
71989W        W40407   6.826  37.877  12.827
71990W        W40408   1.810  16.263   0.343
71991W        W40409   4.302  37.958   3.209
71992W        W40410  35.911  23.647   4.202
71993W        W40411  29.563  32.963  14.786
71994W        W40412  13.340  24.047   3.829
71995W        W40413  22.670   2.455  13.433
71996W        W40414  19.279  12.285   3.360
71997W        W40415  23.135  35.418  11.585
71998W        W40416  34.515   2.948   0.910
71999W        W40417  38.549   6.693  13.805
72000W        W40418  26.983   3.875   1.748
72001W        W40419  22.035  31.589  13.481
72002W        W40420   1.738  35.483  11.049
72003W        W40421  23.993   2.302  13.530
72004W        W40422  41.944  16.785   1.235
72005W        W40423  19.647  24.179  14.505
72006W        W40424  43.282  19.229  10.611
72007W        W40425  27.940  42.338   2.848
72008W        W40426  20.609  20.560   2.713
72009W        W40427  39.008  38.554  11.017
72010W        W40428  10.203  40.451   2.341
72011W        W40429  30.446  42.507  12.349
72012W        W40430  11.133  17.219   4.618
72013W        W40431  18.749  30.485  13.024
72014W        W40432  42.345   5.743  14.923
72015W        W40433  16.570  29.038  14.795
72016W        W40434  37.418  17.084   3.263
72017W        W40435   5.865  33.126  14.789
72018W        W40436  31.981  12.662  11.437
72019W        W40437  21.075   9.790   2.725
72020W        W40438   7.757  17.078  12.430
72021W        W40439  43.488   6.321  11.958
72022W        W40440  16.107  20.036   2.393
72023W        W40441  22.616   5.379  13.821
72024W        W40442   5.873  20.684   1.751
72025W        W40443   7.720  13.214   0.960
72026W        W40444   5.266  41.523  12.566
72027W        W40445   2.307  32.628   3.851
72028W        W40446  42.520   9.748  14.310
72029W        W40447  37.384  39.977  13.345
72030W        W40448  37.079   8.327  14.008
72031W        W40449  42.441  27.608  11.974
72032W        W40450  24.644   3.911  13.392
72033W        W40451  29.159  28.002  13.826
72034W        W40452   9.239  39.501  11.967
72035W        W40453   9.840  18.738   4.751
72036W        W40454   2.397  36.358  13.334
72037W        W40455  42.015  14.244   2.327
72038W        W40456  22.516   4.941   1.229
72039W        W40457  29.942  21.581  14.914
72040W        W40458   7.743  31.505  13.938
72041W        W40459  23.622  39.902   3.295
72042W        W40460  33.476  41.024   5.292
72043W        W40461  20.606  42.473   0.304
72044W        W40462  23.185  19.617  11.999
72045W        W40463  20.585  30.495  12.080
72046W        W40464  18.081  25.061   1.347
72047W        W40465   4.761  11.840   3.672
72048W        W40466  41.852  12.249   3.672
72049W        W40467  38.819  42.888  10.156
72050W        W40468  37.041  42.306  13.035
72051W        W40469  11.213  37.891   1.929
72052W        W40470  30.026  38.453  12.888
72053W        W40471  43.819  14.153   2.882
72054W        W40472  29.602  37.835  13.023
72055W        W40473  12.268  19.632   4.193
72056W        W40474   7.766   8.666  14.860
72057W        W40475   2.344  24.125  12.012
72058W        W40476  33.987  32.446   3.840
72059W        W40477  28.978  39.038   1.422
72060W        W40478  25.115   2.861  10.895
72061W        W40479  31.950  23.085  13.324
72062W        W40480  29.604  21.142  12.024
72063W        W40481   3.342  16.126  13.434
72064W        W40482  30.154   8.237  14.801
72065W        W40483  28.082  24.186  10.486
72066W        W40484   7.787  29.061  13.389
72067W        W40485  32.434  35.530   4.186
72068W        W40486  41.988  20.636   1.443
72069W        W40487  15.806  39.499  12.854
72070W        W40488  26.011   7.678   1.215
72071W        W40489  33.489  20.738   3.155
72072W        W40490   2.763  38.001  12.882
72073W        W40491   2.787  32.141   1.412
72074W        W40492  44.784  34.376   2.740
72075W        W40493  35.488  40.386   2.261
72076W        W40494  27.623  14.607   3.285
72077W        W40495   5.290   0.880  10.487
72078W        W40496  41.824  23.587   1.408
72079W        W40497   2.324  13.644   0.473
72080W        W40498  44.386  37.005   2.301
72081W        W40499  27.525   9.889   3.779
72082W        W40500  25.115  19.125  14.326
72083W        W40501  15.767  19.237  12.949
72084W        W40502  36.404  17.654   2.207
72085W        W40503  13.261   0.780  13.452
72086W        W40504  35.991  32.024  13.409
72087W        W40505  26.629   1.307   1.721
72088W        W40506  38.913  20.197  10.109
72089W        W40507   4.777   7.879  14.403
72090W        W40508  10.216  32.971   4.294
72091W        W40509  34.090  42.519  13.957
72092W        W40510   5.282  35.473   3.681
72093W        W40511  38.470  42.937  14.458
72094W        W40512  39.852  28.586   3.212
72095W        W40513  29.077  36.406   4.759
72096W        W40514  11.297   9.754  11.611
72097W        W40515  31.112  36.419   1.266
72098W        W40516   0.791   6.781   1.380
72099W        W40517  43.282  36.451   4.163
72100W        W40518  44.504  30.147   3.261
72101W        W40519   5.386  12.162   0.304
72102W        W40520  40.362  17.231  14.759
72103W        W40521  35.423  10.279  11.966
72104W        W40522  15.274   4.247   3.804
72105W        W40523  41.834  24.697  11.536
72106W        W40524   1.769  32.015   2.859
72107W        W40525   7.214  30.428  11.447
72108W        W40526  10.787  43.388  13.423
72109W        W40527  17.598   1.270   1.242
72110W        W40528  44.397  29.141  11.997
72111W        W40529   0.875   5.750  12.348
72112W        W40530  12.823  31.417   0.247
72113W        W40531  11.313  22.165  10.927
72114W        W40532  29.449  40.849  10.570
72115W        W40533  23.169  19.726   4.287
72116W        W40534  21.216  33.030  12.963
72117W        W40535  27.089  44.958   2.813
72118W        W40536  30.090  28.590  10.628
72119W        W40537  36.992  18.284  11.572
72120W        W40538  44.871  13.816  14.508
72121W        W40539   2.884  41.809   3.807
72122W        W40540   7.705  30.591  14.305
72123W        W40541  15.600   4.233  14.786
72124W        W40542  39.486   0.276  12.955
72125W        W40543  17.231  39.905  14.495
72126W        W40544  12.786   9.787  11.923
72127W        W40545  13.326   4.880   2.863
72128W        W40546  33.913   1.793  11.473
72129W        W40547  27.564   2.897  14.923
72130W        W40548  23.093  38.528   5.083
72131W        W40549  25.059  14.754   2.233
72132W        W40550  30.042  19.208  14.299
72133W        W40551  26.083  20.113  10.436
72134W        W40552  19.711  16.073   0.293
72135W        W40553   9.220  30.621  14.387
72136W        W40554  23.087   1.341  12.501
72137W        W40555  13.295   9.364   3.378
72138W        W40556  12.234  28.150   3.730
72139W        W40557  10.767   1.472   3.693
72140W        W40558   9.647  38.965   4.747
72141W        W40559  32.530  23.693   2.338
72142W        W40560  37.528   4.701  11.478
72143W        W40561   4.887  15.314  14.913
72144W        W40562  27.602  37.904   1.890
72145W        W40563   2.885  42.943   2.738
72146W        W40564  29.115  35.066  11.865
72147W        W40565  28.596  22.636  11.104
72148W        W40566  32.464  40.423  11.063
72149W        W40567  29.169  41.042  12.002
72150W        W40568  38.838  38.354   0.742
72151W        W40569  27.133  43.476   3.285
72152W        W40570   9.370  44.354   3.746
72153W        W40571  37.032  21.146  14.474
72154W        W40572  23.012  29.583   1.891
72155W        W40573   4.292  15.818  13.324
72156W        W40574  25.156  30.077   4.753
72157W        W40575  44.943  32.076   0.953
72158W        W40576  25.163  35.458  14.466
72159W        W40577  26.466  28.943  14.858
72160W        W40578  32.620  22.669  10.616
72161W        W40579  43.450  41.954   9.557
72162W        W40580  17.667  29.666   1.236
72163W        W40581   8.398   8.269  14.283
72164W        W40582  34.106  14.717  11.000
72165W        W40583  36.519  30.122   0.312
72166W        W40584  29.479  18.256   4.645
72167W        W40585  40.863  14.108   2.844
72168W        W40586  26.191  13.312   0.341
72169W        W40587   5.251   5.690   3.819
72170W        W40588  37.982  15.107  10.899
72171W        W40589   3.738  38.866  12.522
72172W        W40590  17.246   9.781   3.676
72173W        W40591   8.849  32.020  14.324
72174W        W40592   0.892   3.882  11.524
72175W        W40593  25.577  28.153  14.495
72176W        W40594   6.759   8.235  13.013
72177W        W40595  30.106   3.436   0.341
72178W        W40596  17.778  27.642   0.736
72179W        W40597  10.307  42.960   0.431
72180W        W40598  11.866  36.860  11.403
72181W        W40599  38.415  28.129  14.468
72182W        W40600  17.131  12.732  13.889
72183W        W40601   9.862   8.704   4.820
72184W        W40602  40.961  26.529  12.540
72185W        W40603  39.453  28.503   4.139
72186W        W40604  44.923   4.412  12.841
72187W        W40605  18.631  32.950  13.913
72188W        W40606  28.592  11.799   2.873
72189W        W40607  13.811  12.637  12.413
72190W        W40608  36.504  32.568  11.396
72191W        W40609  17.150  20.151   1.354
72192W        W40610  15.249  14.303   2.895
72193W        W40611  26.559  21.125  10.605
72194W        W40612  29.075  22.203  14.317
72195W        W40613   2.279  26.168  11.125
72196W        W40614  21.104   4.382   4.749
72197W        W40615  16.110  10.794   2.323
72198W        W40616   7.757  31.088   0.477
72199W        W40617  11.731  39.961   1.305
72200W        W40618   5.405  17.710  11.956
72201W        W40619  12.634  36.413  12.417
72202W        W40620   4.310   7.835  11.537
72203W        W40621  28.148   2.846  12.857
72204W        W40622  20.607   5.406  11.016
72205W        W40623  11.865   7.264   5.251
72206W        W40624  37.552  31.487  13.030
72207W        W40625   2.232  29.117   3.386
72208W        W40626  24.044  15.124   1.856
72209W        W40627  32.579  30.623  14.482
72210W        W40628  17.214   1.284  12.345
72211W        W40629   9.803   0.470   1.381
72212W        W40630   4.260   9.283   0.412
72213W        W40631  36.515  15.766  13.453
72214W        W40632   8.321  14.831   4.259
72215W        W40633  12.737  27.184   0.270
72216W        W40634   2.318   5.695  12.399
72217W        W40635  35.037   6.382   4.642
72218W        W40636  39.552  39.979  13.900
72219W        W40637   9.308  43.867   1.928
72220W        W40638  24.087  10.192  10.923
72221W        W40639  42.031  34.536  13.416
72222W        W40640   9.245  16.646   1.242
72223W        W40641  21.665  13.138  10.994
72224W        W40642  38.947   0.285  14.888
72225W        W40643  24.979  18.200  12.389
72226W        W40644  42.422  35.956   4.675
72227W        W40645  11.177  11.712  13.951
72228W        W40646  36.860   1.333  11.944
72229W        W40647  34.533  44.940  14.032
72230W        W40648  23.605  36.930  11.528
72231W        W40649  15.314  26.133  12.547
72232W        W40650   2.386  10.227   1.224
72233W        W40651  10.787  26.185  14.378
72234W        W40652  29.153  32.396  11.888
72235W        W40653   5.714  30.648   0.339
72236W        W40654   6.697  44.387   9.994
72237W        W40655   3.420   9.751   3.241
72238W        W40656  30.517  13.658   2.375
72239W        W40657  36.917  12.789  13.403
72240W        W40658  38.469  16.586  14.496
72241W        W40659  20.069  20.733   1.703
72242W        W40660  36.909  12.234   2.335
72243W        W40661  41.817  29.022   3.291
72244W        W40662  24.569  34.491   0.823
72245W        W40663  33.909   7.880   1.449
72246W        W40664  28.668  12.202  13.343
72247W        W40665  13.689  18.573  13.339
72248W        W40666  19.242  14.108   3.648
72249W        W40667  26.033  44.818   2.297
72250W        W40668  14.105  31.042  12.908
72251W        W40669  30.429   2.751  11.859
72252W        W40670  13.600   4.323  12.401
72253W        W40671   4.910  25.188  12.524
72254W        W40672  28.532  24.146  12.343
72255W        W40673  13.237   5.798   1.813
72256W        W40674   4.442  24.691  11.390
72257W        W40675  35.406   3.230   2.331
72258W        W40676  20.142  32.090  10.621
72259W        W40677   5.285   7.317  13.866
72260W        W40678  36.078   4.800  10.546
72261W        W40679  39.540  28.467   3.681
72262W        W40680  15.622  29.455   4.200
72263W        W40681  12.679  36.039  11.985
72264W        W40682   6.359  24.998   4.743
72265W        W40683   9.667  35.600  14.512
72266W        W40684  20.698  17.645  12.478
72267W        W40685  17.610  11.792   3.636
72268W        W40686  41.396  33.886  10.525
72269W        W40687   4.890  39.409  14.967
72270W        W40688  41.909   5.802  11.593
72271W        W40689  24.527   3.795   4.315
72272W        W40690  27.535   1.316  14.958
72273W        W40691  10.183  36.010  10.419
72274W        W40692  25.507  31.422  14.319
72275W        W40693  39.451  33.081   1.230
72276W        W40694  10.253  31.140   4.805
72277W        W40695  34.467  11.708   3.652
72278W        W40696  11.704  22.194   1.918
72279W        W40697  31.113   9.829   3.639
72280W        W40698  36.027  43.973   2.893
72281W        W40699  25.058   3.399   3.708
72282W        W40700   5.692   0.379   0.932
72283W        W40701  17.614   8.198  10.543
72284W        W40702  31.932   9.324  14.380
72285W        W40703  20.609   6.919   1.256
72286W        W40704  39.869   6.357  10.503
72287W        W40705  41.346  15.156   0.314
72288W        W40706  11.167  25.679   4.723
72289W        W40707  37.455  26.162   1.842
72290W        W40708   8.263  37.901   1.400
72291W        W40709   7.289   5.195   1.847
72292W        W40710   2.740  12.753  12.352
72293W        W40711  10.267  38.026  14.780
72294W        W40712  27.139  26.505   2.304
72295W        W40713  38.047  12.611   3.842
72296W        W40714   7.410  16.282  12.469
72297W        W40715   6.842  26.580   4.838
72298W        W40716  24.482  38.821  11.040
72299W        W40717   7.745  15.778  11.509
72300W        W40718   2.360  28.062  12.577
72301W        W40719   5.895   6.231   1.913
72302W        W40720   4.318  14.632  14.303
72303W        W40721  35.105  27.095   2.687
72304W        W40722  42.856  29.962   4.732
72305W        W40723  39.972  38.996   4.622
72306W        W40724  40.973  24.574  12.048
72307W        W40725  44.004  12.261  11.411
72308W        W40726  13.270  28.020   2.729
72309W        W40727  20.168  35.496  11.069
72310W        W40728  40.500   5.890   4.726
72311W        W40729  11.669  24.679   3.248
72312W        W40730  11.165  20.035  14.451
72313W        W40731  43.397  19.139   2.298
72314W        W40732  29.978  16.181   1.894
72315W        W40733  19.637  35.976  10.121
72316W        W40734  43.853  12.298   1.909
72317W        W40735  32.570   5.887   3.744
72318W        W40736  25.175   0.778  12.046
72319W        W40737  14.339  19.592   4.819
72320W        W40738  20.613  26.067   3.326
72321W        W40739  29.509  38.385  13.019
72322W        W40740  20.729  35.917   2.815
72323W        W40741  21.187  33.615   2.332
72324W        W40742  30.066   8.720   4.184
72325W        W40743  31.545  22.011  13.953
72326W        W40744  27.453   0.410  12.517
72327W        W40745  11.810  29.116   1.788
72328W        W40746  24.167  39.433   1.847
72329W        W40747   8.368  36.441  14.846
72330W        W40748   1.936  16.297   1.232
72331W        W40749  28.550  18.606   1.313
72332W        W40750   5.230  44.484   2.719
72333W        W40751   2.466  39.900   1.840
72334W        W40752  37.579  36.468  12.940
72335W        W40753   1.806  38.960   2.878
72336W        W40754  24.581  38.938  13.370
72337W        W40755  10.741   0.961   2.877
72338W        W40756  40.485  43.499  11.865
72339W        W40757   7.291  36.968  14.809
72340W        W40758  40.051  36.015   0.444
72341W        W40759   3.711  26.621   1.240
72342W        W40760   6.854  43.510   2.376
72343W        W40761  16.759  26.523   4.620
72344W        W40762  13.272  32.032   0.881
72345W        W40763   6.310   6.892  14.353
72346W        W40764  10.198   4.747   4.159
72347W        W40765   1.734  16.807   4.319
72348W        W40766  10.196  36.381   0.935
72349W        W40767  33.021  11.161  12.395
72350W        W40768  39.881   0.481   0.826
72351W        W40769  23.653  20.638  13.810
72352W        W40770  31.949  34.000   0.280
72353W        W40771  23.489  40.982   5.098
72354W        W40772  21.056  19.598   3.680
72355W        W40773  24.141  36.048  12.418
72356W        W40774  44.007  25.672  12.982
72357W        W40775  35.373  13.787  12.380
72358W        W40776  23.221  28.949  10.426
72359W        W40777  42.441  37.856  12.472
72360W        W40778  41.311  14.820   4.280
72361W        W40779  21.145  43.327  13.986
72362W        W40780  23.706  30.932   3.674
72363W        W40781   8.189  17.564   4.622
72364W        W40782  34.876   4.741  12.995
72365W        W40783  39.924  40.037  14.326
72366W        W40784  27.509  10.182   2.673
72367W        W40785   8.229   2.780   0.822
72368W        W40786  35.954  36.414   1.787
72369W        W40787  19.766  23.029  11.100
72370W        W40788  16.757  36.002  14.380
72371W        W40789  22.189  38.330  10.127
72372W        W40790  44.503  42.486  12.419
72373W        W40791  29.931   4.812   2.757
72374W        W40792  33.069   5.324  12.340
72375W        W40793   3.445  10.836   1.326
72376W        W40794  16.642  42.973   2.856
72377W        W40795   8.801  11.133   2.737
72378W        W40796  19.743  33.625   0.366
72379W        W40797  38.036   5.781   1.860
72380W        W40798  31.483   1.758   0.350
72381W        W40799  24.495  19.184  13.541
72382W        W40800  21.604  15.250   4.802
72383W        W40801  13.811  19.668  14.949
72384W        W40802  14.289  26.173   4.261
72385W        W40803  29.441  15.194   2.668
72386W        W40804  23.676  38.064  11.949
72387W        W40805  38.921  35.578  14.002
72388W        W40806  37.549  27.142  11.048
72389W        W40807  16.287  38.062   2.773
72390W        W40808  29.063   2.920  14.016
72391W        W40809   2.452  41.434  12.063
72392W        W40810  24.119   0.897  10.070
72393W        W40811   2.897  20.086  10.921
72394W        W40812  20.563   0.785   0.298
72395W        W40813   9.795  18.172  12.982
72396W        W40814  44.280  10.269   1.713
72397W        W40815  38.488  30.034   2.788
72398W        W40816  34.519  44.956   4.776
72399W        W40817  28.607   4.418   3.385
72400W        W40818   6.833   1.868  14.303
72401W        W40819   6.713  34.958  11.511
72402W        W40820  38.367  41.988   4.309
72403W        W40821  15.252   3.345  11.882
72404W        W40822   9.889  16.305   4.729
72405W        W40823  35.446  14.713   4.180
72406W        W40824  42.431  11.162  12.488
72407W        W40825  30.614  14.288  10.591
72408W        W40826  18.257   0.793  14.930
72409W        W40827  16.612  14.648  13.895
72410W        W40828  24.635  11.768  13.014
72411W        W40829  32.463  44.929  14.948
72412W        W40830  25.207  23.057   2.339
72413W        W40831  11.677   3.907  12.910
72414W        W40832  27.620  26.689   0.831
72415W        W40833  26.999  14.742  14.943
72416W        W40834  22.096  26.128   2.367
72417W        W40835   7.755  10.652  13.812
72418W        W40836  19.198  39.051  14.425
72419W        W40837   0.386  21.211  10.612
72420W        W40838  32.488  44.832   0.305
72421W        W40839   5.271  28.102   4.811
72422W        W40840  17.642  43.366  14.018
72423W        W40841  26.625   5.213  13.015
72424W        W40842  35.080  40.403   4.757
72425W        W40843   0.294  11.340  10.494
72426W        W40844  19.204  42.928  14.836
72427W        W40845  15.197  41.887   1.808
72428W        W40846  36.569  38.426  14.930
72429W        W40847   6.244   1.961  10.479
72430W        W40848   0.317  31.011  11.407
72431W        W40849  31.412  22.177  11.512
72432W        W40850  42.794  19.733  13.479
72433W        W40851  24.504  39.515  12.490
72434W        W40852   0.365  37.359   2.214
72435W        W40853  34.453  17.718  11.417
72436W        W40854  29.448  13.183   4.751
72437W        W40855  11.371  22.610   3.800
72438W        W40856   8.768  20.728   3.318
72439W        W40857  31.064   7.822   3.667
72440W        W40858  29.551  15.199   1.257
72441W        W40859   1.837  26.977   2.673
72442W        W40860   7.780  42.318   2.884
72443W        W40861  17.214  19.607   1.437
72444W        W40862  44.284   1.271  10.462
72445W        W40863  16.689  12.358  14.019
72446W        W40864  12.351  41.861  11.451
72447W        W40865  26.699  22.128  12.018
72448W        W40866   8.248  29.963   3.204
72449W        W40867  44.494  10.665   3.702
72450W        W40868  11.320   4.213   3.195
72451W        W40869   0.938  29.469  13.897
72452W        W40870  31.433  15.727   1.363
72453W        W40871  38.515  15.159  12.877
72454W        W40872   5.841  24.497   2.381
72455W        W40873  20.245  11.197   2.241
72456W        W40874  27.450  22.997   2.827
72457W        W40875  27.572  35.870   0.372
72458W        W40876  12.652  26.983   3.334
72459W        W40877  16.692  18.183  12.545
72460W        W40878  28.095  24.723  14.274
72461W        W40879  13.761   2.811  11.555
72462W        W40880  18.617   0.307  10.409
72463W        W40881   1.267  20.604   2.366
72464W        W40882  29.027  38.976   2.692
72465W        W40883  31.122  40.976  10.550
72466W        W40884   3.229  13.735   4.179
72467W        W40885  37.502  20.256  12.897
72468W        W40886  10.806  15.689   4.825
72469W        W40887  14.613   4.251   9.544
72470W        W40888  10.179  24.650   1.879
72471W        W40889  23.036  30.582  10.587
72472W        W40890  24.699  13.248  14.506
72473W        W40891  41.922  18.239   1.703
72474W        W40892  11.860  35.468   0.962
72475W        W40893  23.544   8.835   1.375
72476W        W40894  38.048   6.252   4.220
72477W        W40895  17.138  28.929  13.488
72478W        W40896  18.760  26.609   2.376
72479W        W40897  27.002   6.692   2.787
72480W        W40898   2.738   3.377   2.822
72481W        W40899  44.989  34.602  13.987
72482W        W40900  10.180  33.507   0.462
72483W        W40901  13.312  12.236  14.351
72484W        W40902  34.379   0.772   4.675
72485W        W40903  22.227   3.925  12.356
72486W        W40904  27.534   6.244  11.433
72487W        W40905  33.129   8.742   4.344
72488W        W40906  42.003  30.094   4.651
72489W        W40907   0.770  44.823  11.436
72490W        W40908  26.699  33.542   0.330
72491W        W40909  26.047  34.911  10.994
72492W        W40910  29.427  42.372   4.335
72493W        W40911   9.305  12.350   4.159
72494W        W40912  30.141  18.706  12.544
72495W        W40913  20.617  37.994  11.888
72496W        W40914  32.578  25.017  11.980
72497W        W40915   9.827  17.800  12.872
72498W        W40916   2.397  35.882  11.945
72499W        W40917  44.352  11.716  11.862
72500W        W40918  11.642  33.013   4.750
72501W        W40919  29.534   0.378   1.885
72502W        W40920  28.650  28.024  12.901
72503W        W40921  40.014  38.924  13.498
72504W        W40922  30.520   8.391   1.866
72505W        W40923   2.887  15.807  12.394
72506W        W40924  24.180  16.637   4.701
72507W        W40925  28.681  25.132  13.466
72508W        W40926  41.962  41.813   5.109
72509W        W40927  32.536  15.207   2.731
72510W        W40928  23.238  38.844  12.929
72511W        W40929   5.236  38.890  14.430
72512W        W40930  16.169  24.223   4.181
72513W        W40931  43.974   5.711   0.394
72514W        W40932  25.648  34.970  13.047
72515W        W40933  29.508  37.437   1.719
72516W        W40934  24.492  15.152   2.774
72517W        W40935   2.363   1.303  11.876
72518W        W40936  20.091  43.416  12.869
72519W        W40937  37.388   6.853  12.495
72520W        W40938  11.668  23.638   1.361
72521W        W40939  41.348   9.840  14.988
72522W        W40940  26.981  17.226   4.801
72523W        W40941  44.451  42.327   2.845
72524W        W40942  35.483  28.461   3.268
72525W        W40943  32.555   8.298  12.994
72526W        W40944  36.388   6.876   2.808
72527W        W40945  15.177   0.850  14.792
72528W        W40946   3.251  43.470  11.441
72529W        W40947  29.124  21.544   3.271
72530W        W40948  13.262  32.136   4.287
72531W        W40949   8.728  25.590  13.806
72532W        W40950  30.093  38.412   3.760
72533W        W40951  40.318   0.477   4.724
72534W        W40952  33.390  38.376   0.815
72535W        W40953   5.393  23.155   1.253
72536W        W40954  43.976  28.120  14.841
72537W        W40955  21.198  32.983  11.538
72538W        W40956  10.206  35.397  11.009
72539W        W40957  41.503  17.167  12.370
72540W        W40958  38.834   6.833  14.011
72541W        W40959   5.801   1.439   0.342
72542W        W40960   6.878  32.927  13.350
72543W        W40961  43.989  29.487   0.855
72544W        W40962   5.287  19.683  10.472
72545W        W40963  28.129   7.699   1.340
72546W        W40964  26.962  21.598   4.352
72547W        W40965  16.072  30.097   3.711
72548W        W40966  11.622  34.036   3.786
72549W        W40967  15.118  32.528  15.000
72550W        W40968  21.137  21.042   0.760
72551W        W40969  38.357  34.979   3.263
72552W        W40970  26.205  43.879   1.725
72553W        W40971  23.607  26.189   1.884
72554W        W40972  13.199  28.064  14.990
72555W        W40973  17.705  29.530  13.794
72556W        W40974  19.123  31.527  13.477
72557W        W40975  21.157  31.136   3.294
72558W        W40976   1.447  24.087   0.387
72559W        W40977  25.702   2.852  10.919
72560W        W40978  26.044   1.278  14.990
72561W        W40979  20.141  30.455   0.302
72562W        W40980  10.162  30.986  12.362
72563W        W40981   3.280  43.020   0.365
72564W        W40982  14.312  21.652   3.789
72565W        W40983  19.698  36.404   2.732
72566W        W40984  39.316   7.828  14.330
72567W        W40985  41.471  39.489  13.827
72568W        W40986  17.746   5.327  12.959
72569W        W40987  33.433   4.728  11.922
72570W        W40988  36.457   0.308  11.387
72571W        W40989   1.321  31.948   2.766
72572W        W40990  35.395  14.801   4.835
72573W        W40991  40.826  37.897  12.039
72574W        W40992  39.333  19.700  10.921
72575W        W40993   4.248  11.281   2.728
72576W        W40994  43.460  16.583   1.235
72577W        W40995  18.581   7.894   1.240
72578W        W40996  10.651  19.670  10.953
72579W        W40997  15.671  28.947   2.783
72580W        W40998  12.833  17.565  12.009
72581W        W40999  22.234  28.662   3.655
72582W        W41000  35.906  17.078   3.827
72583W        W41001  21.565  39.555   3.680
72584W        W41002  28.952  28.008   0.967
72585W        W41003  43.934  16.117   1.875
72586W        W41004  17.091   1.740   3.152
72587W        W41005  28.109  13.277   0.257
72588W        W41006  40.966   6.378  10.903
72589W        W41007  23.234  39.033  11.982
72590W        W41008  31.641   0.805   1.858
72591W        W41009  34.086  19.589  14.364
72592W        W41010  18.600  29.561   0.381
72593W        W41011  21.549  30.159   0.810
72594W        W41012   4.709  22.528  10.497
72595W        W41013  35.457  16.644   2.883
72596W        W41014  21.081   5.792  12.045
72597W        W41015  32.047  14.589   0.881
72598W        W41016  39.922   0.742   0.918
72599W        W41017  26.602  14.269   1.826
72600W        W41018  34.410  37.075   5.131
72601W        W41019  43.911  34.406  14.316
72602W        W41020  18.280  13.232  11.033
72603W        W41021  25.974   7.356   3.323
72604W        W41022   0.816  12.679   0.846
72605W        W41023  34.577  28.080   3.697
72606W        W41024  31.119  32.555   0.864
72607W        W41025  10.803   4.252   4.303
72608W        W41026  41.335  37.874   3.855
72609W        W41027  24.978  18.072   4.160
72610W        W41028   6.807   8.181   4.233
72611W        W41029  33.012  28.023   1.829
72612W        W41030  32.074  19.683  12.479
72613W        W41031  11.764   1.762  14.443
72614W        W41032  31.137  19.258  12.837
72615W        W41033   1.973  20.698   9.989
72616W        W41034  42.312   4.763  14.831
72617W        W41035  41.027  25.042  10.975
72618W        W41036  15.714  36.526   3.823
72619W        W41037  29.584   9.155   0.877
72620W        W41038  32.127  42.954   0.837
72621W        W41039  17.166  27.942  13.860
72622W        W41040  19.573  25.073   3.829
72623W        W41041  43.929  41.023  13.803
72624W        W41042  27.665  11.292   4.714
72625W        W41043   3.396  11.286  12.091
72626W        W41044  35.893  41.904   3.825
72627W        W41045  18.668  30.476  13.953
72628W        W41046  11.855  39.874   3.770
72629W        W41047  35.090  14.740  13.336
72630W        W41048   3.929  21.186  12.544
72631W        W41049   1.803   1.325  12.856
72632W        W41050  34.873  35.986   5.275
72633W        W41051  27.686   1.811   2.677
72634W        W41052  44.486  24.483   3.854
72635W        W41053  38.340  35.512  13.413
72636W        W41054  39.849  37.411  12.475
72637W        W41055   7.785   3.450   0.759
72638W        W41056  12.658  11.345   2.898
72639W        W41057  29.438  32.962  10.929
72640W        W41058  39.991  15.101   2.828
72641W        W41059  16.199  10.367  10.891
72642W        W41060   0.423  21.557   4.243
72643W        W41061  19.267  29.059   4.642
72644W        W41062   0.250  23.523  11.106
72645W        W41063  14.315  34.436  10.616
72646W        W41064  34.555  25.686   2.748
72647W        W41065   4.909  24.572   3.385
72648W        W41066   1.254  39.814   0.407
72649W        W41067  24.541  35.073  13.502
72650W        W41068  37.876  32.956   3.794
72651W        W41069  35.429   6.296   3.148
72652W        W41070  10.855  41.968  14.007
72653W        W41071   8.254  37.556   3.705
72654W        W41072  35.430   2.882  11.512
72655W        W41073  23.589  40.502  14.463
72656W        W41074   2.378  10.301  11.446
72657W        W41075   0.938  33.059  14.380
72658W        W41076  31.060   4.864   0.740
72659W        W41077  32.610  14.715   2.235
72660W        W41078  25.708  18.756   2.414
72661W        W41079  10.271   8.304  13.045
72662W        W41080  16.764  29.017   0.864
72663W        W41081  36.547  44.768   2.273
72664W        W41082  41.793  36.470  14.508
72665W        W41083  43.818  38.494   4.818
72666W        W41084  29.507  30.133  10.446
72667W        W41085  38.837  32.633   1.835
72668W        W41086  40.377   3.762   4.769
72669W        W41087  26.124  11.720   0.809
72670W        W41088  20.769  44.819   1.824
72671W        W41089  37.949   9.193  11.385
72672W        W41090   9.819  37.965   3.166
72673W        W41091  27.498  24.110  13.941
72674W        W41092  24.068  29.669  11.897
72675W        W41093  24.980  28.464   3.762
72676W        W41094  34.042   3.277   0.402
72677W        W41095  21.123  16.739   3.250
72678W        W41096  22.055  38.414   9.618
72679W        W41097  42.990   0.848   0.413
72680W        W41098  21.680   8.876   4.353
72681W        W41099  26.570  36.584   3.305
72682W        W41100  10.736  37.548   4.196
72683W        W41101  39.943  43.920  11.438
72684W        W41102  14.222  28.054   1.212
72685W        W41103  23.526   4.410   3.851
72686W        W41104  33.957  43.880  13.908
72687W        W41105  33.419  11.340   1.700
72688W        W41106  20.748  23.168   1.334
72689W        W41107   2.458  13.679   2.828
72690W        W41108   0.819   0.860   2.866
72691W        W41109  14.265   6.233   4.331
72692W        W41110   8.361  10.673   1.836
72693W        W41111  17.754  38.473  11.014
72694W        W41112   5.342  10.146  11.458
72695W        W41113  12.795  17.714  10.427
72696W        W41114  25.570  14.171  12.489
72697W        W41115  18.771  22.075   3.730
72698W        W41116  11.148  10.755  12.460
72699W        W41117   6.349  14.296   4.233
72700W        W41118  14.674  22.652   3.190
72701W        W41119  27.459   8.849   1.244
72702W        W41120   4.212  18.750  14.435
72703W        W41121  34.945  33.938  13.831
72704W        W41122  27.569  27.460   4.176
72705W        W41123  20.257   9.244  14.936
72706W        W41124  11.143   9.245  11.422
72707W        W41125   1.379  25.982   4.612
72708W        W41126  25.584   1.401  10.482
72709W        W41127  44.349  14.633  12.369
72710W        W41128   3.873   4.391  12.578
72711W        W41129  37.068  16.274  14.274
72712W        W41130  38.016   1.299  10.532
72713W        W41131  35.051   0.422   0.921
72714W        W41132  21.069  20.641  12.443
72715W        W41133  30.947  34.445  13.841
72716W        W41134   5.313  37.076  11.994
72717W        W41135  18.772  40.026  13.884
72718W        W41136  15.238   7.345   3.699
72719W        W41137   3.818   1.405   4.810
72720W        W41138  37.421  10.335   2.344
72721W        W41139  28.656  28.940  11.379
72722W        W41140  16.233  32.412   4.347
72723W        W41141  12.176   1.462  14.904
72724W        W41142  24.220  32.912  14.861
72725W        W41143  22.997  43.821  10.620
72726W        W41144  44.425  44.812   3.325
72727W        W41145  43.289  11.178   5.723
72728W        W41146  22.011   2.344  14.975
72729W        W41147  29.930  37.986   2.748
72730W        W41148  20.086  26.575  12.459
72731W        W41149   0.747  32.930   1.716
72732W        W41150  14.711  34.104   1.907
72733W        W41151  38.910  29.169  10.494
72734W        W41152  15.754   9.335  11.037
72735W        W41153  17.653   3.453  11.413
72736W        W41154  36.565  29.956   2.206
72737W        W41155  41.380  11.835   0.416
72738W        W41156   5.377  11.221  10.975
72739W        W41157  22.128  17.600  13.008
72740W        W41158  29.489  31.076   0.822
72741W        W41159  10.759  39.936   3.633
72742W        W41160  13.284  14.112  11.089
72743W        W41161  25.151  21.688   3.362
72744W        W41162  19.130  17.080  14.425
72745W        W41163  37.513  37.351   3.632
72746W        W41164  44.338  39.938   5.081
72747W        W41165   1.835  35.898  13.030
72748W        W41166  13.689  12.240   4.318
72749W        W41167  32.392  33.993   0.308
72750W        W41168   4.714  37.369  12.025
72751W        W41169  12.144  44.993   1.922
72752W        W41170  11.857   0.862  11.872
72753W        W41171  20.074  37.856  13.488
72754W        W41172  33.009  30.003  10.941
72755W        W41173  44.871   4.418   3.334
72756W        W41174   4.908   2.406   5.227
72757W        W41175  28.146  16.604   0.289
72758W        W41176  11.299  14.819  14.786
72759W        W41177  36.872   8.775   3.377
72760W        W41178  28.154  41.493  10.925
72761W        W41179   1.731  13.791  10.545
72762W        W41180   6.752   1.330   2.300
72763W        W41181   2.351  43.434  14.370
72764W        W41182  41.339   6.376   4.157
72765W        W41183  10.370  15.119   4.622
72766W        W41184  13.763  32.488   1.886
72767W        W41185  41.323  20.081  14.486
72768W        W41186  25.689  35.011  13.548
72769W        W41187  15.740  34.021  11.434
72770W        W41188   3.374  16.748  10.483
72771W        W41189   9.725  37.890  11.982
72772W        W41190   2.757  39.503   4.603
72773W        W41191  29.618  36.407  12.074
72774W        W41192  26.672  28.616   4.620
72775W        W41193  22.240   2.325   4.704
72776W        W41194  11.642   9.811   3.674
72777W        W41195  14.722   1.873   1.802
72778W        W41196   8.869  33.546   1.400
72779W        W41197  35.089  17.605   3.240
72780W        W41198  22.062  16.163  12.355
72781W        W41199  23.690  24.131  14.471
72782W        W41200   0.277   3.432  12.429
72783W        W41201  24.567  31.009  14.376
72784W        W41202  22.595  43.975  12.843
72785W        W41203  38.335  42.974  12.879
72786W        W41204   0.754  28.977  12.002
72787W        W41205  25.623  14.263   0.727
72788W        W41206  25.689  24.524   3.640
72789W        W41207  21.121  43.468  11.978
72790W        W41208   7.750  40.342  11.882
72791W        W41209  38.456  32.458  13.375
72792W        W41210  33.005  30.572   1.223
72793W        W41211   3.719   7.881  14.810
72794W        W41212  26.125  38.057   1.777
72795W        W41213  25.680  39.353   3.347
72796W        W41214   9.191  12.281  14.391
72797W        W41215  21.257   0.926   0.256
72798W        W41216  27.058  44.317   1.728
72799W        W41217  27.045  31.103   0.324
72800W        W41218   6.400  36.944  14.927
72801W        W41219  33.878  40.811  11.969
72802W        W41220  39.857   8.165  14.825
72803W        W41221   7.712  39.947   3.812
72804W        W41222   3.883  35.071  14.981
72805W        W41223  38.076   1.829   3.822
72806W        W41224  43.450  36.004  11.517
72807W        W41225  14.255   9.329  11.949
72808W        W41226  28.655  13.288  11.958
72809W        W41227   6.682   5.229  14.919
72810W        W41228  36.901  41.889   0.303
72811W        W41229  19.618  26.959   1.327
72812W        W41230  29.955  27.530   3.197
72813W        W41231  37.543  23.666   1.219
72814W        W41232  33.625   6.420  14.432
72815W        W41233  26.632  23.699  11.907
72816W        W41234  33.880  17.560   1.770
72817W        W41235   4.827  12.191  13.874
72818W        W41236  10.740   9.230   4.156
72819W        W41237   4.708  17.683   0.253
72820W        W41238  15.757  11.782   1.807
72821W        W41239  25.014  17.214  12.492
72822W        W41240  41.465  23.149  10.147
72823W        W41241  26.117  18.669   1.887
72824W        W41242  13.738  20.125   1.398
72825W        W41243   2.837  28.647  10.899
72826W        W41244  41.830   8.689  12.910
72827W        W41245   7.679  42.479   3.767
72828W        W41246  38.409  19.187   4.669
72829W        W41247  39.547  39.381   3.181
72830W        W41248  31.099   6.409  13.896
72831W        W41249  21.159  41.992   2.881
72832W        W41250   4.760  40.430  11.918
72833W        W41251  17.289  28.565  13.889
72834W        W41252  27.167   0.903  13.398
72835W        W41253  40.428  26.616   0.261
72836W        W41254  20.208  37.359  10.540
72837W        W41255  14.226   1.348   2.235
72838W        W41256  14.651  40.917   2.327
72839W        W41257  39.898   7.862   1.246
72840W        W41258  20.094  20.245  12.434
72841W        W41259  28.643   9.880   5.763
72842W        W41260  13.300  32.064   1.812
72843W        W41261  25.168  15.099  12.833
72844W        W41262   1.369  30.154   1.276
72845W        W41263  17.713   9.150   4.678
72846W        W41264  20.732   4.713   4.209
72847W        W41265  23.522  19.689   4.120
72848W        W41266  21.707   2.732   0.734
72849W        W41267  37.888  18.604   4.136
72850W        W41268  41.992   1.765   0.313
72851W        W41269  16.216  24.131   1.852
72852W        W41270  31.916  27.145  12.497
72853W        W41271  20.187  16.231  12.083
72854W        W41272  18.177  20.633   1.702
72855W        W41273  22.142  28.063  13.013
72856W        W41274   4.265  40.802  10.629
72857W        W41275  42.392  14.701   5.712
72858W        W41276  29.145  43.865   0.469
72859W        W41277  31.087  11.353   2.884
72860W        W41278  14.191  32.106  11.513
72861W        W41279  28.537  12.766   2.869
72862W        W41280  20.689  19.560   3.319
72863W        W41281  35.090  29.630  14.328
72864W        W41282  10.871  41.995   1.290
72865W        W41283   4.730  21.259   0.752
72866W        W41284  37.450  25.161   3.790
72867W        W41285   6.806  38.566   3.694
72868W        W41286   7.237  43.304   0.955
72869W        W41287  10.212  11.851   3.752
72870W        W41288  41.829  39.452   3.762
72871W        W41289   3.747  29.958  11.466
72872W        W41290  39.377   4.427   2.681
72873W        W41291   5.870   5.744  11.511
72874W        W41292  41.972  24.170   1.894
72875W        W41293   1.323  12.279   4.759
72876W        W41294  29.955  41.958  14.457
72877W        W41295  28.460  35.574   3.326
72878W        W41296  17.157  15.693  10.418
72879W        W41297  37.000  39.449  10.938
72880W        W41298  13.169   4.358   0.474
72881W        W41299   4.763   7.871   4.661
72882W        W41300  14.594  24.990   1.752
72883W        W41301  24.150  34.612  13.988
72884W        W41302   3.302  32.052   3.813
72885W        W41303   9.682  23.566   3.644
72886W        W41304  23.540  37.863   0.274
72887W        W41305  19.043   4.295   4.710
72888W        W41306  32.077  19.158   3.236
72889W        W41307  26.091   8.800  13.975
72890W        W41308  11.655  11.294   4.287
72891W        W41309   4.265   4.420   3.788
72892W        W41310  21.178  36.885   4.227
72893W        W41311  34.907  21.025  14.865
72894W        W41312  31.485  39.373   4.298
72895W        W41313  30.005  10.639   1.808
72896W        W41314  33.019  15.099  11.061
72897W        W41315   1.829  11.343   2.390
72898W        W41316  42.426  41.790  14.371
72899W        W41317  16.799   9.696   0.764
72900W        W41318  25.999   2.773  13.383
72901W        W41319  22.113  20.115  12.850
72902W        W41320  14.095  26.648  10.494
72903W        W41321   4.773  10.372  14.986
72904W        W41322  15.787   5.348   0.825
72905W        W41323  15.160  15.824   4.752
72906W        W41324  27.188   5.899  10.483
72907W        W41325  19.603  40.986  13.419
72908W        W41326  18.265  41.839  13.510
72909W        W41327  19.641  19.044  14.392
72910W        W41328  15.695  28.638  12.516
72911W        W41329  34.872  27.987   9.934
72912W        W41330  31.411  32.989   2.404
72913W        W41331  35.077   8.224   2.830
72914W        W41332  35.562  40.418   4.653
72915W        W41333  42.881   0.788   1.423
72916W        W41334   8.226  29.500  12.974
72917W        W41335  34.388  16.634  13.023
72918W        W41336  26.062  17.156  14.315
72919W        W41337  19.207  43.823   4.794
72920W        W41338   5.311   9.158  12.380
72921W        W41339  27.953  24.012   3.258
72922W        W41340  24.652  23.645   2.281
72923W        W41341  20.632   0.431   3.709
72924W        W41342  43.945  17.225   1.699
72925W        W41343   1.745  38.860   4.274
72926W        W41344  30.070  39.360   2.208
72927W        W41345  15.698  29.119  13.357
72928W        W41346   5.724  29.579   2.772
72929W        W41347  16.097  18.137  14.394
72930W        W41348   3.936  13.777  14.792
72931W        W41349  24.032   3.813  14.901
72932W        W41350  37.539   9.866  14.833
72933W        W41351  14.678  34.552   3.314
72934W        W41352   5.258  44.821  11.908
72935W        W41353  12.656   7.755  10.990
72936W        W41354  17.733  21.231   2.816
72937W        W41355   9.651  17.787   2.252
72938W        W41356   3.811   6.387  14.357
72939W        W41357   4.292  16.747  10.634
72940W        W41358   4.904   4.324  11.408
72941W        W41359  35.052  40.878  13.848
72942W        W41360  33.989  24.717  14.935
72943W        W41361  15.657  32.036  11.937
72944W        W41362   6.840   5.254  13.388
72945W        W41363  14.783  42.026   2.736
72946W        W41364  35.086   2.789   2.804
72947W        W41365  30.945  43.855  14.448
72948W        W41366  18.239  42.025   1.260
72949W        W41367  29.942  33.949  11.097
72950W        W41368  26.527  15.178   2.667
72951W        W41369  31.910  33.924   1.748
72952W        W41370  15.683   9.657   3.285
72953W        W41371  15.105  39.520   0.901
72954W        W41372  44.867  10.666   0.340
72955W        W41373  12.128   3.829   4.155
72956W        W41374  25.674  42.478  13.408
72957W        W41375  33.012  25.213  11.970
72958W        W41376  41.497  30.154   0.305
72959W        W41377  22.718  15.213  10.585
72960W        W41378  22.223  10.714  13.393
72961W        W41379   2.303  18.138   3.870
72962W        W41380   0.825   4.450   0.306
72963W        W41381  43.468  30.628   4.311
72964W        W41382  23.593  16.230   0.846
72965W        W41383  35.011   6.227   5.176
72966W        W41384  39.909   4.370  10.441
72967W        W41385  19.684  41.497  11.908
72968W        W41386  34.603  36.030   2.813
72969W        W41387  21.060  31.976   3.198
72970W        W41388  26.072  16.795   2.798
72971W        W41389  22.209  19.042   3.375
72972W        W41390  40.477  35.490  13.410
72973W        W41391   7.794  33.056  10.929
72974W        W41392  21.700  13.154   4.299
72975W        W41393   7.244  23.692   2.336
72976W        W41394  33.527   9.837  11.461
72977W        W41395  31.117  35.451  11.099
72978W        W41396   2.785   2.765  12.837
72979W        W41397   1.275  33.073  14.492
72980W        W41398  28.179  41.485   3.167
72981W        W41399  17.174  12.667   1.355
72982W        W41400  19.736  29.117   2.760
72983W        W41401  41.405   2.226   4.816
72984W        W41402  30.464  41.797  10.505
72985W        W41403  42.409  16.746   3.688
72986W        W41404  24.227  13.742  11.543
72987W        W41405   4.841  32.584   4.825
72988W        W41406  19.658  31.051  14.353
72989W        W41407  39.008  12.240  12.977
72990W        W41408  29.105  29.665  12.079
72991W        W41409  11.817   2.964  14.807
72992W        W41410  37.911   9.274  10.632
72993W        W41411  18.728  26.165  10.978
72994W        W41412   6.753  38.374  14.349
72995W        W41413  10.234  20.732  14.870
72996W        W41414  38.058  26.986  12.073
72997W        W41415  36.502  14.205   1.421
72998W        W41416  27.988  38.847  13.525
72999W        W41417  34.410  28.148  13.978
73000W        W41418   5.805   5.401   0.760
73001W        W41419   8.259   3.437  12.034
73002W        W41420   0.965  37.923  14.874
73003W        W41421  43.447  10.731  14.447
73004W        W41422  38.550  14.147   4.807
73005W        W41423  17.668   8.359   3.342
73006W        W41424  21.040  19.627   9.935
73007W        W41425  18.062  15.157   4.140
73008W        W41426   0.963  13.840  14.499
73009W        W41427  17.605  25.159   1.736
73010W        W41428  23.547  44.879  11.564
73011W        W41429  13.783  18.268  14.900
73012W        W41430  32.126  31.627   3.823
73013W        W41431  26.056  44.766   0.806
73014W        W41432   0.408  16.263  10.624
73015W        W41433  19.691  23.048   1.730
73016W        W41434  21.687   7.207   3.208
73017W        W41435  40.952   8.743  10.427
73018W        W41436  44.277  17.606   2.703
73019W        W41437   5.262  40.353  12.386
73020W        W41438  27.663   3.441  12.029
73021W        W41439  29.480  11.258   0.933
73022W        W41440   6.415   9.716   3.749
73023W        W41441  42.287  23.126  10.483
73024W        W41442  10.235  43.774  13.051
73025W        W41443  34.602  35.855  12.896
73026W        W41444   3.911   3.712  12.417
73027W        W41445  21.191   6.883   1.700
73028W        W41446  36.529  41.847  14.991
73029W        W41447   8.390  10.749  10.608
73030W        W41448  30.065  32.420   4.802
73031W        W41449  21.244  31.036  10.974
73032W        W41450   2.333  35.102   2.266
73033W        W41451  25.503   1.775   3.838
73034W        W41452  26.064  38.945   2.897
73035W        W41453  19.694  17.269  13.813
73036W        W41454  32.090  39.449  11.429
73037W        W41455  31.934   6.711  14.294
73038W        W41456  22.140  11.142   4.640
73039W        W41457   7.300   5.289  12.553
73040W        W41458   6.310   9.644   1.919
73041W        W41459  35.027  18.639   3.861
73042W        W41460  29.610   7.370   5.655
73043W        W41461  24.975   2.907  14.394
73044W        W41462  41.366  34.867   2.789
73045W        W41463  37.398  18.674   0.468
73046W        W41464  40.832   1.853   1.917
73047W        W41465  41.796  36.532   1.335
73048W        W41466  26.998  29.453   3.158
73049W        W41467  12.737  16.630  11.602
73050W        W41468  22.172  28.613  13.370
73051W        W41469  19.143   4.804   4.766
73052W        W41470  17.798  44.838  13.794
73053W        W41471  13.633  32.956   1.296
73054W        W41472  37.428  19.089  14.359
73055W        W41473  12.775   7.760  12.991
73056W        W41474  38.562  23.175   2.701
73057W        W41475  20.081  23.115   2.302
73058W        W41476  36.861  10.747   4.635
73059W        W41477  34.069  14.821   3.848
73060W        W41478   7.814  23.192   4.271
73061W        W41479  11.747  18.185  14.845
73062W        W41480   2.302  38.459  13.494
73063W        W41481  37.872  36.915   3.730
73064W        W41482  43.018  41.318  12.506
73065W        W41483   7.226   4.243  10.486
73066W        W41484   0.422   9.188   4.835
73067W        W41485  41.528  40.529  14.375
73068W        W41486  17.096  31.461   0.922
73069W        W41487  11.660  40.369   1.839
73070W        W41488  38.349  30.613  13.423
73071W        W41489  34.419  16.638   0.746
73072W        W41490  10.144  28.503   1.351
73073W        W41491  26.007  20.594  11.452
73074W        W41492  36.401  26.539   3.776
73075W        W41493  21.601   4.885  11.933
73076W        W41494   6.715  21.078  14.963
73077W        W41495  25.044  15.152   4.644
73078W        W41496  24.125  26.142  14.402
73079W        W41497  10.807  44.353  13.384
73080W        W41498  25.035   2.315  13.969
73081W        W41499  22.572  26.121  12.474
73082W        W41500  27.069  25.523   2.779
73083W        W41501  11.804  15.668   4.319
73084W        W41502  26.068   5.929   3.675
73085W        W41503  38.861   1.417   4.296
73086W        W41504  34.920  12.773  13.363
73087W        W41505  23.700  31.518  10.976
73088W        W41506  17.687  39.425  13.411
73089W        W41507  14.180  16.741   3.855
73090W        W41508  41.836   1.865  14.275
73091W        W41509  31.407   1.753   3.732
73092W        W41510  43.430  34.999   3.219
73093W        W41511  11.637   1.805  10.578
73094W        W41512   1.449  16.149  10.466
73095W        W41513  35.571  21.053   2.883
73096W        W41514  16.720  44.914  14.427
73097W        W41515  40.953  36.999  11.035
73098W        W41516  35.570   3.344  11.394
73099W        W41517  10.657   4.343  13.441
73100W        W41518   0.819  16.702  13.463
73101W        W41519  15.740  42.321  12.526
73102W        W41520   3.904  43.773  12.013
73103W        W41521  19.599  42.796  11.576
73104W        W41522  12.849  20.714  13.806
73105W        W41523   6.775   7.250  14.395
73106W        W41524   4.876  15.218  13.995
73107W        W41525  21.073  15.672   9.953
73108W        W41526  13.789  31.971  12.531
73109W        W41527  28.509   6.287   9.665
73110W        W41528   7.786  28.959  12.426
73111W        W41529  18.217   6.266  14.921
73112W        W41530  16.112  22.723   0.248
73113W        W41531   8.250  42.388  14.412
73114W        W41532  36.510  31.092   3.689
73115W        W41533  36.962  20.252  11.551
73116W        W41534  13.115  41.453  10.943
73117W        W41535   7.301   1.377  10.497
73118W        W41536  37.872  27.990   3.349
73119W        W41537  30.464  10.725  12.970
73120W        W41538  14.279   0.808   3.198
73121W        W41539  44.420  10.782  10.465
73122W        W41540  35.968  12.235  14.489
73123W        W41541  27.165  38.020  12.927
73124W        W41542  32.401   3.906   1.740
73125W        W41543  43.430  34.029   1.230
73126W        W41544  10.158  28.164  10.564
73127W        W41545  11.644  20.118  10.490
73128W        W41546   7.390  39.538  11.012
73129W        W41547  32.978  42.435   1.827
73130W        W41548  30.957  39.880  10.471
73131W        W41549   0.377  10.808  13.841
73132W        W41550  16.627  32.037   2.835
73133W        W41551  35.550   9.190   2.338
73134W        W41552  26.153  33.467   0.846
73135W        W41553  38.929  22.585   2.391
73136W        W41554   8.816  39.963   3.345
73137W        W41555  26.030  33.928   1.298
73138W        W41556  40.899   2.794   1.853
73139W        W41557  36.920   3.419   1.264
73140W        W41558   8.691  27.458   4.748
73141W        W41559  36.526  29.028   4.241
73142W        W41560  30.449  44.388  13.445
73143W        W41561  33.588  40.989   4.658
73144W        W41562  28.165   4.393   1.716
73145W        W41563   3.313  32.550  13.365
73146W        W41564   5.229  16.153  11.514
73147W        W41565  15.772  20.038   1.406
73148W        W41566  24.131  20.148   0.441
73149W        W41567   1.255   7.688   0.442
73150W        W41568  25.172  10.158  11.523
73151W        W41569  15.203  22.626  10.965
73152W        W41570  33.938  12.837   4.322
73153W        W41571  29.554  23.182  14.453
73154W        W41572  32.064  13.666   2.816
73155W        W41573  19.092  34.107   2.225
73156W        W41574  19.542  26.624  12.402
73157W        W41575  38.003   7.685   2.738
73158W        W41576  28.608  10.309   3.696
73159W        W41577  33.041  41.017  14.771
73160W        W41578  19.068  35.096   4.166
73161W        W41579  23.716  37.351   1.261
73162W        W41580  38.903  26.167   0.442
73163W        W41581  43.328  27.153  14.447
73164W        W41582  38.833  43.989   3.152
73165W        W41583  33.907   5.745   1.772
73166W        W41584   4.247   8.817  12.041
73167W        W41585  37.441  29.035  11.113
73168W        W41586   9.877  35.477  12.356
73169W        W41587  27.663  24.600  11.442
73170W        W41588   1.898  26.074  11.457
73171W        W41589   0.266  12.185   9.537
73172W        W41590   1.243   0.454  12.853
73173W        W41591  29.587  30.614  12.458
73174W        W41592  44.374  11.189   3.718
73175W        W41593  15.666   2.851  11.546
73176W        W41594   9.848  37.947  13.006
73177W        W41595  36.525  29.168  13.986
73178W        W41596  27.047  33.521   1.243
73179W        W41597  27.446  38.342   0.963
73180W        W41598  18.219   5.843  12.972
73181W        W41599  43.953  11.270  11.564
73182W        W41600  22.640  40.467  13.463
73183W        W41601   0.364  21.690   3.822
73184W        W41602  27.464   8.260  14.005
73185W        W41603   2.425  43.789   3.367
73186W        W41604  11.663   1.852  13.313
73187W        W41605  24.081  43.363  14.027
73188W        W41606  24.595  12.692  13.963
73189W        W41607  31.994  23.559  14.298
73190W        W41608  40.818   6.327  14.400
73191W        W41609  13.769  40.418  11.420
73192W        W41610   3.380  31.008  11.013
73193W        W41611  22.081  26.138  10.560
73194W        W41612  38.527  24.640  10.967
73195W        W41613  20.657   1.390  10.534
73196W        W41614   0.750   9.713  10.581
73197W        W41615  12.791  12.698  14.796
73198W        W41616  11.831   3.331  11.493
73199W        W41617  20.715   3.423  11.391
73200W        W41618  18.617  41.902  14.792
73201W        W41619  18.288  14.102   3.656
73202W        W41620  24.148  38.972  13.951
73203W        W41621   5.693   8.324   1.218
73204W        W41622  39.344  11.334   3.775
73205W        W41623  17.179  12.770   3.254
73206W        W41624   4.215  14.132   1.837
73207W        W41625  40.912  30.625   3.712
73208W        W41626  44.835  16.601   1.327
73209W        W41627  25.659   4.316   4.617
73210W        W41628  24.081   3.339   4.299
73211W        W41629  34.517   4.940  13.037
73212W        W41630  22.057  35.853   4.794
73213W        W41631  36.882  35.468   2.688
73214W        W41632  31.130  39.464  12.092
73215W        W41633  27.457  15.671  14.857
73216W        W41634   4.759  17.181   1.288
73217W        W41635  11.164  14.127  10.567
73218W        W41636  19.540  12.350   0.368
73219W        W41637  11.210   4.716   4.189
73220W        W41638  11.732  36.984   1.805
73221W        W41639  32.968  21.093  13.817
73222W        W41640  15.168  42.380   2.711
73223W        W41641  23.183  14.131  13.916
73224W        W41642  40.846  20.037  14.001
73225W        W41643  28.109  39.048   3.696
73226W        W41644  10.195  26.527  13.474
73227W        W41645  43.423  18.203   4.669
73228W        W41646  39.841  17.207  12.563
73229W        W41647  38.378  26.074  13.391
73230W        W41648   7.225  39.989   3.162
73231W        W41649  34.091  34.973   4.653
73232W        W41650  14.180   3.931   3.178
73233W        W41651  41.012  41.443  11.044
73234W        W41652  24.615  23.516  12.921
73235W        W41653  14.319  38.531   2.265
73236W        W41654  30.026  22.687   2.862
73237W        W41655  35.977  23.216   4.246
73238W        W41656  18.155  20.261   0.757
73239W        W41657  24.130   7.867   0.843
73240W        W41658   9.695  13.324  10.924
73241W        W41659  11.792  39.029   3.310
73242W        W41660  21.207   2.842  13.413
73243W        W41661  11.705  33.546   2.391
73244W        W41662  13.106  15.207   2.188
73245W        W41663  32.123   5.359  14.820
73246W        W41664  10.786  43.423  12.863
73247W        W41665  28.113  28.102   3.308
73248W        W41666  43.829  24.631   4.138
73249W        W41667  44.982  27.140   1.268
73250W        W41668  12.199  21.669  14.390
73251W        W41669  15.086  33.556   0.427
73252W        W41670  12.732  34.971   3.384
73253W        W41671  38.335  41.441   2.825
73254W        W41672  27.088  39.014   4.762
73255W        W41673  43.515  25.075   4.702
73256W        W41674  43.999  35.057  13.421
73257W        W41675  24.715  39.983  12.015
73258W        W41676  43.427  35.868   3.301
73259W        W41677  42.882  37.552   4.767
73260W        W41678  44.340  16.266  14.992
73261W        W41679   9.776  31.101   3.363
73262W        W41680  30.500  42.320   0.283
73263W        W41681  15.159   5.378  12.882
73264W        W41682  10.756   7.349   2.190
73265W        W41683  17.263  18.684  13.338
73266W        W41684   4.744  27.685   2.376
73267W        W41685   0.910  20.603  13.823
73268W        W41686  40.372  22.007   4.800
73269W        W41687  38.484  17.780  13.402
73270W        W41688  39.808   8.850   4.312
73271W        W41689  17.722  14.705  11.611
73272W        W41690  43.444  31.503   0.836
73273W        W41691  19.216  13.703  14.988
73274W        W41692  40.307  29.515  11.536
73275W        W41693  22.073  17.781   1.235
73276W        W41694   9.830   7.383   2.728
73277W        W41695  18.067  10.147   0.925
73278W        W41696  28.612  22.064  11.417
73279W        W41697   1.820   2.331  11.058
73280W        W41698  35.032  13.180  14.312
73281W        W41699  26.066   3.937   3.672
73282W        W41700  15.822  29.561  12.865
73283W        W41701  10.868  30.987   3.306
73284W        W41702  43.389   7.778  14.487
73285W        W41703  33.540   2.238  13.406
73286W        W41704  18.786   4.892   0.729
73287W        W41705  41.041  42.784  11.043
73288W        W41706  19.743   4.333   2.403
73289W        W41707  21.695  21.085   2.795
73290W        W41708  37.557  34.024   1.274
73291W        W41709   5.204  41.397   3.706
73292W        W41710  19.642  11.749  11.896
73293W        W41711  17.718  23.191  12.006
73294W        W41712  14.224  10.709   3.679
73295W        W41713  12.198  10.192   3.707
73296W        W41714   5.893  24.198  11.497
73297W        W41715   7.684  27.064  12.984
73298W        W41716  39.926  10.285  11.081
73299W        W41717  32.906   2.790   2.807
73300W        W41718  24.529  32.887   4.646
73301W        W41719   7.396  36.482   3.174
73302W        W41720  33.989  22.617  10.594
73303W        W41721  26.490  42.896  13.064
73304W        W41722  10.143  26.504   4.716
73305W        W41723   8.311  15.131  11.503
73306W        W41724   0.390  42.812   0.291
73307W        W41725   5.882   4.249  10.972
73308W        W41726   8.275  27.510  10.468
73309W        W41727  38.067  12.165   1.784
73310W        W41728  11.855   2.853   1.335
73311W        W41729  39.417  36.982   1.363
73312W        W41730  36.534   1.819   1.335
73313W        W41731   9.791  24.054  14.369
73314W        W41732  43.896  30.056   2.895
73315W        W41733  32.909  26.605   0.875
73316W        W41734  33.047  25.966  10.583
73317W        W41735  10.268  26.593   4.121
73318W        W41736  14.129   8.212  14.774
73319W        W41737   4.395  21.654   2.822
73320W        W41738  19.623  20.605   2.378
73321W        W41739   4.878  32.480   3.743
73322W        W41740   8.702  23.055   3.660
73323W        W41741   0.256  23.104  11.496
73324W        W41742  17.677  18.591   4.814
73325W        W41743  20.672   4.707   2.678
73326W        W41744   1.294  32.535   1.240
73327W        W41745  25.647   1.353   3.727
73328W        W41746  16.797  32.993   2.741
73329W        W41747  19.152  43.858   2.415
73330W        W41748  32.924  23.550  11.880
73331W        W41749   6.859  16.656   3.631
73332W        W41750   4.931  32.039   3.811
73333W        W41751   1.866  10.653   3.815
73334W        W41752  13.752  21.562  11.031
73335W        W41753  43.800  11.696   2.261
73336W        W41754  32.127  22.667   0.874
73337W        W41755   8.165  37.036  14.014
73338W        W41756  20.140  29.539  10.974
73339W        W41757  25.091  25.072   1.415
73340W        W41758  24.542  40.522  10.133
73341W        W41759  25.574  25.649  13.953
73342W        W41760  15.198   2.395  13.976
73343W        W41761  10.211  30.075  13.456
73344W        W41762  43.980  37.383   0.760
73345W        W41763   3.919  13.654   1.756
73346W        W41764  29.085  38.989   0.389
73347W        W41765  28.672   9.845  14.991
73348W        W41766   7.236   2.241  14.487
73349W        W41767   2.731   7.852  13.916
73350W        W41768   9.662  22.250   3.160
73351W        W41769  30.647  40.483  12.452
73352W        W41770   5.342  26.092   1.423
73353W        W41771  15.230  24.713   3.212
73354W        W41772  42.923  21.084   9.559
73355W        W41773  26.021  13.228  12.942
73356W        W41774   7.240  10.751   3.227
73357W        W41775  32.921  10.668   2.305
73358W        W41776  40.310  29.473  14.443
73359W        W41777  22.044  12.648  14.795
73360W        W41778  22.631  41.532   0.745
73361W        W41779  32.991  21.643  14.433
73362W        W41780  27.519  15.732   0.811
73363W        W41781  14.601  37.067   4.218
73364W        W41782  40.509  37.473   3.680
73365W        W41783  39.520  26.053  13.832
73366W        W41784  38.028  36.907   0.306
73367W        W41785  42.775  26.586   5.106
73368W        W41786  44.952  34.040  13.911
73369W        W41787  44.928  36.015  10.537
73370W        W41788   3.759  31.456   3.775
73371W        W41789  16.250  32.475  11.400
73372W        W41790  38.019  44.395  13.355
73373W        W41791  29.670  36.992  13.424
73374W        W41792   0.949  31.068   3.663
73375W        W41793  17.080  38.562  10.921
73376W        W41794   7.842  22.736  13.481
73377W        W41795  37.050  35.541  11.023
73378W        W41796  25.159   9.282   2.728
73379W        W41797  13.120  22.568  12.965
73380W        W41798  21.549   5.314   0.336
73381W        W41799   6.842  24.573   4.305
73382W        W41800  28.541  41.947   4.296
73383W        W41801  35.901  22.152   1.226
73384W        W41802  37.457  28.637  13.840
73385W        W41803  43.868  25.525  13.988
73386W        W41804  10.827  27.516  14.490
73387W        W41805   4.898  15.613   2.730
73388W        W41806  38.402  22.054   2.342
73389W        W41807   3.787  24.689   1.366
73390W        W41808  26.509  41.937   2.864
73391W        W41809   1.351  26.546  13.991
73392W        W41810  16.641  40.861  13.485
73393W        W41811  26.461  35.015   5.270
73394W        W41812  20.251  17.707  11.425
73395W        W41813   5.199  37.041   1.696
73396W        W41814  43.398  33.019   3.756
73397W        W41815   2.799  27.552  11.569
73398W        W41816  34.040  28.540  11.099
73399W        W41817  33.888  18.256  10.475
73400W        W41818  14.813  18.236  13.468
73401W        W41819  30.141   9.731  10.433
73402W        W41820  26.962  32.119  14.811
73403W        W41821  12.790  23.526   2.813
73404W        W41822  24.230  22.059  12.007
73405W        W41823  32.889  40.359   0.331
73406W        W41824  31.416   7.332  14.304
73407W        W41825   8.194  35.900  10.469
73408W        W41826   6.229  20.220  10.500
73409W        W41827  28.638  33.952   2.710
73410W        W41828   9.206  36.939  11.993
73411W        W41829  23.157  41.426  14.303
73412W        W41830  40.890  25.993  11.949
73413W        W41831  16.745  18.603   2.740
73414W        W41832  23.494  18.264  11.948
73415W        W41833   0.875  28.014  12.873
73416W        W41834  28.657  31.138   0.254
73417W        W41835  12.184   6.226   4.241
73418W        W41836   2.418  34.967   0.854
73419W        W41837  39.360   3.794   2.316
73420W        W41838   2.468  16.803  11.378
73421W        W41839  42.839  19.682  12.837
73422W        W41840  15.266  41.382   4.310
73423W        W41841  20.230  21.110   1.787
73424W        W41842  34.864  27.092  12.992
73425W        W41843  15.159  28.022  14.956
73426W        W41844  39.439  23.698  14.507
73427W        W41845  34.965  18.688  10.517
73428W        W41846  38.533  42.440  10.941
73429W        W41847  39.815  28.529   2.336
73430W        W41848  11.254  26.031  10.992
73431W        W41849  32.922   0.769   1.735
73432W        W41850  38.953   8.669   3.252
73433W        W41851   4.855  24.218  14.947
73434W        W41852  12.302  17.169  12.341
73435W        W41853  27.950  14.316  14.486
73436W        W41854  37.005  35.046   0.349
73437W        W41855  37.344  35.520  10.504
73438W        W41856  27.496  44.436   3.784
73439W        W41857  26.194  43.378   2.244
73440W        W41858  29.617  19.614   0.874
73441W        W41859  27.625  22.121   0.410
73442W        W41860   2.824   7.906   4.237
73443W        W41861   3.903  23.038  14.882
73444W        W41862  12.692  35.408  14.406
73445W        W41863  34.086   5.771  13.805
73446W        W41864  24.530   7.272   3.844
73447W        W41865  17.137  30.972   3.821
73448W        W41866  44.820  29.551   2.817
73449W        W41867  39.874  35.530  13.810
73450W        W41868  34.504  34.428   2.811
73451W        W41869  44.475  28.654   4.134
73452W        W41870  35.542   9.764  13.356
73453W        W41871  31.921   5.416  11.941
73454W        W41872  16.186   9.649  12.990
73455W        W41873  20.268  34.588  13.407
73456W        W41874  12.309  42.333  14.299
73457W        W41875  28.483  33.473   4.230
73458W        W41876   6.326   6.339  13.874
73459W        W41877  38.046  35.574   4.132
73460W        W41878   3.217  16.665   2.371
73461W        W41879  25.213   3.419   0.434
73462W        W41880  20.541  17.224  14.992
73463W        W41881  42.800  43.971  13.960
73464W        W41882  18.736   0.480  13.524
73465W        W41883  41.368  20.681   1.793
73466W        W41884  40.489  20.563  11.409
73467W        W41885   3.354  15.215  10.091
73468W        W41886  19.112  30.569  11.949
73469W        W41887  20.724  23.500   2.245
73470W        W41888  34.572   6.756   4.236
73471W        W41889   2.424  11.825   3.642
73472W        W41890  15.719  10.632   1.926
73473W        W41891  23.087  41.374  13.811
73474W        W41892  23.501   3.215  11.508
73475W        W41893  31.647  21.027   2.885
73476W        W41894   9.646  34.513  14.871
73477W        W41895  40.909   6.789  11.606
73478W        W41896  31.502  44.817   3.340
73479W        W41897   4.359  32.617   0.808
73480W        W41898  30.417  11.796   3.277
73481W        W41899  23.606   1.740  11.903
73482W        W41900  42.463  32.134   3.755
73483W        W41901  10.287  17.113  14.784
73484W        W41902  24.568  19.199   4.201
73485W        W41903   8.708  27.520  12.567
73486W        W41904  24.592  10.745  11.865
73487W        W41905  29.992  30.545  11.996
73488W        W41906  43.291  14.693  11.561
73489W        W41907  38.869  20.609   3.642
73490W        W41908   0.771  34.570   4.810
73491W        W41909  20.120  40.908   4.311
73492W        W41910  36.874  29.918  14.758
73493W        W41911  36.021   2.801   4.643
73494W        W41912  11.332  28.118  13.421
73495W        W41913  37.870  21.062  13.512
73496W        W41914  34.916  24.154   3.831
73497W        W41915  32.520  31.939  14.278
73498W        W41916   5.230   9.686  12.575
73499W        W41917  44.819  19.634   3.148
73500W        W41918  36.359  14.731   2.725
73501W        W41919   5.873   2.961   2.811
73502W        W41920  35.576  14.330   2.277
73503W        W41921  34.081  27.160  13.374
73504W        W41922  40.336  19.726   4.715
73505W        W41923  24.152  38.882   1.268
73506W        W41924  32.549  12.826   1.377
73507W        W41925   5.367  16.238  12.845
73508W        W41926  11.169  10.254  12.510
73509W        W41927  43.896  30.957  12.067
73510W        W41928  23.574  19.734  10.544
73511W        W41929  34.901   4.394  11.872
73512W        W41930  28.114  38.347  11.952
73513W        W41931  31.956  33.057   1.735
73514W        W41932  36.369  37.847   4.211
73515W        W41933  36.897  42.779  14.275
73516W        W41934  30.452   9.303  11.584
73517W        W41935  32.422   7.171   2.315
73518W        W41936  16.189   5.227   0.788
73519W        W41937   1.941  34.588   1.899
73520W        W41938  35.413   5.302  12.548
73521W        W41939  16.187  20.569  14.300
73522W        W41940  42.897   0.780   5.173
73523W        W41941  41.926  42.904  11.407
73524W        W41942  25.190   8.195   4.766
73525W        W41943  20.060   0.948   2.900
73526W        W41944  24.627   3.790  12.981
73527W        W41945  28.479  35.051  11.606
73528W        W41946  13.685  44.775  14.293
73529W        W41947  28.611  44.297  13.920
73530W        W41948  26.174  27.567   1.771
73531W        W41949  21.702  19.577  10.566
73532W        W41950  44.370  14.297  14.825
73533W        W41951  40.010   8.812  12.496
73534W        W41952  40.435   5.701  10.644
73535W        W41953  31.451  10.679   4.769
73536W        W41954  32.134  10.845  14.894
73537W        W41955  19.537  19.049  11.534
73538W        W41956  42.794  19.252   0.483
73539W        W41957  19.070  22.643   3.151
73540W        W41958  40.018  19.767   4.823
73541W        W41959  37.861  32.915   4.675
73542W        W41960  27.533  29.652   4.144
73543W        W41961  31.982  32.603  12.399
73544W        W41962   3.745  24.677   2.281
73545W        W41963  24.088   4.353  11.051
73546W        W41964   3.366   1.299  11.388
73547W        W41965  38.344  44.829  13.427
73548W        W41966  36.422  33.132  10.521
73549W        W41967  27.599  38.416  14.843
73550W        W41968   2.933  38.363   2.881
73551W        W41969  39.968  32.911   0.368
73552W        W41970  21.602  33.422   2.873
73553W        W41971  26.483  29.529   1.314
73554W        W41972  31.559  26.077   3.239
73555W        W41973  34.610  11.233  11.498
73556W        W41974  34.116   6.841  11.508
73557W        W41975  19.725   4.855  14.819
73558W        W41976  11.254  26.595  12.571
73559W        W41977  12.731   9.365   3.823
73560W        W41978  21.033  16.586   2.380
73561W        W41979  29.502  41.421  11.925
73562W        W41980  21.195   5.710   4.648
73563W        W41981   1.250  38.835  12.502
73564W        W41982  42.790   7.911   2.332
73565W        W41983   1.901  44.790  12.849
73566W        W41984  40.959   3.713  12.952
73567W        W41985  18.278  34.474  10.922
73568W        W41986  26.119  37.937  12.373
73569W        W41987   0.268  33.394  11.574
73570W        W41988  31.027   3.274   1.884
73571W        W41989  29.609  27.041   3.271
73572W        W41990   8.746  10.638  10.504
73573W        W41991  21.198   2.249   0.416
73574W        W41992  30.443  40.477   0.798
73575W        W41993  17.691  40.010  12.038
73576W        W41994  36.001  34.403  12.980
73577W        W41995   2.819  16.727  11.421
73578W        W41996  21.243  29.028   3.642
73579W        W41997  21.625  12.840  12.841
73580W        W41998  41.029  26.182   1.717
73581W        W41999  33.921  42.026  10.586
73582W        W42000  23.114  10.784  10.636
73583W        W42001  42.323  29.435  14.871
73584W        W42002   9.301  24.184  13.941
73585W        W42003  12.122   5.788  10.419
73586W        W42004  37.576  39.385  13.020
73587W        W42005  18.783  23.153   4.161
73588W        W42006  40.889  35.021  14.489
73589W        W42007  43.951   2.805  14.348
73590W        W42008   1.429  37.912   2.751
73591W        W42009  24.666  25.484  11.481
73592W        W42010  10.676  17.226   4.602
73593W        W42011   7.171   9.824   2.387
73594W        W42012   9.835  17.185  13.426
73595W        W42013  40.842  27.514   2.874
73596W        W42014  34.575  26.162  13.840
73597W        W42015   3.774  11.849   1.801
73598W        W42016  14.113  26.199  11.942
73599W        W42017  37.891  33.442   0.966
73600W        W42018   9.757  22.084   1.394
73601W        W42019  40.517  31.077   0.953
73602W        W42020  29.056  24.108  11.912
73603W        W42021  33.894  21.033  12.523
73604W        W42022  30.621  24.980   1.226
73605W        W42023  44.456   8.846   9.955
73606W        W42024  28.112  27.979  11.437
73607W        W42025  14.286  20.539   3.299
73608W        W42026   9.285  11.722  14.421
73609W        W42027   4.380   5.341   1.864
73610W        W42028   9.224  32.577   2.213
73611W        W42029  39.814  27.023   2.854
73612W        W42030   0.440  18.613   2.800
73613W        W42031  24.110  20.083  11.378
73614W        W42032  39.353  39.010   4.163
73615W        W42033  37.899   3.823   4.157
73616W        W42034  43.491   5.901   0.942
73617W        W42035  22.027  18.769   4.289
73618W        W42036   4.211  36.958   3.708
73619W        W42037  12.618  31.997  12.423
73620W        W42038  12.647  18.671   4.598
73621W        W42039  38.565  43.363  10.556
73622W        W42040  19.115   8.842  12.558
73623W        W42041  24.690  36.541  14.840
73624W        W42042  24.678  28.171   0.805
73625W        W42043  11.215  15.745  14.289
73626W        W42044   6.734  41.331   0.336
73627W        W42045   8.863  38.842   2.834
73628W        W42046   9.657  40.992  12.918
73629W        W42047   1.316   6.277  12.825
73630W        W42048  37.491  25.161   1.809
73631W        W42049  29.544   2.376  11.909
73632W        W42050  43.499  36.571   3.196
73633W        W42051  32.049  16.731   4.706
73634W        W42052  41.937  39.910   4.828
73635W        W42053  37.950  41.502   4.684
73636W        W42054   0.291  18.128  10.497
73637W        W42055  23.205  40.818   2.739
73638W        W42056  18.124  29.922  11.997
73639W        W42057  25.200  43.283   4.210
73640W        W42058  35.447   1.466  11.045
73641W        W42059  39.038  39.886  10.945
73642W        W42060   9.725  27.640   1.909
73643W        W42061  38.554   7.834   1.702
73644W        W42062  30.008  32.528   3.791
73645W        W42063  13.303  19.215  11.477
73646W        W42064  22.503  42.522   4.647
73647W        W42065  25.197  15.820   0.746
73648W        W42066  18.249   2.895   0.290
73649W        W42067  10.781  14.214  10.603
73650W        W42068  36.492   2.817  10.487
73651W        W42069  13.196  15.740   4.658
73652W        W42070  44.379  11.625   1.254
73653W        W42071  32.478   8.730  12.412
73654W        W42072  35.538   8.747  11.571
73655W        W42073  39.422   1.789  10.579
73656W        W42074  35.073   7.836   1.327
73657W        W42075  37.459   2.820   4.699
73658W        W42076   9.355  20.541   4.310
73659W        W42077  38.439  38.421  14.432
73660W        W42078  20.661  30.975   2.798
73661W        W42079  32.472   9.176  10.986
73662W        W42080  10.707  20.585  14.464
73663W        W42081   0.441   7.287   3.224
73664W        W42082  38.571  38.442   4.180
73665W        W42083  35.585  43.885  13.347
73666W        W42084  14.338  20.224   0.255
73667W        W42085  34.044  13.182   2.747
73668W        W42086  15.803  33.449  14.367
73669W        W42087  43.478  14.234   4.174
73670W        W42088   0.904  30.640   9.957
73671W        W42089  34.033   2.859   0.734
73672W        W42090   7.406  38.069  11.433
73673W        W42091  26.586   1.740  13.440
73674W        W42092  21.127  43.811   0.465
73675W        W42093  20.165  34.033  12.565
73676W        W42094  11.638  31.537  11.555
73677W        W42095  42.365  19.634  11.533
73678W        W42096  21.099  27.976  12.533
73679W        W42097  13.186  23.095   3.711
73680W        W42098  35.989  34.493   3.175
73681W        W42099   2.905  18.054  10.982
73682W        W42100  21.108  29.969   4.757
73683W        W42101  38.847  30.925   3.629
73684W        W42102   0.966  30.639  10.571
73685W        W42103   4.781  40.430   2.419
73686W        W42104  31.496  25.135  13.047
73687W        W42105   4.790  30.968   2.409
73688W        W42106  40.835  13.782  13.318
73689W        W42107  12.186  10.859   0.397
73690W        W42108  34.012  30.551  12.398
73691W        W42109  29.114  20.083  11.454
73692W        W42110  42.782  40.900  12.421
73693W        W42111  21.118  36.993  10.070
73694W        W42112   0.837  17.127   5.114
73695W        W42113  38.917   4.923   4.802
73696W        W42114  36.926  28.504  13.026
73697W        W42115  36.053  43.362  11.527
73698W        W42116   5.884  17.631  13.475
73699W        W42117  21.614   0.459   2.668
73700W        W42118   7.403   7.740  14.491
73701W        W42119   5.776  29.482   1.315
73702W        W42120  16.099  21.717   1.296
73703W        W42121   1.415  43.018   2.253
73704W        W42122  35.534  27.479   4.663
73705W        W42123  30.562  42.304   2.730
73706W        W42124   0.492  13.112   2.374
73707W        W42125  39.435   3.874  10.991
73708W        W42126  39.425  43.333  11.407
73709W        W42127  31.436  25.110   3.300
73710W        W42128  15.272   3.713  13.887
73711W        W42129  11.326  27.007  12.995
73712W        W42130  18.631   0.260  13.881
73713W        W42131  16.287  17.562   0.824
73714W        W42132  12.639  33.058  12.890
73715W        W42133  42.958   6.781   2.670
73716W        W42134  20.628   0.387   0.450
73717W        W42135  39.003  37.024  11.124
73718W        W42136  20.692  17.157   1.823
73719W        W42137  42.993  41.427   4.788
73720W        W42138   1.371  16.780   4.714
73721W        W42139  28.483  24.483   0.815
73722W        W42140  22.613  43.873   3.700
73723W        W42141  13.747   5.910  13.975
73724W        W42142  44.285  31.038  11.555
73725W        W42143  25.058  42.859   4.271
73726W        W42144   2.438  14.708   4.620
73727W        W42145  19.132  19.544  14.483
73728W        W42146   5.914  27.647  13.033
73729W        W42147   2.421   2.775   3.806
73730W        W42148   5.870   3.713  12.435
73731W        W42149   6.698  31.897   4.121
73732W        W42150  37.541  21.729  10.905
73733W        W42151  16.664  40.353  13.433
73734W        W42152  17.293  25.963   4.296
73735W        W42153   4.844   8.696   3.855
73736W        W42154  32.074   9.193  10.967
73737W        W42155   9.199  18.640   1.933
73738W        W42156  10.275  16.723  14.994
73739W        W42157  42.858   8.224   3.868
73740W        W42158  34.024  29.457   4.183
73741W        W42159  26.197  24.206  11.863
73742W        W42160  15.805  42.798  12.017
73743W        W42161   0.835  20.122   4.299
73744W        W42162  32.476  32.958  11.508
73745W        W42163  17.670  14.208   3.848
73746W        W42164  16.242  11.342  11.460
73747W        W42165  12.317  24.974  12.979
73748W        W42166  22.724  14.107  13.907
73749W        W42167  21.157  39.060  12.018
73750W        W42168  37.496   1.272   4.630
73751W        W42169   3.780  37.372  14.386
73752W        W42170  22.620   8.830  10.105
73753W        W42171  22.634  44.288   1.248
73754W        W42172  33.404  33.390   4.818
73755W        W42173  30.601  30.975  12.078
73756W        W42174   6.845   3.416   4.750
73757W        W42175  34.433  23.060   3.356
73758W        W42176  12.352  26.206   0.271
73759W        W42177  41.336  33.930  11.537
73760W        W42178  42.304  35.436   2.844
73761W        W42179  13.224  11.155  11.988
73762W        W42180   0.387   5.270   1.891
73763W        W42181  17.604  14.321   5.726
73764W        W42182  34.407  25.127   2.795
73765W        W42183  13.699  35.593   3.695
73766W        W42184   2.792  20.071  13.880
73767W        W42185  39.823  28.511   4.128
73768W        W42186  37.574  35.502   1.395
73769W        W42187  39.559  31.544  12.399
73770W        W42188  14.119   7.358   2.317
73771W        W42189  40.926  28.959  14.453
73772W        W42190   0.833  29.579  13.323
73773W        W42191  34.568  15.181  12.977
73774W        W42192  43.940   4.387  12.532
73775W        W42193   7.875  19.132   4.348
73776W        W42194  24.559  18.737   2.342
73777W        W42195  10.769  17.774   0.874
73778W        W42196  37.957  29.432   2.343
73779W        W42197  28.572   2.241   2.882
73780W        W42198  15.109   2.242  12.089
73781W        W42199  31.942  24.122   3.716
73782W        W42200  43.892  43.305   4.131
73783W        W42201   7.697  21.081   5.278
73784W        W42202  38.444  19.232   1.389
73785W        W42203  30.920   6.277   3.356
73786W        W42204  20.543  12.684   2.753
73787W        W42205  43.005  14.286   0.933
73788W        W42206  24.030   3.781  11.479
73789W        W42207  17.131  34.452   1.416
73790W        W42208   3.341   7.230   3.229
73791W        W42209  10.731   0.427   4.652
73792W        W42210   1.446   4.377   4.177
73793W        W42211  24.674   7.387   0.853
73794W        W42212  36.056   1.361   1.740
73795W        W42213  15.227   9.265   2.673
73796W        W42214  10.276  15.760   5.085
73797W        W42215  41.458   4.374   4.684
73798W        W42216  16.296  34.020  11.502
73799W        W42217  24.031  33.931  12.963
73800W        W42218  16.785  24.696  13.373
73801W        W42219  20.555  37.415  12.482
73802W        W42220  15.647  13.120   1.877
73803W        W42221   6.256   4.361  11.916
73804W        W42222  19.050   1.442   2.410
73805W        W42223  20.079  20.596   0.348
73806W        W42224   5.854   5.438  14.867
73807W        W42225  21.100  19.252   3.260
73808W        W42226  35.460  33.949   3.387
73809W        W42227  35.504  28.609   0.243
73810W        W42228  41.009  40.335  11.044
73811W        W42229  25.606  22.719   2.665
73812W        W42230  20.131   6.370   4.649
73813W        W42231   4.322  36.486   1.882
73814W        W42232  10.806   7.259  12.371
73815W        W42233  19.624  41.356   2.394
73816W        W42234  33.914  18.280   0.926
73817W        W42235   5.863   7.417   1.262
73818W        W42236  36.984  28.148  10.405
73819W        W42237  32.445  21.048  10.972
73820W        W42238  33.395  25.583   1.437
73821W        W42239  13.323   1.865  13.970
73822W        W42240  28.148   8.399   1.844
73823W        W42241  25.080  40.376  12.895
73824W        W42242  39.347  11.296  12.853
73825W        W42243  39.485  44.963   0.365
73826W        W42244  36.505  24.484   2.804
73827W        W42245  39.511   3.737   0.381
73828W        W42246   0.793  10.644   3.848
73829W        W42247  40.504   4.430  11.590
73830W        W42248  17.102  30.622  14.276
73831W        W42249  40.401  30.082   4.797
73832W        W42250  17.302  12.147   1.321
73833W        W42251  14.775   1.913   0.792
73834W        W42252  34.988  35.988   4.598
73835W        W42253  35.525  40.858  10.916
73836W        W42254  30.125  41.494  11.525
73837W        W42255  21.158  13.824   4.615
73838W        W42256  13.112  30.066   4.242
73839W        W42257   6.923   2.386   0.417
73840W        W42258   7.825  11.230   3.722
73841W        W42259  11.812   9.377   0.413
73842W        W42260  23.108  17.605  13.452
73843W        W42261  15.754  30.448  10.125
73844W        W42262  31.076   4.244  10.529
73845W        W42263  34.486   6.889   2.845
73846W        W42264  41.869  42.948  10.022
73847W        W42265  32.539  19.642  13.380
73848W        W42266   5.913   3.219   2.801
73849W        W42267   1.477  17.747   3.188
73850W        W42268  27.138  12.128   3.311
73851W        W42269  11.774   5.737  10.019
73852W        W42270  40.877  21.036   0.263
73853W        W42271  38.858   4.267  14.813
73854W        W42272  14.726  13.830   1.397
73855W        W42273  43.495  42.295   4.681
73856W        W42274  28.625  13.111   4.115
73857W        W42275  36.920  29.139   4.681
73858W        W42276   9.321  15.130  11.124
73859W        W42277  25.708  11.713  14.356
73860W        W42278  44.862  11.165  13.346
73861W        W42279  41.473  12.258  12.054
73862W        W42280  14.594   4.230   5.605
73863W        W42281  13.173  44.416   3.723
73864W        W42282  43.471  41.835  10.049
73865W        W42283  22.153  42.378   1.352
73866W        W42284  19.631  20.134  14.895
73867W        W42285  16.163  27.655   4.218
73868W        W42286   4.431  29.504  11.479
73869W        W42287  33.980  20.146   3.246
73870W        W42288  21.621   1.341  14.766
73871W        W42289   6.290  29.992  12.388
73872W        W42290  14.604  14.269  14.488
73873W        W42291  30.445  14.167   0.431
73874W        W42292  22.513   0.331   2.878
73875W        W42293  36.926  22.137   2.195
73876W        W42294  17.692  23.001   2.388
73877W        W42295  18.180  26.114  13.875
73878W        W42296  23.533   5.903  13.429
73879W        W42297  18.148  28.045  14.290
73880W        W42298  43.847  40.889   3.791
73881W        W42299  20.073  22.086   1.791
73882W        W42300  23.121   9.346  12.013
73883W        W42301  16.675  12.293   2.889
73884W        W42302  10.203  28.506   4.282
73885W        W42303  31.509  37.477   2.848
73886W        W42304  29.641  20.058  11.125
73887W        W42305   2.784  32.581  13.905
73888W        W42306  28.495  12.215   0.374
73889W        W42307  21.670   0.904  11.970
73890W        W42308  10.168  13.825   0.377
73891W        W42309  26.553   0.489  14.808
73892W        W42310  25.642  38.828  13.350
73893W        W42311  41.415  16.276  11.908
73894W        W42312   9.390   4.711   2.351
73895W        W42313  18.626  21.066  13.417
73896W        W42314  20.706  19.575   2.817
73897W        W42315  30.476  37.992  10.958
73898W        W42316   1.780  18.584  12.979
73899W        W42317   6.696  40.018  10.543
73900W        W42318  27.024  34.008   4.670
73901W        W42319  20.556  27.538   0.426
73902W        W42320  21.135  40.385   2.240
73903W        W42321  11.298   6.702   0.884
73904W        W42322  16.309  37.972   3.172
73905W        W42323  11.222  19.239   0.249
73906W        W42324  39.536  42.963   3.629
73907W        W42325  22.185   0.951  12.462
73908W        W42326  21.068  17.634   1.894
73909W        W42327  38.426  44.482   3.632
73910W        W42328  12.612  25.472  11.509
73911W        W42329   1.391  25.556  12.420
73912W        W42330  26.203   8.662   1.285
73913W        W42331   3.249  20.666   0.263
73914W        W42332  32.093  16.148   1.784
73915W        W42333  34.614  29.423  14.783
73916W        W42334   2.802  37.387  10.893
73917W        W42335   6.818  37.573  14.842
73918W        W42336  33.009   7.195   0.362
73919W        W42337   8.668  25.678  13.444
73920W        W42338  11.223  37.084   0.426
73921W        W42339   7.372  39.017  14.900
73922W        W42340  30.503  19.258  13.983
73923W        W42341   4.761  11.186   3.368
73924W        W42342  13.239  22.063  11.018
73925W        W42343  12.263  18.682   1.215
73926W        W42344  36.513  27.608  13.048
73927W        W42345  37.351  11.219   2.811
73928W        W42346  43.391   1.273   2.788
73929W        W42347  26.090   7.230   2.404
73930W        W42348  22.996  26.191  11.962
73931W        W42349  22.203  30.499   2.787
73932W        W42350  16.269  23.652   0.351
73933W        W42351   1.371  42.788   3.815
73934W        W42352  31.916  20.082   2.896
73935W        W42353  43.377  29.113   1.799
73936W        W42354  25.673  22.640  10.913
73937W        W42355  26.148  18.274   1.830
73938W        W42356   6.273  36.943  12.078
73939W        W42357  44.317  29.940   1.737
73940W        W42358   8.841  17.761   1.382
73941W        W42359   1.344   3.285   4.822
73942W        W42360  16.775   7.246   2.709
73943W        W42361  27.008  27.644   3.806
73944W        W42362  34.865  30.993   1.802
73945W        W42363   9.175  42.836  13.376
73946W        W42364  43.005   9.191  12.024
73947W        W42365  38.845   0.414  12.426
73948W        W42366   2.374  14.106   4.164
73949W        W42367  12.123   4.319  14.981
73950W        W42368  20.633  30.541   4.133
73951W        W42369  29.112  10.325  10.576
73952W        W42370  11.180  39.965   4.182
73953W        W42371  20.066  28.461   2.697
73954W        W42372  30.522  25.563   4.696
73955W        W42373  10.718  14.612   2.370
73956W        W42374  41.998  22.136   3.812
73957W        W42375   5.789  39.499   3.772
73958W        W42376  37.354   6.238  10.465
73959W        W42377  34.000   6.863  13.808
73960W        W42378   0.471  31.036   4.735
73961W        W42379   8.208  28.120  10.887
73962W        W42380  38.022  41.821  12.864
73963W        W42381  40.349  29.012   2.775
73964W        W42382  42.800   6.758  10.437
73965W        W42383   1.768   6.780   3.709
73966W        W42384  29.143  13.719  12.963
73967W        W42385  37.899  44.258   3.690
73968W        W42386   8.835  18.132   2.694
73969W        W42387  26.628  37.477   3.720
73970W        W42388  41.482  17.087   1.728
73971W        W42389  11.218  40.330   4.231
73972W        W42390  26.043  18.748   2.794
73973W        W42391  43.984  12.778   5.106
73974W        W42392  37.558  25.700   1.820
73975W        W42393  33.570  26.130  10.056
73976W        W42394  41.019   6.886   4.316
73977W        W42395  42.943  32.914  14.295
73978W        W42396  39.515  25.112   2.400
73979W        W42397  35.966  26.680   0.928
73980W        W42398  40.420  40.315  12.521
73981W        W42399  18.737  36.997  12.517
73982W        W42400  18.581  37.363   9.941
73983W        W42401  43.849  21.524   9.932
73984W        W42402   1.296  37.880   3.179
73985W        W42403  19.777  21.150  14.428
73986W        W42404  18.617  32.072   4.168
73987W        W42405  10.826  24.155  10.508
73988W        W42406  34.386  23.733   2.335
73989W        W42407   5.225  12.757   3.255
73990W        W42408  43.962   2.892  13.959
73991W        W42409  17.569  27.499  13.884
73992W        W42410  41.874  36.047   5.284
73993W        W42411  34.036  39.845  12.087
73994W        W42412  43.781   4.313   1.816
73995W        W42413  17.686  10.701  12.542
73996W        W42414  26.629  20.570  13.527
73997W        W42415  28.589  10.230  13.498
73998W        W42416  10.139   9.799  11.523
73999W        W42417  19.187  23.117  10.581
74000W        W42418  44.871  40.858   2.208
74001W        W42419  15.701  19.246   4.165
74002W        W42420  11.645  30.138   9.987
74003W        W42421  35.583  16.623  12.924
74004W        W42422   5.428  15.267   0.376
74005W        W42423  25.630  41.968   0.920
74006W        W42424  18.752  33.478   1.891
74007W        W42425  23.592   0.465   4.682
74008W        W42426  12.268  20.084  11.423
74009W        W42427  15.788  27.997  12.537
74010W        W42428  31.059   5.254   2.314
74011W        W42429  22.636  39.400   0.754
74012W        W42430  26.016   9.191   4.184
74013W        W42431  19.226  41.292  13.510
74014W        W42432  44.474  30.944   0.479
74015W        W42433   3.219  34.017   0.780
74016W        W42434  20.627  44.318  10.940
74017W        W42435  15.107   7.680   4.196
74018W        W42436  40.326   8.655   2.795
74019W        W42437  27.956  43.492  11.910
74020W        W42438  43.875  43.923   4.607
74021W        W42439  18.551  19.045  11.900
74022W        W42440  12.286  33.446  12.489
74023W        W42441  12.661  12.649  10.565
74024W        W42442  21.100   7.748  11.906
74025W        W42443  19.729  18.146  11.486
74026W        W42444  31.086  12.274   4.307
74027W        W42445  18.737  28.990   4.619
74028W        W42446  43.338  10.236  12.428
74029W        W42447  34.112   7.301  10.638
74030W        W42448  36.502  10.789   3.199
74031W        W42449  12.245   0.881  12.860
74032W        W42450  28.013  36.948  14.409
74033W        W42451  22.142  34.004  12.055
74034W        W42452  38.856  37.919   3.385
74035W        W42453  33.926  20.169  14.477
74036W        W42454  19.059   4.438  12.966
74037W        W42455  13.613  28.046   0.342
74038W        W42456  34.092   5.323   1.214
74039W        W42457  36.371  20.745  12.361
74040W        W42458  18.246  13.833   4.681
74041W        W42459  14.636  25.517  13.943
74042W        W42460  24.671   8.719   2.722
74043W        W42461  18.759   1.949   5.248
74044W        W42462  10.704  32.463  14.849
74045W        W42463  39.439  21.247  13.377
74046W        W42464   4.934  21.546  14.786
74047W        W42465   8.306  31.151   0.861
74048W        W42466   8.795   6.230  10.506
74049W        W42467  32.491  10.368  10.935
74050W        W42468  31.467   5.896  13.334
74051W        W42469  39.057  30.137  12.059
74052W        W42470  29.466  12.313   2.179
74053W        W42471  14.765   8.658  14.291
74054W        W42472  11.674  15.583   3.268
74055W        W42473  15.690  17.306  14.319
74056W        W42474  38.959  21.563   3.761
74057W        W42475  28.487  27.181   0.443
74058W        W42476   5.342  41.429  14.032
74059W        W42477   4.422   8.858  12.991
74060W        W42478  27.141  11.158   0.939
74061W        W42479  23.090   8.393   4.255
74062W        W42480  42.826  35.551  11.874
74063W        W42481  36.964  26.068   0.754
74064W        W42482   6.238  33.033  12.067
74065W        W42483  38.502  40.922   3.331
74066W        W42484   7.852  26.480  10.601
74067W        W42485  41.880  39.377  11.109
74068W        W42486  20.235  23.581   4.227
74069W        W42487  30.020  16.269  13.814
74070W        W42488  10.863   6.217  10.088
74071W        W42489  13.202   9.864  12.979
74072W        W42490  25.514  32.908  14.850
74073W        W42491   5.408  35.079   3.658
74074W        W42492   2.722   0.752   1.450
74075W        W42493   0.304   6.828  14.950
74076W        W42494  15.610  32.531   1.345
74077W        W42495  44.755   5.830  11.471
74078W        W42496  14.162  11.365  13.351
74079W        W42497   5.425  15.156  10.427
74080W        W42498   7.796  26.024  13.378
74081W        W42499  42.424  36.515   1.901
74082W        W42500  33.618  36.942   0.847
74083W        W42501  30.007  15.305  11.981
74084W        W42502  21.756  44.412   4.657
74085W        W42503  23.605  14.269  13.981
74086W        W42504  27.507  15.790  11.401
74087W        W42505  21.586  38.845  12.410
74088W        W42506  25.654  11.710  11.079
74089W        W42507  37.039  23.214   2.809
74090W        W42508   0.778   1.867  13.013
74091W        W42509  15.593  21.546   3.155
74092W        W42510  15.295  40.446  14.290
74093W        W42511  30.453  12.267   0.387
74094W        W42512  14.806   5.313  11.923
74095W        W42513   5.697  27.593  11.076
74096W        W42514  29.937  19.545  14.839
74097W        W42515  12.711  35.426   2.679
74098W        W42516  35.476  18.229  13.346
74099W        W42517  23.092  29.995   4.673
74100W        W42518   7.286  19.723  14.444
74101W        W42519   6.693  41.463  14.783
74102W        W42520  27.021  24.220   4.708
74103W        W42521  33.425  12.262  13.811
74104W        W42522  44.917  34.879  14.023
74105W        W42523   5.214  40.403   2.295
74106W        W42524  19.090  28.090  10.474
74107W        W42525  40.426   0.300  13.509
74108W        W42526  31.066  43.299   2.668
74109W        W42527  26.554  43.013  11.396
74110W        W42528  28.082  11.723  10.040
74111W        W42529  20.708   8.884  12.051
74112W        W42530  12.185   8.183   3.680
74113W        W42531  41.414  13.819   0.751
74114W        W42532  43.768  37.978  11.869
74115W        W42533  26.683  37.022   2.721
74116W        W42534  17.589  43.392  11.466
74117W        W42535  35.086  38.333  14.948
74118W        W42536  17.703  15.272  12.061
74119W        W42537  14.177  12.196   4.691
74120W        W42538  23.214  41.426   1.399
74121W        W42539   4.751  25.562   3.290
74122W        W42540  24.496  44.324   4.689
74123W        W42541  38.889  40.428   2.794
74124W        W42542  31.473  22.701   2.898
74125W        W42543  37.459  40.350   0.823
74126W        W42544  34.888  16.657  13.809
74127W        W42545  24.525  44.938   3.192
74128W        W42546  28.672   6.796   0.750
74129W        W42547  41.028   1.739  14.512
74130W        W42548  27.111  18.609  10.441
74131W        W42549  36.067  40.431   4.751
74132W        W42550  27.560   0.290  14.506
74133W        W42551  15.704   1.929  10.482
74134W        W42552  13.765  15.669  12.001
74135W        W42553  36.512  22.114  11.889
74136W        W42554  32.513  31.089  10.457
74137W        W42555  44.286   6.913  11.993
74138W        W42556  30.527  14.335  12.500
74139W        W42557  38.941  28.149   1.705
74140W        W42558  27.460  26.044  12.035
74141W        W42559   4.822  16.792  14.859
74142W        W42560   0.745  28.549   4.677
74143W        W42561  14.640  23.724  14.334
74144W        W42562   5.863  37.005  14.000
74145W        W42563  24.649   7.268  10.901
74146W        W42564  15.781  44.452  11.923
74147W        W42565  36.485  42.792  14.949
74148W        W42566   3.848  44.311  14.883
74149W        W42567  23.116  15.789   2.776
74150W        W42568  28.488  38.416  13.372
74151W        W42569   7.308  43.418   3.283
74152W        W42570  40.838  16.230  10.496
74153W        W42571  44.343  31.107  13.063
74154W        W42572  10.753  19.644  14.908
74155W        W42573   8.806  12.824  13.842
74156W        W42574  23.708  24.540   1.395
74157W        W42575  39.536  25.673   4.338
74158W        W42576   6.890  42.776  13.865
74159W        W42577  27.557  33.399  11.996
74160W        W42578  41.812  33.040  13.021
74161W        W42579  22.685  33.428  13.832
74162W        W42580  20.138  20.031  12.936
74163W        W42581  29.500  31.123  11.558
74164W        W42582  12.831  43.823  10.456
74165W        W42583  43.826  37.881   1.782
74166W        W42584  27.469   0.907   2.819
74167W        W42585   5.718   8.715   2.794
74168W        W42586  38.048  32.439  13.509
74169W        W42587  32.632  35.063   0.242
74170W        W42588   3.371  38.939  13.401
74171W        W42589  33.415  27.164   1.262
74172W        W42590   3.758  40.983  11.568
74173W        W42591  23.052  19.736  14.799
74174W        W42592  38.878   9.297  11.445
74175W        W42593  41.348  28.516   2.849
74176W        W42594  41.886  35.059   4.612
74177W        W42595  39.348  25.681   4.683
74178W        W42596  15.708  18.051   3.775
74179W        W42597  14.764  21.030   4.785
74180W        W42598  14.237  23.506  10.599
74181W        W42599  41.472  18.239  14.999
74182W        W42600  11.645  35.991  14.967
74183W        W42601   2.383  34.440  11.882
74184W        W42602  12.159  44.287  11.942
74185W        W42603  37.059  33.381   0.940
74186W        W42604  39.990   7.243  13.469
74187W        W42605   5.326  34.057  13.935
74188W        W42606   4.868   9.254   1.868
74189W        W42607  23.100  43.944   1.316
74190W        W42608  26.066  36.888  11.059
74191W        W42609   2.331  32.407   1.221
74192W        W42610  22.035   9.701  13.397
74193W        W42611  40.360   7.714   0.871
74194W        W42612  35.074  32.591   2.372
74195W        W42613  28.185   8.721   2.236
74196W        W42614  37.058   4.258  14.913
74197W        W42615  39.424  41.999  10.637
74198W        W42616  19.630  31.107  11.593
74199W        W42617  29.461  13.209   3.742
74200W        W42618  44.386  35.467  11.498
74201W        W42619   8.281  34.597   1.362
74202W        W42620  35.599   9.871   0.331
74203W        W42621  35.888  13.202  14.283
74204W        W42622  12.335  43.371   0.751
74205W        W42623  31.094   3.315  11.975
74206W        W42624  38.462   4.721   0.898
74207W        W42625  21.698   1.353   4.837
74208W        W42626  14.146  30.085   1.344
74209W        W42627  29.090   4.770  11.888
74210W        W42628  13.710  30.155   2.713
74211W        W42629  20.677  39.378  13.037
74212W        W42630  43.912  25.187   2.231
74213W        W42631  20.556   4.922   2.365
74214W        W42632   4.866  26.200   3.634
74215W        W42633  26.066   7.778  14.000
74216W        W42634  42.425  37.977   3.699
74217W        W42635  10.254  30.417   1.735
74218W        W42636  14.169  31.954   0.943
74219W        W42637  29.106   1.359  10.588
74220W        W42638  29.152  30.965   0.774
74221W        W42639  26.532  36.429   5.264
74222W        W42640  36.978  40.381  11.530
74223W        W42641  44.477  24.553   2.414
74224W        W42642   8.320  18.701  10.912
74225W        W42643  35.479  30.911   2.749
74226W        W42644  13.823  39.991  13.852
74227W        W42645  11.236  14.830  10.996
74228W        W42646  40.473  30.162  13.921
74229W        W42647  27.679  27.616  10.951
74230W        W42648  24.125   3.824   4.658
74231W        W42649   4.745  16.239   1.889
74232W        W42650  23.031  11.213  14.970
74233W        W42651  23.503  22.680   1.390
74234W        W42652  30.157  28.957  12.410
74235W        W42653  29.638  17.556  14.893
74236W        W42654  20.701  15.669  13.544
74237W        W42655  12.830  24.507   4.175
74238W        W42656  13.273   8.691   0.424
74239W        W42657   8.663  19.060   4.269
74240W        W42658   9.203  40.890   0.250
74241W        W42659  20.639  31.520   2.276
74242W        W42660  33.577  35.493   4.220
74243W        W42661  28.512  23.725  14.769
74244W        W42662   8.302   5.847   2.757
74245W        W42663   8.309  16.724  13.894
74246W        W42664  16.115   7.175   5.658
74247W        W42665  28.176   9.244  13.454
74248W        W42666  34.088  19.103   4.743
74249W        W42667  22.505  13.211  13.968
74250W        W42668   7.257  38.340   4.168
74251W        W42669   5.345  27.114   3.713
74252W        W42670  25.131  41.341   0.318
74253W        W42671  12.295  32.635  10.889
74254W        W42672  15.281   6.720   9.537
74255W        W42673  37.884   4.831   0.887
74256W        W42674  11.213   7.347  13.372
74257W        W42675  44.782  15.660  11.900
74258W        W42676  29.134  37.448   0.846
74259W        W42677   8.705  37.933   0.293
74260W        W42678  30.625   0.388   2.838
74261W        W42679  11.716  24.022   1.763
74262W        W42680  10.693   8.883   0.351
74263W        W42681  40.307  17.582   4.756
74264W        W42682  32.406  36.023  14.501
74265W        W42683   1.881  32.427   3.239
74266W        W42684  28.677  44.937   2.218
74267W        W42685   1.340   1.786  13.420
74268W        W42686  21.583  23.175  14.874
74269W        W42687   2.897  29.497   1.832
74270W        W42688  41.512  41.433   3.839
74271W        W42689  24.003  44.782   3.775
74272W        W42690   3.813   0.986   0.380
74273W        W42691  31.905  14.212  10.630
74274W        W42692  19.641   1.823  13.977
74275W        W42693  18.155   3.286  12.512
74276W        W42694  25.592   8.374   2.677
74277W        W42695  41.394  32.400   2.682
74278W        W42696  32.637   3.828  11.436
74279W        W42697  10.862  23.162  11.904
74280W        W42698  16.633  36.472  11.556
74281W        W42699  18.787  35.084  11.542
74282W        W42700   9.760   8.404   4.254
74283W        W42701   0.321   0.297   0.315
74284W        W42702  26.977   4.839  12.008
74285W        W42703  38.424  15.649   4.150
74286W        W42704  20.122  34.006   1.733
74287W        W42705  28.123  37.012  13.800
74288W        W42706  13.174  34.970  12.372
74289W        W42707  31.583  27.003  14.906
74290W        W42708  34.529   4.854   4.147
74291W        W42709  41.391  29.039  12.840
74292W        W42710  27.122  15.775  11.537
74293W        W42711  38.370  27.106   3.805
74294W        W42712  39.516   5.911   3.760
74295W        W42713  13.199   5.287  13.430
74296W        W42714  28.182  40.456   0.822
74297W        W42715  24.051  10.746   0.921
74298W        W42716  38.339  25.073  13.868
74299W        W42717   4.291   3.772   0.933
74300W        W42718  39.976   4.418  10.977
74301W        W42719  32.062  36.562   1.731
74302W        W42720  34.972  38.958  14.014
74303W        W42721  43.923  20.224   1.775
74304W        W42722   5.860  10.375  11.543
74305W        W42723  14.234  28.656   4.671
74306W        W42724  16.795  30.957   4.202
74307W        W42725  15.171  14.668   3.376
74308W        W42726  25.008  38.999  10.571
74309W        W42727  15.718  24.200   1.799
74310W        W42728  42.361  32.911  10.510
74311W        W42729   4.383  15.231  12.904
74312W        W42730  14.716  28.502   1.762
74313W        W42731  42.879   4.397  12.445
74314W        W42732  27.682  12.162  11.996
74315W        W42733   4.419  11.755  13.312
74316W        W42734  10.778   1.792   0.339
74317W        W42735   9.361  23.118  12.948
74318W        W42736  27.107  22.125  11.121
74319W        W42737  21.075  41.418   0.951
74320W        W42738   1.248  27.095  12.463
74321W        W42739  29.057  34.885   1.708
74322W        W42740  36.055  42.419  14.905
74323W        W42741  34.553  28.454   2.285
74324W        W42742  36.887  10.237   0.735
74325W        W42743   6.880   1.894  10.958
74326W        W42744  17.802  30.916  12.898
74327W        W42745  14.637  15.725  10.096
74328W        W42746  11.780  14.827   2.287
74329W        W42747  15.305  41.531   4.752
74330W        W42748   8.702  44.322  11.972
74331W        W42749  35.603  29.047   4.758
74332W        W42750  12.791   2.418   2.725
74333W        W42751   8.704  41.943  14.507
74334W        W42752  27.160  42.789   3.822
74335W        W42753   3.400  11.794  14.869
74336W        W42754  27.538  40.360   3.260
74337W        W42755  27.130  41.972   0.749
74338W        W42756   6.275  22.050   1.355
74339W        W42757  12.319  13.606   0.914
74340W        W42758  38.859  33.437   0.820
74341W        W42759  43.859  22.742  12.921
74342W        W42760   9.196  35.905  10.112
74343W        W42761  33.475  27.096   0.397
74344W        W42762  44.986  27.086   4.246
74345W        W42763  26.480  37.358   5.147
74346W        W42764  15.255   2.875   0.858
74347W        W42765  34.013   2.862  12.827
74348W        W42766  14.284  15.087   3.706
74349W        W42767   2.752  39.054  10.640
74350W        W42768  42.281  16.189  14.514
74351W        W42769  23.027  35.990  12.436
74352W        W42770  19.631   6.261  10.630
74353W        W42771  38.827   1.314   0.480
74354W        W42772  31.501  13.306  14.778
74355W        W42773  10.255  26.965   3.832
74356W        W42774  31.117  15.814   3.831
74357W        W42775  40.820  20.624  11.033
74358W        W42776  17.081  26.574   1.337
74359W        W42777   5.250  18.783  13.811
74360W        W42778  36.895   3.812  14.452
74361W        W42779  17.187   5.725   3.220
74362W        W42780  22.553  14.127   2.873
74363W        W42781  11.679   0.447  11.913
74364W        W42782   8.897  16.745  10.471
74365W        W42783  16.588  22.220   1.289
74366W        W42784  25.541   0.794  13.028
74367W        W42785  38.555  38.980  10.098
74368W        W42786   8.230  37.894   0.771
74369W        W42787  44.316  13.178  12.426
74370W        W42788  34.101  42.824  14.502
74371W        W42789  35.552  37.347   1.353
74372W        W42790   9.193  30.496  12.487
74373W        W42791  43.459  28.567   2.379
74374W        W42792  29.057  11.819  11.541
74375W        W42793  25.170  20.710   3.809
74376W        W42794  40.387  13.105  12.487
74377W        W42795  25.636  43.369   0.460
74378W        W42796   6.803  17.744   2.685
74379W        W42797  23.564  40.875  10.508
74380W        W42798  30.066  26.595   1.338
74381W        W42799  37.059  18.136   3.865
74382W        W42800  31.080  22.050   2.280
74383W        W42801  31.478  44.325  10.976
74384W        W42802  33.580  20.658   3.650
74385W        W42803  35.862  39.043  14.487
74386W        W42804  20.749  40.802   3.155
74387W        W42805  15.202   6.365  13.497
74388W        W42806  37.579  33.119  13.449
74389W        W42807  26.488  16.602  11.949
74390W        W42808  30.927  34.987  12.048
74391W        W42809  30.513  13.319   0.756
74392W        W42810   1.464  22.041  10.910
74393W        W42811   2.765  43.417  14.974
74394W        W42812  40.884  43.836   4.663
74395W        W42813  16.203  36.540  13.540
74396W        W42814   7.210  21.098   3.750
74397W        W42815  29.653  36.862   2.666
74398W        W42816   8.240   6.399   4.265
74399W        W42817   6.219   7.806  11.604
74400W        W42818   6.864  25.216  12.835
74401W        W42819  38.338  37.536   0.875
74402W        W42820  42.403  17.762   4.325
74403W        W42821   3.241   9.701   4.838
74404W        W42822  16.134  22.170  14.823
74405W        W42823  14.338  21.222   4.831
74406W        W42824  28.639  20.105  12.404
74407W        W42825  25.112  23.500  13.812
74408W        W42826  29.534  36.855   0.261
74409W        W42827  31.956  12.757  11.888
74410W        W42828   0.353  10.348  12.563
74411W        W42829  40.887  16.636  11.042
74412W        W42830   4.448  42.893  12.381
74413W        W42831  41.892   2.241  13.527
74414W        W42832  13.270  11.853   9.950
74415W        W42833  39.047  22.145   4.205
74416W        W42834  31.121  14.711  10.594
74417W        W42835   8.300  14.106  14.303
74418W        W42836  13.339  30.458   4.338
74419W        W42837  36.896  17.071   1.368
74420W        W42838  26.496  25.535   3.750
74421W        W42839  17.191  28.069   5.105
74422W        W42840  33.118  18.560  11.051
74423W        W42841  40.386  19.133  14.382
74424W        W42842  22.190  34.064   3.712
74425W        W42843  25.652  36.921  11.878
74426W        W42844   2.871  39.031   0.909
74427W        W42845  28.107   4.212   4.698
74428W        W42846   5.229  24.500   2.271
74429W        W42847  31.993  26.999  12.980
74430W        W42848  39.884  31.101  10.950
74431W        W42849  42.424  19.757   4.224
74432W        W42850  33.939  31.132   0.934
74433W        W42851  16.766  34.970  11.380
74434W        W42852  18.056   7.361  12.382
74435W        W42853  38.902  37.080   4.320
74436W        W42854  28.931   8.330  10.910
74437W        W42855  21.154  15.107  13.488
74438W        W42856  12.786  16.680   4.778
74439W        W42857   9.292  28.135  13.493
74440W        W42858  27.177  41.366   2.238
74441W        W42859   0.301  32.599   0.278
74442W        W42860  24.038  10.368  10.554
74443W        W42861  35.908   1.456  10.903
74444W        W42862  18.747   9.878   0.367
74445W        W42863  31.033  41.789  12.843
74446W        W42864  34.111  25.028   3.752
74447W        W42865  26.492  30.113  13.810
74448W        W42866  31.405  16.293  12.956
74449W        W42867  34.061  32.441   2.210
74450W        W42868   4.245  13.283  13.308
74451W        W42869   7.902  22.544   3.851
74452W        W42870  36.548  13.304  11.941
74453W        W42871  13.712   8.294  14.863
74454W        W42872  18.767  17.627   0.450
74455W        W42873  20.118  29.466   0.779
74456W        W42874  37.518  32.122   0.842
74457W        W42875  24.023  12.156   2.310
74458W        W42876   5.414  27.637   2.396
74459W        W42877  11.855  44.278   2.894
74460W        W42878  44.299  41.400   2.416
74461W        W42879  41.308  10.384  11.011
74462W        W42880  21.224  40.470   1.801
74463W        W42881  42.864  13.188  10.073
74464W        W42882  25.999  26.992   2.347
74465W        W42883  43.912  15.254   2.890
74466W        W42884   1.774  44.267   0.921
74467W        W42885  44.911  26.970  13.912
74468W        W42886  36.493  39.523  10.532
74469W        W42887   5.926  21.038  13.873
74470W        W42888  30.636   2.384  14.980
74471W        W42889   7.321   9.199  13.456
74472W        W42890  25.042   8.778  12.025
74473W        W42891  21.581  37.581  14.420
74474W        W42892  23.685  17.677  13.355
74475W        W42893  14.640  29.531  12.534
74476W        W42894  25.114  19.735  14.336
74477W        W42895   2.351   2.331   3.268
74478W        W42896  41.961  33.066  13.431
74479W        W42897  11.819  26.156   9.935
74480W        W42898  34.376  42.515   1.444
74481W        W42899  21.687  18.655   1.289
74482W        W42900   3.221  23.527   0.829
74483W        W42901  43.330   4.928   3.741
74484W        W42902  16.295  31.530  12.834
74485W        W42903  37.511  14.320   0.763
74486W        W42904   2.847  19.200   0.458
74487W        W42905   1.269  29.114   4.310
74488W        W42906  10.879  19.098  12.528
74489W        W42907  24.078   8.798   4.809
74490W        W42908  10.205  42.357   3.366
74491W        W42909  13.784  35.972   2.717
74492W        W42910  27.196  17.169  12.079
74493W        W42911  34.897   3.381  12.551
74494W        W42912   1.814  36.422   4.752
74495W        W42913  29.950   2.427  13.968
74496W        W42914  17.598  30.126  14.330
74497W        W42915  29.489  40.496  10.932
74498W        W42916  40.415  38.339  14.501
74499W        W42917  27.118  43.919   3.725
74500W        W42918  14.104   5.365   2.831
74501W        W42919  25.682  30.982   4.773
74502W        W42920  29.979  42.030   2.749
74503W        W42921  43.887  44.004   3.844
74504W        W42922   4.298  37.925  13.317
74505W        W42923   3.273   0.810   1.865
74506W        W42924  23.681  41.927  12.560
74507W        W42925   9.871  31.035   4.649
74508W        W42926  17.273  18.563  11.114
74509W        W42927  25.555  33.509  11.109
74510W        W42928  33.893  25.599   4.711
74511W        W42929  25.086  28.023  12.533
74512W        W42930  29.618   7.172  12.919
74513W        W42931  26.976  41.991  13.333
74514W        W42932  38.395  43.510   2.852
74515W        W42933  25.071  33.097  14.910
74516W        W42934   6.913  17.106  14.886
74517W        W42935  39.386  15.794  12.462
74518W        W42936  10.640   4.837  10.627
74519W        W42937  17.128  33.969  14.420
74520W        W42938  25.050  30.600   0.897
74521W        W42939  30.164  36.008  14.830
74522W        W42940  20.152   1.481  11.393
74523W        W42941  17.649  39.018  12.893
74524W        W42942  28.024  41.013   0.270
74525W        W42943  26.699   5.335  11.925
74526W        W42944  22.124  21.646   2.732
74527W        W42945   6.878  26.144  11.111
74528W        W42946  24.130  32.544   4.814
74529W        W42947  37.043  22.086  12.369
74530W        W42948   0.989  36.495  10.485
74531W        W42949  22.684   9.864  13.968
74532W        W42950  13.606  43.016  13.378
74533W        W42951   7.231  40.371  13.054
74534W        W42952  24.587  44.914  11.491
74535W        W42953  12.342  26.556   1.342
74536W        W42954  39.344  26.955   4.763
74537W        W42955   8.375   7.722   2.415
74538W        W42956  38.357  15.613   1.785
74539W        W42957  20.077   4.375   1.899
74540W        W42958  41.487  39.511  12.836
74541W        W42959  20.052  18.763   3.280
74542W        W42960  23.645  30.026  14.338
74543W        W42961  18.559  19.742  11.901
74544W        W42962   7.210   4.275   2.778
74545W        W42963  43.395   6.772  13.430
74546W        W42964  37.437  38.075  10.047
74547W        W42965  12.319   2.861   3.649
74548W        W42966  42.000  35.915   2.797
74549W        W42967  42.914   5.213  12.997
74550W        W42968   8.165  20.236  13.443
74551W        W42969   4.943  28.105   0.813
74552W        W42970  28.602  19.045  11.474
74553W        W42971  31.615  37.461   5.272
74554W        W42972  16.132  18.269   3.174
74555W        W42973  23.520  18.648  14.984
74556W        W42974  38.452  11.747  14.349
74557W        W42975   3.933  42.781   1.415
74558W        W42976  39.048   2.942   2.722
74559W        W42977  20.709  26.523   4.717
74560W        W42978   5.821  27.512   3.634
74561W        W42979  23.609   5.348   2.348
74562W        W42980  39.976  42.331   4.673
74563W        W42981  32.932  25.970   0.740
74564W        W42982  14.168   2.872  14.018
74565W        W42983   8.668  22.544   2.702
74566W        W42984  23.015  38.542   4.313
74567W        W42985  38.379   4.911  13.464
74568W        W42986  12.720  41.435  13.909
74569W        W42987   7.273  34.382   0.761
74570W        W42988  10.262  32.410  11.019
74571W        W42989  39.534  43.444   1.716
74572W        W42990  33.004  41.811  13.063
74573W        W42991  15.168   1.293   4.127
74574W        W42992  32.913   0.901   1.268
74575W        W42993  44.799   2.308   3.703
74576W        W42994  41.982  34.450   2.397
74577W        W42995  25.656  36.562   1.432
74578W        W42996   8.214  43.509   2.798
74579W        W42997   2.767  30.953  11.540
74580W        W42998  36.546   0.870  14.764
74581W        W42999  40.834   0.480  12.999
74582W        W43000  36.461  27.608   1.374
74583W        W43001  17.738   6.200  10.135
74584W        W43002  28.025  25.604  14.490
74585W        W43003  24.563  19.075   3.708
74586W        W43004   1.326   8.252  13.990
74587W        W43005  37.939  24.603   0.846
74588W        W43006  15.314  35.911  12.833
74589W        W43007  38.529   6.912  12.964
74590W        W43008  16.253  39.477  11.510
74591W        W43009  37.079  10.807   0.461
74592W        W43010  18.073  30.034  10.498
74593W        W43011  39.401   4.297  10.948
74594W        W43012  15.682  42.479   1.316
74595W        W43013  35.407  11.242  10.896
74596W        W43014  41.000  27.509   1.418
74597W        W43015   2.833  31.450   1.358
74598W        W43016  35.437  13.228   0.434
74599W        W43017  19.770  28.516   1.439
74600W        W43018   8.207  10.835   0.964
74601W        W43019  15.808  27.169  10.459
74602W        W43020  25.033  36.453  13.037
74603W        W43021  36.572  36.437  14.909
74604W        W43022   8.315  20.703   3.648
74605W        W43023   2.336  12.186   2.316
74606W        W43024   6.708   1.746   1.256
74607W        W43025  22.693  27.947  13.450
74608W        W43026  38.050  15.604  13.491
74609W        W43027  39.314  44.386  14.342
74610W        W43028   8.770  41.535   2.670
74611W        W43029  24.083  21.249   2.814
74612W        W43030  24.091  21.724   4.823
74613W        W43031   4.251  24.614   1.431
74614W        W43032  15.283   0.458   3.787
74615W        W43033  25.042  17.192   2.245
74616W        W43034  35.085  44.302   4.666
74617W        W43035   8.764  20.719  14.760
74618W        W43036  25.477  44.282   3.719
74619W        W43037  19.600  14.590  14.500
74620W        W43038  23.138  42.339  10.909
74621W        W43039  13.750  42.930   1.899
74622W        W43040  10.805  32.102   1.897
74623W        W43041  21.044   8.798  10.636
74624W        W43042  34.915  37.856   2.339
74625W        W43043  34.468  14.698  14.341
74626W        W43044  14.138  22.682   1.729
74627W        W43045  22.092   5.917  11.379
74628W        W43046  37.883   9.373  13.054
74629W        W43047   6.829   7.181  11.542
74630W        W43048   1.461   6.286   3.371
74631W        W43049  11.647  42.946  10.095
74632W        W43050  12.637  41.919  11.883
74633W        W43051  15.627  36.082   2.770
74634W        W43052  40.367   1.826   3.370
74635W        W43053  22.171   5.743   1.772
74636W        W43054  27.602  31.947  10.968
74637W        W43055  29.001  39.877   1.279
74638W        W43056   6.298  39.892   0.835
74639W        W43057  17.682  20.049   1.770
74640W        W43058   8.658  36.942   2.209
74641W        W43059  21.683   3.390   3.341
74642W        W43060  36.432  16.686  11.891
74643W        W43061  28.648  21.615  13.871
74644W        W43062  15.792  16.245   3.732
74645W        W43063   7.723  43.777   2.317
74646W        W43064   7.904  34.051   2.873
74647W        W43065  32.410  38.381  12.386
74648W        W43066  35.446  28.515   3.838
74649W        W43067  33.889  25.593   2.774
74650W        W43068   9.751  33.030  13.433
74651W        W43069  11.729  17.191   1.820
74652W        W43070  21.231  28.127   3.269
74653W        W43071   9.679   4.211  10.566
74654W        W43072  26.046  37.362   2.364
74655W        W43073  39.491  41.786  14.435
74656W        W43074  15.735  12.154   5.111
74657W        W43075  38.372  20.201  14.287
74658W        W43076  25.973  27.464  10.555
74659W        W43077  12.837  24.489  12.409
74660W        W43078  14.700  37.023  11.570
74661W        W43079  43.466  18.117  11.483
74662W        W43080  43.420   4.325  14.958
74663W        W43081  43.449  38.451   4.284
74664W        W43082  32.033  13.112  13.022
74665W        W43083  22.556   6.845  12.978
74666W        W43084   4.762  39.501   4.746
74667W        W43085  21.649  20.571   3.656
74668W        W43086  30.005  36.513  12.905
74669W        W43087   5.279  42.002   4.631
74670W        W43088  36.871  17.157  10.993
74671W        W43089  40.993  36.516  14.943
74672W        W43090  42.292  29.437  13.941
74673W        W43091   0.881  29.939   3.802
74674W        W43092  36.395  44.812  10.599
74675W        W43093  14.628  35.395   2.731
74676W        W43094  40.941  42.779  13.338
74677W        W43095  22.602  42.900  13.335
74678W        W43096  35.043  21.261  12.043
74679W        W43097  27.574   2.933   2.675
74680W        W43098  20.258  37.914  12.423
74681W        W43099   4.777  11.339   4.787
74682W        W43100  40.883  17.604   2.749
74683W        W43101  42.306  44.845   1.450
74684W        W43102  40.525  21.661   3.655
74685W        W43103  12.251  16.632   3.837
74686W        W43104  40.053   0.897  10.988
74687W        W43105  10.249  25.034  10.036
74688W        W43106  42.803  41.921   5.256
74689W        W43107  27.576  35.491   4.153
74690W        W43108  23.558  22.111  14.288
74691W        W43109  20.153  24.005   5.128
74692W        W43110   8.308  29.453   2.360
74693W        W43111  22.034  43.451  11.494
74694W        W43112  22.153  39.912   2.367
74695W        W43113  15.821  33.439  13.542
74696W        W43114   1.759  13.248  12.511
74697W        W43115  38.853  14.823  13.474
74698W        W43116  44.971  44.914   1.911
74699W        W43117   9.811  11.794   1.898
74700W        W43118  43.789   3.941  10.435
74701W        W43119  14.242  42.785  10.994
74702W        W43120   3.758  35.909   1.265
74703W        W43121  10.697  26.495  13.460
74704W        W43122  10.263  13.747  11.548
74705W        W43123  14.598  26.073   4.222
74706W        W43124  20.728   5.892   1.736
74707W        W43125  33.485  28.641   2.843
74708W        W43126  41.906   3.890   4.778
74709W        W43127  36.443  17.562  13.424
74710W        W43128  26.493  34.514  14.955
74711W        W43129  41.946  27.167   0.863
74712W        W43130  15.627  38.458  10.906
74713W        W43131  32.997  39.387   4.711
74714W        W43132  29.080  39.937  12.361
74715W        W43133  13.313  19.121   4.666
74716W        W43134  29.922   7.371  11.517
74717W        W43135   6.381   2.258  12.544
74718W        W43136  10.307  27.971   0.937
74719W        W43137  10.327  27.063   2.837
74720W        W43138  16.735  44.490  13.320
74721W        W43139  40.851  30.629  13.497
74722W        W43140   0.478  43.834  12.369
74723W        W43141   2.889   9.726  14.834
74724W        W43142   2.945  28.968   0.437
74725W        W43143  24.109  18.571  12.447
74726W        W43144  29.107   9.765   1.431
74727W        W43145  31.129  33.523   3.239
74728W        W43146  34.901  15.160  11.882
74729W        W43147  26.101  33.099   0.916
74730W        W43148  23.733   6.214  14.844
74731W        W43149  22.656  20.649  13.993
74732W        W43150  17.225  17.598   4.291
74733W        W43151  24.500   3.413   0.411
74734W        W43152  43.374  14.652   4.192
74735W        W43153  38.504  39.535   3.857
74736W        W43154  13.745  37.433  13.330
74737W        W43155  42.489  24.641  13.359
74738W        W43156  39.824  38.364  12.374
74739W        W43157  26.556  40.855   3.692
74740W        W43158  18.255  20.701   1.339
74741W        W43159  34.596  24.720   1.727
74742W        W43160  23.204  12.847  13.001
74743W        W43161  44.754  22.702   5.574
74744W        W43162  14.150  13.338  11.090
74745W        W43163  41.355  26.974   0.924
74746W        W43164  17.200  26.090   1.718
74747W        W43165  11.365   3.938  14.010
74748W        W43166   6.232  17.776  11.123
74749W        W43167  37.998  32.465  11.010
74750W        W43168  17.702   6.856  13.494
74751W        W43169   0.301  26.165  14.933
74752W        W43170   2.311   6.408   2.179
74753W        W43171  12.300   1.805   2.902
74754W        W43172  14.289  33.007  14.979
74755W        W43173  23.195   2.430  11.444
74756W        W43174   3.749  10.237  10.124
74757W        W43175  12.352  33.077   4.716
74758W        W43176   2.767  11.157   1.316
74759W        W43177   5.755  27.986  12.975
74760W        W43178  15.664  29.051  14.357
74761W        W43179  39.542   8.857  13.452
74762W        W43180  23.190  15.724  12.405
74763W        W43181  14.771  12.223   4.322
74764W        W43182  14.783  41.880   4.348
74765W        W43183  44.438  15.587  11.555
74766W        W43184  25.659  15.286   3.650
74767W        W43185  31.442  10.229   2.275
74768W        W43186   0.772  43.366   0.804
74769W        W43187  44.854  29.510  11.967
74770W        W43188  36.403  39.392   0.826
74771W        W43189   4.319  20.748  12.934
74772W        W43190   0.366   8.857  14.386
74773W        W43191  32.468  38.568  11.855
74774W        W43192   1.267  15.738  13.512
74775W        W43193   4.722  23.013  14.305
74776W        W43194  13.209  24.723  10.420
74777W        W43195  13.336  35.529   4.757
74778W        W43196   0.878  21.580  10.571
74779W        W43197  31.640   2.723   1.781
74780W        W43198  32.990  44.876  14.007
74781W        W43199  42.908  29.048   3.327
74782W        W43200   8.257  23.495   2.866
74783W        W43201  23.611  38.397   1.738
74784W        W43202   6.713   9.845   0.875
74785W        W43203  14.305   0.382   3.263
74786W        W43204  33.548  28.503   4.756
74787W        W43205  18.265  36.094   3.692
74788W        W43206  39.436  42.356  14.957
74789W        W43207  17.556  33.479   4.665
74790W        W43208  41.488  42.382   0.777
74791W        W43209   1.446   8.659   2.785
74792W        W43210  31.975  38.534   2.786
74793W        W43211  32.412  43.499  11.435
74794W        W43212   3.882  23.088  13.028
74795W        W43213  18.070  24.627   5.740
74796W        W43214  44.854  10.232   3.693
74797W        W43215   7.872  31.402   3.184
74798W        W43216  15.127  15.228  14.310
74799W        W43217  24.586  21.055   1.263
74800W        W43218  13.648  30.960   4.332
74801W        W43219  21.234  42.302   2.418
74802W        W43220   6.301  13.135  10.063
74803W        W43221  26.627  26.664  12.484
74804W        W43222  16.170  39.972  10.959
74805W        W43223   3.894  15.604   2.869
74806W        W43224  34.599  39.889   4.793
74807W        W43225  43.437  23.182  14.482
74808W        W43226   9.800  30.914   4.113
74809W        W43227  43.836   7.885  11.925
74810W        W43228  23.562  29.157  10.571
74811W        W43229  26.525  34.536  13.451
74812W        W43230  36.491  17.774  12.511
74813W        W43231  32.099   5.329   2.228
74814W        W43232  29.955  30.985  11.994
74815W        W43233  19.627  29.492   2.674
74816W        W43234  24.063  16.665  11.856
74817W        W43235  43.872  27.525  13.467
74818W        W43236  44.893  13.233  14.944
74819W        W43237  42.941   0.314   4.715
74820W        W43238  41.025  37.038   3.734
74821W        W43239  30.437  30.954   2.328
74822W        W43240   6.288  36.870  11.517
74823W        W43241   8.813  17.081   3.726
74824W        W43242  41.303   0.475   1.827
74825W        W43243  22.115  23.034   3.162
74826W        W43244   2.288  33.549   4.290
74827W        W43245  41.390  24.145   2.859
74828W        W43246   1.794   9.168  10.903
74829W        W43247   2.787  33.081  10.465
74830W        W43248  12.624  12.213   2.333
74831W        W43249   1.943  27.688  11.877
74832W        W43250  27.082  34.023   4.295
74833W        W43251   0.276  34.385  13.869
74834W        W43252   9.750   7.337   1.274
74835W        W43253  37.337   7.693   4.663
74836W        W43254  32.016  20.169  13.979
74837W        W43255   8.882  33.020  11.094
74838W        W43256   7.749  12.258   1.271
74839W        W43257  34.477  10.830  12.858
74840W        W43258  21.133  10.305   3.341
74841W        W43259  33.478   1.882  12.557
74842W        W43260  19.083  33.945  12.398
74843W        W43261  42.424  26.010  13.524
74844W        W43262  12.150  22.127   2.751
74845W        W43263   5.917  41.924   4.287
74846W        W43264   0.465  35.979  13.465
74847W        W43265  43.990  29.044  11.605
74848W        W43266  31.028  26.468   0.840
74849W        W43267  11.684  36.457   4.257
74850W        W43268  29.477  29.549   2.807
74851W        W43269  29.481  25.164   3.797
74852W        W43270  28.138  16.584   2.291
74853W        W43271  32.091  10.248   9.955
74854W        W43272  40.016   0.947  14.863
74855W        W43273  38.023  43.775  13.386
74856W        W43274  35.913  36.040   5.318
74857W        W43275  12.802  38.439  14.873
74858W        W43276   5.820  22.567  14.869
74859W        W43277  37.577  29.576  11.450
74860W        W43278   9.345  31.940   2.873
74861W        W43279   1.305  19.150   2.801
74862W        W43280  16.695  39.314  11.465
74863W        W43281  36.574  44.005  10.514
74864W        W43282  15.656  30.052  13.891
74865W        W43283  15.107   9.360   4.820
74866W        W43284  16.167   9.175   3.717
74867W        W43285  37.025   5.757  13.889
74868W        W43286   6.402   9.708  10.958
74869W        W43287  34.437  37.391   3.737
74870W        W43288   6.813  23.144   2.254
74871W        W43289  10.639   9.182  11.122
74872W        W43290  34.006  16.772   0.414
74873W        W43291   8.900  42.842   4.341
74874W        W43292   6.862   2.830   2.414
74875W        W43293  17.773  34.540  11.445
74876W        W43294  13.773  35.451   1.444
74877W        W43295   0.477  24.684  14.856
74878W        W43296  10.262  29.035  14.514
74879W        W43297  41.907  20.139  13.858
74880W        W43298  44.839   2.324   1.844
74881W        W43299   5.332  25.139  12.904
74882W        W43300  37.851   3.785  11.014
74883W        W43301  29.074  27.476   4.645
74884W        W43302  32.055  13.744  14.028
74885W        W43303  30.016  42.315  13.532
74886W        W43304   9.792   5.252  13.943
74887W        W43305  40.456  38.503   3.284
74888W        W43306  44.794   7.906  10.528
74889W        W43307  43.820  38.955   1.418
74890W        W43308  15.088  11.268   1.277
74891W        W43309  19.208  19.076  14.968
74892W        W43310  31.944  12.850   1.707
74893W        W43311  13.302  19.596   0.922
74894W        W43312  12.678  18.059   0.295
74895W        W43313   1.285  21.578   4.632
74896W        W43314   0.406  40.405  11.118
74897W        W43315  14.642   2.789  11.500
74898W        W43316   7.853  33.885  11.607
74899W        W43317  31.444  38.825  13.362
74900W        W43318   9.751   3.840  11.433
74901W        W43319  33.016  42.996  10.490
74902W        W43320   8.839  20.175   0.316
74903W        W43321  30.941  20.076  14.029
74904W        W43322  20.102  21.122   2.788
74905W        W43323  44.325   8.277   3.653
74906W        W43324  38.410  11.212  13.325
74907W        W43325   3.255  44.476   1.291
74908W        W43326  36.892  35.870   0.346
74909W        W43327  10.767   1.424  13.917
74910W        W43328  23.097   0.306  10.564
74911W        W43329  14.613   6.756  14.400
74912W        W43330  13.162  30.114  11.098
74913W        W43331   2.786  18.565   0.302
74914W        W43332   1.279   0.793   1.244
74915W        W43333  38.400  20.029   2.886
74916W        W43334  19.736   6.903  11.590
74917W        W43335  15.757   8.773  12.544
74918W        W43336   2.378  13.290  11.022
74919W        W43337  41.407  29.054   4.233
74920W        W43338   6.693  14.212  14.965
74921W        W43339   1.481  43.015  13.806
74922W        W43340   8.361  43.479  11.577
74923W        W43341   6.356  28.167  10.521
74924W        W43342   4.922  19.640  13.845
74925W        W43343  34.371  20.079  11.105
74926W        W43344  15.667  22.122   4.730
74927W        W43345  26.675  30.478  12.406
74928W        W43346  40.012  12.336   4.641
74929W        W43347  30.145  28.149   2.351
74930W        W43348  19.772  29.085  10.921
74931W        W43349   6.789  32.459   3.241
74932W        W43350  22.062  16.631  14.873
74933W        W43351   6.807   0.261  12.018
74934W        W43352  16.587  26.969   3.159
74935W        W43353  26.061  33.959  13.019
74936W        W43354  24.583  36.559   0.449
74937W        W43355  24.160  14.803   2.273
74938W        W43356  34.053   4.856  12.515
74939W        W43357  44.843  41.891  10.608
74940W        W43358   2.967  38.856   1.867
74941W        W43359  25.625  44.951  12.043
74942W        W43360  33.598  24.668  13.457
74943W        W43361  32.480  40.434  14.822
74944W        W43362  34.553  15.752   4.819
74945W        W43363   3.361  25.500   1.356
74946W        W43364  18.110  35.428   4.180
74947W        W43365  28.468  22.177   0.812
74948W        W43366   1.879  14.700   1.435
74949W        W43367   3.227   0.403   2.731
74950W        W43368  17.276  33.455   4.342
74951W        W43369  14.278   2.822   3.834
74952W        W43370  16.630  22.063   2.238
74953W        W43371  12.209  40.873  14.946
74954W        W43372  10.655   1.248  13.521
74955W        W43373   7.272   1.733   1.253
74956W        W43374  28.114  20.049   4.698
74957W        W43375  21.173  42.431  14.447
74958W        W43376   0.429  35.534   2.223
74959W        W43377  22.042  44.798   4.289
74960W        W43378  20.543  42.459  13.382
74961W        W43379   0.285  22.625   4.187
74962W        W43380  15.687  18.260  13.926
74963W        W43381   8.175  21.515   2.732
74964W        W43382  20.092   8.260   2.228
74965W        W43383  14.784  21.565  14.812
74966W        W43384  41.325   9.276   1.232
74967W        W43385  20.226   0.402  12.565
74968W        W43386  24.139  41.466   0.411
74969W        W43387   1.863  33.063  11.393
74970W        W43388  17.751  13.111  10.153
74971W        W43389  34.899  35.962  12.851
74972W        W43390  26.966  10.859   0.419
74973W        W43391  41.362  12.360   2.811
74974W        W43392  14.746  20.710   1.282
74975W        W43393  11.628  14.677   3.806
74976W        W43394   2.229   6.825   2.777
74977W        W43395  31.433  29.175  14.413
74978W        W43396  37.357   3.318   3.183
74979W        W43397  41.525  33.120  13.025
74980W        W43398   0.973  16.760  14.419
74981W        W43399  10.864  11.694   1.368
74982W        W43400   7.809  21.631   2.751
74983W        W43401  11.768  43.306   4.315
74984W        W43402  30.523  29.665  12.573
74985W        W43403  32.105  43.380   3.364
74986W        W43404  41.905  37.975   1.914
74987W        W43405  33.005  36.077   4.116
74988W        W43406  40.953  27.449  10.560
74989W        W43407  38.972  36.973  12.567
74990W        W43408  40.905  19.734  10.496
74991W        W43409   5.214  18.075  14.916
74992W        W43410   5.833  44.332   0.442
74993W        W43411  31.940  31.613  13.360
74994W        W43412  35.455  33.563  10.128
74995W        W43413   7.763  38.947   0.357
74996W        W43414  23.180   8.766  12.569
74997W        W43415  13.602  34.905   2.356
74998W        W43416  20.631  22.088   0.941
74999W        W43417  44.262  30.141   3.663
75000W        W43418  10.868  10.239   4.697
75001W        W43419  32.094  14.259   2.747
75002W        W43420  37.399  11.662  11.041
75003W        W43421  17.093  19.644  13.052
75004W        W43422  41.042  26.511   4.176
75005W        W43423  14.120  26.568   3.331
75006W        W43424   1.916  35.359   2.730
75007W        W43425   3.720  22.250   1.825
75008W        W43426  35.043  41.031  11.374
75009W        W43427  41.519  26.697  10.514
75010W        W43428  16.699  21.698  10.985
75011W        W43429  28.039  18.629  12.092
75012W        W43430  41.945  31.490  13.875
75013W        W43431  19.050  16.753   1.781
75014W        W43432  36.844   3.437   4.820
75015W        W43433  10.695  13.163  13.403
75016W        W43434  31.533  38.429  13.377
75017W        W43435  35.972  25.984   0.802
75018W        W43436  33.075   4.847   1.713
75019W        W43437  33.942   3.769   4.727
75020W        W43438  21.027   8.833  10.097
75021W        W43439  22.071   9.174  13.341
75022W        W43440   2.431  21.729   4.304
75023W        W43441  11.276  11.168  12.909
75024W        W43442   9.256  29.426   3.253
75025W        W43443   2.745  16.285   1.335
75026W        W43444  24.029  28.455  11.973
75027W        W43445   8.889  35.543  13.904
75028W        W43446  39.485  27.114   2.718
75029W        W43447  44.913  29.442  13.404
75030W        W43448  42.800  23.573   1.699
75031W        W43449  26.957   2.382   4.617
75032W        W43450  16.291  18.116  12.959
75033W        W43451  30.460  17.745  12.373
75034W        W43452  40.330  21.134   3.670
75035W        W43453  38.004  41.354   5.123
75036W        W43454  33.428  15.206  12.979
75037W        W43455  11.227  15.218  11.126
75038W        W43456   0.248  17.153  11.596
75039W        W43457  38.979  42.971  12.346
75040W        W43458  29.034  10.328   3.652
75041W        W43459  21.179  10.138  14.979
75042W        W43460  42.778  31.481  12.087
75043W        W43461  33.977  12.152  10.496
75044W        W43462  21.539  34.018   3.706
75045W        W43463  41.863  13.180   3.704
75046W        W43464  44.379  13.753   4.786
75047W        W43465  26.658  40.804  11.873
75048W        W43466  23.531  31.590  11.861
75049W        W43467  18.637  30.422  14.309
75050W        W43468   5.289  34.497  12.434
75051W        W43469  40.335  38.882  13.489
75052W        W43470   0.981  18.217  11.557
75053W        W43471   9.383  17.693  12.451
75054W        W43472  38.030  28.138  11.996
75055W        W43473  30.458  14.300  10.913
75056W        W43474   3.256  28.032   4.186
75057W        W43475   6.317  14.727  12.905
75058W        W43476   8.771  44.772   3.154
75059W        W43477   0.410   8.701   1.714
75060W        W43478   6.188  20.710   2.744
75061W        W43479   3.897  37.078   3.743
75062W        W43480  11.250  43.994   0.853
75063W        W43481  42.881  29.149  10.603
75064W        W43482  26.489  27.979   1.409
75065W        W43483  14.744  24.986  11.489
75066W        W43484  17.688  43.413  13.447
75067W        W43485  31.107  36.431   3.336
75068W        W43486   4.409   6.843   3.247
75069W        W43487  38.987  34.375   9.935
75070W        W43488  43.901  30.468   3.788
75071W        W43489  23.589  25.033   2.689
75072W        W43490  26.122   8.795   0.740
75073W        W43491  23.703  41.352  13.469
75074W        W43492   9.275  32.557  14.976
75075W        W43493  31.980  30.011   2.177
75076W        W43494   9.823  35.570  13.837
75077W        W43495  30.508   3.426  10.111
75078W        W43496  17.157  31.926  10.059
75079W        W43497   4.235  12.187   3.846
75080W        W43498  30.569  24.679   2.312
75081W        W43499  37.548  26.057  10.459
75082W        W43500   7.297  44.401   3.328
75083W        W43501  10.246  42.845  10.492
75084W        W43502  16.593  26.083   4.716
75085W        W43503  43.003  10.335  12.357
75086W        W43504  11.628   6.187   1.293
75087W        W43505  12.276   2.942   0.749
75088W        W43506  42.360   9.765   4.158
75089W        W43507  13.232  44.976  12.518
75090W        W43508  41.919   9.678  13.060
75091W        W43509  14.818  12.843  14.962
75092W        W43510  23.153  39.466   4.214
75093W        W43511  15.796  19.653   2.350
75094W        W43512  41.911  41.041  12.352
75095W        W43513   2.343  34.947  11.583
75096W        W43514   9.381   9.240  14.306
75097W        W43515  30.067  14.747   4.148
75098W        W43516   8.290  28.156   2.715
75099W        W43517   8.163  21.720  12.946
75100W        W43518  42.443   8.804   2.263
75101W        W43519  35.004  30.978   0.746
75102W        W43520   2.380   3.806  10.517
75103W        W43521  16.629  28.160  14.367
75104W        W43522  22.184  36.922  12.550
75105W        W43523  39.433  17.604   2.743
75106W        W43524   8.692  31.627  11.565
75107W        W43525  19.738  20.158  11.869
75108W        W43526  42.889   5.767   0.324
75109W        W43527  32.505  38.543  12.909
75110W        W43528   4.857  41.378   1.933
75111W        W43529  25.566  44.290   0.397
75112W        W43530  17.780  26.569  11.882
75113W        W43531  25.632  22.099   2.758
75114W        W43532   7.200  30.496  14.876
75115W        W43533  28.185  22.602   1.877
75116W        W43534   8.266  30.917  13.483
75117W        W43535  37.024   8.658   4.726
75118W        W43536  44.348  38.420   1.720
75119W        W43537  35.001   8.861  10.578
75120W        W43538   8.744  11.166   4.644
75121W        W43539   5.741  36.507   1.305
75122W        W43540  20.686  19.581  12.365
75123W        W43541  34.440   2.863  10.578
75124W        W43542   0.945  14.146   0.878
75125W        W43543  41.419  19.179   0.483
75126W        W43544  36.037  29.522  11.983
75127W        W43545  43.820  21.128   0.373
75128W        W43546  43.386   6.698   0.411
75129W        W43547  15.634  14.253  11.882
75130W        W43548  19.194   1.770  11.116
75131W        W43549  27.117  14.121  14.442
75132W        W43550   6.778  26.550   3.695
75133W        W43551  30.451  12.314   4.707
75134W        W43552  40.525  16.087   3.730
75135W        W43553  30.599  20.672  11.087
75136W        W43554  29.640  16.631   3.369
75137W        W43555  16.267   1.373  11.527
75138W        W43556  23.151  16.100  11.033
75139W        W43557  18.208  43.475   4.812
75140W        W43558  38.342  38.486  12.384
75141W        W43559   7.356  24.480   4.260
75142W        W43560  10.243   7.837  10.945
75143W        W43561  42.488  24.607   4.246
75144W        W43562  26.985  26.626   1.366
75145W        W43563  21.756   3.730  10.438
75146W        W43564  32.397  35.406   2.807
75147W        W43565  44.408  29.960  14.414
75148W        W43566  16.174  42.995   1.406
75149W        W43567   5.866  29.009  10.475
75150W        W43568  12.772  34.011   2.208
75151W        W43569  44.783  33.914   1.318
75152W        W43570  15.285  16.255   4.778
75153W        W43571  21.072  28.588   3.374
75154W        W43572  31.479   0.797   0.864
75155W        W43573   4.861  28.446  14.288
75156W        W43574  29.574  42.002  11.586
75157W        W43575  12.695  40.820  14.470
75158W        W43576   7.249  10.380  10.598
75159W        W43577  39.974  20.093   1.315
75160W        W43578   7.696  44.438  13.040
75161W        W43579  28.051  11.624   2.690
75162W        W43580  15.149  17.196  12.459
75163W        W43581  40.038  40.370   4.117
75164W        W43582  23.116  24.148  13.545
75165W        W43583   3.419  43.867  13.892
75166W        W43584  10.371  13.781  14.493
75167W        W43585  41.313   2.780   0.871
75168W        W43586  34.966  31.089   3.245
75169W        W43587  40.021  41.426   1.230
75170W        W43588  11.771   8.732  11.518
75171W        W43589  38.867  29.107   2.414
75172W        W43590  15.103  14.245  12.034
75173W        W43591   1.312   7.692  12.390
75174W        W43592  14.638  11.299   2.385
75175W        W43593  26.037  39.380   2.339
75176W        W43594  10.149   9.774   3.160
75177W        W43595  11.814  11.725  11.950
75178W        W43596   5.783  33.489   2.752
75179W        W43597  31.645  43.462  12.360
75180W        W43598  18.557  15.737  10.007
75181W        W43599  38.351  34.468  12.455
75182W        W43600  13.172   6.777  13.437
75183W        W43601  38.996  11.798  13.872
75184W        W43602  36.976  41.355  10.420
75185W        W43603  20.106  31.962  13.041
75186W        W43604  18.238  29.544   3.265
75187W        W43605  26.619   8.885  14.306
75188W        W43606  42.496   0.470   0.382
75189W        W43607  17.234  35.465  11.041
75190W        W43608  39.463  24.637  13.982
75191W        W43609  35.090   1.853  13.316
75192W        W43610  41.033   5.331   3.695
75193W        W43611  29.606  16.649  13.387
75194W        W43612  41.814  35.934  12.342
75195W        W43613  34.584   0.283   1.735
75196W        W43614   2.247  26.597  13.457
75197W        W43615  34.509  35.533   0.769
75198W        W43616   3.303  23.127   1.727
75199W        W43617  32.594  31.094   3.843
75200W        W43618   1.411  16.238   0.352
75201W        W43619  33.087  19.209   0.475
75202W        W43620  42.311  25.199  13.490
75203W        W43621  30.434  27.159  12.878
75204W        W43622   9.190  35.485  13.867
75205W        W43623  15.207   9.814  10.518
75206W        W43624  11.359   6.322  12.529
75207W        W43625  32.465  10.723  12.363
75208W        W43626  11.622   6.893   2.408
75209W        W43627  32.586   0.460   3.834
75210W        W43628  22.998  30.621   2.858
75211W        W43629  13.712   3.245  14.383
75212W        W43630  21.038   9.172   3.705
75213W        W43631  19.054  35.921   3.765
75214W        W43632  14.179   3.451  11.014
75215W        W43633  30.627  16.300  14.763
75216W        W43634  18.165  23.004   3.681
75217W        W43635  19.773   9.792  14.292
75218W        W43636  26.614  18.733  10.549
75219W        W43637  38.826  40.419  12.849
75220W        W43638  19.086   4.925  10.604
75221W        W43639  34.562  26.142   0.282
75222W        W43640  23.160  33.473   4.826
75223W        W43641  13.714  23.562  14.295
75224W        W43642  17.770  37.542   4.264
75225W        W43643  14.748  41.295  10.467
75226W        W43644  12.311  17.581  11.038
75227W        W43645  11.221  32.909   2.692
75228W        W43646  31.121  12.260   0.431
75229W        W43647  35.529  20.131  13.529
75230W        W43648  18.257  14.139  11.005
75231W        W43649  38.054  35.947   2.833
75232W        W43650  33.576  43.865   2.697
75233W        W43651  29.431  15.671   1.372
75234W        W43652   1.745  24.556   4.820
75235W        W43653   3.262   3.724   0.482
75236W        W43654   7.371  11.305   0.749
75237W        W43655  29.534  16.582   0.890
75238W        W43656   9.780  44.834  13.835
75239W        W43657  27.107  32.003   2.858
75240W        W43658  19.568  20.182  13.038
75241W        W43659  14.140  11.707   0.888
75242W        W43660  27.573  13.685  13.003
75243W        W43661  38.825  31.573   1.265
75244W        W43662  15.108  38.355  14.487
75245W        W43663  21.679  10.332   1.334
75246W        W43664   9.805  40.510  12.861
75247W        W43665  17.125  26.516  11.525
75248W        W43666  11.336  44.952  10.640
75249W        W43667  41.890  20.619   3.149
75250W        W43668  28.635  17.111   1.800
75251W        W43669   3.916  20.101  11.024
75252W        W43670  41.484  16.627  12.971
75253W        W43671  23.066  34.380   0.430
75254W        W43672  27.474   8.682   3.739
75255W        W43673  36.887   0.794   1.793
75256W        W43674   4.799  12.793  13.019
75257W        W43675   9.839  35.970   3.705
75258W        W43676  34.498   2.396   2.793
75259W        W43677  30.029  38.991  14.769
75260W        W43678  13.798   9.201   4.768
75261W        W43679  38.540  43.427  13.352
75262W        W43680  12.689  28.937  11.431
75263W        W43681  12.632  14.321  13.959
75264W        W43682  28.607  28.950  10.559
75265W        W43683  23.647  19.663   4.808
75266W        W43684  28.997   0.474   1.355
75267W        W43685  27.572  44.421  13.503
75268W        W43686  37.428   7.322  14.021
75269W        W43687  21.723  38.416   2.766
75270W        W43688  44.973  38.498   1.212
75271W        W43689   8.689  22.619   1.406
75272W        W43690   8.683  30.485   2.268
75273W        W43691  38.011  30.996   4.744
75274W        W43692  31.493  34.421  14.335
75275W        W43693   2.764  21.705  13.898
75276W        W43694  15.190   9.816   2.200
75277W        W43695  20.689  27.492  14.778
75278W        W43696  39.865   7.668  13.964
75279W        W43697  44.497   3.237  13.936
75280W        W43698   2.335  26.132  12.884
75281W        W43699  19.765  24.169   3.228
75282W        W43700  31.098  27.610  13.363
75283W        W43701  22.615  41.842   9.939
75284W        W43702  43.799   5.229  12.476
75285W        W43703  37.389   7.844   1.838
75286W        W43704   5.263   3.365   1.242
75287W        W43705  43.459  20.060  11.050
75288W        W43706  40.318   5.298   2.797
75289W        W43707   8.728  24.223  14.822
75290W        W43708  37.372  27.145   4.656
75291W        W43709  22.506  25.142  10.965
75292W        W43710  38.539  31.142   1.784
75293W        W43711  18.773  31.967  10.592
75294W        W43712  27.968  21.083   4.334
75295W        W43713  19.547   2.765  14.293
75296W        W43714  42.821   7.730  11.479
75297W        W43715  44.423  14.248   3.672
75298W        W43716  11.868  19.151   4.345
75299W        W43717  28.590  32.461  13.527
75300W        W43718   6.274  27.066   3.267
75301W        W43719  21.641  19.050  13.952
75302W        W43720  19.236  43.447  10.910
75303W        W43721   4.287  35.497  12.574
75304W        W43722  35.556  18.150  10.980
75305W        W43723  20.583   9.166  11.111
75306W        W43724  32.904  33.983  13.451
75307W        W43725  17.790  14.131   4.273
75308W        W43726   4.833  44.288   1.331
75309W        W43727   1.415  18.136   4.774
75310W        W43728  12.617  13.192  14.006
75311W        W43729  11.343  19.121  14.428
75312W        W43730  43.376  35.564   0.356
75313W        W43731  36.903   8.807  10.593
75314W        W43732   0.947  14.664   4.785
75315W        W43733  33.054  25.048   2.332
75316W        W43734   0.784  15.804  14.303
75317W        W43735  32.131   8.753   0.472
75318W        W43736  23.496  30.469  10.466
75319W        W43737  12.339  19.273   2.224
75320W        W43738   7.384  31.127   0.287
75321W        W43739  11.811  16.158  10.572
75322W        W43740  13.198   1.921   2.392
75323W        W43741  26.055  42.424  14.488
75324W        W43742  13.618  34.889   3.675
75325W        W43743  12.248  44.389   0.907
75326W        W43744  20.048  24.514  14.325
75327W        W43745   7.679  30.064   4.218
75328W        W43746   1.780  25.510   4.767
75329W        W43747  24.508  19.697  13.866
75330W        W43748   0.872  34.559  12.988
75331W        W43749  10.853  42.924  12.416
75332W        W43750  41.344  18.586   3.832
75333W        W43751  32.476  36.373  13.866
75334W        W43752   1.346  21.216   0.892
75335W        W43753  32.418   4.778   1.829
75336W        W43754  32.479  31.593   3.842
75337W        W43755  42.479  39.342   4.649
75338W        W43756  38.908   1.339   3.321
75339W        W43757  15.128   7.406   9.623
75340W        W43758  18.194  14.301  12.025
75341W        W43759  24.046   5.743  13.839
75342W        W43760   8.705  38.382  14.844
75343W        W43761  27.602  14.768  10.598
75344W        W43762  35.904  28.185   1.703
75345W        W43763  14.198   9.728  12.399
75346W        W43764   8.849  36.953   4.249
75347W        W43765  39.382  29.962  11.887
75348W        W43766  40.353  14.755  13.998
75349W        W43767  18.177  23.683  14.445
75350W        W43768  32.018  41.494  11.578
75351W        W43769  40.319  18.068  14.974
75352W        W43770  37.849  24.018  12.440
75353W        W43771  24.589  33.108  11.608
75354W        W43772  19.665  42.328  13.878
75355W        W43773  38.489  12.825  14.502
75356W        W43774  31.975  29.486   3.252
75357W        W43775   0.464  30.163   0.848
75358W        W43776  37.472  44.458   4.154
75359W        W43777  13.195  16.149   2.230
75360W        W43778   2.739  31.141  13.344
75361W        W43779  19.690  35.984   2.761
75362W        W43780   4.850  33.082   0.794
75363W        W43781  12.192  36.037   3.783
75364W        W43782  19.695   5.306   3.841
75365W        W43783  40.849  14.606  14.452
75366W        W43784  44.761  19.629  10.545
75367W        W43785  28.678   1.479   0.955
75368W        W43786  32.046   4.735   4.616
75369W        W43787  21.198  20.198   4.315
75370W        W43788  18.085  20.628  13.447
75371W        W43789  11.648  38.952   2.349
75372W        W43790  29.986  27.140   4.313
75373W        W43791  42.288  12.286   0.326
75374W        W43792   4.338  14.284  13.006
75375W        W43793  42.405  41.537   1.432
75376W        W43794  44.950   2.322   0.948
75377W        W43795  25.143  20.577  10.552
75378W        W43796   8.681   6.276  12.960
75379W        W43797  21.721   2.301  13.873
75380W        W43798  14.145  37.437  13.961
75381W        W43799  18.214  22.624  12.889
75382W        W43800  18.279  11.799   3.295
75383W        W43801  35.941  38.493   2.212
75384W        W43802  25.663  32.128  14.408
75385W        W43803  19.751  40.892   4.661
75386W        W43804  39.369  19.772  13.808
75387W        W43805  41.361   8.895   2.688
75388W        W43806  24.700  34.418  13.037
75389W        W43807   0.806  25.103  13.399
75390W        W43808  32.111  34.864  14.475
75391W        W43809  44.758  20.231   4.806
75392W        W43810   6.782  40.313  13.915
75393W        W43811  34.023  35.860   0.269
75394W        W43812  43.382   2.875   0.299
75395W        W43813   2.355  15.291   1.712
75396W        W43814  34.072  23.714   3.291
75397W        W43815  34.486   9.256   0.795
75398W        W43816  32.400  37.436   3.785
75399W        W43817  31.565  15.740  12.827
75400W        W43818  22.138   4.729   0.937
75401W        W43819  33.995  37.399  13.059
75402W        W43820   9.324  34.092   3.732
75403W        W43821  39.405  33.031   2.241
75404W        W43822  19.724  23.732  10.474
75405W        W43823  11.368  39.408   2.684
75406W        W43824  30.105  23.637  14.964
75407W        W43825  15.619  28.665  11.010
75408W        W43826  33.999  40.436  10.959
75409W        W43827  35.590  29.574  11.601
75410W        W43828   1.442  28.645  13.045
75411W        W43829  35.896  19.231  13.390
75412W        W43830  11.702   6.276  13.898
75413W        W43831   4.309  33.437  11.392
75414W        W43832  25.178   6.339   3.744
75415W        W43833  34.867  37.055   9.959
75416W        W43834  35.884  28.061   2.396
75417W        W43835  18.723   3.262   4.258
75418W        W43836   7.266  11.737   2.721
75419W        W43837  20.591  23.096  14.452
75420W        W43838  32.421   7.178   0.434
75421W        W43839  35.450  22.708  12.048
75422W        W43840   3.344  27.499  13.354
75423W        W43841  36.956   3.757  13.453
75424W        W43842   0.971  28.998  10.974
75425W        W43843  23.071  28.183   1.777
75426W        W43844  32.559  16.673  11.378
75427W        W43845  23.607  25.153   0.395
75428W        W43846  42.382  12.245   1.896
75429W        W43847   1.281  14.146   4.651
75430W        W43848  28.078  31.528  10.495
75431W        W43849  34.472  15.172   0.781
75432W        W43850  40.372  25.189  11.469
75433W        W43851   0.278  14.703   0.347
75434W        W43852  28.481   2.249  12.433
75435W        W43853   0.780  37.363   2.676
75436W        W43854  22.216  13.244   3.681
75437W        W43855  17.244  12.273  13.895
75438W        W43856  36.418   8.666  10.967
75439W        W43857  33.093   5.303   4.817
75440W        W43858  12.122   5.422   1.919
75441W        W43859  41.017  10.650  11.099
75442W        W43860  41.799   4.735   4.207
75443W        W43861  43.003  10.723   2.193
75444W        W43862  37.524   5.816  13.863
75445W        W43863  40.030   5.238  10.489
75446W        W43864  28.956  13.731   3.857
75447W        W43865  11.193  19.145  10.613
75448W        W43866  23.633  18.730  14.287
75449W        W43867   0.287  19.231  12.527
75450W        W43868   1.971  12.283   2.217
75451W        W43869  23.615  34.904  12.348
75452W        W43870  17.263  21.517   2.827
75453W        W43871  27.195  14.809  14.405
75454W        W43872   2.370  29.585  12.996
75455W        W43873   6.731  18.560   1.856
75456W        W43874   3.852  44.421  12.569
75457W        W43875  30.910  28.520  12.017
75458W        W43876  23.061  40.846   2.198
75459W        W43877  25.053  22.180   3.769
75460W        W43878  28.143  14.690  10.527
75461W        W43879  15.190  27.192   1.730
75462W        W43880  14.107  16.683   3.183
75463W        W43881  32.110  38.943  10.555
75464W        W43882   6.894  35.929  13.057
75465W        W43883  43.945  42.406   2.661
75466W        W43884  34.417  12.232  14.962
75467W        W43885  16.314  14.227   4.629
75468W        W43886   2.857  28.061   0.455
75469W        W43887  19.709  37.447  14.947
75470W        W43888  31.961  24.588   4.725
75471W        W43889  32.070  14.628  14.375
75472W        W43890  34.006  28.486  12.008
75473W        W43891  44.810  14.600  10.593
75474W        W43892  30.636  14.131   4.147
75475W        W43893  35.464  21.568  14.909
75476W        W43894  20.240  34.047   0.337
75477W        W43895  42.989  28.071   3.227
75478W        W43896   7.711  19.223   1.774
75479W        W43897  30.052  12.301   0.390
75480W        W43898  38.409  30.091   4.797
75481W        W43899  23.573   8.657  11.933
75482W        W43900  29.023  35.012   4.599
75483W        W43901  20.582  12.325   4.157
75484W        W43902  31.440  15.256  12.412
75485W        W43903   7.221  16.779  14.430
75486W        W43904  29.993   6.360  11.952
75487W        W43905  11.811  14.095  10.465
75488W        W43906  41.351  28.669   0.776
75489W        W43907   0.784  14.256  13.414
75490W        W43908  12.251  32.006  10.514
75491W        W43909  16.622  38.526   0.458
75492W        W43910  26.971  33.560  12.068
75493W        W43911   1.468   1.735   4.737
75494W        W43912  15.633  20.573   4.342
75495W        W43913  41.528  24.697  13.978
75496W        W43914  21.195  44.277  11.025
75497W        W43915  17.682  30.528   1.352
75498W        W43916  39.838  17.798   0.483
75499W        W43917  30.075  22.192   2.729
75500W        W43918  16.265  28.557   3.255
75501W        W43919  20.158  23.495   5.670
75502W        W43920  16.140  42.322  11.894
75503W        W43921  42.380  26.548  10.554
75504W        W43922  14.175  20.742  10.926
75505W        W43923  41.414  37.553   2.757
75506W        W43924  38.456  19.158  11.116
75507W        W43925  44.280   0.866  11.510
75508W        W43926  35.418  24.074   2.388
75509W        W43927  31.961  21.165   3.353
75510W        W43928  11.192   7.255   4.818
75511W        W43929  26.611  26.997   3.159
75512W        W43930  26.068   0.971  14.956
75513W        W43931   2.750  33.878  10.449
75514W        W43932   4.833  23.599   1.901
75515W        W43933  20.711   3.279  12.067
75516W        W43934  20.135  11.769   9.646
75517W        W43935  25.158  44.292   0.393
75518W        W43936  31.577  18.569   2.230
75519W        W43937   9.212  34.994  12.559
75520W        W43938   8.692  11.793   2.318
75521W        W43939  32.900   4.879   2.257
75522W        W43940   5.864   3.728  12.016
75523W        W43941   0.273  16.124   0.308
75524W        W43942  16.287  15.824  14.330
75525W        W43943   0.819  12.227  12.388
75526W        W43944  39.890  25.019   1.777
75527W        W43945  24.222  34.497  10.618
75528W        W43946  38.503  41.972   4.600
75529W        W43947  40.407   7.731   0.439
75530W        W43948  42.491  29.510   4.143
75531W        W43949  12.239  15.172   1.822
75532W        W43950  40.953  26.149   3.197
75533W        W43951  43.474  40.941   4.774
75534W        W43952  43.448  13.708   2.750
75535W        W43953  36.377  29.441   4.290
75536W        W43954  10.232  18.295  10.919
75537W        W43955  13.202  10.693   1.333
75538W        W43956  27.583  43.400   4.276
75539W        W43957  24.096  25.214  10.105
75540W        W43958  19.194   7.770  14.823
75541W        W43959  20.617  32.110   0.449
75542W        W43960  10.199  16.256  12.418
75543W        W43961   9.283   2.762  11.016
75544W        W43962  31.121   8.764  10.432
75545W        W43963   5.404   3.835   2.742
75546W        W43964   9.323  21.579   0.301
75547W        W43965  19.159  14.112  14.793
75548W        W43966  30.446  28.569   3.680
75549W        W43967  31.479  33.891  11.897
75550W        W43968  26.634  39.539  14.288
75551W        W43969  13.784  31.125  14.851
75552W        W43970  43.479  21.174   9.649
75553W        W43971  26.098  36.934   0.849
75554W        W43972  13.308  36.523  13.840
75555W        W43973  41.983  36.870  11.567
75556W        W43974  19.096  21.031  10.474
75557W        W43975  31.628  40.832   4.128
75558W        W43976  40.461  23.530   2.331
75559W        W43977  31.408   8.657   4.739
75560W        W43978  12.806  31.018   3.263
75561W        W43979   5.258  41.842   3.829
75562W        W43980  29.011   1.349   0.730
75563W        W43981   7.687  41.338  12.383
75564W        W43982  38.423  26.501  10.445
75565W        W43983  26.003  24.156   3.191
75566W        W43984  32.391   6.311  12.015
75567W        W43985  10.650   6.373   2.784
75568W        W43986  21.524  25.643   1.846
75569W        W43987  32.496  19.548  12.995
75570W        W43988  29.455  41.303   1.744
75571W        W43989   8.390  21.103   1.354
75572W        W43990  23.035  11.151  12.984
75573W        W43991  14.296  24.112   4.172
75574W        W43992  32.115  30.105   3.323
75575W        W43993  35.368  10.270   3.765
75576W        W43994  34.882  10.190   2.314
75577W        W43995  41.825  43.340  11.406
75578W        W43996  16.163  39.437   4.244
75579W        W43997  36.369   3.838  10.638
75580W        W43998  28.564   2.916   0.318
75581W        W43999   1.314  35.001   1.283
75582W        W44000  32.917  43.862   2.209
75583W        W44001  14.610  19.178  13.943
75584W        W44002   3.720   7.837   4.290
75585W        W44003   2.316  40.505  12.870
75586W        W44004  13.842  16.642  13.489
75587W        W44005   4.929   5.750  11.453
75588W        W44006  16.111   5.197  12.063
75589W        W44007  32.464  13.751  13.484
75590W        W44008  10.738   1.877   2.367
75591W        W44009  44.482  15.260   2.260
75592W        W44010  13.350  11.780  14.491
75593W        W44011   2.816  33.926  12.456
75594W        W44012  33.623  26.696  14.959
75595W        W44013  26.469  29.981   0.332
75596W        W44014  30.535  27.164  13.954
75597W        W44015  26.652  24.556   1.834
75598W        W44016  26.065  30.110  10.894
75599W        W44017  25.066  18.110  13.975
75600W        W44018  23.564  34.397   0.887
75601W        W44019  23.634  39.457   5.237
75602W        W44020   9.886   5.777   3.306
75603W        W44021   2.765  22.672  14.022
75604W        W44022   2.942  21.755  10.046
75605W        W44023  10.306  18.274  10.099
75606W        W44024  16.219  31.499  12.393
75607W        W44025  38.907   0.300   9.939
75608W        W44026   0.251  10.348  14.341
75609W        W44027  44.763  15.786   2.894
75610W        W44028  18.705  19.714   1.863
75611W        W44029   6.246   3.944   3.241
75612W        W44030  30.035  28.627   4.806
75613W        W44031  11.839  38.502  14.505
75614W        W44032   3.798  26.650  13.346
75615W        W44033  33.885  18.185  13.544
75616W        W44034  43.407  25.673  12.542
75617W        W44035  20.074  25.646   9.592
75618W        W44036   1.867  24.026   2.375
75619W        W44037  44.454  30.123   2.263
75620W        W44038  22.165  28.565  14.884
75621W        W44039  29.666  20.672  10.978
75622W        W44040  26.518  11.830   1.860
75623W        W44041  41.308  37.926  13.351
75624W        W44042   7.756  43.787  12.420
75625W        W44043  41.846  14.294  13.352
75626W        W44044  20.706  18.660   3.829
75627W        W44045  27.494  10.682  13.315
75628W        W44046  40.995  14.308   2.332
75629W        W44047  31.028  44.312   4.777
75630W        W44048  32.530  11.322  14.313
75631W        W44049   9.815  19.741  11.956
75632W        W44050   9.269  13.150   0.425
75633W        W44051  13.109  27.553   4.836
75634W        W44052  17.647   2.445   3.791
75635W        W44053  30.532  40.484   4.338
75636W        W44054  26.590   8.699  14.944
75637W        W44055  28.120  13.800  10.105
75638W        W44056  31.531   3.765   3.637
75639W        W44057  44.385  18.062  14.326
75640W        W44058  39.064  32.125   1.425
75641W        W44059  29.150   9.774  13.427
75642W        W44060   6.428  21.712  12.949
75643W        W44061  14.687  31.553  11.554
75644W        W44062  20.126  23.127   0.249
75645W        W44063   5.888  34.105  14.923
75646W        W44064  21.568  32.621   1.795
75647W        W44065   6.699   6.228   0.851
75648W        W44066  31.003   8.338  11.056
75649W        W44067  26.561   9.679  12.932
75650W        W44068  34.935  10.301   4.205
75651W        W44069  37.075  20.629   1.401
75652W        W44070  23.649  33.586  12.050
75653W        W44071  40.310   2.804   2.878
75654W        W44072  32.981   1.281   1.383
75655W        W44073  12.642  11.741   3.221
75656W        W44074  30.025  30.529   4.786
75657W        W44075  18.149  40.344   0.877
75658W        W44076  43.361  17.575   0.967
75659W        W44077   8.757  30.111  11.582
75660W        W44078  17.653   4.857   1.318
75661W        W44079   4.752  39.953   3.383
75662W        W44080  38.483  38.535   3.205
75663W        W44081  43.880  42.962  14.357
75664W        W44082  15.814  10.300   2.224
75665W        W44083  41.821  18.149  11.080
75666W        W44084  41.416  44.274   4.611
75667W        W44085  38.550  23.613   3.336
75668W        W44086  30.659  15.174   0.382
75669W        W44087  43.935  19.747  14.905
75670W        W44088  28.102  24.023  11.506
75671W        W44089  29.960  44.384  10.946
75672W        W44090  29.500  38.364   3.379
75673W        W44091  37.929  43.796   1.372
75674W        W44092  10.784  22.700  12.848
75675W        W44093  42.870  11.143   0.425
75676W        W44094   9.761   5.849  12.361
75677W        W44095  19.761  38.983   0.316
75678W        W44096  18.051  35.549  11.939
75679W        W44097   2.300  31.117   2.674
75680W        W44098  23.529  43.481  12.838
75681W        W44099  17.567  31.508  10.949
75682W        W44100   2.336  17.109  11.586
75683W        W44101   5.925  33.523  10.410
75684W        W44102  43.007  35.978   2.737
75685W        W44103  44.449   4.892  11.981
75686W        W44104   4.831  14.257   0.273
75687W        W44105  32.594  36.583   3.238
75688W        W44106  28.588   5.892   1.747
75689W        W44107  12.171   4.239  11.449
75690W        W44108   1.943  13.750   2.312
75691W        W44109  39.812  25.643  14.855
75692W        W44110  24.048  11.270   2.681
75693W        W44111  37.516  43.466   0.291
75694W        W44112   1.320  13.781  12.848
75695W        W44113  18.727  16.676   0.380
75696W        W44114  23.020  21.064  12.341
75697W        W44115  28.143   6.899   4.792
75698W        W44116   5.220  10.378  13.987
75699W        W44117   0.256  43.945   4.745
75700W        W44118  42.456  29.604  11.512
75701W        W44119  42.983  36.482  11.048
75702W        W44120  13.322  17.653  13.009
75703W        W44121  19.238  10.677  12.876
75704W        W44122  12.313  29.956  10.897
75705W        W44123   3.798  11.249  11.460
75706W        W44124  18.290  40.022  10.536
75707W        W44125   6.810  34.031  12.951
75708W        W44126  33.935  40.499  14.852
75709W        W44127  12.805  44.963  10.888
75710W        W44128  16.163  43.966  13.861
75711W        W44129  23.605  22.026  13.525
75712W        W44130  29.158  10.380   5.265
75713W        W44131  28.597  27.632   1.865
75714W        W44132  43.912  15.115  12.420
75715W        W44133  41.902  22.680   4.332
75716W        W44134  28.068  36.522   1.316
75717W        W44135  18.256  29.444   0.839
75718W        W44136  31.924   4.231   1.769
75719W        W44137  10.202  25.574   4.703
75720W        W44138   3.737  11.129   2.313
75721W        W44139  14.183  13.714  13.981
75722W        W44140  19.053  23.495  11.065
75723W        W44141  17.157  14.820  14.466
75724W        W44142  32.470  31.956   2.827
75725W        W44143  32.585  36.390   4.699
75726W        W44144  32.545  13.324   0.859
75727W        W44145  39.473  33.625   1.722
75728W        W44146  23.687  24.214   0.319
75729W        W44147  41.824  26.969  12.994
75730W        W44148  27.467  17.192  11.072
75731W        W44149  36.872  25.188   3.345
75732W        W44150   2.318  40.004  14.917
75733W        W44151   8.252  15.658  12.042
75734W        W44152  26.469   5.767  13.546
75735W        W44153  35.064  20.623  11.047
75736W        W44154  36.962  35.395   0.936
75737W        W44155  17.717  35.573  13.466
75738W        W44156  32.407  20.147  14.837
75739W        W44157  22.692  28.053   1.318
75740W        W44158  18.772  14.801  14.816
75741W        W44159   8.225  12.326  13.506
75742W        W44160  20.760  43.882   2.731
75743W        W44161  40.045  23.551  14.395
75744W        W44162  29.126  14.112   2.794
75745W        W44163  23.021  34.006  14.288
75746W        W44164  40.356  28.492   1.708
75747W        W44165  32.902  17.217   3.677
75748W        W44166   3.907  25.485  10.594
75749W        W44167   1.443  40.546  10.998
75750W        W44168   2.863  39.856   1.436
75751W        W44169  22.113  34.527   4.745
75752W        W44170  25.002  19.626   4.607
75753W        W44171  28.176  20.663  14.004
75754W        W44172  20.643  36.360   0.245
75755W        W44173  40.346  10.735   2.856
75756W        W44174   0.310   7.244   2.283
75757W        W44175  43.970   2.726   1.709
75758W        W44176  31.017  29.164  14.834
75759W        W44177  24.674   0.782  13.890
75760W        W44178  36.932  44.867   0.869
75761W        W44179  19.164  12.250  12.379
75762W        W44180  27.565   7.317  10.501
75763W        W44181  20.219  30.526  12.847
75764W        W44182  25.054  34.022   4.688
75765W        W44183  16.583  38.412   1.217
75766W        W44184  43.969  18.077   3.146
75767W        W44185  11.747  19.205   2.396
75768W        W44186  32.103  31.998   3.224
75769W        W44187  14.130   8.372  11.855
75770W        W44188  25.199   6.822   2.859
75771W        W44189  18.292  26.055  12.045
75772W        W44190  23.697  28.051   0.931
75773W        W44191   9.852  28.970  11.994
75774W        W44192   9.882   2.387   3.697
75775W        W44193  14.754  25.628   1.794
75776W        W44194  13.628  44.440   3.825
75777W        W44195  34.964  41.478  14.299
75778W        W44196  25.471  40.980   4.704
75779W        W44197  26.645  23.190  11.007
75780W        W44198  43.988  43.844   1.832
75781W        W44199   2.462   8.760  11.901
75782W        W44200  21.683  30.011   4.739
75783W        W44201  34.414  23.640  12.540
75784W        W44202   4.313  14.183  14.768
75785W        W44203  15.327  29.112  12.464
75786W        W44204  19.720  39.908  14.854
75787W        W44205  36.914  38.566  13.032
75788W        W44206   6.683  21.230   2.784
75789W        W44207   1.257   1.813  13.022
75790W        W44208  32.078  16.098  12.954
75791W        W44209  29.446  24.704   3.236
75792W        W44210  33.966  41.879   0.319
75793W        W44211  43.022  20.181  11.417
75794W        W44212  38.821  10.843  14.877
75795W        W44213  25.495  24.220  10.517
75796W        W44214  30.095  39.360   3.821
75797W        W44215  22.541   2.442   2.862
75798W        W44216   2.252  37.445  12.941
75799W        W44217  22.009   7.301   0.959
75800W        W44218  34.418  26.504  11.582
75801W        W44219  38.434  39.455   1.896
75802W        W44220  23.141  12.738  14.324
75803W        W44221   7.237  41.896   1.897
75804W        W44222  18.246  33.503  12.393
75805W        W44223  25.083  34.113   0.830
75806W        W44224  39.519  16.682   1.811
75807W        W44225  42.287  20.619  11.077
75808W        W44226   4.412  24.149   2.813
75809W        W44227  11.769  14.221  14.450
75810W        W44228  22.116  17.617  12.032
75811W        W44229   4.428   0.966   3.273
75812W        W44230  42.858   5.814   4.601
75813W        W44231  22.225  21.144   3.800
75814W        W44232   2.863  44.284  13.419
75815W        W44233  16.236  31.420   0.816
75816W        W44234  31.929  20.531   2.739
75817W        W44235  31.009  26.577   2.319
75818W        W44236  42.869  34.888  11.430
75819W        W44237  17.760  11.797  10.531
75820W        W44238  14.699  36.998  13.315
75821W        W44239  12.778  15.291   2.856
75822W        W44240  27.943  16.078  11.012
75823W        W44241  39.393   9.644  10.481
75824W        W44242  37.076  29.111   0.255
75825W        W44243  22.582  39.372  14.487
75826W        W44244  18.073  25.543   0.329
75827W        W44245  29.548   3.308   0.942
75828W        W44246  27.505  27.094  11.966
75829W        W44247  28.586  29.942   3.769
75830W        W44248   2.408  32.597  13.025
75831W        W44249  30.068  13.678  12.029
75832W        W44250  20.183  33.468   0.348
75833W        W44251   2.746   4.838  13.340
75834W        W44252  34.999   6.910   3.689
75835W        W44253  11.789  17.691  13.397
75836W        W44254  13.727   1.884   4.692
75837W        W44255  44.443  33.444   9.976
75838W        W44256  34.924  14.659   4.331
75839W        W44257  29.635  37.061  12.891
75840W        W44258  15.281  10.640   4.186
75841W        W44259  11.832  11.822  14.317
75842W        W44260  15.753  30.412   2.197
75843W        W44261  11.635  21.061   0.852
75844W        W44262  20.722   2.942  11.910
75845W        W44263  17.244  39.948   0.855
75846W        W44264  17.205  33.519   3.333
75847W        W44265  14.239  33.581   4.828
75848W        W44266  27.658  30.656  14.498
75849W        W44267   2.742  10.181   3.679
75850W        W44268  35.536  44.385   2.349
75851W        W44269  32.540  25.578  10.564
75852W        W44270  36.449   5.914  14.888
75853W        W44271   6.332   2.410   2.814
75854W        W44272   1.313  24.693  14.814
75855W        W44273  12.281  18.705   3.285
75856W        W44274  12.779  20.144   0.462
75857W        W44275  35.544  23.607   3.697
75858W        W44276   0.368  33.130   0.814
75859W        W44277  11.358  32.474   3.817
75860W        W44278  35.404  26.988  14.963
75861W        W44279  22.729  26.142   0.254
75862W        W44280   6.226  13.223  10.501
75863W        W44281  18.735  34.942  13.816
75864W        W44282  43.449  34.050   4.706
75865W        W44283  37.512  12.252   0.253
75866W        W44284  33.493  27.965  13.415
75867W        W44285  22.720  18.602  13.882
75868W        W44286   5.734  25.184   4.320
75869W        W44287  39.952  23.158  10.892
75870W        W44288  22.588  24.594   2.882
75871W        W44289  43.329  10.657   0.327
75872W        W44290  41.376  37.507  11.114
75873W        W44291  14.728  33.398   4.600
75874W        W44292  40.352  25.211  14.326
75875W        W44293   4.448  20.727  11.951
75876W        W44294  32.422   4.401  14.863
75877W        W44295   9.681   4.714  11.434
75878W        W44296  15.742  11.725  12.430
75879W        W44297  43.987  18.744   2.222
75880W        W44298  39.472  13.799  11.924
75881W        W44299   9.652   7.368   4.206
75882W        W44300   4.787  29.555  13.864
75883W        W44301   9.756  19.070  12.956
75884W        W44302   5.706   5.397  10.992
75885W        W44303  23.725  15.165  14.386
75886W        W44304  19.686   9.719  12.551
75887W        W44305  37.532  26.573  14.978
75888W        W44306  35.598  31.016  11.109
75889W        W44307  28.464  39.383  13.918
75890W        W44308  42.013  43.371   3.211
75891W        W44309  41.386  33.600  13.025
75892W        W44310  20.173   1.861  12.916
75893W        W44311  43.840  34.957  11.905
75894W        W44312  27.175  35.488   3.826
75895W        W44313  10.677  31.549   3.792
75896W        W44314   2.844  20.262  12.505
75897W        W44315  21.664  22.198   4.114
75898W        W44316  38.822  38.536   1.864
75899W        W44317  19.090   1.426  14.909
75900W        W44318  42.354  34.577   3.809
75901W        W44319   0.793  24.221   2.377
75902W        W44320  10.176  16.717   4.711
75903W        W44321  42.437  26.080   2.215
75904W        W44322  27.578  30.489  10.635
75905W        W44323   6.293  19.593   4.313
75906W        W44324  28.622  20.140   3.301
75907W        W44325   5.292  42.433  12.517
75908W        W44326  20.096  18.577  14.506
75909W        W44327   0.317  30.460   1.920
75910W        W44328  18.203   2.948  11.432
75911W        W44329  40.052   3.333  11.554
75912W        W44330  40.918  38.373  11.857
75913W        W44331  25.624  31.982   4.678
75914W        W44332  11.819  16.651  12.038
75915W        W44333   8.760  31.005   3.346
75916W        W44334   7.330  28.977  14.840
75917W        W44335   2.821  25.181   0.342
75918W        W44336  39.350  29.022   3.318
75919W        W44337  18.649  24.550  10.404
75920W        W44338   9.210  10.839   3.859
75921W        W44339  40.983  18.674  11.609
75922W        W44340  42.485   9.150  13.332
75923W        W44341   9.388  31.491   1.902
75924W        W44342  21.258  14.282   2.671
75925W        W44343  35.990   9.695   2.337
75926W        W44344  16.148  29.132  11.456
75927W        W44345  36.080  24.593  14.810
75928W        W44346   2.439  12.682  10.088
75929W        W44347   4.376  43.454   3.350
75930W        W44348  32.075  31.921   2.836
75931W        W44349  40.043   5.257  14.320
75932W        W44350   9.888   9.787   1.248
75933W        W44351  16.743  38.067  11.116
75934W        W44352  10.769  17.262  12.936
75935W        W44353   4.925  44.002   4.769
75936W        W44354  19.249  11.671  14.989
75937W        W44355  28.929   2.826   4.169
75938W        W44356  29.155  31.057  12.344
75939W        W44357  22.692   7.868  11.467
75940W        W44358  22.517  11.779  12.362
75941W        W44359   9.242   0.464   1.709
75942W        W44360  15.197  18.225   4.822
75943W        W44361  26.548  10.653   0.295
75944W        W44362  37.437  29.436  14.871
75945W        W44363  31.104  12.819   2.325
75946W        W44364  35.506  44.920   4.294
75947W        W44365   7.825   2.240  10.414
75948W        W44366  27.525  30.066  10.564
75949W        W44367  34.578  31.010   0.316
75950W        W44368  36.540  10.683  11.521
75951W        W44369   4.380  41.020   1.928
75952W        W44370  36.008   1.780  12.389
75953W        W44371  41.974  14.117   0.872
75954W        W44372   9.214  30.982  14.885
75955W        W44373  28.506  21.227   3.335
75956W        W44374  12.618  43.293   2.690
75957W        W44375  10.758  41.380   4.128
75958W        W44376  36.946   7.722   0.276
75959W        W44377  33.495  34.498  14.008
75960W        W44378  30.088   4.756  13.978
75961W        W44379  38.471  42.427   1.830
75962W        W44380  31.497   5.234  14.875
75963W        W44381  11.654  10.778  13.513
75964W        W44382  35.890  26.510   1.361
75965W        W44383  39.452  22.672   4.337
75966W        W44384  16.647  22.041   0.773
75967W        W44385  41.823   5.825  14.904
75968W        W44386   1.241   2.722   4.665
75969W        W44387   4.386  18.290  12.502
75970W        W44388  37.022   0.761   2.235
75971W        W44389  21.043  44.988  13.401
75972W        W44390  25.533  19.162   1.736
75973W        W44391  28.561  10.234   4.669
75974W        W44392   8.881   3.766   1.313
75975W        W44393   9.731  30.486  13.409
75976W        W44394   2.427  20.269   3.327
75977W        W44395  12.740  20.574   4.167
75978W        W44396  23.575  28.650   0.784
75979W        W44397  41.504   8.842  14.844
75980W        W44398  43.976  13.809  14.438
75981W        W44399  10.792  18.235   5.294
75982W        W44400  23.671  33.893  13.958
75983W        W44401  26.488   3.909  12.902
75984W        W44402  19.172  10.718   3.795
75985W        W44403  32.567  19.610  12.052
75986W        W44404  31.040  38.060  14.491
75987W        W44405   7.335  35.395  11.432
75988W        W44406  32.503  34.511   0.262
75989W        W44407  10.310  36.962   2.724
75990W        W44408   4.414  32.897  13.368
75991W        W44409  29.461  28.027   0.440
75992W        W44410  10.245  39.540  14.930
75993W        W44411  37.932  43.333   2.882
75994W        W44412  38.433  38.339  11.055
75995W        W44413  42.287  32.984   0.869
75996W        W44414  13.250  35.098   0.731
75997W        W44415  10.708  39.912  11.965
75998W        W44416  16.621  10.312   4.668
75999W        W44417   6.282  25.126   4.184
76000W        W44418   1.413   6.679  13.062
76001W        W44419  41.339  36.385   4.603
76002W        W44420  23.123  26.995  12.077
76003W        W44421  36.467  24.594   1.789
76004W        W44422  44.451  12.762  10.408
76005W        W44423  17.778  22.694  14.514
76006W        W44424   0.775  31.083  10.487
76007W        W44425  23.645  21.195   4.294
76008W        W44426  17.168   1.428   0.802
76009W        W44427  13.789   5.722   4.802
76010W        W44428  42.881  11.670   5.090
76011W        W44429  18.566  25.545   2.286
76012W        W44430  21.657  13.600   3.186
76013NA+    NA+44431  21.057  24.194   4.760
76014NA+    NA+44432   3.421  43.299  14.447
76015NA+    NA+44433   6.301  42.484  10.974
76016NA+    NA+44434  18.655  20.170   1.442
76017NA+    NA+44435  35.501  37.865   5.094
76018NA+    NA+44436  19.744  34.558   1.779
76019NA+    NA+44437   9.150  19.151  12.969
76020NA+    NA+44438  16.183  20.523  13.329
76021NA+    NA+44439  20.092  22.724  12.938
76022NA+    NA+44440   4.890  33.972  11.392
76023NA+    NA+44441  22.586  21.635   2.333
76024NA+    NA+44442  38.561  26.538   1.309
76025NA+    NA+44443   7.863  26.532   3.813
76026NA+    NA+44444  35.592   5.709  14.403
76027NA+    NA+44445   6.676   1.322   3.378
76028NA+    NA+44446  37.338  24.058  14.304
76029NA+    NA+44447  30.920  18.653   1.701
76030NA+    NA+44448   4.921  18.605  14.888
76031NA+    NA+44449   5.382  15.275  12.348
76032NA+    NA+44450  35.376  10.829  10.614
76033NA+    NA+44451  42.342  19.109  14.026
76034NA+    NA+44452   1.796  37.991   0.317
76035NA+    NA+44453  13.672  10.384  13.955
76036NA+    NA+44454  39.963   2.443  13.538
76037NA+    NA+44455  43.856   6.741  14.848
76038NA+    NA+44456  10.303  30.930   0.936
76039NA+    NA+44457   9.347  11.653  13.939
76040NA+    NA+44458  23.662  15.747   4.727
76041NA+    NA+44459  19.731  18.158   3.638
76042NA+    NA+44460  20.043   7.340  10.114
76043NA+    NA+44461   0.450  14.269   4.263
76044NA+    NA+44462  24.044  14.626  11.894
76045NA+    NA+44463  33.606  41.910  12.945
76046NA+    NA+44464  29.490  40.931   2.179
76047NA+    NA+44465  14.750   9.698   1.273
76048NA+    NA+44466  14.273  35.438   4.734
76049NA+    NA+44467  28.577   8.661   1.794
76050NA+    NA+44468   2.842  41.527   0.828
76051NA+    NA+44469  27.652  17.210   4.634
76052NA+    NA+44470   9.264  37.928   3.370
76053NA+    NA+44471  11.195  14.761   0.929
76054NA+    NA+44472  12.700   1.816   4.615
76055NA+    NA+44473  18.707  25.496  11.463
76056NA+    NA+44474  27.194  20.225  11.519
76057NA+    NA+44475  18.228  20.669  14.990
76058NA+    NA+44476   7.756  29.994   1.836
76059NA+    NA+44477  19.277  18.197  12.504
76060NA+    NA+44478  15.292  38.453  12.529
76061NA+    NA+44479   4.722  25.133   0.425
76062NA+    NA+44480  28.099  18.656  12.374
76063NA+    NA+44481  28.473   7.416   3.365
76064NA+    NA+44482  40.831  29.146  12.868
76065NA+    NA+44483  31.101  39.988   2.895
76066NA+    NA+44484   8.709  38.863   3.323
76067NA+    NA+44485  42.308  17.087  13.356
76068NA+    NA+44486   5.755  30.624  10.643
76069NA+    NA+44487  19.731  27.455  10.134
76070NA+    NA+44488  24.999  14.757  11.608
76071NA+    NA+44489   7.313  39.506   1.394
76072NA+    NA+44490  21.517   5.723  11.014
76073NA+    NA+44491  13.339  42.487   2.903
76074NA+    NA+44492   9.710  32.447   0.243
76075NA+    NA+44493   6.819  41.941   0.433
76076NA+    NA+44494  36.966  29.472   1.700
76077NA+    NA+44495   1.797   7.214  14.838
76078NA+    NA+44496  37.500  41.791   2.800
76079NA+    NA+44497   6.779  30.968   4.785
76080NA+    NA+44498  29.034  34.527  11.421
76081NA+    NA+44499  37.854  39.329  12.965
76082NA+    NA+44500  29.479  22.651  14.932
76083NA+    NA+44501  41.030  12.229  13.830
76084NA+    NA+44502  28.168  44.353   3.261
76085NA+    NA+44503  43.002  18.658   2.285
76086NA+    NA+44504   4.340   1.402  10.551
76087NA+    NA+44505  18.637  24.541  14.010
76088NA+    NA+44506  30.147  25.074  10.960
76089NA+    NA+44507  13.318  27.078   1.696
76090NA+    NA+44508  31.607  18.248  10.894
76091NA+    NA+44509   6.282   5.293   3.747
76092NA+    NA+44510  31.440  11.267   2.738
76093NA+    NA+44511  41.802  12.678  10.087
76094NA+    NA+44512  13.640  43.997  14.384
76095NA+    NA+44513  35.984   0.287  12.450
76096NA+    NA+44514  16.084  32.967   0.465
76097NA+    NA+44515  25.179  39.438  12.358
76098NA+    NA+44516  14.616   0.400   4.652
76099NA+    NA+44517  41.936  38.467   2.771
76100NA+    NA+44518  12.682  36.377  12.075
76101NA+    NA+44519  17.208  17.166  11.414
76102NA+    NA+44520   8.287  33.474  13.537
76103NA+    NA+44521  16.682  29.981   4.626
76104NA+    NA+44522  11.193  13.813  10.894
76105NA+    NA+44523   5.797  43.322   0.842
76106NA+    NA+44524  42.848  20.162   4.638
76107NA+    NA+44525  43.796   9.734  14.303
76108NA+    NA+44526  30.101  25.067   3.314
76109NA+    NA+44527  13.703  43.292   1.845
76110NA+    NA+44528  40.402  34.934  11.441
76111NA+    NA+44529  14.139  31.959   4.335
76112NA+    NA+44530  35.414  31.585   0.877
76113NA+    NA+44531   3.302  40.390  10.984
76114NA+    NA+44532  34.599   0.318   0.253
76115NA+    NA+44533  37.481  38.515  11.610
76116NA+    NA+44534  37.437  38.493  14.957
76117NA+    NA+44535  32.408   3.445   0.840
76118NA+    NA+44536  32.633   2.434   3.812
76119NA+    NA+44537  11.334  19.097   2.340
76120NA+    NA+44538  27.555  17.234   1.413
76121NA+    NA+44539  13.319   9.726   3.640
76122NA+    NA+44540  42.840  12.667   4.615
76123NA+    NA+44541  30.525   5.399   4.344
76124NA+    NA+44542  20.529  22.224   3.730
76125NA+    NA+44543   1.270  35.541  10.960
76126NA+    NA+44544  18.080  26.130   1.812
76127NA+    NA+44545  39.348   0.963  14.863
76128NA+    NA+44546  25.995  40.484   1.803
76129NA+    NA+44547  43.824  17.606  10.487
76130NA+    NA+44548  36.863  22.126  12.010
76131NA+    NA+44549  13.180  35.575   1.864
76132NA+    NA+44550  31.577  36.033   1.357
76133NA+    NA+44551   9.200   7.824  13.000
76134NA+    NA+44552  33.939  21.720  10.419
76135NA+    NA+44553  15.740  33.581  13.897
76136NA+    NA+44554   3.879  44.463   4.213
76137NA+    NA+44555  10.349  11.727  14.488
76138NA+    NA+44556  29.430  33.918   3.156
76139NA+    NA+44557  28.567  18.698  14.341
76140NA+    NA+44558  13.329  15.303   0.278
76141NA+    NA+44559  32.534  18.790   1.781
76142NA+    NA+44560  11.344  25.489   2.877
76143NA+    NA+44561  17.642  17.598  14.943
76144NA+    NA+44562  38.511   6.678   2.821
76145NA+    NA+44563   8.757  18.622  14.323
76146NA+    NA+44564   3.390   4.904  13.423
76147NA+    NA+44565  19.668   8.872  11.030
76148NA+    NA+44566  34.055  40.931  10.970
76149NA+    NA+44567  34.006  37.525   0.262
76150NA+    NA+44568  29.163   3.860   1.783
76151NA+    NA+44569  34.919  10.231   5.127
76152NA+    NA+44570   8.842  25.006  12.503
76153NA+    NA+44571  31.062  36.399  13.392
76154NA+    NA+44572  15.638   3.364   2.791
76155NA+    NA+44573  13.647   2.732  11.075
76156NA+    NA+44574  26.060  28.674   1.763
76157NA+    NA+44575   4.936  39.370  10.609
76158NA+    NA+44576  36.941  37.488  13.869
76159NA+    NA+44577  39.343  42.926   1.280
76160NA+    NA+44578  20.624  11.200   2.368
76161NA+    NA+44579   0.363  12.207   3.349
76162NA+    NA+44580   4.277  27.104   4.721
76163NA+    NA+44581  32.569  19.718   3.690
76164NA+    NA+44582  44.493   9.842   0.854
76165NA+    NA+44583   5.838  38.020  13.393
76166NA+    NA+44584  44.914  14.716  13.810
76167NA+    NA+44585  40.028  20.073   3.274
76168NA+    NA+44586   4.352  37.014   4.276
76169NA+    NA+44587   0.918  37.909   3.813
76170NA+    NA+44588  29.965  42.395  10.951
76171NA+    NA+44589  17.792   1.325   3.651
76172NA+    NA+44590  17.173   8.324   0.415
76173NA+    NA+44591  14.146  20.039  14.500
76174NA+    NA+44592   0.789  10.324  13.893
76175NA+    NA+44593  16.591   2.232  12.917
76176NA+    NA+44594  23.161  33.544  14.332
76177NA+    NA+44595  24.549  33.888  14.925
76178NA+    NA+44596  34.080  36.943  12.851
76179NA+    NA+44597  17.173  33.525  12.514
76180NA+    NA+44598  16.698   8.758  14.358
76181NA+    NA+44599   6.867   3.871  14.845
76182NA+    NA+44600   5.907  42.369   1.248
76183NA+    NA+44601  24.978  40.829  12.030
76184NA+    NA+44602  18.555  28.564   0.765
76185NA+    NA+44603   4.926  41.930  14.866
76186NA+    NA+44604  40.927   4.816  11.117
76187NA+    NA+44605  41.368  27.109   1.417
76188NA+    NA+44606  33.977  13.707  12.467
76189NA+    NA+44607  20.184  18.102  13.834
76190NA+    NA+44608  26.539  18.729   4.190
76191NA+    NA+44609   5.881   3.792   2.803
76192NA+    NA+44610  28.964  21.197  11.601
76193NA+    NA+44611  15.613  26.689   4.122
76194NA+    NA+44612  25.645  31.546  12.359
76195NA+    NA+44613  29.979  24.602  13.522
76196NA+    NA+44614  15.716  43.342   3.711
76197NA+    NA+44615  10.150  19.045  10.431
76198NA+    NA+44616  34.963  20.238  13.047
76199NA+    NA+44617  18.750  30.501  10.096
76200NA+    NA+44618  11.324  19.180   4.699
76201NA+    NA+44619  23.701  28.557  10.551
76202NA+    NA+44620   9.304  27.005  11.946
76203NA+    NA+44621  17.715  35.549   0.949
76204NA+    NA+44622  21.042  39.338  13.879
76205NA+    NA+44623  44.886  10.708  14.984
76206NA+    NA+44624  42.427  16.283  14.982
76207NA+    NA+44625  41.439  26.041  12.495
76208NA+    NA+44626  10.355  13.136  14.772
76209NA+    NA+44627  33.116  12.715  12.461
76210NA+    NA+44628   5.890  33.106  12.858
76211NA+    NA+44629  19.043  44.962  13.972
76212NA+    NA+44630   3.372  44.994   4.822
76213NA+    NA+44631  21.622  25.097   5.275
76214NA+    NA+44632  29.504  28.480  14.309
76215NA+    NA+44633  35.001  14.196   3.283
76216NA+    NA+44634  39.950   0.873  13.900
76217NA+    NA+44635  32.531  41.470   1.893
76218NA+    NA+44636  19.122  12.291  11.529
76219NA+    NA+44637  10.289  42.848  13.464
76220NA+    NA+44638  44.931  27.168  11.011
76221NA+    NA+44639   1.256  20.730   2.755
76222NA+    NA+44640  31.934  19.104  12.384
76223NA+    NA+44641  35.494   2.768   4.186
76224NA+    NA+44642  17.294  28.489  13.388
76225NA+    NA+44643  23.045  13.127   1.274
76226NA+    NA+44644   7.272  30.939  14.939
76227NA+    NA+44645  12.655  15.803  11.600
76228NA+    NA+44646  14.677  11.167  11.033
76229NA+    NA+44647   0.336  32.519  11.954
76230NA+    NA+44648   2.390  24.554  11.958
76231NA+    NA+44649  16.209  27.662  12.578
76232NA+    NA+44650   2.404   7.762   2.762
76233NA+    NA+44651  36.903   5.342  11.062
76234NA+    NA+44652  34.870  17.706  13.371
76235NA+    NA+44653   6.272  36.407  14.383
76236NA+    NA+44654   1.808  28.442   3.191
76237NA+    NA+44655  34.995  26.645   1.317
76238NA+    NA+44656   4.803  40.501  12.888
76239NA+    NA+44657  36.964   8.769  14.807
76240NA+    NA+44658  18.772   5.715  12.415
76241NA+    NA+44659  16.214  10.357  10.416
76242NA+    NA+44660   6.406  31.526  11.049
76243NA+    NA+44661  36.399  14.127  10.442
76244NA+    NA+44662  11.319   4.423   0.766
76245NA+    NA+44663  43.948   6.392  11.079
76246NA+    NA+44664  12.699  31.981   4.819
76247NA+    NA+44665  35.491   9.168  13.973
76248NA+    NA+44666  34.464  32.973   3.737
76249NA+    NA+44667  26.559  39.370   1.257
76250NA+    NA+44668  29.611  23.686   3.215
76251NA+    NA+44669  12.152  14.762   4.287
76252NA+    NA+44670  44.286  37.369  11.863
76253NA+    NA+44671   7.702   7.304  11.383
76254NA+    NA+44672  13.165  18.182  11.962
76255NA+    NA+44673  31.961  41.933  11.998
76256NA+    NA+44674   9.328  23.545   4.180
76257NA+    NA+44675  43.784  29.571   2.712
76258NA+    NA+44676  14.299  39.879  11.084
76259NA+    NA+44677  32.061  13.136   4.652
76260NA+    NA+44678  14.797   4.731  10.479
76261NA+    NA+44679  22.232  43.367  11.114
76262NA+    NA+44680  34.073  38.843   3.837
76263NA+    NA+44681  27.157  39.873  13.936
76264NA+    NA+44682   2.239   3.226   0.293
76265NA+    NA+44683  11.305  17.249  10.517
76266NA+    NA+44684  11.357  39.046  12.382
76267NA+    NA+44685   8.698   1.959  12.431
76268NA+    NA+44686   2.756  39.029  13.874
76269NA+    NA+44687   4.833   3.786  11.953
76270NA+    NA+44688  26.974  20.065  12.958
76271NA+    NA+44689  20.541  40.045   1.428
76272NA+    NA+44690  16.599  39.049   2.834
76273NA+    NA+44691  24.719  42.474   2.348
76274NA+    NA+44692  31.117  39.386  13.351
76275NA+    NA+44693  39.058  14.126  10.159
76276NA+    NA+44694  28.166  38.449  14.374
76277NA+    NA+44695  27.969  19.628   0.283
76278NA+    NA+44696  15.592  23.568   1.325
76279NA+    NA+44697  12.220  12.245  14.022
76280NA+    NA+44698  40.798   5.711  10.528
76281NA+    NA+44699  19.068  31.005   1.922
76282NA+    NA+44700  28.582  24.083   4.714
76283NA+    NA+44701   6.373  17.775  13.537
76284NA+    NA+44702  28.438  44.475   9.998
76285NA+    NA+44703  14.246  38.435   0.856
76286NA+    NA+44704   8.726   9.234  12.834
76287NA+    NA+44705  34.935   1.426  14.323
76288NA+    NA+44706  11.804   7.212  12.871
76289NA+    NA+44707  24.594   5.265   4.302
76290NA+    NA+44708  18.758  27.658   3.737
76291NA+    NA+44709   9.178   9.831  14.917
76292NA+    NA+44710  18.068  31.646  12.970
76293NA+    NA+44711   7.355  14.329  12.461
76294NA+    NA+44712  20.605  17.158  11.936
76295NA+    NA+44713  14.230  40.002   0.293
76296NA+    NA+44714  14.778  11.847  12.530
76297NA+    NA+44715  35.566  15.717  13.389
76298NA+    NA+44716  20.691  36.984  14.852
76299NA+    NA+44717  15.223  43.417   4.735
76300NA+    NA+44718   6.368  16.657   4.815
76301NA+    NA+44719  32.924   9.224  11.445
76302NA+    NA+44720  20.547  22.521  11.913
76303NA+    NA+44721  17.785   6.794   1.712
76304NA+    NA+44722   2.875  29.936   4.762
76305NA+    NA+44723  24.666   7.206   2.895
76306NA+    NA+44724  24.047  22.092  13.516
76307NA+    NA+44725  34.459   2.955  11.559
76308NA+    NA+44726  41.851  34.026   1.821
76309NA+    NA+44727   8.171  32.606   4.810
76310NA+    NA+44728  37.362   5.376   2.252
76311NA+    NA+44729  35.388  23.104   0.299
76312NA+    NA+44730  33.379  28.647  13.855
76313NA+    NA+44731  18.140   4.235   3.373
76314NA+    NA+44732  31.430   6.330  12.870
76315NA+    NA+44733  21.544  35.993   4.264
76316NA+    NA+44734   8.188  20.087   0.349
76317NA+    NA+44735  23.652   8.874  12.917
76318NA+    NA+44736  31.069  25.510   2.815
76319NA+    NA+44737  25.676  13.325  14.863
76320NA+    NA+44738   2.274  30.014   0.814
76321NA+    NA+44739  25.658   3.216   0.852
76322NA+    NA+44740  31.900  10.328  11.863
76323NA+    NA+44741  25.548  34.938   2.272
76324NA+    NA+44742   8.873   3.909   3.703
76325NA+    NA+44743  25.204  25.133   1.836
76326NA+    NA+44744  33.927   4.322   1.822
76327NA+    NA+44745  37.885  27.166   3.149
76328NA+    NA+44746   8.659  19.259  12.924
76329NA+    NA+44747  15.744   8.742   1.420
76330NA+    NA+44748  10.258  31.539   0.812
76331NA+    NA+44749  24.218  21.680   2.848
76332NA+    NA+44750  26.030   5.373   2.748
76333NA+    NA+44751   8.244  38.440   0.783
76334NA+    NA+44752  10.675  35.061  13.327
76335NA+    NA+44753  29.603  36.383   3.366
76336NA+    NA+44754  37.572   6.418   2.766
76337NA+    NA+44755  23.500  19.113  13.377
76338NA+    NA+44756  29.605  32.955  13.925
76339NA+    NA+44757  24.029   1.297   1.805
76340NA+    NA+44758  26.118  21.074   1.886
76341NA+    NA+44759  28.441  42.438  10.616
76342NA+    NA+44760  36.008  18.154  11.955
76343NA+    NA+44761  10.702   5.717   1.878
76344NA+    NA+44762  34.925  11.196  12.050
76345NA+    NA+44763  38.050  21.525   3.371
76346NA+    NA+44764  41.988  30.495  12.826
76347NA+    NA+44765  37.955   4.283  13.941
76348NA+    NA+44766  30.912  33.985   3.304
76349NA+    NA+44767   9.188  20.565  10.580
76350NA+    NA+44768  16.799  22.213  14.880
76351NA+    NA+44769  26.168  33.904   4.655
76352NA+    NA+44770   8.849   9.265   4.150
76353NA+    NA+44771  18.676  44.952   1.774
76354NA+    NA+44772   2.303  11.715  14.397
76355NA+    NA+44773  26.107   3.760   4.793
76356NA+    NA+44774  31.457   7.722   0.771
76357NA+    NA+44775  40.408  31.500   1.310
76358NA+    NA+44776  29.438  38.845  12.845
76359NA+    NA+44777  20.206  17.616  13.863
76360NA+    NA+44778   7.365  25.139   0.415
76361NA+    NA+44779  20.257  40.376  11.487
76362NA+    NA+44780  20.587  22.630   1.891
76363NA+    NA+44781  23.610  23.658   3.859
76364NA+    NA+44782   5.305  43.496   3.678
76365NA+    NA+44783  36.580   3.228  12.376
76366NA+    NA+44784  15.241  26.007  11.036
76367NA+    NA+44785  19.578  24.571  14.854
76368NA+    NA+44786  23.581   5.412  12.900
76369NA+    NA+44787   3.281  14.272   3.379
76370NA+    NA+44788   3.915  21.181   1.736
76371NA+    NA+44789  35.873   2.457   0.322
76372NA+    NA+44790  26.140  21.102   0.942
76373NA+    NA+44791  21.641  35.493  13.520
76374NA+    NA+44792  19.608  40.363  14.894
76375NA+    NA+44793  34.059  39.944   3.379
76376NA+    NA+44794  29.573   9.275  13.367
76377NA+    NA+44795  37.847   3.739   0.301
76378NA+    NA+44796  11.738  26.054  13.540
76379NA+    NA+44797  36.908  32.973  11.868
76380NA+    NA+44798  22.659  31.526  11.465
76381NA+    NA+44799  33.612   1.914   0.840
76382NA+    NA+44800  33.491  12.213   1.882
76383NA+    NA+44801   6.893  41.824   2.211
76384NA+    NA+44802  18.734  22.183  13.842
76385NA+    NA+44803  39.848  20.120  11.083
76386NA+    NA+44804  30.940  38.013   2.326
76387NA+    NA+44805  18.067  23.220   1.931
76388NA+    NA+44806  41.929  39.462   2.367
76389NA+    NA+44807   3.309  25.111  11.384
76390NA+    NA+44808  19.551  32.087   0.775
76391NA+    NA+44809  32.903   3.944   0.438
76392NA+    NA+44810   7.794  40.850   3.212
76393NA+    NA+44811  31.046  42.431  10.429
76394NA+    NA+44812  23.083  36.858   2.819
76395NA+    NA+44813  11.355   1.350  10.937
76396NA+    NA+44814  43.407  30.424   3.755
76397NA+    NA+44815  15.116  28.606  13.869
76398NA+    NA+44816   2.903  22.061  13.378
76399NA+    NA+44817  40.027  29.170  14.289
76400NA+    NA+44818   5.870  22.632   4.598
76401NA+    NA+44819  12.737  11.673   3.745
76402NA+    NA+44820  27.097  27.538   2.707
76403NA+    NA+44821  20.733  28.667   3.826
76404NA+    NA+44822  39.393  11.160   4.283
76405NA+    NA+44823  34.549  21.118  10.427
76406NA+    NA+44824  14.171  12.725   4.778
76407NA+    NA+44825   8.768  10.876   1.909
76408NA+    NA+44826  18.551  42.900  12.043
76409NA+    NA+44827  14.644  23.598  10.988
76410NA+    NA+44828   4.306   6.904   2.326
76411NA+    NA+44829  24.978  18.565   1.394
76412NA+    NA+44830  16.811  23.988   1.353
76413NA+    NA+44831  44.965  23.010   0.783
76414NA+    NA+44832  18.657  33.090   0.877
76415NA+    NA+44833  42.854  13.272  11.396
76416NA+    NA+44834  32.393   6.914   2.785
76417NA+    NA+44835  42.879   8.810  14.455
76418NA+    NA+44836  22.239  11.364   4.321
76419NA+    NA+44837  20.192  10.735  11.957
76420NA+    NA+44838  40.309  14.118  10.592
76421NA+    NA+44839  22.088  33.892  13.530
76422NA+    NA+44840  13.287  20.256   3.833
76423NA+    NA+44841  26.073  30.499   0.428
76424NA+    NA+44842  19.774  37.949   3.840
76425NA+    NA+44843  17.717  41.471   1.855
76426NA+    NA+44844  17.219  18.661   0.386
76427NA+    NA+44845  23.120  44.331   0.270
76428NA+    NA+44846  38.422  35.458   2.766
76429NA+    NA+44847  24.999  19.637   3.380
76430NA+    NA+44848  37.084  23.101   1.217
76431NA+    NA+44849  19.611  19.696   0.860
76432NA+    NA+44850  32.390  37.547   1.758
76433NA+    NA+44851  28.476  13.119   3.209
76434NA+    NA+44852  44.004   0.971   4.159
76435NA+    NA+44853  31.559  39.814   3.216
76436NA+    NA+44854  18.603  44.864   2.840
76437NA+    NA+44855   1.240  41.862   0.483
76438NA+    NA+44856  32.068   3.238   0.807
76439NA+    NA+44857  10.372   6.747   4.812
76440NA+    NA+44858  39.910  10.848  10.902
76441NA+    NA+44859  20.631   6.683  10.466
76442NA+    NA+44860  23.058   4.933   4.158
76443NA+    NA+44861  18.595  15.753  12.446
76444NA+    NA+44862   6.712  23.698   1.863
76445NA+    NA+44863  12.146  41.327  13.979
76446NA+    NA+44864   7.868   7.353  11.880
76447NA+    NA+44865  43.322  31.938   1.335
76448NA+    NA+44866  24.029   9.157   2.816
76449NA+    NA+44867  17.142  26.193   3.630
76450NA+    NA+44868  27.584  24.981   2.863
76451NA+    NA+44869  27.555  33.106   2.844
76452NA+    NA+44870  44.320  39.956  14.998
76453NA+    NA+44871  44.456  14.776   9.497
76454NA+    NA+44872  42.012  36.022  14.818
76455NA+    NA+44873   8.256   6.402   1.397
76456NA+    NA+44874  22.072  34.991   2.764
76457NA+    NA+44875   6.704  33.593   2.676
76458NA+    NA+44876  26.479  17.156   3.729
76459NA+    NA+44877  20.568  30.007  13.979
76460NA+    NA+44878   5.419   9.756   4.345
76461NA+    NA+44879   3.854  38.531  12.897
76462NA+    NA+44880  20.622  13.213  11.459
76463NA+    NA+44881  28.554  12.193  10.466
76464NA+    NA+44882  26.136  17.612  10.431
76465NA+    NA+44883  20.629  10.376   4.309
76466NA+    NA+44884  31.077  27.009   2.795
76467NA+    NA+44885  34.017   9.342  12.563
76468NA+    NA+44886   2.926  19.119  10.548
76469NA+    NA+44887  24.548  32.022   5.236
76470NA+    NA+44888  16.078   2.856  13.457
76471NA+    NA+44889  13.666  12.815  10.618
76472NA+    NA+44890  28.019  34.520  11.987
76473NA+    NA+44891  28.672  36.052   0.732
76474NA+    NA+44892  27.631   9.235   4.661
76475NA+    NA+44893  22.126  28.676   3.351
76476NA+    NA+44894  27.996  17.757  12.030
76477NA+    NA+44895   9.749  33.624  11.910
76478NA+    NA+44896   6.300  40.329  14.029
76479NA+    NA+44897  19.729  37.501   2.877
76480NA+    NA+44898  43.910   6.836   4.293
76481NA+    NA+44899  27.000  38.448  13.064
76482NA+    NA+44900  34.047  17.149  11.454
76483NA+    NA+44901  19.247  25.475   1.839
76484NA+    NA+44902  36.999  25.569  14.398
76485NA+    NA+44903   6.210  30.939  14.422
76486NA+    NA+44904  17.090   7.355  14.460
76487NA+    NA+44905  27.949  12.129  13.416
76488NA+    NA+44906  37.527  38.418   3.181
76489NA+    NA+44907   5.202  17.658   1.399
76490NA+    NA+44908  32.106  19.609  14.461
76491NA+    NA+44909  38.868  22.581   0.954
76492NA+    NA+44910  15.168  40.877   0.242
76493NA+    NA+44911  37.003  28.551   1.741
76494NA+    NA+44912  23.546  40.488  13.923
76495NA+    NA+44913   5.740  29.621  13.352
76496NA+    NA+44914  22.046   7.715  14.324
76497NA+    NA+44915  29.496   4.413  11.071
76498NA+    NA+44916  36.481  11.701  12.849
76499NA+    NA+44917  40.495  38.501  13.347
76500NA+    NA+44918  28.673  26.596  14.024
76501NA+    NA+44919  35.432  29.947   2.865
76502NA+    NA+44920   9.247  11.242   1.305
76503NA+    NA+44921  35.906  38.553  11.957
76504NA+    NA+44922   0.952  13.819   4.332
76505NA+    NA+44923   5.266  33.401   2.385
76506NA+    NA+44924   5.270  31.097  13.340
76507NA+    NA+44925  30.033  37.929  11.890
76508NA+    NA+44926  26.661  42.920   4.663
76509NA+    NA+44927  39.032  17.641  11.564
76510NA+    NA+44928  14.723  29.466   3.259
76511NA+    NA+44929  36.978  24.581  10.580
76512NA+    NA+44930  21.093   2.956  14.991
76513NA+    NA+44931   9.752  40.949  11.937
76514NA+    NA+44932  36.357   9.677  11.385
76515NA+    NA+44933  24.080  12.652   0.385
76516NA+    NA+44934  35.085  44.896   1.286
76517NA+    NA+44935   1.882   1.401   0.472
76518NA+    NA+44936  20.228  32.001  11.117
76519NA+    NA+44937  27.549  13.154   2.285
76520NA+    NA+44938   4.217   4.335   2.200
76521NA+    NA+44939  26.197  27.950   3.682
76522NA+    NA+44940  25.130  33.460   3.824
76523NA+    NA+44941  40.458  27.519  12.510
76524NA+    NA+44942  33.600  39.045   9.929
76525NA+    NA+44943  21.096   1.973  14.770
76526NA+    NA+44944  26.588   7.287   4.193
76527NA+    NA+44945  40.486  30.044  10.899
76528NA+    NA+44946  15.756  21.075   3.165
76529NA+    NA+44947  40.798   7.247   4.616
76530NA+    NA+44948  12.763  37.566   0.269
76531NA+    NA+44949  40.549  41.943   4.145
76532NA+    NA+44950  11.331  42.419   2.342
76533NA+    NA+44951  36.434   7.390   2.813
76534NA+    NA+44952  21.516  28.547  12.957
76535NA+    NA+44953  42.507  12.153  13.449
76536NA+    NA+44954  15.225  32.995   0.324
76537NA+    NA+44955  40.402   6.305  13.976
76538NA+    NA+44956  26.692  11.198   0.872
76539NA+    NA+44957  19.221  40.985  12.078
76540NA+    NA+44958  38.000  43.467  14.814
76541NA+    NA+44959   7.203  37.439  14.500
76542NA+    NA+44960  18.595   4.715  13.042
76543NA+    NA+44961  26.668  39.052  11.529
76544NA+    NA+44962   5.306  44.446   0.379
76545NA+    NA+44963  35.012   8.696  12.982
76546NA+    NA+44964  17.651  18.786  11.129
76547NA+    NA+44965  15.140  23.682  12.885
76548NA+    NA+44966  11.637   7.780  10.539
76549NA+    NA+44967  33.952  24.658  13.471
76550NA+    NA+44968  29.082  30.427   1.449
76551NA+    NA+44969  20.541  23.057   0.391
76552NA+    NA+44970  19.730  44.339   1.726
76553NA+    NA+44971  26.514   5.230   4.711
76554NA+    NA+44972  42.354   8.828  11.445
76555NA+    NA+44973  28.165  24.706  12.910
76556NA+    NA+44974  23.603  18.778  13.002
76557NA+    NA+44975  30.417  28.100   4.654
76558NA+    NA+44976  41.962   4.812  13.427
76559NA+    NA+44977  16.687  32.400  10.997
76560NA+    NA+44978  29.079  10.290   0.902
76561NA+    NA+44979  42.289  26.176   0.254
76562NA+    NA+44980  17.603  21.542  10.976
76563NA+    NA+44981  11.172   0.416   2.696
76564NA+    NA+44982  37.480  10.250   4.143
76565NA+    NA+44983   2.412  23.225  11.508
76566NA+    NA+44984  22.695  23.226  11.580
76567NA+    NA+44985   6.318  40.541   0.439
76568NA+    NA+44986  13.182  23.066   4.605
76569NA+    NA+44987  23.142  27.996   4.653
76570NA+    NA+44988   1.885   1.863  13.490
76571NA+    NA+44989  31.498  30.512   2.313
76572NA+    NA+44990   8.291   9.182   0.375
76573NA+    NA+44991  15.297  19.085   1.700
76574NA+    NA+44992   5.408  37.542   2.748
76575NA+    NA+44993  16.600  36.966   2.803
76576NA+    NA+44994  37.384  11.762  12.514
76577NA+    NA+44995   3.742  32.449  12.876
76578NA+    NA+44996  44.497   0.322   2.263
76579NA+    NA+44997  29.579  28.561   3.772
76580NA+    NA+44998  16.128   1.955   2.263
76581NA+    NA+44999  44.783   4.254   0.459
76582NA+    NA+45000  43.512  42.485  14.993
76583NA+    NA+45001  23.112  26.152   1.756
76584NA+    NA+45002  36.937   1.737  11.978
76585NA+    NA+45003   4.754  34.981  12.425
76586NA+    NA+45004  18.066  32.902   1.750
76587NA+    NA+45005   3.403  19.255  12.061
76588NA+    NA+45006   5.890   4.241  14.420
76589NA+    NA+45007   7.878  18.242   1.246
76590NA+    NA+45008   8.750   2.866   4.784
76591NA+    NA+45009  34.389  21.610  11.864
76592NA+    NA+45010  16.166   8.810   5.092
76593NA+    NA+45011  29.435  18.631   0.946
76594NA+    NA+45012  25.177  16.667   1.828
76595NA+    NA+45013  24.030   3.277  14.842
76596NA+    NA+45014  44.925  42.970   5.307
76597NA+    NA+45015  23.636   2.779   1.293
76598NA+    NA+45016  13.136  23.678   0.333
76599NA+    NA+45017  16.686   5.218  10.031
76600NA+    NA+45018   0.482  38.506   1.280
76601NA+    NA+45019  16.803  33.419   2.790
76602NA+    NA+45020   8.759  19.562  11.420
76603NA+    NA+45021  18.778   5.340   3.646
76604NA+    NA+45022  20.548   0.362   1.242
76605NA+    NA+45023  31.010  19.206  14.807
76606NA+    NA+45024  39.558  35.892  13.861
76607NA+    NA+45025   5.803  42.961   0.276
76608NA+    NA+45026  36.562  24.688  14.497
76609NA+    NA+45027  13.716  36.941  11.994
76610NA+    NA+45028  41.816  18.069  13.434
76611NA+    NA+45029  10.358  22.183  10.498
76612NA+    NA+45030   6.307   1.407   0.344
76613NA+    NA+45031  25.022   0.273   2.372
76614NA+    NA+45032  12.353  27.950  10.642
76615NA+    NA+45033  37.562  20.636  11.988
76616NA+    NA+45034  12.792  10.685  11.994
76617NA+    NA+45035  24.170  36.880   3.852
76618NA+    NA+45036  36.877  39.314   3.772
76619NA+    NA+45037  16.189  36.533   1.723
76620NA+    NA+45038  32.002   4.818  12.826
76621NA+    NA+45039  18.788  14.675  11.911
76622NA+    NA+45040  31.526   0.378   3.709
76623NA+    NA+45041  27.049  23.160  11.889
76624NA+    NA+45042  35.521  40.977   0.354
76625NA+    NA+45043  28.536  37.511   1.865
76626NA+    NA+45044  35.069  35.884  13.425
76627NA+    NA+45045   8.834   7.672  12.562
76628NA+    NA+45046  29.456  40.412   0.888
76629NA+    NA+45047  40.396  28.068   3.321
76630NA+    NA+45048  23.675  41.411   4.309
76631NA+    NA+45049  11.320  43.516  12.525
76632NA+    NA+45050   0.873  28.980  13.875
76633NA+    NA+45051  20.615  13.833  13.533
76634NA+    NA+45052  15.784   3.309   3.790
76635NA+    NA+45053  18.575  22.637   3.643
76636NA+    NA+45054  35.407   4.213   2.822
76637NA+    NA+45055  33.504  21.672   4.814
76638NA+    NA+45056  14.139  44.944  14.823
76639NA+    NA+45057  25.470  19.114   3.299
76640NA+    NA+45058  36.087   6.206  13.344
76641NA+    NA+45059   8.692  12.785  14.965
76642NA+    NA+45060   3.362  11.364  14.858
76643NA+    NA+45061  37.443  17.642   1.777
76644NA+    NA+45062  21.117  41.044   2.344
76645NA+    NA+45063  38.966  24.530  12.531
76646NA+    NA+45064   6.821   3.362  12.556
76647NA+    NA+45065   5.860   8.755   1.326
76648NA+    NA+45066   9.367   1.295  11.006
76649NA+    NA+45067  10.678  36.856  11.430
76650NA+    NA+45068   4.318  31.105   4.670
76651NA+    NA+45069   1.283  41.822   3.225
76652NA+    NA+45070  14.276  35.006   2.340
76653NA+    NA+45071  43.804   0.907   2.307
76654NA+    NA+45072   1.944  40.315  12.412
76655NA+    NA+45073  15.667  32.069   2.414
76656NA+    NA+45074  25.477  24.068  11.089
76657NA+    NA+45075  34.497  30.026   4.808
76658NA+    NA+45076  22.544  41.478   0.325
76659NA+    NA+45077  20.238  19.089   0.254
76660NA+    NA+45078   5.228   2.321  14.902
76661NA+    NA+45079  22.678  38.362  13.421
76662NA+    NA+45080  21.081   0.895  14.917
76663NA+    NA+45081  40.319  33.518  10.488
76664NA+    NA+45082  20.657  22.565   2.797
76665NA+    NA+45083  37.852  39.375  10.124
76666NA+    NA+45084  19.560  21.693  12.419
76667NA+    NA+45085  13.174  30.441  13.920
76668NA+    NA+45086  26.031  32.627   0.928
76669NA+    NA+45087  44.818  38.870   3.282
76670NA+    NA+45088  12.190   6.269   0.407
76671NA+    NA+45089   4.877  37.431   3.832
76672NA+    NA+45090  11.807  38.469   4.324
76673NA+    NA+45091   0.401   9.270   0.885
76674NA+    NA+45092  32.902   4.783  12.996
76675NA+    NA+45093  30.972  37.037   2.763
76676NA+    NA+45094  42.516  21.527   2.703
76677NA+    NA+45095  36.490  38.064   4.821
76678NA+    NA+45096  22.247  17.081   4.236
76679NA+    NA+45097  40.837  36.536  13.947
76680NA+    NA+45098  15.294  32.064   0.771
76681NA+    NA+45099  11.793  13.295  13.346
76682NA+    NA+45100  11.149   1.359   0.733
76683NA+    NA+45101  26.635  10.650  12.827
76684NA+    NA+45102  34.374  16.181   2.399
76685NA+    NA+45103  13.105   6.344  12.523
76686NA+    NA+45104  33.049  18.126   3.796
76687NA+    NA+45105  44.942   6.867  11.525
76688NA+    NA+45106  25.135  38.050  11.602
76689NA+    NA+45107  25.662   5.203   4.616
76690NA+    NA+45108  28.143   9.800   2.292
76691NA+    NA+45109  21.117   3.391  13.963
76692NA+    NA+45110  44.387  35.989   3.698
76693NA+    NA+45111  42.415  39.492  10.480
76694NA+    NA+45112  13.176  40.502  13.356
76695NA+    NA+45113  28.007   7.682  10.449
76696NA+    NA+45114  32.509  30.497   2.328
76697NA+    NA+45115  19.211  18.249   1.763
76698NA+    NA+45116   7.894  36.565  13.819
76699NA+    NA+45117   4.774   6.777   4.683
76700NA+    NA+45118   7.293  31.631   1.707
76701NA+    NA+45119  16.629  43.979  13.458
76702NA+    NA+45120  23.733  34.534  13.916
76703NA+    NA+45121  44.838  32.089  14.446
76704NA+    NA+45122  19.768   1.434   2.764
76705NA+    NA+45123  11.199  31.503   1.341
76706NA+    NA+45124  22.657  24.146   3.683
76707NA+    NA+45125  16.231  30.127  13.012
76708NA+    NA+45126  35.447  34.901   4.730
76709NA+    NA+45127  34.500  22.204  13.481
76710NA+    NA+45128  39.856  23.153  14.032
76711NA+    NA+45129  33.521  23.095  14.009
76712NA+    NA+45130  23.058   4.792  12.058
76713NA+    NA+45131   7.786  10.380  13.795
76714NA+    NA+45132  31.486  19.248  14.363
76715NA+    NA+45133  14.096  10.239  11.570
76716NA+    NA+45134   6.398  22.225   2.288
76717NA+    NA+45135  12.618  42.796  14.935
76718NA+    NA+45136  25.614  20.231   0.479
76719NA+    NA+45137  12.268  33.552  10.052
76720NA+    NA+45138  14.636  31.118  10.897
76721NA+    NA+45139  43.404  27.146  10.946
76722NA+    NA+45140  28.014  37.914   3.785
76723NA+    NA+45141  43.778  44.943  11.546
76724NA+    NA+45142  44.008  12.717   1.371
76725NA+    NA+45143  34.444  12.153   2.895
76726NA+    NA+45144   2.423  23.197   5.653
76727NA+    NA+45145  41.815  39.824   2.191
76728NA+    NA+45146   7.313  32.919  13.509
76729NA+    NA+45147   5.848  23.511  11.458
76730NA+    NA+45148  13.766  14.733   1.406
76731NA+    NA+45149   6.201  39.059  14.428
76732NA+    NA+45150  23.173  27.555   4.793
76733NA+    NA+45151  23.073  25.164   2.717
76734NA+    NA+45152  20.609  26.485   5.736
76735NA+    NA+45153  18.172   9.349  14.494
76736NA+    NA+45154   5.868  20.134   3.851
76737NA+    NA+45155   1.977  25.613  13.059
76738NA+    NA+45156   8.868  37.516  13.358
76739NA+    NA+45157  42.013  29.065   3.748
76740NA+    NA+45158  42.408  13.157  13.926
76741NA+    NA+45159  17.694  21.683   3.281
76742NA+    NA+45160  29.519  10.307  14.896
76743NA+    NA+45161  15.193  42.813   0.436
76744NA+    NA+45162  37.965  40.372  12.936
76745NA+    NA+45163  18.659  30.002   4.192
76746NA+    NA+45164   6.781  29.439   0.755
76747NA+    NA+45165  17.580  43.933  11.092
76748NA+    NA+45166  41.349  32.586  11.949
76749NA+    NA+45167   8.208  28.070  10.429
76750NA+    NA+45168  44.319   3.357   0.754
76751NA+    NA+45169  18.160  17.797  10.890
76752NA+    NA+45170  30.433  19.131   3.306
76753NA+    NA+45171  23.093  34.613  14.908
76754NA+    NA+45172  18.641  21.720   1.411
76755NA+    NA+45173  40.845  14.160  11.087
76756NA+    NA+45174   3.424  14.173   0.910
76757NA+    NA+45175  30.021  25.030   0.850
76758NA+    NA+45176  41.895  13.193  11.919
76759NA+    NA+45177  28.180  35.891  13.355
76760NA+    NA+45178  11.164  39.987  12.529
76761NA+    NA+45179  34.538  31.488   2.719
76762NA+    NA+45180  22.111  42.795   4.647
76763NA+    NA+45181  16.208   9.377  14.995
76764NA+    NA+45182   7.308  39.334   0.479
76765NA+    NA+45183  40.393  29.017   1.933
76766NA+    NA+45184  16.758  30.040  12.889
76767NA+    NA+45185  17.071  37.526  11.451
76768NA+    NA+45186  38.401  27.990  10.943
76769NA+    NA+45187  43.287   5.268  13.454
76770NA+    NA+45188   6.416  41.461   1.718
76771NA+    NA+45189  30.611  35.531   0.396
76772NA+    NA+45190  15.791  13.294  14.958
76773NA+    NA+45191  32.408  10.710  12.998
76774NA+    NA+45192  41.406  15.824   2.891
76775NA+    NA+45193  20.588  26.462   9.982
76776NA+    NA+45194  30.983   8.198   4.819
76777NA+    NA+45195   3.760   2.300   1.849
76778NA+    NA+45196  42.878  43.461   4.777
76779NA+    NA+45197  15.240  35.399  14.953
76780NA+    NA+45198  35.413  43.363   4.806
76781NA+    NA+45199  14.633  43.925   2.827
76782NA+    NA+45200  32.893  13.656  12.567
76783NA+    NA+45201  16.235  23.020   0.792
76784NA+    NA+45202  21.052  15.117   3.149
76785NA+    NA+45203  34.570  42.951  13.497
76786NA+    NA+45204  36.501   1.966   2.191
76787NA+    NA+45205  10.659  13.144  11.940
76788NA+    NA+45206  30.621   9.356   2.689
76789NA+    NA+45207   6.227   5.206   4.689
76790NA+    NA+45208  16.659  22.569   0.838
76791NA+    NA+45209  14.191  15.780  12.084
76792NA+    NA+45210  25.031  37.393   2.757
76793NA+    NA+45211  18.735   0.290   0.337
76794NA+    NA+45212   5.918  44.397  11.478
76795NA+    NA+45213  20.089  42.929   0.816
76796NA+    NA+45214  14.766   4.786  11.060
76797NA+    NA+45215  25.180  17.175   1.703
76798NA+    NA+45216  20.218  35.872   2.688
76799NA+    NA+45217  43.942  23.054   2.204
76800NA+    NA+45218   1.464  11.650  14.906
76801NA+    NA+45219  18.055  34.536  14.016
76802NA+    NA+45220   3.721  34.881  11.891
76803NA+    NA+45221  42.843  44.880  11.943
76804NA+    NA+45222  15.242  38.000   0.457
76805NA+    NA+45223  17.711  26.163   2.225
76806NA+    NA+45224   1.866  12.349  10.974
76807NA+    NA+45225  34.556  44.260   2.273
76808NA+    NA+45226  24.613  19.091  10.935
76809NA+    NA+45227   2.959   5.741  13.943
76810NA+    NA+45228  11.179  33.936   0.301
76811NA+    NA+45229   3.221  19.244   0.431
76812NA+    NA+45230  42.289  21.225  10.052
76813NA+    NA+45231   6.771  18.226   3.220
76814NA+    NA+45232  15.759  42.373   0.845
76815NA+    NA+45233  32.083  42.505   0.414
76816NA+    NA+45234  11.734   1.735  10.011
76817NA+    NA+45235  32.481  42.901   4.221
76818NA+    NA+45236   3.381  42.512  12.853
76819NA+    NA+45237  31.018  27.531   0.457
76820NA+    NA+45238  27.484   4.917  12.007
76821NA+    NA+45239  21.532  42.348  13.814
76822NA+    NA+45240  33.580  33.593  13.366
76823NA+    NA+45241   6.363  35.999  11.091
76824NA+    NA+45242  28.478  26.485   0.366
76825NA+    NA+45243  31.603  36.092   0.455
76826NA+    NA+45244  24.525  21.231  11.901
76827NA+    NA+45245  36.449  25.103   5.252
76828NA+    NA+45246  30.929  35.102  10.977
76829NA+    NA+45247  10.742  16.213   1.271
76830NA+    NA+45248  35.511   5.905  11.591
76831NA+    NA+45249  31.078  13.658  14.946
76832NA+    NA+45250  39.476  12.774   0.371
76833NA+    NA+45251  38.329  14.642   3.629
76834NA+    NA+45252  37.429   9.813  12.546
76835NA+    NA+45253  39.923   4.914   0.913
76836NA+    NA+45254   9.761  22.179  14.907
76837NA+    NA+45255  19.578  42.344  10.595
76838NA+    NA+45256  13.753  34.997  13.064
76839NA+    NA+45257   9.877  28.967   3.678
76840NA+    NA+45258  13.149  35.897   1.734
76841NA+    NA+45259  30.557  21.598  12.065
76842NA+    NA+45260  35.446  31.091  13.923
76843NA+    NA+45261  11.687  20.173  12.970
76844NA+    NA+45262  30.488  23.241   1.709
76845NA+    NA+45263  18.625   2.418   1.764
76846NA+    NA+45264  18.626  41.407  11.896
76847NA+    NA+45265  17.628  22.539   1.332
76848NA+    NA+45266  39.477  38.852  14.498
76849NA+    NA+45267   8.307  14.230  12.923
76850NA+    NA+45268  16.700   5.850  13.871
76851NA+    NA+45269  20.174  25.473  12.499
76852NA+    NA+45270  16.725   9.270  10.639
76853NA+    NA+45271  38.906  26.031   2.331
76854NA+    NA+45272  17.621  17.788  12.974
76855NA+    NA+45273   1.412  26.473  13.420
76856NA+    NA+45274   4.313  42.443   2.184
76857NA+    NA+45275   8.666   2.268   5.232
76858NA+    NA+45276   6.402  34.107  12.444
76859NA+    NA+45277  33.433  20.563   2.199
76860NA+    NA+45278  30.163  25.650   4.173
76861NA+    NA+45279  34.019   1.459   1.255
76862NA+    NA+45280  33.490  36.938  10.637
76863NA+    NA+45281  15.248  11.240   4.765
76864NA+    NA+45282  35.908  35.008   1.706
76865NA+    NA+45283   2.441  31.080   1.241
76866NA+    NA+45284  34.461  33.973   4.725
76867NA+    NA+45285  19.719  20.526   1.919
76868NA+    NA+45286   7.687   0.836   2.808
76869NA+    NA+45287   7.386  28.501   2.709
76870NA+    NA+45288  27.168  36.499  13.800
76871NA+    NA+45289  27.585   0.774  10.444
76872NA+    NA+45290  25.112  27.567   4.701
76873NA+    NA+45291  28.998  32.432   4.189
76874NA+    NA+45292  33.904  28.516  11.400
76875NA+    NA+45293  14.606  14.590   1.736
76876NA+    NA+45294   8.199  18.714   4.678
76877NA+    NA+45295   3.925  13.117  11.070
76878NA+    NA+45296  10.711  26.071   3.150
76879NA+    NA+45297  15.675  25.110   0.896
76880NA+    NA+45298   2.269  27.107   1.366
76881NA+    NA+45299   1.956  28.556   2.891
76882NA+    NA+45300  33.563  23.207  14.434
76883NA+    NA+45301  13.827  13.794  11.972
76884NA+    NA+45302  44.260  23.135   4.810
76885NA+    NA+45303   0.452  16.589  12.087
76886NA+    NA+45304  39.406  34.414  14.355
76887NA+    NA+45305  28.935   8.841  10.010
76888NA+    NA+45306  24.491   8.375   1.290
76889NA+    NA+45307   7.838  21.622  13.941
76890NA+    NA+45308  17.574  21.187   4.721
76891NA+    NA+45309  40.892  32.922   3.325
76892NA+    NA+45310  11.368   3.246   4.831
76893NA+    NA+45311  40.989  43.431   0.430
76894NA+    NA+45312  14.126  23.668  12.358
76895NA+    NA+45313  42.348  23.011   2.284
76896NA+    NA+45314  21.736  15.813  10.534
76897NA+    NA+45315  31.999  26.537   3.263
76898NA+    NA+45316  36.953   4.319  12.970
76899NA+    NA+45317   3.874  37.527  11.483
76900NA+    NA+45318  36.069  32.448   3.320
76901NA+    NA+45319   0.490  31.108  13.843
76902NA+    NA+45320  24.547  23.646  12.417
76903NA+    NA+45321   6.833  30.422  13.968
76904NA+    NA+45322  21.095   1.479  14.464
76905NA+    NA+45323  34.557  44.502   4.138
76906NA+    NA+45324  37.558  34.575  13.316
76907NA+    NA+45325  31.911  24.560   2.293
76908NA+    NA+45326  26.142  11.668   4.824
76909NA+    NA+45327  14.671  32.473  12.992
76910NA+    NA+45328  42.318  31.947  11.987
76911NA+    NA+45329  23.072  23.713   1.881
76912NA+    NA+45330  27.154  32.614   4.708
76913NA+    NA+45331  40.337  14.108  14.011
76914NA+    NA+45332  34.582  32.421  12.478
76915NA+    NA+45333  40.396  24.628  13.484
76916NA+    NA+45334  23.691  22.597  11.516
76917NA+    NA+45335  37.565  38.897  10.056
76918NA+    NA+45336  27.976   9.282  12.007
76919NA+    NA+45337   8.777  33.437   0.919
76920NA+    NA+45338  27.112  30.037  12.019
76921NA+    NA+45339   2.858  28.106  12.882
76922NA+    NA+45340  13.274  10.694  11.447
76923NA+    NA+45341   7.741  24.004   1.852
76924NA+    NA+45342  29.102  15.329   2.835
76925NA+    NA+45343  24.653  36.569  13.495
76926NA+    NA+45344  34.966  22.531  14.278
76927NA+    NA+45345  22.174   6.227  14.323
76928NA+    NA+45346  10.685  44.303  14.385
76929NA+    NA+45347  39.959  41.487  14.352
76930NA+    NA+45348  18.605   3.908   3.646
76931NA+    NA+45349  18.144   3.389   2.796
76932NA+    NA+45350  14.104  38.004  13.860
76933NA+    NA+45351  25.520  33.060  11.550
76934NA+    NA+45352  28.181  27.170   0.336
76935NA+    NA+45353  19.764  30.026  12.974
76936NA+    NA+45354   7.747  25.558  13.889
76937NA+    NA+45355  24.683  26.117   1.703
76938NA+    NA+45356  14.248  20.199  12.008
76939NA+    NA+45357  19.064  25.194   0.257
76940NA+    NA+45358  39.003  38.488  11.550
76941NA+    NA+45359  29.962  20.202   2.740
76942NA+    NA+45360  43.002  12.178  11.968
76943NA+    NA+45361  24.186  18.690   1.253
76944NA+    NA+45362  21.205   2.229   1.817
76945NA+    NA+45363  16.641  22.036  13.438
76946NA+    NA+45364  27.010  36.454   2.667
76947NA+    NA+45365  11.330  19.737   1.262
76948NA+    NA+45366   3.421   8.694  12.061
76949NA+    NA+45367   3.953  29.596   1.225
76950NA+    NA+45368  24.983  10.633   1.879
76951NA+    NA+45369  16.614  38.854  14.980
76952NA+    NA+45370  13.226  13.693  11.888
76953NA+    NA+45371   1.391  36.919   2.347
76954NA+    NA+45372  39.850  30.060  10.464
76955NA+    NA+45373  30.415   4.312   2.789
76956NA+    NA+45374   6.266  30.998   2.761
76957NA+    NA+45375  43.272  18.701   2.199
76958NA+    NA+45376   1.854  20.133   4.349
76959NA+    NA+45377   2.850   6.894  11.037
76960NA+    NA+45378  22.127  43.018   3.702
76961NA+    NA+45379  21.737  44.445   0.278
76962NA+    NA+45380  42.468   4.278   1.751
76963NA+    NA+45381   4.828  39.040  13.480
76964NA+    NA+45382  14.698   8.309   3.663
76965NA+    NA+45383  20.563  33.067   2.344
76966NA+    NA+45384  13.333   7.379  12.027
76967NA+    NA+45385  38.409  14.332   5.201
76968NA+    NA+45386  30.975  23.616   2.841
76969NA+    NA+45387  31.517  21.238  12.479
76970NA+    NA+45388  37.396   1.736   0.328
76971NA+    NA+45389  20.679   0.258   2.677
76972NA+    NA+45390  22.700  15.623  14.403
76973NA+    NA+45391  11.302  26.520  14.376
76974NA+    NA+45392  44.499  30.060  11.045
76975NA+    NA+45393   9.736  13.618   3.642
76976NA+    NA+45394  38.536  33.473  13.009
76977NA+    NA+45395  15.579   2.745   3.869
76978NA+    NA+45396  23.093  40.365   5.762
76979NA+    NA+45397   6.347  38.890  12.368
76980NA+    NA+45398  32.448  34.111  13.370
76981NA+    NA+45399  33.420  21.132   4.787
76982NA+    NA+45400  18.661  27.666   0.356
76983NA+    NA+45401  40.470  28.657   1.378
76984NA+    NA+45402  18.127   9.149   3.634
76985NA+    NA+45403  36.842  25.169   2.888
76986NA+    NA+45404  15.090  24.225  11.438
76987NA+    NA+45405  40.995  25.523  11.453
76988NA+    NA+45406   8.855   4.805  13.999
76989NA+    NA+45407  16.230  22.240   3.312
76990NA+    NA+45408  13.705   0.254   3.817
76991NA+    NA+45409  38.993  26.032   2.795
76992NA+    NA+45410  44.314  34.070  11.095
76993NA+    NA+45411  17.254  37.991   1.873
76994NA+    NA+45412   9.682  34.585   4.745
76995NA+    NA+45413  30.138  40.328   4.314
76996NA+    NA+45414   1.973   9.767  11.090
76997NA+    NA+45415  31.558  10.373  14.971
76998NA+    NA+45416   2.230   9.173  12.514
76999NA+    NA+45417  35.969  18.748  11.587
77000NA+    NA+45418  23.218  20.102  12.556
77001NA+    NA+45419  10.203  25.551  11.017
77002NA+    NA+45420  26.195  38.422   1.362
77003NA+    NA+45421  25.688  41.000  12.346
77004NA+    NA+45422  36.093  21.232   4.734
77005NA+    NA+45423   0.844  15.648  11.117
77006NA+    NA+45424   3.807  27.145   1.225
77007NA+    NA+45425   8.238  31.600  14.877
77008NA+    NA+45426   8.665   1.974   4.772
77009NA+    NA+45427  38.541  17.098  11.383
77010NA+    NA+45428   0.960  16.666   1.743
77011NA+    NA+45429  16.800  18.558   2.382
77012NA+    NA+45430  26.200  25.038  12.092
77013NA+    NA+45431  32.062  31.067  11.444
77014NA+    NA+45432  35.458  10.861   3.174
77015NA+    NA+45433  15.776  28.962   3.645
77016NA+    NA+45434  25.159  15.296   2.293
77017NA+    NA+45435   7.384  25.642   0.403
77018NA+    NA+45436   4.231  23.693  10.593
77019NA+    NA+45437  41.366   2.744   3.277
77020NA+    NA+45438   0.899  14.726  14.495
77021NA+    NA+45439   2.449  42.307  13.456
77022NA+    NA+45440  24.161  25.680  12.893
77023NA+    NA+45441  16.778  41.872  12.358
77024NA+    NA+45442  31.072  42.506   1.372
77025NA+    NA+45443  36.397  18.715   0.886
77026NA+    NA+45444  11.673  26.600  14.473
77027NA+    NA+45445  41.806  11.865   5.193
77028NA+    NA+45446   0.798  14.779  10.562
77029NA+    NA+45447  34.435  25.126   0.756
77030NA+    NA+45448  19.121  30.080   3.377
77031NA+    NA+45449   6.330  33.951   0.857
77032NA+    NA+45450  43.406  15.263  11.105
77033NA+    NA+45451  17.640  30.154   3.812
77034NA+    NA+45452   6.791  25.504   4.839
77035NA+    NA+45453   0.492  17.754  13.826
77036NA+    NA+45454   5.896  29.067  11.610
77037NA+    NA+45455  13.171  42.810   0.787
77038NA+    NA+45456  40.517  41.458   1.410
77039NA+    NA+45457  25.203  13.138   2.667
77040NA+    NA+45458  11.685  27.108   2.838
77041NA+    NA+45459  41.320  18.778  11.548
77042NA+    NA+45460  35.388  11.243  11.408
77043NA+    NA+45461  24.586  43.939   0.421
77044NA+    NA+45462  22.583  37.524   2.778
77045NA+    NA+45463   8.180  44.931   3.190
77046NA+    NA+45464  28.007  34.902   0.259
77047NA+    NA+45465  20.139   8.301   2.674
77048NA+    NA+45466  26.191  36.519  13.379
77049NA+    NA+45467  40.839   0.941  14.456
77050NA+    NA+45468  18.175  22.089   3.378
77051NA+    NA+45469  43.995  20.742   5.805
77052NA+    NA+45470  22.691  33.507  11.017
77053NA+    NA+45471  12.277  40.798   2.239
77054NA+    NA+45472  27.146  37.407   5.304
77055NA+    NA+45473  28.484  37.872   2.178
77056NA+    NA+45474  20.123   9.719  11.862
77057NA+    NA+45475   2.313   2.838  11.441
77058NA+    NA+45476  36.575  18.602   2.808
77059NA+    NA+45477  11.782   6.865   3.345
77060NA+    NA+45478  22.133  31.645  12.443
77061NA+    NA+45479  39.032  13.146   3.296
77062NA+    NA+45480  43.304  19.536  10.159
77063NA+    NA+45481  38.477  42.898   5.301
77064NA+    NA+45482  25.985  39.972  13.916
77065NA+    NA+45483  30.001  42.899   1.290
77066NA+    NA+45484  16.802  22.077   3.246
77067NA+    NA+45485  35.414  19.210  13.805
77068NA+    NA+45486   7.179  33.390  12.082
77069NA+    NA+45487  17.109  19.141   4.720
77070NA+    NA+45488  33.904   7.279  12.406
77071NA+    NA+45489  17.709  14.334  13.919
77072NA+    NA+45490   9.832  40.442  10.574
77073NA+    NA+45491  31.533   4.825   0.463
77074NA+    NA+45492  37.836  12.670  11.920
77075NA+    NA+45493  40.919  36.485   1.273
77076NA+    NA+45494   0.907   0.310  14.797
77077NA+    NA+45495  40.507  33.056   4.713
77078NA+    NA+45496  30.164  39.897  11.025
77079NA+    NA+45497  13.667  19.747  12.541
77080NA+    NA+45498  41.834  26.107   4.261
77081NA+    NA+45499  33.381   9.681  12.435
77082NA+    NA+45500  14.639   6.711  13.337
77083NA+    NA+45501  41.510  36.431   1.739
77084NA+    NA+45502  19.750  13.811   3.279
77085NA+    NA+45503  22.550  24.560  10.562
77086NA+    NA+45504  23.055  13.263   4.187
77087NA+    NA+45505  11.139  17.634   2.706
77088NA+    NA+45506  34.448   4.774  13.359
77089NA+    NA+45507   0.375  42.318   0.910
77090NA+    NA+45508  40.816  44.376  11.029
77091NA+    NA+45509   3.718   4.764   3.356
77092NA+    NA+45510   9.709  25.650   1.233
77093NA+    NA+45511   6.228  32.070  14.963
77094NA+    NA+45512  40.420   2.822  14.277
77095NA+    NA+45513   9.268  38.514  13.839
77096NA+    NA+45514  38.373  16.694  12.394
77097NA+    NA+45515  38.409  21.158  13.810
77098NA+    NA+45516  18.122  32.423  13.417
77099NA+    NA+45517  34.500  37.562  14.277
77100NA+    NA+45518  39.013  20.255   1.424
77101NA+    NA+45519  22.109  37.895   9.496
77102NA+    NA+45520  38.829  14.187  12.454
77103NA+    NA+45521  22.701  34.898   0.820
77104NA+    NA+45522  21.662  18.563  13.474
77105NA+    NA+45523  18.121  42.007   1.914
77106NA+    NA+45524  44.893   0.759  14.915
77107NA+    NA+45525  36.051  42.799   2.306
77108NA+    NA+45526  40.345   7.776  10.990
77109NA+    NA+45527  26.617  23.174  12.022
77110NA+    NA+45528   0.336  12.757   3.153
77111NA+    NA+45529  43.322  17.145   0.955
77112NA+    NA+45530   6.793  33.130  13.041
77113NA+    NA+45531   5.331   8.320  12.421
77114NA+    NA+45532   7.832  12.817   1.300
77115NA+    NA+45533  44.772  14.737  14.959
77116NA+    NA+45534   9.212  40.850  11.003
77117NA+    NA+45535  28.656  42.779   3.749
77118NA+    NA+45536   2.248  36.496  12.075
77119NA+    NA+45537  31.907   7.887   2.404
77120NA+    NA+45538  21.649  38.057   4.259
77121NA+    NA+45539  27.591  15.105  13.420
77122NA+    NA+45540  38.536  18.111  10.484
77123NA+    NA+45541  20.536  14.823  12.420
77124NA+    NA+45542  17.633  13.809   3.272
77125NA+    NA+45543  12.158  16.302  12.980
77126NA+    NA+45544  32.101  36.893  12.559
77127NA+    NA+45545  21.709  30.079   1.917
77128NA+    NA+45546   8.387  10.303   3.211
77129NA+    NA+45547  27.602  21.587   3.166
77130NA+    NA+45548  26.486  25.592   0.242
77131NA+    NA+45549   2.255  11.252  11.921
77132NA+    NA+45550  17.258  27.194  14.876
77133NA+    NA+45551   5.349  43.859   0.949
77134NA+    NA+45552  43.928   3.778  13.463
77135NA+    NA+45553  20.590  40.325   5.786
77136NA+    NA+45554  42.889  18.148  12.070
77137NA+    NA+45555  13.195  17.180  10.077
77138NA+    NA+45556  23.147  21.684  13.432
77139NA+    NA+45557   5.438  26.654  13.987
77140NA+    NA+45558  14.275  32.616   2.253
77141NA+    NA+45559   2.248  13.661   1.308
77142NA+    NA+45560   4.302  30.505   1.775
77143NA+    NA+45561  31.501  33.943   1.223
77144NA+    NA+45562  17.734  10.328  10.580
77145NA+    NA+45563   7.830  14.101  12.395
77146NA+    NA+45564  29.528   1.744   1.774
77147NA+    NA+45565  36.896   0.310   3.215
77148NA+    NA+45566  30.979   5.212   4.637
77149NA+    NA+45567  32.420  27.045   2.687
77150NA+    NA+45568  42.798  43.500  12.393
77151NA+    NA+45569  24.615  25.171   4.636
77152NA+    NA+45570   2.236  38.551   0.960
77153NA+    NA+45571   5.784  16.210  12.069
77154NA+    NA+45572  28.561  37.500  11.412
77155NA+    NA+45573   2.948  38.434   0.770
77156NA+    NA+45574  28.062   6.889   0.425
77157NA+    NA+45575  35.479  16.692   3.760
77158NA+    NA+45576  35.469  18.157   2.290
77159NA+    NA+45577  35.576  42.908  11.497
77160NA+    NA+45578  20.625  10.146   3.306
77161NA+    NA+45579  41.948  36.000   3.183
77162NA+    NA+45580  17.694   4.891   3.317
77163NA+    NA+45581  43.777  34.985   2.412
77164NA+    NA+45582  11.235  34.883  13.835
77165NA+    NA+45583  29.081  17.721  12.990
77166NA+    NA+45584  18.051   1.909  14.809
77167NA+    NA+45585  13.735  42.337  13.041
77168NA+    NA+45586  24.146  39.900   1.324
77169NA+    NA+45587   6.268  24.172   0.922
77170NA+    NA+45588  39.442  33.496  11.467
77171NA+    NA+45589   3.265  21.245   4.657
77172NA+    NA+45590  30.015  26.961   3.337
77173NA+    NA+45591   0.785  28.486   0.359
77174NA+    NA+45592  36.062  39.999  11.390
77175NA+    NA+45593   5.202  38.507   0.828
77176NA+    NA+45594  27.471  26.528   4.138
77177NA+    NA+45595   8.406   4.717   3.844
77178NA+    NA+45596  28.165  43.368   3.721
77179NA+    NA+45597  11.726  20.029  14.363
77180NA+    NA+45598  14.684   9.671  13.389
77181NA+    NA+45599  32.588   4.268   3.831
77182NA+    NA+45600  41.501  39.431   1.310
77183NA+    NA+45601  38.511  20.747  13.391
77184NA+    NA+45602  26.170  26.572  11.864
77185NA+    NA+45603  26.498  31.446   1.313
77186NA+    NA+45604  37.499  39.036   4.714
77187NA+    NA+45605  26.580   5.286   0.949
77188NA+    NA+45606  16.750  35.528  13.324
77189NA+    NA+45607  43.850  37.870   0.784
77190NA+    NA+45608   6.411  17.098   4.831
77191NA+    NA+45609  43.952  30.520  12.913
77192NA+    NA+45610   7.750  38.553  11.021
77193NA+    NA+45611  17.589  17.748   3.793
77194NA+    NA+45612   3.801  36.057   4.612
77195NA+    NA+45613  30.931  11.267   2.258
77196NA+    NA+45614   3.737  23.549  13.841
77197NA+    NA+45615  40.521   4.787   1.338
77198NA+    NA+45616  14.105   1.893  14.923
77199NA+    NA+45617  29.106  33.031  10.470
77200NA+    NA+45618   9.266  35.369   4.640
77201NA+    NA+45619  41.879  15.281   0.797
77202NA+    NA+45620  26.626  17.637   3.831
77203NA+    NA+45621  42.300  33.434   0.877
77204NA+    NA+45622  22.170  21.225  12.904
77205NA+    NA+45623  12.138  29.005   2.691
77206NA+    NA+45624  16.666   7.399   4.139
77207NA+    NA+45625  21.258  25.706   4.665
77208NA+    NA+45626  10.289  25.987  10.144
77209NA+    NA+45627  27.612   0.972  11.502
77210NA+    NA+45628  26.151  15.592  11.089
77211NA+    NA+45629   0.929  13.825   4.777
77212NA+    NA+45630   5.363  37.559  11.459
77213NA+    NA+45631  16.625  38.434   4.188
77214NA+    NA+45632  22.127  14.321  13.329
77215NA+    NA+45633  21.681  32.993  11.543
77216NA+    NA+45634  15.631   5.772  11.059
77217NA+    NA+45635   5.401  13.813  14.473
77218NA+    NA+45636  31.511   4.918   4.683
77219NA+    NA+45637  40.479  35.042   1.903
77220NA+    NA+45638  37.860  16.575  11.385
77221NA+    NA+45639  28.972   1.425   3.357
77222NA+    NA+45640  28.636  21.031   4.677
77223NA+    NA+45641  10.268  38.942   5.210
77224NA+    NA+45642  22.680  25.012  13.908
77225NA+    NA+45643  41.414   8.761   0.965
77226NA+    NA+45644  17.301   3.908   1.808
77227NA+    NA+45645  35.058  24.224  10.575
77228NA+    NA+45646  22.225  33.548  12.489
77229NA+    NA+45647   3.224  35.557  13.970
77230NA+    NA+45648  44.006  42.933   0.902
77231NA+    NA+45649  10.800   6.706   3.345
77232NA+    NA+45650  17.169  36.354  14.873
77233NA+    NA+45651  30.058  31.059   3.280
77234NA+    NA+45652  27.547  28.474   3.726
77235NA+    NA+45653   0.347  27.618   1.800
77236NA+    NA+45654  16.626   6.704  12.494
77237NA+    NA+45655   2.464  38.461  12.554
77238NA+    NA+45656  44.501  41.817   1.416
77239NA+    NA+45657  26.684   5.398  14.997
77240NA+    NA+45658  24.108  43.488   2.337
77241NA+    NA+45659  12.745  41.507  13.505
77242NA+    NA+45660  35.064  20.126   1.919
77243NA+    NA+45661  28.038  40.021   2.225
77244NA+    NA+45662  14.315  29.951  10.605
77245NA+    NA+45663  33.385  17.626  12.011
77246NA+    NA+45664  35.439   3.895  14.965
77247NA+    NA+45665  15.624  33.391  11.522
77248NA+    NA+45666  34.985   4.764   5.099
77249NA+    NA+45667   6.265  23.135   2.900
77250NA+    NA+45668   6.692  34.093   2.294
77251NA+    NA+45669   5.737   0.969  14.001
77252NA+    NA+45670  14.097  36.976   4.745
77253NA+    NA+45671   6.373  22.998   3.297
77254NA+    NA+45672  31.427  35.401  12.945
77255NA+    NA+45673  38.999  14.725   2.815
77256NA+    NA+45674  19.160  14.101  10.489
77257NA+    NA+45675  40.430  20.526   2.372
77258NA+    NA+45676  18.790  43.776   3.671
77259NA+    NA+45677  13.106   0.301  13.024
77260NA+    NA+45678  25.137  24.986  14.822
77261NA+    NA+45679  19.260   1.274  14.333
77262NA+    NA+45680  41.474  33.521  13.353
77263NA+    NA+45681  21.097  44.835  11.965
77264NA+    NA+45682  20.040  36.038  12.577
77265NA+    NA+45683  17.107  41.948  12.935
77266NA+    NA+45684  20.612  14.741  14.401
77267NA+    NA+45685  43.810  10.185  12.866
77268NA+    NA+45686   8.287  30.413   0.248
77269NA+    NA+45687  25.578   9.840  14.424
77270NA+    NA+45688  37.387  32.101   3.737
77271NA+    NA+45689  32.907  15.227   1.701
77272NA+    NA+45690  25.215  11.797   2.384
77273NA+    NA+45691   1.391  23.036   5.096
77274NA+    NA+45692  14.612   1.822   2.205
77275NA+    NA+45693  16.764  10.152  12.520
77276NA+    NA+45694   7.225  17.581   1.389
77277NA+    NA+45695  43.353  42.891  12.376
77278NA+    NA+45696   2.734  37.531   3.375
77279NA+    NA+45697   7.756  11.130  12.992
77280NA+    NA+45698  16.126  40.479   4.273
77281NA+    NA+45699  26.698  16.138   0.344
77282NA+    NA+45700  11.648  37.537   0.435
77283NA+    NA+45701  28.648  14.800  11.082
77284NA+    NA+45702  15.237  18.180  12.565
77285NA+    NA+45703  32.494  10.239   2.747
77286NA+    NA+45704  18.732  17.618  11.512
77287NA+    NA+45705  17.562   7.778   2.235
77288NA+    NA+45706  12.248  14.105  11.468
77289NA+    NA+45707  18.085  17.262  11.439
77290NA+    NA+45708  36.469   6.246  14.851
77291NA+    NA+45709  31.481   3.394   4.787
77292NA+    NA+45710   3.313  27.492  11.118
77293NA+    NA+45711   4.936  41.817  11.855
77294NA+    NA+45712  22.647  18.174  12.452
77295NA+    NA+45713  36.015  36.371  12.024
77296NA+    NA+45714  29.593   7.257   3.828
77297NA+    NA+45715  11.652  39.525   2.253
77298NA+    NA+45716  12.204   6.708   2.818
77299NA+    NA+45717  26.481  11.138   1.287
77300NA+    NA+45718  24.056   8.181  12.542
77301NA+    NA+45719  23.730   1.920  12.418
77302NA+    NA+45720  11.747   9.374  10.626
77303NA+    NA+45721   1.395  12.267  13.492
77304NA+    NA+45722  38.444  14.256  12.844
77305NA+    NA+45723  44.454  42.964  10.426
77306NA+    NA+45724  15.121  35.510  12.347
77307NA+    NA+45725  24.040  16.203  14.968
77308NA+    NA+45726  39.927  23.102   1.743
77309NA+    NA+45727  41.919  41.377  13.920
77310NA+    NA+45728  36.497   5.692  13.045
77311NA+    NA+45729  21.225  16.787  13.450
77312NA+    NA+45730  11.367  10.148  11.416
77313NA+    NA+45731   4.267  22.212   4.223
77314NA+    NA+45732  32.420  13.742   1.445
77315NA+    NA+45733  41.946  43.813   1.248
77316NA+    NA+45734  33.412  12.836  14.952
77317NA+    NA+45735   7.785  35.552   1.720
77318NA+    NA+45736  36.494   2.472  10.901
77319NA+    NA+45737   0.981  38.479   1.278
77320NA+    NA+45738  16.197  14.801  11.459
77321NA+    NA+45739  37.442   7.730  13.838
77322NA+    NA+45740  41.515  29.986  11.030
77323NA+    NA+45741  43.443  22.600   0.862
77324NA+    NA+45742   5.870  26.682   0.423
77325NA+    NA+45743  27.526  27.664  10.551
77326NA+    NA+45744   4.244   6.305  14.364
77327NA+    NA+45745   8.243  22.614   0.448
77328NA+    NA+45746  16.758  14.199   4.257
77329NA+    NA+45747   9.867   9.291  11.436
77330NA+    NA+45748   6.296  44.816   2.216
77331NA+    NA+45749  26.666  32.513   3.820
77332NA+    NA+45750  31.498  27.946   4.749
77333NA+    NA+45751  40.398  40.882  14.339
77334NA+    NA+45752  23.635  13.251   0.462
77335NA+    NA+45753  28.484   1.768   2.815
77336NA+    NA+45754  26.563  14.764  11.494
77337NA+    NA+45755  34.068  26.020   0.947
77338NA+    NA+45756   1.445   3.891  12.899
77339NA+    NA+45757  24.134   0.341  13.389
77340NA+    NA+45758  28.076  42.932  11.452
77341NA+    NA+45759   4.320  25.181   0.453
77342NA+    NA+45760  29.008  18.135   1.836
77343NA+    NA+45761   3.383  36.558  14.434
77344NA+    NA+45762   5.432   7.248   1.215
77345NA+    NA+45763   2.857   4.279  14.500
77346NA+    NA+45764  27.455   7.889   2.204
77347NA+    NA+45765  15.660  24.007   2.215
77348NA+    NA+45766  38.823  23.515  12.084
77349NA+    NA+45767  24.515   6.914   4.723
77350NA+    NA+45768  31.994  11.254   0.765
77351NA+    NA+45769  14.770  44.357  13.463
77352NA+    NA+45770  43.311  37.474   2.838
77353NA+    NA+45771  43.492  18.647   0.769
77354NA+    NA+45772  11.134   4.270  12.963
77355NA+    NA+45773  14.271  42.392  11.502
77356NA+    NA+45774  30.033  23.179   1.414
77357NA+    NA+45775   8.787  44.897  13.959
77358NA+    NA+45776   7.888  24.079  10.568
77359NA+    NA+45777  12.228  32.533  12.079
77360NA+    NA+45778  12.265  35.050  11.578
77361NA+    NA+45779  20.737  12.803  10.078
77362NA+    NA+45780   3.879  15.786   2.305
77363NA+    NA+45781  42.336  38.879  13.455
77364NA+    NA+45782  14.611   4.232  11.991
77365NA+    NA+45783  24.654   5.690   0.327
77366NA+    NA+45784  43.802  13.647   0.942
77367NA+    NA+45785  28.681  35.393   2.738
77368NA+    NA+45786  14.801  20.528   3.373
77369NA+    NA+45787  27.523  23.135  11.477
77370NA+    NA+45788  28.497   0.364  11.887
77371NA+    NA+45789  15.249  42.303   0.387
77372NA+    NA+45790  11.200   8.757   1.765
77373NA+    NA+45791  10.695  44.932   4.781
77374NA+    NA+45792  14.240   6.408   5.154
77375NA+    NA+45793  42.872  10.671  11.964
77376NA+    NA+45794   9.375  22.117   0.806
77377NA+    NA+45795   2.341  28.648   0.872
77378NA+    NA+45796  24.519  42.524   3.636
77379NA+    NA+45797   7.754  28.475  10.441
77380NA+    NA+45798  14.794  39.364  11.590
77381NA+    NA+45799  35.981  35.108  12.086
77382NA+    NA+45800  16.643  25.178   1.807
77383NA+    NA+45801  40.339  36.954   4.724
77384NA+    NA+45802  25.128  35.864   4.267
77385NA+    NA+45803  15.083   9.360  12.915
77386NA+    NA+45804   6.903  33.881   0.267
77387NA+    NA+45805  30.657   4.204  11.477
77388NA+    NA+45806   1.358  19.728  14.465
77389NA+    NA+45807  44.843  19.146  11.394
77390NA+    NA+45808  19.752  34.515  13.330
77391NA+    NA+45809  37.556  23.140   4.258
77392NA+    NA+45810   5.827  37.988  11.386
77393NA+    NA+45811  37.910  27.502  13.496
77394NA+    NA+45812  29.450  29.652   4.613
77395NA+    NA+45813  18.290  18.160  13.493
77396NA+    NA+45814  32.527  20.529  10.506
77397NA+    NA+45815   1.238  29.558   4.781
77398NA+    NA+45816  25.027   0.916   0.887
77399NA+    NA+45817  31.935  25.663  14.815
77400NA+    NA+45818  42.030  34.906  13.533
77401NA+    NA+45819   3.295  11.338   2.755
77402NA+    NA+45820  32.007   3.780   0.327
77403NA+    NA+45821  21.256  41.002   2.690
77404NA+    NA+45822  29.518   3.840   4.235
77405NA+    NA+45823  38.015  25.984   3.827
77406NA+    NA+45824  23.221  32.478  13.970
77407NA+    NA+45825  28.096  31.071   2.284
77408NA+    NA+45826  41.904  12.155   3.230
77409NA+    NA+45827  29.977  26.613  13.484
77410NA+    NA+45828  42.825  42.394  14.023
77411NA+    NA+45829  13.185  31.986   2.835
77412NA+    NA+45830   5.932  10.169  14.925
77413NA+    NA+45831  24.556  36.040   0.346
77414NA+    NA+45832  19.088  31.922  12.870
77415NA+    NA+45833  32.617  21.522   2.699
77416NA+    NA+45834   1.937  29.505   2.189
77417NA+    NA+45835  26.196  11.656  13.542
77418NA+    NA+45836   0.366  15.149   3.819
77419NA+    NA+45837  29.173  11.282  11.104
77420NA+    NA+45838  34.061  34.491  14.447
77421NA+    NA+45839  35.601  32.983  11.546
77422NA+    NA+45840  23.116  17.129   1.912
77423NA+    NA+45841  36.037   7.278  10.522
77424NA+    NA+45842  12.191  31.646  13.884
77425NA+    NA+45843   9.390  41.329   4.162
77426NA+    NA+45844  14.722  28.535   0.931
77427NA+    NA+45845  35.380  32.025   0.822
77428NA+    NA+45846   7.378  17.656  14.300
77429NA+    NA+45847  15.249  17.562   1.342
77430NA+    NA+45848  12.619  36.076  11.049
77431NA+    NA+45849  11.204  41.326   1.337
77432NA+    NA+45850  13.262  42.016   2.725
77433NA+    NA+45851  18.183  12.793   5.160
77434NA+    NA+45852  31.421  13.698   3.695
77435NA+    NA+45853  33.040  24.017   1.359
77436NA+    NA+45854  33.460  12.290  10.579
77437NA+    NA+45855  23.515  36.869   0.873
77438NA+    NA+45856  40.477   6.751  14.373
77439NA+    NA+45857  35.365   6.335   3.779
77440NA+    NA+45858  35.537  19.245  12.844
77441NA+    NA+45859  34.378  10.815  10.536
77442NA+    NA+45860  15.600   1.253   0.277
77443NA+    NA+45861  38.894  18.122  14.887
77444NA+    NA+45862  24.705  12.225   4.694
77445NA+    NA+45863  37.346  37.871  12.425
77446NA+    NA+45864  36.366   9.242   1.921
77447NA+    NA+45865  14.267  34.057  12.340
77448NA+    NA+45866  26.701  17.255   2.699
77449NA+    NA+45867  13.329  42.032   1.246
77450NA+    NA+45868   4.308   3.816  14.851
77451NA+    NA+45869  42.498  21.661   3.652
77452NA+    NA+45870  31.507  35.401  13.887
77453NA+    NA+45871  36.529   0.326  13.507
77454NA+    NA+45872  24.539  38.965  12.027
77455NA+    NA+45873  15.649  35.970   9.983
77456NA+    NA+45874  27.655  32.632   0.367
77457NA+    NA+45875  26.161   6.905  12.455
77458NA+    NA+45876  38.994   5.201  12.045
77459NA+    NA+45877  28.116   2.466  13.454
77460NA+    NA+45878   0.263   8.794   0.428
77461NA+    NA+45879  14.148  43.770  10.906
77462NA+    NA+45880  35.570  22.675  13.010
77463NA+    NA+45881  30.950  38.884   3.755
77464NA+    NA+45882   4.298  27.461   1.219
77465NA+    NA+45883   7.413  22.531   2.782
77466NA+    NA+45884  41.364  16.610   0.380
77467NA+    NA+45885  42.851   2.452   0.808
77468NA+    NA+45886  34.921  17.219  14.912
77469NA+    NA+45887   9.809  29.961  13.034
77470NA+    NA+45888  41.465  30.556   4.693
77471NA+    NA+45889  44.973  41.884   1.785
77472NA+    NA+45890  23.150   2.846  14.832
77473NA+    NA+45891  12.655  25.611   1.731
77474NA+    NA+45892   7.767   1.346  14.824
77475NA+    NA+45893  21.112  15.821   0.924
77476NA+    NA+45894   3.727  36.486   2.356
77477NA+    NA+45895   4.269  42.918  11.865
77478NA+    NA+45896  19.193  39.837  12.377
77479NA+    NA+45897  18.659   3.435  12.542
77480NA+    NA+45898  38.470  14.234  14.287
77481NA+    NA+45899  22.631  21.524  14.478
77482NA+    NA+45900  15.632  27.993  11.894
77483NA+    NA+45901   1.477  27.084  14.411
77484NA+    NA+45902  33.922  37.867  10.485
77485NA+    NA+45903  14.292   7.332   4.312
77486NA+    NA+45904  34.586  23.175   1.801
77487NA+    NA+45905  17.663  28.040  14.278
77488NA+    NA+45906  14.192  19.164   4.189
77489NA+    NA+45907  41.913   7.208  14.482
77490NA+    NA+45908  36.845  30.018   0.748
77491NA+    NA+45909   6.859  26.179   0.735
77492NA+    NA+45910  32.931  17.788   4.251
77493NA+    NA+45911  10.293  10.715   0.284
77494NA+    NA+45912  33.521   7.226   0.883
77495NA+    NA+45913  27.095  26.001   0.385
77496NA+    NA+45914  38.049  19.596   2.365
77497NA+    NA+45915  39.985  28.548  14.956
77498NA+    NA+45916  42.912  31.573   4.679
77499NA+    NA+45917  29.494   3.407  10.976
77500NA+    NA+45918   1.319   5.782   1.432
77501NA+    NA+45919  40.965  20.532  14.377
77502NA+    NA+45920  12.674  38.553   2.769
77503NA+    NA+45921  13.703   5.417  12.994
77504NA+    NA+45922  40.922  28.078   3.241
77505NA+    NA+45923  31.457   8.670  14.347
77506NA+    NA+45924  11.216  13.310   4.125
77507NA+    NA+45925  33.123  41.390  12.513
77508NA+    NA+45926  23.045   6.867   4.217
77509NA+    NA+45927  19.088  18.226  13.909
77510NA+    NA+45928  22.052  15.167  12.856
77511NA+    NA+45929  12.792  22.231   1.734
77512NA+    NA+45930  27.637  23.986   2.352
77513NA+    NA+45931  27.481   1.467  10.491
77514NA+    NA+45932   4.363  11.136   0.757
77515NA+    NA+45933   9.773  26.547   1.899
77516NA+    NA+45934  30.604  40.535  13.535
77517NA+    NA+45935  43.955  25.965   4.188
77518NA+    NA+45936  30.603   6.843   4.272
77519NA+    NA+45937  21.741  26.701  14.914
77520NA+    NA+45938  13.692  21.681   3.720
77521NA+    NA+45939  43.893  15.321  11.575
77522NA+    NA+45940  14.259   1.815  12.372
77523NA+    NA+45941  42.440  41.360   2.196
77524NA+    NA+45942  24.209  44.381  14.375
77525NA+    NA+45943  29.649  24.686  13.030
77526NA+    NA+45944  43.986  36.087   0.751
77527NA+    NA+45945  32.074  33.563  10.890
77528NA+    NA+45946  26.960   6.407  14.820
77529NA+    NA+45947  19.106  32.512   4.131
77530NA+    NA+45948  36.359  30.445   1.758
77531NA+    NA+45949  33.434  20.735  13.988
77532NA+    NA+45950   4.249  44.428   4.346
77533NA+    NA+45951  17.745   1.430  14.342
77534NA+    NA+45952   7.847  31.927  11.994
77535NA+    NA+45953  44.320   2.337   0.358
77536NA+    NA+45954  21.533  19.702   4.746
77537NA+    NA+45955  33.411  37.936  13.506
77538NA+    NA+45956  31.489  44.284  14.315
77539NA+    NA+45957   2.852   4.718  12.392
77540NA+    NA+45958  42.781  32.138   5.211
77541NA+    NA+45959  11.241   4.913  11.947
77542NA+    NA+45960  16.575  12.312  14.418
77543NA+    NA+45961  41.988  11.312   2.288
77544NA+    NA+45962  35.502  15.085   2.741
77545NA+    NA+45963  10.174  27.543  12.859
77546NA+    NA+45964   6.414  22.569  11.411
77547NA+    NA+45965  32.429  40.991  13.379
77548NA+    NA+45966  43.826  36.857   3.771
77549NA+    NA+45967  13.694  42.496  13.424
77550NA+    NA+45968  25.686  37.407  11.586
77551NA+    NA+45969  17.118   1.380  13.403
77552NA+    NA+45970  14.657  20.587   2.368
77553NA+    NA+45971  29.603  30.638  10.482
77554NA+    NA+45972  19.622  26.483   4.314
77555NA+    NA+45973  10.874  32.445   3.653
77556NA+    NA+45974  39.031  10.694   4.254
77557NA+    NA+45975  26.074   0.961   4.179
77558NA+    NA+45976  22.644  25.971  11.442
77559NA+    NA+45977   9.678  14.149  11.965
77560NA+    NA+45978  31.137  39.478  13.873
77561NA+    NA+45979  42.940  16.222  12.014
77562NA+    NA+45980  25.016   9.394   4.804
77563NA+    NA+45981  28.675  41.914  14.475
77564NA+    NA+45982  24.709  12.660   2.720
77565NA+    NA+45983   1.970  15.224   0.899
77566NA+    NA+45984  35.063  18.147  14.951
77567NA+    NA+45985  19.667  35.944  13.927
77568NA+    NA+45986  17.721  36.522   0.269
77569NA+    NA+45987  40.401  26.695   5.246
77570NA+    NA+45988  23.023  13.213   3.644
77571NA+    NA+45989   1.451  42.349  10.961
77572NA+    NA+45990   3.270  23.108   2.260
77573NA+    NA+45991  40.499  29.935   1.726
77574NA+    NA+45992   9.276  37.988  13.348
77575NA+    NA+45993  25.125  41.362  13.028
77576NA+    NA+45994  32.953   6.394   4.312
77577NA+    NA+45995  35.866  18.077  10.558
77578NA+    NA+45996  19.762   8.318  12.985
77579NA+    NA+45997  30.144  33.522   0.304
77580NA+    NA+45998  39.492   9.881  13.930
77581NA+    NA+45999  21.518  31.023  14.464
77582NA+    NA+46000  20.649  20.134   2.843
77583NA+    NA+46001  36.856   6.911   4.134
77584NA+    NA+46002   2.256  43.916  12.029
77585NA+    NA+46003  43.397  39.826   3.679
77586NA+    NA+46004  11.348  25.564  13.368
77587NA+    NA+46005  17.558  30.595   2.887
77588NA+    NA+46006   7.330  27.485  11.036
77589NA+    NA+46007  37.520   6.728   4.744
77590NA+    NA+46008  17.743  16.806   2.399
77591NA+    NA+46009  10.808   7.735  13.031
77592NA+    NA+46010  26.699  36.029  14.966
77593NA+    NA+46011  26.681   8.754  13.353
77594NA+    NA+46012  43.020  43.376  14.776
77595NA+    NA+46013   9.718  26.628  11.029
77596NA+    NA+46014  27.459   6.391  14.865
77597NA+    NA+46015  14.252  25.496   4.271
77598NA+    NA+46016  11.131  24.094   3.830
77599NA+    NA+46017  31.542  18.071   2.323
77600NA+    NA+46018  23.537   4.309  11.908
77601NA+    NA+46019  44.816   3.920   3.282
77602NA+    NA+46020  29.020  14.619   2.825
77603NA+    NA+46021   6.841   9.834   1.325
77604NA+    NA+46022  29.056  35.430  14.505
77605NA+    NA+46023  38.922   6.197  14.422
77606NA+    NA+46024  19.567  30.061  14.973
77607NA+    NA+46025  10.647  34.561  13.795
77608NA+    NA+46026  32.014   4.404   4.648
77609NA+    NA+46027  12.806  23.625   4.724
77610NA+    NA+46028  15.108   2.264   0.483
77611NA+    NA+46029  14.684  38.869  10.048
77612NA+    NA+46030  25.147  26.201   3.653
77613NA+    NA+46031  11.654  28.168   4.142
77614NA+    NA+46032  12.287  23.492  11.862
77615NA+    NA+46033  41.000  39.348   1.907
77616NA+    NA+46034   4.830  35.977  14.769
77617NA+    NA+46035  16.160  10.152  13.938
77618NA+    NA+46036  26.481  15.229   4.173
77619NA+    NA+46037  36.574  32.928  14.824
77620NA+    NA+46038  28.067   9.322  11.094
77621NA+    NA+46039   8.888   7.342  11.110
77622NA+    NA+46040  28.536  18.600   0.443
77623NA+    NA+46041  32.080  13.172   3.240
77624NA+    NA+46042  25.505   2.830   3.849
77625NA+    NA+46043  41.340  24.541   0.838
77626NA+    NA+46044  32.571  24.661   2.349
77627NA+    NA+46045  29.168   3.285  11.458
77628NA+    NA+46046  44.935  10.274   2.203
77629NA+    NA+46047  34.384  11.151   3.196
77630NA+    NA+46048   8.792  10.767  11.984
77631NA+    NA+46049  20.106  42.929  14.939
77632NA+    NA+46050  36.089  29.633  13.902
77633NA+    NA+46051  19.091  34.379   1.350
77634NA+    NA+46052   7.278  32.440  10.561
77635NA+    NA+46053   1.905  11.317   0.734
77636NA+    NA+46054  32.074   2.231   2.266
77637NA+    NA+46055  35.575   7.360  14.940
77638NA+    NA+46056   8.267  12.360  14.329
77639NA+    NA+46057  11.657  18.053  11.072
77640NA+    NA+46058  39.350  17.124   1.415
77641NA+    NA+46059  13.699  32.427   4.236
77642NA+    NA+46060  17.276  15.113   2.265
77643NA+    NA+46061  36.944  15.621   2.864
77644NA+    NA+46062   4.277  21.070  13.051
77645NA+    NA+46063  22.732  31.065  13.814
77646NA+    NA+46064  12.309  27.659  14.021
77647NA+    NA+46065  29.992  15.737   3.759
77648NA+    NA+46066  34.105  36.484   0.956
77649NA+    NA+46067   3.245  11.642   1.810
77650NA+    NA+46068  16.311  27.018  13.390
77651NA+    NA+46069   9.250   8.311   3.745
77652NA+    NA+46070  33.080  35.941  10.559
77653NA+    NA+46071  33.570  22.552   9.920
77654NA+    NA+46072  30.568  41.930   4.783
77655NA+    NA+46073  17.711   2.234   1.879
77656NA+    NA+46074  44.979   5.846   0.392
77657NA+    NA+46075  17.641  21.144  12.567
77658NA+    NA+46076  44.957  27.584  14.973
77659NA+    NA+46077  35.415   2.228   0.355
77660NA+    NA+46078  42.395  35.420  13.504
77661NA+    NA+46079  34.988  10.780  13.344
77662NA+    NA+46080  26.540   8.255   1.812
77663NA+    NA+46081  35.448   5.216   3.291
77664NA+    NA+46082  29.920  10.740  12.407
77665NA+    NA+46083  25.088   4.284  14.285
77666NA+    NA+46084  38.926  35.920  12.840
77667NA+    NA+46085  41.322  20.596   0.252
77668NA+    NA+46086   6.203  11.340  12.441
77669NA+    NA+46087  28.618  22.691  14.314
77670NA+    NA+46088  30.123  12.208  14.475
77671NA+    NA+46089   2.311   0.309   4.707
77672NA+    NA+46090  31.402   7.759  14.951
77673NA+    NA+46091  14.759  18.217  13.972
77674NA+    NA+46092  12.290  30.114  14.408
77675NA+    NA+46093  29.670  29.001   4.120
77676NA+    NA+46094  41.897  29.577  11.937
77677NA+    NA+46095   8.720   1.774  14.364
77678NA+    NA+46096  25.092  12.722   0.913
77679NA+    NA+46097  12.261  43.467   3.747
77680NA+    NA+46098  33.500  36.973   0.291
77681NA+    NA+46099  12.775  33.597  13.385
77682NA+    NA+46100  18.272  14.652   3.170
77683NA+    NA+46101  28.446   0.854  12.427
77684NA+    NA+46102  11.217   5.922   0.841
77685NA+    NA+46103  37.541  15.632   2.235
77686NA+    NA+46104  33.094  22.547   2.284
77687NA+    NA+46105  27.580  40.389  11.374
77688NA+    NA+46106  42.810  29.640   2.213
77689NA+    NA+46107   1.412  25.095   3.738
77690NA+    NA+46108   2.807  10.878  13.417
77691NA+    NA+46109  37.023   0.374  14.975
77692NA+    NA+46110  26.042  39.895   2.278
77693NA+    NA+46111  19.233  10.311   0.334
77694NA+    NA+46112  32.060  36.489   2.750
77695NA+    NA+46113  35.475  26.528  11.010
77696NA+    NA+46114  21.533  27.120  14.416
77697NA+    NA+46115  44.281   6.419   9.957
77698NA+    NA+46116   8.861  12.186   4.802
77699NA+    NA+46117  33.537  38.916   0.252
77700NA+    NA+46118   7.762  41.971   3.835
77701NA+    NA+46119  26.067  16.094   3.333
77702NA+    NA+46120   4.782  10.378   2.226
77703NA+    NA+46121  26.550  25.116  14.879
77704NA+    NA+46122  40.946  15.707   1.252
77705NA+    NA+46123  41.039  15.184   2.326
77706NA+    NA+46124  44.465  41.440  12.443
77707NA+    NA+46125  26.494  29.565   3.725
77708NA+    NA+46126  24.677  32.446  13.408
77709NA+    NA+46127  33.033  25.204  11.065
77710NA+    NA+46128  12.675   9.697  14.315
77711NA+    NA+46129  15.730  14.180   4.228
77712NA+    NA+46130   9.337   7.186   2.234
77713NA+    NA+46131  28.501  33.966  11.054
77714NA+    NA+46132  31.973  12.263  12.579
77715NA+    NA+46133   5.879  17.286  12.365
77716NA+    NA+46134  19.588  23.137   0.902
77717NA+    NA+46135  22.995  18.638   1.267
77718NA+    NA+46136  17.668  20.697  11.865
77719NA+    NA+46137  12.324  14.700   0.875
77720NA+    NA+46138  22.113   2.745   4.738
77721NA+    NA+46139   3.760   6.730   2.193
77722NA+    NA+46140   8.752  28.062   0.313
77723NA+    NA+46141  10.368  23.007  11.497
77724NA+    NA+46142   4.222  29.954  13.399
77725NA+    NA+46143   5.432  22.205  10.947
77726NA+    NA+46144  18.628  26.156   2.249
77727NA+    NA+46145  29.948  27.972  13.354
77728NA+    NA+46146  31.062  32.633  10.919
77729NA+    NA+46147  24.624  40.497   5.276
77730NA+    NA+46148   0.269  27.014   0.351
77731NA+    NA+46149   8.865  22.194   1.309
77732NA+    NA+46150   9.694   9.355  13.470
77733NA+    NA+46151  22.102  27.019  13.883
77734NA+    NA+46152  33.533   3.905  12.409
77735NA+    NA+46153  27.988  28.605   0.899
77736NA+    NA+46154   5.741   9.240   4.310
77737NA+    NA+46155  14.771  39.409   1.856
77738NA+    NA+46156  32.077  23.204  14.960
77739NA+    NA+46157   3.349  25.486   0.343
77740NA+    NA+46158  27.026  19.648  13.506
77741NA+    NA+46159  42.996  23.622   9.983
77742NA+    NA+46160  36.547  26.500  14.322
77743NA+    NA+46161  12.250  25.132  11.476
77744NA+    NA+46162   3.260  44.897   4.132
77745NA+    NA+46163   9.717  36.501   3.232
77746NA+    NA+46164   6.357  41.955  10.462
77747NA+    NA+46165   9.328  11.788  12.923
77748NA+    NA+46166  11.633   8.759   1.871
77749NA+    NA+46167  21.697  17.210  10.585
77750NA+    NA+46168   4.336  24.997  12.885
77751NA+    NA+46169  20.629  40.505  10.444
77752NA+    NA+46170  22.583   4.873   5.192
77753NA+    NA+46171  32.917   5.317  10.960
77754NA+    NA+46172  26.981  44.916  14.284
77755NA+    NA+46173  17.618  36.970   0.287
77756NA+    NA+46174  30.073   4.439   3.840
77757NA+    NA+46175  22.037  39.878  12.567
77758NA+    NA+46176  19.680  26.685   1.242
77759NA+    NA+46177   2.793  22.043   5.176
77760NA+    NA+46178  43.943   0.487   2.787
77761NA+    NA+46179  21.529  27.949   0.390
77762NA+    NA+46180  33.921   9.763  14.480
77763NA+    NA+46181   9.871   2.796  11.560
77764NA+    NA+46182   2.372  31.497   3.247
77765NA+    NA+46183  20.666   7.730  12.826
77766NA+    NA+46184   1.912  33.607   0.759
77767NA+    NA+46185  30.099  34.930  13.831
77768NA+    NA+46186  32.114  37.982   3.172
77769NA+    NA+46187   2.450   1.475  10.480
77770NA+    NA+46188  43.792  26.631  12.947
77771NA+    NA+46189  18.766  23.658   1.385
77772NA+    NA+46190  38.461  33.956   2.306
77773NA+    NA+46191  42.882  18.759  11.989
77774NA+    NA+46192  23.232  44.434   4.633
77775NA+    NA+46193  21.190  38.388   9.980
77776NA+    NA+46194  42.831  11.310  11.453
77777NA+    NA+46195  33.607  16.312  11.558
77778NA+    NA+46196  11.318   5.368  12.069
77779NA+    NA+46197  39.539   8.245   3.180
77780NA+    NA+46198  25.124   1.737  10.511
77781NA+    NA+46199  25.059  37.030   3.150
77782NA+    NA+46200  19.690  37.420   0.448
77783NA+    NA+46201   8.232  21.208  10.986
77784NA+    NA+46202   6.385  43.819   0.964
77785NA+    NA+46203  23.183  34.111  10.962
77786NA+    NA+46204   3.345  37.435  14.846
77787NA+    NA+46205  30.416  19.667  14.975
77788NA+    NA+46206  17.221   0.862  10.620
77789NA+    NA+46207   7.726   1.889   4.630
77790NA+    NA+46208   6.227  34.045  11.074
77791NA+    NA+46209  13.811  41.037   2.256
77792NA+    NA+46210   4.921  14.738  12.038
77793NA+    NA+46211   7.676  30.549   1.222
77794NA+    NA+46212  33.442  24.682  12.421
77795NA+    NA+46213  16.083  41.517   4.608
77796NA+    NA+46214  13.152  18.595   1.746
77797NA+    NA+46215  36.511  21.164   3.649
77798NA+    NA+46216  17.690  42.819  12.011
77799NA+    NA+46217  18.079  27.078  14.305
77800NA+    NA+46218  39.062  26.973  13.399
77801NA+    NA+46219  11.345  16.712   1.295
77802NA+    NA+46220  18.716  34.052  11.431
77803NA+    NA+46221  41.461  44.793  11.427
77804NA+    NA+46222  21.657   1.736  10.928
77805NA+    NA+46223  31.592   5.230   3.297
77806NA+    NA+46224  34.940   4.415  11.119
77807NA+    NA+46225  37.913  44.959  11.526
77808NA+    NA+46226  25.964  34.458  10.602
77809NA+    NA+46227  44.902  40.046  13.905
77810NA+    NA+46228  21.022  18.594   2.196
77811NA+    NA+46229   9.212  39.487   3.275
77812NA+    NA+46230  20.120  10.772   1.333
77813NA+    NA+46231  35.411  40.951  14.934
77814NA+    NA+46232  23.604   2.252  14.799
77815NA+    NA+46233  19.103  20.148  13.874
77816NA+    NA+46234  39.927  36.521   4.297
77817NA+    NA+46235  44.300  35.070  12.373
77818NA+    NA+46236  17.558  23.125  10.431
77819NA+    NA+46237  41.360  12.360  10.518
77820NA+    NA+46238  24.576  42.810   4.655
77821NA+    NA+46239  35.559  36.042  13.426
77822NA+    NA+46240  20.595  27.182   2.190
77823NA+    NA+46241   2.345  22.559   9.997
77824NA+    NA+46242   6.720  17.114   0.872
77825NA+    NA+46243  30.502  40.461   0.256
77826NA+    NA+46244  29.543  31.101   2.774
77827NA+    NA+46245   4.896   1.401   0.468
77828NA+    NA+46246  14.753   7.393   2.769
77829NA+    NA+46247  25.477  14.818   3.667
77830NA+    NA+46248   1.375  13.765  12.390
77831NA+    NA+46249  12.655  42.350   4.811
77832NA+    NA+46250  44.813  24.061   2.840
77833NA+    NA+46251  43.412   3.858  12.948
77834NA+    NA+46252  26.075   7.760  14.418
77835NA+    NA+46253  25.565  15.303  13.434
77836NA+    NA+46254  44.325  40.926   2.739
77837NA+    NA+46255   6.761   7.853  13.823
77838NA+    NA+46256  30.506  34.935  12.434
77839NA+    NA+46257  12.792  27.086  14.474
77840NA+    NA+46258  43.835  31.457   4.307
77841NA+    NA+46259  16.266   9.837  11.507
77842NA+    NA+46260  22.153  34.529  10.626
77843NA+    NA+46261  21.666  32.934   3.803
77844NA+    NA+46262  26.202  32.113  13.407
77845NA+    NA+46263  18.555  26.064  11.414
77846CL-    CL-46264  26.993  15.708   4.639
77847CL-    CL-46265  42.016  26.663   2.884
77848CL-    CL-46266  42.395  31.023   3.193
77849CL-    CL-46267  29.958  11.303  14.808
77850CL-    CL-46268  14.210  38.534  11.987
77851CL-    CL-46269  19.575  22.209   3.701
77852CL-    CL-46270  11.671  37.465   3.691
77853CL-    CL-46271   3.889  30.455  11.601
77854CL-    CL-46272  39.864   0.854   4.216
77855CL-    CL-46273  26.677  23.714  13.377
77856CL-    CL-46274  34.497  16.744  13.324
77857CL-    CL-46275   4.732  37.071   1.224
77858CL-    CL-46276  17.629  16.689   0.887
77859CL-    CL-46277  20.642   5.767  12.938
77860CL-    CL-46278  10.657   8.898   3.270
77861CL-    CL-46279  36.896   4.718   3.191
77862CL-    CL-46280  15.253   7.199   4.258
77863CL-    CL-46281  28.969  36.568   1.311
77864CL-    CL-46282  30.612  21.151   1.428
77865CL-    CL-46283  12.805  43.493   4.710
77866CL-    CL-46284  40.392   5.832   1.740
77867CL-    CL-46285  44.944   2.928  11.480
77868CL-    CL-46286   2.835   4.424   0.278
77869CL-    CL-46287  43.372   2.356   3.637
77870CL-    CL-46288  28.986  10.755   3.196
77871CL-    CL-46289  28.077  16.569   4.301
77872CL-    CL-46290  14.778  30.623   0.408
77873CL-    CL-46291  17.219  25.039   0.451
77874CL-    CL-46292  21.098   1.483  11.463
77875CL-    CL-46293  23.181  19.041  13.905
77876CL-    CL-46294  41.519  41.814   3.855
77877CL-    CL-46295   5.340   8.886  12.410
77878CL-    CL-46296  31.454  41.347   4.329
77879CL-    CL-46297  25.563  37.901  14.815
77880CL-    CL-46298  44.350   1.329   0.470
77881CL-    CL-46299  36.443  17.294   1.829
77882CL-    CL-46300  26.173  42.953   2.335
77883CL-    CL-46301  13.817  27.566   2.787
77884CL-    CL-46302  16.298   7.397   4.744
77885CL-    CL-46303   2.272  37.909   2.388
77886CL-    CL-46304  13.612  32.030   1.298
77887CL-    CL-46305  39.964  30.555  10.592
77888CL-    CL-46306   8.160   9.877  13.888
77889CL-    CL-46307   3.450  37.476   0.255
77890CL-    CL-46308   7.871  18.572  12.000
77891CL-    CL-46309  11.139  36.517  10.404
77892CL-    CL-46310   4.815   5.707   0.888
77893CL-    CL-46311  32.970  19.076  14.326
77894CL-    CL-46312  28.978  39.407   0.402
77895CL-    CL-46313  25.485  15.585  13.418
77896CL-    CL-46314  36.370  21.196   1.756
77897CL-    CL-46315  42.924  42.868  11.054
77898CL-    CL-46316  36.946  26.077  12.073
77899CL-    CL-46317  20.097  44.365  13.988
77900CL-    CL-46318   1.859   2.355  14.889
77901CL-    CL-46319   5.924  40.457  13.992
77902CL-    CL-46320  29.479   7.409  11.565
77903CL-    CL-46321  22.710  17.776  14.818
77904CL-    CL-46322   1.457  37.567  11.923
77905CL-    CL-46323  21.017  36.565   3.301
77906CL-    CL-46324  27.606  33.997  14.860
77907CL-    CL-46325  21.544  33.430  11.031
77908CL-    CL-46326  20.652  31.456  11.451
77909CL-    CL-46327  15.190  28.606  11.876
77910CL-    CL-46328  27.187  20.099  13.427
77911CL-    CL-46329  44.498  21.697  14.276
77912CL-    CL-46330  11.326  19.565  12.531
77913CL-    CL-46331   7.361  40.524  14.391
77914CL-    CL-46332   2.741  35.896   2.834
77915CL-    CL-46333  43.511  19.268   3.299
77916CL-    CL-46334  27.021  32.546  14.840
77917CL-    CL-46335   6.212  25.142  11.606
77918CL-    CL-46336   5.765  32.483   3.334
77919CL-    CL-46337  22.543  26.035   4.651
77920CL-    CL-46338   0.768  33.902   2.383
77921CL-    CL-46339  41.409  25.020   2.186
77922CL-    CL-46340  42.017  18.597  10.462
77923CL-    CL-46341   9.876  30.544   4.296
77924CL-    CL-46342  44.944  22.025   1.888
77925CL-    CL-46343  43.017  29.627  11.465
77926CL-    CL-46344  10.233  33.116  11.388
77927CL-    CL-46345  10.219  16.300   1.702
77928CL-    CL-46346  31.022  31.622  14.312
77929CL-    CL-46347  30.006  24.513   1.831
77930CL-    CL-46348  16.280  34.984  12.551
77931CL-    CL-46349  44.965  26.564   3.674
77932CL-    CL-46350  10.718  44.296  12.844
77933CL-    CL-46351   3.389   9.384  13.414
77934CL-    CL-46352   0.965  26.985  13.961
77935CL-    CL-46353   6.739   5.255   3.632
77936CL-    CL-46354  18.659   4.212   3.188
77937CL-    CL-46355  43.343  10.732  12.474
77938CL-    CL-46356   6.756  37.991  11.020
77939CL-    CL-46357   4.841  38.408  14.304
77940CL-    CL-46358  33.107  16.217   0.250
77941CL-    CL-46359   1.401   6.322   1.706
77942CL-    CL-46360  15.671   4.720   3.145
77943CL-    CL-46361  35.083   3.717  11.089
77944CL-    CL-46362   5.894  37.863   0.391
77945CL-    CL-46363  25.028  33.504  12.828
77946CL-    CL-46364   7.685  44.418   1.803
77947CL-    CL-46365  36.447  27.644  13.864
77948CL-    CL-46366  35.896  23.614  11.965
77949CL-    CL-46367   6.397  40.015  10.546
77950CL-    CL-46368  33.381  43.465  12.370
77951CL-    CL-46369   4.293   6.902  10.610
77952CL-    CL-46370   3.804  44.310   2.370
77953CL-    CL-46371  17.790   0.271   4.803
77954CL-    CL-46372   5.733  29.941  14.444
77955CL-    CL-46373  27.588  30.923  12.519
77956CL-    CL-46374  32.902  31.923  10.561
77957CL-    CL-46375  35.989  12.144   3.662
77958CL-    CL-46376  34.105  14.824   3.382
77959CL-    CL-46377  31.520  32.605  10.579
77960CL-    CL-46378  33.091  38.065  12.380
77961CL-    CL-46379  14.660  23.237   1.272
77962CL-    CL-46380  32.936  18.097   0.911
77963CL-    CL-46381  36.538  19.138   4.804
77964CL-    CL-46382   7.292  44.304   4.226
77965CL-    CL-46383  40.487  20.685   3.737
77966CL-    CL-46384   4.328  29.667   3.339
77967CL-    CL-46385   7.807   9.838   1.699
77968CL-    CL-46386   4.722  29.500  11.568
77969CL-    CL-46387  15.677  23.530  13.006
77970CL-    CL-46388  21.681  33.995  11.519
77971CL-    CL-46389  20.260   1.264  10.952
77972CL-    CL-46390  23.608   6.795   1.372
77973CL-    CL-46391  21.725  44.470   3.205
77974CL-    CL-46392  17.685  41.841   2.776
77975CL-    CL-46393  10.194  10.280  10.579
77976CL-    CL-46394  43.445  23.643  14.350
77977CL-    CL-46395   7.262  10.824  13.435
77978CL-    CL-46396  20.765   9.194   3.256
77979CL-    CL-46397  44.891  20.190   1.435
77980CL-    CL-46398   5.858   4.248  11.919
77981CL-    CL-46399  24.677  11.740  12.028
77982CL-    CL-46400   3.854  24.079   4.661
77983CL-    CL-46401  25.154  33.998   3.641
77984CL-    CL-46402   8.321  36.585  14.030
77985CL-    CL-46403  13.166  19.212  12.579
77986CL-    CL-46404  35.083  40.882  11.987
77987CL-    CL-46405  33.968  31.609   4.317
77988CL-    CL-46406   2.733  38.013   4.804
77989CL-    CL-46407   4.231  35.453  13.982
77990CL-    CL-46408  30.936   3.752  14.796
77991CL-    CL-46409   3.403  27.455  13.927
77992CL-    CL-46410  37.872  20.524   4.159
77993CL-    CL-46411   1.955   0.889   0.808
77994CL-    CL-46412  13.729  10.319   3.339
77995CL-    CL-46413  12.217   5.725  11.435
77996CL-    CL-46414  15.582  43.992  13.025
77997CL-    CL-46415  32.961  32.087   2.854
77998CL-    CL-46416   5.903   7.197  12.577
77999CL-    CL-46417  10.769   8.746  10.503
78000CL-    CL-46418  10.698  37.863  12.381
78001CL-    CL-46419  34.475   2.920  13.931
78002CL-    CL-46420   4.723   7.674   1.214
78003CL-    CL-46421  34.037  34.058  11.936
78004CL-    CL-46422  43.799  14.598  12.574
78005CL-    CL-46423  18.186   7.892  13.836
78006CL-    CL-46424   4.768  39.022  12.564
78007CL-    CL-46425  42.329  30.501   4.183
78008CL-    CL-46426   5.917  41.299  14.777
78009CL-    CL-46427  21.567  10.662   1.699
78010CL-    CL-46428  18.696  17.227   0.248
78011CL-    CL-46429  32.557  19.745  10.579
78012CL-    CL-46430  10.382  30.070   3.273
78013CL-    CL-46431  28.575  31.451   0.293
78014CL-    CL-46432  32.476  36.428   2.200
78015CL-    CL-46433  25.123  10.722   2.710
78016CL-    CL-46434  13.190  24.568   4.264
78017CL-    CL-46435   1.801  40.889   4.717
78018CL-    CL-46436  17.266  40.477   3.287
78019CL-    CL-46437  10.138   7.312   2.895
78020CL-    CL-46438  31.409  13.740  10.608
78021CL-    CL-46439  14.773   7.339   2.301
78022CL-    CL-46440  19.248   9.211   0.860
78023CL-    CL-46441   9.190  14.287   1.436
78024CL-    CL-46442  25.095  12.181  10.974
78025CL-    CL-46443  23.729  18.648  13.954
78026CL-    CL-46444  30.492  15.268  12.504
78027CL-    CL-46445   2.470  42.811   5.178
78028CL-    CL-46446  33.496  43.781   1.356
78029CL-    CL-46447  38.943  23.196  11.493
78030CL-    CL-46448  23.500  15.603  14.420
78031CL-    CL-46449   7.758  36.570   3.157
78032CL-    CL-46450  32.490   0.337  10.467
78033CL-    CL-46451   3.804  20.629  13.819
78034CL-    CL-46452  27.183  35.957   3.204
78035CL-    CL-46453  19.057   6.891  11.072
78036CL-    CL-46454   9.800  20.216  10.433
78037CL-    CL-46455  30.558  36.387   5.156
78038CL-    CL-46456  15.130   5.897   0.949
78039CL-    CL-46457   2.889  13.743  12.416
78040CL-    CL-46458   9.150   4.377  14.377
78041CL-    CL-46459  22.636  41.309   9.974
78042CL-    CL-46460  32.591   5.300   2.778
78043CL-    CL-46461  26.020  24.585  11.915
78044CL-    CL-46462   6.330  28.118  14.994
78045CL-    CL-46463  39.953  37.509   0.393
78046CL-    CL-46464  36.960  43.319   3.828
78047CL-    CL-46465  22.162  18.546   3.744
78048CL-    CL-46466  12.276  17.304  13.886
78049CL-    CL-46467  11.185  22.504   1.872
78050CL-    CL-46468   2.449  34.916   4.675
78051CL-    CL-46469   3.235  20.063   3.307
78052CL-    CL-46470  16.657   6.212   9.469
78053CL-    CL-46471  20.683   1.834  11.471
78054CL-    CL-46472  12.730  38.032   3.783
78055CL-    CL-46473  31.120   3.874   1.698
78056CL-    CL-46474  29.013  37.022  12.848
78057CL-    CL-46475  42.897  17.111   4.683
78058CL-    CL-46476   6.334   0.805  14.963
78059CL-    CL-46477   1.330  15.265   0.263
78060CL-    CL-46478  25.170  32.991   4.767
78061CL-    CL-46479  31.998  11.824  14.419
78062CL-    CL-46480  26.573  16.595  12.570
78063CL-    CL-46481   2.883  20.685  10.937
78064CL-    CL-46482   1.390  15.642   2.365
78065CL-    CL-46483   1.821  17.675  12.496
78066CL-    CL-46484  29.669  35.516  12.028
78067CL-    CL-46485  32.077  38.470   3.690
78068CL-    CL-46486  30.974  35.492  13.827
78069CL-    CL-46487  34.543  19.763  13.538
78070CL-    CL-46488  30.635  25.195   2.829
78071CL-    CL-46489  21.655   5.283   1.862
78072CL-    CL-46490  36.526  31.902   1.722
78073CL-    CL-46491  15.214  33.389  13.340
78074CL-    CL-46492  29.072   5.703   0.737
78075CL-    CL-46493  13.216  21.706   1.378
78076CL-    CL-46494  33.117  36.573  12.528
78077CL-    CL-46495  23.527  41.969  11.127
78078CL-    CL-46496  30.475  26.603   0.276
78079CL-    CL-46497  32.043  29.582  12.830
78080CL-    CL-46498  36.096  44.878  13.976
78081CL-    CL-46499  11.671   3.715  12.417
78082CL-    CL-46500  14.250  25.637   2.848
78083CL-    CL-46501  21.529  43.334  12.502
78084CL-    CL-46502  32.074  22.559   4.221
78085CL-    CL-46503  16.760  30.549   0.461
78086CL-    CL-46504  41.946  14.613  11.538
78087CL-    CL-46505  14.684  31.955   5.124
78088CL-    CL-46506  38.006   4.799  11.430
78089CL-    CL-46507   5.718  24.132  11.970
78090CL-    CL-46508  24.231  19.279   1.230
78091CL-    CL-46509   4.758  21.588  13.346
78092CL-    CL-46510  23.127  14.811   2.381
78093CL-    CL-46511  21.647  13.224  12.900
78094CL-    CL-46512  33.522  42.826   0.818
78095CL-    CL-46513  11.248  21.146  13.007
78096CL-    CL-46514  28.093  19.689  14.783
78097CL-    CL-46515  43.791  18.692  13.900
78098CL-    CL-46516  42.444  39.486   0.746
78099CL-    CL-46517  21.089  26.466  13.953
78100CL-    CL-46518   7.845  41.816   0.858
78101CL-    CL-46519  23.624  23.197   0.355
78102CL-    CL-46520  20.760  42.971  13.879
78103CL-    CL-46521   7.414   3.800   1.380
78104CL-    CL-46522  14.747   2.434  11.068
78105CL-    CL-46523   2.280   9.364   4.114
78106CL-    CL-46524  38.031   2.385   2.760
78107CL-    CL-46525   2.309  14.736   1.705
78108CL-    CL-46526  30.917  15.139   0.808
78109CL-    CL-46527  24.135  17.703   0.302
78110CL-    CL-46528   7.818  42.283  11.584
78111CL-    CL-46529   1.746  16.161  10.902
78112CL-    CL-46530   5.262  31.981  14.313
78113CL-    CL-46531  42.374  16.700   0.771
78114CL-    CL-46532   4.840  33.910   1.325
78115CL-    CL-46533  32.514  42.863  12.415
78116CL-    CL-46534  24.630   0.878   4.279
78117CL-    CL-46535  20.643   2.745  10.486
78118CL-    CL-46536  21.102  19.185  13.410
78119CL-    CL-46537  39.932  14.657  11.080
78120CL-    CL-46538   8.165  27.566   1.828
78121CL-    CL-46539  44.830  14.666   3.657
78122CL-    CL-46540   3.434  39.387   4.273
78123CL-    CL-46541  41.336  42.446  12.564
78124CL-    CL-46542  19.743  14.677  12.075
78125CL-    CL-46543   8.809  37.490  11.957
78126CL-    CL-46544  11.136  42.503  13.885
78127CL-    CL-46545  17.731   7.302   1.281
78128CL-    CL-46546  15.167   7.668  10.943
78129CL-    CL-46547  14.338  38.371  11.481
78130CL-    CL-46548  32.946  26.961   3.262
78131CL-    CL-46549  31.404  26.127   1.694
78132CL-    CL-46550  35.855  29.143   1.222
78133CL-    CL-46551   8.664   6.881   0.378
78134CL-    CL-46552  36.426   2.240   4.676
78135CL-    CL-46553  18.105  36.438  11.046
78136CL-    CL-46554   5.925  22.588  11.003
78137CL-    CL-46555  36.029  34.067   2.341
78138CL-    CL-46556  38.899  26.005  10.430
78139CL-    CL-46557   4.762   2.740   1.743
78140CL-    CL-46558  13.344  21.564  13.028
78141CL-    CL-46559  44.813  44.277  14.843
78142CL-    CL-46560   3.291  36.846   4.170
78143CL-    CL-46561  26.982  26.702   2.807
78144CL-    CL-46562  43.789  27.689   2.680
78145CL-    CL-46563  26.120  13.320  14.899
78146CL-    CL-46564  44.011  26.636   3.651
78147CL-    CL-46565  44.273  32.894   0.424
78148CL-    CL-46566  12.202  26.522   0.304
78149CL-    CL-46567  26.535  19.684   0.452
78150CL-    CL-46568  16.278   6.269   0.279
78151CL-    CL-46569  22.569  14.327  11.959
78152CL-    CL-46570  38.053  26.143   2.339
78153CL-    CL-46571  41.457  12.323   4.646
78154CL-    CL-46572   4.306   7.387  11.435
78155CL-    CL-46573   3.854   4.806  11.502
78156CL-    CL-46574  25.661  35.049   2.666
78157CL-    CL-46575   6.222  17.228  14.480
78158CL-    CL-46576  15.284  41.353  14.327
78159CL-    CL-46577   7.749  12.672   3.219
78160CL-    CL-46578  43.921   2.421  14.996
78161CL-    CL-46579  27.657  30.090   0.826
78162CL-    CL-46580   9.352  15.635  13.885
78163CL-    CL-46581  21.650   5.787   4.651
78164CL-    CL-46582  15.134  23.102   1.911
78165CL-    CL-46583   3.250  31.996   4.274
78166CL-    CL-46584  33.923  14.817  14.507
78167CL-    CL-46585  37.962  31.637  13.912
78168CL-    CL-46586  31.991   8.376   4.173
78169CL-    CL-46587  13.616  41.310   1.269
78170CL-    CL-46588  22.663  15.225  13.521
78171CL-    CL-46589  11.226  28.492   4.140
78172CL-    CL-46590  22.215  20.210   0.322
78173CL-    CL-46591  44.472  34.100   4.265
78174CL-    CL-46592   4.422  16.714   2.710
78175CL-    CL-46593  11.787  14.243  12.830
78176CL-    CL-46594  37.999  23.733   1.845
78177CL-    CL-46595  10.686  40.444   1.777
78178CL-    CL-46596  27.127  43.497  13.803
78179CL-    CL-46597  21.100  26.064   3.254
78180CL-    CL-46598   7.860   7.859  12.459
78181CL-    CL-46599  40.848  43.348  12.882
78182CL-    CL-46600  40.989   5.751  13.855
78183CL-    CL-46601  32.524   1.828   5.103
78184CL-    CL-46602  20.675  40.816  14.401
78185CL-    CL-46603  17.684  32.006  13.874
78186CL-    CL-46604  20.122  15.758   2.883
78187CL-    CL-46605  15.642   1.341  12.884
78188CL-    CL-46606   2.753  19.267  13.437
78189CL-    CL-46607   7.260  17.152   0.878
78190CL-    CL-46608  40.330  12.709  13.906
78191CL-    CL-46609   6.730  18.655  13.413
78192CL-    CL-46610   4.799  10.376   3.197
78193CL-    CL-46611   6.698  17.714  11.876
78194CL-    CL-46612  27.089  22.527   1.757
78195CL-    CL-46613  30.920  28.471   2.765
78196CL-    CL-46614  25.106  36.040  14.847
78197CL-    CL-46615  24.132  33.592  13.821
78198CL-    CL-46616   7.701  30.622  14.792
78199CL-    CL-46617  37.361  10.718   0.875
78200CL-    CL-46618  29.466   2.856  11.920
78201CL-    CL-46619  31.026  39.885   4.131
78202CL-    CL-46620  26.075  41.018  14.015
78203CL-    CL-46621  30.021  38.000   4.764
78204CL-    CL-46622  18.191  33.480  11.550
78205CL-    CL-46623  25.654  34.918  11.565
78206CL-    CL-46624  12.777  35.078  13.391
78207CL-    CL-46625  15.227  35.865   1.697
78208CL-    CL-46626  39.392  14.139  12.359
78209CL-    CL-46627  15.170   0.874  10.642
78210CL-    CL-46628  20.695  39.423   3.341
78211CL-    CL-46629   0.797   9.808  11.504
78212CL-    CL-46630   7.358  16.803  13.058
78213CL-    CL-46631  41.492  32.465   4.615
78214CL-    CL-46632  10.349   3.330  13.981
78215CL-    CL-46633  21.740   4.344  10.425
78216CL-    CL-46634  17.093  10.864  14.341
78217CL-    CL-46635  28.994   5.903   1.857
78218CL-    CL-46636  18.248  42.779   2.177
78219CL-    CL-46637  21.648  30.075   4.275
78220CL-    CL-46638  34.378   0.769   3.364
78221CL-    CL-46639  13.608  26.984  14.361
78222CL-    CL-46640  37.918  39.034  14.948
78223CL-    CL-46641  31.487   0.831  12.569
78224CL-    CL-46642  13.171   7.197  14.395
78225CL-    CL-46643  32.410  28.126  12.576
78226CL-    CL-46644   0.829  43.386  11.532
78227CL-    CL-46645   2.263  23.183   0.865
78228CL-    CL-46646  25.710   8.846  10.493
78229CL-    CL-46647  17.560   4.723   0.338
78230CL-    CL-46648  23.220  16.590  13.392
78231CL-    CL-46649  23.233   9.329  14.784
78232CL-    CL-46650  25.091  17.676   2.682
78233CL-    CL-46651  24.203  27.184  14.759
78234CL-    CL-46652  18.160  44.890  13.895
78235CL-    CL-46653  37.432  12.191  12.443
78236CL-    CL-46654  29.553  37.466  14.488
78237CL-    CL-46655  24.496  14.592  11.440
78238CL-    CL-46656   3.911   9.211   4.324
78239CL-    CL-46657   4.938  12.307   2.330
78240CL-    CL-46658  18.139  37.345   4.645
78241CL-    CL-46659   1.821  12.658  11.441
78242CL-    CL-46660   2.255  21.159  11.512
78243CL-    CL-46661  24.551  10.723   1.803
78244CL-    CL-46662  17.096  43.303  11.998
78245CL-    CL-46663   6.731  12.158  10.408
78246CL-    CL-46664  43.784  30.058   3.657
78247CL-    CL-46665   0.376   6.278  14.822
78248CL-    CL-46666  32.056  22.999   3.239
78249CL-    CL-46667  26.137   9.386   9.491
78250CL-    CL-46668  30.542  44.437  14.494
78251CL-    CL-46669  14.294  34.602  12.569
78252CL-    CL-46670  42.487   5.819  14.289
78253CL-    CL-46671  11.631  44.840   2.703
78254CL-    CL-46672  27.104   2.467   0.342
78255CL-    CL-46673  17.224   1.874  14.514
78256CL-    CL-46674  21.067  37.053   0.795
78257CL-    CL-46675  10.287  42.930  14.778
78258CL-    CL-46676  15.299  17.111  14.760
78259CL-    CL-46677  20.121   2.953  13.964
78260CL-    CL-46678  32.624  43.903  10.502
78261CL-    CL-46679  13.846   1.776   3.257
78262CL-    CL-46680  11.628  33.989   1.791
78263CL-    CL-46681   3.886  44.366  10.424
78264CL-    CL-46682   1.300  21.232  11.108
78265CL-    CL-46683  20.533  29.959   1.807
78266CL-    CL-46684  23.121   7.769  14.965
78267CL-    CL-46685  22.644  30.481  10.601
78268CL-    CL-46686  25.070  21.139  11.460
78269CL-    CL-46687  38.872  35.408  10.918
78270CL-    CL-46688  37.081  41.839   2.378
78271CL-    CL-46689  41.841   4.887  11.531
78272CL-    CL-46690  42.476  29.974   4.833
78273CL-    CL-46691  44.262   6.819   1.694
78274CL-    CL-46692  16.663  42.806  14.009
78275CL-    CL-46693  41.372  26.681   4.649
78276CL-    CL-46694  27.557  36.465   0.936
78277CL-    CL-46695  40.452  17.623   3.357
78278CL-    CL-46696  25.038  20.574  14.905
78279CL-    CL-46697  15.809  35.961   3.321
78280CL-    CL-46698   6.233  11.211  10.535
78281CL-    CL-46699   6.260  17.692  13.991
78282CL-    CL-46700  28.516  23.547   0.345
78283CL-    CL-46701  28.544  23.126   4.232
78284CL-    CL-46702  43.879  38.949   0.837
78285CL-    CL-46703  33.621   8.271  13.425
78286CL-    CL-46704  32.519  42.467   3.198
78287CL-    CL-46705  34.023  11.785   0.368
78288CL-    CL-46706  21.607   7.723   0.918
78289CL-    CL-46707  15.085  22.507  10.616
78290CL-    CL-46708   2.882  28.653   3.146
78291CL-    CL-46709  14.815   1.275   0.953
78292CL-    CL-46710  18.161   0.468   2.381
78293CL-    CL-46711  43.820  38.530   2.208
78294CL-    CL-46712  20.227  11.293   1.415
78295CL-    CL-46713  17.741  12.639   4.342
78296CL-    CL-46714  18.694   3.246   2.242
78297CL-    CL-46715  31.551   4.779  12.973
78298CL-    CL-46716  16.696   2.954  11.485
78299CL-    CL-46717  43.309  35.515   4.226
78300CL-    CL-46718  35.951   9.647  10.930
78301CL-    CL-46719  23.506  16.140  13.051
78302CL-    CL-46720  19.122  23.502   3.276
78303CL-    CL-46721  44.371  42.794   1.251
78304CL-    CL-46722  32.086   7.734   3.192
78305CL-    CL-46723  13.336  26.552   3.334
78306CL-    CL-46724   9.300   8.834   1.930
78307CL-    CL-46725  24.486   0.775  13.324
78308CL-    CL-46726  44.466   8.221  12.354
78309CL-    CL-46727  10.873   4.699  13.935
78310CL-    CL-46728  31.594  33.107   3.684
78311CL-    CL-46729  23.539  24.490   1.789
78312CL-    CL-46730  25.172  13.662  14.829
78313CL-    CL-46731  10.769  18.579  11.926
78314CL-    CL-46732  33.488  14.805   2.749
78315CL-    CL-46733   7.325   9.801   2.772
78316CL-    CL-46734  39.852  18.674   4.780
78317CL-    CL-46735  12.264  39.978  13.441
78318CL-    CL-46736  12.734  15.715   0.353
78319CL-    CL-46737  32.528  36.068  10.522
78320CL-    CL-46738  40.996  32.931   4.224
78321CL-    CL-46739  13.252  11.268  11.432
78322CL-    CL-46740   6.304  43.966  10.574
78323CL-    CL-46741  20.225  36.500   2.680
78324CL-    CL-46742  44.399  39.840  12.014
78325CL-    CL-46743   4.400  27.655   3.817
78326CL-    CL-46744  16.606  25.083   3.276
78327CL-    CL-46745   7.691   5.824   3.256
78328CL-    CL-46746   1.386  35.042  11.556
78329CL-    CL-46747   3.218   3.928   3.828
78330CL-    CL-46748  12.305  29.557  12.516
78331CL-    CL-46749  32.943  29.566   4.627
78332CL-    CL-46750  22.059  20.661   3.252
78333CL-    CL-46751  28.967  20.629   2.315
78334CL-    CL-46752  13.780  44.961  13.028
78335CL-    CL-46753   7.697   0.918   0.310
78336CL-    CL-46754  17.164  28.090  12.889
78337CL-    CL-46755  22.176   2.730  12.084
78338CL-    CL-46756  20.096  34.598  14.973
78339CL-    CL-46757  27.942  31.418   3.215
78340CL-    CL-46758  21.221  11.157  11.954
78341CL-    CL-46759  22.172  13.677   0.776
78342CL-    CL-46760  31.488  27.574   0.895
78343CL-    CL-46761  31.454   3.387  10.918
78344CL-    CL-46762  18.688  42.377   2.323
78345CL-    CL-46763  16.144   5.435   2.242
78346CL-    CL-46764  28.027  30.436  14.275
78347CL-    CL-46765   6.225  21.576   2.283
78348CL-    CL-46766  22.076   6.792   1.891
78349CL-    CL-46767  42.865  38.472   2.398
78350CL-    CL-46768  18.141  10.802   4.285
78351CL-    CL-46769  21.648  18.767  13.965
78352CL-    CL-46770  13.832  37.888   4.611
78353CL-    CL-46771  20.583  24.720   2.776
78354CL-    CL-46772  21.258  23.641   1.447
78355CL-    CL-46773  13.755  26.632  11.533
78356CL-    CL-46774   8.871  36.550   1.874
78357CL-    CL-46775  37.969  28.092   0.242
78358CL-    CL-46776  39.445  33.609   0.384
78359CL-    CL-46777  12.800   2.246   0.324
78360CL-    CL-46778   6.806  17.735  14.807
78361CL-    CL-46779  31.586  10.782  12.415
78362CL-    CL-46780  14.761  35.603  13.934
78363CL-    CL-46781  14.279  18.597   1.925
78364CL-    CL-46782  39.521  43.481   0.880
78365CL-    CL-46783  39.993  18.688   2.360
78366CL-    CL-46784   6.894  38.399  11.416
78367CL-    CL-46785  14.829  22.061  11.093
78368CL-    CL-46786   6.238  36.466   1.356
78369CL-    CL-46787   8.356  22.052  11.924
78370CL-    CL-46788  19.194  35.949  12.890
78371CL-    CL-46789  19.220  12.670   3.646
78372CL-    CL-46790  26.176   4.424   2.752
78373CL-    CL-46791   7.365  11.334  12.525
78374CL-    CL-46792  36.425  35.424   4.784
78375CL-    CL-46793   7.716   5.785   0.908
78376CL-    CL-46794   1.773   7.858   1.764
78377CL-    CL-46795   7.270  24.535  11.456
78378CL-    CL-46796  43.816  14.148   1.804
78379CL-    CL-46797  34.873  17.744  11.485
78380CL-    CL-46798  41.465  44.432   3.179
78381CL-    CL-46799  36.050  26.956  12.471
78382CL-    CL-46800  30.553   6.285  12.359
78383CL-    CL-46801  26.685  22.502   3.674
78384CL-    CL-46802   7.818  44.489  14.821
78385CL-    CL-46803   3.754  11.661  13.877
78386CL-    CL-46804  26.701  31.952   1.324
78387CL-    CL-46805  27.573  16.189   1.703
78388CL-    CL-46806  43.998   8.663   2.281
78389CL-    CL-46807   6.267  18.601   2.198
78390CL-    CL-46808   9.363  16.758   3.820
78391CL-    CL-46809  26.476   1.826   1.916
78392CL-    CL-46810  16.218  19.053   1.255
78393CL-    CL-46811  40.831  39.861  14.336
78394CL-    CL-46812  39.996   4.432   4.834
78395CL-    CL-46813  19.757  22.016  11.063
78396CL-    CL-46814   1.260  30.444  13.027
78397CL-    CL-46815  22.644   2.895  13.445
78398CL-    CL-46816   0.291   1.276  14.413
78399CL-    CL-46817   7.820  25.017   3.859
78400CL-    CL-46818  14.678  39.040   4.231
78401CL-    CL-46819  27.492  42.876  14.331
78402CL-    CL-46820  41.794  31.109   0.915
78403CL-    CL-46821   1.793   3.270   0.352
78404CL-    CL-46822  24.175   0.782   2.231
78405CL-    CL-46823  29.042  11.155   1.318
78406CL-    CL-46824   5.779  43.474   4.625
78407CL-    CL-46825  28.088  23.074  12.827
78408CL-    CL-46826  23.192   2.749   3.676
78409CL-    CL-46827  14.209  28.653  13.805
78410CL-    CL-46828  38.912   5.365   2.800
78411CL-    CL-46829   4.239   2.933  13.889
78412CL-    CL-46830  28.466   4.866   4.252
78413CL-    CL-46831  33.913  28.563   3.755
78414CL-    CL-46832  27.564  31.986   0.890
78415CL-    CL-46833  20.191  25.602  12.985
78416CL-    CL-46834  17.177  39.390  13.357
78417CL-    CL-46835   4.825  41.923   2.353
78418CL-    CL-46836  40.309  20.076  12.851
78419CL-    CL-46837  41.954  34.615  14.392
78420CL-    CL-46838  24.540  23.053  10.559
78421CL-    CL-46839  31.523  14.226   0.336
78422CL-    CL-46840   5.430  14.197  10.917
78423CL-    CL-46841  18.270  40.538  11.507
78424CL-    CL-46842   9.648  36.009  13.405
78425CL-    CL-46843  32.063  32.444   1.381
78426CL-    CL-46844  42.789  24.667  14.764
78427CL-    CL-46845  36.348  23.663   1.388
78428CL-    CL-46846   9.831  13.201   3.305
78429CL-    CL-46847   7.376  30.616  14.466
78430CL-    CL-46848  39.026  20.565   1.305
78431CL-    CL-46849  30.658  35.089  11.862
78432CL-    CL-46850   4.343  18.117  14.989
78433CL-    CL-46851  27.161   5.902   4.701
78434CL-    CL-46852  34.044  25.179  10.442
78435CL-    CL-46853  22.188   2.392  14.302
78436CL-    CL-46854  38.047  37.494  11.065
78437CL-    CL-46855  37.909  24.588   4.802
78438CL-    CL-46856  44.762  36.566   4.653
78439CL-    CL-46857  16.716  35.865   2.212
78440CL-    CL-46858  22.094  44.794   2.822
78441CL-    CL-46859  44.374   2.769   2.260
78442CL-    CL-46860  39.524  40.973  12.064
78443CL-    CL-46861   2.425   4.794   1.731
78444CL-    CL-46862  29.658  35.031   4.351
78445CL-    CL-46863  26.119  16.678  14.348
78446CL-    CL-46864  27.998   7.767  14.335
78447CL-    CL-46865  34.481  18.056   3.184
78448CL-    CL-46866  34.545  34.595   2.362
78449CL-    CL-46867  41.853   2.818  14.308
78450CL-    CL-46868   6.786   3.456   1.765
78451CL-    CL-46869   2.257  12.654  13.462
78452CL-    CL-46870   4.311   9.791   2.273
78453CL-    CL-46871   3.746  41.365   5.315
78454CL-    CL-46872   7.285  10.676   0.773
78455CL-    CL-46873  37.394  13.206   4.314
78456CL-    CL-46874  36.379   6.292  10.954
78457CL-    CL-46875  29.552  23.237  11.044
78458CL-    CL-46876  41.300  38.942   1.761
78459CL-    CL-46877  27.145  15.751   0.959
78460CL-    CL-46878  33.025  28.112  12.580
78461CL-    CL-46879   1.479  11.650  11.477
78462CL-    CL-46880   4.787  32.576  12.823
78463CL-    CL-46881  31.615  24.035  14.943
78464CL-    CL-46882   9.302  15.131   2.226
78465CL-    CL-46883  16.801  36.505   0.959
78466CL-    CL-46884  42.507  32.488   2.344
78467CL-    CL-46885  37.875  40.430   3.682
78468CL-    CL-46886   5.230  33.523  11.976
78469CL-    CL-46887  25.153  25.602  14.996
78470CL-    CL-46888  39.476  15.730  13.957
78471CL-    CL-46889  20.146  26.960   3.229
78472CL-    CL-46890  22.659  36.890   3.191
78473CL-    CL-46891  17.657  17.680   1.370
78474CL-    CL-46892  35.920  21.087   2.342
78475CL-    CL-46893   0.346  17.648  13.366
78476CL-    CL-46894   9.656  25.713   2.866
78477CL-    CL-46895   8.857  27.103  11.474
78478CL-    CL-46896  44.822  23.089  10.944
78479CL-    CL-46897  12.202  37.989  14.765
78480CL-    CL-46898  42.887  18.053   2.686
78481CL-    CL-46899  44.951  18.596  14.783
78482CL-    CL-46900  38.934  13.352  12.490
78483CL-    CL-46901   3.917  11.766  10.592
78484CL-    CL-46902  33.986  31.093  11.915
78485CL-    CL-46903  30.448  23.101  14.844
78486CL-    CL-46904  11.806   8.174  13.512
78487CL-    CL-46905  13.743   2.950  14.448
78488CL-    CL-46906  20.749  14.164  13.906
78489CL-    CL-46907  32.002  23.161  12.473
78490CL-    CL-46908  28.983  44.765  12.048
78491CL-    CL-46909  34.014  33.581  13.380
78492CL-    CL-46910  43.301  12.241  12.927
78493CL-    CL-46911  44.417  43.358  13.000
78494CL-    CL-46912  15.180  20.685   0.944
78495CL-    CL-46913  13.614  13.828  14.325
78496CL-    CL-46914   1.402  17.577   0.749
78497CL-    CL-46915  20.695  26.568  13.327
78498CL-    CL-46916  23.219   7.699   0.466
78499CL-    CL-46917  22.529  22.233   3.211
78500CL-    CL-46918  36.993  26.597  14.906
78501CL-    CL-46919  31.110  11.298   3.803
78502CL-    CL-46920  11.369   6.899   0.261
78503CL-    CL-46921   3.261  34.591  12.414
78504CL-    CL-46922  39.940  20.742  11.024
78505CL-    CL-46923  37.391   1.974  14.809
78506CL-    CL-46924   2.869  28.669   4.629
78507CL-    CL-46925   4.370  33.974  12.547
78508CL-    CL-46926  31.584  28.081  14.316
78509CL-    CL-46927   2.804  40.308  11.889
78510CL-    CL-46928   8.176  26.952   4.815
78511CL-    CL-46929  20.683  36.067   4.625
78512CL-    CL-46930   9.703  31.540   2.321
78513CL-    CL-46931  15.617  41.339   4.834
78514CL-    CL-46932  17.260  17.631  11.971
78515CL-    CL-46933  16.273  28.930   4.143
78516CL-    CL-46934  21.754  19.093  11.913
78517CL-    CL-46935   3.249  43.897  13.386
78518CL-    CL-46936   9.832  18.091   3.803
78519CL-    CL-46937  27.079  14.819  11.112
78520CL-    CL-46938  24.628  13.619   4.664
78521CL-    CL-46939  17.587  14.186  10.971
78522CL-    CL-46940  24.077  38.331   3.363
78523CL-    CL-46941  16.222   6.684   9.962
78524CL-    CL-46942   1.238  11.201   0.853
78525CL-    CL-46943  32.919  22.631   4.785
78526CL-    CL-46944  33.417  22.733   1.451
78527CL-    CL-46945  37.962  35.392  14.012
78528CL-    CL-46946   2.940   5.814  14.887
78529CL-    CL-46947  26.561  35.936   9.965
78530CL-    CL-46948  32.056  10.347   4.287
78531CL-    CL-46949  42.284  40.031   1.275
78532CL-    CL-46950   2.929  44.800   1.448
78533CL-    CL-46951  38.462  38.059  10.962
78534CL-    CL-46952  35.009  33.613  10.903
78535CL-    CL-46953  39.509  13.757   3.241
78536CL-    CL-46954  21.561  13.601   4.259
78537CL-    CL-46955   7.765  36.050  14.448
78538CL-    CL-46956  16.241  10.682   1.373
78539CL-    CL-46957  19.618   0.893   0.778
78540CL-    CL-46958  21.570  32.535  11.376
78541CL-    CL-46959   5.775  41.030  10.903
78542CL-    CL-46960  43.409  15.115  12.530
78543CL-    CL-46961  16.275  35.064   4.270
78544CL-    CL-46962  31.567  22.594  11.994
78545CL-    CL-46963  21.192  24.595   2.749
78546CL-    CL-46964  24.668  28.135   3.357
78547CL-    CL-46965  35.491  24.159   3.241
78548CL-    CL-46966  23.033   7.773  11.596
78549CL-    CL-46967   0.916  24.148   0.389
78550CL-    CL-46968  41.858  26.676   3.797
78551CL-    CL-46969  16.077  34.508  11.439
78552CL-    CL-46970  40.327  17.756  12.954
78553CL-    CL-46971  32.913  13.739  13.473
78554CL-    CL-46972   7.829  11.679  13.877
78555CL-    CL-46973  12.189  24.225  13.348
78556CL-    CL-46974  17.586  15.136   2.256
78557CL-    CL-46975  23.180  22.048   4.312
78558CL-    CL-46976  21.751  18.190   4.778
78559CL-    CL-46977  27.690  41.525  10.906
78560CL-    CL-46978   9.272  27.619  10.892
78561CL-    CL-46979  17.168  25.498   3.852
78562CL-    CL-46980  41.924  19.637  10.126
78563CL-    CL-46981  26.561  44.846  10.413
78564CL-    CL-46982  19.584  15.821  13.873
78565CL-    CL-46983  20.167  27.100   5.217
78566CL-    CL-46984   4.321  30.601   3.844
78567CL-    CL-46985   2.375   8.842  11.412
78568CL-    CL-46986  30.510  34.874   4.231
78569CL-    CL-46987  40.370   5.931  13.816
78570CL-    CL-46988   8.829  26.024   4.332
78571CL-    CL-46989  20.066  42.900   2.312
78572CL-    CL-46990  41.979   5.354  11.936
78573CL-    CL-46991  12.242  42.004   2.394
78574CL-    CL-46992  13.144  34.369   0.799
78575CL-    CL-46993  44.891  23.031  10.092
78576CL-    CL-46994  30.528  29.980  13.478
78577CL-    CL-46995  38.960  25.635  11.999
78578CL-    CL-46996  40.915  31.930  11.405
78579CL-    CL-46997  44.450  14.675   0.432
78580CL-    CL-46998  27.967  12.731   3.329
78581CL-    CL-46999  17.773  37.567   1.391
78582CL-    CL-47000   0.490   6.736   4.741
78583CL-    CL-47001  35.888  35.040  14.829
78584CL-    CL-47002  34.014  44.415  10.409
78585CL-    CL-47003  24.055  22.095  14.476
78586CL-    CL-47004  29.158   7.813   1.372
78587CL-    CL-47005  20.117  42.430   4.651
78588CL-    CL-47006  32.557   0.946  14.982
78589CL-    CL-47007  35.545   0.823  12.943
78590CL-    CL-47008   1.804  35.542  10.520
78591CL-    CL-47009  33.073  27.158  10.896
78592CL-    CL-47010  20.633  44.304   3.329
78593CL-    CL-47011  42.013  15.306   1.404
78594CL-    CL-47012   5.401   3.217   1.862
78595CL-    CL-47013   4.434  41.456  10.483
78596CL-    CL-47014  22.583  34.473  12.988
78597CL-    CL-47015  35.026   0.941  14.394
78598CL-    CL-47016   4.901  41.931  12.878
78599CL-    CL-47017  24.483  30.056   4.261
78600CL-    CL-47018  42.431   1.825  12.920
78601CL-    CL-47019  43.859  12.291   5.305
78602CL-    CL-47020  16.711  16.778   1.915
78603CL-    CL-47021  22.043  36.396  13.991
78604CL-    CL-47022  14.262  38.515   1.389
78605CL-    CL-47023  38.416   0.392  12.540
78606CL-    CL-47024   9.675   7.243  13.368
78607CL-    CL-47025  17.607   1.375  14.952
78608CL-    CL-47026  15.724  27.969   5.218
78609CL-    CL-47027  26.952  14.277  12.041
78610CL-    CL-47028  30.632  39.820  13.354
78611CL-    CL-47029   6.380  22.550   5.216
78612CL-    CL-47030  24.196  33.553  14.454
78613CL-    CL-47031  10.787  37.057  12.892
78614CL-    CL-47032  24.057  44.834  12.485
78615CL-    CL-47033  32.037  15.201  11.080
78616CL-    CL-47034  40.353  24.128  14.786
78617CL-    CL-47035  19.255  14.758  14.833
78618CL-    CL-47036   9.267  27.949  14.888
78619CL-    CL-47037  22.214  23.734  10.506
78620CL-    CL-47038  20.123  33.625   4.731
78621CL-    CL-47039  17.110  16.653  14.826
78622CL-    CL-47040  33.973  39.840  10.957
78623CL-    CL-47041  26.620   2.470  10.543
78624CL-    CL-47042  39.984  35.558   3.180
78625CL-    CL-47043  17.732  42.974   3.818
78626CL-    CL-47044   7.339  34.933  11.975
78627CL-    CL-47045  25.083  33.442  10.585
78628CL-    CL-47046  12.210  44.307   2.725
78629CL-    CL-47047  26.491   9.221  12.571
78630CL-    CL-47048  44.836  13.638   2.326
78631CL-    CL-47049  17.798  31.910  14.385
78632CL-    CL-47050  12.673   1.259   1.297
78633CL-    CL-47051  26.067  42.974  13.315
78634CL-    CL-47052  10.196  12.303   4.119
78635CL-    CL-47053   4.395  26.473   1.221
78636CL-    CL-47054  43.001  36.894  10.434
78637CL-    CL-47055  17.098  10.815   4.321
78638CL-    CL-47056  16.603   0.419  11.875
78639CL-    CL-47057   8.766  18.645  10.556
78640CL-    CL-47058   4.205  38.878   0.255
78641CL-    CL-47059  25.974  41.901  12.394
78642CL-    CL-47060  25.098  32.057   4.259
78643CL-    CL-47061  10.229   1.476  13.926
78644CL-    CL-47062  40.393  14.647  14.927
78645CL-    CL-47063  13.843  39.501  14.477
78646CL-    CL-47064   3.781  28.184   3.251
78647CL-    CL-47065   9.211  43.465   2.200
78648CL-    CL-47066  11.210   2.258   0.739
78649CL-    CL-47067  32.003  24.977  12.896
78650CL-    CL-47068  31.909  34.540  10.906
78651CL-    CL-47069  28.561  27.970   3.827
78652CL-    CL-47070  31.098   4.791  14.401
78653CL-    CL-47071  13.249  29.580  10.956
78654CL-    CL-47072  25.686   7.414  14.475
78655CL-    CL-47073  32.039  19.238   1.352
78656CL-    CL-47074  10.245  41.354  13.447
78657CL-    CL-47075   3.308  28.603   0.332
78658CL-    CL-47076  28.524  32.414  13.880
78659CL-    CL-47077  23.205  40.977  11.941
78660CL-    CL-47078  40.407  24.031  11.124
78661CL-    CL-47079  28.115  43.773   3.255
78662CL-    CL-47080  38.053  24.209   0.745
78663CL-    CL-47081  28.086  17.083   0.379
78664CL-    CL-47082   3.359  29.999  11.109
78665CL-    CL-47083  32.429  20.240   0.437
78666CL-    CL-47084  30.928  37.841  14.811
78667CL-    CL-47085  35.043  26.658   0.397
78668CL-    CL-47086  35.596   1.332  10.420
78669CL-    CL-47087  26.557   7.388  10.417
78670CL-    CL-47088   7.794  16.654   2.376
78671CL-    CL-47089   0.348  24.684   0.242
78672CL-    CL-47090  20.228  23.609  10.002
78673CL-    CL-47091  43.287  10.292  11.598
78674CL-    CL-47092  14.209  37.441  11.573
78675CL-    CL-47093  42.906  15.324  12.849
78676CL-    CL-47094   8.745  26.167  12.547
78677CL-    CL-47095  13.342  23.733   2.759
78678CL-    CL-47096   0.327  35.594  14.783
78679CL-    CL-47097  29.016   6.882  14.505
78680CL-    CL-47098  33.399  33.484  11.519
78681CL-    CL-47099  32.014   7.783  13.868
78682CL-    CL-47100  36.051  25.679   0.958
78683CL-    CL-47101  24.993  19.104  10.628
78684CL-    CL-47102  17.751  25.491   2.250
78685CL-    CL-47103  25.543  31.478   0.304
78686CL-    CL-47104  43.907  42.371   2.405
78687CL-    CL-47105  43.844  15.094  11.997
78688CL-    CL-47106  32.634  12.231   1.410
78689CL-    CL-47107  15.223  41.316   3.344
78690CL-    CL-47108   3.715  40.428   2.394
78691CL-    CL-47109  37.997  19.731   3.687
78692CL-    CL-47110  30.657  11.243   4.645
78693CL-    CL-47111  42.342   1.328   2.781
78694CL-    CL-47112   5.909  18.637  12.504
78695CL-    CL-47113  13.110  17.232   3.149
78696CL-    CL-47114   5.930  15.784  10.598
78697CL-    CL-47115  33.542  40.882  11.033
78698CL-    CL-47116  31.972  24.666   3.273
78699CL-    CL-47117  32.482  17.693  13.917
78700CL-    CL-47118  12.313   4.315   2.260
78701CL-    CL-47119  23.567  44.882   3.682
78702CL-    CL-47120   0.273  24.612  10.912
78703CL-    CL-47121  40.437  14.314   4.634
78704CL-    CL-47122  32.976  12.645  14.315
78705CL-    CL-47123  36.536  12.312  14.899
78706CL-    CL-47124   9.729  20.586  14.364
78707CL-    CL-47125   1.736   5.415   1.384
78708CL-    CL-47126  14.654  37.399   0.807
78709CL-    CL-47127   7.284  20.089  13.454
78710CL-    CL-47128  25.016  35.969   4.764
78711CL-    CL-47129  13.730  44.767   1.386
78712CL-    CL-47130  12.751  16.237  14.291
78713CL-    CL-47131  25.556  33.002   2.892
78714CL-    CL-47132  25.101  31.900  12.525
78715CL-    CL-47133  30.513  27.516   4.177
78716CL-    CL-47134   1.886  15.270  13.410
78717CL-    CL-47135   0.411  36.073   0.426
78718CL-    CL-47136   9.696  41.309   1.381
78719CL-    CL-47137  33.974  33.108  11.127
78720CL-    CL-47138  21.117  30.016  12.503
78721CL-    CL-47139  31.972   6.194   3.370
78722CL-    CL-47140  13.137  39.813   1.872
78723CL-    CL-47141  42.926   2.900  12.866
78724CL-    CL-47142  19.681   4.912   2.411
78725CL-    CL-47143   9.240  22.016  12.885
78726CL-    CL-47144   3.345  28.588   1.386
78727CL-    CL-47145  23.056  22.589   2.213
78728CL-    CL-47146  24.218  44.440  12.938
78729CL-    CL-47147  22.213  17.127  13.854
78730CL-    CL-47148  22.016  28.141   3.261
78731CL-    CL-47149  22.145   5.366  11.044
78732CL-    CL-47150  18.594  14.826   3.307
78733CL-    CL-47151   0.914  14.718   0.806
78734CL-    CL-47152  23.679  25.506  11.563
78735CL-    CL-47153  39.387  24.082  14.827
78736CL-    CL-47154  38.908   9.167   3.648
78737CL-    CL-47155  30.657  40.434  13.961
78738CL-    CL-47156   7.246  28.063   2.892
78739CL-    CL-47157  31.059  39.899   0.750
78740CL-    CL-47158  16.642  28.957   2.813
78741CL-    CL-47159  42.014   6.824  14.332
78742CL-    CL-47160   2.423   9.776   0.827
78743CL-    CL-47161  10.369   1.779   2.284
78744CL-    CL-47162   8.756   3.910  11.386
78745CL-    CL-47163   8.736  33.013  12.824
78746CL-    CL-47164  17.740  19.045  11.013
78747CL-    CL-47165   5.248  24.218   4.119
78748CL-    CL-47166  17.602  13.739   1.382
78749CL-    CL-47167  35.977  27.946   4.737
78750CL-    CL-47168  34.980  37.043   4.787
78751CL-    CL-47169  30.163  34.094  14.839
78752CL-    CL-47170   4.212  22.152  12.465
78753CL-    CL-47171  26.002  32.510  14.817
78754CL-    CL-47172  15.681  23.154   3.658
78755CL-    CL-47173  15.263   1.934   3.630
78756CL-    CL-47174  37.521  29.511  13.933
78757CL-    CL-47175  12.686   9.275   3.193
78758CL-    CL-47176  14.266   7.749   1.297
78759CL-    CL-47177  34.071  11.846  11.099
78760CL-    CL-47178  28.453   4.778   2.349
78761CL-    CL-47179  23.073  35.009   4.156
78762CL-    CL-47180  21.149  11.224   2.696
78763CL-    CL-47181  32.894  12.301   0.298
78764CL-    CL-47182  28.970  12.821   4.177
78765CL-    CL-47183  34.875  24.508   1.428
78766CL-    CL-47184  41.535   1.458   4.717
78767CL-    CL-47185  39.047  44.398  10.088
78768CL-    CL-47186  32.069  43.017   4.184
78769CL-    CL-47187  44.273  43.945   3.788
78770CL-    CL-47188  40.532  41.026   0.940
78771CL-    CL-47189  30.659  41.389   3.208
78772CL-    CL-47190  30.080  38.518   0.769
78773CL-    CL-47191  28.535  17.271   4.282
78774CL-    CL-47192   7.758  40.443   0.790
78775CL-    CL-47193  24.161  28.956  11.955
78776CL-    CL-47194  33.906  16.075   0.432
78777CL-    CL-47195  13.632  44.303  13.945
78778CL-    CL-47196   5.193  16.295   0.275
78779CL-    CL-47197  26.126  30.642   1.879
78780CL-    CL-47198  16.787  10.145   3.781
78781CL-    CL-47199  18.671   9.287   2.726
78782CL-    CL-47200  23.554   9.770  12.928
78783CL-    CL-47201  18.594  16.754  11.592
78784CL-    CL-47202  14.732  27.147  13.007
78785CL-    CL-47203  43.492  14.616   5.255
78786CL-    CL-47204  13.649   0.784   4.135
78787CL-    CL-47205  39.957  15.790   4.300
78788CL-    CL-47206   2.782  12.178   3.763
78789CL-    CL-47207  37.913   2.303   4.687
78790CL-    CL-47208  40.953   5.881  11.610
78791CL-    CL-47209  43.989  27.453  10.969
78792CL-    CL-47210  31.026  40.818  11.014
78793CL-    CL-47211  35.518  36.395   2.267
78794CL-    CL-47212  23.021  27.135   1.894
78795CL-    CL-47213  19.752  19.595   4.154
78796CL-    CL-47214  14.649  21.660   0.765
78797CL-    CL-47215  19.100  35.488   0.933
78798CL-    CL-47216   8.182  27.624   3.708
78799CL-    CL-47217   8.857  17.774   4.770
78800CL-    CL-47218  40.956  21.169  12.886
78801CL-    CL-47219  18.768   1.896   3.768
78802CL-    CL-47220  13.791  41.025  14.774
78803CL-    CL-47221  18.749  38.545  12.081
78804CL-    CL-47222  33.461  24.494  14.906
78805CL-    CL-47223  33.497  31.512  13.808
78806CL-    CL-47224  32.976  17.087   4.821
78807CL-    CL-47225   2.801  29.472  14.859
78808CL-    CL-47226  44.854  13.350   5.766
78809CL-    CL-47227   7.264   8.840   4.350
78810CL-    CL-47228  34.000  33.626   3.730
78811CL-    CL-47229   8.838  31.461  13.514
78812CL-    CL-47230  34.083  28.640  14.462
78813CL-    CL-47231  27.071  39.045   2.799
78814CL-    CL-47232  40.964  31.144   0.291
78815CL-    CL-47233   0.305  22.252  13.427
78816CL-    CL-47234  40.840  23.080   3.188
78817CL-    CL-47235  30.911  40.947  13.940
78818CL-    CL-47236  24.682  18.557   0.433
78819CL-    CL-47237   9.318   7.286  12.485
78820CL-    CL-47238   7.867  21.643   1.313
78821CL-    CL-47239  20.120   8.859   1.762
78822CL-    CL-47240  32.018  32.503   0.444
78823CL-    CL-47241   6.422  12.328   2.391
78824CL-    CL-47242   4.212  10.203  12.565
78825CL-    CL-47243   2.860  44.372   1.885
78826CL-    CL-47244   4.772  42.931  13.879
78827CL-    CL-47245  28.083  25.121  11.905
78828CL-    CL-47246  14.214  23.586   3.345
78829CL-    CL-47247  41.807  39.847   5.211
78830CL-    CL-47248  19.233  35.450  10.958
78831CL-    CL-47249   3.432   9.795  14.407
78832CL-    CL-47250  41.358  42.396   4.216
78833CL-    CL-47251  17.213  13.705  14.415
78834CL-    CL-47252  39.376   6.756   3.351
78835CL-    CL-47253  22.226  42.002   2.798
78836CL-    CL-47254   2.936  31.045  14.876
78837CL-    CL-47255  32.007   0.306  13.891
78838CL-    CL-47256   6.236   8.191  13.366
78839CL-    CL-47257  40.800  11.848   0.471
78840CL-    CL-47258  36.842   4.421   0.911
78841CL-    CL-47259  27.664  14.126   3.673
78842CL-    CL-47260  16.717  14.744  14.796
78843CL-    CL-47261  25.015  22.178  10.436
78844CL-    CL-47262  21.087  21.543   0.792
78845CL-    CL-47263   6.380   8.296  13.893
78846CL-    CL-47264   7.240  29.981  13.954
78847CL-    CL-47265  24.025  30.141   1.794
78848CL-    CL-47266  34.986   2.301   2.675
78849CL-    CL-47267  19.767   6.807  11.096
78850CL-    CL-47268  31.039   2.248   2.351
78851CL-    CL-47269   6.278  42.849  12.928
78852CL-    CL-47270   8.800  18.597   1.233
78853CL-    CL-47271  16.756  19.752  14.946
78854CL-    CL-47272  33.626  35.407  11.533
78855CL-    CL-47273  14.635  31.457  10.515
78856CL-    CL-47274   6.711  31.077   4.298
78857CL-    CL-47275  43.902   9.698  10.983
78858CL-    CL-47276  15.606  18.556   0.344
78859CL-    CL-47277  42.893  16.611  10.139
78860CL-    CL-47278  44.891  15.619   4.693
78861CL-    CL-47279  32.036  40.933   1.359
78862CL-    CL-47280  33.956  23.724   1.832
78863CL-    CL-47281  38.993  13.198  14.863
78864CL-    CL-47282  31.499   2.893   4.303
78865CL-    CL-47283   9.676  11.836  14.487
78866CL-    CL-47284   3.895   6.882   0.911
78867CL-    CL-47285   0.796  30.951   0.324
78868CL-    CL-47286  18.738   6.234   3.185
78869CL-    CL-47287  44.348   5.286  14.917
78870CL-    CL-47288  25.491   8.665   2.227
78871CL-    CL-47289  11.838   1.965   2.664
78872CL-    CL-47290  43.463  14.339  10.911
78873CL-    CL-47291  38.509  10.749  13.472
78874CL-    CL-47292  27.102  15.237   1.316
78875CL-    CL-47293  24.064  25.556   3.819
78876CL-    CL-47294  41.932  21.684  13.954
78877CL-    CL-47295   8.745  10.210  11.924
78878CL-    CL-47296   8.884  14.766   2.686
78879CL-    CL-47297   1.363  22.206  12.512
78880CL-    CL-47298  21.673  13.177  11.953
78881CL-    CL-47299  17.664  20.140   4.608
78882CL-    CL-47300  44.925  24.031  13.856
78883CL-    CL-47301   2.914  19.205  12.900
78884CL-    CL-47302   4.824   6.797  10.961
78885CL-    CL-47303   3.312   5.919  14.375
78886CL-    CL-47304  44.804  34.083  12.059
78887CL-    CL-47305   2.316  31.066  10.416
78888CL-    CL-47306   2.245  32.516  11.860
78889CL-    CL-47307  37.366  29.531   1.758
78890CL-    CL-47308  19.672  41.920  11.990
78891CL-    CL-47309  30.057  36.416   2.353
78892CL-    CL-47310  27.649   3.460  14.903
78893CL-    CL-47311  38.468  12.697   3.803
78894CL-    CL-47312  19.722  14.114  14.767
78895CL-    CL-47313  35.006  35.853   3.146
78896CL-    CL-47314  31.575  22.546  12.842
78897CL-    CL-47315   2.272   2.454  14.787
78898CL-    CL-47316  31.494  11.315  14.003
78899CL-    CL-47317   6.261  36.584   2.389
78900CL-    CL-47318  26.084  27.486   2.258
78901CL-    CL-47319  33.932  25.519  14.816
78902CL-    CL-47320  25.069  15.174   1.236
78903CL-    CL-47321  43.802  32.475   1.281
78904CL-    CL-47322  37.920  33.615  14.443
78905CL-    CL-47323  35.969  28.088  12.466
78906CL-    CL-47324  20.084  27.164  14.954
78907CL-    CL-47325  35.109   0.775  11.404
78908CL-    CL-47326  12.797  15.654  14.854
78909CL-    CL-47327  27.562  37.371   1.414
78910CL-    CL-47328  22.603  24.715   5.265
78911CL-    CL-47329  15.784  20.155  12.440
78912CL-    CL-47330  25.999  24.640   4.328
78913CL-    CL-47331  15.292  40.510   2.694
78914CL-    CL-47332  16.774  18.251  10.608
78915CL-    CL-47333  12.169  42.412  10.642
78916CL-    CL-47334  40.353  20.755  10.443
78917CL-    CL-47335   5.357  25.517  10.545
78918CL-    CL-47336  16.256  35.943   2.743
78919CL-    CL-47337   2.450  35.920   4.160
78920CL-    CL-47338  10.347  43.442  14.994
78921CL-    CL-47339  37.994  38.425   5.582
78922CL-    CL-47340   1.351  19.217   4.641
78923CL-    CL-47341  17.596   8.759  11.020
78924CL-    CL-47342   3.875  31.573  10.971
78925CL-    CL-47343  35.992   1.765   1.907
78926CL-    CL-47344  17.764  31.627   2.334
78927CL-    CL-47345  23.583  40.392  12.551
78928CL-    CL-47346  39.335  18.737  13.522
78929CL-    CL-47347  25.500  16.781   0.740
78930CL-    CL-47348  43.278  18.203  11.872
78931CL-    CL-47349  41.906  32.000  13.830
78932CL-    CL-47350   6.343  36.385  11.017
78933CL-    CL-47351  39.921  33.484  14.295
78934CL-    CL-47352  43.303  38.863   2.869
78935CL-    CL-47353  28.598  43.483  11.900
78936CL-    CL-47354  13.127   5.366  11.042
78937CL-    CL-47355  24.989  34.500   1.831
78938CL-    CL-47356  40.327  11.278  13.315
78939CL-    CL-47357  12.155  13.241   1.812
78940CL-    CL-47358  26.610  14.750  11.889
78941CL-    CL-47359  17.647  10.246  12.466
78942CL-    CL-47360  28.439  33.603  10.560
78943CL-    CL-47361  23.030  17.568   3.176
78944CL-    CL-47362  44.483  12.771  10.112
78945CL-    CL-47363  10.324  15.253  11.403
78946CL-    CL-47364  21.541  43.489   1.902
78947CL-    CL-47365  39.968  44.291   4.131
78948CL-    CL-47366  32.971  13.200  12.551
78949CL-    CL-47367  35.094   6.374   1.926
78950CL-    CL-47368   8.873  20.177   4.168
78951CL-    CL-47369   1.458   4.721   1.385
78952CL-    CL-47370  23.202  15.633   0.465
78953CL-    CL-47371  30.963  28.987   3.321
78954CL-    CL-47372   1.482  34.016   2.275
78955CL-    CL-47373  21.532  30.446   2.248
78956CL-    CL-47374  13.611  29.972  12.034
78957CL-    CL-47375  24.139  29.111  14.423
78958CL-    CL-47376  33.570  19.112  13.445
78959CL-    CL-47377  10.845  15.116  13.796
78960CL-    CL-47378  32.407   4.253  13.886
78961CL-    CL-47379  27.166   4.847  10.603
78962CL-    CL-47380  11.758  17.706   0.778
78963CL-    CL-47381   0.382  43.956   1.353
78964CL-    CL-47382  30.910  21.096  14.452
78965CL-    CL-47383  21.193  14.327  11.587
78966CL-    CL-47384   7.887  19.269  14.509
78967CL-    CL-47385   4.842  33.056   3.214
78968CL-    CL-47386  33.093  24.701   1.352
78969CL-    CL-47387  12.234  43.901   3.791
78970CL-    CL-47388  38.354   4.879  12.949
78971CL-    CL-47389  11.143  28.147   0.769
78972CL-    CL-47390   8.733   3.429   4.317
78973CL-    CL-47391  12.361  32.486   3.781
78974CL-    CL-47392   1.474  42.943  11.023
78975CL-    CL-47393  43.483  40.392   4.712
78976CL-    CL-47394  32.412  34.542  11.040
78977CL-    CL-47395  38.530  26.554   3.822
78978CL-    CL-47396  27.170  16.803  11.382
78979CL-    CL-47397  39.948   2.746  12.017
78980CL-    CL-47398  34.406  21.179  12.917
78981CL-    CL-47399  33.486  15.737   2.391
78982CL-    CL-47400  17.118   3.910   0.387
78983CL-    CL-47401  25.710  27.650   4.353
78984CL-    CL-47402   3.859   7.794   3.166
78985CL-    CL-47403   5.899  15.655   4.150
78986CL-    CL-47404  10.355  44.767   1.781
78987CL-    CL-47405  40.868  20.525   0.423
78988CL-    CL-47406  26.481   4.332   2.843
78989CL-    CL-47407  14.190  13.674   4.765
78990CL-    CL-47408   3.300  35.886  13.984
78991CL-    CL-47409   6.204  36.096   2.305
78992CL-    CL-47410  34.962  11.670   5.309
78993CL-    CL-47411  23.680  35.398   3.349
78994CL-    CL-47412  21.744   1.948   4.606
78995CL-    CL-47413  17.099   1.347   1.318
78996CL-    CL-47414  42.304  17.601  12.940
78997CL-    CL-47415  23.130   2.772   1.420
78998CL-    CL-47416   5.353   3.838  14.464
78999CL-    CL-47417   4.248   7.803  12.996
79000CL-    CL-47418  28.508  37.965   3.863
79001CL-    CL-47419  10.257  29.464  11.119
79002CL-    CL-47420  32.141  40.377   3.630
79003CL-    CL-47421   0.431  16.154  13.963
79004CL-    CL-47422  12.638  13.676   2.760
79005CL-    CL-47423  39.528  30.913  12.492
79006CL-    CL-47424   8.386  32.118   0.875
79007CL-    CL-47425  39.043  30.974  11.607
79008CL-    CL-47426  23.163  28.993  11.579
79009CL-    CL-47427  17.121   9.804  11.490
79010CL-    CL-47428   8.370   0.415  12.839
79011CL-    CL-47429  21.174  22.543   2.694
79012CL-    CL-47430  35.947   8.170   2.206
79013CL-    CL-47431  31.917  26.612  12.871
79014CL-    CL-47432  37.520   8.190  12.033
79015CL-    CL-47433  32.407   7.373  12.078
79016CL-    CL-47434  10.760  33.441  10.072
79017CL-    CL-47435  21.609  43.293   4.293
79018CL-    CL-47436  32.582  38.985   3.704
79019CL-    CL-47437   0.409  43.847  10.460
79020CL-    CL-47438   5.695  25.669  11.089
79021CL-    CL-47439   9.775  25.127   2.891
79022CL-    CL-47440  32.542  22.203   4.743
79023CL-    CL-47441  38.950   4.379  10.157
79024CL-    CL-47442   0.445  11.821  11.964
79025CL-    CL-47443   8.889  25.630  10.949
79026CL-    CL-47444  43.412  32.460   2.748
79027CL-    CL-47445  39.412   4.373  11.916
79028CL-    CL-47446  13.112  15.263  10.985
79029CL-    CL-47447   3.459  10.363   9.946
79030CL-    CL-47448   5.438  32.565  13.433
79031CL-    CL-47449  34.396  23.526  11.015
79032CL-    CL-47450  28.934  40.511  12.954
79033CL-    CL-47451   9.233  27.109  13.511
79034CL-    CL-47452  37.071  22.087  11.438
79035CL-    CL-47453   1.976  35.043   2.810
79036CL-    CL-47454   6.726  19.699   0.786
79037CL-    CL-47455  16.652   7.215  12.022
79038CL-    CL-47456  37.444   2.758   3.798
79039CL-    CL-47457  44.283  29.443   1.913
79040CL-    CL-47458  20.088  15.185   3.846
79041CL-    CL-47459   7.795  43.298   1.220
79042CL-    CL-47460  13.703  12.173   2.287
79043CL-    CL-47461   2.962  32.512   2.287
79044CL-    CL-47462   2.741  32.918   3.771
79045CL-    CL-47463  33.103  44.455   2.220
79046CL-    CL-47464   6.693  10.738  11.946
79047CL-    CL-47465  31.969  15.189  14.014
79048CL-    CL-47466  22.082  31.114  11.464
79049CL-    CL-47467  41.875   8.244   2.217
79050CL-    CL-47468  34.870  36.995   9.652
79051CL-    CL-47469  41.454   7.191  11.953
79052CL-    CL-47470  34.536   3.713  10.631
79053CL-    CL-47471  37.835  25.148  12.500
79054CL-    CL-47472   0.842  19.236  11.024
79055CL-    CL-47473  24.600  16.241   0.262
79056CL-    CL-47474   8.809  36.853   0.964
79057CL-    CL-47475  16.588  38.876   3.197
79058CL-    CL-47476   0.970  20.656   2.199
79059CL-    CL-47477  10.334  15.755   3.379
79060CL-    CL-47478  15.235   0.835  12.851
79061CL-    CL-47479   8.161  43.833   1.435
79062CL-    CL-47480  11.632  37.537  13.810
79063CL-    CL-47481   4.738  13.214   3.707
79064CL-    CL-47482  29.088  20.704   1.863
79065CL-    CL-47483   7.677  21.244   3.232
79066CL-    CL-47484  20.050  19.583   5.131
79067CL-    CL-47485   0.957  19.665  12.049
79068CL-    CL-47486  43.838  43.770  14.440
79069CL-    CL-47487  12.748  19.194   0.394
79070CL-    CL-47488  27.550  29.480   4.827
79071CL-    CL-47489  17.624  11.200   4.226
79072CL-    CL-47490   9.387  41.944   2.814
79073CL-    CL-47491  10.806  21.729  12.031
79074CL-    CL-47492  23.191   1.788  13.409
79075CL-    CL-47493   6.290  30.114  13.416
79076CL-    CL-47494  40.496  23.618   4.353
79077CL-    CL-47495  31.500  21.731  10.989
79078CL-    CL-47496  29.987   5.712  13.494
79079CL-    CL-47497   8.234  19.054  10.469
79080CL-    CL-47498  20.224  43.459   4.767
79081CL-    CL-47499  11.299  13.634  11.566
79082CL-    CL-47500  42.288   0.413   1.433
79083CL-    CL-47501  18.254  40.978   2.216
79084CL-    CL-47502   8.839  33.905  12.017
79085CL-    CL-47503   4.270  14.643  12.403
79086CL-    CL-47504   8.893  36.913  10.441
79087CL-    CL-47505  18.288   6.823  11.926
79088CL-    CL-47506  42.314  28.973  12.425
79089CL-    CL-47507  17.676   6.416   5.138
79090CL-    CL-47508   7.328  32.952  11.104
79091CL-    CL-47509  12.798  19.134  10.905
79092CL-    CL-47510  12.822   9.348  12.025
79093CL-    CL-47511  17.698   9.747  14.464
79094CL-    CL-47512  36.529  36.580   0.769
79095CL-    CL-47513  24.488   6.398   0.748
79096CL-    CL-47514  11.759  38.063   3.325
79097CL-    CL-47515  11.621  33.005  14.512
79098CL-    CL-47516  20.120   2.452  13.476
79099CL-    CL-47517  43.279  43.296   4.276
79100CL-    CL-47518  44.776  21.575   5.614
79101CL-    CL-47519  14.714   6.731   5.268
79102CL-    CL-47520  40.842   7.670  11.449
79103CL-    CL-47521   2.420   6.289   1.772
79104CL-    CL-47522   3.387  38.009   3.729
79105CL-    CL-47523  16.126   4.923  14.310
79106CL-    CL-47524  36.458  25.058  13.314
79107CL-    CL-47525  35.536  34.026   1.892
79108CL-    CL-47526  10.716  28.161   2.413
79109CL-    CL-47527  42.492  39.028  11.505
79110CL-    CL-47528  19.775  43.897   1.839
79111CL-    CL-47529  26.202   1.400  12.900
79112CL-    CL-47530  11.170  10.334  11.954
79113CL-    CL-47531  18.662   9.767   0.940
79114CL-    CL-47532  35.982  39.473  10.478
79115CL-    CL-47533  26.008  11.638   0.287
79116CL-    CL-47534  18.652  22.199  10.622
79117CL-    CL-47535  43.415  24.691   1.385
79118CL-    CL-47536   9.258  30.591  11.073
79119CL-    CL-47537  15.805  16.782   0.837
79120CL-    CL-47538  38.875  11.276  14.355
79121CL-    CL-47539   0.398  10.194   0.826
79122CL-    CL-47540   4.320   6.252   1.299
79123CL-    CL-47541  34.420  26.682   2.284
79124CL-    CL-47542  27.109   4.314  14.981
79125CL-    CL-47543  34.393  22.572  13.336
79126CL-    CL-47544  17.184  42.400   2.838
79127CL-    CL-47545  25.675   6.361   2.396
79128CL-    CL-47546   7.757  41.377  11.605
79129CL-    CL-47547   1.307  42.325  14.333
79130CL-    CL-47548   9.706  34.377   1.897
79131CL-    CL-47549   8.348  27.690   0.284
79132CL-    CL-47550  37.008  16.580  13.056
79133CL-    CL-47551  29.943   8.889  13.490
79134CL-    CL-47552  10.169   4.360   0.932
79135CL-    CL-47553   8.348   7.842   0.263
79136CL-    CL-47554  41.489  18.762   0.794
79137CL-    CL-47555   1.858  37.459   3.302
79138CL-    CL-47556  12.288  20.693   3.380
79139CL-    CL-47557   0.328  24.993   2.814
79140CL-    CL-47558  14.260  36.848  12.984
79141CL-    CL-47559  44.388  44.804   2.416
79142CL-    CL-47560  21.107  27.448  12.077
79143CL-    CL-47561   4.333  12.674  12.050
79144CL-    CL-47562   1.284  41.982   3.836
79145CL-    CL-47563  19.684  16.747  10.553
79146CL-    CL-47564  42.841  23.719  10.512
79147CL-    CL-47565  26.568  31.586   1.740
79148CL-    CL-47566  41.818  22.240  14.361
79149CL-    CL-47567  29.431  29.941   2.187
79150CL-    CL-47568   5.379  15.652  12.581
79151CL-    CL-47569  10.841  43.370   4.335
79152CL-    CL-47570  36.092  31.054  14.434
79153CL-    CL-47571  15.271   7.359  12.538
79154CL-    CL-47572  37.473   9.888   1.807
79155CL-    CL-47573  16.151   9.339  13.002
79156CL-    CL-47574  35.394  19.215   3.293
79157CL-    CL-47575  22.578  26.533   0.917
79158CL-    CL-47576  32.041   0.815   1.309
79159CL-    CL-47577  12.613  22.241   3.384
79160CL-    CL-47578  39.414  36.077  14.331
79161CL-    CL-47579  18.699  25.172   3.336
79162CL-    CL-47580  18.260   3.399  13.514
79163CL-    CL-47581  41.478  21.569  10.474
79164CL-    CL-47582  24.168  43.428   3.715
79165CL-    CL-47583  14.804  44.430  13.938
79166CL-    CL-47584  27.035  22.035  12.089
79167CL-    CL-47585   1.466  30.504  11.070
79168CL-    CL-47586  19.274   3.935  14.911
79169CL-    CL-47587  31.636  30.453  11.046
79170CL-    CL-47588  21.606  12.621  14.839
79171CL-    CL-47589  17.175   8.853  13.466
79172CL-    CL-47590   8.744  40.314  14.008
79173CL-    CL-47591  27.998   5.810   9.508
79174CL-    CL-47592   0.383  10.789  12.825
79175CL-    CL-47593  17.211  18.646  11.563
79176CL-    CL-47594  12.657  15.604  12.343
79177CL-    CL-47595  20.170  24.683   4.116
79178CL-    CL-47596  20.736  38.493  14.849
79179CL-    CL-47597   6.709   3.756  12.035
79180CL-    CL-47598   1.390  27.570  14.792
79181CL-    CL-47599  11.758  42.924  11.610
79182CL-    CL-47600  33.978   7.668   0.251
79183CL-    CL-47601  42.021  32.442   1.427
79184CL-    CL-47602  16.232  28.515   2.672
79185CL-    CL-47603  27.092   4.301   3.630
79186CL-    CL-47604  32.946  29.957  12.003
79187CL-    CL-47605   7.233   0.807  12.063
79188CL-    CL-47606  20.550  20.090  14.500
79189CL-    CL-47607  37.956   5.766  12.861
79190CL-    CL-47608  22.064  20.218   0.816
79191CL-    CL-47609  21.690  25.527   2.244
79192CL-    CL-47610  44.790  15.806  12.423
79193CL-    CL-47611  35.973  24.676  13.997
79194CL-    CL-47612  13.348   8.812   0.898
79195CL-    CL-47613  38.496  32.548  14.461
79196CL-    CL-47614   3.842  31.898  11.407
79197CL-    CL-47615  32.110  34.463  11.435
79198CL-    CL-47616  25.045  34.935   1.852
79199CL-    CL-47617  13.301  39.936  13.950
79200CL-    CL-47618  11.351  20.665   1.340
79201CL-    CL-47619  31.993  16.651  14.818
79202CL-    CL-47620  20.695  29.591  10.988
79203CL-    CL-47621  37.867  22.063  12.029
79204CL-    CL-47622  16.700  25.021   2.791
79205CL-    CL-47623  24.110  40.541   9.524
79206CL-    CL-47624  26.634  43.880  13.014
79207CL-    CL-47625  17.071  35.575  10.518
79208CL-    CL-47626  15.791  38.388   3.383
79209CL-    CL-47627  12.847  20.269   1.340
79210CL-    CL-47628  13.150   0.809   0.374
79211CL-    CL-47629  44.401   7.746  14.388
79212CL-    CL-47630   2.434   2.746  12.854
79213CL-    CL-47631   3.340  28.511  12.573
79214CL-    CL-47632  12.268  20.099  10.541
79215CL-    CL-47633  38.847  19.753   0.923
79216CL-    CL-47634  44.800  13.110   0.360
79217CL-    CL-47635  37.378  36.867   5.286
79218CL-    CL-47636   0.483  37.911   1.922
79219CL-    CL-47637  37.496  39.358  13.905
79220CL-    CL-47638  25.502  38.053   0.765
79221CL-    CL-47639   3.429  30.540  14.456
79222CL-    CL-47640  38.507  31.469  13.870
79223CL-    CL-47641  28.615   6.911   3.228
79224CL-    CL-47642  10.644   1.922  11.452
79225CL-    CL-47643  13.144  27.655   0.328
79226CL-    CL-47644  15.231  20.036   4.354
79227CL-    CL-47645  36.508  15.581   5.090
79228CL-    CL-47646   1.767   1.739   4.654
79229CL-    CL-47647  42.974  39.504   4.638
79230CL-    CL-47648   4.435  27.964   4.762
79231CL-    CL-47649  25.072   0.442  12.982
79232CL-    CL-47650  32.478  20.576   1.895
79233CL-    CL-47651  21.558  22.174  12.580
79234CL-    CL-47652   0.908  23.645  14.840
79235CL-    CL-47653  30.976  32.997   1.344
79236CL-    CL-47654  44.857  23.026   2.262
79237CL-    CL-47655  35.945   7.228   3.852
79238CL-    CL-47656  36.070  41.862   2.230
79239CL-    CL-47657  30.916  30.491   0.865
79240CL-    CL-47658  41.338  43.414  13.924
79241CL-    CL-47659  32.126  34.422   3.806
79242CL-    CL-47660  14.833  29.946  12.978
79243CL-    CL-47661   3.879  41.456  12.432
79244CL-    CL-47662  28.026  13.835   1.264
79245CL-    CL-47663  12.289   3.404  12.955
79246CL-    CL-47664  23.604  20.670   1.357
79247CL-    CL-47665  31.497  43.346   1.912
79248CL-    CL-47666  11.211  42.511   3.236
79249CL-    CL-47667  32.446  40.482   0.391
79250CL-    CL-47668  26.661  27.165  11.519
79251CL-    CL-47669  21.658   5.263  14.816
79252CL-    CL-47670  40.955  23.517  10.578
79253CL-    CL-47671  24.567  41.982   2.847
79254CL-    CL-47672  41.992   3.782  12.035
79255CL-    CL-47673   6.368  20.653  14.001
79256CL-    CL-47674  24.629   9.802  11.372
79257CL-    CL-47675  24.625  33.108   4.144
79258CL-    CL-47676  40.797  38.006  14.782
79259CL-    CL-47677  35.362  10.682   3.699
79260CL-    CL-47678  33.481  30.983  14.512
79261CL-    CL-47679  40.353  37.514  10.471
79262CL-    CL-47680  33.001  38.839  14.442
79263CL-    CL-47681   1.930  21.543   3.794
79264CL-    CL-47682  19.193  12.687  13.529
79265CL-    CL-47683  33.606   6.768   3.833
79266CL-    CL-47684  39.961   8.661  12.093
79267CL-    CL-47685   7.259  13.131  14.431
79268CL-    CL-47686   2.432  19.225  11.881
79269CL-    CL-47687  34.484  11.195   1.256
79270CL-    CL-47688  40.991   0.803  11.559
79271CL-    CL-47689  17.211   9.152   0.360
79272CL-    CL-47690  25.587  23.190   4.344
79273CL-    CL-47691   1.302   9.234  12.341
79274CL-    CL-47692  39.814  19.051   0.287
79275CL-    CL-47693  20.192  10.352  12.953
79276CL-    CL-47694  43.963  20.563  11.034
79277CL-    CL-47695  18.079  42.404   2.291
79278CL-    CL-47696  21.631  33.430  11.910
79279CL-    CL-47697  13.673  30.642  14.834
79280CL-    CL-47698   9.230  23.538   4.752
79281CL-    CL-47699  10.798  44.788   2.409
79282CL-    CL-47700   8.781  35.538   2.374
79283CL-    CL-47701  19.110   8.381  12.087
79284CL-    CL-47702  44.859  29.606   0.252
79285CL-    CL-47703  35.453   5.278  14.024
79286CL-    CL-47704   9.670   5.236   3.770
79287CL-    CL-47705   9.381  39.064  10.915
79288CL-    CL-47706  29.012  10.637  13.503
79289CL-    CL-47707  17.090  12.833   5.169
79290CL-    CL-47708  20.187  24.552   0.944
79291CL-    CL-47709   4.940   1.327   4.315
79292CL-    CL-47710  28.981  25.148   1.914
79293CL-    CL-47711  42.991  40.443   2.270
79294CL-    CL-47712  23.624  27.504   3.155
79295CL-    CL-47713  37.921  26.005   4.773
79296CL-    CL-47714  41.500  16.720  11.000
79297CL-    CL-47715  38.022   8.281  12.533
79298CL-    CL-47716  33.967  11.285   0.478
79299CL-    CL-47717  43.458   5.331  12.442
79300CL-    CL-47718  22.192  12.185  10.898
79301CL-    CL-47719   9.345   6.192  11.375
79302CL-    CL-47720  43.503  19.559   2.244
79303CL-    CL-47721  32.608  12.175   3.366
79304CL-    CL-47722  43.815  38.374   3.699
79305CL-    CL-47723   9.248  16.273  13.443
79306CL-    CL-47724  40.019  18.190   2.267
79307CL-    CL-47725  33.007  44.765   4.776
79308CL-    CL-47726  12.741  44.269   4.772
79309CL-    CL-47727  41.489  27.554  13.341
79310CL-    CL-47728  23.662   7.811   4.675
79311CL-    CL-47729   5.713  11.787   4.162
79312CL-    CL-47730  11.314  35.077   3.212
79313CL-    CL-47731  33.968  32.533   0.901
79314CL-    CL-47732  34.899  37.032  13.863
79315CL-    CL-47733  39.978  38.470  13.491
79316CL-    CL-47734  34.465  27.527  12.412
79317CL-    CL-47735  25.037  15.809   1.330
79318CL-    CL-47736  14.234  22.055  11.556
79319CL-    CL-47737  32.132   9.369  12.848
79320CL-    CL-47738   4.887  24.022   0.309
79321CL-    CL-47739  18.280  10.765   3.686
79322CL-    CL-47740  12.325   4.433  14.499
79323CL-    CL-47741   5.769  20.705  10.414
79324CL-    CL-47742  35.992  39.864  12.509
79325CL-    CL-47743  31.976   9.241   3.217
79326CL-    CL-47744  33.961  16.267  13.993
79327CL-    CL-47745   2.258  40.874  11.554
79328CL-    CL-47746  14.644  42.316   0.428
79329CL-    CL-47747  29.965  34.486   2.204
79330CL-    CL-47748  18.563  40.532   0.328
79331CL-    CL-47749  12.777  31.078  12.877
79332CL-    CL-47750  40.537  11.174  12.519
79333CL-    CL-47751  25.198  43.323  14.872
79334CL-    CL-47752  18.134  23.534   2.857
79335CL-    CL-47753  27.948  10.327   2.827
79336CL-    CL-47754  12.146   7.902  13.492
79337CL-    CL-47755  26.534  42.419   1.295
79338CL-    CL-47756  40.801   3.304  14.834
79339CL-    CL-47757  24.720  27.671   1.808
79340CL-    CL-47758  24.051  35.045   0.899
79341CL-    CL-47759  23.509  30.152  10.587
79342CL-    CL-47760  14.130   1.267   1.331
79343CL-    CL-47761  42.392  43.801   3.730
79344CL-    CL-47762  31.433   8.176  14.996
79345CL-    CL-47763   4.431  12.243   0.873
79346CL-    CL-47764  18.579  20.729  12.865
79347CL-    CL-47765  21.755   1.768   0.898
79348CL-    CL-47766   2.327  42.327  10.525
79349CL-    CL-47767  25.569  38.473   0.808
79350CL-    CL-47768  27.183  34.101  11.553
79351CL-    CL-47769  38.446  38.965   1.271
79352CL-    CL-47770   0.269   9.752   4.264
79353CL-    CL-47771  41.937  13.841  14.355
79354CL-    CL-47772  30.640  20.535   0.339
79355CL-    CL-47773   2.757  41.025   3.686
79356CL-    CL-47774  24.091  33.062   0.362
79357CL-    CL-47775   7.222  14.238   2.858
79358CL-    CL-47776  40.027   9.169   0.911
79359CL-    CL-47777  44.472  13.763  13.337
79360CL-    CL-47778  32.634  14.167   1.356
79361CL-    CL-47779  19.145  19.673   2.847
79362CL-    CL-47780  35.862   1.732  10.440
79363CL-    CL-47781  28.009  28.053  13.338
79364CL-    CL-47782   0.356   6.251   3.155
79365CL-    CL-47783  36.910   4.225   4.789
79366CL-    CL-47784  26.982   8.841  11.553
79367CL-    CL-47785  24.051  35.926  10.137
79368CL-    CL-47786  11.632  40.873   2.710
79369CL-    CL-47787   7.285  18.122  14.356
79370CL-    CL-47788  32.619  44.456   2.703
79371CL-    CL-47789  12.743  44.369  13.798
79372CL-    CL-47790  32.624  22.723  10.896
79373CL-    CL-47791   1.445  19.259  11.966
79374CL-    CL-47792  21.667  39.961  14.928
79375CL-    CL-47793   2.255  30.128  10.611
79376CL-    CL-47794  20.119  38.827   4.747
79377CL-    CL-47795   0.860   3.915   2.824
79378CL-    CL-47796  39.486  40.504   0.358
79379CL-    CL-47797   5.259  36.436   4.348
79380CL-    CL-47798  42.379   0.379   4.215
79381CL-    CL-47799  20.139  32.909  11.878
79382CL-    CL-47800  29.106   9.884  13.960
79383CL-    CL-47801   2.459  41.420  14.833
79384CL-    CL-47802  29.085  44.303   2.897
79385CL-    CL-47803  21.145  37.439  11.498
79386CL-    CL-47804  42.995  15.310   1.370
79387CL-    CL-47805   3.797   9.353   1.707
79388CL-    CL-47806  35.927  28.450  13.450
79389CL-    CL-47807  19.072  16.668  14.347
79390CL-    CL-47808   4.360   0.349   3.346
79391CL-    CL-47809  34.380  22.193   4.185
79392CL-    CL-47810  10.749   9.876  12.579
79393CL-    CL-47811  10.231  42.906  12.384
79394CL-    CL-47812  19.651  32.462  14.912
79395CL-    CL-47813  21.188  43.441   3.779
79396CL-    CL-47814  13.238   3.385   2.890
79397CL-    CL-47815  22.668  28.942   2.303
79398CL-    CL-47816  41.506  28.640  10.544
79399CL-    CL-47817   1.281  30.638  14.870
79400CL-    CL-47818  37.431  18.071  13.446
79401CL-    CL-47819  11.223  43.433  11.927
79402CL-    CL-47820  31.952   1.408   0.938
79403CL-    CL-47821  36.042   3.824   1.774
79404CL-    CL-47822  15.183  14.807   1.347
79405CL-    CL-47823   2.843  26.045   2.676
79406CL-    CL-47824   6.806  15.121   4.691
79407CL-    CL-47825  28.122  36.876   3.246
79408CL-    CL-47826  19.706  30.992  11.059
79409CL-    CL-47827  16.571  38.548   3.847
79410CL-    CL-47828   9.249   8.184  14.281
79411CL-    CL-47829  35.539  22.581  14.461
79412CL-    CL-47830  12.732  14.213  11.911
79413CL-    CL-47831   4.722  29.144  11.986
79414CL-    CL-47832  32.543  20.170  12.932
79415CL-    CL-47833  13.204   2.781   0.336
79416CL-    CL-47834   7.728   2.806  14.986
79417CL-    CL-47835  13.798  35.934   4.273
79418CL-    CL-47836  37.864  11.803   1.342
79419CL-    CL-47837  20.673  26.627   1.849
79420CL-    CL-47838  20.628  12.242   3.232
79421CL-    CL-47839  23.006  33.041  10.579
79422CL-    CL-47840  33.947  41.409   0.957
79423CL-    CL-47841  16.302  16.601   0.340
79424CL-    CL-47842  13.701  18.265  10.431
79425CL-    CL-47843  37.848  15.632  13.878
79426CL-    CL-47844  27.462  44.958  10.891
79427CL-    CL-47845  39.470  21.215   1.836
79428CL-    CL-47846   1.390  33.598   3.850
79429CL-    CL-47847  26.624   4.380  11.562
79430CL-    CL-47848  32.521   0.944  10.147
79431CL-    CL-47849  38.411  24.498   0.426
79432CL-    CL-47850  13.766   9.865   0.873
79433CL-    CL-47851  35.016  10.197  14.516
79434CL-    CL-47852  42.455  26.646   1.289
79435CL-    CL-47853  19.720  19.541  10.503
79436CL-    CL-47854   6.875  31.107   1.404
79437CL-    CL-47855  34.036  33.887   1.699
79438CL-    CL-47856  44.913  20.179  11.986
79439CL-    CL-47857  27.156  30.005  12.998
79440CL-    CL-47858  21.596  39.534  13.849
79441CL-    CL-47859   6.410  16.584  10.153
79442CL-    CL-47860  38.019   8.730   4.250
79443CL-    CL-47861  12.194  44.349  14.804
79444CL-    CL-47862  40.538   7.700   4.769
79445CL-    CL-47863  39.403  44.899   2.862
79446CL-    CL-47864  39.057  33.036   4.191
79447CL-    CL-47865  27.150  20.764   4.668
79448CL-    CL-47866  42.301  29.531   0.330
79449CL-    CL-47867  33.469  28.437  10.937
79450CL-    CL-47868   2.299  23.555  10.142
79451CL-    CL-47869   3.785  14.139   0.370
79452CL-    CL-47870  25.003  11.209   4.277
79453CL-    CL-47871  10.725  22.581   4.701
79454CL-    CL-47872  44.369  28.154   4.817
79455CL-    CL-47873  34.435   7.667   0.742
79456CL-    CL-47874  28.584  20.674   2.185
79457CL-    CL-47875  37.438  37.047  13.015
79458CL-    CL-47876  13.125  27.526   3.160
79459CL-    CL-47877  40.524  24.163   2.776
79460CL-    CL-47878  10.218  15.733  12.869
79461CL-    CL-47879  29.931  43.478  12.959
79462CL-    CL-47880   3.290  43.388   4.810
79463CL-    CL-47881  39.440   8.676  13.027
79464CL-    CL-47882  44.009   8.396   4.127
79465CL-    CL-47883  19.749  23.537   4.702
79466CL-    CL-47884  11.238  42.451   1.779
79467CL-    CL-47885  17.630  38.503  11.439
79468CL-    CL-47886  31.601  34.496  10.517
79469CL-    CL-47887   2.237  19.276   0.769
79470CL-    CL-47888  39.937   6.910   0.349
79471CL-    CL-47889  42.801  37.933  11.568
79472CL-    CL-47890  40.397   0.938   0.242
79473CL-    CL-47891   7.864  35.002   1.394
79474CL-    CL-47892   9.188  29.088  13.959
79475CL-    CL-47893  16.179   3.233   3.766
79476CL-    CL-47894  31.069  18.645   2.832
79477CL-    CL-47895  12.821   7.752   2.326
79478CL-    CL-47896  39.516   1.338  14.902
79479CL-    CL-47897   7.665  23.202  12.509
79480CL-    CL-47898  32.105   1.935  13.440
79481CL-    CL-47899  21.161   3.413  14.855
79482CL-    CL-47900   7.754  30.973  11.857
79483CL-    CL-47901  11.173  34.945   4.599
79484CL-    CL-47902  23.227  43.469  11.511
79485CL-    CL-47903  39.004  11.801   2.269
79486CL-    CL-47904  36.003  11.249   3.641
79487CL-    CL-47905  17.124   2.765   3.155
79488CL-    CL-47906  11.343  17.726  12.964
79489CL-    CL-47907  28.580   9.267   3.250
79490CL-    CL-47908   6.191  16.580  11.925
79491CL-    CL-47909  37.397  39.053   9.650
79492CL-    CL-47910  35.943  15.631  13.456
79493CL-    CL-47911  28.086  28.957   9.996
79494CL-    CL-47912  41.383   1.910  11.395
79495CL-    CL-47913  25.104  36.409   5.160
79496CL-    CL-47914  19.056  13.670   3.319
79497CL-    CL-47915   3.942   1.754   2.232
79498CL-    CL-47916  37.533  43.492  10.945
79499CL-    CL-47917  43.976   3.423   4.250
79500CL-    CL-47918   7.340   0.462  14.933
79501CL-    CL-47919  26.197   4.847  14.905
79502CL-    CL-47920  23.210  16.620  11.505
79503CL-    CL-47921  39.963  16.212  13.041
79504CL-    CL-47922  37.572  42.510   0.288
79505CL-    CL-47923  27.013  25.635  13.940
79506CL-    CL-47924   5.430  34.049  13.530
79507CL-    CL-47925  23.984  10.266   9.944
79508CL-    CL-47926  25.168  25.211   3.375
79509CL-    CL-47927  30.506  38.483   3.789
79510CL-    CL-47928  19.221  41.291   0.784
79511CL-    CL-47929  41.496  29.440  11.572
79512CL-    CL-47930   7.780  43.352   2.716
79513CL-    CL-47931  36.556   7.369   3.821
79514CL-    CL-47932  26.629  15.095   3.862
79515CL-    CL-47933  34.891  31.015   4.819
79516CL-    CL-47934  24.599  26.997  10.938
79517CL-    CL-47935  24.071  30.575   9.969
79518CL-    CL-47936  29.102  39.870   0.736
79519CL-    CL-47937  41.963  43.998  10.986
79520CL-    CL-47938  31.972  20.031   1.432
79521CL-    CL-47939  20.624  40.372   3.674
79522CL-    CL-47940   6.684  29.586  10.477
79523CL-    CL-47941   8.759  43.405  10.563
79524CL-    CL-47942   3.849  42.901   0.283
79525CL-    CL-47943  15.646  28.991  12.430
79526CL-    CL-47944  24.490  27.480   1.435
79527CL-    CL-47945   2.360  10.672   1.387
79528CL-    CL-47946  37.971  26.160   0.804
79529CL-    CL-47947  11.282  31.560  10.960
79530CL-    CL-47948   0.350   5.816  13.448
79531CL-    CL-47949  18.107  23.055  13.542
79532CL-    CL-47950  28.546  32.556   3.844
79533CL-    CL-47951   6.779  11.775   0.334
79534CL-    CL-47952   1.884  13.777   2.793
79535CL-    CL-47953  27.146  29.463   0.745
79536CL-    CL-47954  40.497  32.406   1.395
79537CL-    CL-47955  35.446  31.974  12.830
79538CL-    CL-47956  19.716   9.652  13.350
79539CL-    CL-47957   5.306   3.904   1.820
79540CL-    CL-47958  31.128  15.787   2.269
79541CL-    CL-47959  17.266  39.550  11.908
79542CL-    CL-47960   1.937  25.131  11.125
79543CL-    CL-47961   7.803  44.803  14.361
79544CL-    CL-47962  44.951   0.267  14.928
79545CL-    CL-47963   3.775  14.096   2.304
79546CL-    CL-47964   8.817  34.934  10.584
79547CL-    CL-47965  17.631   8.315   0.829
79548CL-    CL-47966   0.469  33.577   3.159
79549CL-    CL-47967   3.312  21.709   3.832
79550CL-    CL-47968  44.816  31.069  12.825
79551CL-    CL-47969   3.764  33.920  12.919
79552CL-    CL-47970   7.859  16.237   4.696
79553CL-    CL-47971  42.446   5.295   4.602
79554CL-    CL-47972  18.149  17.772  14.512
79555CL-    CL-47973  37.350  20.732   2.789
79556CL-    CL-47974   2.436  15.150   4.638
79557CL-    CL-47975  10.873  15.316  11.072
79558CL-    CL-47976  32.459   7.847  13.029
79559CL-    CL-47977  41.935  11.701   0.740
79560CL-    CL-47978  26.669  11.711  14.001
79561CL-    CL-47979   5.703  16.310  13.377
79562CL-    CL-47980  44.350  39.473   3.658
79563CL-    CL-47981  31.935  25.185  13.460
79564CL-    CL-47982  29.007  20.541   4.619
79565CL-    CL-47983  18.606   8.686   0.462
79566CL-    CL-47984   1.473   4.284  13.430
79567CL-    CL-47985  20.139   1.333  10.425
79568CL-    CL-47986   3.225  10.767   2.195
79569CL-    CL-47987  12.731  17.150  10.952
79570CL-    CL-47988  16.111  29.968   2.805
79571CL-    CL-47989   7.324  33.448   1.694
79572CL-    CL-47990  40.324   0.470   2.863
79573CL-    CL-47991   3.268  12.191  13.965
79574CL-    CL-47992  33.939  28.942  10.621
79575CL-    CL-47993  16.705   6.762   9.981
79576CL-    CL-47994  36.422  24.480  10.976
79577CL-    CL-47995  35.024  33.528   0.844
79578CL-    CL-47996  16.303  24.499  13.373
79579CL-    CL-47997  30.596  17.108   0.301
79580CL-    CL-47998  18.206   9.251   0.755
79581CL-    CL-47999  23.725   1.839   1.326
79582CL-    CL-48000  10.139  44.423  13.432
79583CL-    CL-48001  42.801  29.052  11.997
79584CL-    CL-48002  16.291  10.785   0.340
79585CL-    CL-48003  20.744  17.071   4.825
79586CL-    CL-48004  14.641   6.820   0.766
79587CL-    CL-48005  41.867  18.626  12.013
79588CL-    CL-48006  23.533  43.470   3.283
79589CL-    CL-48007   7.891   6.827   2.246
79590CL-    CL-48008  27.162  30.623   4.173
79591CL-    CL-48009  41.392   0.336   3.295
79592CL-    CL-48010  17.757   7.768  13.000
79593CL-    CL-48011   6.257   6.330   4.326
79594CL-    CL-48012  13.603  43.296   0.850
79595CL-    CL-48013   0.870  28.087  14.892
79596CL-    CL-48014  27.659   1.334  10.914
79597CL-    CL-48015  14.250  37.996   0.402
79598CL-    CL-48016  24.058  36.358   1.806
79599CL-    CL-48017  43.814   2.747  14.866
79600CL-    CL-48018  10.147  41.991  14.445
79601CL-    CL-48019  41.525  27.013   2.707
79602CL-    CL-48020   2.242  25.573   2.302
79603CL-    CL-48021  38.523   8.279   1.278
79604CL-    CL-48022  39.443  15.619   1.282
79605CL-    CL-48023  16.200   8.814   0.443
79606CL-    CL-48024  28.517  36.580   3.665
79607CL-    CL-48025  26.023  43.803  11.489
79608CL-    CL-48026   1.765  18.581  14.866
79609CL-    CL-48027  42.963  34.487  13.815
79610CL-    CL-48028  29.929  42.453   1.830
79611CL-    CL-48029  29.080  34.006   3.364
79612CL-    CL-48030  12.702  20.741  12.862
79613CL-    CL-48031  41.849   6.707  13.416
79614CL-    CL-48032  42.292  35.085  13.045
79615CL-    CL-48033  21.216  10.743   1.306
79616CL-    CL-48034   6.829  34.089  11.494
79617CL-    CL-48035   0.414  16.100  13.341
79618CL-    CL-48036  13.165  41.482  12.449
79619CL-    CL-48037  36.525  29.588  13.395
79620CL-    CL-48038  36.073  31.137   2.774
79621CL-    CL-48039  44.285  25.067   5.265
79622CL-    CL-48040   7.178  34.373  12.093
79623CL-    CL-48041  39.348  18.778   4.182
79624CL-    CL-48042   2.748  34.589  11.597
79625CL-    CL-48043  22.999   7.188   2.297
79626CL-    CL-48044  19.652  24.700  11.097
79627CL-    CL-48045   2.871  28.551   0.300
79628CL-    CL-48046  23.574   7.847   3.703
79629CL-    CL-48047  32.025   4.263  13.816
79630CL-    CL-48048  37.393  32.949  11.495
79631CL-    CL-48049  12.721  20.230   4.332
79632CL-    CL-48050  32.995  33.437   2.828
79633CL-    CL-48051  38.951  41.508  14.853
79634CL-    CL-48052  43.783  18.294  14.026
79635CL-    CL-48053   5.237  37.024  14.395
79636CL-    CL-48054   4.256  21.202  12.040
79637CL-    CL-48055  31.012  29.442   3.379
79638CL-    CL-48056  10.284  17.633  14.329
79639CL-    CL-48057  28.031  15.692   5.112
79640CL-    CL-48058  21.150  41.323   4.672
79641CL-    CL-48059  30.130  29.128   2.233
79642CL-    CL-48060  16.682  37.878   0.439
79643CL-    CL-48061   8.192   4.809  10.642
79644CL-    CL-48062  27.581  17.293   1.735
79645CL-    CL-48063  38.038  11.798   3.215
79646CL-    CL-48064  17.634   8.171  13.791
79647CL-    CL-48065   5.764   0.412  14.904
79648CL-    CL-48066  40.433  39.520  10.512
79649CL-    CL-48067  10.763  27.578  14.870
79650CL-    CL-48068  44.343  23.535   9.569
79651CL-    CL-48069   9.693  44.275  11.059
79652CL-    CL-48070   3.884  15.083  14.765
79653CL-    CL-48071   9.294  37.499   3.824
79654CL-    CL-48072  28.105  33.447   3.703
79655CL-    CL-48073  33.952   1.396  11.930
79656CL-    CL-48074  32.996  25.178   4.775
79657CL-    CL-48075  22.736   9.167   4.673
79658CL-    CL-48076   9.221   3.301  11.543
79659CL-    CL-48077  40.504  42.994   2.295
79660CL-    CL-48078   6.267  12.742  12.834
79661CL-    CL-48079  43.864  35.372   0.465
79662CL-    CL-48080  18.631  41.865   1.878
79663CL-    CL-48081  17.790  18.718  14.472
79664CL-    CL-48082   1.854   8.340  14.443
79665CL-    CL-48083  21.224  36.847  11.089
79666CL-    CL-48084   3.399  20.189   0.764
79667CL-    CL-48085   1.960   9.246   4.296
79668CL-    CL-48086  10.315  13.807  12.488
79669CL-    CL-48087  40.822  25.005   1.709
79670CL-    CL-48088   5.929  17.577  14.909
79671CL-    CL-48089   7.839   5.209   0.348
79672CL-    CL-48090  15.786   3.257   4.647
79673CL-    CL-48091  35.911  21.022   4.260
79674CL-    CL-48092  20.093  13.329   0.836
79675CL-    CL-48093  25.075  27.025  11.035
79676CL-    CL-48094  39.827   8.173   3.823
79677CL-    CL-48095   6.218   4.239   1.867
79678CL-    CL-48096  33.385   8.679   2.762
  45.00000  45.00000  15.00000   0.00000   0.00000   0.00000   0.00000   0.00000   0.00000

